FOO
135168
    1MOL0     O    1   7.761   4.409   4.571 -0.1131 -0.5817 -0.3733
    1MOL0     C    2   7.824   4.313   4.602 -0.8776  0.2352  0.1076
    1MOL0     O    3   7.800   4.188   4.552  0.2105 -0.1422  0.0068
    1MOL0     C    4   7.688   4.161   4.480 -1.1354 -0.0929 -0.1962
    1MOL0     C    5   7.619   4.039   4.490  0.8437  0.2330 -0.5117
    1MOL0     C    6   7.522   3.992   4.401 -0.0261  0.3217 -0.0888
    1MOL0     C    7   7.484   4.069   4.291  0.0099 -1.3063 -0.2839
    1MOL0     O    8   7.401   4.039   4.184 -0.3107 -0.4853  0.8756
    1MOL0     C    9   7.353   3.904   4.188 -0.3057  0.3658 -0.2971
    1MOL0     C   10   7.284   3.857   4.059  0.8786  0.8054  0.1749
    1MOL0     C   11   7.161   3.932   4.013  0.0230 -0.2609  0.4419
    1MOL0     C   12   7.119   3.895   3.872 -0.3149 -0.8268  1.1021
    1MOL0     C   13   6.998   3.991   3.832  0.5186  0.6974  0.3325
    1MOL0     C   14   6.940   3.945   3.696 -0.0388 -0.2943 -0.2080
    1MOL0     C   15   6.788   3.970   3.677  0.1526  0.1089 -0.4377
    1MOL0     C   16   6.735   3.947   3.531  0.3472  0.1354 -0.0748
    1MOL0     N   17   6.600   4.009   3.519 -0.3498 -0.3562  0.0894
    1MOL0     C   18   6.579   4.144   3.512  0.0878 -1.1401 -0.6104
    1MOL0     C   19   6.449   4.166   3.491 -0.2190  0.8237 -0.0125
    1MOL0     C   20   6.368   4.292   3.461  0.0078 -0.6767  0.0583
    1MOL0     C   21   6.238   4.259   3.377 -0.4392  0.7663 -0.0239
    1MOL0     C   22   6.123   4.357   3.398  0.3421 -0.0942  0.2980
    1MOL0     C   23   6.001   4.298   3.329 -0.0907 -0.4762 -0.3204
    1MOL0     O   24   5.886   4.380   3.357 -0.7086 -0.2686 -0.4344
    1MOL0     C   25   5.770   4.327   3.312  0.6450 -0.1428  0.4789
    1MOL0     C   26   5.650   4.389   3.357 -0.0063  0.2008  0.1709
    1MOL0     C   27   5.524   4.363   3.301 -0.7671 -0.1190 -0.0739
    1MOL0     C   28   5.514   4.250   3.213  0.4365  0.4784  0.4077
    1MOL0     C   29   5.380   4.211   3.151 -0.1986 -0.4691 -0.2711
    1MOL0     O   30   5.384   4.122   3.052  0.0191 -0.0561  0.1790
    1MOL0     C   31   5.265   4.064   3.000 -0.4395  1.0182  0.3901
    1MOL0     C   32   5.217   4.076   2.866 -0.9791 -0.1811  0.0976
    1MOL0     C   33   5.092   4.016   2.825 -0.1328 -0.1108  1.2553
    1MOL0     C   34   5.021   3.937   2.920 -0.5840  0.2490  0.1530
    1MOL0     O   35   4.904   3.875   2.888 -0.1659 -0.4778  0.1431
    1MOL0     C   36   4.793   3.955   2.939  0.3544 -0.1995  1.1517
    1MOL0     C   37   4.674   3.866   2.958 -0.5046 -0.5325 -0.1178
    1MOL0     C   38   4.569   3.944   3.014  0.8688  0.3054 -0.3614
    1MOL0     C   39   4.573   3.980   3.162 -0.1390 -0.1403  0.0131
    1MOL0     C   40   4.443   4.036   3.213  0.4401  1.1330 -0.3611
    1MOL0     C   41   4.463   4.028   3.367  0.1002 -0.7925 -0.4214
    1MOL0     C   42   4.378   4.121   3.441  0.2631 -0.3871 -0.0231
    1MOL0     C   43   4.261   4.065   3.531  0.3638 -0.8215 -0.1523
    1MOL0    Cl   44   4.353   3.981   3.665 -0.0974 -0.0655  0.4289
    1MOL0     C   45   5.066   3.925   3.044 -0.2565 -0.0285 -0.3137
    1MOL0     C   46   5.187   3.984   3.087  0.1611 -0.0929 -0.0521
    1MOL0     O   47   5.279   4.260   3.198  0.4251 -0.0827  0.6307
    1MOL0     C   48   5.631   4.176   3.187  0.3756  0.7790  0.2166
    1MOL0     C   49   5.752   4.220   3.228 -0.0903  0.0677  0.1677
    1MOL0     N   50   6.392   4.039   3.496 -0.0753  0.0909 -0.1246
    1MOL0     N   51   6.482   3.946   3.520 -0.6967 -0.1074 -0.1101
    1MOL0     C   52   7.539   4.202   4.290  0.2656  0.6648 -0.1775
    1MOL0     C   53   7.642   4.242   4.375 -0.4374  0.9061 -0.3587
    1MOL0     C   54   7.957   4.330   4.671  0.5747 -0.9280 -0.2682
    1MOL0     C   55   8.029   4.217   4.712  0.6117  0.4800 -0.1099
    1MOL0     C   56   8.129   4.237   4.791 -0.0494  0.1151  0.1502
    1MOL0     C   57   8.182   4.369   4.831 -0.3414  0.1841 -0.4512
    1MOL0     O   58   8.290   4.378   4.910  0.3597 -0.2553 -0.7034
    1MOL0     C   59   8.400   4.298   4.876  0.1843 -0.4545 -0.1880
    1MOL0     C   60   8.436   4.202   4.985  0.2706  1.0145 -0.2090
    1MOL0     C   61   8.565   4.119   4.959 -0.0559  0.3735 -0.0593
    1MOL0     C   62   8.539   3.973   4.962 -1.3587  1.4043 -0.3619
    1MOL0     C   63   8.650   3.896   4.902  0.2513  0.1957 -0.1280
    1MOL0     C   64   8.741   3.833   4.852 -0.0910  0.7633  0.5840
    1MOL0     C   65   8.100   4.477   4.800  0.3644  0.0871 -0.2760
    1MOL0     C   66   7.994   4.459   4.716 -0.4594 -0.6951 -0.0833
    1MOL0     H   67   7.654   3.967   4.564  0.2810 -1.6781 -2.0235
    1MOL0     H   68   7.474   3.895   4.408 -0.5161  0.5099 -0.6901
    1MOL0     H   69   7.284   3.882   4.270  1.6610 -2.3367  0.7920
    1MOL0     H   70   7.440   3.837   4.194 -0.6117  0.0754  1.3741
    1MOL0     H   71   7.251   3.753   4.068  0.9900  0.9282  3.1401
    1MOL0     H   72   7.349   3.860   3.971 -0.3060 -1.9191 -0.8935
    1MOL0     H   73   7.193   4.036   4.006 -1.2482  0.0683 -0.8213
    1MOL0     H   74   7.081   3.901   4.081  0.2064 -0.4235  0.5871
    1MOL0     H   75   7.202   3.910   3.802 -0.7701 -0.3184  0.6710
    1MOL0     H   76   7.098   3.788   3.858 -1.8696 -0.2257 -2.0775
    1MOL0     H   77   7.028   4.097   3.837 -0.0680  1.1052 -2.7764
    1MOL0     H   78   6.929   3.978   3.916  2.2604 -0.2489  1.6714
    1MOL0     H   79   6.950   3.836   3.694  0.9224 -0.2367  0.4526
    1MOL0     H   80   6.991   3.998   3.614  0.6459  0.7334  0.8425
    1MOL0     H   81   6.715   3.915   3.737 -2.7856  1.5340 -2.4498
    1MOL0     H   82   6.770   4.075   3.702 -0.8266  0.0512 -0.8750
    1MOL0     H   83   6.731   3.841   3.502  0.5702  0.0928  0.0505
    1MOL0     H   84   6.803   3.994   3.460 -1.8740  1.2951 -1.5727
    1MOL0     H   85   6.658   4.218   3.520 -0.3822 -0.4908 -1.6429
    1MOL0     H   86   6.424   4.366   3.403 -1.3276  0.0035 -0.4153
    1MOL0     H   87   6.355   4.338   3.559  1.8598 -1.2878  0.6445
    1MOL0     H   88   6.197   4.160   3.398  2.4340 -0.4499  0.2590
    1MOL0     H   89   6.272   4.264   3.273  0.6039 -0.0563  0.2638
    1MOL0     H   90   6.097   4.370   3.503 -2.9241  1.8458 -0.5965
    1MOL0     H   91   6.143   4.461   3.371  1.6795  0.3873  2.8772
    1MOL0     H   92   5.993   4.191   3.348  2.7557 -0.7850 -0.4782
    1MOL0     H   93   6.020   4.305   3.222 -2.2322 -1.2581 -0.7998
    1MOL0     H   94   5.657   4.473   3.425  4.3647 -2.3706  3.3955
    1MOL0     H   95   5.435   4.414   3.336  0.1449  0.8629  0.8713
    1MOL0     H   96   5.264   4.144   2.796 -0.0167 -0.4914  0.4303
    1MOL0     H   97   5.059   4.023   2.722 -0.1097  0.5150  1.2889
    1MOL0     H   98   4.769   4.040   2.875 -1.0020  2.0114  4.2863
    1MOL0     H   99   4.822   4.000   3.035  0.5320  1.0580  0.5327
    1MOL0     H  100   4.702   3.782   3.023  0.3435  0.1642  0.4388
    1MOL0     H  101   4.629   3.835   2.864  0.0085 -0.2800 -0.4499
    1MOL0     H  102   4.479   3.882   3.007  1.2714 -1.0200  3.5429
    1MOL0     H  103   4.554   4.038   2.960 -0.9247 -0.7065 -1.7634
    1MOL0     H  104   4.601   3.894   3.223 -3.5093  0.2611  2.3723
    1MOL0     H  105   4.652   4.054   3.178 -0.8290  0.6413 -0.1344
    1MOL0     H  106   4.359   3.976   3.177  2.4459 -0.8930 -1.9601
    1MOL0     H  107   4.440   4.134   3.164 -3.1066  0.8639 -0.9647
    1MOL0     H  108   4.561   4.070   3.390 -1.6211  3.2723  0.2991
    1MOL0     H  109   4.447   3.928   3.410 -3.8708 -0.3464 -0.4850
    1MOL0     H  110   4.431   4.180   3.517 -3.2877  0.2491  2.2017
    1MOL0     H  111   4.340   4.186   3.361 -1.2100 -4.3199 -2.8264
    1MOL0     H  112   4.186   4.003   3.480 -1.2738  0.6870  0.2952
    1MOL0     H  113   4.214   4.155   3.572  0.1323 -0.1692 -1.7872
    1MOL0     H  114   5.002   3.877   3.117  1.0782 -1.2894  0.0783
    1MOL0     H  115   5.219   3.979   3.191 -1.0482  2.3345  0.5171
    1MOL0     H  116   5.632   4.087   3.124  3.9117  0.3612  0.6914
    1MOL0     H  117   5.838   4.156   3.205  1.1644  1.4599  0.8189
    1MOL0     H  118   7.504   4.269   4.213 -0.3204  0.4263 -0.1231
    1MOL0     H  119   7.688   4.339   4.355 -0.7437  0.6495 -2.5126
    1MOL0     H  120   7.995   4.116   4.692  1.4316  0.3919 -1.1382
    1MOL0     H  121   8.174   4.147   4.832  2.2819  0.5166 -1.3024
    1MOL0     H  122   8.485   4.366   4.870  0.9065 -1.1572  1.4831
    1MOL0     H  123   8.386   4.241   4.784  1.8447 -0.2852 -0.5707
    1MOL0     H  124   8.455   4.253   5.079 -2.9697  3.3246 -0.6454
    1MOL0     H  125   8.348   4.138   4.998  1.0076 -0.0205 -0.0981
    1MOL0     H  126   8.651   4.125   5.026  1.3370 -1.1803 -1.5992
    1MOL0     H  127   8.604   4.144   4.860 -0.5488 -1.2435 -0.6901
    1MOL0     H  128   8.513   3.945   5.064 -1.5489  0.7607 -0.5836
    1MOL0     H  129   8.448   3.965   4.902 -1.7669 -0.7189  0.4462
    1MOL0     H  130   8.818   3.770   4.813  0.3574  1.7108 -0.0902
    1MOL0     H  131   8.121   4.578   4.834 -2.6053  1.6427 -2.5815
    1MOL0     H  132   7.933   4.538   4.673  0.0179  0.1321  0.7117
    2MOL0     O  133   8.485   8.265   6.824 -0.6126  0.5320  0.0035
    2MOL0     C  134   8.551   8.368   6.800  0.4806  0.1888 -0.5750
    2MOL0     O  135   8.547   8.477   6.886  0.6116 -0.0929 -0.3909
    2MOL0     C  136   8.467   8.474   7.003 -0.5151 -0.1214  1.1834
    2MOL0     C  137   8.340   8.536   6.996  0.1293 -0.1667 -0.5460
    2MOL0     C  138   8.263   8.541   7.119 -1.0074 -0.0502  0.3278
    2MOL0     C  139   8.317   8.510   7.243  0.4908 -0.2013  0.5419
    2MOL0     O  140   8.231   8.530   7.348  0.8522  0.8541  0.1888
    2MOL0     C  141   8.265   8.469   7.474  0.0732  0.2829  0.3010
    2MOL0     C  142   8.394   8.528   7.557 -0.2382 -1.1065  0.3193
    2MOL0     C  143   8.438   8.431   7.674  0.3207 -0.3109 -0.0699
    2MOL0     C  144   8.520   8.508   7.778  0.5953 -0.5146  0.2946
    2MOL0     C  145   8.596   8.419   7.877  0.7753 -0.1948  0.2815
    2MOL0     C  146   8.510   8.313   7.947 -0.1212  0.2821  0.0503
    2MOL0     C  147   8.408   8.379   8.044  0.3154  0.3636  0.2301
    2MOL0     C  148   8.322   8.277   8.116  0.0993  0.6903 -0.5746
    2MOL0     N  149   8.232   8.197   8.032  0.1070 -0.5885  0.6080
    2MOL0     C  150   8.136   8.256   7.959  0.8400 -0.1730 -0.3812
    2MOL0     C  151   8.091   8.158   7.870  0.6399  0.2709 -0.4280
    2MOL0     C  152   7.985   8.158   7.770  0.3034  0.2261  0.1421
    2MOL0     C  153   7.866   8.241   7.822  0.8521  0.0860  0.3210
    2MOL0     C  154   7.826   8.225   7.960  0.4328 -0.6710 -0.0629
    2MOL0     C  155   7.676   8.207   7.989 -0.3565  0.3096 -0.1110
    2MOL0     O  156   7.612   8.326   7.933 -0.9110 -0.0244 -1.0776
    2MOL0     C  157   7.484   8.349   7.920 -0.3276 -0.4041 -0.6208
    2MOL0     C  158   7.461   8.471   7.849  1.0197 -0.9835  0.2016
    2MOL0     C  159   7.330   8.525   7.858 -1.0152  0.1098 -0.3837
    2MOL0     C  160   7.228   8.445   7.910  0.5109 -0.5135 -1.1954
    2MOL0     C  161   7.091   8.498   7.918 -0.4253 -1.1121  0.0732
    2MOL0     O  162   6.994   8.405   7.923 -0.0334  0.0131  0.3786
    2MOL0     C  163   6.864   8.433   7.939 -0.8188 -0.0357 -0.2567
    2MOL0     C  164   6.791   8.318   7.967 -0.6225  0.0103 -0.3143
    2MOL0     C  165   6.654   8.331   7.968  0.2308  1.1208 -0.2706
    2MOL0     C  166   6.583   8.452   7.970 -0.2081  0.5922  0.0771
    2MOL0     O  167   6.449   8.452   7.991  0.4218 -0.3012 -0.5977
    2MOL0     C  168   6.384   8.535   7.890  1.4093 -0.4315  0.1555
    2MOL0     C  169   6.346   8.664   7.964 -0.4010  0.6431  0.8305
    2MOL0     C  170   6.228   8.737   7.890 -0.2362 -0.3371 -0.3134
    2MOL0     C  171   6.209   8.866   7.978 -0.5941  0.1789  0.5150
    2MOL0     C  172   6.153   8.981   7.904  0.5984  0.3786  0.4264
    2MOL0     C  173   6.002   8.954   7.847  0.3010  0.3026  0.2260
    2MOL0     C  174   5.909   8.925   7.964  0.8499  0.1864  0.6962
    2MOL0     C  175   5.767   8.990   7.913 -0.1575  1.2338  0.0282
    2MOL0    Cl  176   5.640   8.918   8.008 -0.3849 -0.2097 -0.0949
    2MOL0     C  177   6.666   8.559   7.936 -0.9383 -0.7086 -0.0368
    2MOL0     C  178   6.799   8.550   7.916 -0.0226 -0.3455  0.5117
    2MOL0     O  179   7.080   8.615   7.936  0.0112 -1.4217 -0.3859
    2MOL0     C  180   7.256   8.312   7.966 -0.6578  0.0490  0.0379
    2MOL0     C  181   7.388   8.270   7.974  0.6788  0.5362 -0.0204
    2MOL0     N  182   8.164   8.041   7.895  0.0704  0.6021  0.2633
    2MOL0     N  183   8.256   8.075   7.985 -0.8987 -0.2326  0.3402
    2MOL0     C  184   8.443   8.444   7.240  1.3047  0.4016 -0.1676
    2MOL0     C  185   8.517   8.422   7.123 -0.2537  0.4380  0.1768
    2MOL0     C  186   8.634   8.378   6.691 -0.8645 -0.3189 -0.0709
    2MOL0     C  187   8.712   8.498   6.673  0.7037  0.3331 -0.6045
    2MOL0     C  188   8.812   8.498   6.575 -0.0619  0.3633 -0.2767
    2MOL0     C  189   8.830   8.388   6.493  0.4472 -0.0504 -0.2936
    2MOL0     O  190   8.934   8.390   6.400 -0.9310  0.4730  0.3686
    2MOL0     C  191   8.974   8.280   6.320  0.1272 -0.5447 -0.2002
    2MOL0     C  192   9.036   8.164   6.406 -0.5622 -0.1888 -0.5087
    2MOL0     C  193   9.163   8.207   6.476 -0.6395 -0.8171 -0.6514
    2MOL0     C  194   9.144   8.284   6.610 -0.0614 -1.3428 -0.2888
    2MOL0     C  195   9.270   8.317   6.678  0.0587  0.4227  0.7838
    2MOL0     C  196   9.377   8.326   6.734 -0.5054 -0.5052 -0.4424
    2MOL0     C  197   8.737   8.292   6.500 -0.8430  0.3196  0.1583
    2MOL0     C  198   8.635   8.283   6.588 -0.0226  0.0441  0.0021
    2MOL0     H  199   8.311   8.579   6.901 -2.1509  1.5184  0.7994
    2MOL0     H  200   8.169   8.596   7.115 -0.4500  0.9531  0.7663
    2MOL0     H  201   8.305   8.369   7.456  0.1745  0.4961 -0.7102
    2MOL0     H  202   8.174   8.461   7.535  0.0480  0.1243  0.2428
    2MOL0     H  203   8.360   8.626   7.588 -2.4563 -1.9098  0.5644
    2MOL0     H  204   8.477   8.531   7.486  0.6695  1.3329  1.4004
    2MOL0     H  205   8.498   8.345   7.642  0.2988  0.4463 -2.3317
    2MOL0     H  206   8.348   8.382   7.713  1.6933 -0.0322  3.8793
    2MOL0     H  207   8.590   8.573   7.725  1.5979 -0.9898  1.0004
    2MOL0     H  208   8.456   8.577   7.834 -1.5295 -1.9399 -0.2532
    2MOL0     H  209   8.651   8.488   7.942 -2.5488  4.3151 -1.2032
    2MOL0     H  210   8.673   8.364   7.823  0.5869  0.3212 -0.5354
    2MOL0     H  211   8.572   8.237   7.997 -0.1788  0.3615  0.2414
    2MOL0     H  212   8.461   8.255   7.868 -0.1476  0.6308 -0.1888
    2MOL0     H  213   8.458   8.443   8.117 -0.3968 -0.7600  1.7751
    2MOL0     H  214   8.342   8.446   7.989  2.5672  0.9720 -1.8567
    2MOL0     H  215   8.270   8.326   8.199  0.8115  0.1764  0.1937
    2MOL0     H  216   8.386   8.207   8.170 -0.7938 -0.4989 -1.0145
    2MOL0     H  217   8.105   8.359   7.975  2.3675  0.3589 -0.7307
    2MOL0     H  218   7.955   8.057   7.740  2.0104 -0.4760  0.6908
    2MOL0     H  219   8.027   8.206   7.681  1.8020 -0.9026  0.2027
    2MOL0     H  220   7.781   8.221   7.756  0.0855  0.1439  1.2696
    2MOL0     H  221   7.885   8.348   7.806  0.9664 -0.1487 -1.3065
    2MOL0     H  222   7.876   8.139   8.006  1.0041 -0.2070  0.1983
    2MOL0     H  223   7.859   8.311   8.019 -0.0441  0.6745 -1.6688
    2MOL0     H  224   7.657   8.206   8.096  0.3510  0.4339  0.0228
    2MOL0     H  225   7.641   8.109   7.954 -1.7272  1.3074 -1.7087
    2MOL0     H  226   7.552   8.520   7.815  1.2799 -3.5085 -3.3234
    2MOL0     H  227   7.314   8.629   7.832 -1.4762  0.7488  2.1789
    2MOL0     H  228   6.824   8.219   7.996  0.8115  1.3003  2.9841
    2MOL0     H  229   6.593   8.245   7.994  1.5497  1.1780  3.8106
    2MOL0     H  230   6.291   8.485   7.865  0.7437 -0.2839  2.1323
    2MOL0     H  231   6.447   8.560   7.804  3.1689 -2.4009  0.7949
    2MOL0     H  232   6.435   8.727   7.972  0.2837  0.0958 -1.7901
    2MOL0     H  233   6.323   8.643   8.069  1.4003  0.1702  1.1544
    2MOL0     H  234   6.137   8.680   7.872  0.4476 -1.2076 -1.0963
    2MOL0     H  235   6.270   8.762   7.792  0.3658  3.1077  0.6842
    2MOL0     H  236   6.137   8.848   8.058  0.1668  0.9530  1.4056
    2MOL0     H  237   6.296   8.904   8.033 -0.8326  0.3366  0.7948
    2MOL0     H  238   6.214   9.024   7.824 -0.4029 -0.1919 -0.6690
    2MOL0     H  239   6.136   9.070   7.965 -0.9355  0.3175  0.1262
    2MOL0     H  240   6.002   8.871   7.775  1.6248  1.8697 -1.6955
    2MOL0     H  241   5.970   9.042   7.791  0.8837 -1.4331 -3.1585
    2MOL0     H  242   5.895   8.817   7.975  0.0881  0.4830  3.3161
    2MOL0     H  243   5.932   8.965   8.063 -2.0292  0.2001  1.4627
    2MOL0     H  244   5.748   8.949   7.813  0.8418 -1.2724  0.7759
    2MOL0     H  245   5.769   9.099   7.916  0.4513  1.2089  2.2732
    2MOL0     H  246   6.638   8.664   7.932 -0.4545 -0.4976  1.5343
    2MOL0     H  247   6.852   8.639   7.884  0.7194 -0.1096  2.2554
    2MOL0     H  248   7.180   8.256   8.020  0.1866 -0.2805  0.9132
    2MOL0     H  249   7.405   8.190   8.046  0.1426 -0.0866 -0.5603
    2MOL0     H  250   8.484   8.394   7.327  0.8516 -3.9712 -2.1730
    2MOL0     H  251   8.613   8.372   7.130 -1.2315 -2.0986 -2.4753
    2MOL0     H  252   8.686   8.588   6.728  2.1723  0.6794 -0.4243
    2MOL0     H  253   8.887   8.577   6.575  0.9702 -0.5648 -1.8510
    2MOL0     H  254   9.045   8.302   6.240 -1.0301 -3.0978 -2.1013
    2MOL0     H  255   8.890   8.236   6.265 -0.4191  0.6744 -0.3573
    2MOL0     H  256   8.969   8.142   6.490 -1.4316  2.6648 -0.3473
    2MOL0     H  257   9.049   8.078   6.340 -0.2724 -0.7557  0.2689
    2MOL0     H  258   9.237   8.254   6.411  2.1220 -1.9777  1.4738
    2MOL0     H  259   9.206   8.108   6.496 -1.0666 -1.3587 -2.2956
    2MOL0     H  260   9.100   8.381   6.587  0.6320 -0.4942  1.7727
    2MOL0     H  261   9.091   8.224   6.684  0.0591 -1.8834 -0.6335
    2MOL0     H  262   9.479   8.345   6.762 -0.0320 -3.4588  0.1930
    2MOL0     H  263   8.751   8.205   6.437  1.2191  0.9008 -0.2626
    2MOL0     H  264   8.562   8.203   6.593  1.3167 -1.1885  0.5731
    3MOL0     O  265   0.488   2.545   7.796 -0.6647  0.1080 -0.5773
    3MOL0     C  266   0.594   2.597   7.829 -0.5188 -0.5467  0.4678
    3MOL0     O  267   0.610   2.727   7.868 -0.0463  0.4143 -0.3994
    3MOL0     C  268   0.512   2.823   7.850 -0.2145 -0.1907 -0.9981
    3MOL0     C  269   0.430   2.875   7.957 -0.4085  0.9700  0.1580
    3MOL0     C  270   0.342   2.985   7.925 -0.6390  0.8509 -0.1836
    3MOL0     C  271   0.338   3.032   7.799  0.0849 -0.9622 -0.6185
    3MOL0     O  272   0.256   3.137   7.763  0.4488  0.2037 -0.9346
    3MOL0     C  273   0.119   3.136   7.816  0.5229 -1.1121 -0.2983
    3MOL0     C  274   0.046   3.234   7.715  0.1692  0.5347 -0.1344
    3MOL0     C  275  -0.102   3.213   7.722  0.0688  0.0162  0.0186
    3MOL0     C  276  -0.180   3.291   7.618 -0.2390 -0.4407  0.2231
    3MOL0     C  277  -0.327   3.255   7.626  0.1275 -0.2073 -0.5872
    3MOL0     C  278  -0.389   3.314   7.764 -0.6721 -0.3781  0.2785
    3MOL0     C  279  -0.526   3.370   7.731 -0.8513  0.1266 -0.4774
    3MOL0     C  280  -0.640   3.261   7.702  0.5652  0.2710 -0.1683
    3MOL0     N  281  -0.770   3.334   7.675  0.5552  0.7212  0.1897
    3MOL0     C  282  -0.833   3.328   7.559  0.4132 -0.2358 -0.1110
    3MOL0     C  283  -0.944   3.400   7.586 -0.0413 -0.3097 -0.0428
    3MOL0     C  284  -1.045   3.437   7.479  0.5277 -0.2382  0.3373
    3MOL0     C  285  -1.190   3.388   7.511 -0.8047  0.1358  0.3327
    3MOL0     C  286  -1.293   3.440   7.395 -0.1761  0.3858 -0.0135
    3MOL0     C  287  -1.434   3.413   7.434  0.0335 -0.3671  1.2151
    3MOL0     O  288  -1.481   3.306   7.343  0.7385 -0.2367 -0.1848
    3MOL0     C  289  -1.616   3.280   7.362  0.1127 -0.7900  0.3805
    3MOL0     C  290  -1.675   3.182   7.280 -0.3187 -0.1457  0.8516
    3MOL0     C  291  -1.806   3.147   7.288 -0.2593 -1.0240 -0.2879
    3MOL0     C  292  -1.887   3.212   7.384  0.1335 -0.6313  0.4838
    3MOL0     C  293  -2.024   3.182   7.386 -0.6178  0.5883 -0.7689
    3MOL0     O  294  -2.083   3.098   7.296 -0.9579  0.6209 -0.3987
    3MOL0     C  295  -2.210   3.048   7.309 -0.7233 -0.5910  0.1921
    3MOL0     C  296  -2.255   2.998   7.189  0.3765  0.0046  0.5266
    3MOL0     C  297  -2.378   2.937   7.186 -0.0555  0.3038  0.6706
    3MOL0     C  298  -2.462   2.909   7.293  0.0648 -0.2047 -0.6990
    3MOL0     O  299  -2.583   2.844   7.305 -0.6389 -0.1074  0.3245
    3MOL0     C  300  -2.648   2.827   7.181 -0.1226 -0.2528  0.1860
    3MOL0     C  301  -2.787   2.772   7.205  0.4418 -0.6833  0.6849
    3MOL0     C  302  -2.849   2.733   7.072 -0.3200 -0.0662  0.3842
    3MOL0     C  303  -2.999   2.679   7.086 -0.6031  0.1060 -0.3315
    3MOL0     C  304  -3.054   2.659   6.950  0.4404  0.9358 -0.4341
    3MOL0     C  305  -3.073   2.777   6.846 -0.4045 -0.3082 -1.5274
    3MOL0     C  306  -3.157   2.736   6.721  0.2153  1.0218  1.2670
    3MOL0     C  307  -3.169   2.848   6.613 -0.1786 -0.9633  0.5136
    3MOL0    Cl  308  -3.227   3.009   6.662  0.0112  0.2003 -0.1003
    3MOL0     C  309  -2.408   2.960   7.414  0.7902 -1.2365  0.7118
    3MOL0     C  310  -2.286   3.031   7.428  0.6476 -0.3840  0.1022
    3MOL0     O  311  -2.086   3.242   7.473  1.1015 -0.4058  0.5717
    3MOL0     C  312  -1.829   3.302   7.472  0.5190 -0.9655  0.5455
    3MOL0     C  313  -1.693   3.342   7.459  0.0691 -0.1953  0.4404
    3MOL0     N  314  -0.937   3.458   7.713  0.8459  0.0682 -0.0698
    3MOL0     N  315  -0.830   3.404   7.768 -0.1408  0.7354  0.4044
    3MOL0     C  316   0.422   2.981   7.696  1.3966  0.8024  0.1124
    3MOL0     C  317   0.502   2.869   7.722 -0.0643 -0.7538  0.3757
    3MOL0     C  318   0.716   2.515   7.860 -0.4087 -0.2922 -0.3362
    3MOL0     C  319   0.709   2.376   7.868  0.4238  0.0568  0.1321
    3MOL0     C  320   0.804   2.298   7.909  0.0627 -0.0993  0.0388
    3MOL0     C  321   0.932   2.349   7.932  0.8298 -0.3241 -0.2120
    3MOL0     O  322   1.048   2.275   7.964 -0.3273  0.7302 -0.6494
    3MOL0     C  323   1.027   2.148   8.015  0.7377  0.2112 -0.6925
    3MOL0     C  324   1.157   2.081   8.028  0.0472 -0.4216 -0.0960
    3MOL0     C  325   1.237   2.133   8.141  0.2807 -0.4541  0.1914
    3MOL0     C  326   1.361   2.041   8.163  0.9334 -0.5390  1.2152
    3MOL0     C  327   1.432   2.062   8.278  0.0772 -0.1108 -0.6280
    3MOL0     C  328   1.498   2.065   8.387  0.3978 -0.1247 -0.0909
    3MOL0     C  329   0.950   2.492   7.926 -0.4928  0.0404 -0.3057
    3MOL0     C  330   0.842   2.574   7.890  0.2572  0.2169 -0.0679
    3MOL0     H  331   0.435   2.842   8.060  2.1663 -0.9868 -0.4813
    3MOL0     H  332   0.277   3.025   8.002 -0.1539 -1.3737  1.5009
    3MOL0     H  333   0.096   3.172   7.917 -2.2828  1.2750 -1.6347
    3MOL0     H  334   0.086   3.032   7.801  1.5658 -1.7005  1.1953
    3MOL0     H  335   0.074   3.207   7.613  0.7535 -0.5510  0.2928
    3MOL0     H  336   0.053   3.341   7.735 -2.4129  0.3180  2.6785
    3MOL0     H  337  -0.139   3.225   7.824  1.5285  0.5939  0.5126
    3MOL0     H  338  -0.128   3.114   7.682  1.5666 -0.1547 -0.6034
    3MOL0     H  339  -0.157   3.398   7.625 -2.7345  0.0658  2.3302
    3MOL0     H  340  -0.145   3.258   7.520  0.4302 -0.4196  0.4439
    3MOL0     H  341  -0.337   3.146   7.628  0.4522 -0.2437 -0.9424
    3MOL0     H  342  -0.386   3.293   7.542 -2.6997 -2.0639  0.4150
    3MOL0     H  343  -0.338   3.404   7.800 -1.2012  0.0769 -0.0921
    3MOL0     H  344  -0.407   3.240   7.842 -1.6613 -0.4843 -0.0400
    3MOL0     H  345  -0.548   3.432   7.819 -0.3618 -0.4357  0.0488
    3MOL0     H  346  -0.527   3.445   7.652  0.9281 -2.0709 -2.7179
    3MOL0     H  347  -0.648   3.192   7.786 -1.7498 -0.0879 -0.6449
    3MOL0     H  348  -0.625   3.209   7.607 -0.0963  0.6061 -0.4570
    3MOL0     H  349  -0.803   3.268   7.474  1.7199 -0.8922  0.7787
    3MOL0     H  350  -1.016   3.414   7.376 -2.6498  4.3573 -1.9257
    3MOL0     H  351  -1.059   3.545   7.482  2.1717  0.0497 -1.0710
    3MOL0     H  352  -1.225   3.407   7.613  0.2897  2.5403  0.3456
    3MOL0     H  353  -1.188   3.281   7.491  1.8437  0.0498  0.6774
    3MOL0     H  354  -1.280   3.548   7.383 -1.2782  0.5124 -0.1372
    3MOL0     H  355  -1.278   3.381   7.304 -4.9360  0.2648 -1.0016
    3MOL0     H  356  -1.494   3.505   7.433 -0.2837 -0.4502  4.3017
    3MOL0     H  357  -1.439   3.386   7.539 -1.1826  1.3232  1.6371
    3MOL0     H  358  -1.629   3.147   7.189 -0.0132  3.0018 -0.3382
    3MOL0     H  359  -1.852   3.075   7.221 -0.6253  1.5276 -2.9931
    3MOL0     H  360  -2.199   3.004   7.097  0.1594  0.6091  0.4273
    3MOL0     H  361  -2.402   2.895   7.089  1.0916 -0.2239  0.5961
    3MOL0     H  362  -2.588   2.760   7.119  2.0051  1.0727  0.7033
    3MOL0     H  363  -2.656   2.924   7.130 -2.7427 -0.3374  0.3099
    3MOL0     H  364  -2.840   2.855   7.253 -2.6859 -1.0040 -1.9018
    3MOL0     H  365  -2.775   2.684   7.268  1.6557  0.2656  1.8432
    3MOL0     H  366  -2.797   2.652   7.021 -1.6197  0.0029 -1.1000
    3MOL0     H  367  -2.850   2.815   6.999  0.2411  0.1870  0.6517
    3MOL0     H  368  -3.010   2.586   7.142  0.9946 -1.2305 -2.1228
    3MOL0     H  369  -3.055   2.756   7.141 -0.3698  0.9136 -1.1905
    3MOL0     H  370  -3.151   2.609   6.954  1.0034 -0.1182  1.3284
    3MOL0     H  371  -2.987   2.583   6.909  0.1182 -0.6796  1.8158
    3MOL0     H  372  -2.977   2.813   6.809  0.2818  1.2827  1.5122
    3MOL0     H  373  -3.117   2.860   6.902  3.4474 -0.1268  1.6497
    3MOL0     H  374  -3.110   2.658   6.662 -1.7758  0.7707 -0.0972
    3MOL0     H  375  -3.260   2.705   6.744 -0.0894  0.3351 -0.8776
    3MOL0     H  376  -3.229   2.812   6.528  0.3661  0.1502 -0.3656
    3MOL0     H  377  -3.067   2.873   6.583 -0.7604  0.3610 -0.4796
    3MOL0     H  378  -2.478   2.950   7.496  1.1977  0.7700  1.3501
    3MOL0     H  379  -2.249   3.059   7.527  1.2958 -1.2071  0.1092
    3MOL0     H  380  -1.891   3.364   7.537  0.5142 -2.1580  1.7230
    3MOL0     H  381  -1.657   3.410   7.534  0.2896 -0.5158  0.6250
    3MOL0     H  382   0.408   3.022   7.596 -0.4684  1.2596  0.5307
    3MOL0     H  383   0.552   2.828   7.634 -0.7466 -0.3426 -0.2122
    3MOL0     H  384   0.617   2.325   7.842  0.5800 -1.3719  2.1644
    3MOL0     H  385   0.786   2.192   7.920  0.2364 -0.3330 -1.7444
    3MOL0     H  386   0.967   2.085   7.949  0.1549 -1.7988  1.6129
    3MOL0     H  387   0.975   2.156   8.111  1.2809 -0.9367 -0.2691
    3MOL0     H  388   1.145   1.974   8.047 -5.9506 -0.0637  0.0947
    3MOL0     H  389   1.208   2.101   7.933  0.2010 -2.2702 -0.4331
    3MOL0     H  390   1.166   2.141   8.224 -1.9472 -1.0526 -1.5266
    3MOL0     H  391   1.275   2.231   8.111 -0.0772 -0.4733 -0.3415
    3MOL0     H  392   1.343   1.934   8.151 -0.7222 -0.0924 -0.9512
    3MOL0     H  393   1.425   2.059   8.076 -0.4316 -4.1912 -0.7868
    3MOL0     H  394   1.552   2.087   8.477  1.5105 -1.1821 -0.4622
    3MOL0     H  395   1.045   2.539   7.950  0.0203 -0.8786 -0.4916
    3MOL0     H  396   0.849   2.682   7.882 -0.7343  0.2412 -0.7294
    4MOL0     O  397   1.827   3.857   2.841  0.0249  0.1463  0.1523
    4MOL0     C  398   1.778   3.858   2.956 -0.3055  0.4024  1.1635
    4MOL0     O  399   1.831   3.925   3.068 -0.0583 -0.0250 -0.4029
    4MOL0     C  400   1.958   3.975   3.072 -1.2646 -0.4473 -0.2936
    4MOL0     C  401   1.994   4.097   3.141 -0.4949 -0.2473  0.2319
    4MOL0     C  402   2.119   4.161   3.130  1.4032  0.6025  0.2524
    4MOL0     C  403   2.219   4.095   3.063  0.1921  0.3100  0.4776
    4MOL0     O  404   2.347   4.144   3.076 -0.0835  0.5726 -0.0712
    4MOL0     C  405   2.446   4.103   2.989  0.4823  0.3895 -0.0908
    4MOL0     C  406   2.527   4.230   2.962  0.3168  0.7595 -1.0207
    4MOL0     C  407   2.460   4.334   2.872  1.3793  0.0508  0.0549
    4MOL0     C  408   2.516   4.486   2.877  0.6814 -0.3018  0.2229
    4MOL0     C  409   2.666   4.492   2.843  0.2717  0.0616  0.6389
    4MOL0     C  410   2.723   4.444   2.708 -0.6202  0.7065 -0.5012
    4MOL0     C  411   2.663   4.517   2.590  0.6283  1.1816 -0.2543
    4MOL0     C  412   2.733   4.637   2.528 -0.6006 -0.0780 -0.0609
    4MOL0     N  413   2.778   4.749   2.618 -0.8009 -0.0171 -0.2890
    4MOL0     C  414   2.707   4.829   2.694 -0.1050 -0.0280 -0.7048
    4MOL0     C  415   2.803   4.917   2.728 -0.2315 -0.3838 -0.2216
    4MOL0     C  416   2.786   5.052   2.804  0.2551 -0.0886 -1.1962
    4MOL0     C  417   2.829   5.040   2.952  0.0343  0.1863  0.1748
    4MOL0     C  418   2.750   4.934   3.030 -0.4832 -0.6120 -0.0788
    4MOL0     C  419   2.635   4.986   3.124  0.5143 -0.0440 -0.6113
    4MOL0     O  420   2.520   5.021   3.042 -0.0154 -0.0800 -0.0610
    4MOL0     C  421   2.399   5.042   3.109  0.3439 -0.0916  0.3461
    4MOL0     C  422   2.371   5.007   3.246  0.8054 -0.0382  0.9131
    4MOL0     C  423   2.248   5.042   3.303 -0.0654  0.6234 -0.2643
    4MOL0     C  424   2.151   5.092   3.215  0.9383  0.5661 -0.5419
    4MOL0     C  425   2.027   5.133   3.285 -0.1018 -0.4502  0.6716
    4MOL0     O  426   2.011   5.138   3.415 -0.0798  0.1092  0.0946
    4MOL0     C  427   1.894   5.175   3.471 -0.2333 -0.0710  0.3475
    4MOL0     C  428   1.907   5.249   3.593  0.1841 -0.6437  1.2314
    4MOL0     C  429   1.792   5.285   3.664  1.0809  0.0167 -0.6933
    4MOL0     C  430   1.668   5.248   3.615 -0.5729 -0.1400  0.8632
    4MOL0     O  431   1.569   5.301   3.681 -0.1843  0.4218  0.1741
    4MOL0     C  432   1.448   5.345   3.613 -0.3528 -0.4248  0.5599
    4MOL0     C  433   1.325   5.245   3.642  0.2695 -0.7477  0.9391
    4MOL0     C  434   1.289   5.250   3.788  0.3497 -0.1755 -0.2749
    4MOL0     C  435   1.172   5.147   3.818 -0.0083  0.6007  0.4328
    4MOL0     C  436   1.136   5.160   3.971  0.5921  0.0829  0.8164
    4MOL0     C  437   1.024   5.067   4.014 -0.0115 -0.0789  1.3057
    4MOL0     C  438   1.025   5.044   4.171 -0.5128  0.1987  0.7003
    4MOL0     C  439   0.908   4.952   4.204  0.5741 -0.2083 -0.2840
    4MOL0    Cl  440   0.747   5.021   4.165 -0.0021 -0.0895 -0.5243
    4MOL0     C  441   1.656   5.162   3.508 -0.2761 -0.2608  1.0194
    4MOL0     C  442   1.769   5.125   3.433  0.8710 -0.0888 -0.8088
    4MOL0     O  443   1.947   5.186   3.207  0.3931 -0.1943  0.7416
    4MOL0     C  444   2.163   5.105   3.077  0.4228 -0.3369 -0.4386
    4MOL0     C  445   2.294   5.097   3.028  0.0126  0.1446 -0.2564
    4MOL0     N  446   2.920   4.891   2.668 -0.0888 -0.6281  0.4252
    4MOL0     N  447   2.907   4.783   2.611 -0.0362 -0.3898  0.0433
    4MOL0     C  448   2.200   3.975   2.993  0.3656 -0.0267 -0.6604
    4MOL0     C  449   2.069   3.923   3.001 -0.3972 -0.4604  0.6379
    4MOL0     C  450   1.658   3.772   2.970  0.0221 -0.6180 -0.8326
    4MOL0     C  451   1.606   3.704   2.862 -0.0138 -0.2138  0.8793
    4MOL0     C  452   1.481   3.641   2.873 -0.4653  0.0396 -0.7430
    4MOL0     C  453   1.408   3.635   3.001  0.5270 -0.0377  0.9380
    4MOL0     O  454   1.295   3.553   3.010 -0.4830 -0.5413  0.3080
    4MOL0     C  455   1.197   3.569   3.108 -0.1319  0.0186  0.0973
    4MOL0     C  456   1.096   3.683   3.075  0.4330 -0.2823  0.5515
    4MOL0     C  457   1.151   3.831   3.073 -0.2137  0.7241  0.1605
    4MOL0     C  458   1.032   3.919   3.124  0.1491  0.2670  1.2393
    4MOL0     C  459   0.903   3.885   3.055 -0.2949  0.1897 -0.3477
    4MOL0     C  460   0.790   3.854   3.016 -0.3266 -0.2354  0.7076
    4MOL0     C  461   1.469   3.698   3.111 -0.4566 -0.4083 -0.1413
    4MOL0     C  462   1.588   3.772   3.096  0.2161  0.2201 -0.4696
    4MOL0     H  463   1.913   4.147   3.193 -0.0544  1.5606 -0.7326
    4MOL0     H  464   2.138   4.254   3.183 -0.1925  1.0923 -0.0048
    4MOL0     H  465   2.408   4.064   2.894 -0.2694 -1.1986  0.8371
    4MOL0     H  466   2.512   4.039   3.047  0.6918  0.2949 -0.4300
    4MOL0     H  467   2.622   4.192   2.924 -0.2376  0.5108 -2.2083
    4MOL0     H  468   2.561   4.277   3.054  4.9891  1.1217 -2.6930
    4MOL0     H  469   2.354   4.331   2.900  2.0709 -1.5048  2.8826
    4MOL0     H  470   2.450   4.298   2.769  1.1988  1.1573 -0.3259
    4MOL0     H  471   2.454   4.541   2.805 -2.4656 -0.7875  2.3421
    4MOL0     H  472   2.491   4.535   2.971 -0.4019 -1.8698  0.8012
    4MOL0     H  473   2.721   4.426   2.911  2.0796 -2.5821 -3.0402
    4MOL0     H  474   2.707   4.592   2.860  1.2356  0.0992 -1.6158
    4MOL0     H  475   2.697   4.338   2.704  0.4162  0.4556 -0.8410
    4MOL0     H  476   2.832   4.451   2.705 -0.5675 -0.2278 -1.6254
    4MOL0     H  477   2.655   4.445   2.508 -0.7224 -1.4503  2.0027
    4MOL0     H  478   2.558   4.537   2.614  1.3068  1.5079  2.8297
    4MOL0     H  479   2.668   4.678   2.450  0.8642 -2.0425 -2.4885
    4MOL0     H  480   2.826   4.602   2.483  1.1102  1.5897  1.9682
    4MOL0     H  481   2.601   4.825   2.717  0.1625 -0.7512  0.4921
    4MOL0     H  482   2.682   5.085   2.803 -0.0580 -0.8929  0.7409
    4MOL0     H  483   2.829   5.144   2.764 -0.8627  0.7344 -0.5470
    4MOL0     H  484   2.832   5.138   3.001 -0.6870  1.9093 -2.9434
    4MOL0     H  485   2.932   5.007   2.944 -0.5571 -1.5360 -0.8151
    4MOL0     H  486   2.701   4.868   2.958 -0.3925 -0.1579 -0.5562
    4MOL0     H  487   2.818   4.876   3.093  4.3942  1.6759 -2.7250
    4MOL0     H  488   2.662   5.081   3.170 -2.6068  0.6527 -0.0320
    4MOL0     H  489   2.606   4.907   3.195 -1.1498  0.3812 -0.7825
    4MOL0     H  490   2.447   4.974   3.317 -0.8039 -2.3605  1.6822
    4MOL0     H  491   2.245   5.043   3.411 -1.3734 -2.3519 -0.1758
    4MOL0     H  492   2.003   5.286   3.627 -0.7443  1.3041  1.8603
    4MOL0     H  493   1.801   5.348   3.752  0.6786 -2.8295  1.5226
    4MOL0     H  494   1.467   5.348   3.505 -2.7680 -1.8469  0.0105
    4MOL0     H  495   1.420   5.446   3.644 -1.9387  0.8767 -4.1893
    4MOL0     H  496   1.350   5.143   3.610 -0.7454 -0.6963 -0.0779
    4MOL0     H  497   1.232   5.264   3.588  0.0112 -0.9707  1.3073
    4MOL0     H  498   1.273   5.356   3.809  1.8736 -0.1079  0.6287
    4MOL0     H  499   1.373   5.230   3.855 -0.0945  2.8222  1.3376
    4MOL0     H  500   1.091   5.160   3.747  0.0202  1.8617  0.6133
    4MOL0     H  501   1.203   5.042   3.808  0.7210  0.9424 -1.0886
    4MOL0     H  502   1.112   5.265   3.988 -0.0780  0.6930 -3.0064
    4MOL0     H  503   1.222   5.130   4.031 -0.2382 -1.7797  1.1585
    4MOL0     H  504   1.023   4.973   3.958  2.6784  1.1236 -1.0140
    4MOL0     H  505   0.932   5.118   3.984  1.0176  1.1976  0.2251
    4MOL0     H  506   1.125   5.016   4.205  0.2097  0.7809 -0.8416
    4MOL0     H  507   1.002   5.135   4.227 -0.3517  0.5419  0.2114
    4MOL0     H  508   0.912   4.936   4.312  0.0017  1.9424  0.0998
    4MOL0     H  509   0.918   4.859   4.148 -0.6804  0.1093 -1.0619
    4MOL0     H  510   1.565   5.131   3.458 -1.7623  2.9356  1.4857
    4MOL0     H  511   1.754   5.039   3.368 -0.2616 -1.0468  0.6357
    4MOL0     H  512   2.098   5.145   2.999  0.8399  0.4447 -0.4006
    4MOL0     H  513   2.317   5.133   2.928  0.0113  1.2688  0.1369
    4MOL0     H  514   2.285   3.920   2.955  1.4336 -0.0260  1.5937
    4MOL0     H  515   2.061   3.824   2.957 -0.3365 -0.9477  1.6980
    4MOL0     H  516   1.664   3.709   2.771  0.1153 -2.5793  0.7725
    4MOL0     H  517   1.449   3.584   2.787 -0.2114  1.9180 -2.1308
    4MOL0     H  518   1.240   3.583   3.208 -1.1391 -0.7704  0.6577
    4MOL0     H  519   1.142   3.474   3.113  0.0592 -0.0907  0.1384
    4MOL0     H  520   1.065   3.672   2.971  2.0877  0.4208 -0.0477
    4MOL0     H  521   1.011   3.667   3.142  1.0346  1.4917  1.8199
    4MOL0     H  522   1.189   3.855   2.974 -2.2852  0.4991 -0.7409
    4MOL0     H  523   1.237   3.849   3.138  0.0366  1.3208 -0.3369
    4MOL0     H  524   1.015   3.897   3.230 -0.3730 -1.5713  0.7999
    4MOL0     H  525   1.057   4.024   3.104 -0.0675  0.3470  1.3968
    4MOL0     H  526   0.688   3.836   2.990 -0.4378  1.5464 -0.2466
    4MOL0     H  527   1.431   3.687   3.212 -0.3382  0.9194  0.0618
    4MOL0     H  528   1.623   3.811   3.191  0.0301 -3.7287  1.4167
    5MOL0     O  529   4.791   3.165  10.792  0.1305  0.2620  0.6653
    5MOL0     C  530   4.845   3.263  10.849  0.0323  0.5785 -0.3520
    5MOL0     O  531   4.786   3.379  10.890  0.0606  0.0122 -0.5770
    5MOL0     C  532   4.659   3.410  10.844  0.2979 -0.2200 -0.2458
    5MOL0     C  533   4.639   3.539  10.796 -0.6956  0.2687  0.1684
    5MOL0     C  534   4.509   3.579  10.776 -0.2657  0.0905  0.6149
    5MOL0     C  535   4.404   3.496  10.794 -0.8478  0.2285 -0.3566
    5MOL0     O  536   4.278   3.551  10.773 -0.1846 -0.3059  0.6622
    5MOL0     C  537   4.160   3.463  10.754 -1.4270 -0.7180 -0.0459
    5MOL0     C  538   4.049   3.555  10.725  0.0449 -0.2204  0.2272
    5MOL0     C  539   3.914   3.478  10.723 -0.4014  0.1866  0.4668
    5MOL0     C  540   3.864   3.440  10.580 -0.6626  0.5238 -0.2976
    5MOL0     C  541   3.758   3.325  10.573 -0.2027 -0.3747 -0.3918
    5MOL0     C  542   3.639   3.342  10.675  0.6916 -0.1039  0.7006
    5MOL0     C  543   3.515   3.259  10.642  0.1801  1.6493  0.5124
    5MOL0     C  544   3.393   3.279  10.727 -0.3613  0.0802 -0.0026
    5MOL0     N  545   3.406   3.266  10.878  0.2592  0.5087  1.2411
    5MOL0     C  546   3.400   3.147  10.942  0.2390  0.1337  0.3629
    5MOL0     C  547   3.410   3.181  11.073  0.7368 -0.1049 -0.2137
    5MOL0     C  548   3.413   3.079  11.186 -0.4756  0.2655 -0.1150
    5MOL0     C  549   3.558   3.047  11.222 -0.5076 -0.3900  0.0856
    5MOL0     C  550   3.610   2.939  11.130  0.2987  0.8017  0.1576
    5MOL0     C  551   3.765   2.889  11.149  0.1051 -0.5065  0.1598
    5MOL0     O  552   3.837   3.017  11.153  0.8516  0.0932  0.4778
    5MOL0     C  553   3.971   3.004  11.150 -0.0040 -0.4421 -0.3706
    5MOL0     C  554   4.042   2.882  11.171 -0.1348  0.6715  0.3344
    5MOL0     C  555   4.180   2.886  11.186 -0.3926  0.6265  1.3171
    5MOL0     C  556   4.254   3.007  11.179  0.8073  0.2960 -1.1460
    5MOL0     C  557   4.404   2.997  11.206 -0.0460 -0.9469  0.7382
    5MOL0     O  558   4.466   3.116  11.172 -0.1306  0.0703 -0.8837
    5MOL0     C  559   4.602   3.103  11.185 -0.2473  0.4702 -0.1489
    5MOL0     C  560   4.667   3.171  11.292 -0.1023 -0.0395  0.3792
    5MOL0     C  561   4.809   3.178  11.301 -0.2405 -0.3007 -0.0338
    5MOL0     C  562   4.890   3.112  11.209 -0.1301 -0.0951 -0.9764
    5MOL0     O  563   5.028   3.115  11.205 -0.0499 -0.0275 -0.4341
    5MOL0     C  564   5.097   3.181  11.314 -0.7395  0.0223  0.6356
    5MOL0     C  565   5.238   3.137  11.286  0.3730  1.0925 -0.1577
    5MOL0     C  566   5.341   3.193  11.396 -0.0661  0.4960 -1.1591
    5MOL0     C  567   5.478   3.182  11.339  0.9615  0.4121 -0.4058
    5MOL0     C  568   5.582   3.172  11.441 -0.0809 -0.5959  1.2086
    5MOL0     C  569   5.723   3.181  11.379 -0.5216 -0.2464  0.0019
    5MOL0     C  570   5.841   3.136  11.468 -0.0754 -0.0408  0.9272
    5MOL0     C  571   5.873   3.230  11.582  0.7941 -0.3763 -0.9324
    5MOL0    Cl  572   5.918   3.391  11.520 -0.0105  0.2494 -0.5544
    5MOL0     C  573   4.828   3.035  11.114  0.4857 -0.3681  0.2135
    5MOL0     C  574   4.692   3.037  11.096  0.5777  0.5550  0.5715
    5MOL0     O  575   4.458   2.898  11.264 -0.1391 -0.5374 -0.9960
    5MOL0     C  576   4.182   3.125  11.142 -0.7535  0.3253  0.5382
    5MOL0     C  577   4.043   3.123  11.136  1.1666  0.1456  0.6687
    5MOL0     N  578   3.411   3.316  11.088  0.0736  0.6696  0.1986
    5MOL0     N  579   3.407   3.367  10.969  0.3867  1.1300  0.3056
    5MOL0     C  580   4.428   3.368  10.855  0.3934  0.6219  0.4167
    5MOL0     C  581   4.557   3.324  10.874  0.6028 -0.4063 -0.0141
    5MOL0     C  582   4.991   3.250  10.885 -0.5370  0.2124 -0.0243
    5MOL0     C  583   5.071   3.364  10.908  0.0333  1.0227  0.0123
    5MOL0     C  584   5.207   3.357  10.914 -0.5070 -0.0424 -0.3573
    5MOL0     C  585   5.275   3.238  10.907 -0.0649 -0.4394 -0.6116
    5MOL0     O  586   5.411   3.247  10.892 -0.5488 -0.0449 -0.0736
    5MOL0     C  587   5.492   3.121  10.893  1.0946 -0.1825  0.3273
    5MOL0     C  588   5.633   3.149  10.850  0.4677 -0.3861  0.3282
    5MOL0     C  589   5.687   3.031  10.772  0.1027 -0.2079 -0.0574
    5MOL0     C  590   5.837   3.042  10.731 -0.0306  0.7339 -0.6629
    5MOL0     C  591   5.902   2.916  10.748 -0.7950 -0.0102  0.1910
    5MOL0     C  592   5.960   2.804  10.761  1.1371  0.0046  1.0275
    5MOL0     C  593   5.191   3.119  10.910  0.0485  0.5046  0.0345
    5MOL0     C  594   5.057   3.126  10.887  0.4545  0.1226  0.3736
    5MOL0     H  595   4.721   3.610  10.788  0.9979 -1.8044 -3.3585
    5MOL0     H  596   4.485   3.680  10.745 -1.6304  0.3265  2.2626
    5MOL0     H  597   4.141   3.409  10.848 -2.4739 -2.5120 -1.2311
    5MOL0     H  598   4.182   3.391  10.675 -0.9944  0.6078 -1.1796
    5MOL0     H  599   4.068   3.592  10.624  0.9086 -1.1814  0.0250
    5MOL0     H  600   4.050   3.640  10.793  1.8755  1.7730 -2.1116
    5MOL0     H  601   3.836   3.549  10.750  0.0917  1.5152 -1.3868
    5MOL0     H  602   3.927   3.387  10.782  3.4126  1.1857  1.4710
    5MOL0     H  603   3.817   3.528  10.536 -3.2187 -1.2858 -1.4434
    5MOL0     H  604   3.932   3.417  10.498 -0.1119 -0.3680  0.3913
    5MOL0     H  605   3.801   3.226  10.591  3.3824  1.3582  1.4054
    5MOL0     H  606   3.731   3.338  10.468  2.6311 -0.5864 -1.2267
    5MOL0     H  607   3.603   3.445  10.664  1.0924 -0.1607 -1.4430
    5MOL0     H  608   3.670   3.320  10.778 -1.9877 -0.8633  1.4250
    5MOL0     H  609   3.490   3.292  10.541  0.5386  2.6959  0.7508
    5MOL0     H  610   3.528   3.151  10.637 -2.8160  1.2676 -2.3185
    5MOL0     H  611   3.316   3.207  10.700 -1.7440  1.1193  1.0267
    5MOL0     H  612   3.355   3.381  10.714  0.0141 -0.1092 -3.6035
    5MOL0     H  613   3.415   3.050  10.895  0.4568 -0.7909  2.2359
    5MOL0     H  614   3.359   2.989  11.157 -0.0746  0.8138 -2.8386
    5MOL0     H  615   3.374   3.121  11.278  2.8387  2.2440  0.5721
    5MOL0     H  616   3.564   3.024  11.329 -0.9597  0.9868  0.4365
    5MOL0     H  617   3.618   3.138  11.214 -1.3225  0.1487 -0.0492
    5MOL0     H  618   3.544   2.852  11.127 -1.2213  1.9400 -0.9764
    5MOL0     H  619   3.612   2.980  11.029  0.8698 -2.4677 -1.2951
    5MOL0     H  620   3.778   2.823  11.063 -0.7246 -1.1158  0.4831
    5MOL0     H  621   3.773   2.829  11.240  0.0743 -0.4726  0.1850
    5MOL0     H  622   4.001   2.782  11.165  0.2192  0.5517 -0.1378
    5MOL0     H  623   4.234   2.796  11.215 -1.3274 -1.0509 -1.7298
    5MOL0     H  624   4.601   3.211  11.369 -1.8046  0.3377 -1.2199
    5MOL0     H  625   4.852   3.215  11.393 -2.6400 -3.1722  2.4370
    5MOL0     H  626   5.055   3.150  11.410 -0.5799 -1.8183  0.1490
    5MOL0     H  627   5.095   3.288  11.290  0.7880 -0.3777 -1.6060
    5MOL0     H  628   5.262   3.164  11.183 -0.1378 -1.3487 -0.9780
    5MOL0     H  629   5.254   3.029  11.286  2.9343  1.4164  0.6553
    5MOL0     H  630   5.341   3.122  11.479  2.4055 -0.7093 -2.1075
    5MOL0     H  631   5.317   3.291  11.439 -0.2784 -0.2277  0.4391
    5MOL0     H  632   5.486   3.087  11.286  0.8656  0.7328 -1.0041
    5MOL0     H  633   5.495   3.264  11.268 -1.1266  4.1324  2.9840
    5MOL0     H  634   5.577   3.070  11.482 -0.6229 -1.7170 -1.4619
    5MOL0     H  635   5.564   3.242  11.523  0.6454  0.0288  0.8475
    5MOL0     H  636   5.743   3.284  11.346 -0.1620 -0.6591 -1.0933
    5MOL0     H  637   5.724   3.107  11.298 -2.8458 -0.8747  0.4660
    5MOL0     H  638   5.829   3.034  11.505 -2.7764 -0.4852 -0.9274
    5MOL0     H  639   5.940   3.143  11.422 -0.0388  0.3571  1.0587
    5MOL0     H  640   5.963   3.193  11.631  1.7748  0.9965 -1.6107
    5MOL0     H  641   5.792   3.236  11.656  2.1702  0.1944  0.6038
    5MOL0     H  642   4.880   2.979  11.037  0.5505  2.2578 -1.7935
    5MOL0     H  643   4.657   2.998  11.001 -2.0274  2.9445  0.4165
    5MOL0     H  644   4.234   3.218  11.121  1.7453 -1.3739 -1.4841
    5MOL0     H  645   3.984   3.213  11.121  1.7080  0.2748 -0.7706
    5MOL0     H  646   4.348   3.309  10.898  0.3072 -0.9102 -1.6613
    5MOL0     H  647   4.580   3.225  10.912 -0.6014 -0.5995  0.2461
    5MOL0     H  648   5.033   3.466  10.908  0.9866  1.4311 -2.1698
    5MOL0     H  649   5.252   3.455  10.901 -1.7403  0.3315 -2.1309
    5MOL0     H  650   5.444   3.047  10.828  0.0045  0.8807 -0.1157
    5MOL0     H  651   5.504   3.079  10.993  1.7954 -0.7242  0.0227
    5MOL0     H  652   5.632   3.235  10.782  1.4182 -0.9666 -0.4588
    5MOL0     H  653   5.693   3.173  10.939  1.2846 -1.5015  0.1037
    5MOL0     H  654   5.627   2.998  10.687  1.1208 -1.3347 -0.3671
    5MOL0     H  655   5.669   2.950  10.844 -2.6445  0.3141 -0.0570
    5MOL0     H  656   5.842   3.079  10.628 -2.5140  4.5268  0.3767
    5MOL0     H  657   5.888   3.114  10.795  1.6605 -0.6619 -0.3541
    5MOL0     H  658   6.018   2.714  10.775  0.2504 -0.6647  0.4998
    5MOL0     H  659   5.243   3.025  10.921  2.8039  1.6129 -2.1367
    5MOL0     H  660   5.023   3.025  10.866 -0.5901  0.7379 -1.0654
    6MOL0     O  661   8.480   2.340   4.513  0.2803 -0.5941  0.6995
    6MOL0     C  662   8.513   2.220   4.531 -0.2538  0.0659  0.5874
    6MOL0     O  663   8.426   2.119   4.560 -0.3370  1.2274  0.5736
    6MOL0     C  664   8.288   2.139   4.539 -0.2613  0.4166  0.3245
    6MOL0     C  665   8.210   2.224   4.617 -0.3617 -0.9767  0.1094
    6MOL0     C  666   8.084   2.263   4.567  0.7699  0.2714 -0.2175
    6MOL0     C  667   8.024   2.202   4.456  0.1053 -0.2302 -0.4075
    6MOL0     O  668   7.900   2.245   4.428 -0.7187  0.0937  0.0599
    6MOL0     C  669   7.828   2.173   4.326 -0.2068  0.9509 -0.7434
    6MOL0     C  670   7.699   2.264   4.314 -0.7747  0.2484 -0.6274
    6MOL0     C  671   7.720   2.391   4.228  0.1671 -0.0755  0.2769
    6MOL0     C  672   7.575   2.445   4.216 -0.4167 -0.0966 -0.1936
    6MOL0     C  673   7.556   2.587   4.153 -0.6290 -0.0907  0.5650
    6MOL0     C  674   7.598   2.592   4.004  0.3673  0.0928 -0.0433
    6MOL0     C  675   7.600   2.732   3.954 -0.7999  0.3560  0.1750
    6MOL0     C  676   7.461   2.794   3.954 -0.3129 -1.5423  0.6160
    6MOL0     N  677   7.351   2.724   3.887  0.1843 -0.5507  0.0549
    6MOL0     C  678   7.337   2.694   3.752  1.2833  0.3232  0.0161
    6MOL0     C  679   7.233   2.611   3.745  1.1069  0.6263 -0.0138
    6MOL0     C  680   7.158   2.542   3.635 -0.9250  0.1228 -0.1944
    6MOL0     C  681   7.029   2.623   3.606  0.2014  0.0689  0.3228
    6MOL0     C  682   6.944   2.575   3.490 -0.7844  0.0066 -1.4954
    6MOL0     C  683   6.834   2.664   3.446  0.4969  0.2374  0.1368
    6MOL0     O  684   6.721   2.639   3.531 -0.5167 -0.5925  0.0544
    6MOL0     C  685   6.597   2.672   3.479 -1.0371  0.1513 -0.2460
    6MOL0     C  686   6.564   2.752   3.371 -0.7869  0.9885 -0.5386
    6MOL0     C  687   6.431   2.779   3.338  0.2264 -0.2671  0.8127
    6MOL0     C  688   6.325   2.725   3.405 -0.2662 -0.2895 -0.4951
    6MOL0     C  689   6.186   2.764   3.366 -0.1051 -1.2259 -0.5170
    6MOL0     O  690   6.161   2.848   3.259  0.1834 -0.0013 -0.4197
    6MOL0     C  691   6.042   2.856   3.186 -0.1347  0.1143 -0.3056
    6MOL0     C  692   6.057   2.930   3.075 -0.1826 -0.6212  0.8465
    6MOL0     C  693   5.957   2.928   2.976 -0.2770  0.2455 -0.6806
    6MOL0     C  694   5.831   2.876   3.006 -0.5055  0.0205 -0.9105
    6MOL0     O  695   5.725   2.873   2.918  0.0245  0.4797  0.8929
    6MOL0     C  696   5.758   2.760   2.832  0.1625  0.5474  0.2619
    6MOL0     C  697   5.635   2.688   2.769 -0.1715 -0.5195 -0.3517
    6MOL0     C  698   5.552   2.805   2.707  0.6578  0.7204  0.2960
    6MOL0     C  699   5.415   2.751   2.656 -0.3581  0.0697 -0.8857
    6MOL0     C  700   5.324   2.861   2.611  0.1935  0.3003  0.9187
    6MOL0     C  701   5.257   2.835   2.479  0.5335  0.3090  0.4533
    6MOL0     C  702   5.151   2.934   2.460  0.1230  0.0761 -0.6752
    6MOL0     C  703   5.132   2.985   2.312 -0.7497  0.3959  0.5801
    6MOL0    Cl  704   5.128   2.841   2.188 -0.1090 -0.1280 -0.0243
    6MOL0     C  705   5.807   2.833   3.137  0.0674  0.5584  0.0078
    6MOL0     C  706   5.916   2.798   3.224  0.5734  0.2429  0.1466
    6MOL0     O  707   6.108   2.701   3.433 -0.4731 -0.3195  0.7072
    6MOL0     C  708   6.354   2.628   3.503  0.3767  0.1143 -0.2998
    6MOL0     C  709   6.490   2.599   3.539  0.5181 -0.3575 -0.6507
    6MOL0     N  710   7.180   2.600   3.875  0.0137  0.6857 -1.1344
    6MOL0     N  711   7.250   2.664   3.959  0.2471  0.1634  0.1927
    6MOL0     C  712   8.102   2.102   4.386 -0.4588  0.1241 -0.1239
    6MOL0     C  713   8.231   2.078   4.427  0.0060  1.2198 -0.2625
    6MOL0     C  714   8.651   2.179   4.508 -0.0728  0.1156 -0.7778
    6MOL0     C  715   8.746   2.276   4.472 -0.1230 -0.4092  0.4328
    6MOL0     C  716   8.885   2.244   4.460  0.4533 -0.1416  0.0231
    6MOL0     C  717   8.934   2.117   4.490  0.2859 -0.4204  0.8491
    6MOL0     O  718   9.073   2.100   4.490  0.1149  0.3531  0.3003
    6MOL0     C  719   9.129   1.970   4.526 -0.1129  1.1572  0.3983
    6MOL0     C  720   9.280   1.969   4.559  0.4264  0.7327 -0.2615
    6MOL0     C  721   9.368   2.037   4.458 -0.4252  0.1765 -0.6361
    6MOL0     C  722   9.513   2.069   4.509 -0.2280 -0.9655  0.0058
    6MOL0     C  723   9.592   1.951   4.497 -0.1188 -0.6411 -0.2047
    6MOL0     C  724   9.668   1.849   4.493  0.5578 -0.0255  0.4919
    6MOL0     C  725   8.834   2.023   4.520 -0.0768 -0.1113  0.7432
    6MOL0     C  726   8.698   2.051   4.535  0.5351 -0.0976 -0.2426
    6MOL0     H  727   8.245   2.274   4.707  1.2632 -0.5689 -0.6983
    6MOL0     H  728   8.023   2.344   4.604 -4.0227 -2.0133 -2.3130
    6MOL0     H  729   7.817   2.068   4.354  2.0035  0.6890 -0.6902
    6MOL0     H  730   7.885   2.188   4.234  0.0610  1.3375 -0.5166
    6MOL0     H  731   7.655   2.288   4.412  4.4931 -2.0196  2.7104
    6MOL0     H  732   7.622   2.215   4.253 -1.6693  3.7594 -2.6105
    6MOL0     H  733   7.762   2.372   4.129  1.0813 -0.9023  0.8057
    6MOL0     H  734   7.786   2.459   4.282 -0.0592 -0.2601  0.8007
    6MOL0     H  735   7.513   2.371   4.165  2.3175 -3.0301  0.4464
    6MOL0     H  736   7.541   2.458   4.319  2.7765  1.6806  0.7548
    6MOL0     H  737   7.611   2.665   4.206 -2.4040  1.3503  0.3563
    6MOL0     H  738   7.451   2.613   4.162 -0.4107  1.2173 -0.4197
    6MOL0     H  739   7.531   2.527   3.947  0.3943 -0.2590  0.3258
    6MOL0     H  740   7.700   2.555   3.993  0.3958 -0.3737  1.5318
    6MOL0     H  741   7.670   2.789   4.015 -0.0466  0.4744 -0.7763
    6MOL0     H  742   7.643   2.731   3.853  0.2473 -0.5037  0.6070
    6MOL0     H  743   7.469   2.889   3.902 -0.2539 -1.8632  0.0339
    6MOL0     H  744   7.434   2.824   4.056  0.4795  0.1648  0.3584
    6MOL0     H  745   7.385   2.720   3.659 -0.8714  2.4474 -0.6203
    6MOL0     H  746   7.135   2.436   3.649 -1.0858  0.2186  0.2710
    6MOL0     H  747   7.225   2.554   3.549  2.1741 -0.4656  1.9686
    6MOL0     H  748   7.065   2.724   3.586 -0.1254 -0.0266 -0.8053
    6MOL0     H  749   6.966   2.630   3.695  0.6992  0.7741  0.6319
    6MOL0     H  750   7.017   2.572   3.409  2.6805  0.0318  1.3709
    6MOL0     H  751   6.908   2.473   3.510 -1.0498 -0.0029 -2.0025
    6MOL0     H  752   6.812   2.641   3.342 -2.9982  0.0500  0.8124
    6MOL0     H  753   6.867   2.769   3.448 -1.0441  0.7592 -0.4730
    6MOL0     H  754   6.645   2.796   3.313  0.8114 -0.9364  0.0757
    6MOL0     H  755   6.420   2.853   3.260  1.0180 -1.8537 -0.8991
    6MOL0     H  756   6.157   2.969   3.060 -0.2657 -0.6439  0.2105
    6MOL0     H  757   5.969   2.979   2.881  0.0733  0.2780 -0.6175
    6MOL0     H  758   5.836   2.692   2.866 -1.0826 -1.5920 -0.9308
    6MOL0     H  759   5.816   2.799   2.748  1.4768 -2.0521 -0.1354
    6MOL0     H  760   5.584   2.633   2.849 -0.1261  0.6920  0.5406
    6MOL0     H  761   5.668   2.613   2.696  2.4394 -1.8670  2.0002
    6MOL0     H  762   5.604   2.839   2.617  0.1217 -0.5478 -0.5093
    6MOL0     H  763   5.514   2.876   2.781 -2.7045  0.4791 -1.0404
    6MOL0     H  764   5.433   2.680   2.576  0.8823 -0.3587 -0.2487
    6MOL0     H  765   5.361   2.703   2.738  0.9749  1.8730  1.1565
    6MOL0     H  766   5.380   2.952   2.590 -2.5641  1.7489 -0.8543
    6MOL0     H  767   5.244   2.889   2.680 -0.4869  2.4762 -0.6366
    6MOL0     H  768   5.216   2.733   2.483 -0.7090  0.6456 -2.0113
    6MOL0     H  769   5.326   2.835   2.394 -1.5886 -1.9652 -1.4136
    6MOL0     H  770   5.059   2.889   2.499  0.1639  2.2039  2.2565
    6MOL0     H  771   5.171   3.021   2.523 -0.8244 -1.5118  1.9878
    6MOL0     H  772   5.224   3.039   2.288 -0.2304 -0.6448  0.1400
    6MOL0     H  773   5.045   3.051   2.316 -0.1247  1.4344 -1.5503
    6MOL0     H  774   5.708   2.793   3.155 -0.7521  1.6201 -1.8856
    6MOL0     H  775   5.897   2.764   3.325 -0.8342  0.7503  0.0766
    6MOL0     H  776   6.282   2.570   3.560  1.5276 -2.4254 -1.2837
    6MOL0     H  777   6.516   2.534   3.621 -0.3739 -0.1413 -0.1850
    6MOL0     H  778   8.070   2.035   4.306  2.2879 -2.2637  0.5830
    6MOL0     H  779   8.278   2.002   4.366 -1.5828  0.1367 -0.1830
    6MOL0     H  780   8.715   2.380   4.464  1.0662 -0.1683 -1.7177
    6MOL0     H  781   8.953   2.327   4.445  1.6362 -1.0544  0.1866
    6MOL0     H  782   9.110   1.907   4.439 -1.1322  2.4219 -0.3309
    6MOL0     H  783   9.088   1.927   4.618  4.0350  0.6824  2.2732
    6MOL0     H  784   9.287   2.006   4.661 -1.1993  1.1505 -0.2758
    6MOL0     H  785   9.318   1.867   4.565 -0.7854  0.0044 -3.1105
    6MOL0     H  786   9.315   2.128   4.429  0.7656  0.0149 -3.7146
    6MOL0     H  787   9.375   1.969   4.372  0.7151  0.4613 -0.7848
    6MOL0     H  788   9.559   2.152   4.455 -0.6750  0.7453  2.1406
    6MOL0     H  789   9.516   2.109   4.610 -3.0097  1.4640 -0.7320
    6MOL0     H  790   9.741   1.770   4.494 -1.6967 -2.2242  0.8399
    6MOL0     H  791   8.868   1.922   4.540  2.8054  0.0761 -2.3589
    6MOL0     H  792   8.639   1.965   4.564  1.3171  0.2738  2.8090
    7MOL0     O  793   4.290   2.868   9.684 -0.4130 -0.4136 -0.1719
    7MOL0     C  794   4.255   2.769   9.747 -0.3598 -0.1567 -0.1702
    7MOL0     O  795   4.126   2.734   9.774  0.6484 -0.6750 -0.0304
    7MOL0     C  796   4.008   2.802   9.755  0.1760 -0.1394 -0.5127
    7MOL0     C  797   3.896   2.729   9.737 -0.7997 -0.2465  0.7045
    7MOL0     C  798   3.777   2.802   9.714 -0.4262 -1.2095 -0.8245
    7MOL0     C  799   3.768   2.939   9.725  0.3247  0.4461 -0.1903
    7MOL0     O  800   3.639   2.981   9.704 -0.2643 -0.1831  0.6554
    7MOL0     C  801   3.615   3.122   9.734 -0.6336 -0.1941 -0.9214
    7MOL0     C  802   3.469   3.163   9.740  1.1699 -0.0840  0.1757
    7MOL0     C  803   3.373   3.101   9.634  0.2425  0.9083 -1.1453
    7MOL0     C  804   3.235   3.149   9.633 -1.5848  0.2715 -0.2901
    7MOL0     C  805   3.155   3.152   9.765 -0.1129 -0.6385 -0.5164
    7MOL0     C  806   3.012   3.101   9.762  0.4415  0.5166  0.7422
    7MOL0     C  807   2.898   3.205   9.747  0.6954 -0.0008 -0.3994
    7MOL0     C  808   2.875   3.248   9.605  0.7103  0.2183 -0.1129
    7MOL0     N  809   2.759   3.344   9.595 -0.3853 -0.6201  0.0299
    7MOL0     C  810   2.626   3.322   9.576  0.1293  0.9473  0.5364
    7MOL0     C  811   2.567   3.434   9.558 -0.7819 -0.2945 -1.1265
    7MOL0     C  812   2.424   3.455   9.519  0.1032 -0.1747  0.3540
    7MOL0     C  813   2.383   3.598   9.521 -0.5837 -0.3308 -0.3850
    7MOL0     C  814   2.246   3.624   9.457 -0.2690 -0.9706  0.2010
    7MOL0     C  815   2.225   3.768   9.419  0.3627 -0.0861  1.0428
    7MOL0     O  816   2.260   3.843   9.531  0.2243  0.9207 -0.2625
    7MOL0     C  817   2.334   3.961   9.510 -0.5554 -0.1203  0.1645
    7MOL0     C  818   2.355   4.021   9.384 -0.3579  0.7386 -0.2178
    7MOL0     C  819   2.428   4.139   9.386  0.1031  0.7004 -0.3351
    7MOL0     C  820   2.483   4.190   9.503 -0.5621 -0.7794 -0.1992
    7MOL0     C  821   2.563   4.312   9.496 -0.3083 -0.1712 -0.4078
    7MOL0     O  822   2.616   4.369   9.612 -0.4854 -0.0336  0.0923
    7MOL0     C  823   2.687   4.484   9.606  0.0109  0.1413 -0.6470
    7MOL0     C  824   2.822   4.483   9.582  0.5781  0.5501 -0.1707
    7MOL0     C  825   2.896   4.599   9.605 -0.2029 -0.5315 -0.5154
    7MOL0     C  826   2.834   4.721   9.645  0.6307  0.6836 -0.0352
    7MOL0     O  827   2.903   4.837   9.674 -0.0777  0.6474  0.4936
    7MOL0     C  828   2.875   4.889   9.813  0.0089  0.2215 -0.5772
    7MOL0     C  829   2.948   4.823   9.921 -0.1269 -0.4533 -0.0379
    7MOL0     C  830   3.103   4.827   9.927 -0.0309 -0.2345 -0.4115
    7MOL0     C  831   3.180   4.766   9.807  0.0374 -1.2115 -0.1791
    7MOL0     C  832   3.332   4.760   9.821  0.1832  0.1032  0.0866
    7MOL0     C  833   3.354   4.626   9.905  0.7300 -0.8835 -0.1055
    7MOL0     C  834   3.504   4.600   9.937  0.3168 -0.1533  1.0444
    7MOL0     C  835   3.546   4.484  10.020 -1.2543  0.3740 -0.3559
    7MOL0    Cl  836   3.448   4.340   9.999 -0.3583  0.1223 -0.1422
    7MOL0     C  837   2.692   4.724   9.664 -0.7677  0.7931 -0.2412
    7MOL0     C  838   2.624   4.605   9.638 -0.1017 -0.9641 -0.3325
    7MOL0     O  839   2.595   4.357   9.386 -0.0549  0.2254  0.2711
    7MOL0     C  840   2.460   4.126   9.622 -1.5085 -0.9575 -0.2772
    7MOL0     C  841   2.392   4.010   9.629 -0.1759  0.1428 -0.6337
    7MOL0     N  842   2.669   3.535   9.558  0.5155  0.0336  0.5913
    7MOL0     N  843   2.779   3.480   9.596 -0.4071  0.2435 -0.1014
    7MOL0     C  844   3.889   3.012   9.744 -0.3235 -0.2061 -0.4697
    7MOL0     C  845   4.003   2.934   9.756  0.0988  0.1784  0.7174
    7MOL0     C  846   4.362   2.679   9.779 -0.1020  0.4093 -0.4479
    7MOL0     C  847   4.490   2.711   9.758  0.0046  0.5210  0.9407
    7MOL0     C  848   4.598   2.618   9.790 -0.5650  0.0586 -0.8642
    7MOL0     C  849   4.566   2.496   9.857 -0.2157  0.8474  0.4879
    7MOL0     O  850   4.657   2.401   9.904 -0.4038 -0.1652  0.4427
    7MOL0     C  851   4.794   2.435   9.875 -1.0933 -0.2123 -0.3418
    7MOL0     C  852   4.890   2.329   9.937  0.5457 -0.0157 -0.6271
    7MOL0     C  853   5.035   2.364   9.939  0.2726 -0.0771  0.0144
    7MOL0     C  854   5.114   2.383   9.808  0.4906 -0.2870  0.7298
    7MOL0     C  855   5.058   2.482   9.707 -0.5677  0.5911 -0.8013
    7MOL0     C  856   5.007   2.559   9.633  0.6033  0.7799  0.1977
    7MOL0     C  857   4.435   2.469   9.872 -0.0308 -0.1968  0.4934
    7MOL0     C  858   4.334   2.555   9.837 -0.7291 -0.0041 -0.2121
    7MOL0     H  859   3.927   2.627   9.714  3.0047  1.1816 -1.3189
    7MOL0     H  860   3.691   2.739   9.689 -2.3707 -0.6121  3.4649
    7MOL0     H  861   3.663   3.185   9.659  0.4928  0.9612  0.7240
    7MOL0     H  862   3.657   3.137   9.834  0.1790 -0.4025 -1.2275
    7MOL0     H  863   3.459   3.270   9.721  1.6957 -0.0429  0.1125
    7MOL0     H  864   3.437   3.142   9.842  1.3414 -1.5962 -0.0501
    7MOL0     H  865   3.363   2.993   9.647  1.7689  0.6779 -1.7651
    7MOL0     H  866   3.422   3.115   9.537  0.9933  0.6256 -0.8130
    7MOL0     H  867   3.232   3.251   9.594  1.5388  1.2619  1.7344
    7MOL0     H  868   3.179   3.089   9.560 -3.3221  2.5353 -0.9630
    7MOL0     H  869   3.151   3.253   9.807 -3.0402  0.6528 -3.4418
    7MOL0     H  870   3.198   3.075   9.829 -0.6444  0.1033  0.7505
    7MOL0     H  871   2.994   3.044   9.855 -1.7555 -2.0710 -1.0984
    7MOL0     H  872   3.007   3.017   9.692  2.9120 -1.7179  3.0109
    7MOL0     H  873   2.808   3.147   9.772 -0.2410  1.6175  0.1917
    7MOL0     H  874   2.921   3.289   9.814  3.5741 -0.8188 -0.2692
    7MOL0     H  875   2.853   3.162   9.541 -2.0504  1.2443 -0.6645
    7MOL0     H  876   2.960   3.304   9.564  1.3291 -0.1618  0.6429
    7MOL0     H  877   2.568   3.231   9.568 -0.8483  1.5760  0.2759
    7MOL0     H  878   2.359   3.395   9.583 -0.8011 -0.4632 -0.8128
    7MOL0     H  879   2.411   3.414   9.419 -1.0990 -1.7074  1.1145
    7MOL0     H  880   2.458   3.659   9.471  1.0770 -2.5220 -0.7257
    7MOL0     H  881   2.381   3.621   9.627 -2.5300 -0.0882 -0.4313
    7MOL0     H  882   2.235   3.566   9.364 -0.8556 -0.9989  0.2839
    7MOL0     H  883   2.163   3.598   9.523  0.5252  1.5607  2.3462
    7MOL0     H  884   2.123   3.797   9.391  0.3081  1.4810  2.7096
    7MOL0     H  885   2.280   3.787   9.326  1.8455  4.8389  2.6314
    7MOL0     H  886   2.309   3.984   9.293 -2.9290 -0.5616  1.5193
    7MOL0     H  887   2.435   4.193   9.293 -5.1446  0.7935 -0.9790
    7MOL0     H  888   2.866   4.384   9.570 -2.6806 -1.0446  0.0701
    7MOL0     H  889   3.004   4.610   9.601 -0.2262  0.5147  0.7525
    7MOL0     H  890   2.768   4.898   9.833  0.1650  1.6477 -0.2204
    7MOL0     H  891   2.916   4.991   9.813  0.0665  0.2004 -0.4182
    7MOL0     H  892   2.911   4.720   9.921 -0.0096 -0.5433  2.0965
    7MOL0     H  893   2.925   4.866  10.019  1.3335 -0.4742  0.3417
    7MOL0     H  894   3.127   4.767  10.015  4.7689  0.2203 -1.1512
    7MOL0     H  895   3.123   4.930   9.956 -0.6315 -0.8654  2.5776
    7MOL0     H  896   3.131   4.672   9.781 -0.4380 -1.4016  1.3075
    7MOL0     H  897   3.163   4.823   9.715  1.4686 -0.9462 -0.3078
    7MOL0     H  898   3.364   4.847   9.879 -0.3116 -1.3372  2.6952
    7MOL0     H  899   3.378   4.751   9.722 -3.5058 -1.8045 -1.6848
    7MOL0     H  900   3.316   4.541   9.848 -0.6658  0.0640 -0.6640
    7MOL0     H  901   3.297   4.646   9.997  3.7543  4.4202  1.0293
    7MOL0     H  902   3.544   4.590   9.836 -2.1546 -2.3763  0.1766
    7MOL0     H  903   3.547   4.688   9.986 -0.6705  0.3795  0.9942
    7MOL0     H  904   3.526   4.511  10.124  2.5882 -1.4682  1.0462
    7MOL0     H  905   3.654   4.469  10.014 -0.9998  1.9861 -0.4248
    7MOL0     H  906   2.637   4.815   9.689 -0.3249  0.5530  1.7365
    7MOL0     H  907   2.519   4.618   9.660  0.2752 -0.6933  1.4892
    7MOL0     H  908   2.504   4.160   9.714 -1.8515 -2.3113  0.4191
    7MOL0     H  909   2.392   3.960   9.725  0.5941 -2.7508 -2.0198
    7MOL0     H  910   3.894   3.119   9.762  0.3417  0.1511 -2.5346
    7MOL0     H  911   4.098   2.986   9.766 -1.3075  3.7642 -2.0305
    7MOL0     H  912   4.511   2.809   9.719 -0.2307  1.5342  3.1911
    7MOL0     H  913   4.702   2.648   9.777 -0.8091  1.6835  0.5904
    7MOL0     H  914   4.824   2.537   9.901  1.9391 -0.6165 -1.8120
    7MOL0     H  915   4.805   2.438   9.767  0.7631  0.8981 -0.1704
    7MOL0     H  916   4.861   2.307  10.040 -1.4747  0.5206 -1.0407
    7MOL0     H  917   4.875   2.241   9.875 -2.8016  0.7396 -1.0788
    7MOL0     H  918   5.083   2.292  10.005  1.7528  0.1476 -0.7860
    7MOL0     H  919   5.040   2.452  10.004  4.3655  0.4843 -0.7838
    7MOL0     H  920   5.212   2.425   9.834  0.1788  1.1408 -0.3037
    7MOL0     H  921   5.125   2.291   9.749  0.9333  1.0415 -1.3604
    7MOL0     H  922   4.952   2.622   9.566 -1.6320 -0.6508  0.5885
    7MOL0     H  923   4.407   2.370   9.904 -1.4978 -0.3829 -1.2554
    7MOL0     H  924   4.233   2.516   9.852 -1.0896  1.4872  1.5285
    8MOL0     O  925   2.693  11.109  11.149  0.3731  0.6950 -0.3062
    8MOL0     C  926   2.786  11.188  11.128  0.2512  0.8534 -0.0106
    8MOL0     O  927   2.779  11.319  11.123  0.5758  0.4166  0.2060
    8MOL0     C  928   2.650  11.371  11.146 -0.2073  0.0293  0.0879
    8MOL0     C  929   2.589  11.382  11.273  0.5820  0.1626 -0.3696
    8MOL0     C  930   2.451  11.428  11.289 -0.4124 -1.1645  0.4786
    8MOL0     C  931   2.390  11.473  11.171  0.3820  0.2752  0.4767
    8MOL0     O  932   2.262  11.525  11.190 -0.2793 -0.0497 -0.4286
    8MOL0     C  933   2.161  11.525  11.085  0.0829  0.4389  0.2509
    8MOL0     C  934   2.030  11.563  11.155 -0.7044  0.0856  0.2508
    8MOL0     C  935   1.996  11.455  11.254 -0.4909  0.0158  0.0567
    8MOL0     C  936   1.911  11.512  11.368  0.0848  0.0739 -0.1379
    8MOL0     C  937   1.781  11.589  11.336 -0.2139  0.1202 -0.4036
    8MOL0     C  938   1.693  11.620  11.460  0.2747  0.2201  1.0704
    8MOL0     C  939   1.739  11.719  11.565 -0.9927 -0.4720  0.0149
    8MOL0     C  940   1.733  11.862  11.512  0.1361 -0.4026  0.2565
    8MOL0     N  941   1.619  11.932  11.568 -0.2853  0.7210 -0.4825
    8MOL0     C  942   1.613  11.982  11.696  0.0935 -0.0747  0.0224
    8MOL0     C  943   1.484  12.013  11.713  0.4917  0.0861 -0.2352
    8MOL0     C  944   1.435  12.095  11.827  0.1967 -0.8258 -0.8447
    8MOL0     C  945   1.362  12.018  11.939  0.2374  0.0039  0.5972
    8MOL0     C  946   1.271  11.899  11.899 -0.3918 -0.0870  0.4506
    8MOL0     C  947   1.164  11.866  12.004  0.1930 -0.0248 -0.1235
    8MOL0     O  948   1.097  11.743  11.958 -0.0614  0.7075 -0.5830
    8MOL0     C  949   0.977  11.766  11.900 -0.4672  0.4072 -0.5914
    8MOL0     C  950   0.969  11.778  11.764  1.0845 -0.3941  0.7393
    8MOL0     C  951   0.843  11.816  11.712  0.0196  0.0047  0.9065
    8MOL0     C  952   0.733  11.840  11.788  0.0897  0.2991  0.5744
    8MOL0     C  953   0.599  11.856  11.726  0.6135  0.2262 -0.1620
    8MOL0     O  954   0.606  11.896  11.600  0.1709 -0.4681  0.1738
    8MOL0     C  955   0.498  11.906  11.523 -0.1242 -0.1162  0.1880
    8MOL0     C  956   0.464  11.818  11.414  0.1800  0.5767  0.5606
    8MOL0     C  957   0.345  11.839  11.341 -0.1857  0.5160 -0.2315
    8MOL0     C  958   0.269  11.951  11.371  0.5251 -0.2360 -0.0464
    8MOL0     O  959   0.172  11.982  11.282  0.1770  0.4712 -0.0487
    8MOL0     C  960   0.166  12.114  11.231  0.8527 -0.0527  0.2075
    8MOL0     C  961   0.060  12.126  11.121 -0.0890  0.6465 -0.0334
    8MOL0     C  962   0.092  12.030  11.011 -1.0487  0.3802  0.4896
    8MOL0     C  963  -0.001  12.059  10.887  0.1901  0.9292  0.8563
    8MOL0     C  964   0.050  11.971  10.772  0.2690  0.0149 -0.0596
    8MOL0     C  965   0.013  12.030  10.643 -0.3172 -0.8215  1.0978
    8MOL0     C  966   0.096  12.153  10.605 -0.0062 -0.5659 -0.0810
    8MOL0     C  967   0.038  12.214  10.479  0.5024 -0.2156 -0.9161
    8MOL0    Cl  968   0.121  12.373  10.450 -0.3099 -0.3902  0.0495
    8MOL0     C  969   0.307  12.042  11.474  0.4511  0.3325  0.5903
    8MOL0     C  970   0.415  12.005  11.553  0.1505  0.5211  0.0954
    8MOL0     O  971   0.501  11.810  11.777 -0.3818 -0.2598 -0.4544
    8MOL0     C  972   0.746  11.839  11.929  0.0995  0.5103  0.5463
    8MOL0     C  973   0.870  11.800  11.985 -0.5186 -0.5206 -0.6317
    8MOL0     N  974   1.406  11.956  11.613  0.2249 -0.2596  0.1840
    8MOL0     N  975   1.492  11.916  11.521 -0.0134  0.1960 -0.4223
    8MOL0     C  976   2.449  11.453  11.045 -0.2116  0.0684 -0.1772
    8MOL0     C  977   2.578  11.404  11.039 -0.2501 -0.8745  0.3707
    8MOL0     C  978   2.922  11.121  11.105 -0.2717  0.8933  0.3296
    8MOL0     C  979   2.946  10.980  11.077 -0.5481 -0.1220 -0.1669
    8MOL0     C  980   3.080  10.931  11.086  1.1006 -0.8396 -0.2081
    8MOL0     C  981   3.184  11.020  11.116  0.2565  0.4949 -0.2353
    8MOL0     O  982   3.310  10.973  11.107 -0.3968  0.1344  0.8771
    8MOL0     C  983   3.360  10.963  10.978 -0.8097 -0.1861  0.1461
    8MOL0     C  984   3.500  11.025  10.984  0.6037 -0.0630 -0.3237
    8MOL0     C  985   3.583  10.981  11.102 -0.4830 -0.1918 -0.5510
    8MOL0     C  986   3.726  11.042  11.084  0.1679  0.6004  0.2755
    8MOL0     C  987   3.829  10.966  11.009 -1.2228  0.0762 -0.2322
    8MOL0     C  988   3.921  10.928  10.940  0.3409  1.1572  0.0741
    8MOL0     C  989   3.158  11.148  11.133  0.7692 -0.5591  0.5196
    8MOL0     C  990   3.035  11.201  11.140 -0.3558  0.2565  1.1512
    8MOL0     H  991   2.645  11.347  11.359  1.1055  1.7739 -0.0284
    8MOL0     H  992   2.396  11.417  11.382 -1.9924  0.8637 -0.1516
    8MOL0     H  993   2.158  11.421  11.050  1.7881 -0.0160  1.3002
    8MOL0     H  994   2.191  11.600  11.011 -0.0920  0.9832  0.7243
    8MOL0     H  995   1.953  11.559  11.077 -1.1807  1.2746  0.6343
    8MOL0     H  996   2.035  11.662  11.202 -1.1210 -0.4100  1.3697
    8MOL0     H  997   2.080  11.410  11.307 -0.8923 -0.8909 -0.0492
    8MOL0     H  998   1.944  11.375  11.200 -3.5837  1.5108  0.5779
    8MOL0     H  999   1.879  11.422  11.420  2.5474 -0.6758  0.1774
    8MOL0     H 1000   1.972  11.579  11.429 -1.6960 -0.3519  2.2755
    8MOL0     H 1001   1.729  11.521  11.268  0.3119 -0.2688 -0.4239
    8MOL0     H 1002   1.813  11.686  11.295  0.1920  0.9201  1.6263
    8MOL0     H 1003   1.682  11.521  11.506 -1.9551 -1.2977 -2.3582
    8MOL0     H 1004   1.596  11.648  11.419 -0.2309  0.4712  2.3871
    8MOL0     H 1005   1.679  11.728  11.656  1.2109 -0.4289  1.5250
    8MOL0     H 1006   1.830  11.691  11.618 -1.0164  1.9513  1.5121
    8MOL0     H 1007   1.722  11.861  11.403  0.9414 -0.8166  0.1694
    8MOL0     H 1008   1.822  11.923  11.534 -0.1480  1.7131 -3.4795
    8MOL0     H 1009   1.689  12.010  11.768 -0.2365 -1.6932  1.0505
    8MOL0     H 1010   1.367  12.174  11.795  1.4709  3.2118  4.8302
    8MOL0     H 1011   1.517  12.156  11.866 -1.5787  2.9128 -2.4727
    8MOL0     H 1012   1.307  12.096  11.992 -1.5199  0.9927 -2.4717
    8MOL0     H 1013   1.440  11.996  12.013  1.6506  1.9429 -0.2340
    8MOL0     H 1014   1.224  11.927  11.805  1.1775  1.3226  0.0290
    8MOL0     H 1015   1.334  11.811  11.888  2.0842  1.4238  1.4690
    8MOL0     H 1016   1.097  11.950  12.021 -0.3866 -0.4931 -0.0663
    8MOL0     H 1017   1.211  11.843  12.100 -1.0910  0.1390  0.5664
    8MOL0     H 1018   1.059  11.774  11.703  0.4616  3.0393 -0.6528
    8MOL0     H 1019   0.837  11.817  11.604 -0.7460  0.3614  0.9429
    8MOL0     H 1020   0.536  11.737  11.399  1.7617  1.8119  1.1837
    8MOL0     H 1021   0.319  11.779  11.255  2.8757 -0.5028 -0.5687
    8MOL0     H 1022   0.260  12.146  11.185 -1.1306  3.0693 -2.0532
    8MOL0     H 1023   0.132  12.180  11.311 -2.9814 -0.8585 -0.5372
    8MOL0     H 1024   0.069  12.225  11.076  0.6622  1.3351  1.5348
    8MOL0     H 1025  -0.042  12.125  11.162 -0.2309  0.7179 -0.3820
    8MOL0     H 1026   0.090  11.925  11.040  1.1045 -0.1323 -0.9688
    8MOL0     H 1027   0.200  12.040  10.994 -0.5927 -0.3383  2.6121
    8MOL0     H 1028  -0.105  12.032  10.909  0.3503 -0.4826  0.0213
    8MOL0     H 1029   0.009  12.165  10.864 -1.1261  0.9053  0.0919
    8MOL0     H 1030   0.020  11.867  10.787 -0.5794  0.4731  1.6144
    8MOL0     H 1031   0.158  11.979  10.783  0.1804  2.5096 -0.4294
    8MOL0     H 1032  -0.094  12.052  10.641  0.2119  2.2756  1.1444
    8MOL0     H 1033   0.023  11.957  10.562 -3.0222 -1.9142  1.6368
    8MOL0     H 1034   0.098  12.220  10.691  0.0368 -0.1219 -0.4272
    8MOL0     H 1035   0.197  12.114  10.587  1.1345  0.8067  2.6275
    8MOL0     H 1036  -0.067  12.236  10.502  1.0997  0.5989  1.3277
    8MOL0     H 1037   0.038  12.141  10.398 -0.1774 -1.5760  0.2641
    8MOL0     H 1038   0.264  12.140  11.493  1.7213  1.4345 -1.7953
    8MOL0     H 1039   0.434  12.077  11.631  1.6071  0.3891 -0.1213
    8MOL0     H 1040   0.656  11.853  11.989  0.5505 -1.0571  1.6645
    8MOL0     H 1041   0.886  11.795  12.093  2.1351 -1.6116 -0.9919
    8MOL0     H 1042   2.406  11.470  10.946 -1.0197 -2.5087 -0.3452
    8MOL0     H 1043   2.612  11.388  10.937 -0.1391 -1.2092  0.4573
    8MOL0     H 1044   2.863  10.910  11.074 -0.8076  0.2211 -1.7660
    8MOL0     H 1045   3.101  10.828  11.059  1.1012 -1.0023  0.3956
    8MOL0     H 1046   3.292  11.017  10.912  1.2555  1.6278 -0.6494
    8MOL0     H 1047   3.365  10.857  10.953  2.3203  0.2596 -1.7543
    8MOL0     H 1048   3.556  11.013  10.891 -0.3366 -0.0219 -0.9159
    8MOL0     H 1049   3.479  11.133  10.987  1.5132  0.2409  5.5872
    8MOL0     H 1050   3.582  10.872  11.112 -1.1402 -0.0126  1.8780
    8MOL0     H 1051   3.537  11.020  11.193  1.3042  2.5721 -0.7327
    8MOL0     H 1052   3.726  11.143  11.044 -0.9848  0.5371  0.0930
    8MOL0     H 1053   3.769  11.061  11.183  4.5651  4.1765 -1.9298
    8MOL0     H 1054   4.011  10.899  10.890 -0.1519 -0.7237  0.2163
    8MOL0     H 1055   3.241  11.215  11.152  0.3959 -0.1725  0.8130
    8MOL0     H 1056   3.019  11.305  11.164 -0.7379  0.9369 -1.6566
    9MOL0     O 1057  10.618   7.928   9.389 -0.0799 -0.4956  0.2019
    9MOL0     C 1058  10.658   7.859   9.294  0.0813 -0.6153 -0.5211
    9MOL0     O 1059  10.580   7.768   9.219 -0.0161 -0.4761 -0.4342
    9MOL0     C 1060  10.453   7.769   9.259  0.2117  0.3432  0.4286
    9MOL0     C 1061  10.379   7.888   9.244  0.6171 -0.3002  0.5689
    9MOL0     C 1062  10.245   7.901   9.293 -0.3404 -0.0994 -0.4135
    9MOL0     C 1063  10.181   7.798   9.363  0.9971  0.5350 -0.0774
    9MOL0     O 1064  10.048   7.784   9.403 -0.4790 -0.0559 -0.5870
    9MOL0     C 1065   9.952   7.883   9.376 -0.0809 -0.2612 -1.0758
    9MOL0     C 1066   9.931   7.963   9.505  0.3983 -0.4550 -0.2107
    9MOL0     C 1067   9.802   8.054   9.504  0.3087 -0.7630  0.4894
    9MOL0     C 1068   9.690   7.969   9.560 -0.2061 -0.3258  0.0558
    9MOL0     C 1069   9.554   8.021   9.521 -0.3224  0.4228 -0.1589
    9MOL0     C 1070   9.436   7.964   9.613  0.4976  0.3023  0.9251
    9MOL0     C 1071   9.303   7.996   9.543  0.0989 -0.1732  0.3214
    9MOL0     C 1072   9.183   7.986   9.641 -0.0330  0.4274  0.6123
    9MOL0     N 1073   9.052   8.001   9.587  0.1584  0.7428 -0.4619
    9MOL0     C 1074   9.013   7.985   9.455  0.6409 -0.0291  0.0673
    9MOL0     C 1075   8.899   8.058   9.445 -0.3391  0.1158 -0.4959
    9MOL0     C 1076   8.811   8.065   9.320  0.8588 -1.3213 -0.7038
    9MOL0     C 1077   8.752   7.931   9.307 -0.4576  0.3160  0.1828
    9MOL0     C 1078   8.652   7.905   9.413 -0.4508  0.4971  0.4164
    9MOL0     C 1079   8.603   7.769   9.386 -0.1799  0.2598  0.1884
    9MOL0     O 1080   8.508   7.764   9.281  0.0850  0.0694  0.2663
    9MOL0     C 1081   8.375   7.767   9.316 -1.0758 -0.2788  0.1556
    9MOL0     C 1082   8.283   7.719   9.214 -0.3338  0.1996  0.0134
    9MOL0     C 1083   8.144   7.722   9.240  0.3071 -0.2667  0.1492
    9MOL0     C 1084   8.091   7.753   9.367  0.4380  0.3328 -0.3878
    9MOL0     C 1085   7.945   7.745   9.387 -0.6394  0.7845 -0.4281
    9MOL0     O 1086   7.885   7.660   9.300  0.5763 -0.1817 -0.1906
    9MOL0     C 1087   7.752   7.662   9.306 -0.2068  0.0376 -0.0952
    9MOL0     C 1088   7.673   7.776   9.287  0.1285  0.5515  0.0946
    9MOL0     C 1089   7.535   7.775   9.300  0.5419  0.4077  0.2085
    9MOL0     C 1090   7.469   7.658   9.304  1.1862 -0.1312  1.0824
    9MOL0     O 1091   7.332   7.667   9.302  0.1198  0.8216  0.0435
    9MOL0     C 1092   7.267   7.541   9.314  0.4689 -0.4015 -0.2320
    9MOL0     C 1093   7.124   7.576   9.256 -0.3491  0.0228  0.3049
    9MOL0     C 1094   7.022   7.459   9.262 -0.4227 -1.1633  0.3393
    9MOL0     C 1095   6.989   7.445   9.406  1.1117 -0.5804 -0.8205
    9MOL0     C 1096   6.894   7.334   9.438 -0.4786 -0.6672  0.6156
    9MOL0     C 1097   6.750   7.320   9.377 -0.1123  0.6794 -0.5448
    9MOL0     C 1098   6.666   7.216   9.455 -0.2125  0.3520 -0.6984
    9MOL0     C 1099   6.532   7.186   9.398  0.0568 -0.3707 -0.3387
    9MOL0    Cl 1100   6.539   7.106   9.241 -0.0954  0.2676  0.5546
    9MOL0     C 1101   7.541   7.538   9.313 -0.2644 -0.3327  0.1854
    9MOL0     C 1102   7.682   7.541   9.318  1.0074  0.4536 -0.2487
    9MOL0     O 1103   7.891   7.808   9.477  0.4553  0.2523 -0.1184
    9MOL0     C 1104   8.185   7.791   9.470  0.2472 -0.1390  1.0808
    9MOL0     C 1105   8.328   7.798   9.449 -0.3710 -0.2266 -0.3906
    9MOL0     N 1106   8.863   8.101   9.574  0.2509 -0.6077 -0.0686
    9MOL0     N 1107   8.963   8.073   9.655  0.3077 -0.4772 -0.3086
    9MOL0     C 1108  10.259   7.684   9.373  0.7225 -0.3294  0.2210
    9MOL0     C 1109  10.390   7.668   9.329 -0.5534 -0.6119  0.1099
    9MOL0     C 1110  10.795   7.890   9.248 -0.3136 -0.9232 -0.8119
    9MOL0     C 1111  10.887   7.968   9.321 -0.1324 -0.3254 -0.2030
    9MOL0     C 1112  11.018   7.984   9.275 -0.3599 -0.3753 -0.2049
    9MOL0     C 1113  11.055   7.914   9.156 -0.0856  0.2006 -1.3251
    9MOL0     O 1114  11.186   7.918   9.113 -0.3885 -0.0501  0.9705
    9MOL0     C 1115  11.304   7.947   9.186  0.2910 -0.3748 -0.6306
    9MOL0     C 1116  11.384   7.819   9.176 -0.8559  0.4012 -0.2708
    9MOL0     C 1117  11.539   7.854   9.170 -0.0086  0.1791  0.2826
    9MOL0     C 1118  11.620   7.733   9.155  0.3800 -0.3695 -0.0949
    9MOL0     C 1119  11.759   7.761   9.116  0.4148 -0.3292  0.2898
    9MOL0     C 1120  11.866   7.790   9.062 -0.2905  0.0212 -0.5217
    9MOL0     C 1121  10.963   7.847   9.078  0.0163  0.0146  0.5646
    9MOL0     C 1122  10.835   7.835   9.127  0.5633 -0.7743 -0.2005
    9MOL0     H 1123  10.426   7.974   9.197  0.8158 -1.3124 -1.1449
    9MOL0     H 1124  10.191   7.994   9.273 -1.5717 -0.7107 -0.0338
    9MOL0     H 1125   9.860   7.830   9.347 -0.1166 -1.6462  1.3517
    9MOL0     H 1126   9.972   7.944   9.287 -0.5053 -2.2569 -2.6254
    9MOL0     H 1127  10.021   8.024   9.518  1.7689 -2.1831 -1.1676
    9MOL0     H 1128   9.933   7.896   9.592  0.3334 -0.4116 -0.1755
    9MOL0     H 1129   9.790   8.084   9.400 -1.2822 -1.5822  0.3982
    9MOL0     H 1130   9.808   8.140   9.572 -0.4723 -0.8354  0.6644
    9MOL0     H 1131   9.710   7.863   9.544  2.3763  0.3084 -1.5095
    9MOL0     H 1132   9.692   7.993   9.667 -2.4375 -0.6519  0.2169
    9MOL0     H 1133   9.545   7.983   9.419  1.6047 -1.2517  0.2056
    9MOL0     H 1134   9.549   8.130   9.530  0.4687  0.3867  0.9829
    9MOL0     H 1135   9.441   8.004   9.715  1.7904  0.9613  0.6242
    9MOL0     H 1136   9.439   7.856   9.628 -2.5911 -0.0895 -0.4506
    9MOL0     H 1137   9.303   8.101   9.512  0.4944 -0.3038 -0.1351
    9MOL0     H 1138   9.292   7.938   9.452  1.3555 -0.0193  0.0477
    9MOL0     H 1139   9.199   8.059   9.722  2.7517 -0.8127  1.2973
    9MOL0     H 1140   9.195   7.889   9.691  1.2174  0.1501 -0.1783
    9MOL0     H 1141   9.061   7.934   9.371  1.6856  1.0307  0.0022
    9MOL0     H 1142   8.868   8.097   9.232  0.8846 -0.7368 -0.4750
    9MOL0     H 1143   8.730   8.137   9.335  1.6172 -1.1557  3.8840
    9MOL0     H 1144   8.832   7.858   9.314 -0.5827  0.2517  1.0434
    9MOL0     H 1145   8.704   7.920   9.209  0.6545 -0.6539 -0.2785
    9MOL0     H 1146   8.701   7.899   9.511  0.2113  1.5830  0.1700
    9MOL0     H 1147   8.578   7.985   9.408 -2.3020 -1.2104 -1.5928
    9MOL0     H 1148   8.562   7.731   9.480 -0.2726  1.2960  0.5750
    9MOL0     H 1149   8.682   7.699   9.355 -0.5625  0.6952 -1.8758
    9MOL0     H 1150   8.316   7.695   9.113 -1.7749  1.5734 -0.8292
    9MOL0     H 1151   8.082   7.687   9.159 -0.2546  1.4759 -0.1986
    9MOL0     H 1152   7.720   7.874   9.276 -0.7898  1.2595  2.0536
    9MOL0     H 1153   7.481   7.868   9.284  0.9736  0.7629  0.7599
    9MOL0     H 1154   7.246   7.510   9.417 -2.7624  1.4668 -0.1663
    9MOL0     H 1155   7.312   7.458   9.260 -0.2165  0.0752 -1.5844
    9MOL0     H 1156   7.135   7.588   9.148 -1.4294  1.7330  0.3459
    9MOL0     H 1157   7.088   7.669   9.301  1.6075 -0.2255  2.5779
    9MOL0     H 1158   7.072   7.376   9.210  1.4639  0.9526 -1.4283
    9MOL0     H 1159   6.928   7.480   9.210 -0.4174 -0.0652  0.7596
    9MOL0     H 1160   7.082   7.422   9.460  0.3658 -0.2578  0.6708
    9MOL0     H 1161   6.957   7.540   9.452  2.0771 -1.2092  1.2995
    9MOL0     H 1162   6.883   7.341   9.547  0.0605  0.6320  0.6129
    9MOL0     H 1163   6.937   7.238   9.412 -1.7006 -1.5621  1.7606
    9MOL0     H 1164   6.750   7.303   9.269  0.9057  0.6500 -0.5549
    9MOL0     H 1165   6.687   7.408   9.390 -2.6467 -1.0307 -0.5002
    9MOL0     H 1166   6.719   7.121   9.463 -0.8846 -0.1204 -1.6915
    9MOL0     H 1167   6.654   7.249   9.559 -3.6527  3.4921 -1.8864
    9MOL0     H 1168   6.480   7.282   9.393  2.8308  1.3454  1.0068
    9MOL0     H 1169   6.470   7.118   9.457  0.8637 -0.0774  0.8961
    9MOL0     H 1170   7.498   7.440   9.332  0.4322 -0.5405  0.7139
    9MOL0     H 1171   7.753   7.458   9.319  2.6327  1.7444 -2.0580
    9MOL0     H 1172   8.132   7.821   9.560  2.3657  0.4710  2.1771
    9MOL0     H 1173   8.393   7.832   9.529  0.6464  2.7489 -2.2788
    9MOL0     H 1174  10.216   7.605   9.434  0.2886  0.9981  1.6843
    9MOL0     H 1175  10.448   7.582   9.360 -0.8003 -0.8968 -0.2139
    9MOL0     H 1176  10.845   7.996   9.417  2.0019 -0.9158  0.9478
    9MOL0     H 1177  11.081   8.054   9.329 -1.4927  0.6368 -0.1462
    9MOL0     H 1178  11.276   7.957   9.291  1.3989 -2.7080 -0.0270
    9MOL0     H 1179  11.341   8.039   9.141 -0.1613 -0.2027 -0.6546
    9MOL0     H 1180  11.363   7.763   9.268 -0.7846 -3.2333 -2.2923
    9MOL0     H 1181  11.358   7.759   9.088 -0.3542 -0.6877  0.3052
    9MOL0     H 1182  11.569   7.920   9.251  2.1922  1.9968 -1.8500
    9MOL0     H 1183  11.547   7.917   9.081  0.8361 -0.9176 -0.4476
    9MOL0     H 1184  11.622   7.682   9.251  0.9921  1.4438  0.9071
    9MOL0     H 1185  11.566   7.670   9.084  2.1880  0.2653 -2.1718
    9MOL0     H 1186  11.963   7.814   9.024  0.4052 -0.8050  0.6488
    9MOL0     H 1187  11.003   7.798   8.990 -1.7707 -3.0353  1.3094
    9MOL0     H 1188  10.758   7.789   9.066  0.2164  3.2654 -3.2187
   10MOL0     O 1189   8.964   2.279   5.493  0.7357  0.0131 -0.0693
   10MOL0     C 1190   9.037   2.349   5.564  1.3848  0.6330  0.9494
   10MOL0     O 1191   8.997   2.416   5.680 -1.2358  0.7340 -0.0314
   10MOL0     C 1192   8.877   2.414   5.741  0.6172 -0.0963  0.4999
   10MOL0     C 1193   8.867   2.473   5.871 -0.3244  0.3982 -0.2380
   10MOL0     C 1194   8.745   2.476   5.942 -0.4532 -0.0508  0.0902
   10MOL0     C 1195   8.630   2.425   5.879 -0.7872 -0.0621  1.2339
   10MOL0     O 1196   8.519   2.432   5.957  0.4974 -0.0237 -0.6677
   10MOL0     C 1197   8.390   2.404   5.901  0.0486 -0.5752 -0.6802
   10MOL0     C 1198   8.289   2.463   5.993  0.0986  0.1104 -0.2281
   10MOL0     C 1199   8.145   2.479   5.927  0.4002 -0.3352  0.1284
   10MOL0     C 1200   8.069   2.346   5.923  1.0215 -0.1447  0.3855
   10MOL0     C 1201   7.917   2.367   5.885  0.5975  0.8456 -0.6549
   10MOL0     C 1202   7.893   2.407   5.736  0.7626  0.2182  0.4145
   10MOL0     C 1203   7.886   2.553   5.711 -0.0399 -0.7956 -0.5316
   10MOL0     C 1204   7.814   2.594   5.583  0.1507  0.1897  0.4108
   10MOL0     N 1205   7.670   2.594   5.584  0.3527  0.3310 -0.3236
   10MOL0     C 1206   7.591   2.622   5.690 -0.1512 -0.0980 -0.3409
   10MOL0     C 1207   7.462   2.598   5.640 -0.1555  0.5409  0.0167
   10MOL0     C 1208   7.330   2.626   5.714  0.0709  0.7206  0.6235
   10MOL0     C 1209   7.302   2.530   5.835  0.4838  0.8323  0.1288
   10MOL0     C 1210   7.293   2.376   5.803 -0.8298 -0.5274  0.3578
   10MOL0     C 1211   7.239   2.295   5.927  0.7785 -0.5180 -0.3463
   10MOL0     O 1212   7.110   2.350   5.967 -0.3370  1.2435 -0.2149
   10MOL0     C 1213   6.995   2.293   5.922 -0.4216 -0.4352  0.5889
   10MOL0     C 1214   6.871   2.350   5.973  0.4557 -0.0560  0.2982
   10MOL0     C 1215   6.753   2.314   5.917 -0.6125 -0.5800  0.1085
   10MOL0     C 1216   6.747   2.220   5.812  0.2292 -0.2989  0.5999
   10MOL0     C 1217   6.608   2.197   5.757  0.0111  0.3701  0.8564
   10MOL0     O 1218   6.515   2.290   5.774  0.5036  0.1041  0.5169
   10MOL0     C 1219   6.384   2.271   5.752  0.2155  1.1064 -0.3482
   10MOL0     C 1220   6.313   2.146   5.772 -0.2231 -0.3575  0.4475
   10MOL0     C 1221   6.173   2.151   5.751 -0.5627 -0.4212  0.2979
   10MOL0     C 1222   6.099   2.270   5.722 -0.0657 -0.2414 -0.7405
   10MOL0     O 1223   5.969   2.276   5.698  0.4290  0.3892  0.7878
   10MOL0     C 1224   5.896   2.156   5.733  0.2818  0.4991 -0.1295
   10MOL0     C 1225   5.747   2.188   5.735  0.4316 -0.6562 -0.3223
   10MOL0     C 1226   5.721   2.279   5.847  0.5946 -0.2468 -0.9371
   10MOL0     C 1227   5.572   2.297   5.869  0.0372 -0.5829  1.3201
   10MOL0     C 1228   5.544   2.405   5.980 -0.1381 -0.2041 -0.2187
   10MOL0     C 1229   5.395   2.423   5.999  1.0494 -0.6251  0.2675
   10MOL0     C 1230   5.382   2.546   6.088  0.1451 -0.1506  0.3394
   10MOL0     C 1231   5.239   2.550   6.145  1.3300  0.0069  0.6657
   10MOL0    Cl 1232   5.211   2.408   6.258  0.1247  0.4510 -0.3331
   10MOL0     C 1233   6.175   2.384   5.702  1.3140  0.2236 -0.9654
   10MOL0     C 1234   6.316   2.385   5.714 -0.1292  0.5206 -0.1389
   10MOL0     O 1235   6.599   2.100   5.678  1.0369 -0.6091  0.5939
   10MOL0     C 1236   6.867   2.162   5.766 -0.8303  0.4443 -0.6478
   10MOL0     C 1237   6.993   2.201   5.810 -0.1926 -0.9368  0.1923
   10MOL0     N 1238   7.473   2.565   5.502  0.2388 -0.5622  0.0679
   10MOL0     N 1239   7.594   2.562   5.476 -0.0594 -0.1309  0.4288
   10MOL0     C 1240   8.634   2.383   5.744 -0.2418  0.9434 -0.8307
   10MOL0     C 1241   8.752   2.374   5.688 -1.2092 -0.6529 -0.2045
   10MOL0     C 1242   9.175   2.358   5.516 -0.5081 -0.5082  0.6285
   10MOL0     C 1243   9.281   2.369   5.610 -0.6825 -0.2114  0.4220
   10MOL0     C 1244   9.410   2.379   5.560  0.2227 -0.0311 -0.3822
   10MOL0     C 1245   9.439   2.375   5.423 -0.4605 -0.6282 -0.5709
   10MOL0     O 1246   9.564   2.385   5.376 -0.0363 -0.1945 -0.3804
   10MOL0     C 1247   9.654   2.468   5.445 -0.4390 -0.2114 -0.0093
   10MOL0     C 1248   9.771   2.492   5.339  0.0098 -0.1215  0.8453
   10MOL0     C 1249   9.873   2.601   5.379  0.6008  0.4567 -0.4394
   10MOL0     C 1250  10.010   2.581   5.307  0.0826 -0.3728  0.4955
   10MOL0     C 1251  10.121   2.665   5.359  0.7890 -0.1394 -0.5633
   10MOL0     C 1252  10.217   2.724   5.403 -0.2358  0.0776  0.3743
   10MOL0     C 1253   9.334   2.344   5.336  0.0350 -0.3034  0.3942
   10MOL0     C 1254   9.198   2.340   5.386 -0.5346 -1.5353  0.8254
   10MOL0     H 1255   8.960   2.513   5.912  0.0326 -2.2473  1.8292
   10MOL0     H 1256   8.742   2.530   6.036  2.0253  1.1692 -0.4637
   10MOL0     H 1257   8.380   2.296   5.891  2.1611 -1.1678  2.1671
   10MOL0     H 1258   8.388   2.450   5.802  0.0531  0.3829 -0.2432
   10MOL0     H 1259   8.318   2.562   6.030  1.8181  0.8391 -3.1916
   10MOL0     H 1260   8.272   2.400   6.081 -0.0075  2.1331  1.2793
   10MOL0     H 1261   8.148   2.526   5.829 -1.3473  1.3386  0.7997
   10MOL0     H 1262   8.096   2.545   6.000  3.9236  0.3890  2.0587
   10MOL0     H 1263   8.112   2.277   5.851 -0.6031  0.9053 -1.6879
   10MOL0     H 1264   8.067   2.297   6.021 -1.4553 -0.6316  0.1697
   10MOL0     H 1265   7.859   2.435   5.948  0.7484  1.1059 -0.7944
   10MOL0     H 1266   7.876   2.267   5.900  1.1150  0.7869  0.4859
   10MOL0     H 1267   7.794   2.369   5.708  0.8441 -0.4184  0.9570
   10MOL0     H 1268   7.949   2.345   5.665 -1.5249  0.9452 -2.2144
   10MOL0     H 1269   7.832   2.597   5.795 -1.7002  1.7644 -2.7630
   10MOL0     H 1270   7.986   2.597   5.710 -0.7191  1.1841  2.5174
   10MOL0     H 1271   7.856   2.539   5.498 -0.6675 -0.2581  0.2886
   10MOL0     H 1272   7.835   2.699   5.565  1.2492 -0.1596 -0.4851
   10MOL0     H 1273   7.621   2.653   5.790  0.7799 -2.2688  0.1056
   10MOL0     H 1274   7.247   2.614   5.644  1.9288  1.8499 -1.9215
   10MOL0     H 1275   7.339   2.729   5.752 -0.9501  0.8294  0.6116
   10MOL0     H 1276   7.197   2.552   5.860  1.1106  2.7234  1.3465
   10MOL0     H 1277   7.369   2.550   5.919  1.0817  1.2910 -0.4476
   10MOL0     H 1278   7.238   2.359   5.710 -0.8474  1.1277  0.0395
   10MOL0     H 1279   7.390   2.336   5.772 -0.3234  0.2315  0.9312
   10MOL0     H 1280   7.308   2.324   6.006  1.8859 -2.1726 -0.6779
   10MOL0     H 1281   7.239   2.186   5.927  0.5600 -0.5206  0.1099
   10MOL0     H 1282   6.859   2.425   6.051  0.6894  2.3791 -1.8741
   10MOL0     H 1283   6.662   2.358   5.956 -2.0389 -2.6282 -0.7737
   10MOL0     H 1284   6.378   2.063   5.795  1.7743  0.6220 -1.2961
   10MOL0     H 1285   6.132   2.052   5.731 -0.7364 -0.0063 -1.5725
   10MOL0     H 1286   5.918   2.117   5.833  2.7900 -0.4978 -0.9938
   10MOL0     H 1287   5.913   2.071   5.666  0.0108  0.6596 -0.4035
   10MOL0     H 1288   5.699   2.090   5.740 -1.8693  0.4873  1.8978
   10MOL0     H 1289   5.717   2.230   5.639 -3.2970  0.7557  1.2816
   10MOL0     H 1290   5.753   2.381   5.824  2.4234  0.1208  2.5595
   10MOL0     H 1291   5.762   2.251   5.944 -0.2812 -0.3379 -0.5882
   10MOL0     H 1292   5.525   2.333   5.777  1.9509 -0.1163  0.4876
   10MOL0     H 1293   5.525   2.209   5.913  0.0856 -0.7672  1.0049
   10MOL0     H 1294   5.585   2.504   5.958  0.3303 -0.4892 -0.6542
   10MOL0     H 1295   5.582   2.375   6.077 -0.9064 -0.1241  0.1171
   10MOL0     H 1296   5.343   2.339   6.045 -0.3370  1.6091  3.0925
   10MOL0     H 1297   5.360   2.455   5.900 -2.4084 -0.8934  1.3043
   10MOL0     H 1298   5.454   2.536   6.170 -1.2214 -0.0043  1.5908
   10MOL0     H 1299   5.407   2.635   6.029 -2.9683 -0.8618 -2.3405
   10MOL0     H 1300   5.169   2.538   6.062  2.3119 -0.5879 -0.0908
   10MOL0     H 1301   5.214   2.645   6.193 -0.9683 -1.4548  2.5888
   10MOL0     H 1302   6.123   2.478   5.688 -2.3485 -1.6667 -1.2765
   10MOL0     H 1303   6.372   2.478   5.705  0.4733  0.4267  1.9921
   10MOL0     H 1304   6.861   2.085   5.689 -3.0731  0.5135 -0.5865
   10MOL0     H 1305   7.087   2.155   5.783  0.9548 -0.9634  3.7164
   10MOL0     H 1306   8.547   2.344   5.694 -0.4102 -2.0377  1.4876
   10MOL0     H 1307   8.758   2.343   5.584  0.2027  1.1677 -0.7052
   10MOL0     H 1308   9.276   2.366   5.719 -0.2185 -0.3102  0.4422
   10MOL0     H 1309   9.486   2.382   5.638  0.0938 -2.5005 -0.1026
   10MOL0     H 1310   9.691   2.416   5.534 -1.3506  0.4815  0.7897
   10MOL0     H 1311   9.600   2.559   5.471 -1.2266 -0.8684  0.7206
   10MOL0     H 1312   9.828   2.401   5.314  1.0242  0.4665  0.9345
   10MOL0     H 1313   9.728   2.519   5.242  0.1400 -0.2137  0.7611
   10MOL0     H 1314   9.893   2.597   5.486  1.4119  1.4072 -0.5410
   10MOL0     H 1315   9.824   2.697   5.362 -2.6141 -1.3068 -2.2480
   10MOL0     H 1316  10.038   2.476   5.312  1.3959 -0.5384 -4.7696
   10MOL0     H 1317  10.000   2.601   5.200  1.9458 -3.5476 -0.3857
   10MOL0     H 1318  10.304   2.769   5.446  0.1887 -3.4933  3.7973
   10MOL0     H 1319   9.367   2.327   5.234  2.0462 -3.1156  1.3843
   10MOL0     H 1320   9.117   2.329   5.315  1.1876 -1.8933 -1.1902
   11MOL0     O 1321   1.578   3.218   0.188 -0.0346 -0.0250  0.4110
   11MOL0     C 1322   1.659   3.226   0.282  0.4139  0.0285  0.1789
   11MOL0     O 1323   1.634   3.211   0.419 -0.5506 -0.0876 -0.1815
   11MOL0     C 1324   1.494   3.203   0.438 -0.0847 -0.0167 -0.4461
   11MOL0     C 1325   1.411   3.313   0.446  0.6560 -0.6554  0.6371
   11MOL0     C 1326   1.278   3.292   0.485  0.7068 -0.2013 -0.8282
   11MOL0     C 1327   1.222   3.165   0.501  0.0798  0.2337 -0.3655
   11MOL0     O 1328   1.087   3.125   0.508  0.0280 -0.1848  0.6369
   11MOL0     C 1329   0.989   3.225   0.476  0.1679  0.5250  0.1087
   11MOL0     C 1330   0.895   3.183   0.359 -0.5769 -0.0003  0.3922
   11MOL0     C 1331   0.792   3.084   0.411 -0.3647 -0.2180 -0.6937
   11MOL0     C 1332   0.689   3.065   0.303  0.5150  0.5968  0.0826
   11MOL0     C 1333   0.572   2.978   0.352 -0.0174  0.3682 -0.2556
   11MOL0     C 1334   0.465   2.969   0.247 -0.8486 -0.3808 -0.2449
   11MOL0     C 1335   0.363   2.849   0.276  0.0045 -0.3407 -0.3901
   11MOL0     C 1336   0.246   2.863   0.192 -0.3867 -0.2862  0.7481
   11MOL0     N 1337   0.148   2.758   0.216 -0.4462  0.5780  1.0448
   11MOL0     C 1338   0.101   2.717   0.330 -0.0745 -0.8313 -0.8996
   11MOL0     C 1339   0.047   2.598   0.318  0.5152  0.0643 -0.6230
   11MOL0     C 1340  -0.012   2.516   0.426 -0.1008  0.6834 -0.0034
   11MOL0     C 1341  -0.165   2.518   0.418 -0.5845  0.0185 -0.1536
   11MOL0     C 1342  -0.235   2.656   0.437 -0.5888  0.0866  0.2556
   11MOL0     C 1343  -0.385   2.652   0.432 -0.0707 -0.1115 -0.7282
   11MOL0     O 1344  -0.428   2.788   0.420 -0.6030 -0.2879 -0.5161
   11MOL0     C 1345  -0.555   2.816   0.462  0.0526  0.4786 -0.7443
   11MOL0     C 1346  -0.655   2.717   0.508 -0.0222 -1.4795  0.7915
   11MOL0     C 1347  -0.772   2.759   0.571 -0.3449 -0.2453  0.1842
   11MOL0     C 1348  -0.792   2.898   0.587 -0.1438  1.3427 -0.4530
   11MOL0     C 1349  -0.930   2.931   0.644 -0.3198 -0.2689  0.0260
   11MOL0     O 1350  -1.031   2.836   0.645  0.4228  0.3796  0.3681
   11MOL0     C 1351  -1.159   2.855   0.692 -0.0047 -0.1206 -1.2746
   11MOL0     C 1352  -1.238   2.739   0.681  0.4802  0.2165  0.5863
   11MOL0     C 1353  -1.375   2.748   0.704  0.0924  0.2447  0.3398
   11MOL0     C 1354  -1.438   2.867   0.733  0.3272  0.4787  0.2702
   11MOL0     O 1355  -1.572   2.861   0.758 -0.3770 -0.5290 -0.6056
   11MOL0     C 1356  -1.650   2.970   0.707 -0.2778 -0.3631 -0.5457
   11MOL0     C 1357  -1.779   2.918   0.647  0.5706 -0.2146  0.1894
   11MOL0     C 1358  -1.870   2.854   0.761 -0.1951  0.4510  0.8046
   11MOL0     C 1359  -1.975   2.769   0.687  0.6854  0.2304  0.0937
   11MOL0     C 1360  -2.059   2.707   0.785  0.1124  0.4273 -0.1671
   11MOL0     C 1361  -2.121   2.572   0.736  0.2179  0.7393  0.3361
   11MOL0     C 1362  -2.236   2.536   0.821  0.0508 -0.3054 -0.6877
   11MOL0     C 1363  -2.370   2.519   0.739  0.0446 -0.6247 -0.3060
   11MOL0    Cl 1364  -2.487   2.430   0.843  0.5196 -0.0063  0.2250
   11MOL0     C 1365  -1.363   2.981   0.732  0.4852  0.4880  0.0697
   11MOL0     C 1366  -1.228   2.968   0.723 -0.0805 -0.3092  0.1266
   11MOL0     O 1367  -0.942   3.054   0.669  0.6263  0.9955  0.3931
   11MOL0     C 1368  -0.690   2.991   0.549 -0.0173 -0.2989  0.1087
   11MOL0     C 1369  -0.578   2.951   0.484  0.6877 -0.1926 -0.3923
   11MOL0     N 1370   0.076   2.559   0.188 -0.4839 -0.2408 -0.2290
   11MOL0     N 1371   0.130   2.658   0.123 -0.2031  1.1339  0.2824
   11MOL0     C 1372   1.306   3.054   0.509  1.3457 -0.2867  0.2777
   11MOL0     C 1373   1.441   3.077   0.473 -0.3634 -0.0627 -0.1431
   11MOL0     C 1374   1.799   3.252   0.246 -0.1556 -0.2830 -1.1189
   11MOL0     C 1375   1.895   3.282   0.342 -0.5282  0.3947 -0.9989
   11MOL0     C 1376   2.024   3.304   0.305 -0.2149  0.2395  0.1496
   11MOL0     C 1377   2.072   3.304   0.177  0.5655 -1.1652  0.4742
   11MOL0     O 1378   2.208   3.322   0.173  0.0442  0.4077  0.2185
   11MOL0     C 1379   2.269   3.338   0.041 -0.6915  0.8717  0.7826
   11MOL0     C 1380   2.409   3.384   0.046  0.2774 -0.8512  0.4533
   11MOL0     C 1381   2.425   3.530   0.013  0.0321  0.0359  0.2792
   11MOL0     C 1382   2.567   3.595   0.005 -0.4997  0.7704 -0.0602
   11MOL0     C 1383   2.576   3.719  -0.062 -0.7672  0.1249  0.2845
   11MOL0     C 1384   2.555   3.832  -0.116  0.4420  0.7832 -0.3599
   11MOL0     C 1385   1.976   3.270   0.074  0.1599  0.0163  0.1009
   11MOL0     C 1386   1.838   3.245   0.111  0.1176 -0.2302 -0.1030
   11MOL0     H 1387   1.450   3.411   0.421 -0.4621 -0.3014  0.2436
   11MOL0     H 1388   1.215   3.378   0.504 -0.1694 -0.9185 -0.3868
   11MOL0     H 1389   1.017   3.329   0.458 -0.2713  0.2871 -2.3356
   11MOL0     H 1390   0.923   3.231   0.563 -2.8865  4.3869 -2.1249
   11MOL0     H 1391   0.954   3.132   0.283  0.2596  0.8038  0.4860
   11MOL0     H 1392   0.846   3.260   0.299 -1.5694  1.7453  3.2282
   11MOL0     H 1393   0.748   3.119   0.505  1.5398  1.3030 -0.3031
   11MOL0     H 1394   0.836   2.988   0.439 -0.8633  0.2127  1.7754
   11MOL0     H 1395   0.631   3.157   0.291 -0.5195 -0.1945 -1.4075
   11MOL0     H 1396   0.730   3.032   0.206  0.4796 -0.3826  0.3960
   11MOL0     H 1397   0.546   3.024   0.447 -1.6259  1.4695 -1.1759
   11MOL0     H 1398   0.617   2.879   0.367 -0.2446  0.6121  2.5645
   11MOL0     H 1399   0.512   2.967   0.149 -1.4617  0.1631 -0.5574
   11MOL0     H 1400   0.414   3.065   0.242 -0.6316 -0.2244  0.4360
   11MOL0     H 1401   0.404   2.749   0.264  0.0774 -0.1616 -1.8326
   11MOL0     H 1402   0.331   2.870   0.379  0.5427 -2.3553  0.2255
   11MOL0     H 1403   0.282   2.850   0.089 -1.7542 -5.3117  0.6778
   11MOL0     H 1404   0.193   2.959   0.195 -2.8243 -1.5804  1.8989
   11MOL0     H 1405   0.100   2.763   0.429 -4.2477 -1.2039 -0.5900
   11MOL0     H 1406   0.013   2.557   0.524  1.5414 -0.5362  0.1246
   11MOL0     H 1407   0.020   2.412   0.431  0.5055  0.9372  2.4927
   11MOL0     H 1408  -0.194   2.459   0.505 -0.0172 -0.1800 -0.0948
   11MOL0     H 1409  -0.197   2.468   0.326 -1.3162 -0.3099  0.2743
   11MOL0     H 1410  -0.209   2.688   0.538  0.7962 -1.1054  0.3152
   11MOL0     H 1411  -0.184   2.726   0.371  2.2594 -2.1220 -0.0637
   11MOL0     H 1412  -0.416   2.628   0.534  0.6090  2.8257  0.2771
   11MOL0     H 1413  -0.433   2.589   0.356 -1.8803 -3.7081  2.9912
   11MOL0     H 1414  -0.640   2.610   0.516 -0.0365 -1.3588  2.9563
   11MOL0     H 1415  -0.847   2.692   0.613  1.1875 -1.0633  1.7594
   11MOL0     H 1416  -1.203   2.642   0.645 -1.8310  0.8369 -4.1811
   11MOL0     H 1417  -1.418   2.648   0.707  1.8229 -0.5829 -0.7810
   11MOL0     H 1418  -1.592   3.026   0.633  0.3611  3.2297  2.3846
   11MOL0     H 1419  -1.665   3.042   0.789  1.7427 -1.3862  0.8163
   11MOL0     H 1420  -1.749   2.849   0.568 -3.9250 -3.0442  0.5901
   11MOL0     H 1421  -1.829   3.006   0.604 -0.0092 -1.0470 -0.8970
   11MOL0     H 1422  -1.902   2.928   0.836 -0.2374  2.7477 -1.3618
   11MOL0     H 1423  -1.812   2.775   0.809 -0.4251 -1.3989 -1.7704
   11MOL0     H 1424  -2.026   2.828   0.610  0.0769 -0.3881  0.0213
   11MOL0     H 1425  -1.924   2.692   0.628  3.3858  2.2110 -0.4056
   11MOL0     H 1426  -2.124   2.792   0.807  1.4535  1.5644 -0.5115
   11MOL0     H 1427  -2.022   2.691   0.887 -0.9866  0.7187  0.2962
   11MOL0     H 1428  -2.047   2.492   0.730 -0.2474  0.3706 -3.7140
   11MOL0     H 1429  -2.159   2.579   0.633 -0.1211  1.0890  0.4838
   11MOL0     H 1430  -2.210   2.441   0.868  0.5345  0.8562  1.5135
   11MOL0     H 1431  -2.253   2.608   0.901  1.1472 -0.3913 -0.3581
   11MOL0     H 1432  -2.355   2.457   0.650  0.3768 -1.1574  0.1160
   11MOL0     H 1433  -2.410   2.618   0.716 -0.9015 -0.5398  1.5352
   11MOL0     H 1434  -1.407   3.074   0.765 -0.1121  0.3198 -0.2480
   11MOL0     H 1435  -1.173   3.062   0.721 -0.6871  0.0438 -2.0613
   11MOL0     H 1436  -0.711   3.091   0.586  1.0703  1.5439 -3.7919
   11MOL0     H 1437  -0.522   3.042   0.463 -1.2985  0.5480 -3.1681
   11MOL0     H 1438   1.277   2.951   0.528 -0.8425 -0.1966 -2.0173
   11MOL0     H 1439   1.524   3.008   0.465 -1.2866 -1.0108 -2.0685
   11MOL0     H 1440   1.880   3.300   0.447  1.3842 -0.6727 -0.4916
   11MOL0     H 1441   2.091   3.328   0.388  1.5184  1.1655 -1.4376
   11MOL0     H 1442   2.205   3.401  -0.021  0.1274  0.9091 -0.0608
   11MOL0     H 1443   2.272   3.241  -0.009 -0.6530  0.7802  0.9607
   11MOL0     H 1444   2.439   3.387   0.151  0.3325  2.7970  0.4311
   11MOL0     H 1445   2.486   3.329  -0.007  1.8046 -3.0136  4.4673
   11MOL0     H 1446   2.369   3.587   0.088 -0.3794  0.0714 -0.0515
   11MOL0     H 1447   2.383   3.544  -0.087  0.6336 -0.9145 -0.1229
   11MOL0     H 1448   2.603   3.628   0.103  1.1249  4.3518 -1.7004
   11MOL0     H 1449   2.641   3.520  -0.025 -0.2309 -0.3851  3.1056
   11MOL0     H 1450   2.520   3.917  -0.170 -1.5311 -0.9208 -1.9286
   11MOL0     H 1451   2.002   3.271  -0.032 -1.4235 -0.2224 -0.3186
   11MOL0     H 1452   1.760   3.222   0.039 -3.0592 -0.0693  2.9760
   12MOL0     O 1453   6.577   4.671   9.626 -0.0073  0.2761  0.6246
   12MOL0     C 1454   6.654   4.583   9.675 -0.1120 -0.7232  0.6248
   12MOL0     O 1455   6.610   4.480   9.746 -0.3797  0.5267 -0.3100
   12MOL0     C 1456   6.502   4.489   9.837  0.0454  1.6026 -0.2093
   12MOL0     C 1457   6.464   4.367   9.908  0.6080  0.3549  0.4153
   12MOL0     C 1458   6.350   4.361   9.983  0.2258 -0.6779 -0.3835
   12MOL0     C 1459   6.262   4.467   9.991  1.0643  0.2925  0.1233
   12MOL0     O 1460   6.158   4.461  10.080 -0.6122 -0.2352  0.0399
   12MOL0     C 1461   6.060   4.563  10.099  0.2949 -0.7158 -0.3567
   12MOL0     C 1462   5.928   4.514  10.168 -0.1904 -0.0155 -0.1071
   12MOL0     C 1463   5.821   4.619  10.193 -0.8693 -0.0664 -0.5456
   12MOL0     C 1464   5.735   4.598  10.323  0.7501 -0.0352 -0.5769
   12MOL0     C 1465   5.629   4.701  10.338 -0.6459 -0.4522  0.1162
   12MOL0     C 1466   5.507   4.683  10.241 -0.8089 -0.5392 -0.7922
   12MOL0     C 1467   5.400   4.789  10.266  0.2521 -0.6874 -0.1017
   12MOL0     C 1468   5.287   4.765  10.154  0.2235  0.3749 -1.2412
   12MOL0     N 1469   5.181   4.668  10.195  0.1378 -0.1715 -0.3483
   12MOL0     C 1470   5.187   4.527  10.189 -0.5673 -0.4568  0.1894
   12MOL0     C 1471   5.055   4.487  10.209 -0.0293 -0.3017 -0.1118
   12MOL0     C 1472   5.011   4.343  10.198  0.4908 -1.2209 -0.0302
   12MOL0     C 1473   5.039   4.299  10.052  0.3088  0.0200 -0.6649
   12MOL0     C 1474   4.982   4.160  10.029 -0.0734 -0.0542  0.1029
   12MOL0     C 1475   4.997   4.104   9.889 -0.1209 -0.3397  0.2427
   12MOL0     O 1476   4.936   4.186   9.793 -0.2482 -0.0459 -0.2178
   12MOL0     C 1477   4.809   4.160   9.749  0.2709  0.2976 -0.7323
   12MOL0     C 1478   4.785   4.039   9.694  0.3494 -0.2734  0.4050
   12MOL0     C 1479   4.662   4.003   9.637  0.6242 -0.8306  0.0328
   12MOL0     C 1480   4.550   4.087   9.660 -0.4776 -0.4467 -0.5501
   12MOL0     C 1481   4.418   4.056   9.600  0.4835  0.1347  0.3019
   12MOL0     O 1482   4.305   4.104   9.659 -0.3751  0.6707  0.0817
   12MOL0     C 1483   4.187   4.066   9.614 -0.7880 -0.3883 -0.3919
   12MOL0     C 1484   4.125   3.955   9.668  0.4773  0.2348 -0.0300
   12MOL0     C 1485   3.998   3.909   9.626 -0.2160  0.2430 -1.0214
   12MOL0     C 1486   3.926   3.977   9.530 -0.2496 -0.6852 -0.9182
   12MOL0     O 1487   3.798   3.946   9.485  0.2621  0.0093 -0.0369
   12MOL0     C 1488   3.702   3.876   9.567  0.1607 -0.0991 -1.3373
   12MOL0     C 1489   3.555   3.888   9.513 -0.5072  0.1904  0.4302
   12MOL0     C 1490   3.444   3.867   9.608  0.4563  0.0891 -0.4377
   12MOL0     C 1491   3.310   3.883   9.543 -0.4701 -1.2085 -0.1136
   12MOL0     C 1492   3.194   3.843   9.640  0.7578 -0.2325 -0.0437
   12MOL0     C 1493   3.055   3.874   9.599  0.4448  0.3100  0.8028
   12MOL0     C 1494   2.957   3.834   9.705  0.1076  1.3962  0.4470
   12MOL0     C 1495   2.827   3.896   9.679 -0.1109  0.0640 -0.0812
   12MOL0    Cl 1496   2.704   3.821   9.787  0.1924  0.2233  0.3859
   12MOL0     C 1497   3.989   4.097   9.490  0.0008 -1.1009 -0.1321
   12MOL0     C 1498   4.118   4.137   9.527 -0.3989 -0.2268  0.1126
   12MOL0     O 1499   4.422   3.964   9.524  0.2913  0.9585  0.0725
   12MOL0     C 1500   4.582   4.214   9.728 -0.1712  0.1625 -0.8597
   12MOL0     C 1501   4.709   4.250   9.768 -0.3742  0.5292 -0.5505
   12MOL0     N 1502   4.985   4.602  10.239  0.2611  0.2900  0.0555
   12MOL0     N 1503   5.058   4.701  10.242  0.2666  0.2175 -0.4354
   12MOL0     C 1504   6.311   4.594   9.952  0.2170  0.1032 -0.3813
   12MOL0     C 1505   6.425   4.602   9.871  0.0911  0.1874 -0.3199
   12MOL0     C 1506   6.786   4.586   9.627 -0.5548  0.7954  0.3965
   12MOL0     C 1507   6.874   4.469   9.639  0.3798  1.1334 -0.1234
   12MOL0     C 1508   7.001   4.457   9.589 -0.2007  0.1752 -0.3015
   12MOL0     C 1509   7.062   4.571   9.549 -0.1192 -0.1773 -0.3989
   12MOL0     O 1510   7.201   4.556   9.522  0.5890 -0.4941 -0.0386
   12MOL0     C 1511   7.252   4.652   9.424 -0.2709  0.7010 -0.6740
   12MOL0     C 1512   7.396   4.623   9.381  0.1988  1.3513  0.1414
   12MOL0     C 1513   7.510   4.706   9.443 -0.0046 -0.5048  0.4822
   12MOL0     C 1514   7.627   4.704   9.349  0.5429 -0.2303  0.2808
   12MOL0     C 1515   7.750   4.762   9.406 -0.0269  0.5566 -0.4722
   12MOL0     C 1516   7.860   4.806   9.444 -0.2933  0.0779 -0.8855
   12MOL0     C 1517   6.992   4.692   9.539  0.0347 -0.0989 -0.3837
   12MOL0     C 1518   6.851   4.698   9.563 -0.2897  0.5556  0.0351
   12MOL0     H 1519   6.522   4.277   9.891 -3.4626 -2.2221 -1.3002
   12MOL0     H 1520   6.320   4.280  10.050 -1.0459  0.4758  0.4931
   12MOL0     H 1521   6.031   4.601  10.000 -0.5997 -1.2227 -0.2954
   12MOL0     H 1522   6.107   4.645  10.153  0.3853 -1.7949  1.2683
   12MOL0     H 1523   5.952   4.472  10.267 -1.1890 -1.5914 -0.5009
   12MOL0     H 1524   5.881   4.431  10.116  1.2465 -0.7157 -0.3222
   12MOL0     H 1525   5.763   4.621  10.101 -2.6351 -2.0970  0.4409
   12MOL0     H 1526   5.869   4.717  10.205 -2.0804  0.7154 -1.8311
   12MOL0     H 1527   5.681   4.504  10.309  1.4606 -0.5287 -0.0504
   12MOL0     H 1528   5.793   4.604  10.416 -0.4616  3.8530  0.1171
   12MOL0     H 1529   5.674   4.800  10.321 -0.8721 -0.5029 -0.7940
   12MOL0     H 1530   5.577   4.700  10.435 -0.8970 -0.3397 -0.0167
   12MOL0     H 1531   5.463   4.584  10.258 -0.6397 -0.6144 -0.7911
   12MOL0     H 1532   5.552   4.691  10.141 -2.2099 -1.3088 -1.5127
   12MOL0     H 1533   5.359   4.792  10.368  1.5847 -3.6907  0.6511
   12MOL0     H 1534   5.442   4.889  10.253  1.4419 -1.1755 -0.2317
   12MOL0     H 1535   5.313   4.741  10.051 -4.5360 -0.8064 -2.4484
   12MOL0     H 1536   5.229   4.857  10.141 -1.5481 -0.7369 -1.6727
   12MOL0     H 1537   5.267   4.467  10.147  1.1010  0.7916  1.4086
   12MOL0     H 1538   4.905   4.331  10.221  0.8267 -1.4863  1.4866
   12MOL0     H 1539   5.062   4.269  10.260  2.2492  0.5285  0.7134
   12MOL0     H 1540   5.145   4.300  10.028  0.4297 -1.5712 -0.2777
   12MOL0     H 1541   4.981   4.372   9.994  1.8175  1.5766 -0.2785
   12MOL0     H 1542   5.024   4.096  10.107  0.8846  0.4689  0.0281
   12MOL0     H 1543   4.874   4.176  10.041 -0.8236 -3.9021 -0.3900
   12MOL0     H 1544   4.962   4.000   9.888  2.7534 -1.4122 -1.2510
   12MOL0     H 1545   5.103   4.096   9.866 -0.5092  2.5280 -3.4225
   12MOL0     H 1546   4.876   3.982   9.674  0.4726  0.4021 -1.1736
   12MOL0     H 1547   4.650   3.918   9.570 -1.9428 -0.9936  0.6172
   12MOL0     H 1548   4.166   3.898   9.751 -1.6154 -0.9369  0.2608
   12MOL0     H 1549   3.952   3.815   9.653 -1.6328  0.6869 -1.7814
   12MOL0     H 1550   3.709   3.930   9.662  2.3007 -0.7436 -1.0757
   12MOL0     H 1551   3.718   3.769   9.578 -1.1624 -0.1207  1.1991
   12MOL0     H 1552   3.544   3.824   9.425 -0.8455  1.0479 -0.1633
   12MOL0     H 1553   3.546   3.992   9.481  0.1362  1.0480  2.8045
   12MOL0     H 1554   3.454   3.937   9.692 -0.4684  0.2253 -0.4346
   12MOL0     H 1555   3.442   3.767   9.652  1.0974  0.9466  1.6536
   12MOL0     H 1556   3.287   3.986   9.515 -0.7219 -1.2151  0.0655
   12MOL0     H 1557   3.293   3.826   9.451 -0.9235  0.9688 -1.4301
   12MOL0     H 1558   3.219   3.892   9.734  0.3501  0.0852 -0.0989
   12MOL0     H 1559   3.194   3.734   9.656 -1.0853 -0.1482  0.8728
   12MOL0     H 1560   3.026   3.826   9.506  0.3710  0.6870  0.6293
   12MOL0     H 1561   3.049   3.979   9.569  0.0960 -0.2564 -1.2737
   12MOL0     H 1562   2.949   3.725   9.712  1.2884  1.1408 -1.5046
   12MOL0     H 1563   2.984   3.855   9.809 -0.8508  0.1241  0.9892
   12MOL0     H 1564   2.800   3.868   9.576  2.0392 -0.2979 -0.5926
   12MOL0     H 1565   2.833   4.004   9.694 -0.7114 -0.1262  1.7313
   12MOL0     H 1566   3.948   4.163   9.415  0.8256 -0.6283 -0.1781
   12MOL0     H 1567   4.170   4.225   9.491  0.6416 -0.4266  1.0516
   12MOL0     H 1568   4.506   4.291   9.734 -0.2118  0.1215 -0.8519
   12MOL0     H 1569   4.729   4.349   9.808 -0.9541  0.1701  0.6858
   12MOL0     H 1570   6.250   4.680   9.978 -0.2336 -0.1786 -0.5154
   12MOL0     H 1571   6.449   4.702   9.835 -1.3287  0.0035 -1.8482
   12MOL0     H 1572   6.827   4.376   9.670  0.8843  0.6116 -0.8788
   12MOL0     H 1573   7.063   4.368   9.596 -1.1245 -0.3897  1.0144
   12MOL0     H 1574   7.251   4.753   9.467  2.4990  3.0094 -5.3096
   12MOL0     H 1575   7.180   4.640   9.342 -1.1580  0.4079  0.1203
   12MOL0     H 1576   7.415   4.515   9.387  0.4395  1.2187 -2.0728
   12MOL0     H 1577   7.396   4.652   9.275  1.6583  0.8511 -0.0207
   12MOL0     H 1578   7.535   4.679   9.546  0.7801  1.5907  0.8959
   12MOL0     H 1579   7.476   4.810   9.449 -2.0561 -1.0887 -0.0544
   12MOL0     H 1580   7.651   4.600   9.326 -0.4004 -0.4193  0.1339
   12MOL0     H 1581   7.600   4.768   9.265  0.4724 -0.1728  0.3472
   12MOL0     H 1582   7.940   4.854   9.498 -0.5623  0.9544 -1.2521
   12MOL0     H 1583   7.039   4.777   9.491  3.0373 -0.1418  2.1575
   12MOL0     H 1584   6.795   4.782   9.525  0.4489  0.7607 -0.6185
   13MOL0     O 1585   2.095   0.156   4.807  0.0968  0.1879 -0.7550
   13MOL0     C 1586   2.064   0.038   4.835  0.2210 -0.3760 -0.5031
   13MOL0     O 1587   2.140  -0.071   4.810 -0.2629 -0.1771 -0.5348
   13MOL0     C 1588   2.256  -0.083   4.743 -0.9797 -0.1517 -0.3178
   13MOL0     C 1589   2.328   0.026   4.684 -0.3927 -0.3968  0.2569
   13MOL0     C 1590   2.456   0.013   4.639 -0.5576 -0.7828  0.4643
   13MOL0     C 1591   2.526  -0.107   4.658  1.3775 -0.6962  0.4436
   13MOL0     O 1592   2.654  -0.124   4.611 -0.1680 -0.3413  0.3339
   13MOL0     C 1593   2.689  -0.066   4.484  0.4853 -0.4274  1.0050
   13MOL0     C 1594   2.819  -0.127   4.431  0.2131 -0.8218 -0.9475
   13MOL0     C 1595   2.951  -0.091   4.501  0.4500  0.5467  0.4559
   13MOL0     C 1596   3.059  -0.162   4.446 -0.1403 -0.8458 -0.2680
   13MOL0     C 1597   3.191  -0.107   4.499  0.1024 -0.2911 -0.0539
   13MOL0     C 1598   3.312  -0.167   4.420 -0.1490  0.1312  0.1341
   13MOL0     C 1599   3.293  -0.136   4.267 -0.3571  0.6313 -0.2179
   13MOL0     C 1600   3.420  -0.144   4.200  0.1927  0.6901  0.8615
   13MOL0     N 1601   3.505  -0.037   4.234 -0.8744 -0.0306  0.6262
   13MOL0     C 1602   3.600  -0.025   4.336  0.0925 -0.2111  0.1799
   13MOL0     C 1603   3.611   0.109   4.363 -0.1212  0.1563 -0.0120
   13MOL0     C 1604   3.702   0.163   4.469 -0.1984  0.6087 -0.2118
   13MOL0     C 1605   3.668   0.305   4.512  0.0726 -0.0690  0.3750
   13MOL0     C 1606   3.735   0.338   4.646 -0.2671 -0.6519 -0.1817
   13MOL0     C 1607   3.886   0.335   4.650 -0.5761  0.4629  0.3739
   13MOL0     O 1608   3.936   0.195   4.666  0.6430 -0.0188 -0.5628
   13MOL0     C 1609   4.069   0.168   4.647  0.8574 -0.0058 -0.4414
   13MOL0     C 1610   4.162   0.265   4.615 -0.1325  0.0673 -0.2082
   13MOL0     C 1611   4.296   0.225   4.592  0.1299 -0.0236 -0.0957
   13MOL0     C 1612   4.334   0.088   4.587  0.2414  0.8827 -0.9751
   13MOL0     C 1613   4.464   0.043   4.544  0.4670  0.1474 -0.9442
   13MOL0     O 1614   4.472  -0.098   4.526  0.3579  0.0495 -0.3947
   13MOL0     C 1615   4.596  -0.142   4.503 -0.5384 -1.3340 -0.6149
   13MOL0     C 1616   4.678  -0.171   4.610  0.0046  0.2747  0.1554
   13MOL0     C 1617   4.809  -0.191   4.583 -0.2196 -0.2007 -0.3576
   13MOL0     C 1618   4.871  -0.189   4.460  0.5861  0.6743  1.0107
   13MOL0     O 1619   4.996  -0.227   4.453 -0.2699 -0.6294  0.7568
   13MOL0     C 1620   5.061  -0.241   4.326  0.3974 -0.1259 -0.3115
   13MOL0     C 1621   5.094  -0.117   4.231 -0.0221 -0.4278 -0.2899
   13MOL0     C 1622   5.184  -0.017   4.298 -0.6403 -0.6422 -1.0116
   13MOL0     C 1623   5.328  -0.067   4.284 -0.6920 -0.2939  0.2108
   13MOL0     C 1624   5.430   0.031   4.352  0.1281 -0.4188  0.5081
   13MOL0     C 1625   5.581  -0.000   4.336 -0.4909 -0.2350 -0.0160
   13MOL0     C 1626   5.606  -0.148   4.360  0.2773 -0.2430 -0.3210
   13MOL0     C 1627   5.753  -0.199   4.346 -0.1221 -0.6129 -0.2218
   13MOL0    Cl 1628   5.859  -0.102   4.443 -0.1573  0.3355 -0.2199
   13MOL0     C 1629   4.781  -0.167   4.353  0.4821  0.6192  1.0914
   13MOL0     C 1630   4.645  -0.142   4.373  0.6648 -0.9019  0.7945
   13MOL0     O 1631   4.555   0.125   4.535  0.5930  0.3032 -0.8493
   13MOL0     C 1632   4.239  -0.009   4.629 -0.5424  0.2081 -0.7006
   13MOL0     C 1633   4.108   0.036   4.659 -0.5214  0.7332  0.5122
   13MOL0     N 1634   3.541   0.183   4.269  1.0620 -0.4196 -0.1561
   13MOL0     N 1635   3.476   0.096   4.201 -0.8046 -0.1326  0.4190
   13MOL0     C 1636   2.459  -0.212   4.721 -0.1869  0.8788  0.6459
   13MOL0     C 1637   2.326  -0.201   4.758 -0.5143 -0.1118  0.4747
   13MOL0     C 1638   1.939   0.014   4.914 -0.1314 -0.0043  0.2858
   13MOL0     C 1639   1.845   0.113   4.935  0.0562 -0.0630  1.1105
   13MOL0     C 1640   1.726   0.093   5.003 -0.6905  0.2136 -0.4452
   13MOL0     C 1641   1.692  -0.029   5.058 -0.4580 -0.5521  0.0059
   13MOL0     O 1642   1.564  -0.044   5.109  0.0566  0.3955  0.1938
   13MOL0     C 1643   1.539  -0.143   5.211 -0.5582 -0.5315  0.4934
   13MOL0     C 1644   1.468  -0.105   5.342  0.1016 -0.1415  0.0910
   13MOL0     C 1645   1.544  -0.021   5.443  0.2731  0.2112 -0.9934
   13MOL0     C 1646   1.470   0.001   5.577 -0.6355  0.2182 -0.0108
   13MOL0     C 1647   1.371   0.106   5.567  0.3076  0.1122  0.1596
   13MOL0     C 1648   1.285   0.192   5.575 -0.3983  0.8902  0.1626
   13MOL0     C 1649   1.776  -0.134   5.030 -0.1437  0.0995 -0.0327
   13MOL0     C 1650   1.905  -0.119   4.967  0.4356 -0.4137  0.5004
   13MOL0     H 1651   2.278   0.122   4.671  1.6965  0.5760 -1.2115
   13MOL0     H 1652   2.497   0.108   4.606  1.1819 -0.4226  3.3359
   13MOL0     H 1653   2.705   0.041   4.498 -1.8360  0.2985 -1.1224
   13MOL0     H 1654   2.610  -0.074   4.410  0.1145  1.4819  1.1461
   13MOL0     H 1655   2.830  -0.108   4.324 -0.9637 -1.8170 -1.2653
   13MOL0     H 1656   2.813  -0.235   4.441  0.9498 -1.0007 -2.2138
   13MOL0     H 1657   2.944  -0.115   4.608  0.9529  1.3225  0.6758
   13MOL0     H 1658   2.965   0.016   4.484  3.4724  0.1985  0.2788
   13MOL0     H 1659   3.046  -0.264   4.484  0.5536 -1.1562 -0.8373
   13MOL0     H 1660   3.064  -0.163   4.336  1.1860 -0.5396 -0.2253
   13MOL0     H 1661   3.200  -0.129   4.606 -1.2161  0.7329  0.2920
   13MOL0     H 1662   3.199  -0.001   4.472  0.6058 -0.9412 -2.8209
   13MOL0     H 1663   3.304  -0.272   4.448 -0.3793  0.0895 -0.0854
   13MOL0     H 1664   3.401  -0.119   4.462  0.4931  1.3576 -2.3723
   13MOL0     H 1665   3.222  -0.203   4.219 -1.1093  0.8352  0.5910
   13MOL0     H 1666   3.245  -0.037   4.261  1.5126  1.5470 -1.0044
   13MOL0     H 1667   3.404  -0.139   4.092  0.8624  2.8006  0.8090
   13MOL0     H 1668   3.467  -0.238   4.231  1.9498  2.0533  2.5935
   13MOL0     H 1669   3.656  -0.103   4.387 -0.1786 -0.5917 -0.1059
   13MOL0     H 1670   3.800   0.155   4.420  0.5518  0.0996  1.3100
   13MOL0     H 1671   3.693   0.102   4.559 -0.7003  2.4667  1.0477
   13MOL0     H 1672   3.560   0.318   4.525 -0.4777 -0.5031 -2.9189
   13MOL0     H 1673   3.706   0.377   4.440 -0.3747  0.1204  0.3228
   13MOL0     H 1674   3.710   0.444   4.655 -0.4325 -0.6583 -0.5342
   13MOL0     H 1675   3.693   0.285   4.732 -0.8590 -1.1025 -0.7379
   13MOL0     H 1676   3.938   0.405   4.716  1.4154  0.3682 -1.0015
   13MOL0     H 1677   3.916   0.376   4.553 -0.1407 -0.7808 -0.0506
   13MOL0     H 1678   4.142   0.372   4.610  2.1048  0.5388 -0.3139
   13MOL0     H 1679   4.365   0.306   4.571 -0.1634  0.1657 -0.3304
   13MOL0     H 1680   4.634  -0.159   4.708 -1.4986 -1.0811 -0.3167
   13MOL0     H 1681   4.867  -0.223   4.669 -2.5716  0.1616  1.4634
   13MOL0     H 1682   5.013  -0.322   4.270 -0.0991 -0.8900  1.1707
   13MOL0     H 1683   5.158  -0.274   4.364 -0.0088 -1.3548 -0.3238
   13MOL0     H 1684   5.001  -0.070   4.196  0.3094  1.4605  1.1853
   13MOL0     H 1685   5.138  -0.150   4.136  0.5362 -2.9163  0.7541
   13MOL0     H 1686   5.152  -0.007   4.402  1.1433  0.7229 -0.5375
   13MOL0     H 1687   5.185   0.087   4.265 -0.8037  1.0298  3.5283
   13MOL0     H 1688   5.343  -0.165   4.330 -0.7192 -0.7095 -0.6418
   13MOL0     H 1689   5.341  -0.081   4.176 -2.0210 -1.4483  0.1826
   13MOL0     H 1690   5.411   0.028   4.460 -1.2231  1.3477  0.3614
   13MOL0     H 1691   5.413   0.131   4.312  0.8167 -1.1017 -1.6007
   13MOL0     H 1692   5.644   0.056   4.406  1.7672 -2.2828 -0.2548
   13MOL0     H 1693   5.623   0.034   4.241 -0.3611  0.7943  0.3943
   13MOL0     H 1694   5.570  -0.158   4.463 -1.2502  2.0334 -0.5777
   13MOL0     H 1695   5.545  -0.208   4.292 -2.5671 -0.0655  1.9087
   13MOL0     H 1696   5.790  -0.170   4.248  1.8955  1.3045  1.0148
   13MOL0     H 1697   5.765  -0.306   4.364  1.2122 -0.6176 -1.0291
   13MOL0     H 1698   4.812  -0.151   4.250 -3.2873  5.8237  0.3274
   13MOL0     H 1699   4.584  -0.113   4.288  0.7973 -1.3619  0.5394
   13MOL0     H 1700   4.256  -0.116   4.625  1.2963  0.4478 -0.3043
   13MOL0     H 1701   4.023  -0.025   4.688 -2.2440  1.7798 -1.9551
   13MOL0     H 1702   2.519  -0.301   4.737  0.1627  0.4380 -2.4166
   13MOL0     H 1703   2.271  -0.281   4.807 -0.3376  0.5769  1.8315
   13MOL0     H 1704   1.840   0.215   4.899 -1.9205  0.1072  1.7373
   13MOL0     H 1705   1.651   0.171   5.012 -1.6943 -0.8720  1.1182
   13MOL0     H 1706   1.629  -0.200   5.237 -1.6367 -2.9921 -0.8218
   13MOL0     H 1707   1.476  -0.221   5.168 -0.0974 -0.1876 -0.8600
   13MOL0     H 1708   1.376  -0.052   5.313 -0.0255 -0.0128  0.7218
   13MOL0     H 1709   1.437  -0.193   5.400 -1.7489  1.5387  1.8059
   13MOL0     H 1710   1.569   0.078   5.401  0.1299  0.6700 -0.0107
   13MOL0     H 1711   1.642  -0.060   5.472  0.5628  0.3707 -1.7275
   13MOL0     H 1712   1.421  -0.094   5.601  0.9317 -0.8292 -0.8005
   13MOL0     H 1713   1.541   0.029   5.655 -3.9170  4.2643  1.9120
   13MOL0     H 1714   1.206   0.263   5.586  0.3628  2.2770 -2.5394
   13MOL0     H 1715   1.749  -0.232   5.066 -1.3428 -0.0347 -1.2143
   13MOL0     H 1716   1.964  -0.206   4.939 -1.0749 -0.3974 -3.4171
   14MOL0     O 1717   2.575   1.358   1.712 -0.7895  0.3448  0.5795
   14MOL0     C 1718   2.609   1.236   1.704  0.2342 -0.3913  0.2842
   14MOL0     O 1719   2.519   1.132   1.660 -0.5104  0.1483 -0.0803
   14MOL0     C 1720   2.391   1.151   1.599 -0.4890  0.5640 -0.8067
   14MOL0     C 1721   2.307   1.045   1.617  0.0675  1.0672 -1.1745
   14MOL0     C 1722   2.190   1.043   1.541 -0.9850  0.4095  0.0460
   14MOL0     C 1723   2.136   1.154   1.468 -1.0358  0.1677  0.1482
   14MOL0     O 1724   2.022   1.149   1.396 -0.4817  0.0384 -0.7199
   14MOL0     C 1725   1.913   1.060   1.442  0.4904  0.0270 -0.4489
   14MOL0     C 1726   1.775   1.106   1.392  0.0958 -0.0116 -0.2737
   14MOL0     C 1727   1.667   0.991   1.401  0.0888 -0.4147 -0.6341
   14MOL0     C 1728   1.525   1.049   1.380 -0.0998  0.4536 -0.3266
   14MOL0     C 1729   1.398   0.956   1.395 -0.0696 -0.4324 -0.0989
   14MOL0     C 1730   1.274   1.025   1.340 -0.5613  0.2232 -0.0752
   14MOL0     C 1731   1.151   0.934   1.332 -0.6151  0.7959  0.5987
   14MOL0     C 1732   1.119   0.867   1.465 -0.3520  0.3082  0.4600
   14MOL0     N 1733   0.999   0.773   1.460 -0.4107  0.3312 -1.0072
   14MOL0     C 1734   0.863   0.817   1.464 -0.8696 -0.2169 -0.3704
   14MOL0     C 1735   0.795   0.698   1.434 -0.0463  0.6190 -0.3300
   14MOL0     C 1736   0.645   0.686   1.424  0.0980 -0.0939  0.7005
   14MOL0     C 1737   0.598   0.549   1.475 -0.0231  0.3892  0.1703
   14MOL0     C 1738   0.612   0.543   1.625  0.4920  0.0529  0.5955
   14MOL0     C 1739   0.559   0.412   1.678 -0.4953  0.0593 -0.2839
   14MOL0     O 1740   0.423   0.419   1.718  0.1861 -0.0631  0.2007
   14MOL0     C 1741   0.344   0.304   1.723  0.1322 -0.2307 -0.3319
   14MOL0     C 1742   0.220   0.321   1.771  0.0231 -0.4449  0.6287
   14MOL0     C 1743   0.122   0.224   1.767  0.1962  0.5491  0.1486
   14MOL0     C 1744   0.150   0.089   1.737  0.0192  0.3190  0.2412
   14MOL0     C 1745   0.049  -0.015   1.749 -0.3668 -0.2487  1.2173
   14MOL0     O 1746  -0.063   0.018   1.803 -0.0550  0.8901  0.4733
   14MOL0     C 1747  -0.154  -0.082   1.820  0.6306 -0.9720  0.4897
   14MOL0     C 1748  -0.210  -0.106   1.951  0.4000  0.2019  0.6835
   14MOL0     C 1749  -0.319  -0.199   1.957 -0.1561 -0.1310  0.9481
   14MOL0     C 1750  -0.360  -0.269   1.842  0.0703  0.0058  0.2833
   14MOL0     O 1751  -0.462  -0.357   1.849  0.2695 -0.9834 -0.0420
   14MOL0     C 1752  -0.573  -0.313   1.940 -0.6068  0.2832  0.7499
   14MOL0     C 1753  -0.709  -0.384   1.907 -0.7218 -0.5857  0.2876
   14MOL0     C 1754  -0.731  -0.357   1.763 -0.3060 -0.2320  0.5628
   14MOL0     C 1755  -0.874  -0.401   1.728  0.2625 -0.0877 -0.0082
   14MOL0     C 1756  -0.911  -0.381   1.575 -0.4830  0.1939  0.0786
   14MOL0     C 1757  -0.856  -0.501   1.492  0.3619  0.6922  0.6052
   14MOL0     C 1758  -0.922  -0.525   1.354 -0.3904  0.4490 -0.3000
   14MOL0     C 1759  -1.077  -0.510   1.339 -0.2906  0.8353  0.4761
   14MOL0    Cl 1760  -1.160  -0.624   1.440 -0.6590  0.2213  0.4625
   14MOL0     C 1761  -0.282  -0.257   1.724 -1.1529 -0.3249 -0.2365
   14MOL0     C 1762  -0.190  -0.158   1.711 -1.3199  0.5718 -0.6210
   14MOL0     O 1763   0.085  -0.130   1.725  0.9741  0.0310 -0.5722
   14MOL0     C 1764   0.284   0.070   1.705  0.3596  0.1337  0.0352
   14MOL0     C 1765   0.382   0.175   1.700  0.5567 -0.0436 -0.4550
   14MOL0     N 1766   0.883   0.591   1.410  0.5438 -0.1840  0.8704
   14MOL0     N 1767   1.002   0.637   1.432  0.2223  0.0791  0.2511
   14MOL0     C 1768   2.223   1.265   1.460  0.1078  0.6166 -1.0719
   14MOL0     C 1769   2.348   1.258   1.525  0.7997 -0.0837 -0.4010
   14MOL0     C 1770   2.749   1.205   1.734  0.9353  0.7743  0.7015
   14MOL0     C 1771   2.792   1.071   1.733 -0.0638  0.2968 -0.4225
   14MOL0     C 1772   2.914   1.041   1.788 -0.8701 -0.2145 -0.0596
   14MOL0     C 1773   3.007   1.140   1.825 -0.5413  0.2581  0.3459
   14MOL0     O 1774   3.121   1.093   1.883  0.4177 -0.0579  0.0111
   14MOL0     C 1775   3.211   1.171   1.965  0.9639 -0.5333  0.4117
   14MOL0     C 1776   3.158   1.154   2.115 -0.2926  0.1914  0.3974
   14MOL0     C 1777   3.236   1.244   2.215 -0.0533  0.3360 -1.2214
   14MOL0     C 1778   3.222   1.198   2.358  0.5371  0.5979 -0.2731
   14MOL0     C 1779   3.087   1.227   2.407  0.0782 -0.4118  0.4142
   14MOL0     C 1780   2.976   1.257   2.449  0.0408 -0.5774  0.4236
   14MOL0     C 1781   2.973   1.272   1.809 -0.1877  0.1179  1.1094
   14MOL0     C 1782   2.846   1.298   1.755 -0.2508 -0.3955 -0.7356
   14MOL0     H 1783   2.343   0.964   1.680 -0.0128  3.5254  2.3067
   14MOL0     H 1784   2.122   0.958   1.538  1.1311 -1.5053  2.2182
   14MOL0     H 1785   1.907   1.065   1.551 -1.7830 -0.2565 -0.4984
   14MOL0     H 1786   1.933   0.960   1.401 -0.8550 -0.8869  1.0081
   14MOL0     H 1787   1.778   1.151   1.293  0.7046 -0.3043 -0.3991
   14MOL0     H 1788   1.747   1.188   1.459  2.4096  0.8536 -0.2715
   14MOL0     H 1789   1.677   0.942   1.497  1.5625  2.3023  0.7333
   14MOL0     H 1790   1.666   0.913   1.324  1.1027 -0.9835 -0.0809
   14MOL0     H 1791   1.518   1.128   1.455 -0.0467 -2.3591  2.8883
   14MOL0     H 1792   1.519   1.100   1.283  0.3196 -0.0608 -0.6287
   14MOL0     H 1793   1.384   0.918   1.497 -0.1284 -3.5942 -1.1693
   14MOL0     H 1794   1.407   0.865   1.336  3.6924 -1.2761  1.4968
   14MOL0     H 1795   1.288   1.044   1.233 -0.4934 -2.3623 -0.5935
   14MOL0     H 1796   1.258   1.113   1.402 -0.9568 -2.0601  3.3568
   14MOL0     H 1797   1.074   1.004   1.300 -0.0490  1.5783  0.9131
   14MOL0     H 1798   1.169   0.861   1.253  2.1562  3.0389 -1.0613
   14MOL0     H 1799   1.122   0.945   1.542  2.0680 -0.5017  1.2966
   14MOL0     H 1800   1.208   0.808   1.490  1.3002  2.8345  0.9038
   14MOL0     H 1801   0.830   0.920   1.471 -0.6568  0.1601 -3.4585
   14MOL0     H 1802   0.615   0.695   1.319  1.2718 -2.2765  0.1076
   14MOL0     H 1803   0.595   0.771   1.473 -0.0927  0.5696 -0.5854
   14MOL0     H 1804   0.647   0.463   1.429  0.2370  0.6628 -0.0725
   14MOL0     H 1805   0.492   0.552   1.445 -0.1922  1.0812  0.7973
   14MOL0     H 1806   0.719   0.552   1.649  0.9200 -0.9042 -0.8680
   14MOL0     H 1807   0.562   0.632   1.666 -0.1961  0.9364 -2.0036
   14MOL0     H 1808   0.616   0.381   1.766 -0.2019 -2.8697 -1.3899
   14MOL0     H 1809   0.563   0.337   1.599 -0.2480  0.5361 -0.7318
   14MOL0     H 1810   0.198   0.422   1.804  1.2877 -0.1444  0.5860
   14MOL0     H 1811   0.021   0.251   1.794  0.7212  1.6517  1.0785
   14MOL0     H 1812  -0.194  -0.036   2.032 -1.4354  3.6604 -1.6841
   14MOL0     H 1813  -0.366  -0.213   2.054 -2.9406  1.1219 -0.1207
   14MOL0     H 1814  -0.589  -0.205   1.930 -2.3927  0.0776  1.1463
   14MOL0     H 1815  -0.549  -0.341   2.043  2.7326  0.9078  0.2444
   14MOL0     H 1816  -0.790  -0.340   1.966 -0.7214  4.5962 -2.9222
   14MOL0     H 1817  -0.694  -0.490   1.930  1.0474 -0.1312  1.4956
   14MOL0     H 1818  -0.658  -0.417   1.707  2.4124  4.0108 -0.8629
   14MOL0     H 1819  -0.705  -0.252   1.747  3.2506 -0.7832  1.8148
   14MOL0     H 1820  -0.887  -0.505   1.759  0.6086 -1.0657 -2.8076
   14MOL0     H 1821  -0.942  -0.333   1.780  1.9694  0.7042  1.2531
   14MOL0     H 1822  -0.882  -0.283   1.538 -0.5384 -0.0026 -0.4937
   14MOL0     H 1823  -1.019  -0.394   1.567 -1.5886  6.1296  1.1189
   14MOL0     H 1824  -0.870  -0.588   1.557 -1.2494  1.8097  1.8295
   14MOL0     H 1825  -0.749  -0.485   1.477  0.8270 -0.8600  1.9386
   14MOL0     H 1826  -0.881  -0.462   1.274  0.9486  0.2909  0.2336
   14MOL0     H 1827  -0.893  -0.628   1.332  0.3371  0.5985 -0.0619
   14MOL0     H 1828  -1.106  -0.537   1.237  0.9544 -3.8215  1.1281
   14MOL0     H 1829  -1.111  -0.410   1.367  1.1451  1.2075  0.9942
   14MOL0     H 1830  -0.311  -0.310   1.633  0.9269 -0.9961 -0.5516
   14MOL0     H 1831  -0.135  -0.140   1.620  1.2319  3.1400  1.2625
   14MOL0     H 1832   0.325  -0.030   1.689 -1.1520 -0.2048 -2.2428
   14MOL0     H 1833   0.487   0.158   1.678  0.8772  0.7107  0.4083
   14MOL0     H 1834   2.191   1.363   1.424  0.7962  1.8619  1.4174
   14MOL0     H 1835   2.411   1.346   1.516 -0.5524  0.7403 -4.4222
   14MOL0     H 1836   2.727   0.992   1.696  1.4079 -0.6313 -1.1237
   14MOL0     H 1837   2.949   0.939   1.801 -0.2536  0.1966  1.8253
   14MOL0     H 1838   3.210   1.275   1.929  0.6479 -1.4230 -2.4150
   14MOL0     H 1839   3.312   1.133   1.944  1.1070  1.1363 -2.5262
   14MOL0     H 1840   3.054   1.187   2.113  1.1762  5.9427 -2.5861
   14MOL0     H 1841   3.184   1.051   2.142  0.1195 -0.9233 -3.6033
   14MOL0     H 1842   3.212   1.350   2.206  0.1790  0.4540 -0.5425
   14MOL0     H 1843   3.339   1.228   2.181 -0.1998 -2.9901 -0.4441
   14MOL0     H 1844   3.246   1.092   2.373 -2.0310  0.2455  1.9321
   14MOL0     H 1845   3.301   1.240   2.421  0.8845 -0.9674  0.4094
   14MOL0     H 1846   2.879   1.287   2.484 -0.2656 -0.0177 -0.8374
   14MOL0     H 1847   3.026   1.365   1.832 -2.7466  1.9637  0.0008
   14MOL0     H 1848   2.819   1.403   1.754 -1.4268 -0.4042  4.2024
   15MOL0     O 1849   4.478   6.702   4.411 -0.8970 -0.2614 -0.3920
   15MOL0     C 1850   4.553   6.797   4.382 -0.0760  0.9680  0.0608
   15MOL0     O 1851   4.539   6.919   4.412  0.5739  0.3385 -0.1170
   15MOL0     C 1852   4.417   6.963   4.463  0.6693 -0.3048  0.2690
   15MOL0     C 1853   4.417   7.082   4.543  0.1398  0.4857 -0.2524
   15MOL0     C 1854   4.309   7.148   4.595  0.0065  0.9444 -0.0612
   15MOL0     C 1855   4.190   7.080   4.582  0.2940 -0.2603  0.5110
   15MOL0     O 1856   4.084   7.130   4.656 -0.3934  0.3682 -0.2771
   15MOL0     C 1857   4.041   7.037   4.751  0.4137 -0.1464 -0.1871
   15MOL0     C 1858   3.938   7.107   4.842 -0.3043  0.2226 -0.2968
   15MOL0     C 1859   3.817   7.157   4.769 -0.4247  0.1363 -0.9522
   15MOL0     C 1860   3.752   7.267   4.851 -0.1826  0.5635 -0.2740
   15MOL0     C 1861   3.614   7.311   4.780  0.1217  0.7693  0.3204
   15MOL0     C 1862   3.491   7.223   4.802  0.8678  0.2971  0.3221
   15MOL0     C 1863   3.367   7.308   4.767 -0.5393 -0.3002 -0.0396
   15MOL0     C 1864   3.233   7.233   4.767  0.4762 -0.2536  0.2946
   15MOL0     N 1865   3.131   7.325   4.744 -0.0687  0.0050 -0.1130
   15MOL0     C 1866   3.099   7.439   4.815 -0.1054  0.0319 -0.2959
   15MOL0     C 1867   3.007   7.509   4.741  0.7151 -0.2363  0.5513
   15MOL0     C 1868   2.918   7.630   4.765  1.1397 -0.6081  0.1017
   15MOL0     C 1869   2.776   7.590   4.798  0.0942  0.4282 -0.7793
   15MOL0     C 1870   2.683   7.711   4.813 -0.3097 -0.1288  0.0837
   15MOL0     C 1871   2.541   7.676   4.855  0.9164 -0.1386  0.1038
   15MOL0     O 1872   2.466   7.580   4.770  0.1523  0.2792  0.0636
   15MOL0     C 1873   2.327   7.591   4.768 -0.8858  0.7319 -0.1804
   15MOL0     C 1874   2.253   7.678   4.847  0.4688  0.0599 -0.0765
   15MOL0     C 1875   2.115   7.651   4.863  0.4348  0.4904 -0.6508
   15MOL0     C 1876   2.054   7.551   4.785 -0.5555 -0.3217 -0.6235
   15MOL0     C 1877   1.912   7.530   4.788  0.3167 -0.1870 -0.3312
   15MOL0     O 1878   1.843   7.547   4.906  0.7078 -0.2728  0.4240
   15MOL0     C 1879   1.709   7.514   4.927 -0.7061 -0.1920  0.3542
   15MOL0     C 1880   1.617   7.470   4.836  0.1968 -0.0089  0.0863
   15MOL0     C 1881   1.478   7.467   4.868 -0.1213 -0.1333 -0.4019
   15MOL0     C 1882   1.447   7.482   5.004  0.5824  0.8008 -0.4266
   15MOL0     O 1883   1.320   7.460   5.044 -0.5721  0.3549 -0.5694
   15MOL0     C 1884   1.264   7.567   5.133  0.8612  0.7684 -0.1057
   15MOL0     C 1885   1.177   7.480   5.232 -0.0954 -0.0713  0.2601
   15MOL0     C 1886   1.122   7.570   5.336 -0.2004 -0.3756 -0.2460
   15MOL0     C 1887   1.058   7.475   5.445 -0.6266  0.1929 -1.0678
   15MOL0     C 1888   0.973   7.558   5.542  1.2594  0.1208  0.1738
   15MOL0     C 1889   1.063   7.666   5.608  0.1778 -0.0493  0.2789
   15MOL0     C 1890   0.988   7.763   5.711  0.1234 -0.5758  0.8310
   15MOL0     C 1891   0.889   7.688   5.797  0.0872 -0.6831 -1.1716
   15MOL0    Cl 1892   0.851   7.791   5.943 -0.3553  0.0241  0.5186
   15MOL0     C 1893   1.539   7.503   5.100  0.1353  0.1854 -0.4350
   15MOL0     C 1894   1.674   7.523   5.065  0.3924 -0.0019 -0.9211
   15MOL0     O 1895   1.862   7.494   4.683  0.0221  0.0847  0.5072
   15MOL0     C 1896   2.135   7.468   4.692 -0.1604  0.4049  0.0814
   15MOL0     C 1897   2.270   7.499   4.684  0.7323  0.3413  0.1544
   15MOL0     N 1898   3.002   7.444   4.620 -0.5217 -0.1746  0.5946
   15MOL0     N 1899   3.066   7.331   4.624 -0.3519  0.3798 -1.2789
   15MOL0     C 1900   4.179   6.967   4.500  0.3526  0.5729  0.0851
   15MOL0     C 1901   4.292   6.914   4.437  0.8305 -0.2582 -0.7132
   15MOL0     C 1902   4.668   6.768   4.296 -0.1189  0.7019  0.0843
   15MOL0     C 1903   4.705   6.635   4.262  0.1796 -0.4107  0.0796
   15MOL0     C 1904   4.819   6.609   4.176 -0.0281  0.1029 -0.3066
   15MOL0     C 1905   4.879   6.720   4.109  0.0512  0.6605 -1.0036
   15MOL0     O 1906   4.987   6.711   4.028  0.7632 -0.6409  0.0794
   15MOL0     C 1907   5.006   6.578   3.977  0.0061  0.7194 -0.3022
   15MOL0     C 1908   5.073   6.581   3.847  0.1125  0.0439  0.3584
   15MOL0     C 1909   5.203   6.658   3.847  0.1008 -0.7377  0.5096
   15MOL0     C 1910   5.309   6.591   3.939 -0.1792 -0.8504  0.8047
   15MOL0     C 1911   5.435   6.668   3.912  0.1767  0.2323 -0.2251
   15MOL0     C 1912   5.546   6.725   3.887 -0.9927 -0.1888  0.9256
   15MOL0     C 1913   4.826   6.850   4.132 -0.1553 -0.0823  0.4862
   15MOL0     C 1914   4.721   6.873   4.220 -0.2955 -0.4996  0.0096
   15MOL0     H 1915   4.516   7.122   4.565  1.2126 -3.5149  3.6734
   15MOL0     H 1916   4.312   7.239   4.655 -2.5886  0.7108  0.5874
   15MOL0     H 1917   4.125   6.995   4.808  0.6335 -0.2558 -0.5886
   15MOL0     H 1918   3.980   6.961   4.702 -2.5531  0.5995  2.0761
   15MOL0     H 1919   3.997   7.183   4.895  0.4228  0.2330 -1.0963
   15MOL0     H 1920   3.903   7.047   4.927 -0.9222  1.7808  0.5887
   15MOL0     H 1921   3.750   7.073   4.747  0.5533 -0.5952 -1.2197
   15MOL0     H 1922   3.852   7.208   4.679  0.2743  1.2705 -0.0688
   15MOL0     H 1923   3.737   7.230   4.953  2.2596 -1.7219 -0.6423
   15MOL0     H 1924   3.822   7.351   4.849 -0.0041  0.4331  0.3890
   15MOL0     H 1925   3.627   7.328   4.673  0.8762  0.8608  0.4230
   15MOL0     H 1926   3.577   7.401   4.828 -2.0182 -0.7033  1.6310
   15MOL0     H 1927   3.478   7.170   4.897 -2.6373  2.4379  1.2444
   15MOL0     H 1928   3.494   7.144   4.726 -1.6456 -0.7711  1.2140
   15MOL0     H 1929   3.358   7.384   4.845  1.0719 -2.3110  2.2910
   15MOL0     H 1930   3.382   7.357   4.671 -2.0481 -2.3960 -1.4277
   15MOL0     H 1931   3.210   7.198   4.868 -2.0589 -1.0112 -0.4737
   15MOL0     H 1932   3.231   7.150   4.697 -0.8516 -1.0413  1.2364
   15MOL0     H 1933   3.137   7.458   4.915 -1.4072 -2.5850  0.7888
   15MOL0     H 1934   2.936   7.698   4.682  2.4622  0.6845  1.3886
   15MOL0     H 1935   2.963   7.672   4.856 -0.0224 -1.2034  0.9863
   15MOL0     H 1936   2.787   7.529   4.888 -1.2752 -1.4123 -1.7960
   15MOL0     H 1937   2.744   7.520   4.721 -0.2593 -1.4622  0.9806
   15MOL0     H 1938   2.730   7.790   4.872  0.5029  1.6387 -2.7403
   15MOL0     H 1939   2.681   7.745   4.709  0.0666 -1.8637 -0.5246
   15MOL0     H 1940   2.488   7.770   4.868  0.3044 -0.3839 -0.5431
   15MOL0     H 1941   2.547   7.633   4.955 -1.1237 -1.4123 -0.2765
   15MOL0     H 1942   2.287   7.754   4.917  1.4528  0.2929 -0.7721
   15MOL0     H 1943   2.045   7.716   4.914 -1.7656 -0.6098 -2.1328
   15MOL0     H 1944   1.641   7.430   4.738  2.8318 -2.9878  1.7472
   15MOL0     H 1945   1.390   7.445   4.808 -0.8801 -1.1917  1.0198
   15MOL0     H 1946   1.191   7.628   5.079  0.4024 -1.9901 -2.9215
   15MOL0     H 1947   1.343   7.611   5.195 -0.8729 -1.2221  3.9066
   15MOL0     H 1948   1.240   7.407   5.284  0.4851 -1.4175 -2.1941
   15MOL0     H 1949   1.107   7.439   5.158 -0.4764  3.2282 -1.4099
   15MOL0     H 1950   1.050   7.645   5.302  0.0342 -0.4226 -0.8558
   15MOL0     H 1951   1.203   7.630   5.378 -0.0279  1.7300 -3.3161
   15MOL0     H 1952   0.998   7.393   5.404 -5.2748  1.9609  1.3823
   15MOL0     H 1953   1.136   7.433   5.509  1.3766  2.9486 -1.5525
   15MOL0     H 1954   0.925   7.503   5.623  2.4617  1.5724  1.9602
   15MOL0     H 1955   0.897   7.604   5.478 -1.6381 -2.2512  1.6620
   15MOL0     H 1956   1.109   7.733   5.534  0.6200 -0.0735  0.5296
   15MOL0     H 1957   1.149   7.621   5.657 -0.8119  0.6071  2.7719
   15MOL0     H 1958   1.060   7.810   5.779  1.7771 -1.5894 -0.1497
   15MOL0     H 1959   0.927   7.840   5.665  0.4094  0.5992  2.3462
   15MOL0     H 1960   0.922   7.594   5.842 -0.0009  0.3124  1.1157
   15MOL0     H 1961   0.797   7.663   5.743 -1.3980 -0.9381  1.2704
   15MOL0     H 1962   1.509   7.498   5.204 -0.0707 -0.7876 -0.5317
   15MOL0     H 1963   1.753   7.536   5.138 -1.5525  0.4901  1.2260
   15MOL0     H 1964   2.095   7.387   4.632 -2.3371  1.2385  0.3264
   15MOL0     H 1965   2.331   7.435   4.621 -1.7787 -1.5132 -0.5859
   15MOL0     H 1966   4.083   6.919   4.480  0.6575 -0.3442  0.7663
   15MOL0     H 1967   4.291   6.823   4.378  0.5940  0.3585 -1.6778
   15MOL0     H 1968   4.655   6.544   4.296  0.0203  0.2445  1.6969
   15MOL0     H 1969   4.844   6.504   4.162 -1.0131 -0.1245 -0.4494
   15MOL0     H 1970   4.911   6.530   3.950 -0.4573  2.7236 -2.5224
   15MOL0     H 1971   5.069   6.524   4.049  1.7942  4.3850  1.1379
   15MOL0     H 1972   5.087   6.480   3.806 -1.4502 -0.7504  1.6620
   15MOL0     H 1973   5.006   6.628   3.774 -2.3501  0.0724  2.4920
   15MOL0     H 1974   5.189   6.759   3.887  3.9454 -0.4017  1.4173
   15MOL0     H 1975   5.244   6.664   3.745 -0.2097  0.1437  0.4291
   15MOL0     H 1976   5.282   6.584   4.045 -0.5056  2.0327  1.0068
   15MOL0     H 1977   5.313   6.492   3.893  1.1218  0.6553 -2.7014
   15MOL0     H 1978   5.643   6.769   3.872  0.1918 -2.4209  1.6029
   15MOL0     H 1979   4.874   6.928   4.074  1.3473 -1.2354  0.1207
   15MOL0     H 1980   4.675   6.970   4.232 -0.8838 -0.7467 -0.1713
   16MOL0     O 1981   8.244  10.887   1.160 -0.1701  0.3048 -0.7941
   16MOL0     C 1982   8.293  10.787   1.207 -0.1467 -0.0234  0.8106
   16MOL0     O 1983   8.221  10.681   1.240  0.2294  0.3182 -0.0031
   16MOL0     C 1984   8.082  10.686   1.225  0.2051 -1.0932 -0.1410
   16MOL0     C 1985   8.002  10.768   1.304 -0.8132 -0.1553 -0.5122
   16MOL0     C 1986   7.866  10.753   1.310 -0.6496  0.0524  0.5995
   16MOL0     C 1987   7.807  10.665   1.219  0.0222  0.1792  1.0859
   16MOL0     O 1988   7.677  10.634   1.213 -0.6013  0.3184  0.0361
   16MOL0     C 1989   7.569  10.728   1.239  0.1658  0.3919 -0.1338
   16MOL0     C 1990   7.449  10.644   1.278  0.3602  0.5044  0.1438
   16MOL0     C 1991   7.322  10.731   1.302  0.5220 -0.1931  0.0523
   16MOL0     C 1992   7.290  10.796   1.165 -0.0015 -0.2607 -0.5263
   16MOL0     C 1993   7.140  10.836   1.155 -0.0305 -0.2229 -0.8376
   16MOL0     C 1994   7.122  10.950   1.252 -0.0653  0.5246  0.4584
   16MOL0     C 1995   6.985  11.013   1.241  0.0344 -0.3234  0.7335
   16MOL0     C 1996   6.977  11.133   1.338 -0.3852  0.5606 -0.5270
   16MOL0     N 1997   6.838  11.170   1.359  0.8059 -0.1560  0.2883
   16MOL0     C 1998   6.752  11.217   1.263  0.4799 -0.4527 -0.5681
   16MOL0     C 1999   6.636  11.239   1.320 -0.3740  0.2517 -1.5309
   16MOL0     C 2000   6.514  11.291   1.250  0.1087  0.6056  0.1068
   16MOL0     C 2001   6.378  11.280   1.324 -0.2308  0.5104  0.6389
   16MOL0     C 2002   6.265  11.351   1.244  0.1539  0.3172 -0.2253
   16MOL0     C 2003   6.142  11.359   1.335  1.1367  0.1442  0.5187
   16MOL0     O 2004   6.023  11.379   1.251  0.4597  0.5424  0.1468
   16MOL0     C 2005   5.910  11.415   1.313  0.5059 -0.2261 -0.2867
   16MOL0     C 2006   5.800  11.426   1.233 -0.1595 -0.6778  0.9600
   16MOL0     C 2007   5.678  11.478   1.283 -0.1235  0.2018 -0.9346
   16MOL0     C 2008   5.671  11.529   1.418  0.7951  0.6272 -1.1520
   16MOL0     C 2009   5.553  11.602   1.458  0.2610  0.0212 -0.2770
   16MOL0     O 2010   5.436  11.570   1.390  0.1657 -0.1380 -0.1238
   16MOL0     C 2011   5.322  11.650   1.397  0.0916  0.1183  0.1500
   16MOL0     C 2012   5.312  11.792   1.424  0.4653  0.2426 -0.6915
   16MOL0     C 2013   5.189  11.864   1.440  1.8790  0.3109 -0.4233
   16MOL0     C 2014   5.076  11.801   1.394  0.4220  0.9642  0.2832
   16MOL0     O 2015   4.947  11.851   1.386 -0.5202 -0.4217  0.1247
   16MOL0     C 2016   4.912  11.933   1.503  0.3085 -0.4912 -0.3409
   16MOL0     C 2017   4.765  11.941   1.525 -0.5287 -0.3127 -0.0512
   16MOL0     C 2018   4.711  11.831   1.632  0.0709  0.1549 -0.5523
   16MOL0     C 2019   4.562  11.855   1.661  0.4447  0.2114 -0.8585
   16MOL0     C 2020   4.526  11.736   1.755 -0.2094 -0.7241 -0.7024
   16MOL0     C 2021   4.379  11.753   1.814  1.1571  0.1453 -0.0751
   16MOL0     C 2022   4.334  11.642   1.918 -0.7797 -0.5731  0.8508
   16MOL0     C 2023   4.185  11.643   1.950  0.0168 -0.7213 -0.3238
   16MOL0    Cl 2024   4.136  11.510   2.060  0.2104  0.4794 -0.3276
   16MOL0     C 2025   5.086  11.670   1.343  0.1949 -0.0028  0.5731
   16MOL0     C 2026   5.203  11.595   1.349  0.4558 -0.4558 -1.1478
   16MOL0     O 2027   5.567  11.681   1.551  0.5007 -0.2002  0.3005
   16MOL0     C 2028   5.783  11.519   1.497 -0.9138  0.9172  0.2561
   16MOL0     C 2029   5.894  11.459   1.447  0.3875  0.7786 -0.6169
   16MOL0     N 2030   6.647  11.227   1.457 -0.6559  0.0915  0.1237
   16MOL0     N 2031   6.770  11.179   1.478  0.1263 -0.4363 -0.8246
   16MOL0     C 2032   7.890  10.580   1.137 -0.9917 -0.4931 -0.2132
   16MOL0     C 2033   8.026  10.594   1.141  0.2749 -0.0135  1.3624
   16MOL0     C 2034   8.450  10.789   1.204  0.7636  0.4786  0.2694
   16MOL0     C 2035   8.525  10.908   1.175 -0.1045  0.1197  0.0189
   16MOL0     C 2036   8.664  10.892   1.183 -1.0252  0.1361  0.0387
   16MOL0     C 2037   8.726  10.768   1.193  0.0998  0.0829  0.6856
   16MOL0     O 2038   8.860  10.743   1.190 -0.7415  0.3245 -0.0622
   16MOL0     C 2039   8.949  10.837   1.122  0.8761 -0.8163  0.0405
   16MOL0     C 2040   9.077  10.851   1.215 -0.1020 -0.3377 -0.2910
   16MOL0     C 2041   9.052  10.879   1.360 -0.5168  0.4855  0.0068
   16MOL0     C 2042   9.174  10.873   1.448 -0.5053  0.0711  0.6710
   16MOL0     C 2043   9.283  10.966   1.405  0.4297  0.1399 -0.0439
   16MOL0     C 2044   9.371  11.041   1.364  0.2502 -0.0550 -0.1076
   16MOL0     C 2045   8.646  10.654   1.210 -0.0701  0.1682  0.9115
   16MOL0     C 2046   8.510  10.664   1.220  0.3448 -0.6649  0.7747
   16MOL0     H 2047   8.047  10.843   1.367 -1.9846  0.6382 -0.5999
   16MOL0     H 2048   7.799  10.804   1.378 -1.6979 -0.8236  0.2551
   16MOL0     H 2049   7.547  10.787   1.149  1.0710  0.8344 -0.0737
   16MOL0     H 2050   7.592  10.785   1.329 -1.6434 -0.8885  1.1856
   16MOL0     H 2051   7.476  10.587   1.367  0.5851 -0.9713 -0.8370
   16MOL0     H 2052   7.434  10.577   1.193 -1.4254  1.3589 -0.2756
   16MOL0     H 2053   7.346  10.794   1.388  1.7763 -2.0623  1.1675
   16MOL0     H 2054   7.236  10.675   1.340 -1.8961  3.0011 -0.3477
   16MOL0     H 2055   7.344  10.891   1.160 -2.6638  1.3570 -0.3871
   16MOL0     H 2056   7.313  10.737   1.077  2.0978 -0.2512 -0.0336
   16MOL0     H 2057   7.064  10.765   1.191  0.7739  0.2771  2.0962
   16MOL0     H 2058   7.124  10.863   1.051 -2.2749  1.1262 -0.2124
   16MOL0     H 2059   7.196  11.024   1.222 -2.0040  1.2107 -3.2010
   16MOL0     H 2060   7.141  10.924   1.357 -4.0193  0.4576  1.3199
   16MOL0     H 2061   6.961  11.045   1.139  0.0098  0.2279  0.9051
   16MOL0     H 2062   6.913  10.938   1.273 -2.8042  1.6677 -0.5173
   16MOL0     H 2063   7.040  11.210   1.293  0.8654 -0.4065 -0.4777
   16MOL0     H 2064   7.021  11.094   1.430 -1.0983 -1.0209 -0.8117
   16MOL0     H 2065   6.787  11.210   1.160 -0.3783 -1.1449 -0.8255
   16MOL0     H 2066   6.498  11.242   1.154 -1.1519  3.2482 -1.1213
   16MOL0     H 2067   6.523  11.396   1.221 -0.8701 -0.0589 -2.8964
   16MOL0     H 2068   6.385  11.308   1.430 -2.4884 -0.2456  1.0594
   16MOL0     H 2069   6.362  11.172   1.335 -1.1585  0.3384 -1.8647
   16MOL0     H 2070   6.283  11.451   1.203 -1.0390  0.4735 -0.4013
   16MOL0     H 2071   6.240  11.277   1.166  1.8061  1.2915 -1.7667
   16MOL0     H 2072   6.147  11.446   1.402 -2.7209 -0.6173  2.0124
   16MOL0     H 2073   6.129  11.270   1.397 -1.2658  0.6053  0.7549
   16MOL0     H 2074   5.796  11.403   1.127 -2.0933 -1.7045  1.2047
   16MOL0     H 2075   5.597  11.496   1.214 -0.1549 -1.0593 -1.2516
   16MOL0     H 2076   5.400  11.839   1.467  3.1105 -3.1427 -1.9359
   16MOL0     H 2077   5.188  11.961   1.488 -1.4886 -0.1902  0.7438
   16MOL0     H 2078   4.946  12.037   1.494 -0.4661  0.1647  2.9977
   16MOL0     H 2079   4.963  11.888   1.588 -0.1424  1.3961  0.9947
   16MOL0     H 2080   4.717  11.936   1.427 -0.8282  3.4007 -0.2234
   16MOL0     H 2081   4.759  12.033   1.583  0.6753  0.4796 -1.1309
   16MOL0     H 2082   4.765  11.839   1.727 -3.4188 -1.6165  1.7869
   16MOL0     H 2083   4.726  11.733   1.586  0.5352  1.4432 -3.3682
   16MOL0     H 2084   4.546  11.952   1.709 -0.8535 -1.4954  2.5547
   16MOL0     H 2085   4.506  11.853   1.567 -0.4915  2.0437 -0.3855
   16MOL0     H 2086   4.584  11.741   1.848  0.6868 -0.2562 -1.2708
   16MOL0     H 2087   4.541  11.637   1.710 -0.6399 -1.6848  1.1451
   16MOL0     H 2088   4.301  11.752   1.737  0.9459  2.4321  0.0415
   16MOL0     H 2089   4.364  11.848   1.866  0.2561 -1.2108  2.3072
   16MOL0     H 2090   4.349  11.546   1.868 -1.3961  0.3993 -1.2911
   16MOL0     H 2091   4.395  11.654   2.009  2.0378  1.3684 -1.1177
   16MOL0     H 2092   4.128  11.623   1.859 -2.5764  2.9265  0.2702
   16MOL0     H 2093   4.152  11.742   1.982 -1.0727 -1.0228 -0.4906
   16MOL0     H 2094   5.005  11.605   1.312 -1.0887  1.0169  1.6585
   16MOL0     H 2095   5.208  11.494   1.309 -0.2004 -2.2784  2.9009
   16MOL0     H 2096   5.780  11.569   1.594 -1.8129 -0.2244  0.8368
   16MOL0     H 2097   5.981  11.456   1.512  0.7766 -1.4979 -1.1388
   16MOL0     H 2098   7.849  10.507   1.068  0.4113 -0.5184 -1.0438
   16MOL0     H 2099   8.084  10.520   1.086  3.2006  3.1116 -0.1281
   16MOL0     H 2100   8.482  11.004   1.149  0.0067  1.0274  2.8176
   16MOL0     H 2101   8.710  10.987   1.156  0.1682 -1.0967 -2.6727
   16MOL0     H 2102   8.903  10.930   1.089  0.0763 -1.4175 -0.5720
   16MOL0     H 2103   8.980  10.791   1.028 -0.7639 -0.6524 -0.6180
   16MOL0     H 2104   9.142  10.765   1.203  1.5275  0.7294  0.4865
   16MOL0     H 2105   9.139  10.934   1.180 -0.1842 -0.3435 -0.4494
   16MOL0     H 2106   8.979  10.812   1.406 -1.7602  1.8773  0.1616
   16MOL0     H 2107   9.008  10.979   1.372 -2.9372  0.1527 -4.1691
   16MOL0     H 2108   9.155  10.904   1.552  1.0995 -0.4372  1.1469
   16MOL0     H 2109   9.221  10.774   1.443 -1.4694 -0.5520  2.6129
   16MOL0     H 2110   9.444  11.107   1.321  0.4108 -1.1092 -1.5341
   16MOL0     H 2111   8.698  10.559   1.221 -0.3362 -0.4822 -2.4099
   16MOL0     H 2112   8.446  10.581   1.251 -1.1729 -0.7197 -2.1997
   17MOL0     O 2113   8.938  10.498   6.356  0.2597  0.4635  0.2778
   17MOL0     C 2114   8.872  10.585   6.411  0.7189 -0.4722 -0.0445
   17MOL0     O 2115   8.762  10.649   6.364 -0.1326 -0.1534 -0.3403
   17MOL0     C 2116   8.672  10.590   6.279 -0.6325 -0.7462 -0.1408
   17MOL0     C 2117   8.561  10.667   6.237 -1.1482 -0.3671  0.3458
   17MOL0     C 2118   8.464  10.602   6.162 -0.4449 -0.3389  1.2193
   17MOL0     C 2119   8.464  10.465   6.128 -0.1628  0.3892  0.6579
   17MOL0     O 2120   8.371  10.401   6.051 -0.4244  0.5302 -0.5960
   17MOL0     C 2121   8.262  10.467   6.005 -0.0441 -0.1518  0.0859
   17MOL0     C 2122   8.161  10.371   5.951 -0.8876  0.4699 -0.1076
   17MOL0     C 2123   8.018  10.425   5.941 -0.4288  0.1639  0.5096
   17MOL0     C 2124   7.933  10.307   5.916 -0.0086  0.6671 -0.1730
   17MOL0     C 2125   7.798  10.332   5.851 -0.2941  0.0086  0.2114
   17MOL0     C 2126   7.722  10.446   5.916  1.2986 -0.0370 -0.1732
   17MOL0     C 2127   7.574  10.452   5.858 -0.9902 -0.2451 -0.3202
   17MOL0     C 2128   7.491  10.326   5.876  0.5676 -0.0569  0.3871
   17MOL0     N 2129   7.345  10.356   5.858  0.1798  0.1392  0.8348
   17MOL0     C 2130   7.247  10.260   5.893 -0.9217 -0.2244 -0.5217
   17MOL0     C 2131   7.131  10.305   5.827 -0.2219  0.1753 -0.6331
   17MOL0     C 2132   7.002  10.231   5.839 -0.4292 -0.2815  1.0398
   17MOL0     C 2133   6.886  10.329   5.846 -0.1459 -0.0780 -0.4659
   17MOL0     C 2134   6.759  10.267   5.797 -0.4810  0.3855  0.0135
   17MOL0     C 2135   6.751  10.241   5.644 -0.6033 -0.7751  0.6024
   17MOL0     O 2136   6.639  10.156   5.595  0.1661 -0.1327  0.4449
   17MOL0     C 2137   6.509  10.190   5.614  0.3073  0.5098 -0.3106
   17MOL0     C 2138   6.428  10.087   5.610  0.1455  0.5518  1.0107
   17MOL0     C 2139   6.288  10.100   5.631 -0.3466 -0.5787 -0.1056
   17MOL0     C 2140   6.237  10.226   5.658 -0.1075 -1.1396  0.0385
   17MOL0     C 2141   6.092  10.245   5.684  0.3057 -0.0322 -0.7673
   17MOL0     O 2142   6.045  10.372   5.682 -0.6728 -0.3639  0.9289
   17MOL0     C 2143   5.922  10.383   5.736 -0.9264 -1.0798 -0.0343
   17MOL0     C 2144   5.910  10.432   5.863 -0.3383 -0.6350 -0.0854
   17MOL0     C 2145   5.783  10.453   5.922  0.8362 -0.4092  0.1966
   17MOL0     C 2146   5.671  10.423   5.841  0.0383 -0.6039 -0.5691
   17MOL0     O 2147   5.536  10.422   5.887 -0.2359 -0.1665 -0.0255
   17MOL0     C 2148   5.505  10.333   5.990 -0.0049  0.8249  0.0208
   17MOL0     C 2149   5.366  10.361   6.043  0.2227  0.0900  0.1104
   17MOL0     C 2150   5.250  10.327   5.949  0.3015  0.8471  0.2497
   17MOL0     C 2151   5.107  10.365   5.996 -1.1349  0.8326  0.1682
   17MOL0     C 2152   5.000  10.343   5.893  0.7199 -0.6554  0.0790
   17MOL0     C 2153   5.012  10.408   5.752 -0.1781  0.5755  0.1657
   17MOL0     C 2154   4.885  10.390   5.672 -1.0292 -0.5690  0.3759
   17MOL0     C 2155   4.890  10.471   5.543  0.8257  0.6457 -0.3817
   17MOL0    Cl 2156   4.904  10.650   5.580  0.1595  0.4113 -0.3419
   17MOL0     C 2157   5.689  10.362   5.714  0.5611  0.4170 -0.9998
   17MOL0     C 2158   5.811  10.337   5.669  0.1376 -0.2121  0.7064
   17MOL0     O 2159   6.024  10.152   5.696  0.5116 -0.6218  0.7646
   17MOL0     C 2160   6.319  10.338   5.663 -0.4355 -0.4967  1.2818
   17MOL0     C 2161   6.457  10.320   5.633  0.0213  0.8222  0.6231
   17MOL0     N 2162   7.164  10.418   5.749  0.3651  0.4712  0.5540
   17MOL0     N 2163   7.286  10.442   5.774 -0.1866 -0.3259  0.3176
   17MOL0     C 2164   8.571  10.398   6.176 -0.8435 -0.0404  0.6202
   17MOL0     C 2165   8.673  10.454   6.247  0.4321  1.2451  0.1466
   17MOL0     C 2166   8.924  10.628   6.545  0.1308 -0.1881 -0.3670
   17MOL0     C 2167   8.852  10.728   6.615  0.1861  0.3914 -0.1867
   17MOL0     C 2168   8.901  10.781   6.735 -0.2370 -1.0204 -0.0915
   17MOL0     C 2169   9.028  10.741   6.788  0.4637 -0.1871  0.3028
   17MOL0     O 2170   9.087  10.796   6.894  0.5739  0.3717  0.2117
   17MOL0     C 2171   9.015  10.894   6.974  0.0684  0.2556 -0.1661
   17MOL0     C 2172   9.026  11.032   6.908 -0.0461  0.0429  0.0399
   17MOL0     C 2173   8.907  11.125   6.935 -0.4912 -0.7735 -0.1402
   17MOL0     C 2174   8.896  11.136   7.088  0.0738  0.3279  0.1297
   17MOL0     C 2175   8.792  11.235   7.117 -0.4422  0.1953 -0.6159
   17MOL0     C 2176   8.715  11.334   7.127  0.4787 -0.0501  0.2297
   17MOL0     C 2177   9.095  10.623   6.732 -0.7959  0.1985 -0.4961
   17MOL0     C 2178   9.040  10.575   6.604 -0.0041 -0.4364 -0.1688
   17MOL0     H 2179   8.570  10.772   6.260 -1.2964 -0.0984 -0.7518
   17MOL0     H 2180   8.391  10.674   6.126  1.6372  1.4816  0.4747
   17MOL0     H 2181   8.281  10.546   5.932  0.1261  2.3070  2.6378
   17MOL0     H 2182   8.214  10.514   6.092  0.9052  0.7650  0.1378
   17MOL0     H 2183   8.153  10.287   6.020  0.7806 -2.0561 -2.7670
   17MOL0     H 2184   8.191  10.320   5.859  3.5857  0.1365  1.2971
   17MOL0     H 2185   8.015  10.498   5.859 -1.6616 -1.7619 -1.2612
   17MOL0     H 2186   7.987  10.473   6.034  1.0910 -1.9401  2.2078
   17MOL0     H 2187   7.983  10.245   5.841 -2.3204 -0.2103 -1.0924
   17MOL0     H 2188   7.922  10.256   6.012 -0.9286 -0.2093 -0.7254
   17MOL0     H 2189   7.740  10.240   5.842 -0.9830  0.4188  0.3607
   17MOL0     H 2190   7.814  10.359   5.746  2.8810 -0.8130  0.3605
   17MOL0     H 2191   7.775  10.539   5.894 -0.1775  0.7927 -0.3573
   17MOL0     H 2192   7.722  10.432   6.025 -1.9346 -0.7751 -0.1736
   17MOL0     H 2193   7.524  10.538   5.905  1.8420  2.2549 -1.4954
   17MOL0     H 2194   7.578  10.481   5.752 -0.6438 -1.3754 -0.6326
   17MOL0     H 2195   7.495  10.289   5.979 -0.1791  0.6111  0.6608
   17MOL0     H 2196   7.530  10.252   5.805 -2.6853  0.9602 -2.6942
   17MOL0     H 2197   7.258  10.178   5.964 -0.9742  0.8693  0.7842
   17MOL0     H 2198   7.005  10.168   5.929  1.2577  0.9472  1.8847
   17MOL0     H 2199   6.993  10.168   5.750 -0.1800  2.5461 -1.1307
   17MOL0     H 2200   6.898  10.419   5.786  1.3505 -0.2865 -0.5278
   17MOL0     H 2201   6.883  10.376   5.945  0.1130  0.4422 -0.6997
   17MOL0     H 2202   6.743  10.173   5.850 -0.2006 -0.7648 -1.8456
   17MOL0     H 2203   6.681  10.342   5.812 -1.0418  0.1263 -1.4567
   17MOL0     H 2204   6.840  10.187   5.608 -2.3256 -1.9923 -2.1129
   17MOL0     H 2205   6.750  10.332   5.584 -1.0102 -2.1617 -1.6236
   17MOL0     H 2206   6.475   9.992   5.587  0.8730  0.7322  1.7287
   17MOL0     H 2207   6.225  10.012   5.629 -1.4215  0.1792 -0.1658
   17MOL0     H 2208   5.998  10.458   5.921 -0.4747  2.2592 -1.0065
   17MOL0     H 2209   5.772  10.480   6.026  0.1647 -1.1095  0.3127
   17MOL0     H 2210   5.578  10.324   6.071 -0.9500 -0.2556  0.7886
   17MOL0     H 2211   5.504  10.229   5.954 -3.8412  0.3499  1.0712
   17MOL0     H 2212   5.351  10.463   6.079  1.6654  0.0226  0.9925
   17MOL0     H 2213   5.362  10.305   6.137 -1.3809 -0.2946 -0.1610
   17MOL0     H 2214   5.243  10.219   5.934  0.7329  0.4884  2.3675
   17MOL0     H 2215   5.258  10.356   5.844 -4.4953 -2.6841 -1.4480
   17MOL0     H 2216   5.082  10.309   6.087 -1.4740  0.2623 -0.2722
   17MOL0     H 2217   5.104  10.472   6.017 -1.4246  0.5232  1.9113
   17MOL0     H 2218   4.913  10.379   5.949  0.7985 -2.2840  1.3307
   17MOL0     H 2219   4.978  10.237   5.880 -2.4117  0.1286 -2.3029
   17MOL0     H 2220   5.098  10.367   5.699 -0.6137  1.2705 -1.1419
   17MOL0     H 2221   5.034  10.515   5.764 -0.5417  0.5494  1.1940
   17MOL0     H 2222   4.879  10.285   5.643  0.7708 -1.1487  1.9422
   17MOL0     H 2223   4.800  10.410   5.737 -1.9537 -0.0766 -0.9332
   17MOL0     H 2224   4.797  10.467   5.486  0.1240  1.5494  0.6533
   17MOL0     H 2225   4.971  10.434   5.479 -0.1515 -1.8320 -0.2951
   17MOL0     H 2226   5.600  10.344   5.654  0.0306 -2.4930  0.4707
   17MOL0     H 2227   5.830  10.295   5.571 -1.7420 -3.9531  1.7230
   17MOL0     H 2228   6.278  10.436   5.683  0.9342  1.2166 -3.0799
   17MOL0     H 2229   6.522  10.405   5.615  0.1444  0.4657 -0.6966
   17MOL0     H 2230   8.590  10.292   6.160  2.2894  0.4740  0.1950
   17MOL0     H 2231   8.756  10.388   6.268 -1.6924 -2.0694 -1.0848
   17MOL0     H 2232   8.754  10.759   6.581  1.6721  3.1818 -2.4090
   17MOL0     H 2233   8.852  10.874   6.766  1.4141  0.2610 -1.1586
   17MOL0     H 2234   9.061  10.898   7.073 -1.7540  0.2736  0.7072
   17MOL0     H 2235   8.915  10.850   6.977 -0.3553  0.5544 -4.0742
   17MOL0     H 2236   9.122  11.081   6.925  1.7061 -2.4079 -2.1130
   17MOL0     H 2237   9.027  11.016   6.800  1.2683  0.6785 -0.0588
   17MOL0     H 2238   8.814  11.092   6.888  0.4010 -1.6097 -1.3856
   17MOL0     H 2239   8.934  11.223   6.894 -0.2321 -0.9911 -0.5066
   17MOL0     H 2240   8.872  11.042   7.137  1.6078 -0.8823 -1.2964
   17MOL0     H 2241   8.996  11.172   7.117  1.0354 -1.1221 -1.2203
   17MOL0     H 2242   8.650  11.413   7.157 -1.2265 -1.6598  0.9984
   17MOL0     H 2243   9.178  10.577   6.784 -0.8571 -0.2478 -0.7865
   17MOL0     H 2244   9.084  10.490   6.553 -1.8904 -0.6398 -1.5486
   18MOL0     O 2245   2.239   0.644   1.792  0.4207 -0.2565 -0.4082
   18MOL0     C 2246   2.261   0.658   1.668 -0.5614  0.2523 -0.1458
   18MOL0     O 2247   2.169   0.661   1.564 -0.3456 -0.1840 -0.4303
   18MOL0     C 2248   2.027   0.638   1.585 -0.5097 -1.0272 -0.8179
   18MOL0     C 2249   1.951   0.589   1.482 -0.3132  1.0514  0.5625
   18MOL0     C 2250   1.814   0.558   1.493  0.4694 -0.7251 -0.0204
   18MOL0     C 2251   1.748   0.583   1.615 -0.0098 -0.2619  0.3282
   18MOL0     O 2252   1.613   0.561   1.619 -0.2292  0.3750  0.8834
   18MOL0     C 2253   1.533   0.622   1.723 -0.4231 -0.5886 -0.1079
   18MOL0     C 2254   1.384   0.596   1.688  1.0936 -0.4006 -0.2206
   18MOL0     C 2255   1.294   0.636   1.803 -0.1054 -0.2612  1.3569
   18MOL0     C 2256   1.144   0.623   1.781 -0.9352  1.0037  0.0758
   18MOL0     C 2257   1.066   0.690   1.886 -0.6983  0.1297 -0.3718
   18MOL0     C 2258   0.915   0.691   1.851  0.3477 -0.7533  0.4485
   18MOL0     C 2259   0.833   0.774   1.952 -0.8161 -0.2707  0.4034
   18MOL0     C 2260   0.798   0.697   2.075 -0.6096  0.5495  1.0587
   18MOL0     N 2261   0.661   0.717   2.119  0.0593 -0.0347 -0.4242
   18MOL0     C 2262   0.546   0.654   2.064  0.1229  0.4452  0.2836
   18MOL0     C 2263   0.443   0.729   2.109  0.2486 -0.6988  0.3051
   18MOL0     C 2264   0.302   0.711   2.073  0.2304 -0.4531  0.7575
   18MOL0     C 2265   0.193   0.818   2.117 -0.4813  0.6298  0.6050
   18MOL0     C 2266   0.132   0.803   2.256 -0.5765  0.2299 -0.0918
   18MOL0     C 2267   0.037   0.909   2.304 -1.0171  0.3230 -0.6947
   18MOL0     O 2268  -0.071   0.907   2.219 -0.3339  0.1265 -0.7509
   18MOL0     C 2269  -0.192   0.962   2.260  0.4107 -0.9142 -0.0728
   18MOL0     C 2270  -0.202   1.094   2.305 -0.6455  1.2026  0.1928
   18MOL0     C 2271  -0.328   1.153   2.345 -0.0895 -0.8206 -0.0315
   18MOL0     C 2272  -0.438   1.074   2.316  0.5782  0.0693 -0.8772
   18MOL0     C 2273  -0.575   1.130   2.328 -0.5269 -0.2511 -0.4196
   18MOL0     O 2274  -0.674   1.038   2.369 -1.4923 -0.5956  0.9064
   18MOL0     C 2275  -0.800   1.052   2.415 -0.0992  0.2621  0.7540
   18MOL0     C 2276  -0.859   0.931   2.445  0.2936  0.4087 -0.3036
   18MOL0     C 2277  -0.988   0.928   2.500 -0.5616  0.0549  0.9442
   18MOL0     C 2278  -1.067   1.043   2.510 -0.0878  0.1867 -0.7839
   18MOL0     O 2279  -1.198   1.016   2.558 -0.0395 -0.4700  0.3677
   18MOL0     C 2280  -1.304   1.078   2.486  0.3278  0.4526  0.8786
   18MOL0     C 2281  -1.446   1.024   2.491  0.7035  0.8228  0.6535
   18MOL0     C 2282  -1.478   0.950   2.611  0.4899  0.3344 -0.7885
   18MOL0     C 2283  -1.596   0.861   2.611  0.1929  0.2202  0.3672
   18MOL0     C 2284  -1.725   0.938   2.621  0.9465  0.6784 -0.3912
   18MOL0     C 2285  -1.844   0.836   2.643 -0.0065 -0.3559 -0.1861
   18MOL0     C 2286  -1.949   0.838   2.523  0.0096  0.1849  0.2306
   18MOL0     C 2287  -2.096   0.813   2.567 -0.2866 -0.0597 -0.6092
   18MOL0    Cl 2288  -2.118   0.647   2.628 -0.4120  0.1321  0.0354
   18MOL0     C 2289  -1.018   1.162   2.461  0.3008  0.5808  0.3344
   18MOL0     C 2290  -0.885   1.173   2.416 -0.2405  0.4406  0.8273
   18MOL0     O 2291  -0.599   1.246   2.297 -0.4037  0.0030  0.1718
   18MOL0     C 2292  -0.431   0.940   2.289 -0.1071 -1.1924  0.2280
   18MOL0     C 2293  -0.301   0.875   2.251 -0.2573 -0.3264  0.0898
   18MOL0     N 2294   0.488   0.833   2.185 -0.5901  0.0115  0.0478
   18MOL0     N 2295   0.622   0.831   2.182  0.4784  0.1050 -0.0226
   18MOL0     C 2296   1.821   0.638   1.722  0.2170 -0.1041 -0.0619
   18MOL0     C 2297   1.959   0.675   1.705 -0.6487  0.0090 -0.3909
   18MOL0     C 2298   2.399   0.692   1.634 -0.5192 -0.2440 -0.1199
   18MOL0     C 2299   2.444   0.710   1.499 -0.3460  0.4480  0.7048
   18MOL0     C 2300   2.574   0.747   1.466  0.6732 -0.0383 -0.0576
   18MOL0     C 2301   2.659   0.765   1.579 -0.0439 -0.2116 -1.7055
   18MOL0     O 2302   2.790   0.793   1.556 -0.3365  0.9236  0.4101
   18MOL0     C 2303   2.887   0.681   1.586  0.4895 -0.0674 -0.2288
   18MOL0     C 2304   3.010   0.698   1.493 -0.3276  1.3575 -0.0241
   18MOL0     C 2305   3.120   0.802   1.543  0.7989 -0.8068  0.1759
   18MOL0     C 2306   3.221   0.833   1.437 -1.1570  0.7393  0.4242
   18MOL0     C 2307   3.282   0.717   1.371  0.0729  0.5558 -0.1667
   18MOL0     C 2308   3.334   0.618   1.338 -0.4981  0.7204  1.4591
   18MOL0     C 2309   2.614   0.758   1.711  0.0704 -0.0794 -0.0470
   18MOL0     C 2310   2.490   0.719   1.739  0.6525 -0.3826  0.1389
   18MOL0     H 2311   1.993   0.563   1.385  1.9760  0.1001  1.7310
   18MOL0     H 2312   1.753   0.512   1.416  0.1936  1.6312 -1.2996
   18MOL0     H 2313   1.558   0.728   1.714  0.0297 -0.8347 -2.5929
   18MOL0     H 2314   1.558   0.575   1.819 -0.0087 -2.2539 -0.9787
   18MOL0     H 2315   1.365   0.496   1.648 -3.3745  0.1897 -0.1000
   18MOL0     H 2316   1.356   0.660   1.603  0.6485  0.8161  0.8015
   18MOL0     H 2317   1.317   0.742   1.821  0.2494  0.3356 -1.9149
   18MOL0     H 2318   1.318   0.569   1.885  3.2540 -0.7559  0.1203
   18MOL0     H 2319   1.109   0.667   1.687 -2.4947 -2.9599 -1.4583
   18MOL0     H 2320   1.112   0.518   1.786 -0.5065  0.9242  1.3806
   18MOL0     H 2321   1.089   0.796   1.894 -1.7891  0.2805  1.3179
   18MOL0     H 2322   1.081   0.650   1.987 -2.6202  0.3303  0.0278
   18MOL0     H 2323   0.871   0.591   1.843  1.1267 -0.9328 -4.4123
   18MOL0     H 2324   0.908   0.736   1.752  2.2652  1.1729  1.1174
   18MOL0     H 2325   0.898   0.857   1.983 -0.7458  0.3508 -1.3265
   18MOL0     H 2326   0.744   0.814   1.903  0.1167 -1.7404 -2.7208
   18MOL0     H 2327   0.866   0.736   2.151  1.2776 -4.9239  2.6462
   18MOL0     H 2328   0.821   0.591   2.064  1.9206  1.1109  0.2551
   18MOL0     H 2329   0.542   0.572   1.994  0.7617  0.2358  0.4925
   18MOL0     H 2330   0.277   0.612   2.113  1.3678 -1.2094 -0.3297
   18MOL0     H 2331   0.289   0.709   1.964 -0.6058 -0.0820  0.8457
   18MOL0     H 2332   0.112   0.805   2.044  1.3861  2.0883 -1.8918
   18MOL0     H 2333   0.251   0.910   2.116  2.2703 -0.9205  3.0740
   18MOL0     H 2334   0.091   0.702   2.263  0.1211  0.0546  2.8912
   18MOL0     H 2335   0.208   0.790   2.335  0.5025  0.0693 -1.1220
   18MOL0     H 2336   0.092   1.003   2.304  0.0616 -0.2527  1.3589
   18MOL0     H 2337   0.007   0.889   2.407 -2.1000  0.1927 -1.0224
   18MOL0     H 2338  -0.115   1.157   2.315 -0.8549  1.3958  0.8265
   18MOL0     H 2339  -0.335   1.260   2.363 -2.1308 -1.2422  2.1556
   18MOL0     H 2340  -0.806   0.837   2.435 -0.1647 -0.5769  4.4265
   18MOL0     H 2341  -1.038   0.836   2.526 -0.5628  0.2405  1.6194
   18MOL0     H 2342  -1.293   1.092   2.378 -1.6869  0.8955  0.6952
   18MOL0     H 2343  -1.326   1.174   2.533 -0.3863  1.9942 -2.3141
   18MOL0     H 2344  -1.475   0.964   2.404 -0.8289 -0.5062  2.0096
   18MOL0     H 2345  -1.521   1.103   2.485  0.0170  0.1428  0.0796
   18MOL0     H 2346  -1.482   1.013   2.700  1.1934 -1.5544  0.6646
   18MOL0     H 2347  -1.387   0.890   2.624  1.4125  2.1044  1.6317
   18MOL0     H 2348  -1.605   0.806   2.517  2.6913 -0.4071  0.4176
   18MOL0     H 2349  -1.588   0.786   2.691  0.1534  2.1740  2.2979
   18MOL0     H 2350  -1.743   1.002   2.534 -4.7649  1.4338  0.9388
   18MOL0     H 2351  -1.723   1.010   2.704 -0.5958 -0.7472  0.9435
   18MOL0     H 2352  -1.905   0.866   2.729  2.2006  1.2320  0.8961
   18MOL0     H 2353  -1.800   0.737   2.659  2.5888  1.0437  1.9543
   18MOL0     H 2354  -1.950   0.938   2.478 -1.6900  1.9747  3.8175
   18MOL0     H 2355  -1.915   0.769   2.445  1.2657  1.3721 -0.3358
   18MOL0     H 2356  -2.162   0.822   2.481 -1.1838 -0.0752  0.0671
   18MOL0     H 2357  -2.110   0.895   2.639  1.5722  1.4688 -1.8806
   18MOL0     H 2358  -1.076   1.254   2.458 -0.2415  0.2707  0.9467
   18MOL0     H 2359  -0.843   1.271   2.394  0.4280 -0.2887 -1.4315
   18MOL0     H 2360  -0.523   0.886   2.268  0.2454 -1.5455 -0.4711
   18MOL0     H 2361  -0.285   0.775   2.215  3.6440  0.5400 -1.0328
   18MOL0     H 2362   1.776   0.658   1.819  2.8787 -3.2998  2.0700
   18MOL0     H 2363   2.014   0.742   1.770  3.1839 -1.3717 -1.9193
   18MOL0     H 2364   2.374   0.700   1.417 -1.5392  0.0069  1.7440
   18MOL0     H 2365   2.617   0.755   1.367 -0.9777 -3.8941 -1.2946
   18MOL0     H 2366   2.840   0.584   1.573  0.9867 -0.3547  0.0804
   18MOL0     H 2367   2.913   0.687   1.692  0.0369 -1.6804 -0.0096
   18MOL0     H 2368   3.057   0.599   1.492  0.2569  1.6173  0.6681
   18MOL0     H 2369   2.976   0.729   1.394 -1.7638  1.3062  0.4359
   18MOL0     H 2370   3.165   0.764   1.635 -2.3307 -2.1031  1.3064
   18MOL0     H 2371   3.076   0.896   1.578  1.4985 -0.0317 -0.9669
   18MOL0     H 2372   3.184   0.895   1.355  2.2905 -0.3595 -2.1979
   18MOL0     H 2373   3.300   0.886   1.492 -0.9519  1.0567 -0.1696
   18MOL0     H 2374   3.370   0.525   1.300 -0.8423  0.1507  2.4988
   18MOL0     H 2375   2.678   0.796   1.790  0.1775 -1.8803  0.7857
   18MOL0     H 2376   2.459   0.713   1.843  2.3978 -2.2057  0.6211
   19MOL0     O 2377   9.156   5.247  10.459 -0.0200 -0.7121 -0.3913
   19MOL0     C 2378   9.077   5.166  10.512  1.2546 -0.1007 -0.2160
   19MOL0     O 2379   8.967   5.198  10.589  0.5528  0.2347  0.0818
   19MOL0     C 2380   8.928   5.329  10.585  0.7883  1.0496  0.8032
   19MOL0     C 2381   8.901   5.383  10.707  0.0016 -0.6394 -0.2080
   19MOL0     C 2382   8.840   5.510  10.718  0.6291 -0.2023 -0.3757
   19MOL0     C 2383   8.823   5.596  10.602  0.2872 -0.8890 -0.5026
   19MOL0     O 2384   8.760   5.722  10.613 -0.7775 -0.1776 -0.6924
   19MOL0     C 2385   8.737   5.798  10.495 -0.0513  0.0094 -0.2968
   19MOL0     C 2386   8.706   5.943  10.531  0.8015 -0.8449  0.0892
   19MOL0     C 2387   8.807   6.007  10.639 -0.3527  0.8495  0.1878
   19MOL0     C 2388   8.770   6.155  10.691 -0.1134 -0.2937 -0.7457
   19MOL0     C 2389   8.888   6.258  10.705  0.4219  0.6624 -0.1292
   19MOL0     C 2390   8.861   6.384  10.787  0.1096 -0.3704  0.1716
   19MOL0     C 2391   8.790   6.493  10.706  0.8315  0.0002 -0.2156
   19MOL0     C 2392   8.736   6.591  10.818  0.1591  0.0804  0.0537
   19MOL0     N 2393   8.665   6.711  10.779 -0.8679 -0.0996 -0.4173
   19MOL0     C 2394   8.727   6.811  10.708 -0.3923  0.2659  0.8623
   19MOL0     C 2395   8.639   6.913  10.715  0.0537 -0.2966  0.3496
   19MOL0     C 2396   8.643   7.055  10.664  0.7750  0.0582  0.2089
   19MOL0     C 2397   8.544   7.077  10.543  0.2246  0.2742 -0.6129
   19MOL0     C 2398   8.519   7.227  10.513 -0.0759 -0.7179  0.5241
   19MOL0     C 2399   8.409   7.290  10.599 -0.3718  0.4151 -0.2762
   19MOL0     O 2400   8.281   7.226  10.559 -0.1577  0.8114 -0.3723
   19MOL0     C 2401   8.166   7.308  10.545 -0.2755  0.0811 -0.3586
   19MOL0     C 2402   8.131   7.424  10.621  0.3661  0.4196  0.5458
   19MOL0     C 2403   8.015   7.492  10.593  0.3469  0.2327 -0.4198
   19MOL0     C 2404   7.930   7.448  10.491 -0.6150 -0.3206  0.1237
   19MOL0     C 2405   7.805   7.518  10.456 -0.4379 -0.3434 -0.7178
   19MOL0     O 2406   7.716   7.459  10.376 -0.0975 -0.6261  0.0371
   19MOL0     C 2407   7.600   7.504  10.326 -0.2031 -0.4609 -0.4060
   19MOL0     C 2408   7.558   7.634  10.323  0.0412  0.2993  0.1232
   19MOL0     C 2409   7.441   7.681  10.259  0.1451  0.8713  0.2065
   19MOL0     C 2410   7.349   7.586  10.213  0.3803  0.5481  0.0646
   19MOL0     O 2411   7.225   7.603  10.158 -0.0239  0.3149  0.1151
   19MOL0     C 2412   7.180   7.737  10.151  0.0065  0.9456 -0.0538
   19MOL0     C 2413   7.038   7.729  10.092  0.5779 -0.8154 -0.4891
   19MOL0     C 2414   6.936   7.647  10.180  0.5797 -0.3771 -0.4683
   19MOL0     C 2415   6.790   7.650  10.114  0.0371  0.0450  0.3253
   19MOL0     C 2416   6.693   7.555  10.188 -0.2794  0.5929 -0.3082
   19MOL0     C 2417   6.546   7.575  10.140 -0.4776  0.7621  0.4369
   19MOL0     C 2418   6.467   7.450  10.177 -0.3139 -0.0172 -0.1721
   19MOL0     C 2419   6.323   7.447  10.133 -0.0394 -0.8176 -0.1369
   19MOL0    Cl 2420   6.243   7.320  10.226 -0.0530  0.2123  0.1188
   19MOL0     C 2421   7.381   7.452  10.231 -0.9197  0.1112 -0.3571
   19MOL0     C 2422   7.503   7.411  10.282 -0.4403 -0.4711  0.1410
   19MOL0     O 2423   7.791   7.631  10.509 -0.1060 -0.6007  0.0564
   19MOL0     C 2424   7.964   7.336  10.415  0.6155  0.3751 -1.4458
   19MOL0     C 2425   8.088   7.267  10.437  0.6897 -0.0967  0.1401
   19MOL0     N 2426   8.534   6.871  10.790 -1.0050 -0.5001 -0.1130
   19MOL0     N 2427   8.543   6.753  10.827 -0.0483 -0.3181 -0.1876
   19MOL0     C 2428   8.858   5.528  10.479  0.7223  0.0519  0.6716
   19MOL0     C 2429   8.907   5.399  10.466 -0.4955  0.0702 -0.9092
   19MOL0     C 2430   9.089   5.019  10.476 -0.1184  0.0797 -0.2725
   19MOL0     C 2431   9.208   4.971  10.421  0.1091 -0.2047  0.2425
   19MOL0     C 2432   9.212   4.843  10.365  0.4522  0.1040 -0.4734
   19MOL0     C 2433   9.110   4.746  10.389 -0.1999 -0.2161  0.5609
   19MOL0     O 2434   9.103   4.613  10.335  0.0673 -0.4720  0.7608
   19MOL0     C 2435   9.229   4.573  10.272  0.1835  0.4885  0.2115
   19MOL0     C 2436   9.234   4.634  10.135 -0.3678  0.8164 -0.4837
   19MOL0     C 2437   9.378   4.620  10.076 -0.6752 -0.2688  0.2062
   19MOL0     C 2438   9.405   4.474  10.015  0.2494  0.5366 -0.5433
   19MOL0     C 2439   9.321   4.431   9.902 -0.3911 -0.2350  0.0539
   19MOL0     C 2440   9.235   4.417   9.819 -0.2501  0.1814  0.2483
   19MOL0     C 2441   8.999   4.784  10.463  0.4617  0.0413  0.1942
   19MOL0     C 2442   8.989   4.920  10.506 -0.5326 -0.5908  0.4230
   19MOL0     H 2443   8.933   5.335  10.800 -1.6235 -2.1435 -0.3667
   19MOL0     H 2444   8.821   5.556  10.814  4.1824  1.4463 -0.3089
   19MOL0     H 2445   8.656   5.749  10.440 -1.8120  0.5864  1.6756
   19MOL0     H 2446   8.823   5.808  10.428 -0.7838  1.5036 -1.0507
   19MOL0     H 2447   8.604   5.936  10.571 -0.1908 -0.3095 -2.1949
   19MOL0     H 2448   8.700   6.002  10.439  0.5161 -1.4726 -0.2988
   19MOL0     H 2449   8.904   5.999  10.589 -0.7240 -1.1255 -0.3404
   19MOL0     H 2450   8.804   5.941  10.726 -0.7825 -0.7149 -0.9508
   19MOL0     H 2451   8.705   6.198  10.615 -1.7142  2.3045  1.8767
   19MOL0     H 2452   8.707   6.147  10.780  0.7421  0.4520 -0.0632
   19MOL0     H 2453   8.936   6.276  10.608  1.3280 -0.6139  0.0627
   19MOL0     H 2454   8.963   6.210  10.768 -0.1051 -0.2681 -0.1845
   19MOL0     H 2455   8.956   6.417  10.831  0.5674 -1.4580  0.0252
   19MOL0     H 2456   8.800   6.358  10.875  1.5152 -0.0604  1.2768
   19MOL0     H 2457   8.841   6.555  10.632 -1.5557  1.2061 -0.9761
   19MOL0     H 2458   8.708   6.449  10.648  1.3394 -0.3809 -0.6465
   19MOL0     H 2459   8.820   6.625  10.880 -3.9608  1.5073  5.6140
   19MOL0     H 2460   8.671   6.532  10.883  0.7187  0.4570  0.9803
   19MOL0     H 2461   8.824   6.801  10.661 -1.0864 -2.6386 -0.1713
   19MOL0     H 2462   8.747   7.070  10.632  0.3333  1.5740 -0.6603
   19MOL0     H 2463   8.613   7.128  10.740 -1.3423  0.6218 -1.0503
   19MOL0     H 2464   8.450   7.026  10.565  1.0939 -1.6754 -1.2090
   19MOL0     H 2465   8.587   7.018  10.461  0.2961 -1.6551  0.7639
   19MOL0     H 2466   8.607   7.291  10.527  0.3357 -1.2623  0.4342
   19MOL0     H 2467   8.481   7.235  10.411 -0.5292 -1.3465  0.6438
   19MOL0     H 2468   8.401   7.398  10.587 -3.3052  0.2895 -0.0513
   19MOL0     H 2469   8.432   7.274  10.705  1.1764 -2.3981 -0.9309
   19MOL0     H 2470   8.201   7.453  10.699  0.8462 -0.2649  0.3777
   19MOL0     H 2471   7.989   7.575  10.657 -0.1141  0.0424 -0.3525
   19MOL0     H 2472   7.611   7.715  10.372  2.3567  0.6629 -2.7805
   19MOL0     H 2473   7.426   7.788  10.267  1.4722  1.6158 -4.2461
   19MOL0     H 2474   7.244   7.795  10.083 -2.1247  0.8360 -2.2961
   19MOL0     H 2475   7.178   7.780  10.251  0.6311 -0.4712  0.5976
   19MOL0     H 2476   7.043   7.695   9.989  1.0086  1.5910 -1.3187
   19MOL0     H 2477   6.986   7.824  10.077  1.6657 -0.5259 -2.7306
   19MOL0     H 2478   6.935   7.693  10.279 -3.9285  1.6508 -1.1775
   19MOL0     H 2479   6.973   7.545  10.191 -0.6441 -1.0253 -1.9193
   19MOL0     H 2480   6.746   7.750  10.125  1.0361  0.5861 -0.4349
   19MOL0     H 2481   6.791   7.621  10.009 -1.0388  3.8378 -0.8993
   19MOL0     H 2482   6.707   7.556  10.296  1.8881  0.8131 -0.5431
   19MOL0     H 2483   6.725   7.458  10.149 -0.9725  0.7362 -1.2706
   19MOL0     H 2484   6.546   7.576  10.030 -1.4238 -2.0929  0.3223
   19MOL0     H 2485   6.508   7.664  10.191 -1.8325  0.6513 -0.3205
   19MOL0     H 2486   6.511   7.362  10.130  2.9820  2.0093 -1.2773
   19MOL0     H 2487   6.483   7.443  10.285  2.9052 -1.3477 -0.6173
   19MOL0     H 2488   6.304   7.435  10.026 -0.6135  1.6250 -0.3484
   19MOL0     H 2489   6.281   7.544  10.161 -1.8679 -1.2925 -1.0445
   19MOL0     H 2490   7.313   7.375  10.199 -3.2116  0.9991  1.9979
   19MOL0     H 2491   7.531   7.306  10.288  1.1543 -0.2067 -1.5510
   19MOL0     H 2492   7.889   7.302  10.344 -1.9535 -2.1534  2.1059
   19MOL0     H 2493   8.121   7.185  10.373  0.4467 -0.2389  0.1981
   19MOL0     H 2494   8.845   5.578  10.384  0.8636  0.5591  0.9141
   19MOL0     H 2495   8.924   5.358  10.367  0.0767  1.1630 -1.2810
   19MOL0     H 2496   9.289   5.042  10.407 -0.4015  0.3405 -0.0491
   19MOL0     H 2497   9.306   4.818  10.319  0.7508  0.0433  0.1660
   19MOL0     H 2498   9.237   4.464  10.257 -0.1430  0.7557 -2.3896
   19MOL0     H 2499   9.317   4.602  10.329 -0.1670  0.2901  0.8659
   19MOL0     H 2500   9.175   4.576  10.064  2.7544 -0.0308 -2.6167
   19MOL0     H 2501   9.195   4.735  10.119 -1.6574  0.2524 -1.0214
   19MOL0     H 2502   9.450   4.638  10.156  0.1421 -2.9837  0.2064
   19MOL0     H 2503   9.394   4.694   9.997 -3.5661  0.7630  0.4645
   19MOL0     H 2504   9.509   4.464   9.982  0.3874 -0.5401  0.1676
   19MOL0     H 2505   9.398   4.396  10.091  0.9947 -2.7049 -3.5269
   19MOL0     H 2506   9.149   4.403   9.756 -0.5016  0.7129  0.4649
   19MOL0     H 2507   8.924   4.711  10.491 -0.1450  1.1518  1.6315
   19MOL0     H 2508   8.901   4.957  10.558 -0.7781  3.2160 -2.2923
   20MOL0     O 2509   3.830   5.184  10.160  0.1596  0.1002  0.2247
   20MOL0     C 2510   3.759   5.103  10.224  0.1983 -0.7950  0.0099
   20MOL0     O 2511   3.750   4.975  10.193  0.9041  0.2707  0.1163
   20MOL0     C 2512   3.798   4.927  10.077 -1.3048  0.2267 -0.3243
   20MOL0     C 2513   3.928   4.870  10.071  0.1466 -0.3544 -0.1884
   20MOL0     C 2514   3.984   4.828   9.949 -0.5766  0.3287  0.3541
   20MOL0     C 2515   3.908   4.841   9.829  0.0265 -1.4708  0.1826
   20MOL0     O 2516   3.951   4.812   9.705  1.2478  0.1520 -0.5190
   20MOL0     C 2517   4.047   4.903   9.657  0.5909  0.7764 -0.2397
   20MOL0     C 2518   3.974   5.004   9.573 -0.0135  1.1253  0.0165
   20MOL0     C 2519   3.915   4.943   9.446  0.0922  0.2884 -0.4147
   20MOL0     C 2520   3.799   5.041   9.396  0.9505 -0.1327 -0.0586
   20MOL0     C 2521   3.762   5.016   9.249 -0.2113  0.3432 -0.3177
   20MOL0     C 2522   3.850   5.097   9.148 -0.3009  0.4719 -0.3398
   20MOL0     C 2523   3.790   5.086   9.005  0.0663 -0.0561  0.4976
   20MOL0     C 2524   3.826   5.208   8.918  0.1407 -0.5305  0.6489
   20MOL0     N 2525   3.962   5.203   8.863  0.3135 -0.2585 -0.2667
   20MOL0     C 2526   4.010   5.096   8.790 -0.1174  0.1484  0.6852
   20MOL0     C 2527   4.140   5.114   8.765 -0.4812 -0.2893 -0.2504
   20MOL0     C 2528   4.241   5.009   8.698  0.9303 -0.1193 -0.5128
   20MOL0     C 2529   4.176   4.958   8.569  0.5285  0.3104 -0.1980
   20MOL0     C 2530   4.266   4.875   8.474  0.0017 -0.2526 -0.2409
   20MOL0     C 2531   4.318   4.735   8.510 -0.5832 -0.7879  0.0068
   20MOL0     O 2532   4.212   4.646   8.547 -0.1626 -0.5801  0.6833
   20MOL0     C 2533   4.239   4.515   8.571  0.8671 -0.4202  0.3059
   20MOL0     C 2534   4.122   4.433   8.561  0.0735  0.0733 -0.2914
   20MOL0     C 2535   4.131   4.296   8.598  0.9864 -0.7108  0.1139
   20MOL0     C 2536   4.254   4.239   8.638  0.1061 -1.0150  0.0913
   20MOL0     C 2537   4.265   4.097   8.672 -1.0016 -0.3474  1.1478
   20MOL0     O 2538   4.147   4.016   8.671 -0.5685 -0.5124 -0.1551
   20MOL0     C 2539   4.159   3.878   8.700 -0.7969 -0.8735 -0.1260
   20MOL0     C 2540   4.147   3.819   8.824 -0.2853 -0.3900 -0.0127
   20MOL0     C 2541   4.146   3.685   8.836  0.1177  0.2923  0.3461
   20MOL0     C 2542   4.155   3.598   8.725 -0.3141 -0.5055  0.7867
   20MOL0     O 2543   4.168   3.461   8.722  0.2387 -1.0062 -0.1782
   20MOL0     C 2544   4.122   3.394   8.836  0.5682  0.2507  0.5510
   20MOL0     C 2545   4.151   3.253   8.817  0.2194 -0.9956  0.3950
   20MOL0     C 2546   4.209   3.181   8.945 -0.3339 -1.1526 -1.1456
   20MOL0     C 2547   4.259   3.036   8.917 -0.2833 -0.2909  0.4984
   20MOL0     C 2548   4.308   2.963   9.050 -0.7390  0.1018 -0.8643
   20MOL0     C 2549   4.389   2.844   9.001 -0.4319 -0.2495 -0.5067
   20MOL0     C 2550   4.418   2.748   9.118  0.8463 -0.3424 -0.0367
   20MOL0     C 2551   4.514   2.640   9.081  0.3543 -0.0080 -0.0989
   20MOL0    Cl 2552   4.654   2.692   8.983 -0.1894  0.0975 -0.5854
   20MOL0     C 2553   4.165   3.659   8.595 -0.4872 -0.0315 -0.5844
   20MOL0     C 2554   4.167   3.794   8.590  0.4080  0.6137  0.0734
   20MOL0     O 2555   4.380   4.058   8.697  0.0136  0.0704 -0.8556
   20MOL0     C 2556   4.361   4.327   8.651  0.3710 -0.8146  0.2239
   20MOL0     C 2557   4.355   4.463   8.634 -0.1233 -0.7074  0.1935
   20MOL0     N 2558   4.169   5.234   8.828  0.6848 -0.7191  0.4030
   20MOL0     N 2559   4.061   5.292   8.880 -0.2545 -0.8434  0.3871
   20MOL0     C 2560   3.780   4.890   9.837 -0.3138  0.2008 -0.6320
   20MOL0     C 2561   3.731   4.932   9.951  1.1357 -0.6058 -0.7468
   20MOL0     C 2562   3.701   5.165  10.349  0.4310  0.6472 -0.2014
   20MOL0     C 2563   3.665   5.296  10.355  0.2493 -0.1056  0.1362
   20MOL0     C 2564   3.611   5.347  10.487 -0.4353  0.0001 -0.3109
   20MOL0     C 2565   3.596   5.263  10.597 -0.2831  0.6711  0.1069
   20MOL0     O 2566   3.544   5.314  10.717 -0.2968 -0.5641  0.6581
   20MOL0     C 2567   3.449   5.224  10.782  0.5822 -0.0750 -0.8562
   20MOL0     C 2568   3.320   5.233  10.692  0.2176  0.6195 -1.9871
   20MOL0     C 2569   3.208   5.131  10.728 -0.4347  0.7708  1.2392
   20MOL0     C 2570   3.074   5.157  10.655 -1.1143  0.7605  0.2790
   20MOL0     C 2571   2.963   5.072  10.696 -1.1905 -0.4400 -0.4802
   20MOL0     C 2572   2.862   5.023  10.726  0.3517 -0.2529  0.5333
   20MOL0     C 2573   3.630   5.128  10.584 -0.0297  0.7462 -0.6052
   20MOL0     C 2574   3.680   5.080  10.463  0.2445 -0.0249  0.4545
   20MOL0     H 2575   3.987   4.847  10.159  0.3445  0.7677 -0.0152
   20MOL0     H 2576   4.082   4.783   9.941  0.0184  1.8476 -1.9889
   20MOL0     H 2577   4.122   4.844   9.603  2.5178  2.5657  0.3236
   20MOL0     H 2578   4.108   4.957   9.730  2.5109 -0.0856 -1.1345
   20MOL0     H 2579   4.031   5.093   9.542 -2.2014  2.2469 -1.0051
   20MOL0     H 2580   3.894   5.044   9.636  0.8159  1.8324  0.6590
   20MOL0     H 2581   3.871   4.846   9.472  1.5723 -0.2148  0.2605
   20MOL0     H 2582   3.980   4.910   9.365  0.5727 -1.1229  0.5130
   20MOL0     H 2583   3.709   5.019   9.455  0.2077 -0.9194 -1.4297
   20MOL0     H 2584   3.830   5.146   9.408  2.3131 -0.3270 -1.6251
   20MOL0     H 2585   3.660   5.054   9.237 -1.5055 -2.2638  1.4572
   20MOL0     H 2586   3.750   4.910   9.225 -2.0533  0.5137 -0.2312
   20MOL0     H 2587   3.952   5.057   9.151 -1.8684 -4.0476  0.2760
   20MOL0     H 2588   3.858   5.203   9.173 -0.3054  0.7589 -1.4738
   20MOL0     H 2589   3.822   4.990   8.963  5.3562  1.0911  1.1352
   20MOL0     H 2590   3.682   5.084   9.017  0.1945 -0.1191  1.6714
   20MOL0     H 2591   3.794   5.303   8.962 -2.3395  1.0426 -3.8890
   20MOL0     H 2592   3.763   5.204   8.829 -0.1242 -1.1406  0.8633
   20MOL0     H 2593   3.953   5.015   8.745 -0.1739  0.6446 -0.1537
   20MOL0     H 2594   4.262   4.920   8.758  0.3658 -1.2510 -1.9459
   20MOL0     H 2595   4.338   5.056   8.676  0.8577  1.9272  2.7941
   20MOL0     H 2596   4.145   5.041   8.505  2.0798 -0.0745 -1.5078
   20MOL0     H 2597   4.086   4.897   8.587  1.2913 -0.8499 -0.2253
   20MOL0     H 2598   4.216   4.874   8.377 -1.5951  3.5716  0.3276
   20MOL0     H 2599   4.359   4.932   8.459 -0.0855  0.1148  0.5391
   20MOL0     H 2600   4.386   4.744   8.595 -1.0389 -2.7688  0.6361
   20MOL0     H 2601   4.381   4.695   8.430  0.3327 -1.8590  1.2195
   20MOL0     H 2602   4.030   4.474   8.520 -0.7186 -2.8048 -1.6811
   20MOL0     H 2603   4.048   4.226   8.605  2.6469 -2.6989  1.0879
   20MOL0     H 2604   4.158   3.887   8.908 -2.1446  0.1189 -0.1229
   20MOL0     H 2605   4.154   3.641   8.935  1.3626 -0.1209  0.0752
   20MOL0     H 2606   4.014   3.409   8.838  0.6153  1.7849 -2.3480
   20MOL0     H 2607   4.163   3.428   8.931  3.1324 -3.5090  1.0140
   20MOL0     H 2608   4.228   3.237   8.741 -1.5587 -0.7769 -1.5525
   20MOL0     H 2609   4.063   3.206   8.771  2.4754 -2.0753 -3.2239
   20MOL0     H 2610   4.125   3.164   9.013 -0.1163  2.1407  0.1138
   20MOL0     H 2611   4.281   3.252   8.988  0.0794  0.1154 -3.7741
   20MOL0     H 2612   4.175   2.983   8.873  0.2134 -0.1493 -0.6700
   20MOL0     H 2613   4.336   3.041   8.839 -2.7800  0.3873 -2.0599
   20MOL0     H 2614   4.218   2.932   9.104 -3.1186 -0.3900 -4.7268
   20MOL0     H 2615   4.373   3.021   9.117  0.8614  1.4918 -3.4680
   20MOL0     H 2616   4.484   2.868   8.953 -0.2887 -1.2516 -0.7521
   20MOL0     H 2617   4.324   2.790   8.931 -5.0519  2.4534  1.2265
   20MOL0     H 2618   4.467   2.804   9.198  1.3413 -2.7186  1.4081
   20MOL0     H 2619   4.322   2.716   9.159 -0.3590  1.8085 -0.9859
   20MOL0     H 2620   4.460   2.557   9.035  0.9965 -1.5524  1.8042
   20MOL0     H 2621   4.558   2.596   9.171  0.9295  0.1642 -0.2934
   20MOL0     H 2622   4.185   3.608   8.501  0.8996 -1.0240  0.2107
   20MOL0     H 2623   4.177   3.850   8.498 -0.8680  2.2344  0.8769
   20MOL0     H 2624   4.452   4.293   8.700  1.8724  2.0943 -0.3546
   20MOL0     H 2625   4.439   4.525   8.665 -1.0334 -0.1358  1.6575
   20MOL0     H 2626   3.722   4.901   9.746  0.4866 -1.1117 -1.3281
   20MOL0     H 2627   3.628   4.967   9.961  1.2404 -0.5752  0.4085
   20MOL0     H 2628   3.673   5.369  10.275  3.0950 -0.9975 -0.4989
   20MOL0     H 2629   3.591   5.452  10.507  0.2397 -0.2121  1.7530
   20MOL0     H 2630   3.414   5.258  10.880  1.1186 -1.0282 -0.3214
   20MOL0     H 2631   3.478   5.120  10.797  2.6024  0.5102 -0.3164
   20MOL0     H 2632   3.272   5.329  10.714 -1.1822 -0.4767  0.1467
   20MOL0     H 2633   3.352   5.224  10.588  2.2193 -1.3066 -1.2982
   20MOL0     H 2634   3.191   5.134  10.836 -0.8081 -0.6256  1.2339
   20MOL0     H 2635   3.250   5.030  10.720 -1.6509  0.0772  3.0270
   20MOL0     H 2636   3.041   5.260  10.668 -1.7969  0.3751  1.7187
   20MOL0     H 2637   3.073   5.126  10.550 -2.8974 -2.5084  1.1211
   20MOL0     H 2638   2.768   4.982  10.759  0.4058 -0.1617  0.8008
   20MOL0     H 2639   3.636   5.061  10.669  2.4225  2.0279  0.3093
   20MOL0     H 2640   3.706   4.975  10.457  0.0761 -0.1739  1.9218
   21MOL0     O 2641   9.868   7.508  10.683  1.0509  0.1723 -0.3935
   21MOL0     C 2642   9.882   7.388  10.658 -0.8222 -0.0882  0.1560
   21MOL0     O 2643   9.852   7.325  10.536  0.7476  0.0481  0.0893
   21MOL0     C 2644   9.765   7.385  10.451  0.0985  0.6141  0.1689
   21MOL0     C 2645   9.759   7.321  10.328 -0.2970  0.7019  0.4990
   21MOL0     C 2646   9.659   7.352  10.236  0.5226 -0.1603  0.5197
   21MOL0     C 2647   9.561   7.451  10.260  0.2591  1.4575  0.2309
   21MOL0     O 2648   9.463   7.476  10.163 -0.1280 -0.1430  0.3997
   21MOL0     C 2649   9.462   7.426  10.027  0.3499  0.3856 -0.4358
   21MOL0     C 2650   9.363   7.300  10.016 -0.0367  0.5882 -0.1639
   21MOL0     C 2651   9.234   7.327  10.073 -0.2026 -0.6209  0.5156
   21MOL0     C 2652   9.200   7.282  10.219  1.0092 -0.3131 -0.1199
   21MOL0     C 2653   9.065   7.329  10.259 -0.5856  0.5315  0.2425
   21MOL0     C 2654   9.066   7.466  10.337  0.2254  0.4190  0.4782
   21MOL0     C 2655   8.928   7.504  10.402 -0.4311 -0.2578 -0.0207
   21MOL0     C 2656   8.830   7.530  10.285 -0.3985  0.4884 -0.1720
   21MOL0     N 2657   8.717   7.604  10.337  0.2824 -0.3636  0.3393
   21MOL0     C 2658   8.679   7.735  10.309 -0.0500  0.6309  0.6014
   21MOL0     C 2659   8.568   7.756  10.371  1.4130  0.6010  0.4249
   21MOL0     C 2660   8.478   7.881  10.380 -0.7556  0.3444  0.6508
   21MOL0     C 2661   8.520   7.984  10.475  0.2983 -0.2158 -0.7642
   21MOL0     C 2662   8.447   8.122  10.478 -0.4660  0.6166 -0.1410
   21MOL0     C 2663   8.434   8.162  10.624 -0.3261 -0.3938 -0.7395
   21MOL0     O 2664   8.389   8.292  10.616 -0.0110  1.4132  0.1249
   21MOL0     C 2665   8.259   8.328  10.577  0.3759  0.2053 -0.4917
   21MOL0     C 2666   8.244   8.464  10.578 -0.0207  0.2972 -0.1198
   21MOL0     C 2667   8.117   8.526  10.551 -0.8509  0.3272 -0.8308
   21MOL0     C 2668   8.008   8.448  10.507 -0.1792 -0.5597 -0.3347
   21MOL0     C 2669   7.883   8.526  10.469 -0.1653 -0.2929  0.2267
   21MOL0     O 2670   7.792   8.430  10.430  0.6112  0.1445  0.0009
   21MOL0     C 2671   7.664   8.469  10.401 -0.5282 -0.6883  0.5158
   21MOL0     C 2672   7.628   8.580  10.317 -0.4334 -0.2736 -0.5269
   21MOL0     C 2673   7.502   8.602  10.274 -0.7167  0.7802 -0.3026
   21MOL0     C 2674   7.394   8.533  10.324 -0.0867 -0.5249  0.4660
   21MOL0     O 2675   7.270   8.561  10.276 -0.0749 -0.1764 -0.1899
   21MOL0     C 2676   7.168   8.473  10.300  0.2085  0.2121  1.8853
   21MOL0     C 2677   7.031   8.503  10.237 -0.3786 -0.4349  0.6223
   21MOL0     C 2678   6.958   8.628  10.288 -0.5718  1.3382  0.9432
   21MOL0     C 2679   6.863   8.681  10.182 -0.0088 -0.4580 -0.6222
   21MOL0     C 2680   6.829   8.823  10.209 -0.3201  0.4453  0.5925
   21MOL0     C 2681   6.735   8.869  10.098  0.6215  0.2429  0.3684
   21MOL0     C 2682   6.710   9.016  10.126 -0.7554  0.2460 -0.0785
   21MOL0     C 2683   6.615   9.072  10.023 -0.1966  0.3238  0.6070
   21MOL0    Cl 2684   6.591   9.250  10.045 -0.1182 -0.1849 -0.1098
   21MOL0     C 2685   7.427   8.429  10.413  0.7143  0.4691  0.2549
   21MOL0     C 2686   7.556   8.397  10.446 -1.2610 -0.3458  0.1803
   21MOL0     O 2687   7.866   8.642  10.481 -0.1601  0.0889  0.1908
   21MOL0     C 2688   8.023   8.310  10.506 -0.3940 -0.0654 -0.0560
   21MOL0     C 2689   8.147   8.248  10.532  1.3640  0.0547 -0.3614
   21MOL0     N 2690   8.534   7.637  10.437 -0.0992  0.4885  0.6336
   21MOL0     N 2691   8.622   7.545  10.408  0.4230  0.4291 -0.4358
   21MOL0     C 2692   9.574   7.527  10.379  0.1353 -0.1130 -0.2995
   21MOL0     C 2693   9.671   7.497  10.472  0.4192  0.3982  0.3062
   21MOL0     C 2694   9.960   7.308  10.748  0.0889 -0.2903 -0.4004
   21MOL0     C 2695   9.998   7.360  10.872 -0.1286  0.3385 -0.2660
   21MOL0     C 2696  10.057   7.280  10.967 -1.0714 -0.1002  0.6759
   21MOL0     C 2697  10.103   7.154  10.934  0.9405  0.1034 -0.2757
   21MOL0     O 2698  10.202   7.101  11.014  0.2974 -0.2569  0.0371
   21MOL0     C 2699  10.273   6.984  10.976  0.1093  0.6881 -0.5049
   21MOL0     C 2700  10.359   6.949  11.101 -0.2053 -0.7410  0.4390
   21MOL0     C 2701  10.286   6.934  11.231  0.1364 -0.6644 -0.0384
   21MOL0     C 2702  10.388   6.924  11.344 -0.2404 -0.4206  0.6397
   21MOL0     C 2703  10.304   6.907  11.467  0.5407  0.3353 -0.4806
   21MOL0     C 2704  10.223   6.896  11.556  0.9739 -0.1117  0.7791
   21MOL0     C 2705  10.066   7.105  10.808  0.0124 -0.3822 -0.5498
   21MOL0     C 2706   9.985   7.174  10.722  0.7611  0.3550  0.0614
   21MOL0     H 2707   9.828   7.242  10.301 -0.7252  0.9729 -1.4909
   21MOL0     H 2708   9.645   7.293  10.146 -0.1988  4.4981 -2.8139
   21MOL0     H 2709   9.556   7.396   9.981 -0.5332 -0.8933 -1.4751
   21MOL0     H 2710   9.417   7.501   9.961 -0.0267  1.2063  0.7067
   21MOL0     H 2711   9.402   7.217  10.076  0.4953  1.2453  0.4130
   21MOL0     H 2712   9.358   7.273   9.910 -1.7643  1.1496 -0.2547
   21MOL0     H 2713   9.161   7.283  10.004  2.5970 -2.9708 -1.1965
   21MOL0     H 2714   9.198   7.429  10.063 -3.2433 -1.6582 -0.2429
   21MOL0     H 2715   9.215   7.173  10.221  1.6418 -0.2267  0.1038
   21MOL0     H 2716   9.271   7.318  10.293 -2.4609  2.2546  2.2541
   21MOL0     H 2717   9.022   7.246  10.315 -0.1918 -0.3823 -0.7689
   21MOL0     H 2718   9.005   7.343  10.169 -0.8406  1.5366  0.5532
   21MOL0     H 2719   9.101   7.551  10.279 -0.9627  1.0874  0.7157
   21MOL0     H 2720   9.134   7.455  10.422 -0.5241 -0.9650  0.9370
   21MOL0     H 2721   8.891   7.419  10.460 -1.5179 -0.1790 -0.5645
   21MOL0     H 2722   8.939   7.589  10.469 -0.1413 -0.5193  0.2658
   21MOL0     H 2723   8.799   7.439  10.233  1.3395  0.7336 -1.7605
   21MOL0     H 2724   8.881   7.591  10.210  2.2603 -2.8506 -1.3329
   21MOL0     H 2725   8.732   7.801  10.241 -0.0709 -0.6236 -0.6806
   21MOL0     H 2726   8.375   7.847  10.395 -1.7084  3.0089  0.7485
   21MOL0     H 2727   8.478   7.920  10.278  0.9184 -3.8258 -1.1735
   21MOL0     H 2728   8.627   8.008  10.465  0.4484  1.2657  2.7620
   21MOL0     H 2729   8.487   7.944  10.571 -0.9823  1.8695 -0.2612
   21MOL0     H 2730   8.496   8.200  10.420  0.4820  0.3073  0.2320
   21MOL0     H 2731   8.345   8.112  10.440 -0.2837 -0.2607 -0.4079
   21MOL0     H 2732   8.528   8.157  10.679  0.9080 -3.6630 -2.8148
   21MOL0     H 2733   8.361   8.093  10.668 -0.4417 -0.7971 -1.5397
   21MOL0     H 2734   8.335   8.520  10.598 -1.2109  2.7727 -1.2116
   21MOL0     H 2735   8.116   8.634  10.544 -0.5480  0.2802 -1.7360
   21MOL0     H 2736   7.708   8.633  10.267 -0.5577  0.2931 -0.1390
   21MOL0     H 2737   7.487   8.685  10.205 -0.8672 -0.1772 -1.4608
   21MOL0     H 2738   7.146   8.465  10.407  0.0323 -0.7405  1.7936
   21MOL0     H 2739   7.195   8.376  10.255 -0.3253  1.1223 -0.5700
   21MOL0     H 2740   6.980   8.406  10.248  0.3717 -0.9772 -0.4162
   21MOL0     H 2741   7.037   8.504  10.127 -3.5025 -0.1053  0.3609
   21MOL0     H 2742   7.035   8.705  10.302  0.0198  0.8944  0.2072
   21MOL0     H 2743   6.918   8.608  10.388 -2.0833  0.2202  0.1307
   21MOL0     H 2744   6.914   8.670  10.085 -0.7116  0.6684 -1.1407
   21MOL0     H 2745   6.777   8.613  10.183 -2.1659  2.1117  0.7840
   21MOL0     H 2746   6.923   8.879  10.212  0.0508 -0.1926  1.0286
   21MOL0     H 2747   6.773   8.822  10.303 -1.1201 -1.3067  0.1310
   21MOL0     H 2748   6.640   8.816  10.101  1.3159 -1.0641  3.6419
   21MOL0     H 2749   6.775   8.858   9.997 -0.8059  1.6742 -0.3950
   21MOL0     H 2750   6.678   9.029  10.229 -1.9619  1.6802 -0.5967
   21MOL0     H 2751   6.803   9.068  10.103 -0.5188 -1.1776 -2.7629
   21MOL0     H 2752   6.522   9.017  10.033  0.3025 -1.1095 -1.9867
   21MOL0     H 2753   6.646   9.049   9.921 -0.8877 -0.5363  0.5813
   21MOL0     H 2754   7.352   8.380  10.475  0.7572 -1.0700 -0.8632
   21MOL0     H 2755   7.581   8.316  10.514 -0.2774  0.8920  1.3437
   21MOL0     H 2756   7.934   8.250  10.488 -1.9091  1.9192  0.4320
   21MOL0     H 2757   8.153   8.140  10.527 -1.5986 -0.1895 -0.5861
   21MOL0     H 2758   9.507   7.608  10.405  2.9602  2.5327 -0.8282
   21MOL0     H 2759   9.676   7.548  10.568 -0.6338 -0.9137  1.0883
   21MOL0     H 2760   9.977   7.461  10.903  3.9001  0.6637  2.0724
   21MOL0     H 2761  10.086   7.334  11.057  1.8250 -3.1108  1.7517
   21MOL0     H 2762  10.338   7.002  10.890  1.3153  2.6068  0.7384
   21MOL0     H 2763  10.202   6.902  10.960 -1.0005  1.5109  0.0758
   21MOL0     H 2764  10.420   6.861  11.081  0.3684 -0.0087 -1.1335
   21MOL0     H 2765  10.424   7.037  11.096  0.5722 -1.3519 -0.4859
   21MOL0     H 2766  10.244   6.833  11.228  1.6021 -1.2891 -0.4456
   21MOL0     H 2767  10.216   7.016  11.251  0.0487 -0.8926  0.6063
   21MOL0     H 2768  10.459   6.843  11.331  1.8567  1.7764 -4.2226
   21MOL0     H 2769  10.457   7.009  11.349  0.8189 -1.3257  2.2393
   21MOL0     H 2770  10.141   6.904  11.625  0.4135 -0.2685  0.1337
   21MOL0     H 2771  10.094   7.005  10.775 -0.3583 -0.2599 -1.2548
   21MOL0     H 2772   9.945   7.115  10.640 -0.0193  0.5389  0.2983
   22MOL0     O 2773   6.632   1.499   3.118 -0.8149 -0.0078  0.2070
   22MOL0     C 2774   6.670   1.433   3.213 -0.4394 -0.3112  0.0585
   22MOL0     O 2775   6.588   1.380   3.312 -0.1212  0.2153  0.9188
   22MOL0     C 2776   6.458   1.416   3.335  0.2702 -0.0342  0.3705
   22MOL0     C 2777   6.427   1.393   3.464 -0.0517 -0.1434 -0.2482
   22MOL0     C 2778   6.294   1.405   3.500  0.9120  0.5559  0.1873
   22MOL0     C 2779   6.193   1.456   3.412 -0.0072 -0.6821 -0.4567
   22MOL0     O 2780   6.065   1.478   3.461 -0.4069  0.4398  0.2490
   22MOL0     C 2781   5.954   1.405   3.403 -0.6419  0.5286  0.1822
   22MOL0     C 2782   5.842   1.509   3.380 -0.6342 -0.1142  0.8374
   22MOL0     C 2783   5.726   1.428   3.329  0.0575 -0.5270  0.2771
   22MOL0     C 2784   5.589   1.508   3.322 -0.1754 -0.4067  0.2409
   22MOL0     C 2785   5.477   1.404   3.314 -0.6035 -0.2755  0.0747
   22MOL0     C 2786   5.484   1.315   3.186  0.6140  1.0582 -0.2848
   22MOL0     C 2787   5.359   1.233   3.159  0.0430 -0.1763  0.0507
   22MOL0     C 2788   5.364   1.155   3.034 -0.6413  0.3094 -0.0754
   22MOL0     N 2789   5.229   1.110   2.997  0.1233  0.8469  0.5923
   22MOL0     C 2790   5.155   1.155   2.896 -0.6493  0.6438  0.4259
   22MOL0     C 2791   5.056   1.063   2.882  0.5508  0.2483  0.7958
   22MOL0     C 2792   4.927   1.088   2.809  0.0814  0.2374 -0.0565
   22MOL0     C 2793   4.837   1.193   2.883 -0.2125 -0.2608  0.4176
   22MOL0     C 2794   4.758   1.118   2.995  0.4518 -0.0022  0.3130
   22MOL0     C 2795   4.644   1.025   2.935  0.5133 -0.5140  0.8091
   22MOL0     O 2796   4.518   1.027   3.003  0.0170  0.0273  0.1519
   22MOL0     C 2797   4.426   0.933   2.971 -0.4916 -0.6185  0.1685
   22MOL0     C 2798   4.418   0.848   2.862  0.1053 -1.0071  0.0588
   22MOL0     C 2799   4.298   0.771   2.838  0.6305 -0.0766 -0.6843
   22MOL0     C 2800   4.195   0.759   2.943 -0.4739 -0.0598  0.7026
   22MOL0     C 2801   4.076   0.677   2.923  1.3009  0.4921  0.1126
   22MOL0     O 2802   4.009   0.634   3.038  0.1073 -0.0695 -0.6009
   22MOL0     C 2803   3.909   0.552   3.005  0.3816  0.2750  0.3358
   22MOL0     C 2804   3.920   0.419   2.971 -0.6663  0.1870 -0.0525
   22MOL0     C 2805   3.812   0.336   2.937 -0.5797 -1.2670 -0.2581
   22MOL0     C 2806   3.679   0.393   2.930 -0.1810  0.5964  1.3131
   22MOL0     O 2807   3.567   0.319   2.888 -0.4571  0.0456 -0.2193
   22MOL0     C 2808   3.461   0.389   2.819  0.9012  0.1976 -0.2619
   22MOL0     C 2809   3.350   0.284   2.771  0.0552 -1.1476  0.2020
   22MOL0     C 2810   3.223   0.351   2.730  0.4496 -0.2503  0.1553
   22MOL0     C 2811   3.110   0.258   2.672 -0.0500  0.3676 -0.7199
   22MOL0     C 2812   2.981   0.336   2.652  0.5894  0.1303  0.5795
   22MOL0     C 2813   2.883   0.248   2.584 -0.1242 -0.7330 -0.6260
   22MOL0     C 2814   2.752   0.316   2.573 -0.2023 -0.3139  0.2095
   22MOL0     C 2815   2.656   0.229   2.487 -0.4423 -0.1601  0.3886
   22MOL0    Cl 2816   2.680   0.243   2.315 -0.2163  0.3516  0.4371
   22MOL0     C 2817   3.666   0.527   2.963 -0.8965 -0.4251  0.1455
   22MOL0     C 2818   3.782   0.608   3.001 -0.1028  0.2629 -1.2796
   22MOL0     O 2819   4.050   0.645   2.804  0.6995  0.5057  1.0154
   22MOL0     C 2820   4.202   0.842   3.051 -0.4132  0.5542 -0.0110
   22MOL0     C 2821   4.320   0.929   3.058  0.7636  0.2448  0.0122
   22MOL0     N 2822   5.070   0.973   2.982 -0.1375  0.2461  0.0630
   22MOL0     N 2823   5.173   1.002   3.051 -0.7642  0.0812 -0.3971
   22MOL0     C 2824   6.240   1.499   3.283 -0.0882 -0.3524 -0.2814
   22MOL0     C 2825   6.371   1.480   3.247 -0.4200  0.5079  0.1349
   22MOL0     C 2826   6.815   1.419   3.217  0.7045 -0.5958 -0.2195
   22MOL0     C 2827   6.894   1.439   3.100  0.7426 -0.0757 -0.3907
   22MOL0     C 2828   7.031   1.435   3.119  0.4014  0.0803 -0.0339
   22MOL0     C 2829   7.091   1.399   3.238 -0.3376 -0.0866 -0.0834
   22MOL0     O 2830   7.226   1.393   3.211  0.0919  0.3622 -0.1204
   22MOL0     C 2831   7.298   1.357   3.330  0.3733 -0.4134  0.5699
   22MOL0     C 2832   7.442   1.325   3.278 -0.3166  0.0712  0.4767
   22MOL0     C 2833   7.528   1.230   3.361  0.2993 -0.2581 -0.0122
   22MOL0     C 2834   7.576   1.306   3.488 -0.0032  0.0063  0.0865
   22MOL0     C 2835   7.467   1.313   3.583 -0.2238  0.6099 -0.0619
   22MOL0     C 2836   7.377   1.308   3.660 -0.0447 -0.8729 -0.0357
   22MOL0     C 2837   7.015   1.368   3.351  0.7401  0.5895 -0.4489
   22MOL0     C 2838   6.873   1.381   3.341 -0.8745 -0.7902  0.0320
   22MOL0     H 2839   6.485   1.358   3.549 -0.3919  2.4241  1.1431
   22MOL0     H 2840   6.265   1.370   3.598  1.0468  2.2083  0.8434
   22MOL0     H 2841   5.925   1.321   3.466 -1.7647  0.5838 -0.2373
   22MOL0     H 2842   5.999   1.363   3.312 -1.6814 -1.2304  0.4561
   22MOL0     H 2843   5.882   1.584   3.311 -2.1688  0.8390  0.9581
   22MOL0     H 2844   5.815   1.565   3.470  1.6845  1.7264  0.4954
   22MOL0     H 2845   5.701   1.354   3.405 -0.4103 -0.1715  0.4775
   22MOL0     H 2846   5.750   1.383   3.232 -2.4698 -0.0942 -0.6338
   22MOL0     H 2847   5.586   1.575   3.408  2.4688 -0.8176  0.7461
   22MOL0     H 2848   5.579   1.560   3.226 -0.0805 -0.3584  0.2571
   22MOL0     H 2849   5.381   1.457   3.316  0.9964  2.8282  0.1647
   22MOL0     H 2850   5.487   1.342   3.404  0.1207 -2.3769 -1.3544
   22MOL0     H 2851   5.563   1.239   3.193 -0.2246 -0.0566 -2.2089
   22MOL0     H 2852   5.498   1.381   3.100 -2.5257  0.5340 -1.3233
   22MOL0     H 2853   5.349   1.168   3.247 -0.2431 -0.0547  0.1094
   22MOL0     H 2854   5.270   1.297   3.155  1.3050  1.6933  0.4964
   22MOL0     H 2855   5.428   1.070   3.057  3.4174  2.8580 -0.8212
   22MOL0     H 2856   5.416   1.200   2.949 -0.1936 -0.1857 -0.0629
   22MOL0     H 2857   5.161   1.253   2.850  3.8080  0.3185 -0.0644
   22MOL0     H 2858   4.873   0.994   2.819  0.9266 -0.5898 -2.5991
   22MOL0     H 2859   4.929   1.109   2.701 -3.6952 -3.3375 -1.0514
   22MOL0     H 2860   4.765   1.242   2.816  2.9275  1.3882 -1.9996
   22MOL0     H 2861   4.898   1.275   2.921  0.8463 -0.1805 -1.3765
   22MOL0     H 2862   4.829   1.056   3.051  2.5824 -0.3140 -2.5023
   22MOL0     H 2863   4.706   1.190   3.060  1.5530 -0.9593  2.3483
   22MOL0     H 2864   4.687   0.924   2.945  2.2916  0.0149 -0.7991
   22MOL0     H 2865   4.632   1.046   2.828  0.7858  1.4914  1.1350
   22MOL0     H 2866   4.495   0.846   2.785  0.6370  0.2560  0.5224
   22MOL0     H 2867   4.294   0.703   2.753 -0.2597  0.6833 -1.2646
   22MOL0     H 2868   4.019   0.376   2.981 -1.2700 -1.0315  0.8778
   22MOL0     H 2869   3.832   0.237   2.898 -0.4158 -2.0958  1.8244
   22MOL0     H 2870   3.510   0.452   2.743  2.2446  0.2613  0.6328
   22MOL0     H 2871   3.412   0.451   2.895  0.2301 -1.4459  0.6760
   22MOL0     H 2872   3.329   0.217   2.855  1.8320 -0.2288  1.4542
   22MOL0     H 2873   3.400   0.224   2.694  0.2983  0.4424 -0.9281
   22MOL0     H 2874   3.254   0.430   2.662  1.1501  1.2067  2.0504
   22MOL0     H 2875   3.178   0.412   2.809 -0.7638  2.1163 -2.2336
   22MOL0     H 2876   3.139   0.212   2.577  0.1822 -0.6345 -0.1755
   22MOL0     H 2877   3.087   0.184   2.749  0.8107 -0.3241 -1.1127
   22MOL0     H 2878   3.008   0.425   2.594  0.9939 -0.9605 -0.9757
   22MOL0     H 2879   2.946   0.373   2.748  1.0779  1.0590  0.4126
   22MOL0     H 2880   2.870   0.148   2.627 -1.4062 -1.0509 -1.7097
   22MOL0     H 2881   2.912   0.227   2.481 -0.3744  0.5432 -0.9771
   22MOL0     H 2882   2.710   0.325   2.674 -3.1657  0.7864 -1.0344
   22MOL0     H 2883   2.765   0.414   2.527  0.1332  0.6780  2.2794
   22MOL0     H 2884   2.552   0.263   2.496 -0.7484  0.1261 -2.9145
   22MOL0     H 2885   2.644   0.126   2.523 -0.6193 -0.0033  0.7824
   22MOL0     H 2886   3.567   0.572   2.956 -0.7888 -0.4063 -1.6472
   22MOL0     H 2887   3.775   0.712   3.031 -0.0937 -0.5076  1.6989
   22MOL0     H 2888   4.127   0.846   3.130  1.6171  2.0907  1.9993
   22MOL0     H 2889   4.317   0.988   3.149  0.7572 -0.1725  0.2859
   22MOL0     H 2890   6.167   1.539   3.213 -2.8203 -1.5030  1.7199
   22MOL0     H 2891   6.399   1.497   3.144  0.8404  1.1659  0.5645
   22MOL0     H 2892   6.845   1.458   3.005 -0.3259 -0.0320  0.1473
   22MOL0     H 2893   7.095   1.467   3.038  0.7831  2.8796  1.2561
   22MOL0     H 2894   7.257   1.266   3.374  2.8543 -1.9435 -0.0443
   22MOL0     H 2895   7.294   1.425   3.415  0.5749 -3.0758  2.8545
   22MOL0     H 2896   7.445   1.277   3.180  3.1562 -0.7077  0.8368
   22MOL0     H 2897   7.487   1.424   3.276 -2.5178  1.1359  0.0104
   22MOL0     H 2898   7.621   1.209   3.309 -0.1751  2.2984 -2.1178
   22MOL0     H 2899   7.469   1.145   3.396  3.4785 -2.3307  0.7090
   22MOL0     H 2900   7.658   1.258   3.542 -1.1560 -3.8520 -1.2275
   22MOL0     H 2901   7.606   1.408   3.463 -0.7859  0.0300 -0.8252
   22MOL0     H 2902   7.289   1.300   3.719  1.2386 -1.1963  1.9232
   22MOL0     H 2903   7.053   1.345   3.450  1.5408  0.8688 -0.6797
   22MOL0     H 2904   6.810   1.355   3.425  1.4786 -0.0878  2.1313
   23MOL0     O 2905   5.664   6.161   5.655  0.2157  0.0281  0.9449
   23MOL0     C 2906   5.659   6.247   5.739  0.6608  0.3624 -0.2069
   23MOL0     O 2907   5.540   6.289   5.797 -0.2206 -0.0066 -0.0393
   23MOL0     C 2908   5.426   6.214   5.776  0.2682 -0.5225 -0.1471
   23MOL0     C 2909   5.417   6.075   5.788 -0.0958  0.1147  0.2465
   23MOL0     C 2910   5.293   6.007   5.769  0.0388  0.6534  0.6602
   23MOL0     C 2911   5.185   6.072   5.710  0.8052  0.4887 -0.5241
   23MOL0     O 2912   5.066   6.005   5.682 -0.5033  0.2766 -0.0892
   23MOL0     C 2913   4.998   5.939   5.795 -0.1076 -0.5730  0.1905
   23MOL0     C 2914   4.857   5.908   5.749 -0.3020 -0.3847  0.5819
   23MOL0     C 2915   4.795   5.786   5.832 -0.8015  0.2723 -0.0544
   23MOL0     C 2916   4.664   5.742   5.767  0.6134 -0.6329 -0.9342
   23MOL0     C 2917   4.612   5.620   5.846  0.6556  0.6988  0.2501
   23MOL0     C 2918   4.474   5.575   5.792  0.1585 -0.4979  0.2558
   23MOL0     C 2919   4.420   5.458   5.877  0.2802  0.1425  0.1352
   23MOL0     C 2920   4.306   5.376   5.800 -0.9083  0.2839 -0.7579
   23MOL0     N 2921   4.184   5.453   5.796  0.1488 -0.5594  0.5035
   23MOL0     C 2922   4.076   5.468   5.889  0.1028  0.1264  0.1315
   23MOL0     C 2923   4.001   5.576   5.853  0.4500  0.6948  0.5213
   23MOL0     C 2924   3.894   5.648   5.917  0.0890 -0.1304  0.3266
   23MOL0     C 2925   3.783   5.649   5.814 -0.1526 -0.0264  0.2922
   23MOL0     C 2926   3.718   5.519   5.786  0.2686  0.1580 -0.0176
   23MOL0     C 2927   3.580   5.554   5.721  0.4930 -0.0015  0.7859
   23MOL0     O 2928   3.492   5.588   5.821  0.2361 -0.1672  0.3299
   23MOL0     C 2929   3.365   5.615   5.795 -0.1290 -0.8416  0.9362
   23MOL0     C 2930   3.292   5.656   5.911  1.3126 -0.3789  0.2470
   23MOL0     C 2931   3.151   5.664   5.910  0.0211 -1.1515 -0.0279
   23MOL0     C 2932   3.086   5.631   5.796 -0.8226  0.8934 -0.4966
   23MOL0     C 2933   2.934   5.635   5.792  0.0334  0.0912 -0.4672
   23MOL0     O 2934   2.879   5.617   5.675 -0.7266 -0.2950 -0.6449
   23MOL0     C 2935   2.744   5.635   5.661  0.7806 -0.1414 -0.4104
   23MOL0     C 2936   2.678   5.751   5.707 -0.8950  0.1037  0.2808
   23MOL0     C 2937   2.542   5.767   5.675  0.0188  0.5139  0.2075
   23MOL0     C 2938   2.471   5.680   5.592 -0.5387  0.0463 -0.0945
   23MOL0     O 2939   2.345   5.710   5.548 -0.2020 -0.3956 -0.6096
   23MOL0     C 2940   2.247   5.719   5.657  0.1269  0.1959 -0.0616
   23MOL0     C 2941   2.113   5.683   5.588  0.5526 -0.2477 -0.2995
   23MOL0     C 2942   1.993   5.708   5.673  1.1211 -0.2713 -0.2272
   23MOL0     C 2943   1.865   5.686   5.582 -0.6010 -1.0226 -0.0003
   23MOL0     C 2944   1.750   5.711   5.684 -0.6513  0.4350  0.9572
   23MOL0     C 2945   1.623   5.687   5.610  0.1369  0.2275 -0.8045
   23MOL0     C 2946   1.502   5.709   5.701 -0.4644 -0.2695  1.3264
   23MOL0     C 2947   1.369   5.689   5.634  0.7949  0.1838  0.6452
   23MOL0    Cl 2948   1.338   5.536   5.565  0.3659 -0.0270  0.1688
   23MOL0     C 2949   2.540   5.571   5.547 -0.1105  0.2175 -0.8874
   23MOL0     C 2950   2.672   5.539   5.586 -0.4507  0.0466 -0.6963
   23MOL0     O 2951   2.878   5.634   5.901  0.0801  0.2480 -0.3864
   23MOL0     C 2952   3.161   5.604   5.673 -0.8017 -0.6752  0.0020
   23MOL0     C 2953   3.303   5.598   5.670 -0.5833 -0.4827  0.3586
   23MOL0     N 2954   4.043   5.608   5.731 -0.2976 -1.1845 -0.3272
   23MOL0     N 2955   4.142   5.540   5.695  0.6406  0.0512  0.0369
   23MOL0     C 2956   5.182   6.208   5.703  0.1728 -0.4702  0.0217
   23MOL0     C 2957   5.305   6.280   5.739 -0.2438 -0.5664  0.1161
   23MOL0     C 2958   5.792   6.291   5.790  0.9969 -0.2666  1.5252
   23MOL0     C 2959   5.812   6.380   5.899  0.6978  0.0353  0.0245
   23MOL0     C 2960   5.935   6.442   5.936  0.2141  0.6622  0.2562
   23MOL0     C 2961   6.046   6.405   5.860  0.4681  0.0257  0.0334
   23MOL0     O 2962   6.170   6.457   5.881 -0.2802 -0.4075 -0.0442
   23MOL0     C 2963   6.202   6.547   5.981  0.1390  0.2991  0.3828
   23MOL0     C 2964   6.349   6.575   5.985  0.2108  0.4976  0.0842
   23MOL0     C 2965   6.399   6.635   5.857 -1.1301  0.1984  0.6574
   23MOL0     C 2966   6.557   6.639   5.847  0.7050 -0.1532 -0.7567
   23MOL0     C 2967   6.628   6.704   5.953  0.0853 -0.4477  0.5086
   23MOL0     C 2968   6.677   6.767   6.048  0.1178  1.5992 -0.1904
   23MOL0     C 2969   6.038   6.316   5.754 -0.3605 -0.3071 -0.1922
   23MOL0     C 2970   5.908   6.257   5.724  0.9794 -0.4640 -0.1142
   23MOL0     H 2971   5.497   6.006   5.813 -0.5006 -0.5144 -0.1696
   23MOL0     H 2972   5.292   5.899   5.776  0.8143  0.6835  1.4162
   23MOL0     H 2973   4.994   6.018   5.871  0.6006  0.3914 -0.7384
   23MOL0     H 2974   5.058   5.858   5.835  2.1289  0.6364 -0.5491
   23MOL0     H 2975   4.862   5.891   5.640 -0.1200 -1.1922  0.7053
   23MOL0     H 2976   4.789   5.993   5.749 -0.6059 -0.5288 -2.2268
   23MOL0     H 2977   4.781   5.821   5.935 -5.2319  0.1450 -0.4005
   23MOL0     H 2978   4.860   5.700   5.848  1.6653  1.6693 -1.8753
   23MOL0     H 2979   4.594   5.826   5.775  0.8357 -0.3491 -1.8937
   23MOL0     H 2980   4.677   5.718   5.661 -0.7725 -1.8097 -0.8720
   23MOL0     H 2981   4.602   5.657   5.949 -2.0112  1.6924 -0.3019
   23MOL0     H 2982   4.683   5.536   5.847  1.5668  1.4395  1.0800
   23MOL0     H 2983   4.481   5.547   5.687  3.3943  1.5412 -0.2125
   23MOL0     H 2984   4.398   5.654   5.787  0.8711  0.1455 -0.7909
   23MOL0     H 2985   4.505   5.390   5.886  0.2387 -0.4982 -3.1063
   23MOL0     H 2986   4.383   5.492   5.974 -0.2266 -0.2054  0.0672
   23MOL0     H 2987   4.291   5.282   5.854 -0.2375 -1.0394 -2.7502
   23MOL0     H 2988   4.344   5.359   5.699  0.3114  0.9338 -0.4382
   23MOL0     H 2989   4.056   5.403   5.974 -1.9256  1.8525  1.0762
   23MOL0     H 2990   3.921   5.750   5.947 -1.1119  0.3651 -0.2042
   23MOL0     H 2991   3.863   5.593   6.006 -2.6069  1.6065  0.5909
   23MOL0     H 2992   3.809   5.694   5.718 -2.1306  0.6475  0.0133
   23MOL0     H 2993   3.707   5.713   5.861 -1.9180 -1.3769 -0.6083
   23MOL0     H 2994   3.782   5.459   5.721  2.2991 -0.6290  2.5465
   23MOL0     H 2995   3.697   5.458   5.874 -0.4957 -1.8685 -1.5043
   23MOL0     H 2996   3.542   5.474   5.657 -2.5487  1.3185  0.8092
   23MOL0     H 2997   3.583   5.632   5.644 -2.1343 -0.3123  0.2767
   23MOL0     H 2998   3.344   5.650   6.006  0.0804  0.0083  0.9771
   23MOL0     H 2999   3.100   5.685   6.003  1.2409  0.1207  0.3827
   23MOL0     H 3000   2.737   5.823   5.764  0.7360  0.0326 -1.2560
   23MOL0     H 3001   2.498   5.861   5.708 -1.1406 -0.2874  0.9882
   23MOL0     H 3002   2.238   5.822   5.695 -1.6555 -0.9874  3.1169
   23MOL0     H 3003   2.264   5.654   5.743  0.0148  0.5032  0.1946
   23MOL0     H 3004   2.110   5.582   5.546  2.8622  0.0598 -1.3364
   23MOL0     H 3005   2.110   5.746   5.499  0.0584  1.4674  0.8752
   23MOL0     H 3006   1.998   5.813   5.703  2.0050  0.8772 -3.9005
   23MOL0     H 3007   1.992   5.638   5.757  0.2657 -0.7032 -0.5783
   23MOL0     H 3008   1.850   5.755   5.498  1.0276 -1.6429 -0.8455
   23MOL0     H 3009   1.867   5.586   5.538  0.6141 -2.3401  2.7988
   23MOL0     H 3010   1.752   5.817   5.709  0.3967  1.0215 -1.3405
   23MOL0     H 3011   1.764   5.652   5.776 -2.3707  2.3924  2.5687
   23MOL0     H 3012   1.621   5.583   5.576  2.1490 -0.7667  1.7737
   23MOL0     H 3013   1.622   5.759   5.529  0.9662  0.7832 -0.3295
   23MOL0     H 3014   1.510   5.640   5.786  2.3831  1.2111  2.4072
   23MOL0     H 3015   1.509   5.810   5.742 -2.9144  0.9287 -0.9716
   23MOL0     H 3016   1.357   5.760   5.552  0.3444 -0.2600  0.3230
   23MOL0     H 3017   1.301   5.705   5.718  1.1095  2.5916  0.5095
   23MOL0     H 3018   2.492   5.493   5.488  0.2583  1.2750 -2.6670
   23MOL0     H 3019   2.717   5.444   5.560 -1.0812 -1.3346  2.7538
   23MOL0     H 3020   3.114   5.588   5.577  0.0910  1.9012 -0.9610
   23MOL0     H 3021   3.368   5.585   5.584  1.9332  2.2974  1.6386
   23MOL0     H 3022   5.086   6.252   5.682  0.0500 -1.1509 -0.9135
   23MOL0     H 3023   5.303   6.388   5.732 -0.8865 -0.3377  2.6824
   23MOL0     H 3024   5.724   6.410   5.954  0.7197 -0.7954  0.5267
   23MOL0     H 3025   5.942   6.508   6.022  0.1650  1.2406 -0.1784
   23MOL0     H 3026   6.174   6.515   6.082 -0.9270  0.7006  0.2224
   23MOL0     H 3027   6.152   6.639   5.949  0.6198  0.5535  0.3553
   23MOL0     H 3028   6.387   6.619   6.077 -0.3009 -3.0562  2.1706
   23MOL0     H 3029   6.404   6.484   6.008  0.8443  0.7554 -0.3733
   23MOL0     H 3030   6.368   6.739   5.840  1.0527  0.3933 -3.2230
   23MOL0     H 3031   6.363   6.573   5.774 -0.7911  1.9539 -0.8816
   23MOL0     H 3032   6.597   6.538   5.835  4.4875  1.1583 -0.6404
   23MOL0     H 3033   6.575   6.695   5.755  0.8774  0.8718 -0.1143
   23MOL0     H 3034   6.710   6.820   6.135 -2.3596  0.2359  1.6923
   23MOL0     H 3035   6.124   6.281   5.699 -0.8100 -0.1539 -1.0129
   23MOL0     H 3036   5.909   6.187   5.640  0.1123  1.8205 -2.1345
   24MOL0     O 3037  10.383   8.373   2.333  0.4194  0.4974 -0.2784
   24MOL0     C 3038  10.290   8.333   2.402  0.8525  0.5438 -1.1124
   24MOL0     O 3039  10.299   8.294   2.535  0.4569 -0.3584  0.0694
   24MOL0     C 3040  10.428   8.281   2.589  0.2619 -0.2151 -0.8344
   24MOL0     C 3041  10.438   8.320   2.721 -1.1673  0.3255  0.2090
   24MOL0     C 3042  10.571   8.325   2.780  1.2214 -0.0138 -0.1877
   24MOL0     C 3043  10.679   8.266   2.711 -0.2562  0.6226  0.3379
   24MOL0     O 3044  10.799   8.267   2.778  0.1850 -0.0408 -0.5351
   24MOL0     C 3045  10.909   8.197   2.719  0.0153  0.2217  0.1497
   24MOL0     C 3046  11.012   8.153   2.826 -0.1848 -0.4933  0.7111
   24MOL0     C 3047  11.127   8.087   2.768 -0.2526 -0.8800  0.6045
   24MOL0     C 3048  11.205   8.027   2.887 -0.4556 -0.9178  1.2097
   24MOL0     C 3049  11.338   7.975   2.825  0.0804 -0.5330  0.0479
   24MOL0     C 3050  11.431   8.095   2.805 -1.0808 -0.3583 -0.1909
   24MOL0     C 3051  11.584   8.057   2.823 -0.0339  0.6448  0.8149
   24MOL0     C 3052  11.620   7.948   2.721 -0.0988  0.4213  0.3392
   24MOL0     N 3053  11.753   7.882   2.743  0.0808  0.3015  0.2136
   24MOL0     C 3054  11.774   7.751   2.709  0.1610  0.5071 -0.7603
   24MOL0     C 3055  11.908   7.737   2.721 -0.4914  0.0284 -0.0522
   24MOL0     C 3056  12.000   7.621   2.694  0.2155 -0.2261  0.3191
   24MOL0     C 3057  12.034   7.547   2.826 -0.3503 -0.3942  0.1399
   24MOL0     C 3058  12.160   7.457   2.818 -0.2088  0.2464 -0.7152
   24MOL0     C 3059  12.167   7.373   2.944  0.2423  0.0239 -0.5469
   24MOL0     O 3060  12.297   7.314   2.965 -0.0737  0.0373 -0.1955
   24MOL0     C 3061  12.405   7.388   2.998 -0.4563  0.6117  1.0172
   24MOL0     C 3062  12.396   7.521   3.046  0.0823 -0.2626  0.2605
   24MOL0     C 3063  12.517   7.591   3.091 -0.2539 -1.3499 -0.4206
   24MOL0     C 3064  12.644   7.537   3.066 -0.1215  0.3801 -0.3128
   24MOL0     C 3065  12.768   7.598   3.109 -0.1844 -0.1493  0.6483
   24MOL0     O 3066  12.888   7.564   3.045  0.0016  0.2023  0.3032
   24MOL0     C 3067  13.006   7.617   3.082 -0.5682  0.0265 -0.6994
   24MOL0     C 3068  13.117   7.542   3.043  0.6348  0.5077 -0.8413
   24MOL0     C 3069  13.235   7.581   3.091  0.7236  0.0698 -0.1179
   24MOL0     C 3070  13.259   7.703   3.166 -0.9907  0.6078 -0.8210
   24MOL0     O 3071  13.379   7.736   3.217  0.0854 -0.1031  0.8707
   24MOL0     C 3072  13.496   7.704   3.154 -0.2201 -0.0026  0.4480
   24MOL0     C 3073  13.617   7.750   3.231  0.0064 -0.5560  0.1490
   24MOL0     C 3074  13.619   7.904   3.259  0.6160  0.1660 -0.0350
   24MOL0     C 3075  13.760   7.943   3.301 -0.0264  0.1353  0.4323
   24MOL0     C 3076  13.862   7.949   3.179 -0.1032 -0.2038 -0.8896
   24MOL0     C 3077  14.004   7.968   3.233 -0.6663 -0.5640 -0.0218
   24MOL0     C 3078  14.027   8.068   3.355 -0.7010 -0.0547 -0.2156
   24MOL0     C 3079  14.172   8.086   3.376 -0.3843  0.3733  0.1120
   24MOL0    Cl 3080  14.258   8.142   3.226 -0.1890  0.0396 -0.2558
   24MOL0     C 3081  13.151   7.779   3.204  0.8966  0.8845  0.3395
   24MOL0     C 3082  13.027   7.741   3.152 -0.2253 -0.0352 -0.0486
   24MOL0     O 3083  12.760   7.686   3.195 -0.0342  0.4317  0.4178
   24MOL0     C 3084  12.654   7.410   3.011 -0.1157 -0.3578  0.2757
   24MOL0     C 3085  12.532   7.347   2.974 -0.7393  0.0011 -0.2538
   24MOL0     N 3086  11.963   7.855   2.766 -0.0704 -0.8150 -0.3529
   24MOL0     N 3087  11.870   7.943   2.782  0.1935  1.1771 -1.0126
   24MOL0     C 3088  10.663   8.228   2.578  0.6776  0.7224  0.0904
   24MOL0     C 3089  10.534   8.229   2.523  0.4250  0.2911 -0.1530
   24MOL0     C 3090  10.158   8.323   2.339  1.0863  0.0436 -0.5180
   24MOL0     C 3091  10.145   8.354   2.202 -0.0338  0.5029 -1.2308
   24MOL0     C 3092  10.026   8.347   2.134  0.7700  0.7659  0.3564
   24MOL0     C 3093   9.913   8.314   2.207  1.0211 -0.4196  0.2813
   24MOL0     O 3094   9.792   8.323   2.136  0.1804  0.5388  0.4541
   24MOL0     C 3095   9.673   8.266   2.195  0.3054 -0.5173 -0.5373
   24MOL0     C 3096   9.552   8.321   2.110  0.0001 -0.2121  0.0706
   24MOL0     C 3097   9.422   8.287   2.175 -0.1072 -0.0973  0.5408
   24MOL0     C 3098   9.314   8.352   2.096 -0.2851  1.0370  0.3998
   24MOL0     C 3099   9.252   8.255   2.010 -0.2595  0.8254  0.3686
   24MOL0     C 3100   9.181   8.178   1.943 -0.1773  0.2329 -0.1330
   24MOL0     C 3101   9.932   8.277   2.345 -0.0546  0.2196 -0.4452
   24MOL0     C 3102  10.046   8.282   2.418 -0.0854  0.2705 -0.2062
   24MOL0     H 3103  10.356   8.371   2.772 -3.6789 -0.7348 -2.4880
   24MOL0     H 3104  10.586   8.376   2.874 -1.9867  1.0466 -0.1226
   24MOL0     H 3105  10.955   8.266   2.648 -0.9473  1.4968  0.7242
   24MOL0     H 3106  10.868   8.103   2.682  1.8745 -0.7687  0.4972
   24MOL0     H 3107  10.968   8.083   2.899  0.7737  2.7714  4.7827
   24MOL0     H 3108  11.035   8.232   2.898 -0.8414 -1.1261  1.6547
   24MOL0     H 3109  11.187   8.167   2.724 -2.0292  1.5416  2.2942
   24MOL0     H 3110  11.091   8.015   2.694 -0.1183 -2.5511  2.1107
   24MOL0     H 3111  11.230   8.091   2.972  4.2457 -3.8041  2.3727
   24MOL0     H 3112  11.152   7.936   2.918 -1.8890 -0.1192  1.2297
   24MOL0     H 3113  11.332   7.929   2.727  0.7864 -1.1204  0.2749
   24MOL0     H 3114  11.378   7.906   2.900  0.9354  1.2296  1.3028
   24MOL0     H 3115  11.412   8.180   2.871 -0.8828 -1.0827  0.8281
   24MOL0     H 3116  11.426   8.138   2.705  0.8867 -0.7843 -0.5214
   24MOL0     H 3117  11.651   8.143   2.812  0.6619  0.7095  4.4040
   24MOL0     H 3118  11.598   8.013   2.922 -1.8804 -0.7993  0.4907
   24MOL0     H 3119  11.624   7.998   2.624 -2.0346  2.1005  1.0675
   24MOL0     H 3120  11.545   7.868   2.713  1.0101 -0.5120 -1.7587
   24MOL0     H 3121  11.702   7.672   2.687  1.6083 -1.9323  2.3815
   24MOL0     H 3122  12.095   7.657   2.654  0.5643  2.8761  3.3633
   24MOL0     H 3123  11.947   7.548   2.634 -0.8706 -0.3688  1.4029
   24MOL0     H 3124  11.947   7.484   2.843 -0.7532  0.1148 -0.0325
   24MOL0     H 3125  12.055   7.615   2.909  2.3967 -2.3859  1.2277
   24MOL0     H 3126  12.161   7.389   2.733 -1.4059  0.2557 -0.7542
   24MOL0     H 3127  12.251   7.517   2.826  2.7558 -4.0493  1.8905
   24MOL0     H 3128  12.088   7.298   2.931 -1.5533  1.6605  0.3344
   24MOL0     H 3129  12.128   7.439   3.021 -1.9018  0.5207 -1.9634
   24MOL0     H 3130  12.294   7.557   3.063  0.0164 -1.1745  2.0671
   24MOL0     H 3131  12.511   7.682   3.148  2.9392 -2.2871  1.6465
   24MOL0     H 3132  13.102   7.447   2.993 -1.0544 -1.1491  2.4882
   24MOL0     H 3133  13.318   7.519   3.060  1.1720 -1.4428  3.5743
   24MOL0     H 3134  13.513   7.755   3.059 -3.9583  0.3579 -0.1939
   24MOL0     H 3135  13.510   7.595   3.157  1.9303  0.2366  0.6841
   24MOL0     H 3136  13.700   7.718   3.168 -1.2624 -2.2170 -0.7564
   24MOL0     H 3137  13.624   7.694   3.325 -1.7017 -2.0440 -0.5513
   24MOL0     H 3138  13.546   7.921   3.338 -0.1382 -1.1044 -0.4308
   24MOL0     H 3139  13.579   7.960   3.174 -0.1334 -1.2969 -0.6902
   24MOL0     H 3140  13.756   8.038   3.354  0.1214  1.9001 -2.5268
   24MOL0     H 3141  13.783   7.863   3.373 -0.9566 -0.3951  0.1540
   24MOL0     H 3142  13.834   8.038   3.121 -1.0378  0.6415  0.7787
   24MOL0     H 3143  13.852   7.862   3.114 -2.0598 -0.3793 -0.4197
   24MOL0     H 3144  14.069   8.000   3.151 -0.9893 -0.7380 -0.3429
   24MOL0     H 3145  14.047   7.878   3.277  0.5219  0.3743  0.8071
   24MOL0     H 3146  13.983   8.166   3.331  3.8679  2.6237  1.1334
   24MOL0     H 3147  13.981   8.024   3.444 -0.4929 -3.4783 -1.6779
   24MOL0     H 3148  14.213   7.991   3.410  0.0011  0.8432  1.0175
   24MOL0     H 3149  14.182   8.156   3.461  3.8728  1.1809 -0.8212
   24MOL0     H 3150  13.165   7.860   3.275  1.5981  0.0419  1.1789
   24MOL0     H 3151  12.954   7.808   3.196  0.1367 -1.2561  2.6036
   24MOL0     H 3152  12.751   7.365   2.992 -0.9800 -1.6777 -1.4278
   24MOL0     H 3153  12.544   7.248   2.930  1.6590 -2.0176  4.1517
   24MOL0     H 3154  10.746   8.198   2.515  0.9103  1.2984  0.1163
   24MOL0     H 3155  10.525   8.201   2.419 -2.4784  0.6425 -0.0956
   24MOL0     H 3156  10.234   8.383   2.148  1.2909  0.6073  0.8922
   24MOL0     H 3157  10.014   8.360   2.027  1.5338 -0.2518  0.1314
   24MOL0     H 3158   9.665   8.291   2.301 -3.4483 -1.8798 -0.3502
   24MOL0     H 3159   9.681   8.158   2.178 -0.7263 -0.2940 -2.8582
   24MOL0     H 3160   9.558   8.429   2.102  0.6918 -0.3564 -1.5753
   24MOL0     H 3161   9.551   8.280   2.009 -3.0321  1.2529 -0.6084
   24MOL0     H 3162   9.425   8.315   2.281  2.5464  0.7076  0.3309
   24MOL0     H 3163   9.416   8.179   2.188  1.1174 -0.1921  0.4333
   24MOL0     H 3164   9.241   8.386   2.171 -1.3175  3.3957 -1.5662
   24MOL0     H 3165   9.355   8.446   2.060  1.3672  0.6543  1.2063
   24MOL0     H 3166   9.111   8.122   1.885  3.2292 -1.8951 -2.6288
   24MOL0     H 3167   9.845   8.256   2.406  1.0582  0.3663  1.2476
   24MOL0     H 3168  10.055   8.279   2.526  2.7176 -0.2674 -0.3718
   25MOL0     O 3169  10.956  11.101  10.270  0.1373  0.0255 -0.6498
   25MOL0     C 3170  10.998  11.048  10.168  0.0671  0.0516  0.5479
   25MOL0     O 3171  10.922  10.994  10.062  0.5073  0.0247 -1.0754
   25MOL0     C 3172  10.780  11.025  10.059 -0.9586  0.2702 -0.5811
   25MOL0     C 3173  10.735  11.159  10.082 -0.4414  0.2551  0.0858
   25MOL0     C 3174  10.596  11.178  10.078 -0.6603  1.1564 -0.5398
   25MOL0     C 3175  10.508  11.074  10.070 -0.1390 -0.2376 -0.7754
   25MOL0     O 3176  10.381  11.110  10.082 -0.1063 -0.1799  0.3668
   25MOL0     C 3177  10.281  11.008  10.102 -0.3496  0.6451  0.3231
   25MOL0     C 3178  10.154  11.067  10.066  0.4819 -0.7104 -0.9113
   25MOL0     C 3179  10.041  10.961  10.078 -0.2796 -0.6963  0.5261
   25MOL0     C 3180   9.907  11.022  10.033  0.4932 -0.3049 -0.2752
   25MOL0     C 3181   9.806  10.916  10.021  0.4111 -0.7873 -0.1618
   25MOL0     C 3182   9.661  10.975  10.012 -0.8242 -0.3754 -0.0673
   25MOL0     C 3183   9.547  10.860  10.002  0.2443 -1.0551  0.1740
   25MOL0     C 3184   9.403  10.929  10.005 -0.6692 -0.6472 -0.6110
   25MOL0     N 3185   9.294  10.839   9.986  0.2362  0.4373  0.1059
   25MOL0     C 3186   9.173  10.856  10.043 -0.8155  0.9429  1.1158
   25MOL0     C 3187   9.089  10.775   9.962 -0.1876  0.2634 -0.4048
   25MOL0     C 3188   8.941  10.758   9.995  0.3041 -0.8012  0.6600
   25MOL0     C 3189   8.910  10.613   9.997  0.1160  0.4900  0.0584
   25MOL0     C 3190   8.765  10.591   9.947 -0.7097  0.2081 -0.2799
   25MOL0     C 3191   8.732  10.439   9.959  0.0258  0.0956  0.7799
   25MOL0     O 3192   8.799  10.356   9.866 -0.7200 -0.4901  0.3738
   25MOL0     C 3193   8.739  10.258   9.798 -0.1277  0.4266  0.1517
   25MOL0     C 3194   8.610  10.209   9.811  1.1304 -0.5137  0.1959
   25MOL0     C 3195   8.571  10.096   9.742  0.0977  0.9545 -0.0218
   25MOL0     C 3196   8.661  10.035   9.656 -0.6397 -0.7971  0.3693
   25MOL0     C 3197   8.613   9.931   9.568  0.2452  0.1084 -0.3379
   25MOL0     O 3198   8.481   9.897   9.581  0.6150  0.5521  0.4365
   25MOL0     C 3199   8.408   9.814   9.497  0.4777 -0.1949  0.1764
   25MOL0     C 3200   8.447   9.685   9.462  1.0140  0.2447  0.3122
   25MOL0     C 3201   8.367   9.610   9.370 -0.2168 -0.9495  0.1401
   25MOL0     C 3202   8.256   9.667   9.308  0.6557  0.1657 -0.0502
   25MOL0     O 3203   8.176   9.604   9.215  0.3224  0.9984  0.1807
   25MOL0     C 3204   8.129   9.469   9.252  0.2127  0.5056  0.0050
   25MOL0     C 3205   8.065   9.456   9.390  0.3134  1.0820 -0.4292
   25MOL0     C 3206   7.995   9.319   9.414 -0.2581  0.0716 -0.4596
   25MOL0     C 3207   7.847   9.323   9.364 -0.0107  0.0949  0.2770
   25MOL0     C 3208   7.783   9.189   9.400 -0.9729 -0.0659 -0.1662
   25MOL0     C 3209   7.635   9.185   9.358  0.1681  0.4541  0.4647
   25MOL0     C 3210   7.543   9.220   9.476 -0.2855  0.3028  0.7586
   25MOL0     C 3211   7.392   9.238   9.451  0.4919  0.7561 -0.0439
   25MOL0    Cl 3212   7.320   9.068   9.424  0.5733  0.1092  0.4265
   25MOL0     C 3213   8.214   9.788   9.355 -0.0053  0.4935 -0.6165
   25MOL0     C 3214   8.284   9.862   9.448  0.3064 -0.3017 -0.3506
   25MOL0     O 3215   8.694   9.891   9.482  0.9248  0.5843  0.1274
   25MOL0     C 3216   8.794  10.082   9.648  1.0719 -0.7103  1.4085
   25MOL0     C 3217   8.829  10.192   9.712  0.4400  0.4555 -0.4623
   25MOL0     N 3218   9.168  10.707   9.873  0.2178 -0.1160 -0.7225
   25MOL0     N 3219   9.283  10.756   9.874  0.8051  0.0998  0.6317
   25MOL0     C 3220  10.562  10.944  10.041  0.7282 -0.6546 -0.3031
   25MOL0     C 3221  10.692  10.922  10.033  0.7150 -0.6561  0.1189
   25MOL0     C 3222  11.144  11.039  10.155 -1.2183  0.7475 -0.2077
   25MOL0     C 3223  11.229  11.092  10.256  0.2304 -0.1238  0.2739
   25MOL0     C 3224  11.367  11.085  10.231  0.4897 -0.3419 -0.0752
   25MOL0     C 3225  11.423  11.023  10.123 -0.8398 -0.2688 -0.0985
   25MOL0     O 3226  11.561  11.013  10.125 -0.8001 -0.3111  0.7309
   25MOL0     C 3227  11.614  10.943  10.008 -0.6150 -0.9060 -0.6955
   25MOL0     C 3228  11.765  10.947  10.018 -0.1996  0.3288  0.2036
   25MOL0     C 3229  11.836  10.873   9.909 -0.3476 -0.1845  0.0620
   25MOL0     C 3230  11.985  10.924   9.874  0.6250  0.5850 -0.4600
   25MOL0     C 3231  11.993  11.057   9.805 -0.4725  1.8018 -0.0443
   25MOL0     C 3232  12.032  11.157   9.748  0.3270 -0.3968 -0.8738
   25MOL0     C 3233  11.337  10.971  10.023 -0.2575 -0.8405 -0.7675
   25MOL0     C 3234  11.204  10.987  10.034  0.8625  0.7674 -0.4662
   25MOL0     H 3235  10.813  11.234  10.094  1.6205 -1.4118 -2.0868
   25MOL0     H 3236  10.559  11.281  10.080 -0.3363  1.2680  1.7123
   25MOL0     H 3237  10.288  10.967  10.203  2.8256  0.6537  0.2041
   25MOL0     H 3238  10.293  10.920  10.038  1.2611  0.7265  0.4786
   25MOL0     H 3239  10.161  11.093   9.960  0.1303 -0.9047 -0.9834
   25MOL0     H 3240  10.137  11.155  10.129  0.3892 -0.9127 -0.6540
   25MOL0     H 3241  10.041  10.908  10.174  1.5248 -2.5609 -0.4368
   25MOL0     H 3242  10.060  10.887  10.000 -0.7728  0.2913 -0.5615
   25MOL0     H 3243   9.870  11.091  10.110  2.5236 -1.4713  1.8878
   25MOL0     H 3244   9.928  11.080   9.943  0.0229  0.6550  0.2127
   25MOL0     H 3245   9.818  10.850  10.108  1.4768  1.7205  1.7271
   25MOL0     H 3246   9.831  10.849   9.938  0.4871 -3.0754  1.6137
   25MOL0     H 3247   9.655  11.040   9.924 -2.7020  1.0984  1.0723
   25MOL0     H 3248   9.646  11.036  10.101  0.6880  1.4966 -1.0226
   25MOL0     H 3249   9.566  10.809   9.908  1.8237 -0.1576 -0.0176
   25MOL0     H 3250   9.553  10.788  10.084 -0.7755  1.1978  2.3696
   25MOL0     H 3251   9.407  11.005   9.927  0.2270 -1.2597 -1.1822
   25MOL0     H 3252   9.401  10.991  10.095  3.9926 -0.8885 -0.0884
   25MOL0     H 3253   9.149  10.921  10.126  1.2792  0.2016  2.3907
   25MOL0     H 3254   8.884  10.805   9.914  0.7635 -0.6796  0.4044
   25MOL0     H 3255   8.920  10.809  10.089 -0.3017  2.3255 -1.0209
   25MOL0     H 3256   8.914  10.585  10.102  0.6718  0.4731  0.0343
   25MOL0     H 3257   8.982  10.542   9.954 -2.1995 -3.9136  2.6891
   25MOL0     H 3258   8.703  10.655  10.011  0.2526 -1.4045  2.4385
   25MOL0     H 3259   8.746  10.628   9.845 -0.8047  2.6911  0.5525
   25MOL0     H 3260   8.626  10.428   9.936  0.2777  0.1298 -0.4323
   25MOL0     H 3261   8.764  10.396  10.055  2.7330  1.7808  0.7292
   25MOL0     H 3262   8.524  10.239   9.872  1.2760  2.4572 -0.9025
   25MOL0     H 3263   8.467  10.065   9.745 -0.6577  3.1930  3.5806
   25MOL0     H 3264   8.540   9.649   9.506 -0.0605 -2.5600  0.5111
   25MOL0     H 3265   8.414   9.521   9.329  0.1276  0.5851 -3.1300
   25MOL0     H 3266   8.214   9.400   9.259 -2.2223 -2.7859 -0.4946
   25MOL0     H 3267   8.070   9.425   9.171  0.8632 -1.0530  0.3439
   25MOL0     H 3268   7.987   9.531   9.403 -0.7018 -0.2279  1.5847
   25MOL0     H 3269   8.144   9.460   9.466  0.1789 -1.5191 -0.0717
   25MOL0     H 3270   7.980   9.298   9.520 -3.3666 -1.8911 -1.1708
   25MOL0     H 3271   8.065   9.245   9.374  0.5938  0.7160 -0.2024
   25MOL0     H 3272   7.794   9.402   9.418 -0.9434  0.3740 -0.9830
   25MOL0     H 3273   7.848   9.334   9.255  1.9201  0.8699  0.3460
   25MOL0     H 3274   7.788   9.160   9.505 -3.2863 -0.6995 -0.1759
   25MOL0     H 3275   7.848   9.121   9.345  1.5586  3.0534 -1.4144
   25MOL0     H 3276   7.610   9.088   9.312  2.0498  1.2857 -2.6275
   25MOL0     H 3277   7.619   9.263   9.283 -2.1538  0.6853  1.1123
   25MOL0     H 3278   7.556   9.139   9.549  0.4957  0.2807  0.6123
   25MOL0     H 3279   7.588   9.314   9.510  0.2161  0.7926 -1.1757
   25MOL0     H 3280   7.377   9.298   9.361  1.6390 -1.8984 -2.1618
   25MOL0     H 3281   7.343   9.293   9.532 -1.5884  0.0940 -0.7938
   25MOL0     H 3282   8.129   9.837   9.308  1.0815  0.5802 -2.6255
   25MOL0     H 3283   8.258   9.958   9.492 -0.7576 -0.6878 -0.1155
   25MOL0     H 3284   8.856  10.018   9.586 -0.7364 -1.6221  0.4368
   25MOL0     H 3285   8.931  10.228   9.703  1.3232 -1.6060  0.6298
   25MOL0     H 3286  10.504  10.857  10.013  0.1277 -0.5763  0.6465
   25MOL0     H 3287  10.727  10.822  10.009  0.3542 -0.7153 -0.1670
   25MOL0     H 3288  11.187  11.137  10.346  0.1408  1.2302 -0.4171
   25MOL0     H 3289  11.430  11.134  10.305  2.0673 -1.4858 -0.5867
   25MOL0     H 3290  11.577  10.992   9.917 -0.7862  3.1567  1.3282
   25MOL0     H 3291  11.578  10.840  10.017 -1.5969 -0.4778  0.6439
   25MOL0     H 3292  11.792  11.053  10.015 -0.1024  0.3275  0.8638
   25MOL0     H 3293  11.804  10.910  10.113  4.1633 -0.1866 -1.5764
   25MOL0     H 3294  11.776  10.861   9.818 -1.4391  0.4121  0.6772
   25MOL0     H 3295  11.840  10.771   9.947 -0.5051 -0.7878 -1.4623
   25MOL0     H 3296  12.025  10.942   9.975  2.7525  0.8945 -1.3088
   25MOL0     H 3297  12.038  10.836   9.835 -1.7705 -0.2418 -2.0272
   25MOL0     H 3298  12.075  11.245   9.705  3.0296 -0.9906  0.4285
   25MOL0     H 3299  11.366  10.920   9.932 -2.0041 -0.3100 -1.6681
   25MOL0     H 3300  11.154  10.940   9.950  2.3856 -1.0423 -0.4206
   26MOL0     O 3301   1.213   7.394   1.314  0.4020  0.2012  0.7920
   26MOL0     C 3302   1.195   7.520   1.322 -0.0339  1.1134 -0.5910
   26MOL0     O 3303   1.075   7.584   1.369 -0.3150 -0.2251 -0.0651
   26MOL0     C 3304   0.964   7.503   1.401 -0.5271 -0.8536 -0.3413
   26MOL0     C 3305   0.964   7.396   1.478  0.5723  0.2085 -0.9073
   26MOL0     C 3306   0.848   7.336   1.527  0.1273  0.2866 -0.2030
   26MOL0     C 3307   0.728   7.392   1.471  0.5274  0.5027 -0.0998
   26MOL0     O 3308   0.604   7.338   1.507 -0.8367 -0.0902 -0.3192
   26MOL0     C 3309   0.593   7.232   1.605 -0.3261  0.0363 -0.7206
   26MOL0     C 3310   0.445   7.198   1.638  0.2825  0.1393  0.5486
   26MOL0     C 3311   0.339   7.273   1.555 -0.2607  0.2811  0.5208
   26MOL0     C 3312   0.193   7.210   1.560  0.3003 -0.4435 -0.6255
   26MOL0     C 3313   0.097   7.260   1.449 -0.7900 -0.2225 -0.1449
   26MOL0     C 3314  -0.034   7.196   1.478  0.2340  0.3116 -0.0037
   26MOL0     C 3315  -0.129   7.217   1.360  0.1976 -0.7850  0.2640
   26MOL0     C 3316  -0.271   7.158   1.387  0.7465  0.4927 -0.4919
   26MOL0     N 3317  -0.359   7.177   1.268 -0.2635  0.5154 -0.0362
   26MOL0     C 3318  -0.446   7.283   1.243  0.5478  0.5522  0.3186
   26MOL0     C 3319  -0.504   7.268   1.119 -0.6780  0.0420 -0.1343
   26MOL0     C 3320  -0.603   7.348   1.047 -0.5030  0.0148 -0.4030
   26MOL0     C 3321  -0.734   7.282   1.023  1.2657 -0.9640 -0.1695
   26MOL0     C 3322  -0.827   7.357   0.922  0.4671 -0.5046  0.8719
   26MOL0     C 3323  -0.952   7.289   0.911  0.6241 -0.0725 -1.8322
   26MOL0     O 3324  -1.045   7.338   0.821  0.0894 -0.8835 -0.7325
   26MOL0     C 3325  -1.157   7.265   0.790  0.2197  0.7240  0.3808
   26MOL0     C 3326  -1.220   7.306   0.672  0.2736 -0.4805 -0.5972
   26MOL0     C 3327  -1.337   7.231   0.628 -1.1264  0.1792 -0.0556
   26MOL0     C 3328  -1.395   7.139   0.721  0.2578  1.0877  0.2978
   26MOL0     C 3329  -1.514   7.054   0.679  0.1379  0.1192  0.6512
   26MOL0     O 3330  -1.560   7.073   0.555  0.5643  0.4108  0.1934
   26MOL0     C 3331  -1.655   6.995   0.499 -0.8119  0.3866 -0.0683
   26MOL0     C 3332  -1.638   6.861   0.484 -0.0626 -0.7035  0.2913
   26MOL0     C 3333  -1.741   6.785   0.427 -0.9331  0.1156 -0.1823
   26MOL0     C 3334  -1.863   6.840   0.381  0.0377 -0.0044  0.0267
   26MOL0     O 3335  -1.971   6.780   0.323  0.3655 -0.2891 -0.1003
   26MOL0     C 3336  -1.973   6.637   0.338 -0.0996 -0.3776  0.6599
   26MOL0     C 3337  -2.110   6.587   0.289  0.0595 -0.6228  0.6025
   26MOL0     C 3338  -2.225   6.639   0.369  0.9025 -0.6370 -0.5986
   26MOL0     C 3339  -2.351   6.621   0.287 -0.1973 -0.4978  0.0122
   26MOL0     C 3340  -2.488   6.641   0.361  0.2796  0.8414 -0.5274
   26MOL0     C 3341  -2.484   6.756   0.461 -0.4284  0.5885  0.7739
   26MOL0     C 3342  -2.475   6.900   0.392 -0.3171  0.3458  0.0859
   26MOL0     C 3343  -2.594   7.002   0.431 -0.7539  0.1926  0.4171
   26MOL0    Cl 3344  -2.748   6.913   0.397  0.0062 -0.0926  0.1005
   26MOL0     C 3345  -1.871   6.983   0.389 -0.0062 -0.6448  0.5382
   26MOL0     C 3346  -1.768   7.055   0.449 -0.1645  0.2116  1.0353
   26MOL0     O 3347  -1.548   6.967   0.750  0.0621  0.3933  0.5193
   26MOL0     C 3348  -1.329   7.103   0.844  0.1085  0.3201 -0.7539
   26MOL0     C 3349  -1.213   7.168   0.871  0.0904  0.3207 -0.3047
   26MOL0     N 3350  -0.455   7.142   1.082  0.1330 -0.6741 -0.3009
   26MOL0     N 3351  -0.376   7.088   1.170 -1.1437 -0.1277  0.6254
   26MOL0     C 3352   0.727   7.491   1.372 -0.1217  0.7001  0.2066
   26MOL0     C 3353   0.849   7.546   1.340  0.4852 -0.1829 -0.1513
   26MOL0     C 3354   1.304   7.611   1.274  0.0420  0.7612 -0.9862
   26MOL0     C 3355   1.407   7.556   1.192 -0.2317 -0.2063  0.0441
   26MOL0     C 3356   1.517   7.643   1.170 -0.2475 -0.2003  0.1805
   26MOL0     C 3357   1.522   7.777   1.223 -0.5172 -0.9131  0.1204
   26MOL0     O 3358   1.632   7.860   1.234 -0.7030  0.3343 -0.3968
   26MOL0     C 3359   1.753   7.831   1.167  0.5040  0.5252 -0.9221
   26MOL0     C 3360   1.853   7.940   1.191 -0.3402  0.3577 -0.4766
   26MOL0     C 3361   2.005   7.909   1.145  0.4403 -0.3647  0.6848
   26MOL0     C 3362   2.079   8.050   1.146 -0.1849  0.1935 -0.7803
   26MOL0     C 3363   2.090   8.102   1.285  0.4121 -0.3654  0.3129
   26MOL0     C 3364   2.097   8.159   1.388 -0.5523  0.5903  0.1455
   26MOL0     C 3365   1.412   7.823   1.287 -0.3031  0.3688  0.5001
   26MOL0     C 3366   1.309   7.743   1.317 -0.0777 -0.0515 -0.3945
   26MOL0     H 3367   1.065   7.367   1.507  0.6724  1.5865  0.2161
   26MOL0     H 3368   0.849   7.263   1.607 -2.0502  1.8414  1.3758
   26MOL0     H 3369   0.636   7.256   1.703 -1.1867  0.3779 -0.4224
   26MOL0     H 3370   0.632   7.137   1.567 -0.5933  0.2818 -1.6296
   26MOL0     H 3371   0.416   7.223   1.741 -1.2904  0.9148 -0.0434
   26MOL0     H 3372   0.427   7.090   1.638  0.8119  0.0491 -0.1578
   26MOL0     H 3373   0.368   7.262   1.451 -0.6511  0.7087  0.3650
   26MOL0     H 3374   0.348   7.378   1.585 -0.0416  1.0192 -1.9348
   26MOL0     H 3375   0.195   7.101   1.566  0.5712 -0.3757  0.9007
   26MOL0     H 3376   0.156   7.249   1.655 -2.5305  2.8431 -2.8207
   26MOL0     H 3377   0.142   7.231   1.354 -0.4564 -1.3432  0.3441
   26MOL0     H 3378   0.088   7.368   1.467  1.2960  0.5883 -3.2555
   26MOL0     H 3379  -0.071   7.246   1.568  0.4908  1.2818 -0.4220
   26MOL0     H 3380  -0.022   7.089   1.500  0.4900  0.1583 -0.8798
   26MOL0     H 3381  -0.131   7.325   1.339  1.6221 -0.5172  1.3672
   26MOL0     H 3382  -0.092   7.178   1.265  0.3277  2.0078 -0.9525
   26MOL0     H 3383  -0.319   7.203   1.475 -2.2077 -1.8177 -0.7732
   26MOL0     H 3384  -0.264   7.053   1.417 -0.9310  0.6148  0.4024
   26MOL0     H 3385  -0.460   7.370   1.307 -1.1616 -1.0621  2.2468
   26MOL0     H 3386  -0.559   7.370   0.949  1.0512 -1.4631 -0.0829
   26MOL0     H 3387  -0.626   7.442   1.097 -1.2866 -0.3451 -0.0667
   26MOL0     H 3388  -0.793   7.270   1.114 -0.6398  1.3579 -0.9876
   26MOL0     H 3389  -0.715   7.179   0.992  2.6457 -0.7441 -0.1235
   26MOL0     H 3390  -0.845   7.463   0.941  1.0632 -0.0624 -0.7986
   26MOL0     H 3391  -0.779   7.371   0.824  0.2786 -0.3034  0.8055
   26MOL0     H 3392  -0.989   7.294   1.013  0.2989  4.4795 -1.9778
   26MOL0     H 3393  -0.935   7.184   0.885 -1.2131 -1.2169  1.1636
   26MOL0     H 3394  -1.177   7.368   0.595  0.7241 -2.0422 -1.6549
   26MOL0     H 3395  -1.384   7.266   0.536  1.3150  1.2828 -1.0033
   26MOL0     H 3396  -1.543   6.814   0.509 -0.8313 -1.6988  1.4653
   26MOL0     H 3397  -1.729   6.677   0.429 -0.3643  0.1691 -0.4914
   26MOL0     H 3398  -1.971   6.594   0.439 -0.3930  1.2509  1.3925
   26MOL0     H 3399  -1.894   6.587   0.281 -1.2358 -2.2709  0.6605
   26MOL0     H 3400  -2.109   6.478   0.279  1.4267 -0.4172 -2.7436
   26MOL0     H 3401  -2.110   6.615   0.184  1.7877  0.1409  0.7803
   26MOL0     H 3402  -2.208   6.744   0.393 -0.2017 -1.0734  2.5921
   26MOL0     H 3403  -2.251   6.576   0.454  0.3375 -0.2920 -0.5091
   26MOL0     H 3404  -2.350   6.696   0.208 -0.4779  0.5702  1.0017
   26MOL0     H 3405  -2.356   6.525   0.234 -3.6947  0.3546 -1.5164
   26MOL0     H 3406  -2.498   6.550   0.422  2.0245  0.4147 -0.8279
   26MOL0     H 3407  -2.576   6.645   0.297 -0.4504 -2.0842  0.1244
   26MOL0     H 3408  -2.398   6.752   0.529 -0.9912  4.4103  1.9401
   26MOL0     H 3409  -2.578   6.752   0.517 -0.2079  0.4208  1.1423
   26MOL0     H 3410  -2.386   6.952   0.428 -1.3391  0.1624  3.2130
   26MOL0     H 3411  -2.480   6.885   0.284  0.6814  2.6204 -0.3339
   26MOL0     H 3412  -2.585   7.099   0.381 -0.3860 -0.3878 -0.6656
   26MOL0     H 3413  -2.600   7.033   0.536 -1.2718  1.1151  0.1275
   26MOL0     H 3414  -1.954   7.048   0.364  2.5144  2.4951 -0.2503
   26MOL0     H 3415  -1.789   7.161   0.460 -1.5784  0.2553 -1.4545
   26MOL0     H 3416  -1.351   7.016   0.905 -2.4475  0.8899 -0.7341
   26MOL0     H 3417  -1.154   7.128   0.954  0.0442  0.9520  0.0401
   26MOL0     H 3418   0.624   7.512   1.344 -1.1264 -1.0668  2.2544
   26MOL0     H 3419   0.856   7.625   1.266  1.5211 -1.2032 -1.1908
   26MOL0     H 3420   1.406   7.453   1.158 -0.4463 -1.3584  3.2222
   26MOL0     H 3421   1.606   7.601   1.126 -0.4350  1.2711 -1.7063
   26MOL0     H 3422   1.734   7.827   1.060  2.0977  1.3586 -1.2717
   26MOL0     H 3423   1.799   7.740   1.207 -0.4181  0.0795 -0.8507
   26MOL0     H 3424   1.836   8.028   1.128  1.0817  0.0253 -1.3655
   26MOL0     H 3425   1.857   7.973   1.295  1.2149  2.3016 -1.1059
   26MOL0     H 3426   2.001   7.872   1.042 -0.3612 -2.1476  1.3126
   26MOL0     H 3427   2.050   7.836   1.214  1.3726 -0.1877  0.2794
   26MOL0     H 3428   2.178   8.049   1.098  0.0879 -0.2754 -0.2290
   26MOL0     H 3429   2.017   8.121   1.091  2.7628  3.4092 -0.3074
   26MOL0     H 3430   2.099   8.198   1.487 -3.5933 -1.1267  0.9840
   26MOL0     H 3431   1.415   7.928   1.316 -2.4183 -0.0170  2.4369
   26MOL0     H 3432   1.223   7.792   1.360 -0.7577 -0.1704 -1.5831
   27MOL0     O 3433   1.414   9.308   4.686  0.0499  0.7709  0.6693
   27MOL0     C 3434   1.498   9.217   4.695 -0.7403 -0.0131  0.5932
   27MOL0     O 3435   1.516   9.143   4.800 -0.0461  1.0014  0.7517
   27MOL0     C 3436   1.436   9.160   4.912  0.6475  0.3324 -0.4069
   27MOL0     C 3437   1.478   9.105   5.043 -0.1248 -0.9698 -0.6694
   27MOL0     C 3438   1.399   9.125   5.164  0.2125 -0.3538  0.4497
   27MOL0     C 3439   1.275   9.195   5.160 -0.9925  0.9055  0.0545
   27MOL0     O 3440   1.193   9.227   5.270 -0.2287  0.3902  0.1208
   27MOL0     C 3441   1.262   9.244   5.398  0.1146 -0.3103  0.4387
   27MOL0     C 3442   1.247   9.141   5.510 -0.3396 -0.7288 -0.7166
   27MOL0     C 3443   1.095   9.126   5.553 -0.0199  0.8366  0.5831
   27MOL0     C 3444   1.062   8.980   5.592  0.0464  1.1199  0.2479
   27MOL0     C 3445   0.912   8.973   5.630 -0.9718 -0.5267  0.9593
   27MOL0     C 3446   0.883   8.833   5.680  0.1334 -0.1690  0.3772
   27MOL0     C 3447   0.749   8.818   5.735 -0.6095 -0.7873 -0.3275
   27MOL0     C 3448   0.717   8.695   5.828 -0.0782 -0.2783  0.2735
   27MOL0     N 3449   0.719   8.735   5.969 -0.0969  1.5062 -0.8011
   27MOL0     C 3450   0.817   8.786   6.044  0.1258  0.2826  0.5736
   27MOL0     C 3451   0.771   8.800   6.166  0.5208 -0.8880  0.7404
   27MOL0     C 3452   0.836   8.854   6.285 -0.8061 -0.3162 -0.4218
   27MOL0     C 3453   0.916   8.988   6.289 -0.0372 -0.1243 -0.2123
   27MOL0     C 3454   0.987   9.006   6.419 -0.1273 -0.6744  0.1207
   27MOL0     C 3455   1.117   8.918   6.421  0.3215  1.1528  0.3225
   27MOL0     O 3456   1.219   8.978   6.338  0.2207  0.7229  0.4254
   27MOL0     C 3457   1.288   9.089   6.379  0.2742  0.4698 -0.1953
   27MOL0     C 3458   1.266   9.151   6.500  0.7731  0.3307 -0.2189
   27MOL0     C 3459   1.358   9.251   6.542  0.1538  0.4318  1.1453
   27MOL0     C 3460   1.460   9.295   6.456  1.0353 -1.0786  0.9156
   27MOL0     C 3461   1.548   9.405   6.498 -0.2475 -0.3272 -0.2365
   27MOL0     O 3462   1.489   9.499   6.569 -0.0108 -0.9831 -0.5501
   27MOL0     C 3463   1.566   9.602   6.618  0.7823 -0.1740  0.6871
   27MOL0     C 3464   1.637   9.686   6.532 -0.4631 -0.5383 -0.2454
   27MOL0     C 3465   1.712   9.793   6.578 -0.8456 -0.0749  0.1583
   27MOL0     C 3466   1.709   9.822   6.717  0.3962  0.0079 -0.6620
   27MOL0     O 3467   1.767   9.933   6.763 -0.0287  0.0861 -0.0868
   27MOL0     C 3468   1.892   9.960   6.699  0.3362  0.1178  0.5926
   27MOL0     C 3469   1.991  10.043   6.789 -0.6338  0.3574  0.1947
   27MOL0     C 3470   2.120  10.081   6.710  0.8530  0.3755  0.9696
   27MOL0     C 3471   2.214  10.142   6.809 -0.6790  0.4241 -0.8189
   27MOL0     C 3472   2.355  10.152   6.744 -0.4655 -0.3881  0.7588
   27MOL0     C 3473   2.441  10.259   6.812  0.3956  0.0568  0.1523
   27MOL0     C 3474   2.584  10.250   6.757 -0.5502 -0.3612 -0.2209
   27MOL0     C 3475   2.675  10.341   6.825  0.1277  0.3611  0.5705
   27MOL0    Cl 3476   2.848  10.314   6.774  0.2653  0.0540 -0.0364
   27MOL0     C 3477   1.621   9.745   6.806 -0.1439  1.1443 -0.4080
   27MOL0     C 3478   1.560   9.632   6.763 -0.0289 -0.6771 -0.0633
   27MOL0     O 3479   1.670   9.401   6.459  0.1613 -0.3395 -0.2802
   27MOL0     C 3480   1.474   9.243   6.329  0.0860  0.1192  0.0956
   27MOL0     C 3481   1.383   9.142   6.286  0.1694  0.1359  0.1718
   27MOL0     N 3482   0.634   8.767   6.168 -0.3421 -0.4723  0.4920
   27MOL0     N 3483   0.604   8.734   6.048  0.0957 -0.5573  0.3695
   27MOL0     C 3484   1.230   9.230   5.035 -0.3118 -0.2762 -0.1397
   27MOL0     C 3485   1.297   9.208   4.912 -0.5136 -0.5213  0.6140
   27MOL0     C 3486   1.570   9.175   4.572 -0.4422 -0.0370 -0.2850
   27MOL0     C 3487   1.692   9.106   4.569  1.0146 -0.6365  0.1746
   27MOL0     C 3488   1.744   9.054   4.454 -0.1339 -0.4246 -0.4336
   27MOL0     C 3489   1.677   9.064   4.332  0.1200 -0.8418  1.0567
   27MOL0     O 3490   1.748   9.020   4.218  0.8122  0.0273 -0.3838
   27MOL0     C 3491   1.673   9.025   4.092  0.3919  0.5911  1.0848
   27MOL0     C 3492   1.601   8.886   4.081 -0.5482 -0.1943 -0.3029
   27MOL0     C 3493   1.550   8.861   3.945  0.8734  1.2170 -0.3253
   27MOL0     C 3494   1.444   8.965   3.909  0.0817  0.1510 -0.4030
   27MOL0     C 3495   1.382   8.923   3.784  0.2341 -0.1065 -0.0044
   27MOL0     C 3496   1.324   8.864   3.700 -0.7569  0.7449  0.1888
   27MOL0     C 3497   1.554   9.131   4.334  0.6465 -0.7018 -0.5287
   27MOL0     C 3498   1.498   9.192   4.455 -0.1757  0.2586  0.0369
   27MOL0     H 3499   1.577   9.062   5.055  1.5031  2.8982  1.4304
   27MOL0     H 3500   1.433   9.079   5.256  1.6932 -0.1620  0.0212
   27MOL0     H 3501   1.200   9.325   5.439 -3.0122 -2.3975  0.1971
   27MOL0     H 3502   1.370   9.260   5.398  0.7445 -3.7996  0.9255
   27MOL0     H 3503   1.306   9.180   5.593 -1.8051  0.4149 -0.1576
   27MOL0     H 3504   1.290   9.047   5.473 -1.1766 -0.9176 -1.2689
   27MOL0     H 3505   1.044   9.136   5.457 -2.6150 -0.5802  1.7154
   27MOL0     H 3506   1.066   9.199   5.629 -1.5264  0.2712  0.5879
   27MOL0     H 3507   1.078   8.913   5.507 -3.6310  0.2418  0.0897
   27MOL0     H 3508   1.131   8.927   5.659  0.7406 -4.6044 -4.2080
   27MOL0     H 3509   0.846   8.998   5.546 -2.0448 -1.5236  1.4755
   27MOL0     H 3510   0.899   9.043   5.713 -0.8408  1.8692 -0.9217
   27MOL0     H 3511   0.949   8.804   5.763 -1.0838 -1.6017  0.8942
   27MOL0     H 3512   0.907   8.759   5.603 -2.5882 -0.9315  0.1632
   27MOL0     H 3513   0.723   8.915   5.778 -0.6030 -2.2488  3.3052
   27MOL0     H 3514   0.683   8.810   5.648 -2.9970  2.7398  0.9414
   27MOL0     H 3515   0.789   8.619   5.796 -3.3294 -1.7036 -4.7029
   27MOL0     H 3516   0.620   8.651   5.805 -0.0868 -0.6363  0.9579
   27MOL0     H 3517   0.918   8.814   6.016 -0.4185  0.3127 -1.5717
   27MOL0     H 3518   0.915   8.780   6.302 -0.5045  0.1198  0.1022
   27MOL0     H 3519   0.767   8.850   6.370 -0.7490  0.8925 -0.3061
   27MOL0     H 3520   0.835   9.059   6.273 -2.5088 -2.6900  0.0983
   27MOL0     H 3521   0.987   9.000   6.207  2.0009  1.9220  1.6858
   27MOL0     H 3522   1.016   9.111   6.419 -1.6371 -0.2260 -1.0417
   27MOL0     H 3523   0.929   8.978   6.507  0.8097 -1.5782  0.4686
   27MOL0     H 3524   1.102   8.817   6.384  1.7549  0.4892  1.4769
   27MOL0     H 3525   1.135   8.889   6.525  0.3881 -0.7221 -0.1748
   27MOL0     H 3526   1.189   9.120   6.570 -2.9535  0.0037 -4.0764
   27MOL0     H 3527   1.354   9.291   6.643  0.3567  0.6854  1.0551
   27MOL0     H 3528   1.637   9.670   6.424  2.9379  0.7416 -0.5548
   27MOL0     H 3529   1.758   9.857   6.504  0.1055 -0.6257  0.2558
   27MOL0     H 3530   1.875  10.029   6.616 -1.1291  0.0595  0.8213
   27MOL0     H 3531   1.936   9.873   6.650 -2.1054  0.1638 -1.9526
   27MOL0     H 3532   2.025   9.984   6.874  2.5091 -0.4930 -1.5009
   27MOL0     H 3533   1.944  10.135   6.826  0.7071  1.7267 -1.3680
   27MOL0     H 3534   2.100  10.168   6.647 -3.9672 -0.5055  0.9400
   27MOL0     H 3535   2.158   9.999   6.648  0.1379 -0.4485  1.6008
   27MOL0     H 3536   2.195  10.243   6.846  0.8871 -0.3694  2.5156
   27MOL0     H 3537   2.223  10.080   6.899 -0.3430  1.9673  0.2382
   27MOL0     H 3538   2.343  10.185   6.641  1.5374  2.2633  1.2549
   27MOL0     H 3539   2.402  10.054   6.756  1.7245  0.5708  0.6299
   27MOL0     H 3540   2.443  10.241   6.920  1.8129  2.5450  0.6082
   27MOL0     H 3541   2.394  10.356   6.794 -1.6012 -0.6458  1.1827
   27MOL0     H 3542   2.623  10.148   6.751 -0.9697 -0.4411 -2.4188
   27MOL0     H 3543   2.574  10.288   6.654 -0.8499 -2.1855 -0.8967
   27MOL0     H 3544   2.667  10.327   6.933 -0.8249  0.6582  0.5525
   27MOL0     H 3545   2.656  10.446   6.803 -4.9880 -0.8927 -2.8407
   27MOL0     H 3546   1.608   9.778   6.909  0.9092 -0.2173  0.1912
   27MOL0     H 3547   1.497   9.576   6.830  0.1413 -0.2094  0.4940
   27MOL0     H 3548   1.535   9.292   6.253 -1.1673 -3.7768 -3.8161
   27MOL0     H 3549   1.382   9.099   6.186 -2.2352  0.2027  0.0882
   27MOL0     H 3550   1.125   9.257   5.036 -0.7099 -1.5172  3.0133
   27MOL0     H 3551   1.246   9.247   4.824  1.0636  3.3737  1.2280
   27MOL0     H 3552   1.734   9.090   4.668 -0.6773  1.1014  1.2576
   27MOL0     H 3553   1.841   9.005   4.462  0.8888  1.7614  2.8084
   27MOL0     H 3554   1.747   9.038   4.012 -0.9824  1.6764 -0.0456
   27MOL0     H 3555   1.603   9.108   4.081  0.8610  1.6168  4.6342
   27MOL0     H 3556   1.678   8.813   4.108 -0.3589  0.7115  1.8255
   27MOL0     H 3557   1.523   8.883   4.157  1.9036 -0.1644  2.4019
   27MOL0     H 3558   1.499   8.765   3.941  2.3747 -0.1336  4.8065
   27MOL0     H 3559   1.629   8.856   3.869  1.1792 -1.1539  0.0694
   27MOL0     H 3560   1.373   8.937   3.987  2.8150 -3.7839  0.9577
   27MOL0     H 3561   1.478   9.069   3.910  0.3588  0.0538  0.4792
   27MOL0     H 3562   1.287   8.803   3.621  2.6737 -0.2878 -0.8183
   27MOL0     H 3563   1.492   9.119   4.246  2.8661 -1.5469 -2.0727
   27MOL0     H 3564   1.395   9.225   4.442  0.3689  1.5837 -1.1273
   28MOL0     O 3565   6.155   1.210   7.522  0.1823 -0.4095  0.2149
   28MOL0     C 3566   6.211   1.317   7.502 -0.0262  0.3673  0.5024
   28MOL0     O 3567   6.149   1.440   7.481  0.4561  0.9004 -0.0487
   28MOL0     C 3568   6.013   1.450   7.468  0.0799  0.0184  0.9320
   28MOL0     C 3569   5.960   1.498   7.350 -0.0081  0.5613  0.1567
   28MOL0     C 3570   5.822   1.486   7.324  0.1819 -0.1159  0.1117
   28MOL0     C 3571   5.734   1.427   7.416  0.5920  0.2689  0.5455
   28MOL0     O 3572   5.606   1.400   7.379 -0.5736 -0.3600  0.2396
   28MOL0     C 3573   5.528   1.316   7.464  0.0792 -0.5585 -0.7397
   28MOL0     C 3574   5.394   1.334   7.398  0.4916  0.5370  0.3906
   28MOL0     C 3575   5.282   1.276   7.487 -0.0142 -0.7749 -0.5515
   28MOL0     C 3576   5.154   1.283   7.407  0.1658  0.3110 -0.3474
   28MOL0     C 3577   5.042   1.205   7.478 -0.4723  0.3330 -0.1763
   28MOL0     C 3578   4.899   1.220   7.427 -0.4480  0.3897  0.2951
   28MOL0     C 3579   4.800   1.135   7.512  0.1684 -0.5458  0.2140
   28MOL0     C 3580   4.776   1.187   7.649  0.0735 -0.2450  0.0956
   28MOL0     N 3581   4.670   1.282   7.665  1.1665 -0.0868  0.1190
   28MOL0     C 3582   4.680   1.415   7.641 -0.0368 -0.5375 -0.2886
   28MOL0     C 3583   4.566   1.473   7.694  0.3623 -1.0116  0.5737
   28MOL0     C 3584   4.545   1.625   7.711 -0.2036  0.0860 -0.1574
   28MOL0     C 3585   4.393   1.667   7.691 -0.1143 -0.1630 -0.8353
   28MOL0     C 3586   4.318   1.675   7.831 -0.4946  0.4632  0.0370
   28MOL0     C 3587   4.167   1.697   7.819  0.3020  0.3529  0.1835
   28MOL0     O 3588   4.091   1.597   7.741 -0.0646  0.4587 -0.1281
   28MOL0     C 3589   3.962   1.633   7.703 -0.7221  0.8066 -0.5678
   28MOL0     C 3590   3.910   1.762   7.727  0.6297 -0.6578 -0.2080
   28MOL0     C 3591   3.786   1.803   7.672 -0.4843  0.1673  0.3047
   28MOL0     C 3592   3.710   1.709   7.608 -0.5008 -0.2368  0.4434
   28MOL0     C 3593   3.586   1.753   7.548  0.4524 -0.3458  0.8647
   28MOL0     O 3594   3.502   1.653   7.508  0.2205 -0.3874  0.7241
   28MOL0     C 3595   3.380   1.687   7.451 -0.1997  0.5725  0.3097
   28MOL0     C 3596   3.370   1.721   7.315  0.1684 -0.4841 -0.1704
   28MOL0     C 3597   3.251   1.776   7.269  1.0242  0.3647  0.1665
   28MOL0     C 3598   3.133   1.788   7.357  0.1064  0.2731 -0.3112
   28MOL0     O 3599   3.021   1.841   7.303  0.1721  0.3099  0.5055
   28MOL0     C 3600   2.898   1.799   7.367  0.3515 -0.1059  0.7902
   28MOL0     C 3601   2.778   1.803   7.264 -0.3062 -0.2378 -0.4072
   28MOL0     C 3602   2.650   1.783   7.343 -0.6154  0.8753  0.0582
   28MOL0     C 3603   2.533   1.775   7.245 -0.7687 -0.7938  0.0103
   28MOL0     C 3604   2.419   1.691   7.296  0.4269 -1.1666 -0.4461
   28MOL0     C 3605   2.295   1.711   7.198 -0.2289  0.1083 -0.4786
   28MOL0     C 3606   2.178   1.631   7.247 -0.5505 -0.2917 -0.5571
   28MOL0     C 3607   2.051   1.665   7.168 -0.4686  0.2739 -0.6300
   28MOL0    Cl 3608   1.935   1.744   7.283  0.3942  0.0515 -0.4436
   28MOL0     C 3609   3.142   1.740   7.484  0.2846  0.9269 -0.3405
   28MOL0     C 3610   3.266   1.686   7.526  1.0375 -0.3387 -0.1774
   28MOL0     O 3611   3.558   1.873   7.547  0.4844 -0.3245  0.4138
   28MOL0     C 3612   3.757   1.584   7.581 -0.0964 -0.2880  0.0123
   28MOL0     C 3613   3.883   1.544   7.629 -0.3603  0.6285 -0.5269
   28MOL0     N 3614   4.491   1.371   7.749 -0.0417 -0.4406  0.0882
   28MOL0     N 3615   4.555   1.265   7.736  0.1852  1.2414 -0.1974
   28MOL0     C 3616   5.794   1.376   7.536  0.0784  0.5772  0.2073
   28MOL0     C 3617   5.928   1.401   7.559  0.5983 -0.1077  0.7440
   28MOL0     C 3618   6.364   1.319   7.520  0.1614  0.3392  0.3590
   28MOL0     C 3619   6.433   1.209   7.576 -0.1459  0.2768 -0.2869
   28MOL0     C 3620   6.566   1.222   7.606  0.2472  0.7902 -0.8739
   28MOL0     C 3621   6.640   1.335   7.578 -0.0583  0.5441  0.0541
   28MOL0     O 3622   6.778   1.344   7.601  0.2000 -0.5059 -0.1169
   28MOL0     C 3623   6.825   1.427   7.709 -0.9555  0.0245 -0.4247
   28MOL0     C 3624   6.972   1.452   7.682  0.0266  0.1585  0.6401
   28MOL0     C 3625   7.058   1.339   7.738 -0.5921  0.2576 -0.6573
   28MOL0     C 3626   7.212   1.347   7.690  0.2868 -0.5594  0.6413
   28MOL0     C 3627   7.325   1.310   7.780  0.5132 -0.6080  0.5191
   28MOL0     C 3628   7.424   1.266   7.839  0.2959  1.0426  0.2662
   28MOL0     C 3629   6.572   1.436   7.509 -0.1191 -0.8671 -0.3508
   28MOL0     C 3630   6.441   1.429   7.484 -0.2604 -0.9713  1.3317
   28MOL0     H 3631   6.022   1.531   7.268 -0.3960  1.2431  0.1370
   28MOL0     H 3632   5.784   1.522   7.229 -1.5126  2.6051  1.6986
   28MOL0     H 3633   5.540   1.345   7.570  1.9005 -1.2057 -0.7223
   28MOL0     H 3634   5.568   1.215   7.455  1.7358 -0.4237  2.8825
   28MOL0     H 3635   5.392   1.269   7.310 -0.4703 -1.9230  2.1224
   28MOL0     H 3636   5.365   1.436   7.371  0.6733  0.0344 -1.8859
   28MOL0     H 3637   5.270   1.342   7.575 -1.6315  0.1686 -1.4331
   28MOL0     H 3638   5.297   1.174   7.523  0.2155 -0.3719  0.5494
   28MOL0     H 3639   5.107   1.381   7.395 -1.5624 -0.4684 -0.1192
   28MOL0     H 3640   5.170   1.234   7.310  0.3054 -4.4728  1.8240
   28MOL0     H 3641   5.046   1.240   7.582  1.6211  0.9080 -0.3874
   28MOL0     H 3642   5.061   1.098   7.482 -1.0026  0.2623  0.8536
   28MOL0     H 3643   4.887   1.190   7.322  1.4117  0.9179 -0.1091
   28MOL0     H 3644   4.877   1.327   7.431 -2.0462  0.2235 -2.0485
   28MOL0     H 3645   4.707   1.137   7.454  0.4978  1.0588 -0.3219
   28MOL0     H 3646   4.851   1.043   7.540  1.2940  0.3918  1.3267
   28MOL0     H 3647   4.867   1.212   7.704 -0.0458  1.4687 -0.4151
   28MOL0     H 3648   4.742   1.095   7.697 -1.5892 -1.9535 -3.8600
   28MOL0     H 3649   4.767   1.464   7.597  1.5222 -0.1979  2.9392
   28MOL0     H 3650   4.588   1.682   7.628 -1.8428  0.0609 -1.0861
   28MOL0     H 3651   4.586   1.656   7.807 -0.2070  1.1950 -0.4939
   28MOL0     H 3652   4.352   1.584   7.633  2.0683 -3.3794  1.8781
   28MOL0     H 3653   4.382   1.761   7.635 -0.4016 -1.0732 -2.3558
   28MOL0     H 3654   4.327   1.584   7.890 -2.6097  0.3855  0.3102
   28MOL0     H 3655   4.351   1.764   7.886  1.0410  2.4009 -3.6165
   28MOL0     H 3656   4.159   1.796   7.772 -1.7981  2.8898  5.1673
   28MOL0     H 3657   4.132   1.723   7.919 -1.6657  3.4232 -1.1497
   28MOL0     H 3658   3.961   1.837   7.786  0.4896  0.2084 -1.1661
   28MOL0     H 3659   3.751   1.904   7.691  1.7599  1.9363 -3.6933
   28MOL0     H 3660   3.451   1.719   7.243  1.8867  0.5238  1.6557
   28MOL0     H 3661   3.228   1.802   7.166  1.7744  1.4277  0.2512
   28MOL0     H 3662   2.883   1.878   7.442  2.2433 -0.7373  1.9022
   28MOL0     H 3663   2.898   1.704   7.420 -1.9566  0.1766  1.3918
   28MOL0     H 3664   2.787   1.724   7.190  0.0304 -3.7132  3.0241
   28MOL0     H 3665   2.774   1.904   7.220  0.2465  1.0737  2.3145
   28MOL0     H 3666   2.640   1.864   7.417 -2.1294  1.5189 -0.7958
   28MOL0     H 3667   2.660   1.688   7.395 -1.5786  0.3874 -0.6187
   28MOL0     H 3668   2.497   1.874   7.217  2.8489  0.7657  0.4054
   28MOL0     H 3669   2.577   1.730   7.156  2.7314  1.6944  0.2873
   28MOL0     H 3670   2.380   1.727   7.392 -1.4231  0.4099 -1.7060
   28MOL0     H 3671   2.434   1.583   7.296  0.1971 -1.2334  1.6777
   28MOL0     H 3672   2.325   1.663   7.105 -0.7804 -2.2347  0.4662
   28MOL0     H 3673   2.276   1.818   7.187 -6.2531  0.0287  3.6751
   28MOL0     H 3674   2.198   1.524   7.238 -0.5602 -0.3979  0.5694
   28MOL0     H 3675   2.172   1.662   7.352  2.1085 -1.4674  0.0206
   28MOL0     H 3676   2.016   1.570   7.127 -1.4413  1.5448 -2.9193
   28MOL0     H 3677   2.073   1.734   7.086  0.8337  0.2854 -0.2949
   28MOL0     H 3678   3.064   1.748   7.558  0.4927  0.3268 -0.0514
   28MOL0     H 3679   3.270   1.646   7.627 -1.1983  3.4414  1.6424
   28MOL0     H 3680   3.722   1.502   7.519  1.6327 -1.6178  0.7027
   28MOL0     H 3681   3.924   1.448   7.600 -0.5320  0.2152  0.5710
   28MOL0     H 3682   5.737   1.335   7.619 -0.3506  1.3193  0.2808
   28MOL0     H 3683   5.970   1.358   7.649  0.1739  0.8602  1.4339
   28MOL0     H 3684   6.382   1.121   7.613  3.6076 -1.5734  1.0096
   28MOL0     H 3685   6.627   1.147   7.656 -0.4599 -0.1745 -1.4363
   28MOL0     H 3686   6.822   1.384   7.809  0.5859 -0.4885 -0.5715
   28MOL0     H 3687   6.770   1.521   7.705 -0.0108  0.5531 -1.2048
   28MOL0     H 3688   6.988   1.464   7.574  1.6192 -3.9451  0.2462
   28MOL0     H 3689   7.004   1.545   7.730 -1.0194  2.3802 -2.5885
   28MOL0     H 3690   7.024   1.240   7.707  0.6583  0.2956 -2.3414
   28MOL0     H 3691   7.056   1.347   7.847  0.4348 -1.8770 -0.4291
   28MOL0     H 3692   7.231   1.290   7.598  3.8342  0.0341  0.8485
   28MOL0     H 3693   7.231   1.453   7.675  3.5803 -0.8778  1.7152
   28MOL0     H 3694   7.516   1.222   7.873  1.8641  2.3911 -1.9239
   28MOL0     H 3695   6.617   1.524   7.463 -3.3719  0.1274 -1.8831
   28MOL0     H 3696   6.394   1.512   7.432  0.3772 -1.7434 -0.5855
   29MOL0     O 3697  11.121   5.104   4.984 -0.7280  0.5816 -0.4152
   29MOL0     C 3698  11.138   5.224   4.978 -0.4509 -0.2138 -0.2382
   29MOL0     O 3699  11.032   5.316   4.977  0.9113  0.5830  0.3797
   29MOL0     C 3700  10.895   5.290   4.973 -0.4863  0.2374 -0.1350
   29MOL0     C 3701  10.816   5.177   5.019 -0.4253  0.0923  0.3355
   29MOL0     C 3702  10.684   5.173   5.011 -0.0230  0.6019  0.4334
   29MOL0     C 3703  10.616   5.277   4.937 -0.0792  0.0094  0.3334
   29MOL0     O 3704  10.483   5.253   4.916  0.2580 -0.3606  0.6774
   29MOL0     C 3705  10.395   5.367   4.917  0.1810 -0.0079 -0.6237
   29MOL0     C 3706  10.302   5.349   5.028 -0.2554 -0.4316 -0.0828
   29MOL0     C 3707  10.199   5.465   5.028  0.5480 -0.4464  0.8657
   29MOL0     C 3708  10.121   5.473   5.154 -0.2661  0.9613  0.1062
   29MOL0     C 3709   9.975   5.503   5.130 -0.2637 -0.1645  0.4439
   29MOL0     C 3710   9.902   5.387   5.077 -0.4470 -0.0028  0.1230
   29MOL0     C 3711   9.750   5.422   5.072 -0.6235  0.9036  0.8121
   29MOL0     C 3712   9.678   5.391   5.199 -1.0235  0.4163 -0.2471
   29MOL0     N 3713   9.528   5.401   5.184  1.1171  0.5345 -0.2144
   29MOL0     C 3714   9.443   5.291   5.171 -0.9986  0.2692 -0.0556
   29MOL0     C 3715   9.321   5.340   5.149 -0.1508 -0.6263 -0.1378
   29MOL0     C 3716   9.202   5.251   5.099  0.6684 -0.8683 -0.8882
   29MOL0     C 3717   9.211   5.199   4.960  0.1386 -0.5597  0.4534
   29MOL0     C 3718   9.086   5.181   4.877 -0.2165  0.2236  0.1094
   29MOL0     C 3719   9.107   5.080   4.757  0.0654 -0.2383 -0.4024
   29MOL0     O 3720   8.995   5.087   4.680  0.0595 -0.1436 -0.0495
   29MOL0     C 3721   8.990   5.041   4.549 -0.0801 -0.7747 -0.4655
   29MOL0     C 3722   8.863   5.059   4.485 -0.0307 -0.1625  0.2936
   29MOL0     C 3723   8.843   5.002   4.360 -0.0882 -0.1716 -0.3940
   29MOL0     C 3724   8.945   4.929   4.300  0.5511  0.2256  0.3111
   29MOL0     C 3725   8.926   4.883   4.163  0.5910  1.4946  1.0421
   29MOL0     O 3726   8.805   4.906   4.091  0.7334 -0.6342 -0.4822
   29MOL0     C 3727   8.781   4.881   3.960 -0.2160  0.9211 -0.7132
   29MOL0     C 3728   8.810   4.760   3.898 -0.5632  0.0816 -0.6289
   29MOL0     C 3729   8.787   4.733   3.759  0.7271 -0.6496  0.2253
   29MOL0     C 3730   8.730   4.827   3.682  0.9139 -0.3314  0.6751
   29MOL0     O 3731   8.709   4.825   3.541  0.2887 -0.0686  0.6421
   29MOL0     C 3732   8.719   4.703   3.476 -0.6643 -0.1697  1.4220
   29MOL0     C 3733   8.860   4.702   3.415  0.4246  0.3632 -0.6155
   29MOL0     C 3734   8.874   4.587   3.307 -0.5272  0.0963 -0.1766
   29MOL0     C 3735   8.997   4.611   3.216  0.3564  0.0963  0.7728
   29MOL0     C 3736   9.051   4.478   3.165 -0.9891  0.7702  0.1358
   29MOL0     C 3737   9.090   4.362   3.258 -1.2357  0.7633 -0.0266
   29MOL0     C 3738   9.174   4.411   3.384 -0.2985  0.0504 -0.9177
   29MOL0     C 3739   9.209   4.298   3.483 -0.0434 -0.9819  0.3943
   29MOL0    Cl 3740   9.333   4.358   3.618  0.5360  0.3649  0.2754
   29MOL0     C 3741   8.704   4.948   3.743  0.4076  0.0328 -0.7670
   29MOL0     C 3742   8.724   4.977   3.876  0.7173  0.6101 -0.0925
   29MOL0     O 3743   9.014   4.813   4.110  0.9503 -0.4818 -0.3386
   29MOL0     C 3744   9.073   4.913   4.363  0.1968  0.5908  0.2846
   29MOL0     C 3745   9.092   4.962   4.496 -0.1084  0.9260 -0.5779
   29MOL0     N 3746   9.328   5.482   5.151  0.1074  0.4904  0.2353
   29MOL0     N 3747   9.452   5.514   5.173 -0.2072 -1.4438 -0.6678
   29MOL0     C 3748  10.690   5.384   4.897  0.8009  0.2191  0.6849
   29MOL0     C 3749  10.824   5.393   4.915 -0.1024  0.1143  0.8171
   29MOL0     C 3750  11.273   5.292   4.977 -0.5437 -0.5007 -0.5677
   29MOL0     C 3751  11.282   5.432   4.989  0.4328 -0.4963 -0.8940
   29MOL0     C 3752  11.406   5.489   4.991 -0.4405 -0.5743  0.5922
   29MOL0     C 3753  11.525   5.416   4.996 -0.0625 -0.8651 -0.2258
   29MOL0     O 3754  11.638   5.494   4.993  0.1911 -0.2923 -0.1210
   29MOL0     C 3755  11.760   5.417   4.975  0.6441  0.3627  0.0612
   29MOL0     C 3756  11.881   5.506   5.005  0.3937 -0.1319 -0.1718
   29MOL0     C 3757  11.999   5.461   4.936 -0.9586  0.2304  0.1693
   29MOL0     C 3758  12.127   5.549   4.950 -0.6536  0.1936  0.3684
   29MOL0     C 3759  12.116   5.690   4.913  0.0932 -0.0029 -0.0026
   29MOL0     C 3760  12.112   5.810   4.892  0.3970  0.1465  0.1743
   29MOL0     C 3761  11.517   5.277   4.979 -0.0352  0.0053 -0.3330
   29MOL0     C 3762  11.395   5.215   4.961  0.4762 -0.6801 -0.2942
   29MOL0     H 3763  10.866   5.089   5.059 -0.8207 -0.6487 -0.7503
   29MOL0     H 3764  10.639   5.076   5.030  1.1868 -0.1847 -0.5576
   29MOL0     H 3765  10.339   5.367   4.824 -1.5989  1.2756  0.3705
   29MOL0     H 3766  10.441   5.466   4.924 -0.0772  0.2028 -1.7096
   29MOL0     H 3767  10.355   5.345   5.123  0.7613  1.7355 -0.4903
   29MOL0     H 3768  10.248   5.254   5.031 -0.3465 -0.3422  2.1020
   29MOL0     H 3769  10.136   5.467   4.939 -1.4462 -1.2876  2.1709
   29MOL0     H 3770  10.263   5.553   5.020  0.2374 -0.1836  1.2309
   29MOL0     H 3771  10.136   5.381   5.212  3.7131  1.1400 -0.3447
   29MOL0     H 3772  10.183   5.540   5.214  0.1293  0.1258  0.6639
   29MOL0     H 3773   9.970   5.584   5.057 -0.9843  0.7622  1.4890
   29MOL0     H 3774   9.921   5.538   5.219  2.2372  1.2282  1.5389
   29MOL0     H 3775   9.912   5.291   5.128 -0.5634  1.1811  2.5308
   29MOL0     H 3776   9.934   5.376   4.973 -1.3415  2.6720 -0.5374
   29MOL0     H 3777   9.715   5.518   5.034  1.0081  0.5664 -1.7686
   29MOL0     H 3778   9.726   5.347   4.996 -0.4295 -0.5201  2.0973
   29MOL0     H 3779   9.702   5.469   5.272 -0.8226  1.2585 -1.1735
   29MOL0     H 3780   9.702   5.291   5.235 -1.4265  1.2056  2.4424
   29MOL0     H 3781   9.478   5.188   5.173 -2.7699 -0.3746 -0.5249
   29MOL0     H 3782   9.110   5.310   5.093  0.6233 -0.7925  0.2559
   29MOL0     H 3783   9.190   5.161   5.160 -3.8568 -1.9901 -2.9541
   29MOL0     H 3784   9.253   5.098   4.953 -1.4947 -1.3133  0.9086
   29MOL0     H 3785   9.272   5.275   4.911 -0.8739  0.8021  1.2468
   29MOL0     H 3786   9.014   5.128   4.940  1.4521 -0.8741  1.1648
   29MOL0     H 3787   9.062   5.282   4.842 -2.2902 -0.1582  0.3238
   29MOL0     H 3788   9.113   4.975   4.788 -2.8130 -0.5372 -0.5487
   29MOL0     H 3789   9.193   5.112   4.698  1.2550 -0.7233  0.9935
   29MOL0     H 3790   8.779   5.109   4.533  1.1948 -0.6938  3.2084
   29MOL0     H 3791   8.740   5.006   4.328 -1.1065  0.9216  2.6438
   29MOL0     H 3792   8.853   4.677   3.953 -2.6933 -0.4867  0.2540
   29MOL0     H 3793   8.803   4.631   3.726 -0.7146 -0.7568 -0.2241
   29MOL0     H 3794   8.646   4.707   3.395 -1.9064 -1.8076  2.3732
   29MOL0     H 3795   8.695   4.618   3.541  3.2507 -0.3850  2.7942
   29MOL0     H 3796   8.941   4.687   3.487 -0.8566 -1.5885  0.4837
   29MOL0     H 3797   8.881   4.797   3.365 -2.0150 -0.5437 -3.6709
   29MOL0     H 3798   8.782   4.576   3.250 -1.7486 -0.4831  1.7789
   29MOL0     H 3799   8.891   4.497   3.367  2.2597  0.6037 -0.0437
   29MOL0     H 3800   8.966   4.673   3.131 -1.9139 -1.5553  0.3096
   29MOL0     H 3801   9.076   4.661   3.274  2.8626 -1.5830 -1.0116
   29MOL0     H 3802   9.137   4.510   3.104  0.9578  1.5149  3.0745
   29MOL0     H 3803   8.972   4.436   3.102 -1.3800  2.1520 -0.3239
   29MOL0     H 3804   9.144   4.288   3.198 -1.3270  0.4010  0.3337
   29MOL0     H 3805   8.999   4.309   3.290  0.5357 -2.0203  0.8058
   29MOL0     H 3806   9.265   4.461   3.349  0.3453 -0.5760 -0.1971
   29MOL0     H 3807   9.113   4.484   3.438 -0.2662 -1.7129  1.6940
   29MOL0     H 3808   9.268   4.233   3.418  0.4796  1.0668 -1.2978
   29MOL0     H 3809   9.123   4.238   3.512 -0.6570 -0.8199 -1.0328
   29MOL0     H 3810   8.667   5.028   3.679  0.6762  0.2388 -0.6693
   29MOL0     H 3811   8.700   5.075   3.915 -1.0185 -0.8908  2.9872
   29MOL0     H 3812   9.151   4.861   4.308  0.6630  0.2518  1.2279
   29MOL0     H 3813   9.190   4.950   4.541 -1.0623 -0.9708  1.1816
   29MOL0     H 3814  10.646   5.463   4.836 -1.9655 -0.0326  2.2228
   29MOL0     H 3815  10.880   5.481   4.885  0.4259  0.7012  3.2885
   29MOL0     H 3816  11.196   5.499   4.983  0.6272 -0.0630  0.8269
   29MOL0     H 3817  11.406   5.598   4.989 -0.2333 -0.5696  0.8253
   29MOL0     H 3818  11.765   5.384   4.871  1.0882  1.3177 -0.2370
   29MOL0     H 3819  11.766   5.327   5.037  0.9225 -0.5110 -1.1947
   29MOL0     H 3820  11.849   5.603   4.969  2.8500  1.3909  1.4468
   29MOL0     H 3821  11.889   5.516   5.114 -5.5733 -3.1993  1.0027
   29MOL0     H 3822  11.990   5.451   4.827 -0.7456  0.5129  0.1246
   29MOL0     H 3823  12.027   5.364   4.977  1.1333  0.2973 -0.9863
   29MOL0     H 3824  12.170   5.538   5.050 -1.6011  1.0108  0.8789
   29MOL0     H 3825  12.210   5.515   4.887  0.9687 -0.5389  2.7676
   29MOL0     H 3826  12.104   5.914   4.870 -2.9545  0.0267  0.3228
   29MOL0     H 3827  11.607   5.216   4.980  0.3347  0.4812  2.2202
   29MOL0     H 3828  11.399   5.113   4.922  1.1535  0.3565 -3.2338
   30MOL0     O 3829  10.643   3.259   4.942 -0.5760  0.5058  0.5916
   30MOL0     C 3830  10.648   3.380   4.927 -1.1645 -1.0183  0.2740
   30MOL0     O 3831  10.559   3.474   4.968 -0.9187  0.3925  0.5571
   30MOL0     C 3832  10.439   3.430   5.014  0.2234  0.3449 -0.9224
   30MOL0     C 3833  10.342   3.377   4.925 -0.9451 -0.0821 -0.3273
   30MOL0     C 3834  10.216   3.341   4.975  1.0919  0.2266 -1.0564
   30MOL0     C 3835  10.189   3.340   5.115 -0.7278 -0.0569  0.0378
   30MOL0     O 3836  10.072   3.297   5.174 -0.4789 -0.3870 -0.1625
   30MOL0     C 3837   9.958   3.265   5.090 -0.3595 -0.4228  0.4318
   30MOL0     C 3838   9.834   3.287   5.172  0.3401 -0.4048 -0.3652
   30MOL0     C 3839   9.701   3.266   5.087 -0.8508 -1.0113 -0.4071
   30MOL0     C 3840   9.590   3.366   5.124 -0.3663  0.4705 -1.1701
   30MOL0     C 3841   9.553   3.353   5.275 -0.4863  0.0486  0.8071
   30MOL0     C 3842   9.496   3.218   5.328  0.5533 -0.1802  0.1633
   30MOL0     C 3843   9.366   3.174   5.273  0.6154 -0.9070 -0.8303
   30MOL0     C 3844   9.273   3.289   5.263  0.7863  0.5767  0.4809
   30MOL0     N 3845   9.137   3.248   5.222  0.2652  0.0855 -0.5370
   30MOL0     C 3846   9.107   3.193   5.096  0.0818  0.0554 -0.7619
   30MOL0     C 3847   8.987   3.148   5.106  0.8810  0.3512  0.4743
   30MOL0     C 3848   8.915   3.095   4.973  0.0420 -1.0262 -0.2520
   30MOL0     C 3849   8.896   2.941   4.976 -0.6493  0.7710 -0.2089
   30MOL0     C 3850   9.017   2.848   4.959  0.5503 -0.2858  0.4642
   30MOL0     C 3851   9.109   2.875   4.837  0.1106  0.4588 -1.0986
   30MOL0     O 3852   9.208   2.967   4.872  0.4734  0.3217 -0.0598
   30MOL0     C 3853   9.308   2.998   4.787 -0.2607 -0.3337  0.3035
   30MOL0     C 3854   9.338   2.924   4.681  0.5329 -0.6095  0.4394
   30MOL0     C 3855   9.450   2.955   4.597  0.3569  1.0662  0.2438
   30MOL0     C 3856   9.533   3.059   4.639 -0.2488 -0.8719  0.1633
   30MOL0     C 3857   9.665   3.089   4.571 -0.3568  0.2173 -0.0854
   30MOL0     O 3858   9.760   3.166   4.644  1.1089 -0.2258  0.6643
   30MOL0     C 3859   9.882   3.196   4.588 -0.7722 -0.1249 -0.7575
   30MOL0     C 3860   9.956   3.300   4.650  0.5643  0.5129  0.2495
   30MOL0     C 3861  10.075   3.348   4.599 -0.7717  0.0984  0.2302
   30MOL0     C 3862  10.123   3.293   4.481 -0.7019  0.1278  0.5004
   30MOL0     O 3863  10.244   3.329   4.424  0.2355 -0.8763 -0.3553
   30MOL0     C 3864  10.335   3.422   4.489 -0.2702 -0.2689  0.1981
   30MOL0     C 3865  10.464   3.413   4.396  0.5397  0.1321  0.1588
   30MOL0     C 3866  10.584   3.503   4.460 -0.6100  0.6735 -0.3187
   30MOL0     C 3867  10.720   3.466   4.394 -1.4107  0.1409  0.8430
   30MOL0     C 3868  10.765   3.319   4.406 -0.4636 -0.4544 -0.9356
   30MOL0     C 3869  10.923   3.283   4.395 -0.0690 -0.0479  0.2847
   30MOL0     C 3870  10.995   3.359   4.286 -0.6299 -0.0356  0.1936
   30MOL0     C 3871  11.136   3.377   4.335  0.7630 -0.9694 -0.8356
   30MOL0    Cl 3872  11.220   3.477   4.206  0.0340 -0.0692 -0.1962
   30MOL0     C 3873  10.044   3.198   4.413  0.3474 -0.2832 -0.2120
   30MOL0     C 3874   9.926   3.147   4.463 -1.0023  0.4517 -0.6596
   30MOL0     O 3875   9.671   3.052   4.451 -0.2207 -0.0144 -0.4439
   30MOL0     C 3876   9.506   3.133   4.746 -0.6309 -0.2670  0.3065
   30MOL0     C 3877   9.394   3.107   4.824  0.2566 -1.2514 -0.0903
   30MOL0     N 3878   8.933   3.173   5.231 -0.2649 -0.0457 -0.7674
   30MOL0     N 3879   9.035   3.227   5.305  0.4195  0.4809 -0.8092
   30MOL0     C 3880  10.288   3.393   5.203 -0.4406 -0.6402 -0.3603
   30MOL0     C 3881  10.415   3.435   5.153  0.5454 -0.5498  0.9571
   30MOL0     C 3882  10.771   3.430   4.865 -1.0597 -1.1971 -0.3353
   30MOL0     C 3883  10.872   3.348   4.823 -0.4603  0.5762  0.6632
   30MOL0     C 3884  10.971   3.399   4.746 -0.3139 -0.3461  0.5401
   30MOL0     C 3885  10.986   3.537   4.715 -0.1260  0.0949  0.5248
   30MOL0     O 3886  11.091   3.567   4.635  0.1047  0.1457  0.8498
   30MOL0     C 3887  11.103   3.703   4.593 -0.2952 -0.0607  0.0822
   30MOL0     C 3888  11.227   3.709   4.506 -0.3129  0.5222  0.0425
   30MOL0     C 3889  11.352   3.627   4.540 -0.5906  0.0073  0.3326
   30MOL0     C 3890  11.472   3.659   4.462 -0.8258 -0.7876 -0.5568
   30MOL0     C 3891  11.537   3.784   4.505 -0.3596 -0.1530 -0.6528
   30MOL0     C 3892  11.604   3.883   4.518 -0.6037 -0.2530 -0.1345
   30MOL0     C 3893  10.881   3.625   4.750 -0.5890  0.2052  0.6163
   30MOL0     C 3894  10.779   3.566   4.829 -0.5077 -1.3519 -0.9846
   30MOL0     H 3895  10.366   3.359   4.821 -0.1163 -1.9832  0.1451
   30MOL0     H 3896  10.149   3.308   4.898 -0.1396 -2.0426  0.8554
   30MOL0     H 3897   9.948   3.160   5.059  0.0317 -0.7421  1.3647
   30MOL0     H 3898   9.948   3.331   5.003  1.3840 -3.0823 -2.0134
   30MOL0     H 3899   9.849   3.389   5.210  4.0932 -1.5215  1.6493
   30MOL0     H 3900   9.836   3.205   5.244  1.1254 -0.8587 -0.8942
   30MOL0     H 3901   9.659   3.166   5.097 -1.0968 -0.7195  2.2948
   30MOL0     H 3902   9.719   3.275   4.980  0.8864 -1.5419 -0.1945
   30MOL0     H 3903   9.632   3.467   5.112  1.5876 -0.0886  0.3469
   30MOL0     H 3904   9.507   3.355   5.054 -0.8154  2.9872 -1.1404
   30MOL0     H 3905   9.492   3.436   5.309  0.8630  2.4816 -2.2594
   30MOL0     H 3906   9.650   3.367   5.325 -0.0453 -1.6946  0.5376
   30MOL0     H 3907   9.487   3.239   5.436  1.7858  0.8697  0.0936
   30MOL0     H 3908   9.571   3.139   5.317 -0.1420 -0.5127 -3.1031
   30MOL0     H 3909   9.387   3.133   5.174  0.3918 -1.7276 -0.5436
   30MOL0     H 3910   9.325   3.097   5.338  0.6666 -0.8847 -0.7716
   30MOL0     H 3911   9.310   3.343   5.175 -0.4566 -0.7825 -0.9439
   30MOL0     H 3912   9.260   3.355   5.349 -0.4837 -0.0155  0.7651
   30MOL0     H 3913   9.164   3.189   5.004 -1.3610  2.1458 -1.8389
   30MOL0     H 3914   8.976   3.110   4.883  1.3075  1.6493  0.9331
   30MOL0     H 3915   8.824   3.156   4.971  0.6868  0.2547  3.0016
   30MOL0     H 3916   8.838   2.917   4.887  0.8142  2.4046 -1.6846
   30MOL0     H 3917   8.843   2.924   5.071  2.4854  2.7172  2.1022
   30MOL0     H 3918   9.064   2.884   5.050 -0.0800  1.7671  0.0297
   30MOL0     H 3919   8.988   2.743   4.973  0.0915  0.0415  2.2261
   30MOL0     H 3920   9.059   2.899   4.742 -1.1113  0.5951 -0.4397
   30MOL0     H 3921   9.162   2.781   4.820 -0.8640 -0.0446 -1.3766
   30MOL0     H 3922   9.268   2.845   4.655  0.3508 -0.3875  0.2473
   30MOL0     H 3923   9.474   2.887   4.516 -0.7100  0.3938  0.4611
   30MOL0     H 3924   9.907   3.338   4.738  0.2182  2.2966 -0.6698
   30MOL0     H 3925  10.122   3.430   4.652 -1.4336  1.3434 -1.0278
   30MOL0     H 3926  10.349   3.393   4.594  1.3169 -2.6964 -0.5982
   30MOL0     H 3927  10.301   3.525   4.482  4.2292  1.4431  0.2862
   30MOL0     H 3928  10.430   3.448   4.298 -0.7344 -1.0348  0.1478
   30MOL0     H 3929  10.494   3.309   4.379  1.6920  0.0437  2.3600
   30MOL0     H 3930  10.592   3.477   4.566 -1.3471  1.1158 -0.1491
   30MOL0     H 3931  10.561   3.609   4.453 -5.8992  0.0396  2.4871
   30MOL0     H 3932  10.734   3.503   4.291  3.9016 -3.1113  0.0085
   30MOL0     H 3933  10.799   3.517   4.451 -0.4267  0.5458 -0.8076
   30MOL0     H 3934  10.701   3.262   4.338 -2.3675 -1.5208  1.5986
   30MOL0     H 3935  10.732   3.288   4.505  1.7258 -0.0706 -0.0271
   30MOL0     H 3936  10.930   3.174   4.384 -1.4893  0.0802 -2.7226
   30MOL0     H 3937  10.949   3.319   4.495  0.2245  1.0457 -0.1679
   30MOL0     H 3938  10.999   3.308   4.189 -1.0311  0.5196 -0.1141
   30MOL0     H 3939  10.957   3.461   4.287  1.2439  0.8285  4.3444
   30MOL0     H 3940  11.176   3.276   4.351  1.2474 -1.1663 -2.9890
   30MOL0     H 3941  11.144   3.435   4.428  0.6537  0.9625 -1.9821
   30MOL0     H 3942  10.080   3.160   4.318 -1.4556 -0.3610 -0.9092
   30MOL0     H 3943   9.888   3.067   4.402 -1.9391  0.6909 -0.4147
   30MOL0     H 3944   9.580   3.207   4.774  3.0475 -3.5366  0.0475
   30MOL0     H 3945   9.366   3.172   4.906 -2.0549 -2.3129  0.0585
   30MOL0     H 3946  10.270   3.378   5.309 -2.1785  3.6027  0.1177
   30MOL0     H 3947  10.494   3.473   5.218 -0.1549  0.5832  1.1734
   30MOL0     H 3948  10.874   3.242   4.846  0.6098  0.1844 -1.0833
   30MOL0     H 3949  11.045   3.331   4.707  1.0470  1.0821  0.5422
   30MOL0     H 3950  11.117   3.769   4.680 -0.9509  2.1684 -1.4360
   30MOL0     H 3951  11.021   3.744   4.534 -0.1525  1.0660  0.6255
   30MOL0     H 3952  11.188   3.681   4.408 -0.6488 -1.4517  0.6987
   30MOL0     H 3953  11.245   3.817   4.498 -1.1018  0.5890 -0.9808
   30MOL0     H 3954  11.339   3.519   4.527  2.1631 -0.6218  1.9510
   30MOL0     H 3955  11.374   3.647   4.645  0.8677  3.2337 -0.4341
   30MOL0     H 3956  11.548   3.581   4.457 -0.6721 -0.6217 -0.9606
   30MOL0     H 3957  11.442   3.689   4.361  1.0901  1.2619 -0.5935
   30MOL0     H 3958  11.672   3.964   4.535 -0.8114 -0.5846  2.8051
   30MOL0     H 3959  10.894   3.732   4.740  2.2147  0.0630  1.8478
   30MOL0     H 3960  10.704   3.637   4.863  0.0384 -0.5266 -1.4700
   31MOL0     O 3961   3.449  10.188   7.685 -0.8699 -0.4718  0.6673
   31MOL0     C 3962   3.470  10.167   7.572 -0.6719 -0.0125  0.4871
   31MOL0     O 3963   3.579  10.208   7.497  0.1302 -0.5702  0.1542
   31MOL0     C 3964   3.695  10.256   7.563  1.5688 -0.1089 -1.5325
   31MOL0     C 3965   3.739  10.392   7.532  0.5166 -0.0473 -0.7886
   31MOL0     C 3966   3.855  10.448   7.595 -0.4406  0.2799 -0.7767
   31MOL0     C 3967   3.930  10.365   7.687  0.3304 -0.7622 -0.4185
   31MOL0     O 3968   4.040  10.416   7.747 -0.7705  0.3779  0.1648
   31MOL0     C 3969   4.172  10.350   7.717 -0.1630 -0.8807 -0.0711
   31MOL0     C 3970   4.262  10.449   7.635  0.6726  0.0605 -0.0469
   31MOL0     C 3971   4.197  10.477   7.494 -0.2595  0.2501 -0.3671
   31MOL0     C 3972   4.288  10.578   7.418  1.1257  0.2774  0.3376
   31MOL0     C 3973   4.275  10.539   7.270  0.2995  0.6255  0.2393
   31MOL0     C 3974   4.142  10.566   7.212 -0.2512  0.1071 -0.3005
   31MOL0     C 3975   4.137  10.566   7.057  0.5709  0.1646 -0.4469
   31MOL0     C 3976   4.154  10.430   6.980 -0.5642  0.3410 -0.4401
   31MOL0     N 3977   4.079  10.321   7.043 -0.1992 -0.3115  0.9365
   31MOL0     C 3978   3.946  10.320   7.093  0.2525  0.1228  0.9185
   31MOL0     C 3979   3.926  10.203   7.158 -0.0240 -0.4617  0.5782
   31MOL0     C 3980   3.806  10.154   7.228  0.3198  1.2434 -0.9642
   31MOL0     C 3981   3.787  10.000   7.211 -0.0426 -0.0083 -0.0512
   31MOL0     C 3982   3.830   9.942   7.343  0.8969 -0.6308  0.3743
   31MOL0     C 3983   3.778   9.801   7.341 -0.9488  0.4969 -0.8359
   31MOL0     O 3984   3.785   9.736   7.474 -0.0807  0.5332 -0.3403
   31MOL0     C 3985   3.649   9.713   7.506  0.5428 -0.0879  0.7018
   31MOL0     C 3986   3.578   9.786   7.604  0.7527  0.7129 -0.4632
   31MOL0     C 3987   3.444   9.753   7.640  0.4951  0.2669  0.1335
   31MOL0     C 3988   3.369   9.647   7.572 -0.0393 -0.3147  0.0450
   31MOL0     C 3989   3.232   9.601   7.602 -0.6073 -0.6538 -0.6222
   31MOL0     O 3990   3.204   9.466   7.585 -0.0512 -1.1059  0.1435
   31MOL0     C 3991   3.078   9.407   7.582  0.3782  0.2105 -0.8435
   31MOL0     C 3992   3.072   9.265   7.586  0.2520  0.3064 -0.2079
   31MOL0     C 3993   2.949   9.200   7.591  0.7367 -0.9546  0.1219
   31MOL0     C 3994   2.831   9.271   7.608 -0.1423 -0.1747  0.3474
   31MOL0     O 3995   2.714   9.196   7.621 -0.1604  0.4695 -0.0989
   31MOL0     C 3996   2.625   9.231   7.721  0.5972  0.1787 -0.3590
   31MOL0     C 3997   2.522   9.125   7.733  0.4852  0.4042  0.6737
   31MOL0     C 3998   2.439   9.112   7.596  0.5518  0.1554  0.1457
   31MOL0     C 3999   2.305   9.028   7.612 -0.0817 -0.0986 -0.5002
   31MOL0     C 4000   2.194   9.105   7.676  0.8089  0.5335 -0.3899
   31MOL0     C 4001   2.070   9.019   7.715  0.5925 -0.0715 -0.0602
   31MOL0     C 4002   2.003   8.961   7.592  0.3208 -0.0850  0.3687
   31MOL0     C 4003   1.863   8.895   7.621  0.0291 -0.1106  0.0643
   31MOL0    Cl 4004   1.800   8.847   7.458 -0.2659 -0.0621  0.4000
   31MOL0     C 4005   2.827   9.406   7.606 -0.0651 -0.3357  0.9924
   31MOL0     C 4006   2.949   9.471   7.594  0.2550 -0.2167 -0.2467
   31MOL0     O 4007   3.152   9.681   7.642  0.4689 -0.6781  1.0840
   31MOL0     C 4008   3.452   9.577   7.476  0.0574 -0.7450 -0.4298
   31MOL0     C 4009   3.591   9.602   7.447 -0.3296 -0.2930 -0.4619
   31MOL0     N 4010   4.045  10.141   7.157 -0.1901  0.2547 -0.6131
   31MOL0     N 4011   4.125  10.207   7.089 -0.0482  0.3717  0.1891
   31MOL0     C 4012   3.883  10.233   7.708 -0.5566  0.3677 -0.8668
   31MOL0     C 4013   3.770  10.178   7.651 -0.2060 -0.3545  1.0198
   31MOL0     C 4014   3.382  10.082   7.492  0.1379 -0.0796  0.0567
   31MOL0     C 4015   3.270  10.023   7.556 -0.2820 -1.0071  0.2148
   31MOL0     C 4016   3.187   9.933   7.492  1.3032 -0.2678  0.6284
   31MOL0     C 4017   3.207   9.914   7.354  0.4193 -0.5318  0.0854
   31MOL0     O 4018   3.132   9.820   7.282 -0.0137 -0.0596  0.2971
   31MOL0     C 4019   3.012   9.766   7.330 -0.2538 -0.2623 -0.9211
   31MOL0     C 4020   2.959   9.665   7.231 -0.1641  0.7501  0.8083
   31MOL0     C 4021   2.807   9.645   7.267  0.4158 -0.1928  0.2485
   31MOL0     C 4022   2.715   9.560   7.172 -0.0958  0.0777 -0.5983
   31MOL0     C 4023   2.583   9.576   7.212  1.4205 -0.5351 -0.7896
   31MOL0     C 4024   2.469   9.582   7.244  0.3590 -0.3144 -0.9195
   31MOL0     C 4025   3.311   9.974   7.287  0.2109  0.1786  0.0682
   31MOL0     C 4026   3.403  10.051   7.355  0.0254 -1.0883 -0.4007
   31MOL0     H 4027   3.685  10.445   7.455 -1.9571  0.5472  1.1995
   31MOL0     H 4028   3.884  10.552   7.579 -0.1655  0.2577 -0.4358
   31MOL0     H 4029   4.165  10.258   7.657 -0.8441  0.1054 -1.5726
   31MOL0     H 4030   4.223  10.325   7.810  1.4938 -0.2424 -0.7572
   31MOL0     H 4031   4.357  10.398   7.619 -0.3717 -1.9996 -0.0324
   31MOL0     H 4032   4.269  10.542   7.692 -0.7142  0.5737 -0.6651
   31MOL0     H 4033   4.094  10.513   7.499 -0.0447  0.7596  0.7810
   31MOL0     H 4034   4.197  10.380   7.443  1.3274 -1.6376  2.8507
   31MOL0     H 4035   4.249  10.679   7.431  1.6791  0.1633  3.8319
   31MOL0     H 4036   4.395  10.576   7.440  1.3940  1.2243 -0.7942
   31MOL0     H 4037   4.312  10.437   7.262  1.9139  1.3304 -2.0228
   31MOL0     H 4038   4.348  10.607   7.225  2.5748 -0.2135  2.4457
   31MOL0     H 4039   4.122  10.671   7.236  3.3412  1.0292 -0.8048
   31MOL0     H 4040   4.064  10.497   7.248  2.8932 -3.8093 -0.2387
   31MOL0     H 4041   4.043  10.614   7.029  1.3220  0.3650 -2.8517
   31MOL0     H 4042   4.217  10.636   7.031  0.2089  1.1889  1.0299
   31MOL0     H 4043   4.258  10.397   6.986 -0.0540  1.7569 -1.1761
   31MOL0     H 4044   4.123  10.444   6.876 -1.6939 -1.3440 -0.3754
   31MOL0     H 4045   3.874  10.401   7.086  2.0693  1.6889 -0.5621
   31MOL0     H 4046   3.729  10.204   7.167  2.2580  1.5618 -3.3286
   31MOL0     H 4047   3.807  10.188   7.332 -1.8989 -2.4355  0.4655
   31MOL0     H 4048   3.856   9.965   7.134 -0.0376  3.7127 -1.9864
   31MOL0     H 4049   3.685   9.968   7.187  0.2538 -1.0682  0.0782
   31MOL0     H 4050   3.937   9.942   7.363  1.1528  1.4697 -0.8026
   31MOL0     H 4051   3.787   9.998   7.427 -1.4548 -0.2096 -1.0207
   31MOL0     H 4052   3.850   9.751   7.275 -0.0276 -0.6780  0.9766
   31MOL0     H 4053   3.679   9.783   7.298 -0.2663 -1.8552 -1.6183
   31MOL0     H 4054   3.615   9.872   7.659 -1.6468  1.0230  0.8040
   31MOL0     H 4055   3.399   9.809   7.722  0.7537 -0.0332  0.4822
   31MOL0     H 4056   3.151   9.190   7.588 -1.9570 -2.2082  2.1065
   31MOL0     H 4057   2.941   9.092   7.577 -1.8423 -0.8524  0.2920
   31MOL0     H 4058   2.566   9.322   7.704  0.0814 -0.4068 -1.7855
   31MOL0     H 4059   2.685   9.239   7.812 -0.1865 -0.1739  0.2053
   31MOL0     H 4060   2.457   9.141   7.819 -0.0726 -2.6992  0.9287
   31MOL0     H 4061   2.573   9.031   7.753  1.0811  1.1766  3.1569
   31MOL0     H 4062   2.500   9.062   7.520 -0.7889 -2.1653  0.5031
   31MOL0     H 4063   2.416   9.210   7.552  0.8758  0.6636  1.0944
   31MOL0     H 4064   2.279   8.984   7.515 -0.5339 -2.7423  0.7287
   31MOL0     H 4065   2.318   8.946   7.683 -1.5119 -0.8171 -1.0174
   31MOL0     H 4066   2.159   9.185   7.611  2.1177  1.8548  0.4478
   31MOL0     H 4067   2.232   9.147   7.770  1.7515  0.8572 -0.9009
   31MOL0     H 4068   1.998   9.086   7.762  0.9028  0.9348 -0.9824
   31MOL0     H 4069   2.089   8.940   7.789  0.1338  0.4705  0.6430
   31MOL0     H 4070   1.994   9.031   7.508 -3.2056 -0.7420  0.0586
   31MOL0     H 4071   2.061   8.874   7.560  1.9039  1.4429 -1.1125
   31MOL0     H 4072   1.787   8.959   7.667 -0.8816  0.5508 -2.1813
   31MOL0     H 4073   1.876   8.804   7.679 -0.5364 -1.4729 -1.8248
   31MOL0     H 4074   2.728   9.449   7.617  0.1000  1.7520 -3.4234
   31MOL0     H 4075   2.939   9.579   7.587  1.1616 -0.1023  0.0893
   31MOL0     H 4076   3.403   9.497   7.423  1.6924 -3.5249  1.9521
   31MOL0     H 4077   3.647   9.543   7.375  1.3728  1.5641 -0.7480
   31MOL0     H 4078   3.946  10.174   7.775 -0.8598 -0.8921 -1.6545
   31MOL0     H 4079   3.724  10.080   7.665 -1.2134 -0.0969 -0.2898
   31MOL0     H 4080   3.246  10.042   7.661 -0.4209 -1.0781  0.1965
   31MOL0     H 4081   3.108   9.904   7.560 -1.2063  0.3235 -1.8925
   31MOL0     H 4082   2.948   9.854   7.337  1.7334  1.1676  0.2141
   31MOL0     H 4083   3.019   9.719   7.428 -1.4252 -0.1534 -0.7661
   31MOL0     H 4084   2.968   9.695   7.127  0.8451  1.6048  1.1242
   31MOL0     H 4085   3.012   9.574   7.261  0.1586 -0.4216 -2.8515
   31MOL0     H 4086   2.762   9.745   7.263  1.9106  0.4820 -1.5697
   31MOL0     H 4087   2.800   9.585   7.358  1.3595 -0.8016 -0.0714
   31MOL0     H 4088   2.733   9.587   7.068  0.0645 -2.7958 -1.4111
   31MOL0     H 4089   2.736   9.453   7.184  2.3700  0.4739 -0.7241
   31MOL0     H 4090   2.367   9.597   7.275  0.2381 -2.1328 -0.2866
   31MOL0     H 4091   3.328   9.958   7.181 -0.3457  0.6853 -0.1044
   31MOL0     H 4092   3.492  10.078   7.298  0.0839 -0.5459 -0.0514
   32MOL0     O 4093   1.522  10.178   8.181  0.2887  0.2029 -0.0892
   32MOL0     C 4094   1.418  10.235   8.172  0.0852 -0.0135  0.4675
   32MOL0     O 4095   1.398  10.366   8.196  0.5480  0.1909 -0.1410
   32MOL0     C 4096   1.480  10.419   8.291  0.2740  0.0720  0.3326
   32MOL0     C 4097   1.461  10.390   8.427  0.4727  0.3211 -1.1714
   32MOL0     C 4098   1.566  10.423   8.514 -0.2679  0.0789 -0.1740
   32MOL0     C 4099   1.671  10.510   8.473  0.2553  0.4542  0.2119
   32MOL0     O 4100   1.759  10.535   8.571  0.6593 -0.0184 -0.0360
   32MOL0     C 4101   1.775  10.673   8.611  0.5949 -0.4297  0.4596
   32MOL0     C 4102   1.854  10.671   8.748  0.3220 -1.0678  0.1578
   32MOL0     C 4103   1.907  10.807   8.796 -0.1843 -0.8837  1.1443
   32MOL0     C 4104   1.990  10.794   8.935  0.0264  0.3336  0.1326
   32MOL0     C 4105   2.080  10.921   8.932  0.1142 -0.0413 -0.3585
   32MOL0     C 4106   2.153  10.953   9.064  0.3458  0.4174 -0.0942
   32MOL0     C 4107   2.233  10.835   9.116 -0.0014  0.9001 -0.1251
   32MOL0     C 4108   2.325  10.889   9.227  0.5987 -0.3762  0.9073
   32MOL0     N 4109   2.400  10.780   9.273  0.0149  0.7888 -1.1787
   32MOL0     C 4110   2.498  10.720   9.196 -0.4072 -0.5883 -0.6361
   32MOL0     C 4111   2.524  10.609   9.259 -0.9367 -0.0096 -0.5300
   32MOL0     C 4112   2.622  10.509   9.205 -0.4614  0.1807  0.0716
   32MOL0     C 4113   2.586  10.365   9.256  0.5622 -0.2087  0.1319
   32MOL0     C 4114   2.474  10.301   9.171  0.3811 -0.8934  0.8419
   32MOL0     C 4115   2.433  10.161   9.219  0.8785  0.1469 -0.5914
   32MOL0     O 4116   2.425  10.155   9.358 -0.4204 -0.0292 -0.1833
   32MOL0     C 4117   2.304  10.155   9.413  0.4284 -0.2228  0.4468
   32MOL0     C 4118   2.266  10.274   9.477  0.5656 -0.1206  0.5492
   32MOL0     C 4119   2.139  10.272   9.534  0.1739 -0.2542 -0.0556
   32MOL0     C 4120   2.072  10.149   9.542 -0.1353 -0.1854 -0.7988
   32MOL0     C 4121   1.939  10.152   9.603 -0.1279 -0.2500 -0.1920
   32MOL0     O 4122   1.924  10.041   9.687 -0.2894 -0.3670 -0.1902
   32MOL0     C 4123   1.804  10.018   9.743 -0.2496 -0.4979 -0.0767
   32MOL0     C 4124   1.797   9.975   9.879  0.2651  0.3263 -0.1684
   32MOL0     C 4125   1.671   9.956   9.930 -0.2753 -0.1043 -0.5010
   32MOL0     C 4126   1.549   9.974   9.867 -0.2947  0.0308 -0.8752
   32MOL0     O 4127   1.423   9.948   9.903  0.1532  0.1604 -0.0240
   32MOL0     C 4128   1.394   9.952  10.039 -0.1768 -0.2795 -1.3196
   32MOL0     C 4129   1.239   9.956  10.060  0.1701 -0.2585  0.1490
   32MOL0     C 4130   1.188   9.868  10.174  0.3736  0.3427  0.3016
   32MOL0     C 4131   1.222   9.915  10.313  0.5457  0.2072  0.8087
   32MOL0     C 4132   1.152   9.838  10.426 -0.2253 -0.2162 -0.7500
   32MOL0     C 4133   1.221   9.717  10.470 -0.4165  0.1109  0.2906
   32MOL0     C 4134   1.176   9.661  10.614 -0.1474  0.2673  0.5682
   32MOL0     C 4135   1.215   9.519  10.635 -0.1349  0.5896 -0.0617
   32MOL0    Cl 4136   1.100   9.415  10.552 -0.4820  0.1907 -0.1636
   32MOL0     C 4137   1.558  10.019   9.732 -0.7621  0.5341  1.0292
   32MOL0     C 4138   1.688  10.042   9.667 -0.4619 -0.3065 -0.6051
   32MOL0     O 4139   1.864  10.254   9.594 -0.1459 -0.5221 -0.2949
   32MOL0     C 4140   2.131  10.035   9.495  0.1469 -0.0940 -0.3863
   32MOL0     C 4141   2.246  10.035   9.431  0.1738  0.4507 -0.9171
   32MOL0     N 4142   2.458  10.599   9.377  0.9903 -0.1530  0.0687
   32MOL0     N 4143   2.387  10.705   9.387  0.3909 -1.0359 -0.0881
   32MOL0     C 4144   1.684  10.542   8.336  0.9524  0.1638  0.3127
   32MOL0     C 4145   1.590  10.494   8.245  0.1252 -0.5663  0.4032
   32MOL0     C 4146   1.312  10.174   8.080 -0.9943  0.2017 -0.9065
   32MOL0     C 4147   1.325  10.045   8.035 -0.4355 -0.3799 -0.4544
   32MOL0     C 4148   1.235   9.988   7.948  0.1994 -0.2891 -0.0286
   32MOL0     C 4149   1.120  10.058   7.901 -0.1735 -0.1706  1.3092
   32MOL0     O 4150   1.036   9.994   7.816  0.2303 -0.0209 -0.2679
   32MOL0     C 4151   0.922  10.057   7.760 -0.6291  0.1077  0.2403
   32MOL0     C 4152   0.879   9.992   7.637  0.0926  0.3094  0.6348
   32MOL0     C 4153   0.859   9.843   7.672  0.2344 -0.4811  0.4427
   32MOL0     C 4154   0.782   9.764   7.566 -0.9947 -0.6065  0.5816
   32MOL0     C 4155   0.828   9.773   7.424 -0.8410 -0.0708  1.6526
   32MOL0     C 4156   0.853   9.768   7.304  0.3984  0.5459 -0.6895
   32MOL0     C 4157   1.101  10.192   7.945 -0.0989  0.0411  0.6563
   32MOL0     C 4158   1.199  10.245   8.032  0.5441  0.8756 -0.2578
   32MOL0     H 4159   1.377  10.330   8.459  1.6960 -0.4885  0.7333
   32MOL0     H 4160   1.566  10.393   8.618  1.0025  0.0482 -0.1651
   32MOL0     H 4161   1.677  10.717   8.634  1.3681  0.7134  1.7243
   32MOL0     H 4162   1.815  10.729   8.526 -0.8964 -1.2972 -0.8760
   32MOL0     H 4163   1.939  10.602   8.748  0.9650 -0.3443 -1.8356
   32MOL0     H 4164   1.783  10.628   8.819  1.3636 -3.1941 -0.0264
   32MOL0     H 4165   1.828  10.883   8.799 -0.4639 -0.7771 -3.1482
   32MOL0     H 4166   1.976  10.842   8.718  3.8380 -3.8555  2.9864
   32MOL0     H 4167   1.926  10.795   9.024  0.6205  2.4493  0.6030
   32MOL0     H 4168   2.055  10.706   8.942 -0.8691 -0.2157  2.3259
   32MOL0     H 4169   2.006  10.997   8.907  0.1970 -0.3439 -1.5747
   32MOL0     H 4170   2.156  10.913   8.853 -0.4533 -1.2895 -0.8083
   32MOL0     H 4171   2.084  10.974   9.146 -1.5949 -5.4332  0.1868
   32MOL0     H 4172   2.209  11.044   9.041  0.0381  1.1550  1.8624
   32MOL0     H 4173   2.176  10.756   9.166 -1.2960  1.9704  0.1199
   32MOL0     H 4174   2.290  10.801   9.029  0.4349  0.8834  0.1641
   32MOL0     H 4175   2.265  10.938   9.304  1.1290  0.5300  0.7618
   32MOL0     H 4176   2.383  10.965   9.173  0.9036 -0.2081  1.4515
   32MOL0     H 4177   2.529  10.744   9.095 -0.6718 -0.2704 -0.6434
   32MOL0     H 4178   2.723  10.537   9.235  0.5445 -0.6933 -2.2038
   32MOL0     H 4179   2.620  10.512   9.095 -2.6367 -0.0406  0.0678
   32MOL0     H 4180   2.561  10.360   9.363 -0.5982 -0.7434 -0.1377
   32MOL0     H 4181   2.671  10.300   9.237 -0.2623 -0.3220 -4.2531
   32MOL0     H 4182   2.387  10.367   9.176  0.3091 -0.8610 -0.3369
   32MOL0     H 4183   2.505  10.293   9.066 -0.9890 -0.1626  0.3596
   32MOL0     H 4184   2.506  10.093   9.174  1.6443  2.0018 -2.3481
   32MOL0     H 4185   2.337  10.130   9.179  0.3726  1.1964 -0.2164
   32MOL0     H 4186   2.326  10.362   9.457 -0.5058  0.0858 -2.2742
   32MOL0     H 4187   2.084  10.358   9.572  1.1640 -1.6722  5.4122
   32MOL0     H 4188   1.881   9.937   9.936 -1.0830 -1.0351  1.0069
   32MOL0     H 4189   1.668   9.917  10.031  2.7237 -1.8899 -0.9556
   32MOL0     H 4190   1.439  10.040  10.087 -1.5185 -0.7546  0.9929
   32MOL0     H 4191   1.444   9.864  10.080  2.3096  1.1252 -1.1115
   32MOL0     H 4192   1.193   9.924   9.966  1.6027 -1.1648 -0.2792
   32MOL0     H 4193   1.211  10.060  10.080 -0.6140 -0.5122  0.4228
   32MOL0     H 4194   1.244   9.777  10.153  1.0187  1.0923 -1.4669
   32MOL0     H 4195   1.081   9.848  10.163  0.5096  0.8903 -3.4454
   32MOL0     H 4196   1.331   9.917  10.322  1.1804 -0.0958 -3.9695
   32MOL0     H 4197   1.181  10.016  10.324  0.9598  0.2547  2.0255
   32MOL0     H 4198   1.045   9.815  10.420 -0.3188  0.5555 -3.4433
   32MOL0     H 4199   1.153   9.907  10.511  1.0626 -1.2665  0.1237
   32MOL0     H 4200   1.326   9.743  10.484 -0.0648 -0.6181 -0.9286
   32MOL0     H 4201   1.197   9.645  10.391  0.8435 -0.8080  0.7164
   32MOL0     H 4202   1.223   9.728  10.686  2.9786 -2.4354  1.2421
   32MOL0     H 4203   1.067   9.674  10.623 -0.0213  1.4472  0.5192
   32MOL0     H 4204   1.210   9.506  10.743  3.2210  3.1827  0.5769
   32MOL0     H 4205   1.318   9.506  10.599 -0.0703  0.8254  0.0360
   32MOL0     H 4206   1.466  10.034   9.676  0.9202  4.3485 -1.0562
   32MOL0     H 4207   1.693  10.073   9.563  4.2516  1.0870 -0.2062
   32MOL0     H 4208   2.077   9.942   9.508 -0.2897  0.5636  4.3747
   32MOL0     H 4209   2.299   9.941   9.418  2.8482  1.3987  2.0830
   32MOL0     H 4210   1.775  10.589   8.301 -0.5315  0.8347 -2.9738
   32MOL0     H 4211   1.607  10.501   8.138 -0.9786 -0.6979  0.2116
   32MOL0     H 4212   1.411   9.981   8.055  0.0252 -1.7287 -5.2594
   32MOL0     H 4213   1.257   9.890   7.909 -1.1744 -1.5768  2.2541
   32MOL0     H 4214   0.938  10.161   7.728 -2.6604 -0.0532 -1.5023
   32MOL0     H 4215   0.838  10.054   7.829  0.1054  0.5261  1.1748
   32MOL0     H 4216   0.784  10.036   7.605  0.3433 -0.1709 -0.8734
   32MOL0     H 4217   0.948  10.017   7.556  0.4545  1.4787  1.2880
   32MOL0     H 4218   0.802   9.829   7.765 -1.6247 -0.4123 -0.6402
   32MOL0     H 4219   0.954   9.790   7.684  0.3486 -0.4871 -0.4014
   32MOL0     H 4220   0.781   9.663   7.609  0.7524  0.3876  3.2249
   32MOL0     H 4221   0.684   9.811   7.574 -0.9969 -0.7783  1.7737
   32MOL0     H 4222   0.883   9.764   7.201 -1.1531 -0.8324 -1.1454
   32MOL0     H 4223   1.026  10.262   7.909  1.0021  1.0753  0.3137
   32MOL0     H 4224   1.190  10.351   8.054 -1.6185  0.2300  2.5977
   33MOL0     O 4225   7.829   2.093   3.218  0.8256  0.6399 -0.7480
   33MOL0     C 4226   7.888   1.994   3.184  0.1505 -0.2117 -0.6957
   33MOL0     O 4227   7.822   1.889   3.144  0.4391 -0.0260 -0.0990
   33MOL0     C 4228   7.684   1.879   3.154 -0.3209 -0.4870  0.1208
   33MOL0     C 4229   7.625   1.756   3.192 -0.9344  0.8939  0.3442
   33MOL0     C 4230   7.489   1.744   3.201  0.1474  0.7614 -0.3386
   33MOL0     C 4231   7.396   1.843   3.189 -0.3721 -0.3429 -0.0765
   33MOL0     O 4232   7.266   1.812   3.220  0.4805 -0.1703  0.4090
   33MOL0     C 4233   7.160   1.891   3.167 -0.2653  0.0639 -0.2956
   33MOL0     C 4234   7.046   1.797   3.143  0.0313 -0.3224 -0.4877
   33MOL0     C 4235   6.918   1.879   3.099  0.3122  0.3563 -0.5458
   33MOL0     C 4236   6.791   1.795   3.102  0.1384  0.3111  0.1502
   33MOL0     C 4237   6.676   1.890   3.066  0.3274 -0.8697 -0.5204
   33MOL0     C 4238   6.556   1.813   3.080 -1.1426  0.9507 -0.2064
   33MOL0     C 4239   6.421   1.872   3.045 -0.0729  0.8152  0.5507
   33MOL0     C 4240   6.418   2.032   3.041  0.4245  0.9954  0.3744
   33MOL0     N 4241   6.295   2.088   2.977  0.0530  0.3745  0.2628
   33MOL0     C 4242   6.166   2.059   2.999 -0.0837  0.1391  0.1046
   33MOL0     C 4243   6.094   2.133   2.913  0.5434 -0.2718  0.2623
   33MOL0     C 4244   5.945   2.143   2.922 -0.2126 -0.0034  0.2819
   33MOL0     C 4245   5.877   2.280   2.884  0.3787 -0.1769 -0.3687
   33MOL0     C 4246   5.872   2.308   2.740 -0.4781 -0.5326  0.3988
   33MOL0     C 4247   5.750   2.244   2.676 -0.6324  0.8509 -0.2295
   33MOL0     O 4248   5.630   2.306   2.736 -0.0276  0.5543 -0.2707
   33MOL0     C 4249   5.511   2.320   2.666  0.7297 -0.5782 -0.6901
   33MOL0     C 4250   5.395   2.344   2.744  0.2098 -0.4594 -0.5787
   33MOL0     C 4251   5.278   2.385   2.675  0.0461  0.4423 -0.1353
   33MOL0     C 4252   5.267   2.397   2.540 -0.1789 -0.5443  0.4399
   33MOL0     C 4253   5.131   2.402   2.478  0.4900 -1.4272 -0.2938
   33MOL0     O 4254   5.048   2.488   2.551  0.4989 -0.5819 -0.4585
   33MOL0     C 4255   4.927   2.531   2.492  0.2709  0.2361  0.0969
   33MOL0     C 4256   4.809   2.459   2.528  0.2320  0.0061  0.2784
   33MOL0     C 4257   4.687   2.501   2.475  1.8355 -0.5653  1.0592
   33MOL0     C 4258   4.675   2.611   2.382 -0.3112  0.1099 -0.3238
   33MOL0     O 4259   4.552   2.639   2.328 -0.5596  0.0402 -0.6397
   33MOL0     C 4260   4.504   2.774   2.320  0.1002  0.7839  0.0218
   33MOL0     C 4261   4.355   2.783   2.354  0.8279  0.0671 -0.6704
   33MOL0     C 4262   4.315   2.717   2.492  0.6724  0.0985 -0.3819
   33MOL0     C 4263   4.404   2.764   2.613 -0.2382  0.4169 -0.2740
   33MOL0     C 4264   4.335   2.760   2.747  1.1794  0.0976 -1.2243
   33MOL0     C 4265   4.282   2.619   2.788  0.1785  0.1864 -0.1367
   33MOL0     C 4266   4.242   2.625   2.930  0.1247  0.2459 -0.3211
   33MOL0     C 4267   4.296   2.514   3.019  0.1290 -0.1299 -0.0647
   33MOL0    Cl 4268   4.471   2.519   3.024 -0.4258 -0.3404 -0.0879
   33MOL0     C 4269   4.792   2.674   2.339 -0.6121  0.9634  0.8271
   33MOL0     C 4270   4.919   2.637   2.396  0.3583  0.3025 -0.0750
   33MOL0     O 4271   5.112   2.370   2.361  0.1727  0.0305  0.4490
   33MOL0     C 4272   5.377   2.350   2.461 -0.5843 -0.2877 -0.0949
   33MOL0     C 4273   5.498   2.317   2.530 -0.3808 -0.2550  0.3715
   33MOL0     N 4274   6.182   2.210   2.842  0.1602 -0.3813 -0.6122
   33MOL0     N 4275   6.298   2.178   2.875 -0.0755  0.1628  0.2213
   33MOL0     C 4276   7.450   1.967   3.140  0.6560 -0.8444  0.0351
   33MOL0     C 4277   7.585   1.981   3.115 -0.7378  0.1620 -0.5587
   33MOL0     C 4278   8.029   1.997   3.158  0.6371  0.0997 -0.4732
   33MOL0     C 4279   8.119   2.095   3.203 -0.2943 -0.3181 -0.1991
   33MOL0     C 4280   8.261   2.090   3.192 -1.0479 -1.0518  0.5847
   33MOL0     C 4281   8.315   1.981   3.124  0.0583 -0.1659  0.0139
   33MOL0     O 4282   8.451   1.980   3.112  0.1785  0.5249  0.3353
   33MOL0     C 4283   8.517   1.895   3.011  0.2052  0.3066  0.4992
   33MOL0     C 4284   8.659   1.942   2.983  0.3310 -0.3617  0.0464
   33MOL0     C 4285   8.686   2.060   2.883  0.1594 -0.1913 -0.6496
   33MOL0     C 4286   8.838   2.077   2.864  0.2483  0.0482 -0.0685
   33MOL0     C 4287   8.870   2.214   2.857 -0.3278 -0.2182 -0.6272
   33MOL0     C 4288   8.893   2.333   2.850 -0.4218 -0.8466 -0.7953
   33MOL0     C 4289   8.224   1.887   3.074  0.0300  0.2470  0.8546
   33MOL0     C 4290   8.083   1.892   3.088  0.3049  1.1883 -0.0872
   33MOL0     H 4291   7.684   1.667   3.213 -1.5298  1.0527  2.9336
   33MOL0     H 4292   7.448   1.648   3.231  2.4545  0.6864  3.1149
   33MOL0     H 4293   7.173   1.942   3.071 -2.9129  0.5852 -0.4456
   33MOL0     H 4294   7.139   1.967   3.243  1.3342  0.7219 -0.4727
   33MOL0     H 4295   7.028   1.743   3.237  2.1986 -1.6984 -0.7834
   33MOL0     H 4296   7.059   1.729   3.058  0.2666  0.8398 -1.4118
   33MOL0     H 4297   6.932   1.928   3.002  0.8286 -1.0554 -1.2070
   33MOL0     H 4298   6.903   1.957   3.175 -1.7223  1.6564 -2.1595
   33MOL0     H 4299   6.796   1.713   3.031 -0.1543  2.2398 -2.2488
   33MOL0     H 4300   6.774   1.755   3.202  0.4087  1.4131  0.6576
   33MOL0     H 4301   6.682   1.925   2.963 -0.3452 -1.2983 -0.7138
   33MOL0     H 4302   6.678   1.982   3.125  0.9614 -1.9991  1.3222
   33MOL0     H 4303   6.550   1.771   3.181  1.8293  2.3823  0.6479
   33MOL0     H 4304   6.567   1.732   3.007 -0.0249 -0.7101  1.7118
   33MOL0     H 4305   6.384   1.828   2.952 -3.7258 -0.8546  2.5539
   33MOL0     H 4306   6.346   1.839   3.118  2.6051  0.6450  3.4333
   33MOL0     H 4307   6.506   2.061   2.982  0.1712  1.9376  0.4307
   33MOL0     H 4308   6.448   2.075   3.137  0.4798  3.3893 -0.6449
   33MOL0     H 4309   6.126   1.982   3.065  0.8519  1.8269  2.7922
   33MOL0     H 4310   5.918   2.124   3.026  3.4483 -1.1682  1.1900
   33MOL0     H 4311   5.914   2.064   2.852  1.0720 -0.3821  0.1049
   33MOL0     H 4312   5.926   2.361   2.938  1.9125 -2.8962  2.6942
   33MOL0     H 4313   5.775   2.279   2.925 -0.0620  2.1092 -1.2767
   33MOL0     H 4314   5.861   2.417   2.739 -0.2844 -0.4833  1.6500
   33MOL0     H 4315   5.961   2.274   2.685 -1.0874 -0.1917 -0.8309
   33MOL0     H 4316   5.742   2.137   2.694  2.0807  0.4876 -0.7656
   33MOL0     H 4317   5.745   2.264   2.568 -1.4176 -1.0888 -0.6056
   33MOL0     H 4318   5.379   2.341   2.851 -3.5426  1.3126 -0.9397
   33MOL0     H 4319   5.185   2.399   2.729 -1.5557  0.7232 -2.8274
   33MOL0     H 4320   4.816   2.381   2.603 -0.3826  0.4453  0.8168
   33MOL0     H 4321   4.592   2.453   2.497  0.0312  1.5306 -1.4516
   33MOL0     H 4322   4.519   2.804   2.216  1.6808 -1.8177 -0.6066
   33MOL0     H 4323   4.560   2.840   2.386  0.9930 -1.0419  1.1724
   33MOL0     H 4324   4.306   2.729   2.273  1.3505 -1.2862 -0.1121
   33MOL0     H 4325   4.311   2.883   2.344 -2.2482 -0.8923  1.6012
   33MOL0     H 4326   4.319   2.608   2.480  0.7751 -0.3047  2.5380
   33MOL0     H 4327   4.212   2.743   2.517  0.4390  0.0342 -1.2516
   33MOL0     H 4328   4.494   2.703   2.619 -0.9205 -0.4799  2.2866
   33MOL0     H 4329   4.431   2.866   2.583  1.4343 -0.3073 -1.3837
   33MOL0     H 4330   4.243   2.819   2.739  0.2172 -0.8288  1.7618
   33MOL0     H 4331   4.395   2.806   2.826  1.3066  0.3586 -1.4684
   33MOL0     H 4332   4.368   2.553   2.769  2.1828  2.4864  0.4511
   33MOL0     H 4333   4.203   2.596   2.716  1.1888 -1.7902 -0.6885
   33MOL0     H 4334   4.259   2.719   2.984  1.9321 -1.8536  3.1271
   33MOL0     H 4335   4.133   2.620   2.943  0.3410 -2.5216  1.1271
   33MOL0     H 4336   4.258   2.421   2.976 -0.1828 -0.6835  1.3309
   33MOL0     H 4337   4.255   2.530   3.120  1.1554  2.3009  0.0360
   33MOL0     H 4338   4.782   2.757   2.270  0.3928  0.0913 -0.4198
   33MOL0     H 4339   5.005   2.694   2.363  1.0752  0.5854  2.1044
   33MOL0     H 4340   5.385   2.341   2.354  0.3364 -0.5708 -0.0058
   33MOL0     H 4341   5.581   2.291   2.465  0.5833  1.9743  0.6095
   33MOL0     H 4342   7.381   2.051   3.134  0.2312 -1.2406 -0.9833
   33MOL0     H 4343   7.614   2.081   3.085  0.7991 -0.1388 -0.1649
   33MOL0     H 4344   8.096   2.188   3.254 -2.9852 -0.0520 -1.7110
   33MOL0     H 4345   8.315   2.168   3.245 -2.6002  0.7584 -0.3580
   33MOL0     H 4346   8.465   1.879   2.916 -0.3771  1.1763  0.6699
   33MOL0     H 4347   8.531   1.797   3.059 -0.4351 -0.3288 -0.5538
   33MOL0     H 4348   8.715   1.958   3.076  0.1159  0.6256  0.0167
   33MOL0     H 4349   8.707   1.852   2.943 -1.2096 -2.0385  1.7122
   33MOL0     H 4350   8.639   2.153   2.917  1.9024  0.4965 -0.0618
   33MOL0     H 4351   8.635   2.035   2.790  0.3991 -1.6285 -0.4221
   33MOL0     H 4352   8.894   2.047   2.953 -0.1121 -0.9600 -0.1766
   33MOL0     H 4353   8.872   2.011   2.784 -2.7068 -2.5629  0.6186
   33MOL0     H 4354   8.915   2.437   2.838 -0.1583 -0.7518  0.3700
   33MOL0     H 4355   8.256   1.804   3.012 -3.9767  1.4735 -3.4863
   33MOL0     H 4356   8.026   1.811   3.044  0.4851  1.3666 -0.6564
   34MOL0     O 4357   9.775   2.956   9.623 -0.1928 -0.1756  1.3062
   34MOL0     C 4358   9.812   2.906   9.730 -0.4216  0.0678 -0.5118
   34MOL0     O 4359   9.729   2.866   9.825  0.3961 -0.3518 -0.1540
   34MOL0     C 4360   9.599   2.828   9.789 -0.2514 -0.3873 -0.8577
   34MOL0     C 4361   9.554   2.777   9.666 -0.0628  0.0243 -0.3774
   34MOL0     C 4362   9.426   2.738   9.647 -0.3166  0.2677 -0.0238
   34MOL0     C 4363   9.336   2.748   9.747  0.2388  0.2796 -0.4351
   34MOL0     O 4364   9.212   2.728   9.710 -0.0489  0.0103  0.0377
   34MOL0     C 4365   9.101   2.767   9.798 -0.3289  0.7197 -0.6691
   34MOL0     C 4366   8.962   2.742   9.739 -0.6113 -0.7150 -0.0135
   34MOL0     C 4367   8.859   2.721   9.847 -0.5174 -1.0311 -0.8200
   34MOL0     C 4368   8.727   2.673   9.788  1.1790 -0.0263  0.1728
   34MOL0     C 4369   8.604   2.663   9.888 -0.3322  0.0631 -0.8229
   34MOL0     C 4370   8.475   2.627   9.816  0.0303  0.1932 -1.2587
   34MOL0     C 4371   8.373   2.581   9.916 -0.1070 -0.4910 -1.0764
   34MOL0     C 4372   8.228   2.611   9.880  0.0663 -0.6073  0.3368
   34MOL0     N 4373   8.129   2.594   9.993  0.7650  1.0035 -0.3225
   34MOL0     C 4374   7.989   2.607   9.987  0.8709  0.0035  0.2554
   34MOL0     C 4375   7.941   2.562  10.104  0.1706  0.4636 -0.2269
   34MOL0     C 4376   7.801   2.554  10.146  0.5085 -0.4428  0.0456
   34MOL0     C 4377   7.746   2.690  10.202 -0.3506 -0.4435 -1.0192
   34MOL0     C 4378   7.611   2.672  10.272 -0.0183  0.0340  0.5689
   34MOL0     C 4379   7.520   2.800  10.263 -0.8798 -0.4850 -0.6023
   34MOL0     O 4380   7.392   2.761  10.310  0.1015  0.7008 -0.3337
   34MOL0     C 4381   7.285   2.835  10.302 -0.5433 -0.0988  0.9677
   34MOL0     C 4382   7.167   2.770  10.333 -0.5832 -0.4849 -0.3705
   34MOL0     C 4383   7.046   2.836  10.331  0.0536 -1.0451 -0.3793
   34MOL0     C 4384   7.048   2.974  10.302 -0.3811 -0.5526 -0.2221
   34MOL0     C 4385   6.929   3.060  10.306 -0.3254  1.0196 -0.5212
   34MOL0     O 4386   6.815   2.990  10.345 -0.2595 -0.3720 -0.1555
   34MOL0     C 4387   6.690   3.059  10.330 -0.5198 -0.1761  0.0777
   34MOL0     C 4388   6.609   3.056  10.221 -0.3550 -0.0654 -0.5558
   34MOL0     C 4389   6.474   3.109  10.233  0.0693 -0.3506  0.2374
   34MOL0     C 4390   6.423   3.156  10.353 -0.1798 -0.0495 -0.4795
   34MOL0     O 4391   6.290   3.179  10.355 -0.6071 -0.1132 -0.0810
   34MOL0     C 4392   6.213   3.129  10.471 -0.0331 -0.5550 -0.3374
   34MOL0     C 4393   6.216   2.979  10.478  0.2814  0.0679 -0.0567
   34MOL0     C 4394   6.283   2.917  10.604 -0.4057 -0.3671  0.9423
   34MOL0     C 4395   6.274   2.771  10.589 -0.4031  0.3288  0.6799
   34MOL0     C 4396   6.347   2.707  10.470 -0.0937 -0.1137 -1.0255
   34MOL0     C 4397   6.378   2.557  10.502 -1.2263 -0.4621  0.1151
   34MOL0     C 4398   6.489   2.536  10.611 -0.6985  0.2337 -0.4859
   34MOL0     C 4399   6.481   2.400  10.668 -0.2068 -0.8130  0.0509
   34MOL0    Cl 4400   6.485   2.263  10.564 -0.0853  0.4020  0.1156
   34MOL0     C 4401   6.512   3.176  10.462  0.5257 -0.1089  0.0854
   34MOL0     C 4402   6.639   3.122  10.450  0.0917 -0.0059 -0.8593
   34MOL0     O 4403   6.932   3.176  10.273  0.2245  0.6211 -0.7768
   34MOL0     C 4404   7.177   3.042  10.270 -0.5950  0.1388  0.2097
   34MOL0     C 4405   7.296   2.976  10.265  0.7481  0.2647 -1.4253
   34MOL0     N 4406   8.049   2.516  10.182  0.1953  0.0040  0.0667
   34MOL0     N 4407   8.148   2.539  10.117  0.1191 -0.4426  0.9242
   34MOL0     C 4408   9.382   2.786   9.875  0.4804 -0.1721 -0.5488
   34MOL0     C 4409   9.509   2.830   9.897  0.6482 -0.2508 -0.1356
   34MOL0     C 4410   9.956   2.916   9.751  0.5592  0.3332 -0.7932
   34MOL0     C 4411  10.042   2.969   9.653  0.2964  1.1307 -0.2483
   34MOL0     C 4412  10.180   2.983   9.683  0.9016  1.0333  0.9643
   34MOL0     C 4413  10.222   2.962   9.811 -0.6844 -0.7747 -0.0164
   34MOL0     O 4414  10.353   2.989   9.865  0.7072  0.6504 -1.2211
   34MOL0     C 4415  10.435   3.088   9.801 -0.3355  0.9461  0.1089
   34MOL0     C 4416  10.559   3.132   9.890  0.9637 -0.3968  1.3296
   34MOL0     C 4417  10.684   3.048   9.851 -0.0952  0.1643 -1.1475
   34MOL0     C 4418  10.810   3.114   9.912 -0.8558 -0.7853  0.1521
   34MOL0     C 4419  10.931   3.061   9.848  0.2872  0.3557  0.0759
   34MOL0     C 4420  11.028   3.015   9.805 -0.0463  0.7592  0.0305
   34MOL0     C 4421  10.138   2.906   9.898 -0.2260  0.5616 -0.1313
   34MOL0     C 4422  10.005   2.886   9.879  0.4346 -0.1917  0.1649
   34MOL0     H 4423   9.628   2.770   9.587  1.1224  0.3174  0.6764
   34MOL0     H 4424   9.390   2.706   9.550 -0.3495 -1.4175  0.5012
   34MOL0     H 4425   9.103   2.872   9.831 -0.5918  0.3268  0.6396
   34MOL0     H 4426   9.116   2.714   9.892 -1.1637  0.0136 -0.9175
   34MOL0     H 4427   8.964   2.654   9.674 -0.6457 -1.7045  1.2818
   34MOL0     H 4428   8.943   2.832   9.681  1.1281 -0.1419  0.2489
   34MOL0     H 4429   8.852   2.815   9.902  0.8338 -1.5827  0.3829
   34MOL0     H 4430   8.895   2.646   9.919  1.8420  0.7847  0.0354
   34MOL0     H 4431   8.695   2.734   9.703 -1.7787 -1.9250 -0.2217
   34MOL0     H 4432   8.742   2.572   9.748  1.9813  0.4930 -0.8840
   34MOL0     H 4433   8.584   2.757   9.940 -2.8085 -1.4337  1.0954
   34MOL0     H 4434   8.632   2.578   9.951  0.7038  1.4681  0.7097
   34MOL0     H 4435   8.475   2.546   9.742  0.6423  2.4409 -3.9202
   34MOL0     H 4436   8.451   2.715   9.754  1.1645  0.4591 -1.3434
   34MOL0     H 4437   8.387   2.473   9.915  1.1524 -0.4638  2.2197
   34MOL0     H 4438   8.397   2.617  10.017 -1.6721 -0.8854 -0.5355
   34MOL0     H 4439   8.206   2.546   9.794  1.1753  0.1412 -0.5572
   34MOL0     H 4440   8.216   2.714   9.844 -1.0633 -0.6153  0.6555
   34MOL0     H 4441   7.932   2.658   9.911 -1.2072 -1.0931  1.0076
   34MOL0     H 4442   7.797   2.483  10.229  1.6132 -1.1059 -0.4490
   34MOL0     H 4443   7.741   2.511  10.066 -0.3996  0.7451  0.0624
   34MOL0     H 4444   7.740   2.762  10.120  2.0170 -1.7929 -2.4909
   34MOL0     H 4445   7.813   2.733  10.278 -1.6187  0.0335 -0.1366
   34MOL0     H 4446   7.552   2.590  10.229 -0.6983  0.5011  0.5833
   34MOL0     H 4447   7.628   2.632  10.373  0.2355 -3.3660 -0.6950
   34MOL0     H 4448   7.524   2.850  10.166 -0.3813  1.1648  0.2251
   34MOL0     H 4449   7.566   2.877  10.326  1.1824  0.9458 -3.6375
   34MOL0     H 4450   7.177   2.662  10.338  1.3414 -0.4967 -2.7261
   34MOL0     H 4451   6.953   2.780  10.340  0.9478 -2.2842  1.8935
   34MOL0     H 4452   6.651   2.997  10.141  0.5163 -0.5998  0.2735
   34MOL0     H 4453   6.399   3.103  10.155  2.9911 -1.0795 -2.7725
   34MOL0     H 4454   6.108   3.158  10.468 -0.2854 -1.5504 -1.6619
   34MOL0     H 4455   6.257   3.181  10.557 -1.4899 -0.3739  0.3333
   34MOL0     H 4456   6.263   2.943  10.386 -1.0020 -1.6589 -0.1010
   34MOL0     H 4457   6.110   2.952  10.474  0.0587  0.9605 -0.3015
   34MOL0     H 4458   6.229   2.953  10.691  0.2778  0.7366  0.9365
   34MOL0     H 4459   6.386   2.952  10.615 -0.6173  0.2388  1.0430
   34MOL0     H 4460   6.320   2.722  10.676 -1.2113  0.2734  1.0841
   34MOL0     H 4461   6.169   2.744  10.603 -0.2221  0.1229  1.7879
   34MOL0     H 4462   6.450   2.745  10.468 -0.3473  0.6733  0.0122
   34MOL0     H 4463   6.296   2.707  10.373  3.6428  0.7481 -3.2225
   34MOL0     H 4464   6.420   2.517  10.409 -2.9816 -0.3777 -0.7556
   34MOL0     H 4465   6.291   2.494  10.520 -0.6122 -1.6058 -0.7849
   34MOL0     H 4466   6.583   2.550  10.557 -0.7236  2.0398 -0.1175
   34MOL0     H 4467   6.482   2.605  10.695 -0.9410  0.6603 -0.8496
   34MOL0     H 4468   6.392   2.401  10.732  1.5858 -1.5553  2.7482
   34MOL0     H 4469   6.572   2.385  10.727  1.2855 -1.9999 -2.3875
   34MOL0     H 4470   6.478   3.208  10.559 -1.8468 -0.9174 -0.4178
   34MOL0     H 4471   6.691   3.118  10.545 -2.7697  0.3478  0.8353
   34MOL0     H 4472   7.176   3.146  10.239  2.6961  0.4821  0.8607
   34MOL0     H 4473   7.384   3.033  10.235  2.1813 -0.9541  0.2645
   34MOL0     H 4474   9.308   2.803   9.953 -0.0840  1.0850 -1.3342
   34MOL0     H 4475   9.544   2.882   9.986 -0.6762  1.4311 -0.5266
   34MOL0     H 4476  10.015   2.994   9.551  1.4387 -3.0455 -1.8054
   34MOL0     H 4477  10.263   3.005   9.617  1.1824 -2.3737 -0.0055
   34MOL0     H 4478  10.386   3.183   9.780 -0.2644  1.0537  0.4247
   34MOL0     H 4479  10.476   3.057   9.704 -3.4675  2.1777 -1.7711
   34MOL0     H 4480  10.559   3.240   9.873 -2.8959 -0.2911  1.1212
   34MOL0     H 4481  10.524   3.120   9.993 -1.2924  0.1697  0.6824
   34MOL0     H 4482  10.685   3.054   9.741  3.1489 -2.7755 -1.4645
   34MOL0     H 4483  10.677   2.946   9.889  0.2059  0.0591 -1.3683
   34MOL0     H 4484  10.807   3.219   9.881  0.6406 -1.3503 -2.1656
   34MOL0     H 4485  10.808   3.115  10.021 -2.0942 -1.0044  0.1495
   34MOL0     H 4486  11.107   2.970   9.747 -2.4730 -1.5859 -1.7103
   34MOL0     H 4487  10.176   2.870   9.993 -1.5619  0.1829  0.2905
   34MOL0     H 4488   9.940   2.854   9.961 -0.5249  3.1713  0.8443
   35MOL0     O 4489   7.758   5.649   7.527 -0.2531  0.1759 -0.1139
   35MOL0     C 4490   7.815   5.622   7.419  1.9018  0.3513 -0.0707
   35MOL0     O 4491   7.802   5.501   7.352  0.4944 -0.1315  0.2007
   35MOL0     C 4492   7.719   5.400   7.395 -0.2778 -0.2341  0.0389
   35MOL0     C 4493   7.674   5.303   7.293  0.8086  0.1666  0.1106
   35MOL0     C 4494   7.584   5.200   7.320 -0.6238 -1.0024 -0.1827
   35MOL0     C 4495   7.549   5.173   7.456 -0.5058 -0.9586 -0.1436
   35MOL0     O 4496   7.453   5.085   7.491 -0.1826  1.0529  0.1135
   35MOL0     C 4497   7.351   5.064   7.394  1.0782  1.1271 -0.4101
   35MOL0     C 4498   7.247   5.179   7.374  0.8269 -0.7824 -0.6450
   35MOL0     C 4499   7.194   5.252   7.496 -0.7784 -0.2246  0.2457
   35MOL0     C 4500   7.109   5.168   7.594  0.0870 -1.0882 -0.5648
   35MOL0     C 4501   7.118   5.231   7.737  0.5419 -0.0684  0.4299
   35MOL0     C 4502   7.032   5.153   7.833  0.5247  0.1193  0.8796
   35MOL0     C 4503   6.998   5.243   7.944  0.5164 -0.8731  0.0890
   35MOL0     C 4504   7.128   5.254   8.029  0.5648 -0.6096  0.0824
   35MOL0     N 4505   7.099   5.351   8.140 -0.4022 -0.1077 -0.8274
   35MOL0     C 4506   7.021   5.320   8.245 -0.7340  1.2424 -0.1821
   35MOL0     C 4507   7.008   5.440   8.313  1.1777  0.1747  0.0601
   35MOL0     C 4508   6.921   5.481   8.437 -0.0027 -0.0431  0.1128
   35MOL0     C 4509   6.768   5.457   8.428  1.0653 -0.6144  0.6836
   35MOL0     C 4510   6.715   5.502   8.568 -0.0417  0.8417  1.4910
   35MOL0     C 4511   6.559   5.496   8.545 -0.3367  0.0174 -0.4161
   35MOL0     O 4512   6.488   5.518   8.669 -0.4528 -0.7022 -0.1655
   35MOL0     C 4513   6.353   5.530   8.669 -0.5681  1.0773  1.0820
   35MOL0     C 4514   6.288   5.595   8.776  0.3668  0.0813  0.3745
   35MOL0     C 4515   6.146   5.600   8.786 -0.5974  0.0472 -0.1111
   35MOL0     C 4516   6.066   5.542   8.690  0.6699  0.3134 -0.4479
   35MOL0     C 4517   5.915   5.543   8.711 -0.4652  0.2929 -0.0042
   35MOL0     O 4518   5.866   5.573   8.836 -0.4193 -0.0712  0.1526
   35MOL0     C 4519   5.730   5.578   8.865 -0.1921  0.3757 -0.5415
   35MOL0     C 4520   5.631   5.512   8.799 -0.3502  0.5526  0.0376
   35MOL0     C 4521   5.499   5.536   8.833  0.6293 -1.0066  0.0162
   35MOL0     C 4522   5.468   5.614   8.937 -0.6888 -0.5732 -0.1701
   35MOL0     O 4523   5.341   5.628   8.973  0.1913  0.1843  0.3443
   35MOL0     C 4524   5.309   5.675   9.112  0.0731 -0.2777 -0.0505
   35MOL0     C 4525   5.167   5.676   9.129 -0.4260 -0.1061  0.0651
   35MOL0     C 4526   5.096   5.757   9.019 -0.3280 -0.1883  0.0281
   35MOL0     C 4527   4.944   5.746   9.037 -0.5948 -0.5007 -0.1466
   35MOL0     C 4528   4.841   5.858   8.997  0.1258 -0.3559 -0.3471
   35MOL0     C 4529   4.865   5.925   8.863 -0.2300  0.0925  0.9944
   35MOL0     C 4530   4.734   6.004   8.817 -0.5009  0.2518 -1.3739
   35MOL0     C 4531   4.763   6.103   8.705 -0.1722 -0.6354 -0.4879
   35MOL0    Cl 4532   4.867   6.254   8.750  0.1301  0.8337 -0.0546
   35MOL0     C 4533   5.576   5.679   8.999 -0.4400 -0.6954 -0.2729
   35MOL0     C 4534   5.713   5.665   8.973  0.8616  0.2433  0.9581
   35MOL0     O 4535   5.851   5.514   8.613 -0.4018  0.5421  0.4173
   35MOL0     C 4536   6.128   5.466   8.583  0.0243 -1.3271  0.3585
   35MOL0     C 4537   6.270   5.474   8.566 -0.5285  0.4813  0.7402
   35MOL0     N 4538   7.073   5.539   8.242 -0.3335  0.1879 -0.2019
   35MOL0     N 4539   7.136   5.487   8.141 -0.2350  0.2392 -0.2000
   35MOL0     C 4540   7.603   5.257   7.557 -0.1699 -0.6283 -0.6087
   35MOL0     C 4541   7.692   5.359   7.529 -0.2764  0.5163  0.0348
   35MOL0     C 4542   7.905   5.717   7.357 -0.1193 -0.9017 -0.1802
   35MOL0     C 4543   7.919   5.849   7.398  0.4368 -0.2181  0.2238
   35MOL0     C 4544   8.010   5.941   7.336 -0.4781  0.0652 -0.5234
   35MOL0     C 4545   8.101   5.878   7.247 -1.1289 -0.3009  0.4359
   35MOL0     O 4546   8.212   5.962   7.212  0.2927 -0.5278  0.0407
   35MOL0     C 4547   8.330   5.892   7.168  0.5623 -0.1177  0.0070
   35MOL0     C 4548   8.450   5.982   7.159 -0.5358  0.1328 -1.4234
   35MOL0     C 4549   8.502   6.036   7.300 -0.1763 -0.0523  0.2028
   35MOL0     C 4550   8.640   6.114   7.276 -0.0989  0.1373  0.6668
   35MOL0     C 4551   8.717   6.134   7.402  0.3818 -0.1826  0.1510
   35MOL0     C 4552   8.769   6.146   7.512 -0.6339  0.0425  0.6605
   35MOL0     C 4553   8.081   5.746   7.194 -0.8476  0.1500  0.1508
   35MOL0     C 4554   7.981   5.667   7.248 -0.0410 -0.6440  0.4888
   35MOL0     H 4555   7.701   5.317   7.189 -2.5526  2.2061 -0.6672
   35MOL0     H 4556   7.561   5.141   7.232  0.7191  2.1957 -2.9145
   35MOL0     H 4557   7.295   4.974   7.421 -1.4683  2.7194 -0.0349
   35MOL0     H 4558   7.393   5.031   7.298 -4.5476  1.4901 -3.3951
   35MOL0     H 4559   7.164   5.152   7.308  0.8040  2.0197 -1.9018
   35MOL0     H 4560   7.302   5.257   7.322 -2.5308  0.9460 -1.9061
   35MOL0     H 4561   7.143   5.341   7.459 -1.1988 -1.2527 -1.7818
   35MOL0     H 4562   7.284   5.284   7.549  0.1951 -1.7151 -0.4352
   35MOL0     H 4563   7.005   5.163   7.559 -0.7650  2.6018  1.0208
   35MOL0     H 4564   7.151   5.067   7.599  0.3771 -0.9302  0.4381
   35MOL0     H 4565   7.095   5.338   7.737 -2.6381 -0.6619  0.4807
   35MOL0     H 4566   7.219   5.227   7.778 -0.2442  1.2976  2.7586
   35MOL0     H 4567   7.081   5.062   7.870 -1.4127 -1.7158 -0.7709
   35MOL0     H 4568   6.935   5.128   7.787  0.1926  0.1031  1.5697
   35MOL0     H 4569   6.971   5.339   7.901 -1.4832 -2.0154 -1.3776
   35MOL0     H 4570   6.915   5.203   8.003  0.1740  2.0182  1.7523
   35MOL0     H 4571   7.206   5.301   7.969  0.3451  3.8233  2.7312
   35MOL0     H 4572   7.160   5.160   8.074 -0.6160 -0.9739  0.1984
   35MOL0     H 4573   6.969   5.229   8.273  1.2813 -0.3330 -1.2635
   35MOL0     H 4574   6.942   5.584   8.469 -1.7871 -0.7511  4.3071
   35MOL0     H 4575   6.968   5.430   8.522  0.1909  1.8803  1.2333
   35MOL0     H 4576   6.738   5.359   8.389  0.0812  0.1964 -0.6953
   35MOL0     H 4577   6.720   5.528   8.360  0.2044  2.0997  3.8286
   35MOL0     H 4578   6.756   5.438   8.647 -0.3076 -3.0549 -1.2495
   35MOL0     H 4579   6.736   5.608   8.585 -1.2791  1.4170 -0.3394
   35MOL0     H 4580   6.539   5.400   8.496 -2.9581  0.3306 -0.0736
   35MOL0     H 4581   6.529   5.572   8.472 -1.4183  0.0116  0.0048
   35MOL0     H 4582   6.337   5.640   8.863 -0.6610 -0.1231  1.0728
   35MOL0     H 4583   6.103   5.638   8.878  1.9114  1.3039  0.6176
   35MOL0     H 4584   5.650   5.441   8.719 -3.3055  0.0284 -0.3088
   35MOL0     H 4585   5.415   5.487   8.785 -0.1903 -0.9613  1.3588
   35MOL0     H 4586   5.351   5.773   9.139 -0.5594 -0.6949  2.7191
   35MOL0     H 4587   5.362   5.605   9.178  1.4949  0.5419 -0.2855
   35MOL0     H 4588   5.140   5.727   9.222 -0.1931  3.7029 -1.7452
   35MOL0     H 4589   5.132   5.574   9.109 -1.6473 -0.6460  4.1412
   35MOL0     H 4590   5.103   5.704   8.923 -1.8881 -1.8885  0.7928
   35MOL0     H 4591   5.135   5.859   9.010 -0.3487 -0.0477  1.4415
   35MOL0     H 4592   4.917   5.651   8.989 -1.2280  0.2110 -1.2651
   35MOL0     H 4593   4.937   5.738   9.145  0.9512  1.0886  0.1132
   35MOL0     H 4594   4.836   5.921   9.086  2.6606 -3.2521  2.0511
   35MOL0     H 4595   4.752   5.796   8.984 -0.8455  0.6081  1.2745
   35MOL0     H 4596   4.884   5.848   8.787 -1.2266 -0.5411  1.3718
   35MOL0     H 4597   4.952   5.992   8.865  1.7124 -2.2731  0.8653
   35MOL0     H 4598   4.656   5.934   8.786 -2.4826  1.0767  1.3814
   35MOL0     H 4599   4.709   6.060   8.907  2.7907  0.5956 -0.5580
   35MOL0     H 4600   4.667   6.152   8.689 -0.9296 -1.3153  1.5616
   35MOL0     H 4601   4.805   6.056   8.616  0.1255 -0.4427 -0.4497
   35MOL0     H 4602   5.567   5.751   9.080 -0.2876  0.5601 -1.3323
   35MOL0     H 4603   5.784   5.723   9.032  1.8206  1.5684 -1.3587
   35MOL0     H 4604   6.062   5.423   8.508 -0.3067  0.1893 -0.2508
   35MOL0     H 4605   6.312   5.422   8.481  0.3806 -1.5950  2.3912
   35MOL0     H 4606   7.569   5.233   7.658  2.5605 -1.0528  0.2825
   35MOL0     H 4607   7.722   5.408   7.621  0.9058  1.9232 -1.0530
   35MOL0     H 4608   7.852   5.888   7.474 -1.4410 -0.0236 -1.4414
   35MOL0     H 4609   8.031   6.047   7.341  2.0440 -0.3754 -0.1664
   35MOL0     H 4610   8.308   5.836   7.076 -1.1142 -1.7702  1.3270
   35MOL0     H 4611   8.352   5.810   7.237 -0.4414  0.1065  0.6151
   35MOL0     H 4612   8.537   5.930   7.119  0.1419 -1.5679  1.9025
   35MOL0     H 4613   8.430   6.068   7.094 -2.2503  3.0914  2.5356
   35MOL0     H 4614   8.513   5.949   7.365 -1.7765  0.6473  1.4776
   35MOL0     H 4615   8.428   6.101   7.348 -0.4028 -0.9113  1.0412
   35MOL0     H 4616   8.703   6.063   7.203 -0.0416  0.6877  0.3203
   35MOL0     H 4617   8.621   6.214   7.235  0.6993 -0.5333 -1.4922
   35MOL0     H 4618   8.813   6.140   7.609 -2.9194 -1.4565  1.7001
   35MOL0     H 4619   8.151   5.698   7.126 -0.6810 -1.6519  1.5131
   35MOL0     H 4620   7.972   5.562   7.223 -0.5514 -0.0956 -1.8343
   36MOL0     O 4621   8.090   2.028   3.593  0.0896 -0.2975  0.4013
   36MOL0     C 4622   8.156   1.936   3.555  0.0796 -0.1474  0.4182
   36MOL0     O 4623   8.109   1.808   3.543  0.2618  0.5446 -0.2567
   36MOL0     C 4624   7.971   1.782   3.544  0.1169 -0.0236 -0.2302
   36MOL0     C 4625   7.931   1.652   3.595 -0.3728 -0.0178 -0.5658
   36MOL0     C 4626   7.796   1.626   3.607 -0.6070  0.1379  0.3424
   36MOL0     C 4627   7.695   1.712   3.562  0.0727 -0.4455 -0.1514
   36MOL0     O 4628   7.568   1.663   3.583 -0.3180  0.0400 -0.0621
   36MOL0     C 4629   7.465   1.765   3.579  0.0498  0.1041  0.4919
   36MOL0     C 4630   7.324   1.699   3.572 -0.7056  0.2531  0.0707
   36MOL0     C 4631   7.218   1.809   3.582 -0.0249  0.8714 -0.4094
   36MOL0     C 4632   7.080   1.753   3.604  0.1049 -1.0081 -0.2349
   36MOL0     C 4633   6.972   1.843   3.537 -0.2105 -0.3950  0.2252
   36MOL0     C 4634   6.832   1.777   3.558 -0.5188 -0.5863  0.5889
   36MOL0     C 4635   6.718   1.851   3.496 -0.2819 -0.1628 -0.2820
   36MOL0     C 4636   6.600   1.748   3.488  0.8569 -0.1563 -0.6374
   36MOL0     N 4637   6.471   1.818   3.483 -0.0490  0.7231  0.4810
   36MOL0     C 4638   6.347   1.760   3.495  0.5943 -0.3674  0.1759
   36MOL0     C 4639   6.266   1.857   3.446  0.5924 -0.5948 -0.5486
   36MOL0     C 4640   6.113   1.852   3.435  0.2840  0.1806  0.3117
   36MOL0     C 4641   6.048   1.827   3.577 -0.1000  0.3842 -0.0855
   36MOL0     C 4642   6.078   1.935   3.683  0.3153  0.2427  0.0274
   36MOL0     C 4643   5.990   2.057   3.667 -0.8806  0.3789  0.4174
   36MOL0     O 4644   5.870   2.041   3.739  0.6513  0.4267 -0.5934
   36MOL0     C 4645   5.787   2.147   3.727  0.0510  0.2322 -0.4842
   36MOL0     C 4646   5.803   2.261   3.801  0.2167 -0.6122 -0.1825
   36MOL0     C 4647   5.701   2.359   3.804 -0.3689 -0.1253  0.0792
   36MOL0     C 4648   5.580   2.338   3.738 -0.6271 -0.2519  0.0884
   36MOL0     C 4649   5.470   2.426   3.756  0.5570  0.1139 -0.6736
   36MOL0     O 4650   5.475   2.510   3.860 -0.3676  0.6367  0.5477
   36MOL0     C 4651   5.392   2.614   3.883  0.5057  0.3764 -0.3845
   36MOL0     C 4652   5.363   2.714   3.784  0.2477  0.5565 -0.4522
   36MOL0     C 4653   5.275   2.813   3.826  0.7785  0.2226  0.1304
   36MOL0     C 4654   5.210   2.811   3.956  0.3868  0.0573  0.0830
   36MOL0     O 4655   5.111   2.900   4.004  0.1322  0.0743 -0.0681
   36MOL0     C 4656   5.070   3.011   3.931  0.5227 -0.3298  0.1944
   36MOL0     C 4657   4.965   2.980   3.822 -0.4005 -0.4603 -0.3293
   36MOL0     C 4658   4.827   3.005   3.874 -0.0752 -0.4217  0.4171
   36MOL0     C 4659   4.714   2.977   3.775  0.2449 -0.5970  0.3935
   36MOL0     C 4660   4.595   3.048   3.831 -0.1511 -0.6293 -0.2363
   36MOL0     C 4661   4.497   3.078   3.712 -0.5896 -1.2855  0.0852
   36MOL0     C 4662   4.379   3.142   3.774  0.9963 -0.0985 -0.0372
   36MOL0     C 4663   4.264   3.149   3.678  0.0897  0.0592 -0.2842
   36MOL0    Cl 4664   4.107   3.204   3.758  0.7501 -0.0752 -0.1063
   36MOL0     C 4665   5.244   2.712   4.044  0.1717 -0.1950 -0.5030
   36MOL0     C 4666   5.337   2.616   4.013  0.3635 -0.2370  0.2207
   36MOL0     O 4667   5.380   2.423   3.677 -0.2182 -0.4277 -0.1567
   36MOL0     C 4668   5.572   2.231   3.650  0.3852  0.4711 -0.6119
   36MOL0     C 4669   5.667   2.132   3.647 -0.2255 -0.4902 -0.2342
   36MOL0     N 4670   6.338   1.972   3.416  0.4435  0.4952  0.0130
   36MOL0     N 4671   6.465   1.938   3.425  0.4017 -0.0755  0.0972
   36MOL0     C 4672   7.733   1.826   3.492 -0.4203 -0.0228 -1.4814
   36MOL0     C 4673   7.870   1.866   3.490 -0.3632  0.3109  0.7697
   36MOL0     C 4674   8.300   1.950   3.524 -0.3607  0.7238 -0.1004
   36MOL0     C 4675   8.360   1.846   3.463  0.6359  1.1201  0.7481
   36MOL0     C 4676   8.503   1.851   3.443 -0.6394  0.1648  0.0564
   36MOL0     C 4677   8.573   1.964   3.460 -0.1337  0.1835 -0.2799
   36MOL0     O 4678   8.704   1.979   3.422 -0.0401 -0.1526 -0.2767
   36MOL0     C 4679   8.780   1.869   3.375  0.5850 -0.3303  0.0939
   36MOL0     C 4680   8.925   1.910   3.347  0.1728  1.0072  0.1129
   36MOL0     C 4681   9.009   1.785   3.303 -0.1449 -0.2543 -0.3714
   36MOL0     C 4682   9.063   1.701   3.414 -0.4570 -0.4978  0.3018
   36MOL0     C 4683   9.126   1.575   3.365  0.7116  0.0491 -0.0059
   36MOL0     C 4684   9.156   1.467   3.316 -1.2635 -0.2487  0.4894
   36MOL0     C 4685   8.510   2.078   3.517 -0.4206  0.0283 -0.6907
   36MOL0     C 4686   8.377   2.061   3.559 -0.8876 -0.1766 -0.0428
   36MOL0     H 4687   7.999   1.576   3.633  0.6943 -0.8524 -3.8186
   36MOL0     H 4688   7.775   1.527   3.645  2.1114 -0.0058  1.7266
   36MOL0     H 4689   7.467   1.820   3.485  1.2457 -0.9310 -0.1119
   36MOL0     H 4690   7.469   1.834   3.664 -0.9522  2.8768 -1.5614
   36MOL0     H 4691   7.315   1.617   3.644 -2.3187 -2.6083 -3.0429
   36MOL0     H 4692   7.309   1.661   3.470 -0.6048  0.2856  0.0441
   36MOL0     H 4693   7.222   1.864   3.488 -2.3882  4.9875  1.6322
   36MOL0     H 4694   7.241   1.882   3.661 -1.5632  1.6728 -0.6859
   36MOL0     H 4695   7.077   1.654   3.557  1.8655 -0.8492 -0.7667
   36MOL0     H 4696   7.067   1.740   3.711  1.4975  0.8084  0.2062
   36MOL0     H 4697   6.991   1.850   3.429  0.1176 -1.8385  0.1698
   36MOL0     H 4698   6.965   1.939   3.590  2.5690  0.5471 -0.9158
   36MOL0     H 4699   6.826   1.771   3.667  0.1560  0.9443  0.7418
   36MOL0     H 4700   6.835   1.672   3.530 -0.4124 -1.6420  4.0364
   36MOL0     H 4701   6.684   1.941   3.549 -1.0759 -1.1538  0.9582
   36MOL0     H 4702   6.745   1.872   3.392  4.1011 -2.8090  0.0840
   36MOL0     H 4703   6.604   1.689   3.580 -1.3765  0.3722 -0.1383
   36MOL0     H 4704   6.609   1.674   3.408  0.4642 -2.3670  1.2323
   36MOL0     H 4705   6.322   1.655   3.507  4.4529 -1.5246 -0.5065
   36MOL0     H 4706   6.083   1.773   3.366  1.3789 -0.9099  1.0459
   36MOL0     H 4707   6.076   1.943   3.387  2.3983  0.7987 -0.2583
   36MOL0     H 4708   6.091   1.734   3.614  1.5825 -0.1657 -3.1226
   36MOL0     H 4709   5.941   1.810   3.562 -0.3729 -1.2179  2.9342
   36MOL0     H 4710   6.051   1.887   3.778  0.5482 -0.8527 -0.4533
   36MOL0     H 4711   6.182   1.968   3.670  0.4536 -0.1525  0.1193
   36MOL0     H 4712   5.982   2.068   3.558  2.8912 -0.0602 -0.0468
   36MOL0     H 4713   6.054   2.141   3.695  3.0368 -2.1203 -0.1590
   36MOL0     H 4714   5.899   2.278   3.849 -0.2384  0.5752  0.3495
   36MOL0     H 4715   5.719   2.444   3.869  0.8947 -1.0312  0.9584
   36MOL0     H 4716   5.404   2.716   3.684  0.5959  0.1616 -0.3195
   36MOL0     H 4717   5.257   2.900   3.764  0.2308  2.2378  2.9594
   36MOL0     H 4718   5.155   3.056   3.879  1.0074  0.6390  1.7551
   36MOL0     H 4719   5.028   3.088   3.996 -2.5095  0.8636 -2.8908
   36MOL0     H 4720   4.979   2.876   3.792 -0.8680 -0.2929 -1.1623
   36MOL0     H 4721   4.980   3.048   3.738  0.8083 -2.7252 -2.0332
   36MOL0     H 4722   4.824   3.113   3.889 -1.0157 -0.3357 -0.3053
   36MOL0     H 4723   4.821   2.939   3.961  0.4103 -0.2782  0.5581
   36MOL0     H 4724   4.740   3.012   3.674 -4.0466  2.0097 -0.0403
   36MOL0     H 4725   4.699   2.869   3.767 -0.6629 -0.4264 -0.3456
   36MOL0     H 4726   4.610   3.146   3.877  0.3305 -0.2040 -1.2472
   36MOL0     H 4727   4.548   2.974   3.896 -1.0022 -0.6330 -0.8474
   36MOL0     H 4728   4.466   2.985   3.665 -0.4614 -0.9934 -0.5864
   36MOL0     H 4729   4.549   3.142   3.641 -1.6317 -3.5112 -2.8737
   36MOL0     H 4730   4.338   3.086   3.858  0.0084  1.3351  0.4774
   36MOL0     H 4731   4.406   3.241   3.812 -1.2764 -0.0288  1.6049
   36MOL0     H 4732   4.251   3.049   3.636  0.3463  0.5807 -1.6615
   36MOL0     H 4733   4.289   3.212   3.592  1.4070  0.0347  0.0599
   36MOL0     H 4734   5.198   2.708   4.142 -0.6210  1.5640 -0.7701
   36MOL0     H 4735   5.357   2.545   4.093  1.7948 -1.1182 -0.8591
   36MOL0     H 4736   5.483   2.230   3.588 -0.8324  2.3163  1.0006
   36MOL0     H 4737   5.648   2.053   3.574 -2.1084 -0.4646  0.1685
   36MOL0     H 4738   7.664   1.887   3.435 -1.5870 -0.6383 -0.7653
   36MOL0     H 4739   7.892   1.963   3.449 -2.1406  1.4003  2.2169
   36MOL0     H 4740   8.311   1.754   3.435  3.0543  0.1352 -0.5810
   36MOL0     H 4741   8.548   1.757   3.415  1.6364  1.0010  0.6725
   36MOL0     H 4742   8.733   1.833   3.282  1.6606  0.5155 -0.8054
   36MOL0     H 4743   8.774   1.786   3.446  1.2005 -0.7953 -0.3847
   36MOL0     H 4744   8.913   1.983   3.266 -3.3891  2.9521  2.1764
   36MOL0     H 4745   8.977   1.966   3.424  0.9157  1.9429 -1.0314
   36MOL0     H 4746   9.094   1.822   3.244 -0.8645 -1.1406 -2.0376
   36MOL0     H 4747   8.947   1.721   3.239  0.7541  1.0693 -2.7245
   36MOL0     H 4748   9.134   1.758   3.475 -1.0728 -0.1958  0.7470
   36MOL0     H 4749   8.973   1.683   3.474  0.0870  2.4096  2.2036
   36MOL0     H 4750   9.189   1.376   3.270 -2.3014 -0.9585  1.1011
   36MOL0     H 4751   8.578   2.162   3.533  0.5836 -0.3879 -2.5796
   36MOL0     H 4752   8.320   2.139   3.608  0.9910  0.8877  0.5506
   37MOL0     O 4753   5.139   8.316   3.431 -0.5307 -0.3117 -0.8183
   37MOL0     C 4754   5.201   8.407   3.497  0.0154  0.3444 -0.0468
   37MOL0     O 4755   5.150   8.487   3.591  0.3933 -0.2871 -0.2819
   37MOL0     C 4756   5.022   8.449   3.630  0.4040 -0.0334 -0.4750
   37MOL0     C 4757   4.915   8.507   3.583  0.3974 -0.6651  0.3717
   37MOL0     C 4758   4.787   8.453   3.623  0.7676 -0.2734 -0.5285
   37MOL0     C 4759   4.780   8.344   3.703 -0.1793 -0.4778  0.1067
   37MOL0     O 4760   4.657   8.292   3.744  0.1229 -0.2088  0.7528
   37MOL0     C 4761   4.631   8.148   3.751 -0.2381  0.5291 -0.1462
   37MOL0     C 4762   4.484   8.105   3.716  1.0446 -0.0034 -0.1727
   37MOL0     C 4763   4.369   8.198   3.774 -1.0019 -0.1972 -0.3311
   37MOL0     C 4764   4.227   8.151   3.728 -0.4543  0.1145  0.2220
   37MOL0     C 4765   4.217   7.999   3.687 -0.2157  0.4058  0.3619
   37MOL0     C 4766   4.075   7.966   3.645 -0.5541  0.2521 -0.4083
   37MOL0     C 4767   4.070   7.820   3.601 -0.0359  0.5878  0.7010
   37MOL0     C 4768   3.916   7.776   3.579  0.5769 -0.5783 -0.3127
   37MOL0     N 4769   3.873   7.839   3.456  0.3725  0.6306 -0.3340
   37MOL0     C 4770   3.797   7.952   3.455 -0.7053  0.0633 -0.3376
   37MOL0     C 4771   3.753   7.970   3.326 -0.1264  0.8049  0.0208
   37MOL0     C 4772   3.666   8.074   3.264 -0.1779  0.3444  0.3793
   37MOL0     C 4773   3.526   8.026   3.216  0.4451  0.0826 -0.7367
   37MOL0     C 4774   3.429   7.988   3.327  0.2495  0.0117  0.0541
   37MOL0     C 4775   3.299   7.930   3.265 -0.2804 -0.3928  0.4434
   37MOL0     O 4776   3.328   7.812   3.198  0.7471  0.6447 -0.1288
   37MOL0     C 4777   3.223   7.728   3.200 -0.0383 -0.1954  1.0019
   37MOL0     C 4778   3.127   7.734   3.090  0.5356 -0.3854 -0.4922
   37MOL0     C 4779   3.009   7.644   3.094 -0.3974 -0.5395 -0.1065
   37MOL0     C 4780   2.993   7.555   3.199  0.4867 -0.1064 -0.2020
   37MOL0     C 4781   2.867   7.486   3.217  0.0806 -0.0428  0.5853
   37MOL0     O 4782   2.786   7.479   3.107  0.7464 -0.0457  0.1694
   37MOL0     C 4783   2.660   7.424   3.129  0.3213  1.2703 -0.2030
   37MOL0     C 4784   2.549   7.484   3.182 -0.1854 -0.1220 -0.3864
   37MOL0     C 4785   2.427   7.425   3.198 -0.1731  0.2487 -0.4162
   37MOL0     C 4786   2.395   7.306   3.142 -0.1049  0.1868  0.5934
   37MOL0     O 4787   2.268   7.251   3.169  0.3279  0.5699  0.0896
   37MOL0     C 4788   2.226   7.170   3.059 -1.0762 -0.0580  0.4657
   37MOL0     C 4789   2.078   7.130   3.070 -0.1589  0.1657  0.0184
   37MOL0     C 4790   1.981   7.230   3.116  1.0366 -0.4612 -0.1509
   37MOL0     C 4791   1.837   7.174   3.145 -0.9323 -0.1174 -1.0689
   37MOL0     C 4792   1.753   7.131   3.024 -0.1580  0.7542  0.9066
   37MOL0     C 4793   1.604   7.097   3.053  0.1700  0.8491  0.1501
   37MOL0     C 4794   1.535   7.021   2.942 -0.3857 -1.3668  0.2395
   37MOL0     C 4795   1.406   6.970   2.980  0.2737 -0.1403  0.5843
   37MOL0    Cl 4796   1.405   6.867   3.133 -0.0549  0.0547  0.4928
   37MOL0     C 4797   2.493   7.252   3.064  0.1627 -0.6102  0.3886
   37MOL0     C 4798   2.626   7.307   3.070  0.1607  0.6291 -0.4979
   37MOL0     O 4799   2.833   7.467   3.331  0.2367  0.6237 -0.1148
   37MOL0     C 4800   3.099   7.549   3.300 -0.0427  0.7889 -0.4910
   37MOL0     C 4801   3.213   7.629   3.299 -0.1584  0.4740 -0.0361
   37MOL0     N 4802   3.802   7.865   3.252 -0.0050 -0.3257  1.0309
   37MOL0     N 4803   3.876   7.793   3.327 -0.0385 -0.6997 -0.5578
   37MOL0     C 4804   4.899   8.292   3.765  1.1841 -0.3411  0.0803
   37MOL0     C 4805   5.017   8.352   3.730  0.2671  0.3330 -0.8081
   37MOL0     C 4806   5.347   8.421   3.481 -0.3030 -0.3660  0.0575
   37MOL0     C 4807   5.414   8.525   3.552  1.0694  0.2977  0.2035
   37MOL0     C 4808   5.550   8.552   3.541  0.0566  0.0254  0.7507
   37MOL0     C 4809   5.626   8.464   3.463  0.3935 -0.3961 -0.7885
   37MOL0     O 4810   5.764   8.464   3.481  0.8769 -0.4909 -0.4054
   37MOL0     C 4811   5.847   8.366   3.411 -0.5166  0.1327 -0.6266
   37MOL0     C 4812   5.989   8.371   3.467  0.1486 -0.7158  0.3406
   37MOL0     C 4813   6.043   8.508   3.424 -0.6263 -0.0799  0.9611
   37MOL0     C 4814   6.189   8.500   3.461  0.0387  0.2814 -0.3286
   37MOL0     C 4815   6.254   8.625   3.420  0.3835 -0.3424  0.3254
   37MOL0     C 4816   6.307   8.724   3.375 -0.9397  0.1802 -0.4045
   37MOL0     C 4817   5.556   8.363   3.383  0.0693 -0.6641 -0.1705
   37MOL0     C 4818   5.418   8.347   3.396 -0.4291  0.8549 -1.2785
   37MOL0     H 4819   4.917   8.591   3.515  0.5127 -0.9053  0.0746
   37MOL0     H 4820   4.689   8.490   3.593  1.0274  0.4167 -0.5375
   37MOL0     H 4821   4.645   8.105   3.851 -1.1116 -1.2132 -0.7246
   37MOL0     H 4822   4.710   8.100   3.694  0.7113  3.0917 -1.1095
   37MOL0     H 4823   4.478   8.014   3.776 -1.6615 -0.5539 -1.1386
   37MOL0     H 4824   4.466   8.097   3.608 -1.1326  3.0840 -0.1543
   37MOL0     H 4825   4.384   8.302   3.742  2.6654 -0.0420  1.3451
   37MOL0     H 4826   4.376   8.193   3.883 -0.1862  1.1038 -0.2909
   37MOL0     H 4827   4.161   8.176   3.810  0.2376 -1.7979  1.4272
   37MOL0     H 4828   4.190   8.210   3.643  1.6795 -0.6828 -1.3653
   37MOL0     H 4829   4.241   7.939   3.775 -0.0169  0.5942  0.4344
   37MOL0     H 4830   4.287   7.974   3.606  1.7456  2.2459  1.3902
   37MOL0     H 4831   4.055   8.039   3.566  2.3957  1.8801  0.1842
   37MOL0     H 4832   4.014   7.989   3.733  0.3917 -0.9462  0.5960
   37MOL0     H 4833   4.127   7.820   3.507 -3.4042 -1.0932 -1.5513
   37MOL0     H 4834   4.114   7.753   3.675  0.0136  1.5367  1.5472
   37MOL0     H 4835   3.850   7.811   3.659  1.3805  0.5305 -0.0964
   37MOL0     H 4836   3.902   7.668   3.573 -1.8399 -0.2694 -1.1207
   37MOL0     H 4837   3.754   8.002   3.541 -2.0039 -1.2988 -0.1654
   37MOL0     H 4838   3.707   8.104   3.167 -4.7223  0.0555 -1.8883
   37MOL0     H 4839   3.647   8.151   3.339 -0.0469 -1.9178  2.9113
   37MOL0     H 4840   3.533   7.952   3.136  2.8188 -0.0841 -0.4604
   37MOL0     H 4841   3.492   8.124   3.181 -0.8714 -0.6652 -1.5877
   37MOL0     H 4842   3.478   7.912   3.389  0.4036  2.1045  2.7083
   37MOL0     H 4843   3.404   8.071   3.394 -0.3627 -1.4294  1.7027
   37MOL0     H 4844   3.267   8.013   3.202 -0.4260  0.8635  2.0870
   37MOL0     H 4845   3.225   7.925   3.346  0.2999 -1.5171  0.9142
   37MOL0     H 4846   3.127   7.803   3.006 -1.5879  0.3471  0.0496
   37MOL0     H 4847   2.926   7.660   3.026 -0.3863  1.0210  0.2025
   37MOL0     H 4848   2.573   7.573   3.239  3.5174 -1.0323 -0.2442
   37MOL0     H 4849   2.374   7.476   3.277 -0.3887 -2.1178  1.0708
   37MOL0     H 4850   2.293   7.085   3.044  1.2874  1.7497  0.2039
   37MOL0     H 4851   2.233   7.231   2.969 -1.4872 -1.8876 -0.8835
   37MOL0     H 4852   2.085   7.045   3.138 -0.6812 -2.0249 -2.4873
   37MOL0     H 4853   2.049   7.093   2.971  1.2704  2.7733 -1.5130
   37MOL0     H 4854   1.975   7.311   3.043 -2.1736  0.7782  1.2909
   37MOL0     H 4855   2.009   7.280   3.209  1.6021  2.8440 -1.9729
   37MOL0     H 4856   1.843   7.099   3.225  0.0819 -1.8820 -2.7360
   37MOL0     H 4857   1.775   7.245   3.200 -0.0603 -1.7563  2.3562
   37MOL0     H 4858   1.805   7.048   2.975 -1.5660  0.4009 -0.0530
   37MOL0     H 4859   1.745   7.215   2.954  0.0745  1.9408  2.2712
   37MOL0     H 4860   1.557   7.193   3.077  2.1582  2.3736 -1.6768
   37MOL0     H 4861   1.601   7.041   3.148  2.1056 -2.5209 -1.5544
   37MOL0     H 4862   1.525   7.081   2.851 -3.4841 -0.5752  1.0103
   37MOL0     H 4863   1.596   6.940   2.900 -0.6877 -1.0739 -0.7860
   37MOL0     H 4864   1.358   6.934   2.889  2.1281  0.5604 -0.7305
   37MOL0     H 4865   1.347   7.055   3.017  3.5613  1.7220  1.9993
   37MOL0     H 4866   2.478   7.161   3.007  1.5929  0.0471 -1.1568
   37MOL0     H 4867   2.701   7.255   3.011  0.2610 -1.2338  1.1881
   37MOL0     H 4868   3.094   7.477   3.381 -2.2485  0.3260 -0.9683
   37MOL0     H 4869   3.287   7.624   3.379  1.4674 -1.2334 -1.5436
   37MOL0     H 4870   4.897   8.207   3.832 -0.5510  1.2008  2.1465
   37MOL0     H 4871   5.109   8.308   3.766 -0.5845  1.0784  2.6337
   37MOL0     H 4872   5.363   8.589   3.623  0.1814 -0.2917  0.1106
   37MOL0     H 4873   5.599   8.622   3.608 -2.5113  4.4777 -1.5962
   37MOL0     H 4874   5.843   8.387   3.303 -0.3019 -0.7274 -0.8122
   37MOL0     H 4875   5.806   8.265   3.413  2.7534 -1.2845  0.2196
   37MOL0     H 4876   5.996   8.356   3.575  3.0023  1.1245  0.5465
   37MOL0     H 4877   6.043   8.294   3.412 -1.5561 -0.3059 -2.0872
   37MOL0     H 4878   5.993   8.583   3.486  0.9998 -0.5456  2.9437
   37MOL0     H 4879   6.031   8.537   3.319 -0.3057  1.1963  1.2606
   37MOL0     H 4880   6.217   8.482   3.565 -0.5174  4.4637  0.7023
   37MOL0     H 4881   6.230   8.419   3.400  0.9316  0.4963 -0.0246
   37MOL0     H 4882   6.344   8.821   3.347 -0.3152  0.3559  0.9369
   37MOL0     H 4883   5.613   8.297   3.319  2.3892  0.8780  0.1697
   37MOL0     H 4884   5.363   8.282   3.329 -1.2219 -1.0712  1.1082
   38MOL0     O 4885   5.326   7.038   6.249  0.2009  0.5628 -0.6210
   38MOL0     C 4886   5.347   7.148   6.304 -0.8030  0.0374 -0.2362
   38MOL0     O 4887   5.302   7.182   6.432 -0.3090 -0.1184  0.2584
   38MOL0     C 4888   5.250   7.091   6.523  0.3288  0.4639 -0.0881
   38MOL0     C 4889   5.314   7.050   6.645  0.2471 -0.6681  1.0762
   38MOL0     C 4890   5.238   6.975   6.746  0.4427 -0.6166  0.9622
   38MOL0     C 4891   5.102   6.932   6.719  0.8472 -0.7120  0.0496
   38MOL0     O 4892   5.032   6.872   6.825 -0.0063 -0.4143  0.0717
   38MOL0     C 4893   4.909   6.795   6.797  0.3263  0.1552  0.4398
   38MOL0     C 4894   4.880   6.708   6.912 -0.9960  0.4404  0.6150
   38MOL0     C 4895   4.740   6.643   6.905 -0.6592 -0.1627  0.8437
   38MOL0     C 4896   4.671   6.645   7.035  0.5528  0.4548 -0.7720
   38MOL0     C 4897   4.525   6.583   7.016  0.0686 -0.0987 -1.4494
   38MOL0     C 4898   4.437   6.614   7.134  0.1887  0.1034  0.3014
   38MOL0     C 4899   4.301   6.543   7.108  0.1923 -0.3997 -0.1746
   38MOL0     C 4900   4.195   6.602   7.202  0.8864  1.2489 -0.6421
   38MOL0     N 4901   4.198   6.542   7.338  0.0331 -1.1000  0.0751
   38MOL0     C 4902   4.099   6.460   7.390  0.3136 -0.1740 -0.0692
   38MOL0     C 4903   4.139   6.436   7.521  0.4534 -0.4958 -0.2854
   38MOL0     C 4904   4.077   6.340   7.610  0.0897 -0.2093 -0.7381
   38MOL0     C 4905   4.183   6.239   7.658  0.0579  0.7793 -0.4015
   38MOL0     C 4906   4.226   6.147   7.539 -0.3394 -0.5217 -0.2194
   38MOL0     C 4907   4.331   6.206   7.444 -0.4203 -0.4924 -0.8758
   38MOL0     O 4908   4.405   6.095   7.386  0.5002 -0.3527  0.5593
   38MOL0     C 4909   4.535   6.118   7.331  0.9050 -0.5756 -0.5956
   38MOL0     C 4910   4.566   6.249   7.298  0.1891 -0.7313  0.0470
   38MOL0     C 4911   4.689   6.274   7.238  0.2161  0.5822  0.1523
   38MOL0     C 4912   4.786   6.173   7.212 -0.5037 -0.0820 -0.4190
   38MOL0     C 4913   4.917   6.203   7.150 -0.6462  0.2116 -0.0349
   38MOL0     O 4914   4.972   6.109   7.064 -0.3426  0.1016  0.0478
   38MOL0     C 4915   5.083   6.147   6.986  0.3312 -0.5925  0.6723
   38MOL0     C 4916   5.092   6.273   6.926 -0.7901 -0.0730 -0.1887
   38MOL0     C 4917   5.206   6.311   6.853 -0.4801 -0.1656 -0.2045
   38MOL0     C 4918   5.319   6.225   6.841  1.2409  0.7996  0.7526
   38MOL0     O 4919   5.434   6.271   6.775 -0.4559  0.3210  0.1606
   38MOL0     C 4920   5.530   6.173   6.742  0.4653  0.7119  0.4468
   38MOL0     C 4921   5.660   6.252   6.715  0.0267 -0.4940  0.4813
   38MOL0     C 4922   5.717   6.314   6.839 -0.3999  0.0788 -0.9003
   38MOL0     C 4923   5.759   6.228   6.960 -0.4952 -0.1549 -1.2851
   38MOL0     C 4924   5.866   6.117   6.927  0.1263  0.4712  0.8137
   38MOL0     C 4925   6.007   6.181   6.900  0.5212  0.7422 -0.0006
   38MOL0     C 4926   6.084   6.080   6.813 -0.4309 -0.2494  0.3340
   38MOL0     C 4927   6.226   6.135   6.782  0.6239  0.5623  0.0109
   38MOL0    Cl 4928   6.214   6.269   6.674 -0.1578  0.1738  0.0615
   38MOL0     C 4929   5.311   6.103   6.915 -0.0905  0.2336 -0.0933
   38MOL0     C 4930   5.194   6.066   6.984 -1.0358  0.3378  0.3699
   38MOL0     O 4931   4.968   6.311   7.173 -0.0500  0.0298 -0.0250
   38MOL0     C 4932   4.745   6.041   7.238  0.5002  0.1461  0.6487
   38MOL0     C 4933   4.615   6.014   7.284 -0.0015 -0.8793  0.7627
   38MOL0     N 4934   4.251   6.511   7.544  0.3666 -0.0804 -0.0778
   38MOL0     N 4935   4.279   6.587   7.443  1.1224  0.7045 -0.0280
   38MOL0     C 4936   5.048   6.965   6.599  0.4893 -0.6439  0.3033
   38MOL0     C 4937   5.117   7.048   6.509  0.3912  0.0176  0.4431
   38MOL0     C 4938   5.431   7.241   6.223 -0.2032 -0.5082  0.2505
   38MOL0     C 4939   5.509   7.208   6.115  0.9082  0.2563  0.8441
   38MOL0     C 4940   5.569   7.302   6.027 -0.4518 -0.1053  0.0114
   38MOL0     C 4941   5.541   7.439   6.048 -0.1497  0.2228  0.8406
   38MOL0     O 4942   5.572   7.532   5.958  0.4401 -0.6334 -0.5643
   38MOL0     C 4943   5.671   7.509   5.855 -0.2619 -0.6776  0.3959
   38MOL0     C 4944   5.676   7.631   5.759 -0.1333  0.7570 -0.0281
   38MOL0     C 4945   5.818   7.696   5.755 -0.2736 -1.0036 -0.1629
   38MOL0     C 4946   5.906   7.629   5.649 -0.1595  0.3303  0.4949
   38MOL0     C 4947   6.041   7.666   5.668 -0.4016 -0.4763 -0.4924
   38MOL0     C 4948   6.151   7.724   5.676  0.2773  0.0431 -0.2124
   38MOL0     C 4949   5.468   7.477   6.155 -0.1675  0.5865 -1.2034
   38MOL0     C 4950   5.419   7.377   6.244  0.5662  0.5591  0.6820
   38MOL0     H 4951   5.419   7.071   6.663  0.3168 -2.2664  2.8249
   38MOL0     H 4952   5.274   6.963   6.847  2.2473 -0.7497  0.3330
   38MOL0     H 4953   4.915   6.737   6.704  1.0094  1.4541 -0.3600
   38MOL0     H 4954   4.834   6.872   6.775 -0.5143 -0.8608 -0.3323
   38MOL0     H 4955   4.884   6.754   7.011 -0.4015  4.1896 -0.9852
   38MOL0     H 4956   4.949   6.624   6.898  1.6732  2.4420  1.0337
   38MOL0     H 4957   4.756   6.541   6.867 -0.7480 -0.0178  0.4167
   38MOL0     H 4958   4.679   6.701   6.835 -1.2878 -0.9888  0.6836
   38MOL0     H 4959   4.719   6.568   7.097 -0.8946 -0.9105 -1.2883
   38MOL0     H 4960   4.673   6.747   7.075  2.5786 -0.7400  2.5580
   38MOL0     H 4961   4.532   6.475   7.001  0.2263 -0.3355  0.1601
   38MOL0     H 4962   4.476   6.632   6.931  0.3044  0.6226 -1.1834
   38MOL0     H 4963   4.431   6.722   7.149  0.1721  0.1533 -0.0482
   38MOL0     H 4964   4.471   6.562   7.224 -2.2416 -0.0860  1.1829
   38MOL0     H 4965   4.266   6.575   7.009 -2.1284 -1.3253  0.2896
   38MOL0     H 4966   4.316   6.436   7.124  0.2711 -0.1848  1.3830
   38MOL0     H 4967   4.100   6.594   7.148  1.3473  1.3727 -1.4926
   38MOL0     H 4968   4.213   6.709   7.218  1.0026  1.1158  0.1386
   38MOL0     H 4969   4.013   6.410   7.348 -1.7130  2.9342  0.0920
   38MOL0     H 4970   4.004   6.289   7.547  0.3271 -1.3318 -0.1278
   38MOL0     H 4971   4.031   6.378   7.701  2.1898 -1.0517  0.7522
   38MOL0     H 4972   4.144   6.175   7.738  1.0950 -1.5141 -1.6241
   38MOL0     H 4973   4.265   6.297   7.701 -2.8369  3.7717  1.5655
   38MOL0     H 4974   4.255   6.050   7.581  0.7570 -0.4356 -0.7541
   38MOL0     H 4975   4.131   6.130   7.488  0.1890 -1.3082 -0.9624
   38MOL0     H 4976   4.393   6.280   7.495 -2.3060  1.2739 -1.0251
   38MOL0     H 4977   4.284   6.266   7.365 -0.7407  2.4213  1.3474
   38MOL0     H 4978   4.503   6.335   7.322  1.7538  0.5595 -0.2980
   38MOL0     H 4979   4.704   6.379   7.215  1.8401 -0.4612 -4.9423
   38MOL0     H 4980   5.015   6.349   6.933 -0.4905  0.0532  2.8795
   38MOL0     H 4981   5.208   6.412   6.813  2.7408  1.4474  3.3292
   38MOL0     H 4982   5.505   6.108   6.658  3.9844  1.2941 -1.2331
   38MOL0     H 4983   5.548   6.105   6.826  2.1144  1.4489  0.7351
   38MOL0     H 4984   5.628   6.331   6.647  0.8866  0.9770  1.7288
   38MOL0     H 4985   5.735   6.196   6.658  0.6971  1.5403 -0.7523
   38MOL0     H 4986   5.644   6.390   6.870 -1.3178 -0.4374 -1.7575
   38MOL0     H 4987   5.803   6.377   6.814 -0.9531  0.4811 -1.8323
   38MOL0     H 4988   5.800   6.292   7.038 -0.4374 -1.5912 -0.0731
   38MOL0     H 4989   5.667   6.179   6.995 -0.3846 -1.2490 -2.4413
   38MOL0     H 4990   5.834   6.057   6.841 -2.3652  2.7888 -0.0249
   38MOL0     H 4991   5.882   6.041   7.004 -4.2114 -1.6175 -0.0710
   38MOL0     H 4992   6.053   6.211   6.994 -1.5274  1.4780  0.8246
   38MOL0     H 4993   6.006   6.273   6.840 -0.1347  0.0156 -1.1383
   38MOL0     H 4994   6.098   5.984   6.863  2.7717  0.0337  0.1862
   38MOL0     H 4995   6.024   6.062   6.724 -0.9599 -1.5237  0.9336
   38MOL0     H 4996   6.295   6.065   6.735  2.0050  2.5810 -1.1559
   38MOL0     H 4997   6.272   6.170   6.875 -1.3629  0.3057  1.1500
   38MOL0     H 4998   5.393   6.031   6.909  1.9920  2.4514  0.2333
   38MOL0     H 4999   5.203   5.962   7.015 -0.1110  0.7914  1.6840
   38MOL0     H 5000   4.810   5.961   7.204  0.8957  0.5043  0.5539
   38MOL0     H 5001   4.593   5.908   7.294  1.6559 -1.4890 -1.2101
   38MOL0     H 5002   4.947   6.944   6.565  0.7102  0.7902 -1.3820
   38MOL0     H 5003   5.066   7.068   6.416 -2.4746  0.4451  1.9972
   38MOL0     H 5004   5.533   7.107   6.082  0.6092  0.7055 -0.8446
   38MOL0     H 5005   5.642   7.257   5.960 -0.3547 -0.5311  0.4040
   38MOL0     H 5006   5.640   7.419   5.800 -1.6870  0.5717 -0.9529
   38MOL0     H 5007   5.773   7.497   5.891  0.2978  2.2987  0.0892
   38MOL0     H 5008   5.637   7.605   5.660  0.0718 -0.1078  0.1121
   38MOL0     H 5009   5.613   7.705   5.810  1.8608  1.7678  1.0877
   38MOL0     H 5010   5.860   7.693   5.856 -2.7796  0.1353  0.9837
   38MOL0     H 5011   5.802   7.799   5.722 -1.7957 -1.8655 -2.4059
   38MOL0     H 5012   5.899   7.521   5.666 -0.2006  0.3399  0.5403
   38MOL0     H 5013   5.876   7.652   5.547  0.0624 -0.3560  0.2692
   38MOL0     H 5014   6.232   7.793   5.686 -0.4513  0.5952  2.9447
   38MOL0     H 5015   5.435   7.579   6.169  0.0172  0.4938  0.0375
   38MOL0     H 5016   5.351   7.409   6.323  0.7399 -0.4225  1.2459
   39MOL0     O 5017   2.393   8.861   8.327  0.5509  0.1590  0.5101
   39MOL0     C 5018   2.499   8.811   8.282  0.2058  0.7358 -1.1591
   39MOL0     O 5019   2.531   8.670   8.276 -0.4031 -0.0894 -0.7699
   39MOL0     C 5020   2.445   8.566   8.280  0.2624 -0.1761 -0.8952
   39MOL0     C 5021   2.298   8.587   8.309 -0.3590 -0.3348 -0.8575
   39MOL0     C 5022   2.218   8.474   8.318 -0.0445  0.0776 -0.2282
   39MOL0     C 5023   2.283   8.345   8.329 -0.3631 -0.7834  0.2926
   39MOL0     O 5024   2.217   8.231   8.356  0.4368 -0.2743 -0.1082
   39MOL0     C 5025   2.218   8.185   8.491 -0.0569  0.3094  0.5711
   39MOL0     C 5026   2.118   8.275   8.569  0.5311  0.2933  0.4622
   39MOL0     C 5027   1.972   8.236   8.545 -1.0369 -0.7767  0.7207
   39MOL0     C 5028   1.880   8.290   8.667 -0.6640 -0.1628  0.7660
   39MOL0     C 5029   1.742   8.232   8.661 -0.9777 -0.5311  0.2804
   39MOL0     C 5030   1.741   8.083   8.703  1.1151  0.2312  0.3737
   39MOL0     C 5031   1.612   8.005   8.686  0.6671  0.0128  0.1452
   39MOL0     C 5032   1.487   8.043   8.770  0.6210 -0.3324  0.1843
   39MOL0     N 5033   1.403   8.162   8.725  0.2635  0.4601 -0.2260
   39MOL0     C 5034   1.414   8.285   8.790 -0.5268  0.2351  0.5007
   39MOL0     C 5035   1.317   8.358   8.734  0.0579  0.0780 -0.7196
   39MOL0     C 5036   1.288   8.498   8.777  1.0058 -0.3371 -0.5579
   39MOL0     C 5037   1.143   8.545   8.755 -0.4435 -0.3607  0.3452
   39MOL0     C 5038   1.096   8.666   8.837 -0.3853 -0.3263  0.4575
   39MOL0     C 5039   0.951   8.701   8.812 -0.8172  0.3020  0.3072
   39MOL0     O 5040   0.850   8.647   8.899 -0.6289 -0.0538 -0.0464
   39MOL0     C 5041   0.711   8.669   8.881 -0.1858 -0.7972 -0.1349
   39MOL0     C 5042   0.625   8.612   8.975 -0.8389 -0.1754  0.0466
   39MOL0     C 5043   0.489   8.623   8.972  0.3554  0.3877  0.5459
   39MOL0     C 5044   0.436   8.701   8.863 -0.6171  1.1101 -0.5910
   39MOL0     C 5045   0.291   8.733   8.849 -0.2226  0.5891 -0.8563
   39MOL0     O 5046   0.203   8.640   8.895  0.0517 -0.8227  0.5906
   39MOL0     C 5047   0.072   8.638   8.857 -0.0918 -0.3024 -0.4031
   39MOL0     C 5048   0.035   8.649   8.725 -0.4050 -0.0556 -0.0967
   39MOL0     C 5049  -0.095   8.614   8.685 -0.1054 -0.8405 -0.0992
   39MOL0     C 5050  -0.193   8.597   8.783  0.2854  0.1095  0.1845
   39MOL0     O 5051  -0.316   8.560   8.747  0.3652 -0.2766 -0.6650
   39MOL0     C 5052  -0.433   8.606   8.822  1.0206  0.6357  0.9252
   39MOL0     C 5053  -0.448   8.761   8.828  0.4211 -0.3550  0.0874
   39MOL0     C 5054  -0.595   8.804   8.865  0.0724 -0.5282 -0.3973
   39MOL0     C 5055  -0.670   8.886   8.753 -0.2693  0.1008 -0.9446
   39MOL0     C 5056  -0.684   8.797   8.621  0.8664 -0.4405 -0.0117
   39MOL0     C 5057  -0.756   8.878   8.504 -0.1658 -0.5638  1.0933
   39MOL0     C 5058  -0.789   8.801   8.380  0.3351  0.3040 -0.3761
   39MOL0     C 5059  -0.867   8.675   8.401  0.9108  0.6096  0.8666
   39MOL0    Cl 5060  -0.928   8.612   8.241  0.3206 -0.1590  0.3679
   39MOL0     C 5061  -0.151   8.606   8.918  0.0750  0.6753 -0.2294
   39MOL0     C 5062  -0.023   8.612   8.958  0.0783  0.8668  0.1880
   39MOL0     O 5063   0.263   8.832   8.787  0.1124 -0.0532 -0.8978
   39MOL0     C 5064   0.526   8.765   8.776 -0.0563 -0.1925  0.1580
   39MOL0     C 5065   0.662   8.747   8.782 -0.2530 -0.1186 -0.8079
   39MOL0     N 5066   1.245   8.277   8.640  0.0268  0.6585  0.6053
   39MOL0     N 5067   1.299   8.163   8.637  0.5081  0.0863 -0.3087
   39MOL0     C 5068   2.419   8.331   8.305 -0.3989  0.4083  0.2531
   39MOL0     C 5069   2.498   8.440   8.277  0.3593 -0.1097 -0.2011
   39MOL0     C 5070   2.606   8.901   8.242  0.4850  0.4349 -0.2917
   39MOL0     C 5071   2.732   8.847   8.233 -0.2549  0.0754 -0.0111
   39MOL0     C 5072   2.836   8.931   8.180  0.7023  0.5769 -0.8827
   39MOL0     C 5073   2.812   9.069   8.158  1.0196 -0.0775  0.7804
   39MOL0     O 5074   2.906   9.162   8.114  0.0651  0.1089 -0.2037
   39MOL0     C 5075   3.033   9.111   8.064 -0.4982 -0.9159 -0.0638
   39MOL0     C 5076   3.014   9.068   7.918 -0.3385 -0.6965  0.3703
   39MOL0     C 5077   3.151   9.058   7.856  0.7595  1.1679 -0.0132
   39MOL0     C 5078   3.227   8.936   7.905 -0.2237  0.1083 -0.0401
   39MOL0     C 5079   3.363   8.937   7.844 -0.5270 -0.7906 -0.2935
   39MOL0     C 5080   3.464   8.932   7.776  0.4553 -0.2481 -0.1972
   39MOL0     C 5081   2.686   9.122   8.184 -0.1088  0.0063 -0.0039
   39MOL0     C 5082   2.583   9.037   8.216 -0.1231  0.2572 -0.3659
   39MOL0     H 5083   2.257   8.688   8.311  1.6835  0.5403  1.0158
   39MOL0     H 5084   2.110   8.483   8.328 -0.0901  0.7246 -1.2295
   39MOL0     H 5085   2.314   8.188   8.543  0.6003  1.2876 -0.6496
   39MOL0     H 5086   2.179   8.083   8.488 -2.3507  1.0849  1.2293
   39MOL0     H 5087   2.116   8.382   8.549 -1.6085  0.3053  0.5040
   39MOL0     H 5088   2.122   8.253   8.676 -3.6748 -1.4846  0.4567
   39MOL0     H 5089   1.951   8.130   8.532 -0.6420 -0.7428 -0.2632
   39MOL0     H 5090   1.946   8.296   8.458 -0.0918 -0.0383  0.9250
   39MOL0     H 5091   1.928   8.260   8.760 -1.6483 -1.3063  0.9343
   39MOL0     H 5092   1.875   8.399   8.654 -1.0138 -0.0259  1.9934
   39MOL0     H 5093   1.714   8.256   8.558  2.2952  1.3995 -0.2957
   39MOL0     H 5094   1.682   8.285   8.735  0.4462  2.8486 -0.7756
   39MOL0     H 5095   1.764   8.072   8.809 -0.8416  0.6788  0.8776
   39MOL0     H 5096   1.821   8.034   8.647 -1.6509 -1.0574 -2.7971
   39MOL0     H 5097   1.579   8.013   8.582 -2.0538  0.4632  0.9651
   39MOL0     H 5098   1.634   7.902   8.715  5.9383  1.1211  1.1485
   39MOL0     H 5099   1.523   8.053   8.873  1.0455 -3.2922  0.4334
   39MOL0     H 5100   1.428   7.951   8.764 -0.6795  0.4342  0.9547
   39MOL0     H 5101   1.483   8.319   8.866  1.9264 -0.3368 -1.3484
   39MOL0     H 5102   1.367   8.549   8.722  2.6581 -2.4483 -0.2673
   39MOL0     H 5103   1.300   8.498   8.886 -3.3894 -0.0878  0.1188
   39MOL0     H 5104   1.078   8.466   8.795 -1.9767  0.6102 -0.1217
   39MOL0     H 5105   1.136   8.557   8.646 -0.8255 -2.3036  0.1190
   39MOL0     H 5106   1.105   8.634   8.942 -2.0292 -0.7265  0.5030
   39MOL0     H 5107   1.157   8.752   8.812 -2.5041  1.0180 -0.3485
   39MOL0     H 5108   0.935   8.678   8.706  1.4939 -1.5696  0.2942
   39MOL0     H 5109   0.943   8.810   8.822 -0.1892  0.3177  0.7406
   39MOL0     H 5110   0.674   8.555   9.053  2.0272  2.5368  0.4230
   39MOL0     H 5111   0.429   8.589   9.055 -0.1293  0.4575  0.2293
   39MOL0     H 5112   0.116   8.676   8.658 -0.2206 -0.7547 -0.1684
   39MOL0     H 5113  -0.115   8.609   8.579  2.1992 -0.1813 -0.6142
   39MOL0     H 5114  -0.440   8.549   8.915 -1.1709  0.8885  0.9730
   39MOL0     H 5115  -0.526   8.576   8.773  0.3697  0.2441  2.3448
   39MOL0     H 5116  -0.426   8.795   8.727  3.7483 -2.1494  0.0879
   39MOL0     H 5117  -0.377   8.801   8.901 -0.6839  2.2639 -0.1692
   39MOL0     H 5118  -0.587   8.870   8.952 -0.0885 -0.3497 -0.5163
   39MOL0     H 5119  -0.659   8.717   8.883  1.3745 -1.6172 -0.8394
   39MOL0     H 5120  -0.770   8.905   8.792 -0.1925 -2.0633  0.4863
   39MOL0     H 5121  -0.616   8.977   8.725  1.4735 -0.5312  0.1974
   39MOL0     H 5122  -0.736   8.704   8.649  0.3312  0.4612  2.1651
   39MOL0     H 5123  -0.587   8.765   8.581  1.7123 -0.9374  2.2670
   39MOL0     H 5124  -0.691   8.958   8.469 -3.3193  0.6781 -2.7556
   39MOL0     H 5125  -0.844   8.930   8.544  1.1881  1.9435  0.9752
   39MOL0     H 5126  -0.854   8.856   8.311 -0.9522 -1.3785 -0.5564
   39MOL0     H 5127  -0.698   8.781   8.322  0.5841 -0.3115  0.2152
   39MOL0     H 5128  -0.945   8.692   8.475 -0.3008 -2.0855  0.3132
   39MOL0     H 5129  -0.809   8.591   8.440  0.9553  0.0068 -0.4416
   39MOL0     H 5130  -0.227   8.593   8.995  0.2780 -0.1747 -0.1668
   39MOL0     H 5131   0.009   8.616   9.062  3.0269  6.4419 -0.5910
   39MOL0     H 5132   0.502   8.840   8.702  2.8486  0.4449 -0.2230
   39MOL0     H 5133   0.719   8.800   8.706  0.1507  1.3876  0.4910
   39MOL0     H 5134   2.461   8.231   8.307 -1.8631 -0.2232  1.0522
   39MOL0     H 5135   2.602   8.422   8.249  1.0362  2.7169  0.2469
   39MOL0     H 5136   2.764   8.744   8.250  1.6046  0.4916 -0.7494
   39MOL0     H 5137   2.928   8.882   8.150  0.3670 -0.4839 -0.2585
   39MOL0     H 5138   3.073   9.026   8.121  0.1101  0.3482  1.4648
   39MOL0     H 5139   3.102   9.195   8.068 -0.4518 -0.9075 -0.7947
   39MOL0     H 5140   2.954   8.976   7.913 -0.3981 -0.6451  0.1533
   39MOL0     H 5141   2.951   9.134   7.858  1.3174 -0.8651 -1.6628
   39MOL0     H 5142   3.209   9.150   7.869  0.4128  1.2096  1.3659
   39MOL0     H 5143   3.131   9.036   7.750  1.5795  0.0406  0.0468
   39MOL0     H 5144   3.232   8.939   8.014  0.0830 -1.8991  0.0413
   39MOL0     H 5145   3.173   8.846   7.872  0.3166  1.0460 -4.0194
   39MOL0     H 5146   3.550   8.935   7.713  1.4380  0.2826  1.1271
   39MOL0     H 5147   2.657   9.226   8.177 -0.7971 -0.0232  1.8599
   39MOL0     H 5148   2.488   9.089   8.218  0.2863  1.2599 -2.7706
   40MOL0     O 5149  10.338   6.802  10.705 -0.3559  0.0309 -0.1719
   40MOL0     C 5150  10.410   6.748  10.624 -0.2700 -0.1313  0.3683
   40MOL0     O 5151  10.385   6.723  10.493  0.1793 -0.2334  0.2843
   40MOL0     C 5152  10.257   6.739  10.449 -0.5753  0.0663  0.2954
   40MOL0     C 5153  10.138   6.674  10.498 -0.2908 -0.7223  0.7148
   40MOL0     C 5154  10.009   6.721  10.458  1.0393  0.0240  1.1161
   40MOL0     C 5155  10.001   6.817  10.351  0.2152  1.0628  0.3800
   40MOL0     O 5156   9.875   6.858  10.307 -0.6902  0.0266 -0.2984
   40MOL0     C 5157   9.845   6.887  10.168 -1.6190  0.2439 -0.4836
   40MOL0     C 5158   9.710   6.958  10.169 -0.2234 -0.0049  0.4359
   40MOL0     C 5159   9.591   6.854  10.149 -0.4957 -0.4629  0.1851
   40MOL0     C 5160   9.455   6.922  10.171  0.2439 -0.0409  0.0793
   40MOL0     C 5161   9.347   6.824  10.223 -0.1476 -0.5452 -0.3596
   40MOL0     C 5162   9.277   6.747  10.108  0.3867 -0.0560  0.3503
   40MOL0     C 5163   9.128   6.703  10.139 -0.2945 -0.4810 -0.7715
   40MOL0     C 5164   9.029   6.820  10.142  0.2491  0.1561  0.5100
   40MOL0     N 5165   8.918   6.797  10.242  0.1764  0.3571 -0.6088
   40MOL0     C 5166   8.835   6.685  10.248 -0.1136 -0.2274  0.0080
   40MOL0     C 5167   8.756   6.714  10.350 -0.7191 -0.8779  0.2862
   40MOL0     C 5168   8.647   6.643  10.419  0.6135 -0.0880 -0.0300
   40MOL0     C 5169   8.509   6.697  10.367  0.3051  0.0881 -1.0298
   40MOL0     C 5170   8.395   6.629  10.450 -0.4372  0.2288 -0.1824
   40MOL0     C 5171   8.335   6.704  10.565  0.0148 -0.0030  0.4059
   40MOL0     O 5172   8.217   6.644  10.611  0.2277 -0.1962 -0.5334
   40MOL0     C 5173   8.098   6.647  10.546 -0.3147  0.2339  0.9191
   40MOL0     C 5174   8.004   6.552  10.574  0.1964 -0.8924  0.6984
   40MOL0     C 5175   7.883   6.546  10.504  0.0574  0.1575 -0.1204
   40MOL0     C 5176   7.845   6.631  10.405  0.7888 -0.0641 -0.2381
   40MOL0     C 5177   7.728   6.597  10.325 -0.4315 -0.4148  0.0479
   40MOL0     O 5178   7.681   6.469  10.327  0.6183  0.1705 -0.0516
   40MOL0     C 5179   7.566   6.451  10.248 -0.5193  0.3198 -0.3725
   40MOL0     C 5180   7.575   6.362  10.141  0.5324  0.7594 -0.0979
   40MOL0     C 5181   7.462   6.332  10.065  0.2642  0.4091  0.0551
   40MOL0     C 5182   7.345   6.400  10.080  0.2759  0.0545 -0.0402
   40MOL0     O 5183   7.242   6.363  10.003  0.8261  0.5185  0.0195
   40MOL0     C 5184   7.103   6.397  10.040 -0.3408 -0.2681 -0.4717
   40MOL0     C 5185   7.028   6.394   9.908 -0.0107  0.7770  0.2019
   40MOL0     C 5186   6.870   6.396   9.923 -0.3647  0.1467  0.2633
   40MOL0     C 5187   6.791   6.515   9.869 -0.9428  1.0840 -0.0177
   40MOL0     C 5188   6.642   6.513   9.875  0.4687 -0.6171 -0.7777
   40MOL0     C 5189   6.569   6.625   9.782  0.2771 -0.2451 -0.4023
   40MOL0     C 5190   6.422   6.615   9.772 -0.4766  1.2059 -0.5703
   40MOL0     C 5191   6.354   6.739   9.714  0.6269  0.1849 -0.5501
   40MOL0    Cl 5192   6.179   6.747   9.736  0.1807 -0.3407 -0.1749
   40MOL0     C 5193   7.330   6.489  10.194  0.4717 -0.0109 -1.0133
   40MOL0     C 5194   7.443   6.507  10.281 -0.0733 -0.0100  0.4009
   40MOL0     O 5195   7.692   6.685  10.242 -0.5066  0.0770 -0.1590
   40MOL0     C 5196   7.941   6.731  10.374 -0.3288 -0.1837 -0.0628
   40MOL0     C 5197   8.060   6.737  10.443  0.2328 -0.2405 -0.3911
   40MOL0     N 5198   8.795   6.836  10.403  0.0814  0.1322 -0.6938
   40MOL0     N 5199   8.898   6.881  10.343  0.1450 -1.1078 -0.0319
   40MOL0     C 5200  10.119   6.872  10.299 -0.1150 -0.1754 -0.2173
   40MOL0     C 5201  10.242   6.830  10.348  0.0341 -0.0091  0.8679
   40MOL0     C 5202  10.548   6.705  10.657 -0.0855 -0.0963 -0.2615
   40MOL0     C 5203  10.626   6.630  10.574 -0.6052  1.2101 -0.3541
   40MOL0     C 5204  10.756   6.595  10.596 -0.7139 -0.2308  1.1447
   40MOL0     C 5205  10.814   6.638  10.718 -1.0524  0.6136 -0.5467
   40MOL0     O 5206  10.936   6.607  10.772 -1.0490  0.8056 -0.3577
   40MOL0     C 5207  11.015   6.531  10.678  0.0620 -0.0933  0.6860
   40MOL0     C 5208  11.156   6.529  10.736 -1.3387  0.1112  0.1572
   40MOL0     C 5209  11.245   6.446  10.637  0.0634  0.7845 -0.1357
   40MOL0     C 5210  11.394   6.468  10.656 -0.1099  0.0285  0.6448
   40MOL0     C 5211  11.467   6.364  10.580 -0.4548  0.9103  0.3676
   40MOL0     C 5212  11.536   6.287  10.512 -1.1976  0.5066 -0.6317
   40MOL0     C 5213  10.745   6.713  10.809 -0.5784 -0.5016  0.2730
   40MOL0     C 5214  10.613   6.746  10.777  0.6541  0.0488  0.0850
   40MOL0     H 5215  10.149   6.596  10.573 -0.7721 -1.4158  0.0888
   40MOL0     H 5216   9.915   6.678  10.491  0.5478  0.2106 -0.0096
   40MOL0     H 5217   9.854   6.807  10.094  0.7655  2.5834 -2.9398
   40MOL0     H 5218   9.915   6.964  10.135  1.0369 -1.7402  0.1085
   40MOL0     H 5219   9.707   7.036  10.092  0.7279 -2.9238 -2.8435
   40MOL0     H 5220   9.693   7.005  10.266  1.8758 -1.9172  1.8298
   40MOL0     H 5221   9.597   6.764  10.212 -1.1266 -0.3732  0.3854
   40MOL0     H 5222   9.600   6.823  10.044  0.8416  1.0606 -0.1870
   40MOL0     H 5223   9.465   6.989  10.257  2.9513  1.5870 -1.3753
   40MOL0     H 5224   9.425   6.984  10.085  3.8650  0.5079 -0.9502
   40MOL0     H 5225   9.276   6.886  10.280 -0.2616  1.6103 -2.7057
   40MOL0     H 5226   9.396   6.751  10.288  1.7551  0.9410 -0.0473
   40MOL0     H 5227   9.344   6.663  10.088 -0.1859 -0.8941  1.7392
   40MOL0     H 5228   9.284   6.807  10.017  1.4644  0.1044  0.5268
   40MOL0     H 5229   9.085   6.623  10.077  0.7272 -0.7639 -1.1390
   40MOL0     H 5230   9.135   6.651  10.235 -3.3655 -0.6710 -0.5437
   40MOL0     H 5231   8.970   6.823  10.050  0.1398  0.9653  0.5985
   40MOL0     H 5232   9.073   6.919  10.158 -1.0646  0.6051  1.4452
   40MOL0     H 5233   8.828   6.600  10.180  1.2470  0.7672 -1.4632
   40MOL0     H 5234   8.637   6.643  10.528 -0.2424  2.3373 -0.0499
   40MOL0     H 5235   8.651   6.536  10.395  1.0933  0.2162 -1.3884
   40MOL0     H 5236   8.497   6.664  10.264 -3.4092 -1.5906 -0.2315
   40MOL0     H 5237   8.491   6.805  10.376  2.0517  0.3099  0.5080
   40MOL0     H 5238   8.322   6.609  10.371  0.0902 -1.7956 -0.2028
   40MOL0     H 5239   8.422   6.531  10.489 -1.4157  0.9721  2.5913
   40MOL0     H 5240   8.312   6.810  10.546  0.2892 -0.1596 -0.8503
   40MOL0     H 5241   8.405   6.706  10.649  1.2624  1.7436 -0.5933
   40MOL0     H 5242   8.032   6.477  10.647  1.1654 -1.2082  0.0159
   40MOL0     H 5243   7.816   6.462  10.517 -2.0002  1.0132 -3.8085
   40MOL0     H 5244   7.676   6.331  10.117  0.8193  2.3935 -1.1727
   40MOL0     H 5245   7.468   6.258   9.986  2.1710 -0.2168  0.7404
   40MOL0     H 5246   7.093   6.496  10.085 -0.8402 -1.2493  1.7476
   40MOL0     H 5247   7.065   6.323  10.112 -1.2611  1.6106  1.0712
   40MOL0     H 5248   7.051   6.302   9.854 -0.8373  1.1222 -0.7702
   40MOL0     H 5249   7.064   6.472   9.841 -1.7380  1.0926 -0.4031
   40MOL0     H 5250   6.846   6.389  10.030  1.2551 -0.2558  0.6166
   40MOL0     H 5251   6.833   6.308   9.870 -1.8103  0.5805  0.4807
   40MOL0     H 5252   6.827   6.602   9.925  2.4677  0.7860 -1.4694
   40MOL0     H 5253   6.822   6.528   9.764 -0.8376 -1.1320 -0.3084
   40MOL0     H 5254   6.609   6.533   9.977  1.7461 -0.9414 -0.2848
   40MOL0     H 5255   6.599   6.416   9.849 -1.8894 -0.1777  1.1081
   40MOL0     H 5256   6.613   6.617   9.682  1.8184  0.3387  0.1900
   40MOL0     H 5257   6.599   6.726   9.811  0.5856 -0.5584  0.3865
   40MOL0     H 5258   6.398   6.529   9.709 -0.7172 -1.1996  2.5466
   40MOL0     H 5259   6.381   6.600   9.872 -1.2824 -0.0336 -1.0595
   40MOL0     H 5260   6.360   6.722   9.606  1.6749  1.5760 -0.7395
   40MOL0     H 5261   6.408   6.830   9.740 -1.1007  0.7478  1.2958
   40MOL0     H 5262   7.244   6.549  10.222  1.8912  2.4155 -1.6051
   40MOL0     H 5263   7.432   6.570  10.369  0.0678  3.9614 -2.1827
   40MOL0     H 5264   7.932   6.808  10.298  1.9250  1.5141  1.2447
   40MOL0     H 5265   8.132   6.816  10.424  1.8567 -1.3455  0.8726
   40MOL0     H 5266  10.128   6.944  10.218  2.4856  1.3659  1.2827
   40MOL0     H 5267  10.341   6.862  10.317  0.7248  0.4533  3.3692
   40MOL0     H 5268  10.587   6.585  10.484 -1.3393 -0.3810  0.6974
   40MOL0     H 5269  10.814   6.551  10.515 -0.9418  0.4142  0.6198
   40MOL0     H 5270  11.009   6.582  10.581  0.0187  2.5137  1.9814
   40MOL0     H 5271  10.969   6.431  10.676 -0.3446  0.0069 -3.1966
   40MOL0     H 5272  11.188   6.631  10.756 -1.4086  0.0155  0.7739
   40MOL0     H 5273  11.167   6.478  10.832  0.7955 -0.3539 -0.2687
   40MOL0     H 5274  11.234   6.473  10.531  3.1138  2.5241 -0.1406
   40MOL0     H 5275  11.217   6.341  10.637  1.7587  0.2947  0.4623
   40MOL0     H 5276  11.423   6.567  10.622 -0.8403 -0.7270 -2.5154
   40MOL0     H 5277  11.428   6.466  10.760  1.0877  2.5032  0.3647
   40MOL0     H 5278  11.586   6.210  10.457  2.4489  2.6067 -0.5571
   40MOL0     H 5279  10.797   6.760  10.892  2.2260  0.9832 -2.1193
   40MOL0     H 5280  10.553   6.811  10.839 -0.6764 -1.4862  0.4630
   41MOL0     O 5281   5.015   4.864   6.782 -1.0463  0.8831  0.1855
   41MOL0     C 5282   5.040   4.784   6.694  0.0278  0.0565  0.5017
   41MOL0     O 5283   4.955   4.683   6.651  0.3221 -0.2989 -0.4177
   41MOL0     C 5284   4.842   4.643   6.721 -0.0671  0.6888 -1.0201
   41MOL0     C 5285   4.738   4.577   6.653 -0.3313  1.1292  0.2642
   41MOL0     C 5286   4.620   4.534   6.715 -0.1593 -0.3175 -0.4987
   41MOL0     C 5287   4.594   4.565   6.848  1.5212  0.0318 -0.0371
   41MOL0     O 5288   4.470   4.539   6.913 -0.5627  0.9440 -0.6516
   41MOL0     C 5289   4.345   4.544   6.851 -0.8865  0.3053 -0.1995
   41MOL0     C 5290   4.228   4.543   6.946  0.2333  0.9645  0.3542
   41MOL0     C 5291   4.230   4.683   7.013 -0.0763  0.6723 -0.5160
   41MOL0     C 5292   4.105   4.722   7.085  0.1711  0.2319  0.7928
   41MOL0     C 5293   3.994   4.763   6.983 -0.3634  0.3782 -0.5958
   41MOL0     C 5294   4.030   4.867   6.880 -0.9344  0.7685  0.6146
   41MOL0     C 5295   3.909   4.918   6.800 -0.1452  0.4047 -0.2109
   41MOL0     C 5296   3.964   5.015   6.694  0.0353 -0.4733 -0.2537
   41MOL0     N 5297   3.866   5.068   6.595 -0.2613 -0.5576 -0.7778
   41MOL0     C 5298   3.876   5.064   6.459  0.2075 -0.4058  0.7143
   41MOL0     C 5299   3.754   5.114   6.417 -0.3428 -0.4263 -0.2899
   41MOL0     C 5300   3.722   5.143   6.276 -0.7704 -0.5144  0.3635
   41MOL0     C 5301   3.639   5.270   6.262 -0.2746  0.0208  1.0710
   41MOL0     C 5302   3.625   5.306   6.112 -0.3208  0.0802 -0.0113
   41MOL0     C 5303   3.484   5.299   6.075  0.1388 -0.2606 -0.2132
   41MOL0     O 5304   3.424   5.170   6.091  0.3858  0.3914 -0.5290
   41MOL0     C 5305   3.290   5.155   6.064  0.8209 -0.2559  1.2256
   41MOL0     C 5306   3.225   5.058   6.135 -0.1887 -0.2446  0.7329
   41MOL0     C 5307   3.084   5.045   6.136  0.4683  0.6200  0.5625
   41MOL0     C 5308   3.006   5.126   6.052 -0.3959  0.0364 -0.2529
   41MOL0     C 5309   2.863   5.110   6.036 -0.1134  0.2280 -0.0347
   41MOL0     O 5310   2.806   5.182   5.929 -0.1270 -0.2903  0.5251
   41MOL0     C 5311   2.670   5.203   5.914 -0.6225 -0.4595 -0.9404
   41MOL0     C 5312   2.566   5.111   5.941 -0.2762 -0.0666  0.0718
   41MOL0     C 5313   2.435   5.139   5.899  0.6297 -0.0879 -0.8082
   41MOL0     C 5314   2.397   5.254   5.839  0.5361 -0.5738  0.0098
   41MOL0     O 5315   2.264   5.271   5.815 -0.3308  0.1693 -0.1167
   41MOL0     C 5316   2.213   5.369   5.726  0.8114  1.1530 -0.2771
   41MOL0     C 5317   2.070   5.326   5.696  1.3043 -0.3752 -0.0887
   41MOL0     C 5318   1.990   5.299   5.824  0.9704  0.1464  0.8783
   41MOL0     C 5319   1.840   5.317   5.806 -0.1122 -0.4400 -0.7317
   41MOL0     C 5320   1.771   5.188   5.763 -1.0318 -0.3078 -0.5528
   41MOL0     C 5321   1.616   5.211   5.772 -0.1134 -0.4074  1.1359
   41MOL0     C 5322   1.557   5.087   5.702 -0.0771  0.0800 -0.1066
   41MOL0     C 5323   1.405   5.073   5.723 -0.5257 -0.7424 -0.6960
   41MOL0    Cl 5324   1.344   4.906   5.720 -0.1191 -0.3905 -0.1221
   41MOL0     C 5325   2.502   5.340   5.800  0.9002  0.1356 -0.5755
   41MOL0     C 5326   2.636   5.308   5.829 -1.2898  0.0417 -0.3974
   41MOL0     O 5327   2.796   5.048   6.115  0.2771 -0.6015 -0.0780
   41MOL0     C 5328   3.070   5.222   5.972 -0.1135 -0.0863  0.0612
   41MOL0     C 5329   3.211   5.231   5.966  0.5414 -0.0524 -0.1192
   41MOL0     N 5330   3.672   5.136   6.530 -0.4157 -0.5028  0.1185
   41MOL0     N 5331   3.739   5.107   6.635 -0.5543  0.3815 -0.3947
   41MOL0     C 5332   4.698   4.630   6.919  0.2307  0.1929 -0.0260
   41MOL0     C 5333   4.817   4.664   6.860 -0.3834 -0.7538 -0.1103
   41MOL0     C 5334   5.174   4.805   6.622 -1.4223  0.4571  0.5650
   41MOL0     C 5335   5.230   4.708   6.533 -0.6456  0.2200  0.2100
   41MOL0     C 5336   5.354   4.720   6.482  0.6697  0.3220  0.7901
   41MOL0     C 5337   5.432   4.821   6.531 -0.7948 -0.5917 -0.3507
   41MOL0     O 5338   5.564   4.849   6.491  0.5360  0.3774  0.0915
   41MOL0     C 5339   5.668   4.853   6.586  0.3188  0.2159  0.6308
   41MOL0     C 5340   5.727   4.991   6.585 -0.1363 -0.8343 -0.2313
   41MOL0     C 5341   5.843   5.039   6.681  0.2340  0.9842 -0.6855
   41MOL0     C 5342   5.988   4.996   6.620  1.1628  0.7399  0.1074
   41MOL0     C 5343   6.019   4.862   6.645 -0.4844 -0.2008 -0.2273
   41MOL0     C 5344   6.035   4.745   6.668  0.2579  0.0069 -0.4266
   41MOL0     C 5345   5.384   4.921   6.614  0.2226  0.1615  0.4821
   41MOL0     C 5346   5.260   4.917   6.657  0.2235  0.0992  0.0026
   41MOL0     H 5347   4.755   4.562   6.547 -2.7846  2.6833 -0.4440
   41MOL0     H 5348   4.538   4.499   6.652 -1.0277  1.3928 -0.3688
   41MOL0     H 5349   4.331   4.461   6.781 -2.1222 -0.6578  1.1416
   41MOL0     H 5350   4.333   4.626   6.779 -0.7361  0.3413 -0.1839
   41MOL0     H 5351   4.237   4.457   7.012 -2.2002  0.7280  0.4742
   41MOL0     H 5352   4.147   4.518   6.876  0.4549  1.3048 -0.0240
   41MOL0     H 5353   4.258   4.761   6.941  0.9292 -1.1099 -2.1791
   41MOL0     H 5354   4.307   4.686   7.091  1.0848  1.4545 -1.6466
   41MOL0     H 5355   4.058   4.639   7.139 -1.4153  0.1534 -0.6235
   41MOL0     H 5356   4.127   4.805   7.152  0.8402 -0.3745  1.3491
   41MOL0     H 5357   3.906   4.802   7.035  1.3920 -0.2813  3.2049
   41MOL0     H 5358   3.976   4.678   6.916  0.2167  2.6887 -3.9347
   41MOL0     H 5359   4.102   4.824   6.810 -0.6630  2.4581 -0.2029
   41MOL0     H 5360   4.087   4.951   6.922 -0.2471  0.5377  0.1561
   41MOL0     H 5361   3.844   4.839   6.761  1.0027 -0.0212 -1.3354
   41MOL0     H 5362   3.847   4.982   6.863 -2.8958 -1.3526 -0.9451
   41MOL0     H 5363   4.042   4.967   6.634 -1.0143 -0.5879 -1.5679
   41MOL0     H 5364   4.007   5.105   6.738  2.1457 -2.2878  1.6686
   41MOL0     H 5365   3.956   5.043   6.389 -0.3701 -1.4134  0.3256
   41MOL0     H 5366   3.670   5.051   6.246  1.9378 -2.1182  0.2647
   41MOL0     H 5367   3.808   5.155   6.210 -2.1321 -2.1300 -1.8604
   41MOL0     H 5368   3.702   5.342   6.315  2.9202  1.3138 -3.8160
   41MOL0     H 5369   3.541   5.256   6.309 -0.2227 -2.7867  0.5254
   41MOL0     H 5370   3.649   5.413   6.108 -0.4784  0.1731  1.0812
   41MOL0     H 5371   3.700   5.249   6.056  2.2461  0.7838  2.4635
   41MOL0     H 5372   3.491   5.336   5.973  0.7222 -0.1015 -0.1207
   41MOL0     H 5373   3.422   5.369   6.131 -1.7568 -0.9023 -1.4381
   41MOL0     H 5374   3.293   4.990   6.185  1.0626  1.5947  1.6388
   41MOL0     H 5375   3.034   4.961   6.183 -2.7870 -0.1856 -3.7212
   41MOL0     H 5376   2.579   5.019   5.998 -1.2658 -0.6579 -0.6275
   41MOL0     H 5377   2.364   5.058   5.915  1.7941 -0.8467  0.6559
   41MOL0     H 5378   2.270   5.374   5.633 -2.1324 -1.1286 -2.4195
   41MOL0     H 5379   2.216   5.463   5.780  3.3589  1.0219 -0.0807
   41MOL0     H 5380   2.073   5.238   5.632  1.0781 -0.8977  0.6081
   41MOL0     H 5381   2.024   5.404   5.635  3.5250 -1.1920 -3.0321
   41MOL0     H 5382   2.033   5.371   5.895 -1.2379  0.3109  2.1377
   41MOL0     H 5383   2.015   5.200   5.865  3.4143 -0.4688 -1.7477
   41MOL0     H 5384   1.794   5.348   5.901  0.5314  0.4449 -0.6993
   41MOL0     H 5385   1.823   5.395   5.731 -0.6565 -0.1090 -0.2740
   41MOL0     H 5386   1.803   5.104   5.825  2.2378  1.2615  0.0989
   41MOL0     H 5387   1.793   5.168   5.658  1.2669  1.4434 -0.4887
   41MOL0     H 5388   1.587   5.300   5.717 -1.0177 -0.5913  1.2924
   41MOL0     H 5389   1.571   5.221   5.872  0.1500  0.6526  1.1518
   41MOL0     H 5390   1.582   5.088   5.595  1.0552  0.5700  0.1422
   41MOL0     H 5391   1.613   5.000   5.738  1.7249  0.6256 -1.4386
   41MOL0     H 5392   1.359   5.135   5.646 -0.8816 -1.2148 -0.8674
   41MOL0     H 5393   1.392   5.120   5.821 -0.7976 -3.5939  0.7439
   41MOL0     H 5394   2.468   5.420   5.736  2.2089  2.4862  1.5059
   41MOL0     H 5395   2.718   5.365   5.788 -0.5909 -0.3316  0.4670
   41MOL0     H 5396   3.009   5.298   5.925 -2.1896 -0.1490  2.4187
   41MOL0     H 5397   3.257   5.309   5.905 -3.3038  0.5630 -2.5881
   41MOL0     H 5398   4.675   4.648   7.023 -0.2546  3.9584 -0.6627
   41MOL0     H 5399   4.899   4.702   6.920 -0.6484 -1.9285  1.0515
   41MOL0     H 5400   5.197   4.605   6.528  1.7371 -0.7506  2.1431
   41MOL0     H 5401   5.410   4.649   6.422  3.0599  1.7285  1.2019
   41MOL0     H 5402   5.735   4.778   6.541 -1.9964 -1.7398  0.2668
   41MOL0     H 5403   5.628   4.808   6.677 -1.1138 -2.2250 -1.0747
   41MOL0     H 5404   5.764   5.006   6.484  4.9472 -0.2403  1.4601
   41MOL0     H 5405   5.649   5.064   6.608  1.0617  0.5458 -0.4639
   41MOL0     H 5406   5.834   4.996   6.781  0.6294  1.2107 -0.5485
   41MOL0     H 5407   5.846   5.148   6.688  3.2861  0.8657  3.2220
   41MOL0     H 5408   5.996   5.011   6.512  2.6389 -3.7213 -0.6396
   41MOL0     H 5409   6.060   5.058   6.674  0.0948 -0.9076  3.7762
   41MOL0     H 5410   6.054   4.642   6.688  2.4666  0.1848 -1.2854
   41MOL0     H 5411   5.445   5.007   6.641  0.3511 -0.3544  1.9202
   41MOL0     H 5412   5.223   4.991   6.727  2.2813 -0.5370  1.8843
   42MOL0     O 5413   7.062   4.685   8.721  0.0481 -0.5925  0.2509
   42MOL0     C 5414   7.090   4.568   8.739 -0.2071 -0.0370  0.2027
   42MOL0     O 5415   6.996   4.463   8.749 -0.9149 -0.8444 -0.0407
   42MOL0     C 5416   6.861   4.483   8.761 -0.4819 -0.1804 -0.0514
   42MOL0     C 5417   6.795   4.461   8.884 -0.1060  0.7965  0.2096
   42MOL0     C 5418   6.655   4.470   8.894 -0.9901  0.1038  0.1153
   42MOL0     C 5419   6.583   4.526   8.783 -0.0866  0.5566 -0.7704
   42MOL0     O 5420   6.450   4.549   8.802 -0.1374 -0.0120  0.0581
   42MOL0     C 5421   6.356   4.483   8.708 -1.0000 -0.6306  0.1195
   42MOL0     C 5422   6.236   4.461   8.802  0.3260  0.6156 -0.1102
   42MOL0     C 5423   6.125   4.395   8.720 -0.8494 -0.0287 -0.3545
   42MOL0     C 5424   6.015   4.354   8.815 -0.0809 -0.0841  0.2731
   42MOL0     C 5425   5.896   4.278   8.739  0.0379  0.0011  0.9165
   42MOL0     C 5426   5.926   4.132   8.698  0.0643 -0.8616  0.5503
   42MOL0     C 5427   5.820   4.067   8.601  0.4386  0.1499  0.2941
   42MOL0     C 5428   5.741   3.958   8.675 -1.1330 -0.7156 -0.8508
   42MOL0     N 5429   5.623   3.917   8.602 -0.4938 -0.1960 -0.2692
   42MOL0     C 5430   5.588   3.785   8.584 -0.6792 -0.2089  0.1956
   42MOL0     C 5431   5.458   3.789   8.538  0.4502  0.3047 -0.0529
   42MOL0     C 5432   5.381   3.668   8.484  0.0617  0.7008  0.6941
   42MOL0     C 5433   5.472   3.563   8.415  0.3486  0.3260  0.4113
   42MOL0     C 5434   5.398   3.463   8.321 -0.0428 -0.2622 -0.1133
   42MOL0     C 5435   5.310   3.375   8.408  0.1156 -0.6221  0.3407
   42MOL0     O 5436   5.287   3.268   8.313 -0.4075  0.1399  0.1900
   42MOL0     C 5437   5.161   3.209   8.320  0.6101 -0.9512  0.4590
   42MOL0     C 5438   5.120   3.130   8.208 -0.5179 -1.0368 -0.1743
   42MOL0     C 5439   4.994   3.065   8.200  0.3904  0.1242 -0.9384
   42MOL0     C 5440   4.897   3.085   8.300  0.3648  0.3889  0.8661
   42MOL0     C 5441   4.755   3.035   8.292 -1.2200  0.3847 -0.4134
   42MOL0     O 5442   4.673   3.070   8.391  0.4230 -1.0720 -0.5326
   42MOL0     C 5443   4.532   3.093   8.369 -0.0944 -0.0594  0.5225
   42MOL0     C 5444   4.476   3.142   8.255 -0.0946 -0.3426 -0.3398
   42MOL0     C 5445   4.334   3.157   8.247  0.0591  0.0054  0.1075
   42MOL0     C 5446   4.254   3.117   8.360 -0.5721  0.2189  0.5961
   42MOL0     O 5447   4.118   3.106   8.342 -0.0056  0.2686  0.0981
   42MOL0     C 5448   4.033   3.163   8.446  0.4244  0.2045 -0.2540
   42MOL0     C 5449   3.890   3.163   8.398 -0.2816 -0.5416 -0.4928
   42MOL0     C 5450   3.808   3.222   8.507 -0.0550  0.4385 -0.2556
   42MOL0     C 5451   3.818   3.372   8.534  0.5394  0.0028  0.4913
   42MOL0     C 5452   3.712   3.416   8.635 -0.1554  0.5201 -0.0012
   42MOL0     C 5453   3.748   3.564   8.683  0.2821 -0.5541 -0.1685
   42MOL0     C 5454   3.690   3.662   8.573  0.2035 -0.5872 -0.5139
   42MOL0     C 5455   3.785   3.773   8.546  0.3377  0.4805  0.7520
   42MOL0    Cl 5456   3.707   3.857   8.406 -0.1141 -0.2997 -0.5165
   42MOL0     C 5457   4.326   3.084   8.479  0.0680  0.1671 -0.1714
   42MOL0     C 5458   4.464   3.090   8.488  0.4124 -1.2606 -0.9777
   42MOL0     O 5459   4.718   2.983   8.183 -0.2807 -0.6176 -0.3673
   42MOL0     C 5460   4.934   3.166   8.411 -0.8195  0.2338  0.2020
   42MOL0     C 5461   5.066   3.227   8.415  0.2994 -0.5459 -0.7764
   42MOL0     N 5462   5.411   3.916   8.545 -0.0057 -0.0117 -0.4979
   42MOL0     N 5463   5.512   3.992   8.576  0.0063  0.1308  0.0235
   42MOL0     C 5464   6.650   4.550   8.660  0.3171 -0.2287 -0.7026
   42MOL0     C 5465   6.786   4.530   8.650 -0.8323 -0.4571  0.5886
   42MOL0     C 5466   7.223   4.525   8.727  1.0266  0.8915  0.7930
   42MOL0     C 5467   7.328   4.597   8.669 -0.4265  0.1824 -0.2350
   42MOL0     C 5468   7.457   4.553   8.644  0.8864 -0.5082 -0.1150
   42MOL0     C 5469   7.485   4.419   8.679 -0.3164  0.6355  0.2522
   42MOL0     O 5470   7.612   4.367   8.662 -0.0827  0.8348 -0.0138
   42MOL0     C 5471   7.724   4.450   8.609  0.0507 -0.3133 -0.4470
   42MOL0     C 5472   7.836   4.358   8.603 -0.5327 -0.1822  0.3084
   42MOL0     C 5473   7.966   4.426   8.559 -0.6132  0.0624  0.4310
   42MOL0     C 5474   8.091   4.338   8.538 -0.4410  0.2856 -0.5578
   42MOL0     C 5475   8.140   4.293   8.671  0.1495  0.1132  0.6226
   42MOL0     C 5476   8.189   4.268   8.777 -0.3551  0.3023  0.5565
   42MOL0     C 5477   7.390   4.342   8.751  0.2694 -0.3566 -0.2681
   42MOL0     C 5478   7.258   4.390   8.768 -0.9354 -0.6495 -0.6850
   42MOL0     H 5479   6.849   4.426   8.971 -0.2286  0.5684  0.1975
   42MOL0     H 5480   6.599   4.452   8.985 -2.5698 -3.7528 -1.3885
   42MOL0     H 5481   6.394   4.396   8.655 -0.0327 -1.1565  1.6135
   42MOL0     H 5482   6.325   4.547   8.624 -1.9726 -0.6533  0.4507
   42MOL0     H 5483   6.203   4.558   8.840 -0.7502 -0.6113  2.3193
   42MOL0     H 5484   6.270   4.398   8.885 -1.6993  0.2448  0.4992
   42MOL0     H 5485   6.162   4.306   8.669 -1.3811  0.1054 -0.9984
   42MOL0     H 5486   6.092   4.464   8.641  2.3783  0.2170 -1.6512
   42MOL0     H 5487   6.048   4.282   8.891  1.8575 -1.4640 -1.7517
   42MOL0     H 5488   5.984   4.448   8.862 -0.6602 -0.5317  0.8125
   42MOL0     H 5489   5.881   4.334   8.645  1.9658  0.8392  1.0627
   42MOL0     H 5490   5.806   4.281   8.801  2.4749  1.1973  4.6725
   42MOL0     H 5491   5.954   4.068   8.781 -1.0657 -2.6582 -0.3905
   42MOL0     H 5492   6.019   4.140   8.640 -0.1287 -0.0815  0.3290
   42MOL0     H 5493   5.751   4.142   8.562  0.8135  0.3598  0.0261
   42MOL0     H 5494   5.865   4.017   8.515  1.5420 -1.6206  1.8013
   42MOL0     H 5495   5.722   3.988   8.778  1.1085 -1.2907 -0.2196
   42MOL0     H 5496   5.811   3.875   8.687 -1.8519 -1.5168 -1.9440
   42MOL0     H 5497   5.643   3.691   8.585 -3.6756 -2.1617 -1.1320
   42MOL0     H 5498   5.307   3.699   8.410  0.2358 -1.5862 -0.5219
   42MOL0     H 5499   5.336   3.614   8.568 -1.1964  0.9056  0.1709
   42MOL0     H 5500   5.529   3.511   8.493 -0.5498 -2.0238 -0.4255
   42MOL0     H 5501   5.542   3.621   8.353 -3.0724  4.9059  0.3390
   42MOL0     H 5502   5.332   3.522   8.257 -2.4085 -0.5887  1.9059
   42MOL0     H 5503   5.480   3.404   8.280  4.2886  2.1439  4.0000
   42MOL0     H 5504   5.223   3.435   8.436 -0.0652 -0.2121 -0.9884
   42MOL0     H 5505   5.355   3.345   8.502 -0.8458  0.2573  1.1037
   42MOL0     H 5506   5.200   3.135   8.135  1.1204  0.5303  1.6198
   42MOL0     H 5507   4.965   3.000   8.118 -2.4549 -0.7882  0.6395
   42MOL0     H 5508   4.532   3.165   8.165 -2.6056  2.8510 -1.2575
   42MOL0     H 5509   4.286   3.182   8.153  1.8068 -0.9951 -1.1151
   42MOL0     H 5510   4.063   3.264   8.477  2.5888 -0.3198 -0.4431
   42MOL0     H 5511   4.042   3.108   8.541 -0.7176  0.3112 -0.0777
   42MOL0     H 5512   3.856   3.062   8.375 -1.6910  0.2854 -2.2748
   42MOL0     H 5513   3.887   3.220   8.304 -0.7487 -1.9213 -1.3482
   42MOL0     H 5514   3.821   3.160   8.596  0.6871  0.1584 -0.5541
   42MOL0     H 5515   3.712   3.196   8.462 -0.4874  1.4637  0.0513
   42MOL0     H 5516   3.915   3.401   8.576  0.7849 -2.5510  1.9254
   42MOL0     H 5517   3.805   3.425   8.440  2.4231  0.1949  0.2908
   42MOL0     H 5518   3.715   3.338   8.711  0.8373  1.9139  1.4815
   42MOL0     H 5519   3.611   3.423   8.594  0.2353  1.7719 -0.8211
   42MOL0     H 5520   3.856   3.580   8.687 -0.2162  3.6349  1.4284
   42MOL0     H 5521   3.706   3.594   8.779 -0.1205 -1.6537  0.0141
   42MOL0     H 5522   3.655   3.615   8.481 -3.0080  0.5400 -0.0197
   42MOL0     H 5523   3.605   3.711   8.622  0.5133  0.8476 -1.3361
   42MOL0     H 5524   3.884   3.740   8.514  0.7682  0.9337  1.6017
   42MOL0     H 5525   3.793   3.843   8.629  0.2845 -0.0533  1.2119
   42MOL0     H 5526   4.264   3.059   8.565 -0.0412  2.7232  0.5964
   42MOL0     H 5527   4.515   3.077   8.583  2.2547 -0.0359 -1.7587
   42MOL0     H 5528   4.864   3.204   8.485 -0.5593  3.7107 -1.1633
   42MOL0     H 5529   5.089   3.284   8.505  2.7947  0.1955 -1.7865
   42MOL0     H 5530   6.590   4.596   8.583  1.6657  0.7587 -1.1970
   42MOL0     H 5531   6.831   4.554   8.554 -0.7903 -1.4725  0.3423
   42MOL0     H 5532   7.299   4.693   8.627  0.9261  0.2911 -0.9832
   42MOL0     H 5533   7.523   4.616   8.585 -0.8002 -1.2946 -3.0731
   42MOL0     H 5534   7.742   4.541   8.666 -0.1788 -1.8734  2.2812
   42MOL0     H 5535   7.704   4.490   8.509 -2.4219  0.0021  0.1240
   42MOL0     H 5536   7.844   4.322   8.706  1.4864 -0.0979  0.2104
   42MOL0     H 5537   7.816   4.274   8.535 -2.0004  0.2141  0.2221
   42MOL0     H 5538   7.987   4.509   8.627  3.8259 -1.5227  1.3365
   42MOL0     H 5539   7.933   4.467   8.463  0.4395  1.3993  0.6057
   42MOL0     H 5540   8.077   4.250   8.474  1.1513 -0.5813  0.2310
   42MOL0     H 5541   8.161   4.406   8.488  2.4140 -0.2288  2.4157
   42MOL0     H 5542   8.233   4.258   8.874 -1.8169 -1.7697  1.0887
   42MOL0     H 5543   7.404   4.241   8.789  4.0986  0.4460  0.8093
   42MOL0     H 5544   7.190   4.323   8.821  0.5023 -2.7940 -1.4193
   43MOL0     O 5545   3.313  10.361   1.285 -0.7045  0.0876 -0.2229
   43MOL0     C 5546   3.384  10.343   1.185  0.7749  1.3549 -0.2389
   43MOL0     O 5547   3.336  10.347   1.063  0.3900 -0.2190  0.5846
   43MOL0     C 5548   3.210  10.388   1.028 -0.9424 -0.0677  0.1419
   43MOL0     C 5549   3.156  10.502   1.083 -0.1018 -0.0159  0.1600
   43MOL0     C 5550   3.031  10.556   1.043  0.1969 -0.3591  0.2976
   43MOL0     C 5551   2.962  10.494   0.939 -0.4252  0.0944 -0.3565
   43MOL0     O 5552   2.842  10.543   0.888 -0.0812 -0.2909 -0.7080
   43MOL0     C 5553   2.769  10.643   0.951  0.3575 -1.1072 -0.0228
   43MOL0     C 5554   2.806  10.784   0.882  0.2994 -0.0641 -0.5740
   43MOL0     C 5555   2.755  10.804   0.740  0.9628  0.2498  1.2157
   43MOL0     C 5556   2.780  10.939   0.682 -0.7314 -0.2541  1.0160
   43MOL0     C 5557   2.806  10.934   0.533  0.4694  0.9103  0.5236
   43MOL0     C 5558   2.692  10.865   0.457  0.6310 -0.1660  0.1027
   43MOL0     C 5559   2.740  10.795   0.321 -0.6806 -0.0391 -0.3151
   43MOL0     C 5560   2.621  10.725   0.258  0.0773  0.7607 -0.2595
   43MOL0     N 5561   2.520  10.811   0.203  0.8900 -0.7591  0.1569
   43MOL0     C 5562   2.530  10.911   0.109 -0.2373  0.0581  0.0195
   43MOL0     C 5563   2.400  10.951   0.085 -0.3376  0.1293 -0.6420
   43MOL0     C 5564   2.380  11.072   0.001  0.1454 -0.6771  0.0113
   43MOL0     C 5565   2.344  11.050  -0.142  0.2375 -0.1932  0.0204
   43MOL0     C 5566   2.184  11.062  -0.155 -0.8509 -0.2658 -0.0115
   43MOL0     C 5567   2.144  11.034  -0.300  0.7159  0.1648  0.0010
   43MOL0     O 5568   2.170  11.157  -0.368  0.2869  0.3135  0.4919
   43MOL0     C 5569   2.085  11.195  -0.475 -0.8346 -0.2853  0.3199
   43MOL0     C 5570   2.092  11.327  -0.517 -0.4117 -0.7867 -0.6807
   43MOL0     C 5571   2.012  11.392  -0.607  0.4922  0.1779  0.2771
   43MOL0     C 5572   1.905  11.318  -0.669 -0.3152 -1.0814  0.0534
   43MOL0     C 5573   1.817  11.385  -0.764 -0.4558  0.4621 -0.5637
   43MOL0     O 5574   1.826  11.511  -0.751 -0.1787 -0.5263  0.7914
   43MOL0     C 5575   1.746  11.583  -0.822  0.0020  0.3483  0.0815
   43MOL0     C 5576   1.686  11.695  -0.759 -0.0275 -0.0913 -0.2113
   43MOL0     C 5577   1.626  11.797  -0.840 -0.3979 -0.2716  0.1557
   43MOL0     C 5578   1.619  11.780  -0.978  0.7699 -0.3295  1.2001
   43MOL0     O 5579   1.551  11.871  -1.051 -0.3809  0.4033  0.0486
   43MOL0     C 5580   1.430  11.926  -0.988  0.2464 -0.5991  0.3930
   43MOL0     C 5581   1.313  11.919  -1.088 -0.1391 -0.9386 -0.3405
   43MOL0     C 5582   1.188  12.005  -1.037  0.0879  0.1113  0.1723
   43MOL0     C 5583   1.073  12.002  -1.143 -0.3648  0.2328  0.3319
   43MOL0     C 5584   0.949  12.092  -1.105 -0.3457  0.0914 -1.0605
   43MOL0     C 5585   0.919  12.095  -0.954 -0.4231 -0.0414  0.2693
   43MOL0     C 5586   0.787  12.166  -0.920  0.1028 -0.0899  0.7885
   43MOL0     C 5587   0.753  12.297  -0.992  0.2678  0.9186 -0.0388
   43MOL0    Cl 5588   0.897  12.399  -0.993  0.0228 -0.0738  0.4023
   43MOL0     C 5589   1.686  11.674  -1.041 -0.7761 -0.1490 -0.3898
   43MOL0     C 5590   1.760  11.581  -0.960  0.0191 -0.1695 -0.5325
   43MOL0     O 5591   1.727  11.323  -0.822  0.3307 -0.0937 -0.1812
   43MOL0     C 5592   1.905  11.174  -0.641  0.0655  0.2095 -0.4312
   43MOL0     C 5593   1.983  11.120  -0.542  0.6219  0.2778  0.3063
   43MOL0     N 5594   2.312  10.879   0.163  0.4156 -0.3085  0.8840
   43MOL0     N 5595   2.385  10.803   0.230  0.2677 -0.1182  0.3769
   43MOL0     C 5596   3.021  10.378   0.878 -0.9466  0.0598  0.5904
   43MOL0     C 5597   3.151  10.332   0.920  1.3386  0.4958  0.5167
   43MOL0     C 5598   3.528  10.294   1.206  0.6930 -0.6231  0.0232
   43MOL0     C 5599   3.583  10.218   1.104 -0.7294  0.0664 -1.1495
   43MOL0     C 5600   3.712  10.187   1.117 -0.4639 -0.3101  0.1599
   43MOL0     C 5601   3.794  10.216   1.229  1.3850  0.0931  0.9559
   43MOL0     O 5602   3.933  10.194   1.209  0.6311 -0.4248 -0.6627
   43MOL0     C 5603   3.989  10.146   1.330  0.0489 -0.3577 -0.5885
   43MOL0     C 5604   4.119  10.078   1.285  0.0628  0.1956  0.1198
   43MOL0     C 5605   4.209  10.170   1.212  0.4661  0.4567 -0.3372
   43MOL0     C 5606   4.335  10.096   1.178  0.1832  0.6520 -0.0051
   43MOL0     C 5607   4.310   9.994   1.077 -0.6447 -0.0270  0.0241
   43MOL0     C 5608   4.282   9.917   0.992  0.3144  0.7453  0.7303
   43MOL0     C 5609   3.733  10.295   1.324 -0.1851  0.3176 -0.6384
   43MOL0     C 5610   3.607  10.338   1.313  0.3734 -1.0709  0.2781
   43MOL0     H 5611   3.214  10.558   1.155  0.4924  1.4229 -1.3758
   43MOL0     H 5612   2.994  10.647   1.089  2.6193  0.0801  1.5238
   43MOL0     H 5613   2.785  10.654   1.059  2.2097 -0.3091 -0.3430
   43MOL0     H 5614   2.662  10.621   0.954  0.0416  0.4266  0.5009
   43MOL0     H 5615   2.915  10.794   0.892  0.3485 -1.3988  0.5864
   43MOL0     H 5616   2.752  10.855   0.945  1.0992 -0.8385  1.0648
   43MOL0     H 5617   2.648  10.792   0.758  0.0636 -2.0956 -3.8092
   43MOL0     H 5618   2.805  10.727   0.681 -0.6563 -2.2788  2.9376
   43MOL0     H 5619   2.698  11.008   0.701  0.0336  0.8767  0.3857
   43MOL0     H 5620   2.867  10.990   0.724 -0.1563  1.0459 -1.5276
   43MOL0     H 5621   2.900  10.885   0.507  0.5795  2.7721 -3.4136
   43MOL0     H 5622   2.838  11.032   0.496  2.3381  0.2447  0.2782
   43MOL0     H 5623   2.609  10.935   0.447  0.6648 -0.3873 -1.9933
   43MOL0     H 5624   2.650  10.780   0.512 -1.6605  1.0379  0.3315
   43MOL0     H 5625   2.785  10.871   0.256 -0.5334  0.2124  0.0810
   43MOL0     H 5626   2.818  10.720   0.335  0.7067  1.6863  1.9430
   43MOL0     H 5627   2.576  10.648   0.320  3.0798 -3.1530 -2.4949
   43MOL0     H 5628   2.658  10.663   0.175  1.6520 -0.1441  1.0651
   43MOL0     H 5629   2.618  10.939   0.052 -0.5044 -2.1171 -1.6414
   43MOL0     H 5630   2.475  11.126   0.009 -0.4829  1.4155 -4.0361
   43MOL0     H 5631   2.305  11.132   0.053  0.0925 -1.5667  0.9832
   43MOL0     H 5632   2.375  10.951  -0.177 -1.1239 -0.5084 -0.3692
   43MOL0     H 5633   2.392  11.124  -0.207  0.5383  0.8426  1.3969
   43MOL0     H 5634   2.120  11.002  -0.089 -0.8229 -1.1079 -0.7389
   43MOL0     H 5635   2.160  11.166  -0.130  3.0223  0.5171  1.0682
   43MOL0     H 5636   2.037  11.012  -0.303  0.5592  0.7041  1.0061
   43MOL0     H 5637   2.203  10.951  -0.340  4.3557  2.3300  0.4179
   43MOL0     H 5638   2.169  11.375  -0.457  1.7237 -2.1491 -2.1977
   43MOL0     H 5639   2.022  11.496  -0.638 -1.6649  0.1090 -0.8761
   43MOL0     H 5640   1.695  11.691  -0.651  2.5230  1.1640 -0.2923
   43MOL0     H 5641   1.600  11.880  -0.776 -1.3169  0.3921 -1.0522
   43MOL0     H 5642   1.451  12.030  -0.960 -2.1265 -0.0794  0.4505
   43MOL0     H 5643   1.392  11.878  -0.897 -3.9203  0.6681 -0.4824
   43MOL0     H 5644   1.296  11.812  -1.107 -0.8567 -0.5773 -2.0064
   43MOL0     H 5645   1.342  11.962  -1.184 -4.2901  3.0245 -0.1474
   43MOL0     H 5646   1.221  12.107  -1.016  1.8165  0.2238 -2.5833
   43MOL0     H 5647   1.145  11.959  -0.947 -0.5019  0.6930  0.1983
   43MOL0     H 5648   1.118  12.041  -1.234 -2.1731  1.2678 -0.1679
   43MOL0     H 5649   1.036  11.901  -1.163 -1.5111  1.0840 -2.2582
   43MOL0     H 5650   0.861  12.058  -1.160 -1.8546  1.3520  0.4507
   43MOL0     H 5651   0.958  12.195  -1.140 -1.0849  0.5428 -0.0091
   43MOL0     H 5652   1.002  12.143  -0.903 -2.3943  1.4060  2.2587
   43MOL0     H 5653   0.908  11.989  -0.927 -2.1006 -1.1854 -3.9506
   43MOL0     H 5654   0.702  12.101  -0.943 -0.7958  0.2867  2.8140
   43MOL0     H 5655   0.773  12.182  -0.812  0.2278 -1.2353  0.9914
   43MOL0     H 5656   0.675  12.335  -0.926  1.6280 -0.7757  2.7646
   43MOL0     H 5657   0.713  12.285  -1.093 -0.0620  1.5048  0.0197
   43MOL0     H 5658   1.683  11.670  -1.149  2.2187  2.3458 -0.7210
   43MOL0     H 5659   1.819  11.502  -1.005  0.2931 -0.6724  0.6834
   43MOL0     H 5660   1.839  11.105  -0.692  3.2226 -1.8488 -2.0516
   43MOL0     H 5661   1.975  11.017  -0.511 -1.3544  1.1655  3.2061
   43MOL0     H 5662   2.977  10.321   0.797  0.6473 -0.7188  0.2323
   43MOL0     H 5663   3.197  10.245   0.874 -0.4770 -1.9639  3.0811
   43MOL0     H 5664   3.527  10.182   1.018  1.2063  0.2677 -2.5590
   43MOL0     H 5665   3.760  10.134   1.035  3.4100  1.6655  0.9342
   43MOL0     H 5666   3.924  10.069   1.372  1.1724 -1.0968 -0.1413
   43MOL0     H 5667   3.994  10.225   1.404 -0.8111 -0.8850  0.0461
   43MOL0     H 5668   4.182  10.024   1.356  3.0170  2.2911 -0.7230
   43MOL0     H 5669   4.070  10.002   1.223 -0.4596  0.4253  0.2425
   43MOL0     H 5670   4.232  10.248   1.285 -0.5637 -0.2247  0.7737
   43MOL0     H 5671   4.160  10.222   1.129  1.3264 -0.5532 -1.5138
   43MOL0     H 5672   4.398  10.174   1.133  2.4147  0.1865  2.0658
   43MOL0     H 5673   4.392  10.062   1.265 -0.5407  0.2250  0.3114
   43MOL0     H 5674   4.235   9.877   0.904  2.2374  3.1221 -1.5179
   43MOL0     H 5675   3.801  10.325   1.403 -1.0582  2.3503 -0.5985
   43MOL0     H 5676   3.551  10.377   1.398 -1.3787 -0.2244 -1.2012
   44MOL0     O 5677   9.283   2.033   2.039  0.0283 -0.7296  0.5349
   44MOL0     C 5678   9.257   2.114   1.941  0.2691 -0.3491 -0.4987
   44MOL0     O 5679   9.131   2.176   1.924  0.2540  0.5910 -0.7570
   44MOL0     C 5680   9.040   2.162   2.024  0.2196 -0.2712  0.3693
   44MOL0     C 5681   8.926   2.085   2.016  0.2387  0.0465  0.4460
   44MOL0     C 5682   8.827   2.081   2.118 -0.0833 -0.1708 -0.1511
   44MOL0     C 5683   8.842   2.158   2.231 -0.0099  0.1891 -0.8618
   44MOL0     O 5684   8.752   2.152   2.335 -0.5103  0.1510 -0.0805
   44MOL0     C 5685   8.766   2.228   2.455  0.2715  0.1936 -0.5962
   44MOL0     C 5686   8.658   2.192   2.551 -1.0429 -0.6952  0.1063
   44MOL0     C 5687   8.509   2.230   2.505 -1.3765  0.2016  0.3498
   44MOL0     C 5688   8.446   2.130   2.405  1.1795 -0.2124 -0.0104
   44MOL0     C 5689   8.296   2.155   2.395 -0.1733 -0.2790  0.3245
   44MOL0     C 5690   8.233   2.075   2.278  0.8626 -1.0253  0.7657
   44MOL0     C 5691   8.074   2.086   2.289 -0.4315 -0.2490 -0.1907
   44MOL0     C 5692   8.029   2.229   2.257 -0.0852 -0.3562 -0.3379
   44MOL0     N 5693   7.889   2.261   2.283  0.1402  0.1818  0.6392
   44MOL0     C 5694   7.793   2.247   2.184 -0.2872 -0.9828  0.4103
   44MOL0     C 5695   7.693   2.333   2.231 -0.1015  0.3302 -0.0946
   44MOL0     C 5696   7.552   2.348   2.173  0.5849 -0.0281  0.1406
   44MOL0     C 5697   7.465   2.221   2.214  0.1048  0.0776  0.5849
   44MOL0     C 5698   7.376   2.152   2.110 -0.4234  0.7795 -0.0210
   44MOL0     C 5699   7.288   2.050   2.175  0.4271  0.0874 -0.1912
   44MOL0     O 5700   7.185   2.005   2.083  0.1782 -0.2491 -0.0783
   44MOL0     C 5701   7.099   1.899   2.116 -0.1999 -0.4375 -0.1130
   44MOL0     C 5702   7.121   1.809   2.221  0.5669  0.5164  0.6195
   44MOL0     C 5703   7.019   1.725   2.259  0.3861 -0.6179  0.2465
   44MOL0     C 5704   6.913   1.695   2.172  0.1633  0.2804 -0.5701
   44MOL0     C 5705   6.825   1.575   2.170  1.0328  0.0943  0.7321
   44MOL0     O 5706   6.706   1.600   2.118  0.7461 -0.3409  0.5557
   44MOL0     C 5707   6.605   1.503   2.124  0.0527 -0.2571 -0.0037
   44MOL0     C 5708   6.531   1.487   2.243 -0.1265 -0.1822 -0.2172
   44MOL0     C 5709   6.434   1.389   2.251  0.5784  0.0255 -0.5115
   44MOL0     C 5710   6.390   1.319   2.132  0.0418 -1.4808 -0.1684
   44MOL0     O 5711   6.289   1.220   2.121  0.5961 -1.1128  0.4733
   44MOL0     C 5712   6.205   1.203   2.230 -0.0436 -0.0147 -0.1798
   44MOL0     C 5713   6.247   1.075   2.310 -0.3487 -0.1544  0.4967
   44MOL0     C 5714   6.144   1.015   2.390 -0.4185  0.7602  0.6285
   44MOL0     C 5715   6.018   0.966   2.319 -0.4360 -0.7214 -0.0325
   44MOL0     C 5716   5.910   0.901   2.407 -0.3850  0.1098  0.1095
   44MOL0     C 5717   5.805   0.827   2.318  0.1769 -1.1317 -0.2750
   44MOL0     C 5718   5.696   0.742   2.387  0.1121  0.0269 -1.0007
   44MOL0     C 5719   5.588   0.694   2.294 -0.8604  0.1710 -0.5689
   44MOL0    Cl 5720   5.505   0.836   2.222  0.1796 -0.2057  0.4162
   44MOL0     C 5721   6.459   1.352   2.009  0.5120 -0.1757 -0.1036
   44MOL0     C 5722   6.572   1.438   2.008  0.0564  0.0830 -0.5477
   44MOL0     O 5723   6.857   1.472   2.227  0.8611 -0.1516 -0.0234
   44MOL0     C 5724   6.892   1.785   2.063 -0.0807  0.2869  0.3017
   44MOL0     C 5725   6.988   1.884   2.032 -1.1055  0.8627  0.2647
   44MOL0     N 5726   7.743   2.402   2.344  0.1123  0.4844  0.3801
   44MOL0     N 5727   7.859   2.354   2.368 -0.0284  0.5943 -0.4885
   44MOL0     C 5728   8.959   2.241   2.237  0.4896  0.2117  0.3674
   44MOL0     C 5729   9.052   2.236   2.137 -0.8318 -0.3773 -0.5461
   44MOL0     C 5730   9.359   2.136   1.840 -0.6715  0.2260  0.0595
   44MOL0     C 5731   9.437   2.035   1.789 -0.7535  0.6928 -0.7031
   44MOL0     C 5732   9.546   2.070   1.701 -0.2739  0.1012 -0.3491
   44MOL0     C 5733   9.568   2.196   1.652  0.2360  0.2398  0.4055
   44MOL0     O 5734   9.686   2.209   1.573  0.7430 -0.7300 -0.2510
   44MOL0     C 5735   9.709   2.343   1.525 -0.0228  0.5359  0.2642
   44MOL0     C 5736   9.814   2.413   1.602 -0.6633  0.1251 -0.3965
   44MOL0     C 5737   9.954   2.364   1.569 -0.1969  0.5089 -0.3409
   44MOL0     C 5738  10.005   2.257   1.662 -0.0140  0.7509  0.3863
   44MOL0     C 5739  10.144   2.227   1.634  0.0617 -0.0454 -0.1502
   44MOL0     C 5740  10.263   2.210   1.613 -0.4647  0.2110  0.3168
   44MOL0     C 5741   9.485   2.295   1.701  0.6532 -0.0962  0.7599
   44MOL0     C 5742   9.373   2.265   1.785  0.3339 -0.4150  1.0669
   44MOL0     H 5743   8.906   2.022   1.930 -3.8858  2.7894 -0.9131
   44MOL0     H 5744   8.739   2.019   2.103 -0.1901  0.4147 -2.2986
   44MOL0     H 5745   8.778   2.333   2.424  3.9492  0.0444 -0.1294
   44MOL0     H 5746   8.865   2.200   2.492  0.8882  2.7142 -0.1285
   44MOL0     H 5747   8.687   2.243   2.643  2.2144  1.3869 -1.8670
   44MOL0     H 5748   8.673   2.085   2.565  2.2798 -0.0179  2.7912
   44MOL0     H 5749   8.501   2.332   2.465 -1.4529 -0.9704 -2.9989
   44MOL0     H 5750   8.450   2.226   2.597  0.5983 -1.3098  1.6133
   44MOL0     H 5751   8.484   2.147   2.304  2.0277  2.4963  0.6620
   44MOL0     H 5752   8.463   2.026   2.434  2.1308  0.5622  2.4373
   44MOL0     H 5753   8.277   2.261   2.375 -1.5049 -0.9481 -2.4569
   44MOL0     H 5754   8.254   2.128   2.493 -0.9258  0.0965  0.1170
   44MOL0     H 5755   8.272   1.973   2.281  2.5802 -0.4531 -0.5134
   44MOL0     H 5756   8.261   2.103   2.176  1.0378 -0.1669  1.0446
   44MOL0     H 5757   8.022   2.023   2.216  0.5061  0.7057 -1.7230
   44MOL0     H 5758   8.054   2.049   2.390 -0.1733  0.4061  0.1045
   44MOL0     H 5759   8.049   2.251   2.151 -2.2662  2.8410 -0.2499
   44MOL0     H 5760   8.081   2.301   2.320 -3.5798  0.8684  1.4168
   44MOL0     H 5761   7.789   2.176   2.102 -3.1237 -0.1649 -0.2732
   44MOL0     H 5762   7.545   2.352   2.064 -0.4490 -0.9835  0.1481
   44MOL0     H 5763   7.510   2.442   2.210 -0.8964  0.2471 -2.0187
   44MOL0     H 5764   7.398   2.239   2.298 -2.0290  2.1582 -1.4107
   44MOL0     H 5765   7.537   2.141   2.229 -0.3659 -1.0076 -2.2330
   44MOL0     H 5766   7.314   2.221   2.053 -1.2498 -1.6014 -2.1942
   44MOL0     H 5767   7.429   2.104   2.027  0.1081  2.4558 -0.6977
   44MOL0     H 5768   7.253   2.072   2.277  2.4994  0.4287  0.4985
   44MOL0     H 5769   7.348   1.961   2.198 -2.2186 -1.3543  1.7293
   44MOL0     H 5770   7.212   1.803   2.279  0.4501  0.9737  0.8588
   44MOL0     H 5771   7.039   1.656   2.340  1.0284  0.1449  0.7667
   44MOL0     H 5772   6.568   1.528   2.336 -0.8737 -1.2732  0.5797
   44MOL0     H 5773   6.386   1.368   2.346  1.9414 -0.8930  0.0026
   44MOL0     H 5774   6.103   1.189   2.195  0.0379 -0.9596 -0.0675
   44MOL0     H 5775   6.201   1.291   2.295 -1.7821  0.2367 -0.5818
   44MOL0     H 5776   6.335   1.108   2.367  1.1477 -0.5193 -1.4918
   44MOL0     H 5777   6.284   1.002   2.238 -0.4500  0.2659  0.0147
   44MOL0     H 5778   6.120   1.087   2.469  2.1102  1.7334  0.5986
   44MOL0     H 5779   6.189   0.927   2.436  1.2514  0.9015 -0.6604
   44MOL0     H 5780   5.969   1.039   2.255  0.7933  1.9330  1.8826
   44MOL0     H 5781   6.055   0.889   2.250 -0.9572 -0.4653 -0.6059
   44MOL0     H 5782   5.867   0.978   2.473 -2.8527 -0.5065 -0.6662
   44MOL0     H 5783   5.962   0.834   2.476 -2.3268 -0.1864  1.3554
   44MOL0     H 5784   5.860   0.757   2.255  1.9765  0.2017 -0.2923
   44MOL0     H 5785   5.758   0.893   2.245 -0.6331 -2.0350 -0.5796
   44MOL0     H 5786   5.743   0.653   2.429  1.5225  0.8535 -0.7482
   44MOL0     H 5787   5.649   0.790   2.473  0.9901 -0.4918 -0.2174
   44MOL0     H 5788   5.517   0.624   2.337 -1.9008  0.0480 -2.3783
   44MOL0     H 5789   5.629   0.637   2.210 -1.5631 -1.2098 -0.0003
   44MOL0     H 5790   6.425   1.294   1.924  1.2479 -0.2269 -0.3695
   44MOL0     H 5791   6.645   1.444   1.928 -0.1190  0.2466 -0.6934
   44MOL0     H 5792   6.805   1.781   1.999 -0.8515  0.9045  1.2835
   44MOL0     H 5793   6.979   1.933   1.936 -1.9253 -1.8453 -1.1459
   44MOL0     H 5794   8.969   2.320   2.311 -1.1687  0.3465  0.4974
   44MOL0     H 5795   9.130   2.311   2.130  3.0687 -3.7082  1.8513
   44MOL0     H 5796   9.427   1.938   1.836  0.9282 -0.2212 -2.1095
   44MOL0     H 5797   9.612   1.988   1.671  0.8795  0.6963  0.4991
   44MOL0     H 5798   9.627   2.413   1.506 -1.1112 -0.7637  0.0945
   44MOL0     H 5799   9.744   2.333   1.422 -0.4815 -0.5931  0.2108
   44MOL0     H 5800   9.800   2.518   1.574 -0.5887  1.0144  2.6312
   44MOL0     H 5801   9.794   2.394   1.708  0.9706  0.9915  0.0886
   44MOL0     H 5802  10.008   2.460   1.570 -0.2624  0.5829  1.8606
   44MOL0     H 5803   9.964   2.337   1.464  1.1657 -4.5723  0.8455
   44MOL0     H 5804  10.001   2.276   1.769 -1.6100 -2.9057  1.1262
   44MOL0     H 5805   9.949   2.164   1.644  0.4941  0.8581 -2.2468
   44MOL0     H 5806  10.369   2.200   1.600 -0.5959 -0.7258 -0.1016
   44MOL0     H 5807   9.508   2.399   1.681 -0.7557 -0.0124 -0.6057
   44MOL0     H 5808   9.315   2.352   1.814 -0.5949 -0.1009 -1.4495
   45MOL0     O 5809   5.464   9.384   6.242 -0.8844 -0.6510 -0.0439
   45MOL0     C 5810   5.567   9.394   6.167  0.2482  0.5237 -0.2902
   45MOL0     O 5811   5.570   9.474   6.051  0.5656 -0.0428  0.0927
   45MOL0     C 5812   5.446   9.533   6.010 -0.8063 -0.4666 -0.6970
   45MOL0     C 5813   5.445   9.669   5.969  0.5206 -0.5712 -0.3313
   45MOL0     C 5814   5.350   9.717   5.884  0.6028 -0.2272 -0.3543
   45MOL0     C 5815   5.231   9.647   5.862 -0.2970  0.1430 -0.4781
   45MOL0     O 5816   5.148   9.697   5.777  0.1874 -0.5053  0.8415
   45MOL0     C 5817   5.017   9.640   5.745  1.0995 -0.6608 -0.7057
   45MOL0     C 5818   4.912   9.680   5.854  0.1086 -0.5016 -0.3271
   45MOL0     C 5819   4.775   9.636   5.822  0.2824  0.2061 -1.3259
   45MOL0     C 5820   4.694   9.703   5.714 -0.3565  0.0846  0.1636
   45MOL0     C 5821   4.556   9.630   5.702 -0.7068 -0.6069 -0.0686
   45MOL0     C 5822   4.457   9.699   5.600  0.4714  0.5553 -0.2388
   45MOL0     C 5823   4.447   9.852   5.615  0.2378  0.2949  0.2130
   45MOL0     C 5824   4.402   9.907   5.744 -0.7778  0.1931 -0.9393
   45MOL0     N 5825   4.428  10.059   5.747 -0.1246  1.0186 -0.5190
   45MOL0     C 5826   4.331  10.147   5.786  0.2872  0.4958 -0.0081
   45MOL0     C 5827   4.389  10.268   5.769 -0.2015 -0.6673 -0.4241
   45MOL0     C 5828   4.324  10.403   5.778 -0.3590  0.2105 -0.6974
   45MOL0     C 5829   4.302  10.465   5.646 -0.9158  0.6580 -0.0102
   45MOL0     C 5830   4.245  10.599   5.665  0.5355 -0.4243 -0.6445
   45MOL0     C 5831   4.106  10.608   5.726 -0.5540 -0.0258  0.4355
   45MOL0     O 5832   4.032  10.506   5.666  0.1431  0.2182  0.0349
   45MOL0     C 5833   3.901  10.495   5.696 -0.1688  0.4289  0.8244
   45MOL0     C 5834   3.847  10.504   5.826 -0.0546  0.0446 -0.0384
   45MOL0     C 5835   3.713  10.498   5.844  0.0088 -0.3212 -0.0054
   45MOL0     C 5836   3.634  10.447   5.740  0.5695  0.5478  0.1759
   45MOL0     C 5837   3.484  10.420   5.757  0.4530 -0.3637 -0.0538
   45MOL0     O 5838   3.409  10.395   5.644 -0.3529 -0.5687 -0.2925
   45MOL0     C 5839   3.278  10.347   5.662  0.0774 -0.6396 -0.2133
   45MOL0     C 5840   3.178  10.411   5.741  0.0264  0.6737 -1.1578
   45MOL0     C 5841   3.041  10.361   5.722  0.3971 -0.4540 -0.5644
   45MOL0     C 5842   3.008  10.252   5.639  0.6548 -0.2961  0.2289
   45MOL0     O 5843   2.880  10.228   5.617 -0.1548  0.0515  0.2167
   45MOL0     C 5844   2.834  10.145   5.514  0.3831 -0.8326 -0.3129
   45MOL0     C 5845   2.684  10.170   5.502 -0.8822  0.0861  0.0715
   45MOL0     C 5846   2.609  10.161   5.630 -0.1458 -0.3795 -0.6996
   45MOL0     C 5847   2.465  10.228   5.634 -1.9242  0.2385  0.4257
   45MOL0     C 5848   2.374  10.165   5.535  0.4994  0.6127  0.3222
   45MOL0     C 5849   2.325  10.033   5.584 -0.1416 -0.5850 -0.3260
   45MOL0     C 5850   2.189   9.989   5.528  0.7718  0.4484  1.0927
   45MOL0     C 5851   2.058  10.019   5.617  0.6467 -0.4100  0.0882
   45MOL0    Cl 5852   1.960  10.148   5.548 -0.5075  0.1796 -0.0932
   45MOL0     C 5853   3.113  10.188   5.570 -0.3533 -0.6278  0.6808
   45MOL0     C 5854   3.242  10.235   5.579 -0.0292 -0.7383 -1.4788
   45MOL0     O 5855   3.437  10.420   5.879  0.1529 -0.1005  0.0038
   45MOL0     C 5856   3.684  10.429   5.614 -0.0372  0.1508  0.1057
   45MOL0     C 5857   3.818  10.453   5.588 -0.3612  0.1376  0.5168
   45MOL0     N 5858   4.528  10.246   5.744  0.0785 -0.0198  0.0327
   45MOL0     N 5859   4.544  10.126   5.731  0.9933  1.4220  0.7989
   45MOL0     C 5860   5.221   9.513   5.904  0.5028 -1.0081 -1.3068
   45MOL0     C 5861   5.323   9.460   5.982  0.8974 -0.7665  0.3950
   45MOL0     C 5862   5.684   9.322   6.202  0.4797  0.2585 -0.3560
   45MOL0     C 5863   5.807   9.334   6.136 -0.3126 -0.4178 -0.6021
   45MOL0     C 5864   5.927   9.271   6.180 -0.3797 -1.0064 -0.2830
   45MOL0     C 5865   5.928   9.198   6.300 -0.3281  1.1131  0.1207
   45MOL0     O 5866   6.028   9.138   6.365  0.0173 -0.1574 -0.2109
   45MOL0     C 5867   6.162   9.171   6.323 -0.1219 -0.0951  0.1361
   45MOL0     C 5868   6.260   9.125   6.433  0.4804  1.0731  0.0092
   45MOL0     C 5869   6.390   9.200   6.456 -0.0783 -0.2129 -0.5406
   45MOL0     C 5870   6.478   9.126   6.561  0.6920 -0.4964  0.1965
   45MOL0     C 5871   6.589   9.218   6.590 -0.4481 -1.2388  0.2566
   45MOL0     C 5872   6.663   9.314   6.605 -0.0246  0.0746 -0.4420
   45MOL0     C 5873   5.805   9.185   6.364  0.5107 -0.5427  0.2761
   45MOL0     C 5874   5.689   9.238   6.311  0.8110  0.0391 -0.2466
   45MOL0     H 5875   5.528   9.733   5.997 -1.1083  0.7289  1.7766
   45MOL0     H 5876   5.349   9.816   5.840 -2.5172 -0.0079 -0.0410
   45MOL0     H 5877   5.017   9.531   5.740 -4.5165 -1.1000  1.6482
   45MOL0     H 5878   4.985   9.692   5.655 -0.0837  2.6420  1.4099
   45MOL0     H 5879   4.914   9.789   5.859 -1.5422 -0.4455 -0.1716
   45MOL0     H 5880   4.944   9.634   5.948  0.2993 -0.7926 -0.5333
   45MOL0     H 5881   4.721   9.637   5.917  1.5493  2.4701 -0.5503
   45MOL0     H 5882   4.783   9.530   5.797  0.8706  0.3821 -1.9225
   45MOL0     H 5883   4.678   9.802   5.757 -1.5539 -0.3184  0.7086
   45MOL0     H 5884   4.742   9.700   5.616 -1.4559 -1.6602 -0.3771
   45MOL0     H 5885   4.521   9.627   5.806  0.0760 -0.5267  0.2048
   45MOL0     H 5886   4.572   9.528   5.666  1.5672  0.2876 -1.8830
   45MOL0     H 5887   4.356   9.660   5.613  0.9505 -0.0678  2.1002
   45MOL0     H 5888   4.484   9.679   5.496  1.2067 -1.8568  0.3572
   45MOL0     H 5889   4.543   9.898   5.589 -0.6733  2.2702  0.1381
   45MOL0     H 5890   4.366   9.887   5.549 -1.1064  1.1548  2.2237
   45MOL0     H 5891   4.474   9.874   5.819  0.3480  3.8651 -0.2110
   45MOL0     H 5892   4.299   9.884   5.775 -0.3880  1.3553  1.4454
   45MOL0     H 5893   4.228  10.126   5.811  0.5049 -0.9402 -0.2361
   45MOL0     H 5894   4.397  10.464   5.832  0.0296 -2.1185  1.6193
   45MOL0     H 5895   4.232  10.391   5.837  0.0409  0.3152 -0.0431
   45MOL0     H 5896   4.236  10.401   5.589  1.1649 -2.3902  0.7644
   45MOL0     H 5897   4.397  10.462   5.592 -0.6133  1.1030  0.4790
   45MOL0     H 5898   4.315  10.657   5.725  0.6554 -1.9846  0.7981
   45MOL0     H 5899   4.225  10.646   5.568 -1.3634  0.6051  0.1962
   45MOL0     H 5900   4.055  10.700   5.695 -0.2425 -0.0716 -0.2463
   45MOL0     H 5901   4.112  10.612   5.835 -1.2481 -0.9916  0.5265
   45MOL0     H 5902   3.910  10.532   5.910  1.6141 -3.8572  0.2107
   45MOL0     H 5903   3.676  10.526   5.943 -0.3931 -0.1146 -0.2113
   45MOL0     H 5904   3.203  10.495   5.804  1.2299  1.0518 -2.0998
   45MOL0     H 5905   2.961  10.417   5.769 -0.2414 -1.1590 -0.7707
   45MOL0     H 5906   2.849  10.043   5.549  0.4370 -1.0373 -0.9235
   45MOL0     H 5907   2.877  10.173   5.417 -1.5646  1.8726 -0.5162
   45MOL0     H 5908   2.637  10.097   5.436  0.3972  0.1525 -0.9434
   45MOL0     H 5909   2.664  10.266   5.453  0.2254  0.5133  0.4195
   45MOL0     H 5910   2.665  10.206   5.712 -0.1977 -0.3914 -0.6577
   45MOL0     H 5911   2.600  10.056   5.658  0.5625 -0.6454 -1.4531
   45MOL0     H 5912   2.432  10.221   5.738  2.0210 -0.0949  1.8070
   45MOL0     H 5913   2.474  10.334   5.607  1.3113 -0.4300 -1.6970
   45MOL0     H 5914   2.419  10.152   5.437  0.9493 -1.8597  0.7814
   45MOL0     H 5915   2.292  10.235   5.518  1.0151  1.5014  1.3854
   45MOL0     H 5916   2.311  10.037   5.692  0.8174 -0.6906 -0.1895
   45MOL0     H 5917   2.405   9.963   5.557 -0.2452  0.4378 -3.7820
   45MOL0     H 5918   2.163  10.024   5.428 -1.2865 -0.3543  1.2907
   45MOL0     H 5919   2.200   9.881   5.516  3.5956  0.7791  0.0264
   45MOL0     H 5920   2.099  10.048   5.714 -2.3851  0.4901  1.2404
   45MOL0     H 5921   1.996   9.929   5.620  0.1649 -0.2569 -2.5094
   45MOL0     H 5922   3.102  10.091   5.524  0.0716  0.6925 -2.5218
   45MOL0     H 5923   3.324  10.186   5.528  1.1473 -0.9746  0.5212
   45MOL0     H 5924   3.627  10.394   5.528  3.8388 -0.9466 -2.3065
   45MOL0     H 5925   3.872  10.431   5.496  1.0314  0.0583  1.3230
   45MOL0     H 5926   5.129   9.461   5.882 -2.5522  3.2525 -0.0286
   45MOL0     H 5927   5.324   9.353   6.000  0.0196 -1.4256 -2.8650
   45MOL0     H 5928   5.811   9.374   6.035 -2.0669  0.1062 -0.4834
   45MOL0     H 5929   6.022   9.272   6.127 -0.7274  1.4136 -0.9831
   45MOL0     H 5930   6.171   9.280   6.326 -0.7543 -0.0407  3.0137
   45MOL0     H 5931   6.205   9.128   6.231  2.7684 -1.3435  1.9304
   45MOL0     H 5932   6.198   9.113   6.523  1.9441 -3.3403  0.6704
   45MOL0     H 5933   6.282   9.021   6.408  0.7203  1.2400 -0.4692
   45MOL0     H 5934   6.365   9.299   6.496 -1.3171 -0.4165 -0.7757
   45MOL0     H 5935   6.454   9.210   6.368  0.0937 -1.7576 -0.6170
   45MOL0     H 5936   6.428   9.097   6.653 -2.5955  1.2011 -0.8891
   45MOL0     H 5937   6.527   9.036   6.521 -1.5979 -2.3667  1.3545
   45MOL0     H 5938   6.741   9.387   6.614 -1.0106  1.9954 -4.8276
   45MOL0     H 5939   5.800   9.133   6.460  2.9012 -1.2054  0.0988
   45MOL0     H 5940   5.599   9.223   6.369  1.4234  1.6002  1.2049
   46MOL0     O 5941   2.589   9.691   6.704  0.5401 -0.0595  0.3405
   46MOL0     C 5942   2.689   9.625   6.732  0.1642 -0.0920 -0.2223
   46MOL0     O 5943   2.698   9.496   6.750 -0.2967  0.2542 -0.8812
   46MOL0     C 5944   2.591   9.416   6.734 -1.1266  0.2043  0.6666
   46MOL0     C 5945   2.575   9.331   6.620  0.2948  0.2356  0.2286
   46MOL0     C 5946   2.458   9.251   6.609 -0.1707 -0.5515  0.7417
   46MOL0     C 5947   2.362   9.258   6.706  0.9077  0.4237 -0.2099
   46MOL0     O 5948   2.248   9.188   6.681  0.4993 -0.0906  0.0540
   46MOL0     C 5949   2.126   9.251   6.719 -0.4526 -0.2701  0.3798
   46MOL0     C 5950   2.010   9.177   6.651  0.1516  0.7557  0.0319
   46MOL0     C 5951   1.998   9.027   6.682 -0.0836  0.6756  0.4384
   46MOL0     C 5952   1.966   9.013   6.823 -0.1446  0.0539 -0.1564
   46MOL0     C 5953   1.912   8.877   6.865 -0.1447  0.1607 -0.1882
   46MOL0     C 5954   1.889   8.859   7.015 -0.6336 -0.4433  0.2269
   46MOL0     C 5955   1.795   8.754   7.046 -0.4664 -0.1949 -0.6799
   46MOL0     C 5956   1.650   8.806   7.037  1.0767 -0.2294  0.4320
   46MOL0     N 5957   1.550   8.707   7.059 -0.5447  0.0230 -0.4909
   46MOL0     C 5958   1.552   8.631   7.169  0.3245  0.8639 -0.0609
   46MOL0     C 5959   1.434   8.561   7.161  0.4486  0.4281 -0.7288
   46MOL0     C 5960   1.379   8.457   7.262  0.1148 -0.2963  0.5330
   46MOL0     C 5961   1.227   8.442   7.265  0.0861 -0.1664  0.2201
   46MOL0     C 5962   1.195   8.336   7.376  1.2957 -1.1079 -0.3776
   46MOL0     C 5963   1.040   8.300   7.367 -0.2671  0.3848  0.9097
   46MOL0     O 5964   0.952   8.403   7.394 -0.4000  0.7098 -0.4196
   46MOL0     C 5965   0.820   8.368   7.382  0.1277  0.0976  1.0135
   46MOL0     C 5966   0.746   8.318   7.489  0.1223 -0.3839 -0.2699
   46MOL0     C 5967   0.607   8.285   7.476 -0.1476  0.2329  0.2102
   46MOL0     C 5968   0.551   8.285   7.345 -0.4673  0.4856 -0.1123
   46MOL0     C 5969   0.415   8.240   7.317  0.2277 -0.1721  0.3302
   46MOL0     O 5970   0.331   8.186   7.416  0.1114  0.0756  0.3563
   46MOL0     C 5971   0.200   8.150   7.390 -0.2823  0.9893  0.4295
   46MOL0     C 5972   0.150   8.106   7.268  0.1535  0.1128  0.5922
   46MOL0     C 5973   0.014   8.066   7.252 -0.1070  0.0106 -0.0832
   46MOL0     C 5974  -0.078   8.070   7.353 -0.1908 -0.0297  0.0858
   46MOL0     O 5975  -0.211   8.029   7.344 -0.7854 -0.4992 -0.0716
   46MOL0     C 5976  -0.239   7.945   7.231  0.3132 -0.2837  0.3489
   46MOL0     C 5977  -0.390   7.905   7.233  0.5332  0.2205  0.0814
   46MOL0     C 5978  -0.495   8.017   7.262  0.1643 -0.2556  0.2331
   46MOL0     C 5979  -0.632   7.974   7.228  0.0357  0.3028 -0.3614
   46MOL0     C 5980  -0.729   8.067   7.288  1.0881  0.4661  0.1551
   46MOL0     C 5981  -0.865   8.033   7.229  0.1085  0.0307  0.1715
   46MOL0     C 5982  -0.975   8.133   7.256 -0.0888 -1.3974  0.6118
   46MOL0     C 5983  -1.011   8.152   7.402 -0.6870 -0.0354 -0.3694
   46MOL0    Cl 5984  -1.078   8.007   7.484 -0.1285 -0.2562  0.3452
   46MOL0     C 5985  -0.030   8.123   7.476  0.4701  0.4152 -0.3714
   46MOL0     C 5986   0.106   8.163   7.486  0.3334 -0.3832  1.1906
   46MOL0     O 5987   0.377   8.257   7.199  0.8214  0.1183 -1.0955
   46MOL0     C 5988   0.636   8.322   7.238  0.0659 -1.0004  0.0223
   46MOL0     C 5989   0.770   8.366   7.257  0.9864 -0.2683  0.2523
   46MOL0     N 5990   1.380   8.586   7.033  0.1358  1.0401  0.3209
   46MOL0     N 5991   1.456   8.667   6.979  0.0089 -0.1062  0.8031
   46MOL0     C 5992   2.379   9.327   6.831  0.2323 -0.3241  0.2088
   46MOL0     C 5993   2.494   9.410   6.837  0.0047  0.7305 -0.4841
   46MOL0     C 5994   2.808   9.701   6.760 -0.8306 -0.8237  0.6145
   46MOL0     C 5995   2.936   9.644   6.762  0.4080  0.3610 -0.2244
   46MOL0     C 5996   3.046   9.717   6.808  0.3622  0.4440 -0.5597
   46MOL0     C 5997   3.036   9.854   6.835  0.0289 -1.0532 -0.5509
   46MOL0     O 5998   3.130   9.940   6.887 -0.2653 -0.1103  0.3849
   46MOL0     C 5999   3.257   9.889   6.914  0.3682  0.3124 -0.1492
   46MOL0     C 6000   3.360   9.989   6.869  0.5350  0.4491 -0.6970
   46MOL0     C 6001   3.500   9.929   6.895 -0.4429 -0.0734 -0.5701
   46MOL0     C 6002   3.603  10.034   6.873 -0.1201 -0.0799  0.2999
   46MOL0     C 6003   3.646  10.055   6.735  0.2133  0.0916 -0.0395
   46MOL0     C 6004   3.678  10.045   6.621 -0.0878 -0.2315 -0.3063
   46MOL0     C 6005   2.906   9.911   6.820  0.1268  0.4011  0.0130
   46MOL0     C 6006   2.794   9.836   6.796 -0.5665 -0.6199  1.0550
   46MOL0     H 6007   2.655   9.316   6.548  2.0192 -0.7757  2.2350
   46MOL0     H 6008   2.452   9.186   6.522  0.0856 -0.1198  0.3907
   46MOL0     H 6009   2.146   9.350   6.678 -1.5590 -0.2285 -0.0683
   46MOL0     H 6010   2.122   9.259   6.828  0.2975  3.0069  0.2679
   46MOL0     H 6011   2.018   9.172   6.542  2.7276 -3.5634  0.1649
   46MOL0     H 6012   1.920   9.237   6.666  0.2282  0.5234  1.5942
   46MOL0     H 6013   2.092   8.976   6.656 -1.3821 -0.5993 -2.2274
   46MOL0     H 6014   1.926   8.984   6.611  1.0687 -0.2907 -0.1833
   46MOL0     H 6015   2.054   9.031   6.886 -0.9727  0.3352  0.9631
   46MOL0     H 6016   1.889   9.085   6.852  0.7998  1.2146 -0.4154
   46MOL0     H 6017   1.978   8.800   6.825  1.5876  2.7950 -2.8244
   46MOL0     H 6018   1.818   8.873   6.810  1.8966 -2.0996 -3.9795
   46MOL0     H 6019   1.842   8.953   7.045  0.9766 -0.0012  1.4539
   46MOL0     H 6020   1.983   8.851   7.070  0.4410 -0.1424 -1.4933
   46MOL0     H 6021   1.797   8.670   6.975  0.1244 -1.8261  1.1562
   46MOL0     H 6022   1.824   8.707   7.141  3.7443 -1.9814 -2.5561
   46MOL0     H 6023   1.637   8.836   6.932 -1.6279 -0.3662  0.6783
   46MOL0     H 6024   1.635   8.896   7.097 -0.3116 -0.8911  1.1083
   46MOL0     H 6025   1.632   8.632   7.242  1.7496 -3.6188 -1.2124
   46MOL0     H 6026   1.403   8.492   7.363 -0.7257  1.8402  0.0469
   46MOL0     H 6027   1.426   8.359   7.251  0.4667 -0.0116 -0.5839
   46MOL0     H 6028   1.196   8.403   7.168 -2.1771  3.7606 -0.8382
   46MOL0     H 6029   1.178   8.536   7.293  1.6967  0.0815  2.5803
   46MOL0     H 6030   1.245   8.240   7.366 -0.4362 -1.8566 -2.6714
   46MOL0     H 6031   1.220   8.384   7.471  1.1881  4.0979 -2.6446
   46MOL0     H 6032   1.019   8.218   7.436 -2.1655 -0.5545 -0.7094
   46MOL0     H 6033   1.031   8.263   7.265 -0.5282  1.7434  0.4143
   46MOL0     H 6034   0.775   8.334   7.593 -3.2907  2.8842  0.3723
   46MOL0     H 6035   0.553   8.260   7.566  1.9670 -3.5744  0.6427
   46MOL0     H 6036   0.211   8.080   7.182 -1.2069  0.6449 -0.5809
   46MOL0     H 6037  -0.008   8.025   7.154 -1.3537 -1.8852  0.9311
   46MOL0     H 6038  -0.177   7.856   7.223 -2.2704 -2.1533 -0.5933
   46MOL0     H 6039  -0.237   7.994   7.133 -3.3278 -0.2076  0.1532
   46MOL0     H 6040  -0.406   7.834   7.315  1.9632 -0.6954 -0.3998
   46MOL0     H 6041  -0.430   7.857   7.143 -1.5385 -1.7095  1.8918
   46MOL0     H 6042  -0.478   8.101   7.194 -1.1573 -0.9150 -0.9565
   46MOL0     H 6043  -0.489   8.048   7.367  0.9097  1.6507 -0.3409
   46MOL0     H 6044  -0.644   7.960   7.120 -1.7313 -0.4995 -0.1040
   46MOL0     H 6045  -0.653   7.886   7.290 -0.0867  1.2367  0.9724
   46MOL0     H 6046  -0.701   8.170   7.267 -1.9351  1.6235  1.2556
   46MOL0     H 6047  -0.722   8.052   7.397 -0.0165 -2.2208 -0.0685
   46MOL0     H 6048  -0.892   7.932   7.262  1.9879 -1.2824 -1.9935
   46MOL0     H 6049  -0.868   8.028   7.119 -2.4902  0.9184  0.1266
   46MOL0     H 6050  -0.952   8.231   7.214 -0.1978 -2.1706 -1.4077
   46MOL0     H 6051  -1.062   8.093   7.202  0.8483 -0.8526 -1.4251
   46MOL0     H 6052  -1.086   8.232   7.399 -0.2551  0.3384 -1.8264
   46MOL0     H 6053  -0.926   8.185   7.463  0.5131 -2.5393 -0.5639
   46MOL0     H 6054  -0.101   8.143   7.556 -0.4722 -0.3345 -0.9933
   46MOL0     H 6055   0.137   8.193   7.586  0.9821 -0.2372  0.9491
   46MOL0     H 6056   0.597   8.312   7.138  0.4694  0.5851 -0.3159
   46MOL0     H 6057   0.827   8.378   7.166 -1.0680  0.3519 -1.0037
   46MOL0     H 6058   2.317   9.329   6.920  1.0065  2.8078  0.7932
   46MOL0     H 6059   2.493   9.471   6.927 -1.5850  1.1521 -0.7666
   46MOL0     H 6060   2.960   9.542   6.734 -0.0835  0.1127  0.2428
   46MOL0     H 6061   3.144   9.669   6.811  0.9071  1.3285 -2.4928
   46MOL0     H 6062   3.276   9.794   6.863  0.1967 -0.9052  1.9436
   46MOL0     H 6063   3.263   9.865   7.020 -0.0612 -3.0686 -0.7712
   46MOL0     H 6064   3.342  10.005   6.762  2.8577 -0.6008 -1.3156
   46MOL0     H 6065   3.351  10.088   6.916 -0.1439  0.4953 -0.9180
   46MOL0     H 6066   3.525   9.838   6.841  1.3531 -2.0843  3.2081
   46MOL0     H 6067   3.512   9.907   7.002  0.5101  1.8979 -0.2332
   46MOL0     H 6068   3.577  10.129   6.919  2.8156  0.5707  0.8204
   46MOL0     H 6069   3.697  10.001   6.920 -0.8440 -1.9120  0.5610
   46MOL0     H 6070   3.698  10.027   6.518  3.1343  1.1925 -0.0610
   46MOL0     H 6071   2.891  10.017   6.834  0.9294  0.5302 -0.0729
   46MOL0     H 6072   2.703   9.895   6.802 -0.8635 -0.8260 -0.7600
   47MOL0     O 6073   9.911   0.251   7.347 -0.3452  0.0369  0.6754
   47MOL0     C 6074   9.876   0.290   7.454 -0.1261 -0.8722 -0.7708
   47MOL0     O 6075   9.956   0.354   7.550  0.1080  1.4778 -0.6102
   47MOL0     C 6076  10.086   0.356   7.525  0.6971 -0.0394 -0.2299
   47MOL0     C 6077  10.140   0.456   7.444 -0.8484  0.4258 -0.5915
   47MOL0     C 6078  10.284   0.466   7.428 -0.6978  0.0811 -0.4294
   47MOL0     C 6079  10.374   0.377   7.490  0.5601  1.7807 -0.1804
   47MOL0     O 6080  10.511   0.387   7.472 -0.4132 -0.2715  0.9837
   47MOL0     C 6081  10.567   0.523   7.460  0.0745  0.4546 -0.9975
   47MOL0     C 6082  10.721   0.499   7.482 -0.1654  0.4271  0.3343
   47MOL0     C 6083  10.740   0.491   7.631  0.8624 -0.5144  0.0701
   47MOL0     C 6084  10.878   0.518   7.679 -0.6142 -0.2254 -0.3769
   47MOL0     C 6085  10.894   0.534   7.840  0.0619 -0.6282 -0.5616
   47MOL0     C 6086  11.045   0.536   7.876  0.3293  0.9875 -0.4291
   47MOL0     C 6087  11.108   0.667   7.825 -1.3133 -0.5766 -0.8903
   47MOL0     C 6088  11.255   0.680   7.865  0.0355  0.5849 -0.7322
   47MOL0     N 6089  11.327   0.795   7.795  0.2434 -1.2075  0.1048
   47MOL0     C 6090  11.334   0.923   7.838 -0.2053  0.1310  0.2364
   47MOL0     C 6091  11.410   0.993   7.744  0.0096  0.3268 -0.6804
   47MOL0     C 6092  11.457   1.136   7.752  0.0001  0.2810  0.5713
   47MOL0     C 6093  11.337   1.233   7.773  1.0772 -0.1330  0.6553
   47MOL0     C 6094  11.238   1.229   7.656  0.2649 -0.3008  0.3333
   47MOL0     C 6095  11.118   1.138   7.681 -0.4917  0.4742  0.1318
   47MOL0     O 6096  10.999   1.177   7.600 -0.4594  0.2134 -0.3307
   47MOL0     C 6097  10.887   1.108   7.615  1.1989 -0.2577 -1.1254
   47MOL0     C 6098  10.881   0.994   7.696 -0.1654  0.2528 -0.0434
   47MOL0     C 6099  10.758   0.924   7.721 -0.0358 -0.1278 -0.7017
   47MOL0     C 6100  10.637   0.972   7.668 -0.3298  0.2393 -0.3233
   47MOL0     C 6101  10.506   0.899   7.694 -0.2975  0.1278 -0.3806
   47MOL0     O 6102  10.393   0.976   7.678  0.4035  0.0238 -0.4687
   47MOL0     C 6103  10.264   0.930   7.706 -0.1437  0.1787  0.5317
   47MOL0     C 6104  10.165   1.015   7.760 -0.0989 -0.0260  0.3421
   47MOL0     C 6105  10.031   0.973   7.766 -0.4915 -0.4076 -0.0437
   47MOL0     C 6106  10.000   0.840   7.711  0.3619 -0.8093  0.0378
   47MOL0     O 6107   9.877   0.783   7.711 -0.2765 -0.4385  0.3145
   47MOL0     C 6108   9.769   0.880   7.722 -0.5414 -0.3220  0.3032
   47MOL0     C 6109   9.635   0.822   7.696 -0.4949 -0.7093  0.6926
   47MOL0     C 6110   9.640   0.742   7.567 -0.2263  0.2600 -0.4739
   47MOL0     C 6111   9.508   0.682   7.512 -0.2768 -0.0669 -0.2441
   47MOL0     C 6112   9.409   0.780   7.464  0.1298 -0.2970 -0.4450
   47MOL0     C 6113   9.293   0.690   7.419 -0.3000 -0.1419 -0.1884
   47MOL0     C 6114   9.163   0.763   7.401  1.3830 -0.0926 -0.1234
   47MOL0     C 6115   9.051   0.664   7.365  0.1039  0.5266 -0.0468
   47MOL0    Cl 6116   8.897   0.753   7.347  0.2585 -0.5125  0.2769
   47MOL0     C 6117  10.094   0.768   7.646  0.1635 -0.3001  0.2606
   47MOL0     C 6118  10.226   0.816   7.645  0.1356 -0.0382 -1.0165
   47MOL0     O 6119  10.513   0.795   7.757 -0.6150  0.0338 -0.2488
   47MOL0     C 6120  10.642   1.073   7.575  0.8282 -0.2436 -0.6023
   47MOL0     C 6121  10.764   1.146   7.550  0.7827  0.9193 -0.1515
   47MOL0     N 6122  11.439   0.895   7.648 -0.3517  0.1089 -0.0097
   47MOL0     N 6123  11.379   0.785   7.673  0.1501 -0.0473  0.0872
   47MOL0     C 6124  10.315   0.263   7.562 -0.0987 -0.0665 -1.2202
   47MOL0     C 6125  10.174   0.258   7.580  0.8504 -1.0166 -0.1947
   47MOL0     C 6126   9.734   0.286   7.494 -0.0536  0.2902 -0.7526
   47MOL0     C 6127   9.690   0.334   7.625  0.8054 -0.6697 -0.5680
   47MOL0     C 6128   9.554   0.320   7.652  0.2890  0.2221 -0.3626
   47MOL0     C 6129   9.476   0.250   7.565  1.0702  1.3241 -0.3819
   47MOL0     O 6130   9.350   0.245   7.608  0.3414  0.0948 -0.0724
   47MOL0     C 6131   9.281   0.116   7.603 -0.6067 -0.9226 -1.2503
   47MOL0     C 6132   9.169   0.105   7.703 -0.4959  0.6944 -0.1377
   47MOL0     C 6133   9.053   0.200   7.675 -0.1703  0.2925 -0.4120
   47MOL0     C 6134   8.976   0.192   7.545 -0.4312  0.0966 -0.4853
   47MOL0     C 6135   8.874   0.299   7.546 -1.0487 -0.0766 -0.5786
   47MOL0     C 6136   8.795   0.384   7.558 -0.1242  1.0371  0.4089
   47MOL0     C 6137   9.515   0.196   7.443  0.4110  0.2381 -0.2472
   47MOL0     C 6138   9.642   0.220   7.401  0.2029  0.3113 -0.5364
   47MOL0     H 6139  10.067   0.511   7.386 -0.8164 -0.0219 -1.0638
   47MOL0     H 6140  10.314   0.549   7.365  0.5215  0.3872  0.5373
   47MOL0     H 6141  10.531   0.584   7.544  0.4659  1.1393 -1.3186
   47MOL0     H 6142  10.539   0.574   7.368  0.5764 -0.9081 -1.9323
   47MOL0     H 6143  10.786   0.570   7.430  0.7109 -2.3639 -2.6971
   47MOL0     H 6144  10.755   0.407   7.435  0.7866  2.6814 -3.8515
   47MOL0     H 6145  10.708   0.395   7.673  2.9350 -0.5750  1.6478
   47MOL0     H 6146  10.674   0.568   7.672 -4.2853 -1.6174 -4.7454
   47MOL0     H 6147  10.942   0.438   7.642 -2.2149 -0.8764 -1.8369
   47MOL0     H 6148  10.910   0.617   7.646  0.8342 -0.1257  1.1705
   47MOL0     H 6149  10.852   0.460   7.908  0.4977  1.1265  1.7591
   47MOL0     H 6150  10.854   0.632   7.869  3.9201  0.9640  0.0452
   47MOL0     H 6151  11.090   0.442   7.841 -1.4835  0.4655 -1.5522
   47MOL0     H 6152  11.063   0.531   7.984  1.7780 -1.1997 -0.7072
   47MOL0     H 6153  11.092   0.673   7.717 -0.1687 -0.1327 -1.0484
   47MOL0     H 6154  11.058   0.755   7.866  2.6633  2.3007 -1.6748
   47MOL0     H 6155  11.303   0.589   7.830  0.3678  0.6705 -0.4965
   47MOL0     H 6156  11.256   0.683   7.974  0.1708  0.3745 -0.7276
   47MOL0     H 6157  11.302   0.968   7.932  4.0677  0.3569  1.8359
   47MOL0     H 6158  11.510   1.161   7.660 -0.9359 -1.5364 -0.5157
   47MOL0     H 6159  11.522   1.141   7.840  0.4486  0.4588  0.2359
   47MOL0     H 6160  11.384   1.332   7.775 -0.4127  0.5910  2.2008
   47MOL0     H 6161  11.292   1.221   7.872  0.5129 -0.6325  0.3404
   47MOL0     H 6162  11.205   1.332   7.641  0.2682 -0.4876 -1.0767
   47MOL0     H 6163  11.288   1.208   7.561 -2.4682 -1.3645 -0.9437
   47MOL0     H 6164  11.100   1.138   7.788  0.1772  1.1819  0.2543
   47MOL0     H 6165  11.146   1.035   7.654  2.0066  1.3865 -1.1944
   47MOL0     H 6166  10.971   0.973   7.752  0.1520  1.8587  0.0848
   47MOL0     H 6167  10.765   0.835   7.784  0.7945 -0.4612 -1.2411
   47MOL0     H 6168  10.188   1.114   7.799 -2.3007  0.7855 -0.2496
   47MOL0     H 6169   9.957   1.039   7.811 -0.6541 -0.8659  0.3663
   47MOL0     H 6170   9.793   0.948   7.640  3.2916 -0.1698  1.3341
   47MOL0     H 6171   9.780   0.938   7.814  4.0867 -2.5838  1.5164
   47MOL0     H 6172   9.585   0.917   7.677  1.6818  0.0466 -1.9593
   47MOL0     H 6173   9.590   0.757   7.772 -2.0476 -1.0682 -0.4868
   47MOL0     H 6174   9.717   0.667   7.586  0.6788  1.0101 -1.0847
   47MOL0     H 6175   9.670   0.818   7.495 -0.1201  0.6757  0.0031
   47MOL0     H 6176   9.531   0.609   7.433  2.1982  0.7843 -0.3895
   47MOL0     H 6177   9.461   0.630   7.596 -3.9157  4.9975  1.3120
   47MOL0     H 6178   9.453   0.852   7.395  0.3828  3.1032  2.9817
   47MOL0     H 6179   9.370   0.843   7.544 -2.8344 -2.1446 -0.2547
   47MOL0     H 6180   9.282   0.611   7.493 -0.4608  0.3878  0.3629
   47MOL0     H 6181   9.326   0.642   7.326 -0.0538  2.0216 -1.2848
   47MOL0     H 6182   9.139   0.821   7.491  0.8654  0.3011 -0.5107
   47MOL0     H 6183   9.167   0.839   7.322  5.4710 -1.6672 -1.7398
   47MOL0     H 6184   9.045   0.592   7.447  1.4842 -0.3044 -0.6487
   47MOL0     H 6185   9.071   0.610   7.272 -0.0285  2.7727 -1.4667
   47MOL0     H 6186  10.060   0.671   7.611 -3.5717  0.3196  1.7182
   47MOL0     H 6187  10.296   0.741   7.610  0.8328 -0.6717  1.5598
   47MOL0     H 6188  10.565   1.113   7.509  2.5165  2.1160 -1.2710
   47MOL0     H 6189  10.775   1.229   7.481 -0.1195  0.6699 -0.6158
   47MOL0     H 6190  10.373   0.173   7.577 -0.1918 -0.3993 -2.6895
   47MOL0     H 6191  10.122   0.171   7.621  2.9747 -2.0577  0.4282
   47MOL0     H 6192   9.756   0.383   7.695  0.3090  1.2589 -1.4024
   47MOL0     H 6193   9.508   0.356   7.744  2.1503 -0.2144  0.8039
   47MOL0     H 6194   9.341   0.025   7.607  2.7973  1.1598 -1.5693
   47MOL0     H 6195   9.234   0.103   7.504 -0.8933  1.7157 -1.5555
   47MOL0     H 6196   9.128   0.004   7.710  2.1175 -0.3533  1.4084
   47MOL0     H 6197   9.211   0.134   7.799 -1.0300  0.5140  0.1564
   47MOL0     H 6198   9.099   0.297   7.697  0.5736  0.2555 -1.7259
   47MOL0     H 6199   8.978   0.185   7.753  0.3804 -1.7859 -0.2262
   47MOL0     H 6200   9.037   0.200   7.454 -1.7627  0.3646 -1.3804
   47MOL0     H 6201   8.938   0.090   7.536  2.3711 -0.8497 -4.0833
   47MOL0     H 6202   8.721   0.460   7.576  2.1315  2.9334  2.3213
   47MOL0     H 6203   9.451   0.129   7.386  1.4397 -0.2292 -0.8898
   47MOL0     H 6204   9.663   0.176   7.304 -4.4127 -2.4019 -0.6220
   48MOL0     O 6205   9.374   6.047   4.421 -0.2337  0.2233  0.0477
   48MOL0     C 6206   9.423   5.936   4.398 -0.1298  1.0875  0.9632
   48MOL0     O 6207   9.352   5.831   4.358  0.0466 -0.4047  0.8421
   48MOL0     C 6208   9.215   5.852   4.336 -0.3839 -0.4437 -1.0247
   48MOL0     C 6209   9.132   5.899   4.436  0.4341 -0.5171  0.5743
   48MOL0     C 6210   8.997   5.916   4.420 -0.3311 -0.8826  0.3249
   48MOL0     C 6211   8.934   5.879   4.307  0.5348 -0.1609  0.3387
   48MOL0     O 6212   8.798   5.881   4.308 -0.5146  0.4251  0.3152
   48MOL0     C 6213   8.736   5.810   4.197  0.5652  0.3755  0.8366
   48MOL0     C 6214   8.590   5.828   4.225  0.4724  0.1498  0.0168
   48MOL0     C 6215   8.486   5.722   4.168  0.4886  0.2140  0.0438
   48MOL0     C 6216   8.356   5.757   4.240  0.3307 -0.2834  0.4135
   48MOL0     C 6217   8.250   5.661   4.182  0.7773 -0.1420  0.0484
   48MOL0     C 6218   8.122   5.701   4.249  0.2104 -0.2249 -0.4828
   48MOL0     C 6219   8.012   5.606   4.214  0.8076 -0.3935  0.0634
   48MOL0     C 6220   7.889   5.658   4.295 -0.6525 -0.8371 -0.3456
   48MOL0     N 6221   7.770   5.609   4.229  0.0665 -0.4956  0.1076
   48MOL0     C 6222   7.732   5.613   4.096 -0.1472  0.4387 -0.0760
   48MOL0     C 6223   7.607   5.562   4.084 -0.8470 -0.3542  0.5957
   48MOL0     C 6224   7.541   5.537   3.951  0.4091  0.5435 -0.0745
   48MOL0     C 6225   7.391   5.564   3.942  0.2802 -0.1279  0.3475
   48MOL0     C 6226   7.332   5.490   3.817 -0.5571 -0.3257 -0.9276
   48MOL0     C 6227   7.179   5.507   3.810 -0.2474  0.3426  0.7920
   48MOL0     O 6228   7.116   5.422   3.907 -0.2403 -0.1818  0.4197
   48MOL0     C 6229   6.983   5.408   3.882  1.4620 -0.3423  0.7657
   48MOL0     C 6230   6.918   5.314   3.964 -1.0866 -0.5212  0.1479
   48MOL0     C 6231   6.781   5.298   3.962 -0.6590 -0.3910 -0.0303
   48MOL0     C 6232   6.708   5.375   3.870 -0.3965  0.3871 -0.3220
   48MOL0     C 6233   6.561   5.351   3.869  0.7501 -0.1412 -1.1706
   48MOL0     O 6234   6.513   5.237   3.930 -0.4236  0.2009  0.6073
   48MOL0     C 6235   6.376   5.221   3.924 -0.6309 -0.6479 -0.3920
   48MOL0     C 6236   6.287   5.296   3.998 -0.3376 -0.1583  0.4140
   48MOL0     C 6237   6.157   5.253   4.002  0.0580 -0.1006 -0.1333
   48MOL0     C 6238   6.103   5.166   3.910  0.5385  0.8017  0.4938
   48MOL0     O 6239   5.973   5.118   3.904  0.1839  0.2080  0.0928
   48MOL0     C 6240   5.875   5.204   3.970  0.4558 -0.5171  0.0063
   48MOL0     C 6241   5.746   5.161   3.922  1.0357 -0.4871  0.3980
   48MOL0     C 6242   5.633   5.223   3.996  0.6689 -0.1711  1.1624
   48MOL0     C 6243   5.498   5.156   3.951  0.4186 -0.4712 -0.1979
   48MOL0     C 6244   5.382   5.226   4.032  0.0435  0.5817 -0.0346
   48MOL0     C 6245   5.238   5.173   3.995 -0.5434 -0.6760  0.5541
   48MOL0     C 6246   5.213   5.199   3.851 -0.8171 -0.7546 -0.0057
   48MOL0     C 6247   5.072   5.151   3.820  0.4164 -0.2802  0.1392
   48MOL0    Cl 6248   4.949   5.229   3.921 -0.1005  0.2686  0.2023
   48MOL0     C 6249   6.191   5.102   3.819  0.2443 -0.3690 -0.4980
   48MOL0     C 6250   6.328   5.127   3.830  1.0356  0.0239  0.1251
   48MOL0     O 6251   6.489   5.436   3.810 -0.0439 -0.3673  0.4352
   48MOL0     C 6252   6.767   5.470   3.795  0.0388 -0.6895  0.0752
   48MOL0     C 6253   6.898   5.498   3.807  0.0709  0.4554  0.1720
   48MOL0     N 6254   7.567   5.531   4.216  0.1874  0.7087  0.3185
   48MOL0     N 6255   7.670   5.547   4.304  0.4789 -0.4644 -0.5098
   48MOL0     C 6256   9.018   5.825   4.207  0.2182 -0.1601  1.4100
   48MOL0     C 6257   9.160   5.810   4.218  0.1395 -0.2447  0.0123
   48MOL0     C 6258   9.561   5.913   4.445  0.1598 -1.0713  0.4108
   48MOL0     C 6259   9.608   5.785   4.483  1.1800  0.0846 -0.5522
   48MOL0     C 6260   9.736   5.774   4.526 -0.1693  0.4775  0.4580
   48MOL0     C 6261   9.817   5.889   4.535 -0.6956  0.2493 -1.5073
   48MOL0     O 6262   9.946   5.883   4.596  0.6799 -0.4185 -0.2101
   48MOL0     C 6263  10.008   5.764   4.656  0.3720  0.5334  0.3268
   48MOL0     C 6264  10.161   5.776   4.656  0.3274  0.0075  0.3485
   48MOL0     C 6265  10.235   5.643   4.675  0.3877  0.3248  0.0688
   48MOL0     C 6266  10.399   5.657   4.665  0.6236 -0.0890 -0.0868
   48MOL0     C 6267  10.429   5.753   4.767 -0.2133 -0.1661 -0.2334
   48MOL0     C 6268  10.455   5.843   4.843 -1.2083  0.2253  0.5596
   48MOL0     C 6269   9.775   6.017   4.508 -0.8558  0.1280  0.3097
   48MOL0     C 6270   9.649   6.026   4.462  0.2684 -0.6873  0.5037
   48MOL0     H 6271   9.176   5.933   4.530  0.9954  0.9262 -0.1717
   48MOL0     H 6272   8.935   5.949   4.503 -1.0327  2.4819 -1.3745
   48MOL0     H 6273   8.757   5.703   4.186 -0.2447  0.2954 -0.0715
   48MOL0     H 6274   8.776   5.852   4.104  3.5845 -0.0765  1.8236
   48MOL0     H 6275   8.568   5.930   4.194 -2.3847 -1.0481 -2.4711
   48MOL0     H 6276   8.589   5.823   4.335 -0.4982  3.4017  0.2588
   48MOL0     H 6277   8.517   5.621   4.196 -1.5356 -0.1142  1.3156
   48MOL0     H 6278   8.473   5.720   4.059  2.9350 -1.6656 -0.3054
   48MOL0     H 6279   8.375   5.744   4.347  1.2243 -0.5722  0.2290
   48MOL0     H 6280   8.334   5.863   4.225 -0.2676 -0.6942 -2.0380
   48MOL0     H 6281   8.280   5.558   4.204 -1.9648 -0.8508  0.9768
   48MOL0     H 6282   8.249   5.677   4.074  0.7079  1.4432  0.2616
   48MOL0     H 6283   8.089   5.793   4.199 -2.9039  0.3942  2.3401
   48MOL0     H 6284   8.130   5.719   4.356 -2.3062 -0.0071 -0.2510
   48MOL0     H 6285   7.995   5.604   4.106 -1.7578 -0.1768  0.4033
   48MOL0     H 6286   8.041   5.506   4.248  2.7053 -0.3756 -1.3546
   48MOL0     H 6287   7.888   5.768   4.294  3.9022 -0.4551  3.2006
   48MOL0     H 6288   7.896   5.627   4.400 -0.1921 -4.6214 -1.3498
   48MOL0     H 6289   7.800   5.632   4.014  1.9213  0.3679  1.5296
   48MOL0     H 6290   7.566   5.436   3.915 -1.8941 -0.0484 -0.1794
   48MOL0     H 6291   7.586   5.604   3.877 -1.1512 -0.7843 -2.3835
   48MOL0     H 6292   7.377   5.671   3.926  3.4357  0.0554 -2.1595
   48MOL0     H 6293   7.344   5.537   4.037 -3.0537  2.3098 -0.4206
   48MOL0     H 6294   7.377   5.523   3.723  0.4453 -3.2898 -1.6079
   48MOL0     H 6295   7.368   5.387   3.817  1.0019  0.1747 -2.2510
   48MOL0     H 6296   7.149   5.488   3.707  2.2274 -0.2560  0.1142
   48MOL0     H 6297   7.170   5.613   3.837 -1.3959  1.0527 -2.0173
   48MOL0     H 6298   6.981   5.255   4.030  0.5687  0.2504 -0.6907
   48MOL0     H 6299   6.742   5.221   4.027  2.8337  0.3079  3.2704
   48MOL0     H 6300   6.319   5.369   4.071  0.5435 -0.3717  0.2430
   48MOL0     H 6301   6.087   5.298   4.072 -1.0211 -0.6504 -0.8183
   48MOL0     H 6302   5.886   5.309   3.941 -0.5132 -0.8440 -1.7079
   48MOL0     H 6303   5.880   5.192   4.078  0.6816 -2.7585 -0.2153
   48MOL0     H 6304   5.737   5.052   3.929  0.1760 -0.6561 -2.2077
   48MOL0     H 6305   5.734   5.197   3.819 -1.8358  1.3889  1.2660
   48MOL0     H 6306   5.628   5.329   3.972 -2.0774 -0.5363 -0.3681
   48MOL0     H 6307   5.643   5.211   4.104 -1.8050 -2.1237  1.2786
   48MOL0     H 6308   5.474   5.164   3.845  0.5242  4.6456 -0.0543
   48MOL0     H 6309   5.515   5.049   3.968  0.2894 -0.1831  2.0707
   48MOL0     H 6310   5.386   5.331   4.004  0.5206  0.9366  1.2873
   48MOL0     H 6311   5.408   5.208   4.137  1.6767  1.5734 -0.2437
   48MOL0     H 6312   5.163   5.213   4.064 -0.2669  0.5424  0.1761
   48MOL0     H 6313   5.235   5.065   4.013 -3.6205 -0.6593  0.6631
   48MOL0     H 6314   5.221   5.307   3.832 -1.3030 -0.3230  2.0522
   48MOL0     H 6315   5.271   5.127   3.793  1.6689 -0.4174  1.9065
   48MOL0     H 6316   5.079   5.043   3.839  0.0183 -0.3797 -0.2524
   48MOL0     H 6317   5.051   5.156   3.713 -0.9387 -0.7541  0.3571
   48MOL0     H 6318   6.154   5.024   3.753 -1.1018  0.5749 -0.9100
   48MOL0     H 6319   6.395   5.059   3.779 -2.1688 -3.6897  0.4300
   48MOL0     H 6320   6.710   5.538   3.732 -2.0550 -1.4423  1.0549
   48MOL0     H 6321   6.945   5.569   3.741  1.9701 -0.3106  0.6092
   48MOL0     H 6322   8.980   5.787   4.113  0.5365 -1.4736  1.7823
   48MOL0     H 6323   9.215   5.754   4.144  2.1523 -0.1058  1.3295
   48MOL0     H 6324   9.556   5.690   4.484  2.6715 -0.8014  2.2623
   48MOL0     H 6325   9.767   5.675   4.557 -1.2038  0.9602  3.3480
   48MOL0     H 6326   9.980   5.672   4.603 -0.8600  2.0237 -1.7852
   48MOL0     H 6327   9.973   5.762   4.759 -1.1165  0.1121 -0.1612
   48MOL0     H 6328  10.184   5.814   4.556  2.9146 -1.2818  0.3571
   48MOL0     H 6329  10.185   5.857   4.727 -0.6781  2.9023 -2.3964
   48MOL0     H 6330  10.201   5.563   4.608 -2.9695  1.6794 -0.0613
   48MOL0     H 6331  10.223   5.610   4.779  2.4398 -0.9842 -0.0625
   48MOL0     H 6332  10.440   5.557   4.682 -0.4825 -0.3369  1.2607
   48MOL0     H 6333  10.439   5.692   4.569  1.3508 -3.3990 -1.1405
   48MOL0     H 6334  10.486   5.924   4.906  0.1520 -0.0268  0.2590
   48MOL0     H 6335   9.827   6.106   4.541 -1.3483  0.4652  0.1789
   48MOL0     H 6336   9.615   6.128   4.451 -0.6235 -1.1282 -1.1024
   49MOL0     O 6337   3.762   8.602   1.923 -0.3384  0.0494 -0.4554
   49MOL0     C 6338   3.861   8.674   1.963 -0.4317 -0.0987 -1.2273
   49MOL0     O 6339   3.857   8.785   2.043  0.2364 -0.1836  0.3546
   49MOL0     C 6340   3.736   8.802   2.107  0.0022 -0.6922  0.9415
   49MOL0     C 6341   3.703   8.708   2.198  1.0871 -0.0365  0.1173
   49MOL0     C 6342   3.591   8.722   2.281  0.1689  1.1740 -0.2931
   49MOL0     C 6343   3.510   8.840   2.272  0.1041  0.1718 -0.7208
   49MOL0     O 6344   3.400   8.852   2.361 -0.8550 -0.0161  0.5094
   49MOL0     C 6345   3.280   8.922   2.321  0.4326 -0.7850  0.5359
   49MOL0     C 6346   3.190   8.823   2.249  0.8408  0.8133  0.3078
   49MOL0     C 6347   3.258   8.777   2.113 -0.3093 -0.6043 -0.4831
   49MOL0     C 6348   3.162   8.681   2.040 -0.4087 -0.1607 -0.3063
   49MOL0     C 6349   3.223   8.641   1.898  0.5249  0.9775 -0.9993
   49MOL0     C 6350   3.340   8.553   1.915 -1.0308  0.6796 -0.1583
   49MOL0     C 6351   3.445   8.567   1.798  1.1573  0.6279  0.8860
   49MOL0     C 6352   3.552   8.453   1.796  0.0557 -0.0071 -0.9299
   49MOL0     N 6353   3.485   8.322   1.774  0.4653  0.3072 -0.7584
   49MOL0     C 6354   3.526   8.193   1.787 -0.4509  0.2918  0.0869
   49MOL0     C 6355   3.461   8.107   1.714  0.4892 -0.1327  0.0159
   49MOL0     C 6356   3.481   7.961   1.716  0.2126  0.2218 -0.2682
   49MOL0     C 6357   3.359   7.873   1.685  0.4837  0.0694 -0.5029
   49MOL0     C 6358   3.392   7.723   1.682 -0.9131  0.5517  1.3260
   49MOL0     C 6359   3.280   7.654   1.604  0.4214  0.5411  0.0175
   49MOL0     O 6360   3.146   7.690   1.625  0.0096 -0.1257  0.5641
   49MOL0     C 6361   3.067   7.635   1.726  0.3566 -0.7717 -0.3232
   49MOL0     C 6362   3.114   7.558   1.823  0.0565  0.7056 -0.0009
   49MOL0     C 6363   3.041   7.526   1.944  0.1906 -0.4112 -0.0426
   49MOL0     C 6364   2.916   7.579   1.959 -0.2704  0.3407  0.5849
   49MOL0     C 6365   2.825   7.544   2.073  0.8173  0.2688  0.7431
   49MOL0     O 6366   2.732   7.639   2.121  0.6166 -0.1270  0.3271
   49MOL0     C 6367   2.633   7.597   2.207  0.4123 -0.3959  0.3110
   49MOL0     C 6368   2.624   7.656   2.334 -0.6770  0.2133  0.2393
   49MOL0     C 6369   2.514   7.620   2.414 -0.9605 -0.1752 -0.4492
   49MOL0     C 6370   2.416   7.529   2.370 -0.0226  0.2099 -0.4432
   49MOL0     O 6371   2.312   7.507   2.457  0.1879  0.3673 -0.6327
   49MOL0     C 6372   2.188   7.458   2.410 -0.5389  0.4847  0.6266
   49MOL0     C 6373   2.111   7.582   2.355 -0.2563 -0.5616 -0.4254
   49MOL0     C 6374   1.956   7.558   2.353 -0.1975 -0.0021 -0.1816
   49MOL0     C 6375   1.869   7.653   2.271  0.8126  0.4682  0.5921
   49MOL0     C 6376   1.721   7.642   2.313 -0.3689 -1.1269 -0.4581
   49MOL0     C 6377   1.618   7.649   2.192  0.9370  0.3272 -0.1975
   49MOL0     C 6378   1.632   7.779   2.110  1.1071 -0.4411 -0.7361
   49MOL0     C 6379   1.501   7.829   2.057  0.5654  0.1392 -0.3942
   49MOL0    Cl 6380   1.400   7.889   2.185  0.1622 -0.5297 -0.2442
   49MOL0     C 6381   2.436   7.479   2.247  0.2010  0.4539  0.5474
   49MOL0     C 6382   2.538   7.508   2.154  0.3487 -0.4605  0.5243
   49MOL0     O 6383   2.833   7.424   2.101  0.7392 -0.1300 -0.3838
   49MOL0     C 6384   2.860   7.658   1.860 -0.6767 -0.5364 -0.1825
   49MOL0     C 6385   2.937   7.693   1.747 -0.6699 -0.3707  0.2922
   49MOL0     N 6386   3.366   8.177   1.656 -0.2411  0.0236  0.1278
   49MOL0     N 6387   3.381   8.303   1.687  0.6773  0.7129 -0.1698
   49MOL0     C 6388   3.549   8.937   2.182 -0.6023  0.3386  0.3251
   49MOL0     C 6389   3.656   8.918   2.095 -1.0934 -0.0703  0.2056
   49MOL0     C 6390   3.990   8.642   1.897 -0.2228  0.2866  0.5162
   49MOL0     C 6391   4.003   8.521   1.820 -0.3694 -0.2809  0.1012
   49MOL0     C 6392   4.127   8.501   1.757  0.2987  0.3384 -0.7287
   49MOL0     C 6393   4.230   8.589   1.758 -0.4285  0.0852 -0.2131
   49MOL0     O 6394   4.338   8.554   1.685 -0.3082 -1.0825  0.7554
   49MOL0     C 6395   4.402   8.651   1.602  0.1122  0.5365  0.1623
   49MOL0     C 6396   4.536   8.701   1.663 -0.1141  0.0077 -1.5448
   49MOL0     C 6397   4.608   8.810   1.576 -0.2007  0.3802 -0.3862
   49MOL0     C 6398   4.701   8.740   1.484  0.5739 -0.1067 -0.3432
   49MOL0     C 6399   4.750   8.850   1.405 -0.0176 -0.6726 -0.1290
   49MOL0     C 6400   4.775   8.957   1.348  0.1263 -0.1275 -0.2663
   49MOL0     C 6401   4.210   8.706   1.830  0.3280 -0.1157 -0.4694
   49MOL0     C 6402   4.096   8.737   1.906  0.1119 -0.1102 -0.2516
   49MOL0     H 6403   3.761   8.616   2.205  0.9099 -0.2683 -1.2033
   49MOL0     H 6404   3.583   8.643   2.354  1.7958  1.9842  0.8252
   49MOL0     H 6405   3.300   9.016   2.268  0.4521 -0.4513  1.1211
   49MOL0     H 6406   3.225   8.943   2.413 -0.8982 -0.1964 -0.3612
   49MOL0     H 6407   3.090   8.864   2.232 -0.9359 -2.6733  1.3511
   49MOL0     H 6408   3.189   8.728   2.303  0.6435 -0.5311 -1.9115
   49MOL0     H 6409   3.351   8.723   2.130 -0.6058 -1.3993 -1.3360
   49MOL0     H 6410   3.289   8.864   2.055 -0.5324  0.6646  1.2205
   49MOL0     H 6411   3.144   8.599   2.109  2.4846 -0.3204  0.4205
   49MOL0     H 6412   3.070   8.735   2.015 -0.6750 -0.3991  0.1456
   49MOL0     H 6413   3.266   8.731   1.852  0.0302  3.0719  2.2418
   49MOL0     H 6414   3.152   8.604   1.823  0.4117 -0.3332 -0.2721
   49MOL0     H 6415   3.296   8.453   1.924 -2.8184  1.1524 -2.5828
   49MOL0     H 6416   3.386   8.583   2.009 -1.1925 -0.3390  0.2586
   49MOL0     H 6417   3.403   8.567   1.697  2.6007  0.4856  0.2697
   49MOL0     H 6418   3.507   8.657   1.797  2.9729 -0.5627 -0.7704
   49MOL0     H 6419   3.596   8.442   1.896 -0.5415  1.2809 -0.5162
   49MOL0     H 6420   3.624   8.474   1.717 -0.9894  1.2003 -1.5849
   49MOL0     H 6421   3.599   8.156   1.859 -2.8849 -2.3132  1.4258
   49MOL0     H 6422   3.520   7.940   1.816  0.1849  1.1931 -0.0398
   49MOL0     H 6423   3.560   7.932   1.647  1.5840  1.4704  0.7172
   49MOL0     H 6424   3.325   7.890   1.582  1.1599 -0.2747 -0.7874
   49MOL0     H 6425   3.286   7.890   1.764  0.6230 -0.4366 -0.2623
   49MOL0     H 6426   3.487   7.701   1.632 -2.0434 -2.6647  0.3422
   49MOL0     H 6427   3.407   7.672   1.778  1.7813 -0.0331  0.6873
   49MOL0     H 6428   3.294   7.546   1.610  2.2414  0.8108  1.2474
   49MOL0     H 6429   3.295   7.673   1.497  3.0871  0.8235  0.3825
   49MOL0     H 6430   3.218   7.527   1.833 -0.3471 -0.7335  0.0850
   49MOL0     H 6431   3.066   7.462   2.028 -2.1477  0.2302  1.2247
   49MOL0     H 6432   2.688   7.736   2.370 -2.6466  2.0582 -0.1666
   49MOL0     H 6433   2.510   7.668   2.511 -1.7766 -0.6611 -0.2321
   49MOL0     H 6434   2.126   7.417   2.491 -0.4283 -0.7504  0.1129
   49MOL0     H 6435   2.197   7.369   2.347 -0.5334  2.2008 -1.9431
   49MOL0     H 6436   2.154   7.612   2.259 -0.3409 -0.2624 -0.3703
   49MOL0     H 6437   2.117   7.666   2.425 -0.6770 -0.8782  0.0012
   49MOL0     H 6438   1.918   7.563   2.455 -0.5053  1.2745 -0.3361
   49MOL0     H 6439   1.950   7.455   2.317  4.8721 -0.6469  0.0223
   49MOL0     H 6440   1.892   7.757   2.294 -1.1658  1.2593 -0.6692
   49MOL0     H 6441   1.888   7.650   2.163 -0.1898  2.2977  0.3332
   49MOL0     H 6442   1.704   7.702   2.403  2.0018 -2.9449  1.3414
   49MOL0     H 6443   1.702   7.546   2.360  0.5176 -0.4099  1.4732
   49MOL0     H 6444   1.520   7.649   2.241  0.6150  0.5365 -0.8404
   49MOL0     H 6445   1.631   7.553   2.141 -2.9655 -0.4884  0.0635
   49MOL0     H 6446   1.679   7.851   2.177 -0.4776 -0.9642  1.0240
   49MOL0     H 6447   1.695   7.748   2.026 -2.3672 -2.1402 -2.9623
   49MOL0     H 6448   1.442   7.754   2.003  0.0769 -0.5042  0.9773
   49MOL0     H 6449   1.508   7.925   2.006 -0.4367  1.9540  2.5657
   49MOL0     H 6450   2.375   7.397   2.210  2.2604 -0.5358 -0.8546
   49MOL0     H 6451   2.551   7.463   2.056 -1.3584  1.2719 -0.5639
   49MOL0     H 6452   2.763   7.702   1.880 -0.3774  0.5456 -1.0101
   49MOL0     H 6453   2.905   7.761   1.669 -1.0787  0.2921  1.0246
   49MOL0     H 6454   3.492   9.029   2.178 -0.7894  0.2616  1.0685
   49MOL0     H 6455   3.685   8.984   2.014  1.9398 -4.4561 -2.7904
   49MOL0     H 6456   3.918   8.457   1.803 -1.3229  1.5100 -2.5954
   49MOL0     H 6457   4.143   8.418   1.689  0.1698 -0.1041 -0.2200
   49MOL0     H 6458   4.346   8.742   1.581 -0.5835  0.2517  0.7443
   49MOL0     H 6459   4.424   8.612   1.502  3.3947  0.6118  0.7324
   49MOL0     H 6460   4.511   8.743   1.760 -5.8023  0.0413 -2.7027
   49MOL0     H 6461   4.603   8.617   1.687  0.3963  0.8978  0.3275
   49MOL0     H 6462   4.668   8.880   1.635  3.7421  0.1278 -3.6521
   49MOL0     H 6463   4.527   8.865   1.528 -1.5615 -0.1496  1.1941
   49MOL0     H 6464   4.780   8.695   1.544  0.8325  0.8494  0.0503
   49MOL0     H 6465   4.651   8.671   1.415  2.0731  0.6216 -2.2466
   49MOL0     H 6466   4.799   9.050   1.301  1.1239  0.0723  0.6003
   49MOL0     H 6467   4.295   8.774   1.826 -0.1852  0.5162 -3.3695
   49MOL0     H 6468   4.097   8.832   1.959  1.4377 -0.4744  0.4303
   50MOL0     O 6469   6.964   6.250   4.617 -0.1924  0.6340  0.0263
   50MOL0     C 6470   7.012   6.332   4.537 -0.0609  0.6246 -0.1313
   50MOL0     O 6471   6.938   6.399   4.443  0.0088 -0.6388 -0.0582
   50MOL0     C 6472   6.811   6.376   4.427  0.8482  0.6688  0.4043
   50MOL0     C 6473   6.738   6.415   4.308 -0.4048  0.2917 -0.3850
   50MOL0     C 6474   6.605   6.404   4.280  1.3048 -0.3678  0.4529
   50MOL0     C 6475   6.526   6.354   4.381 -0.4786  1.1456  0.3996
   50MOL0     O 6476   6.393   6.347   4.347 -0.3793  0.0340 -0.5601
   50MOL0     C 6477   6.301   6.322   4.453 -0.4202  0.1602  0.3929
   50MOL0     C 6478   6.161   6.283   4.394  0.3174  1.0712  0.0585
   50MOL0     C 6479   6.154   6.138   4.350 -0.1504  0.4325  0.1287
   50MOL0     C 6480   6.018   6.092   4.296  0.2532  1.2943  0.2871
   50MOL0     C 6481   6.031   5.938   4.261 -0.1014 -0.4998 -0.0573
   50MOL0     C 6482   5.953   5.897   4.138  0.4105  0.4901  0.4348
   50MOL0     C 6483   5.806   5.949   4.143 -0.1874  0.6116  0.0592
   50MOL0     C 6484   5.721   5.893   4.032  0.2369 -0.0397  0.0735
   50MOL0     N 6485   5.577   5.882   4.061 -0.5253  0.4520 -0.0574
   50MOL0     C 6486   5.509   5.761   4.044  0.5985 -0.7476 -0.1250
   50MOL0     C 6487   5.400   5.780   4.120 -0.2502  0.1697 -1.1373
   50MOL0     C 6488   5.298   5.671   4.149  0.1296  0.0543 -0.5239
   50MOL0     C 6489   5.225   5.635   4.024  0.5806 -0.3077 -0.1433
   50MOL0     C 6490   5.115   5.533   4.055  0.0183  0.7603 -0.3544
   50MOL0     C 6491   4.986   5.594   4.112 -0.4617  0.2669 -0.3211
   50MOL0     O 6492   4.931   5.682   4.011  0.3234 -0.2818 -0.6736
   50MOL0     C 6493   4.799   5.727   4.032  0.5210 -0.3006  0.3283
   50MOL0     C 6494   4.720   5.761   3.923 -0.3577 -0.7947 -0.5182
   50MOL0     C 6495   4.591   5.825   3.944 -0.0098  0.1071  0.2921
   50MOL0     C 6496   4.546   5.852   4.075 -0.3252  0.5197  0.2327
   50MOL0     C 6497   4.416   5.917   4.094  0.0623  0.4841  0.2298
   50MOL0     O 6498   4.348   5.860   4.199 -0.0382 -0.4115 -0.3574
   50MOL0     C 6499   4.222   5.901   4.216 -0.1801  0.7476 -0.2525
   50MOL0     C 6500   4.189   6.024   4.277 -1.3766  0.4610  0.1428
   50MOL0     C 6501   4.058   6.047   4.316  0.1616  0.1846  0.4557
   50MOL0     C 6502   3.949   5.968   4.262  0.3827  0.0855 -0.6115
   50MOL0     O 6503   3.820   6.000   4.311 -0.3633  0.2872 -0.0234
   50MOL0     C 6504   3.714   5.922   4.253  0.5531  0.5123 -0.6750
   50MOL0     C 6505   3.600   6.020   4.264  0.5668 -0.4601 -0.3129
   50MOL0     C 6506   3.462   5.948   4.223 -0.3794  0.5762  0.2141
   50MOL0     C 6507   3.411   5.845   4.326  0.1116 -0.8442  0.1009
   50MOL0     C 6508   3.266   5.802   4.307 -0.9281  0.2878  0.3489
   50MOL0     C 6509   3.161   5.918   4.326  0.1360  1.3062 -0.3054
   50MOL0     C 6510   3.013   5.868   4.315  0.2098  0.5249 -0.6840
   50MOL0     C 6511   2.933   5.920   4.435 -0.1097 -0.3966 -0.0091
   50MOL0    Cl 6512   2.763   5.885   4.416 -0.3418 -0.1524  0.0111
   50MOL0     C 6513   3.981   5.856   4.190 -0.6657  1.7385 -0.5917
   50MOL0     C 6514   4.114   5.819   4.170 -0.0962  0.2010 -0.3218
   50MOL0     O 6515   4.377   5.997   4.009  0.0966 -0.2702 -0.4156
   50MOL0     C 6516   4.610   5.802   4.182 -0.3608 -0.7328 -0.9595
   50MOL0     C 6517   4.736   5.737   4.159 -0.3551 -0.2560 -0.6746
   50MOL0     N 6518   5.398   5.906   4.176 -0.0018  1.0588  0.0636
   50MOL0     N 6519   5.509   5.958   4.149 -0.0965  0.5438  0.4799
   50MOL0     C 6520   6.583   6.302   4.499 -1.3494  0.9953 -0.5793
   50MOL0     C 6521   6.724   6.312   4.527 -0.3479 -0.7117 -0.2171
   50MOL0     C 6522   7.160   6.359   4.537 -0.4399  0.1760 -0.1178
   50MOL0     C 6523   7.212   6.473   4.479 -0.5419 -0.1061  0.2761
   50MOL0     C 6524   7.347   6.503   4.502 -1.2048  0.3655 -0.3951
   50MOL0     C 6525   7.431   6.433   4.579  0.3148 -0.8261 -0.3646
   50MOL0     O 6526   7.567   6.464   4.586 -0.8055 -0.1836  0.0162
   50MOL0     C 6527   7.669   6.367   4.619 -0.0796  0.3917 -0.0754
   50MOL0     C 6528   7.810   6.410   4.576 -0.0772 -0.0744  0.2746
   50MOL0     C 6529   7.844   6.548   4.626 -0.5420 -0.6419  0.6792
   50MOL0     C 6530   7.989   6.591   4.605  0.3018  0.2573  0.3102
   50MOL0     C 6531   8.033   6.581   4.463  0.6890 -0.2715  0.5831
   50MOL0     C 6532   8.086   6.582   4.351 -0.3056 -0.0722 -0.6489
   50MOL0     C 6533   7.383   6.314   4.637  0.0951  0.2003 -0.5911
   50MOL0     C 6534   7.247   6.276   4.621  0.0398 -0.9577  0.9570
   50MOL0     H 6535   6.803   6.454   4.230 -3.0005 -0.1063 -2.9471
   50MOL0     H 6536   6.560   6.439   4.188  1.2467  0.9870  0.9625
   50MOL0     H 6537   6.291   6.417   4.506 -2.2653  1.0442 -1.3723
   50MOL0     H 6538   6.332   6.242   4.521  2.6310  1.1625  0.3282
   50MOL0     H 6539   6.137   6.352   4.312  3.9562  1.4491 -0.8403
   50MOL0     H 6540   6.081   6.297   4.469 -1.4360 -1.3002 -1.2505
   50MOL0     H 6541   6.184   6.080   4.438 -0.2597  0.6726  0.3276
   50MOL0     H 6542   6.238   6.125   4.281 -0.2872 -0.3344  0.0991
   50MOL0     H 6543   5.944   6.117   4.373  0.7385  3.8443 -0.0037
   50MOL0     H 6544   5.985   6.147   4.207 -2.1724 -1.7836 -0.9140
   50MOL0     H 6545   5.998   5.884   4.350 -1.0948  2.7578  1.7319
   50MOL0     H 6546   6.130   5.905   4.231  0.4993  0.5589  0.7009
   50MOL0     H 6547   5.948   5.788   4.135 -2.7169  0.5535  0.1797
   50MOL0     H 6548   6.004   5.937   4.050  0.9049  1.2382  1.0489
   50MOL0     H 6549   5.755   5.916   4.234 -0.5770 -1.7779 -0.9558
   50MOL0     H 6550   5.807   6.057   4.158 -0.8783  0.3412  2.4811
   50MOL0     H 6551   5.763   5.796   4.004  0.8632  0.1368  0.3963
   50MOL0     H 6552   5.732   5.952   3.940 -3.0612 -1.9505 -1.7768
   50MOL0     H 6553   5.544   5.663   4.012 -1.2816 -1.1879 -0.9634
   50MOL0     H 6554   5.224   5.715   4.217 -0.3658 -1.6722  0.1071
   50MOL0     H 6555   5.342   5.587   4.203 -0.2902 -0.3397 -0.7908
   50MOL0     H 6556   5.295   5.593   3.951  0.3668 -0.0193 -0.5158
   50MOL0     H 6557   5.185   5.729   3.985  0.9757  2.0713  4.4543
   50MOL0     H 6558   5.091   5.489   3.958 -1.4422 -0.9702  0.7040
   50MOL0     H 6559   5.148   5.456   4.126  0.2197  1.5610  0.4419
   50MOL0     H 6560   4.990   5.641   4.211  1.0465  0.1018 -0.2767
   50MOL0     H 6561   4.919   5.508   4.119  0.5906 -0.7155 -1.8557
   50MOL0     H 6562   4.764   5.748   3.825  1.2977  0.7868 -0.0336
   50MOL0     H 6563   4.526   5.849   3.860 -0.1976  1.3945  0.7858
   50MOL0     H 6564   4.266   6.093   4.308 -0.2786 -1.1787  1.2177
   50MOL0     H 6565   4.025   6.131   4.377 -1.6704 -0.7436  0.8077
   50MOL0     H 6566   3.696   5.831   4.310 -0.3891  0.0154 -1.7208
   50MOL0     H 6567   3.725   5.897   4.147  0.2908 -2.7803 -0.0361
   50MOL0     H 6568   3.630   6.105   4.202  0.3871 -0.7020 -0.7388
   50MOL0     H 6569   3.592   6.050   4.368  1.1364 -0.7211 -0.1925
   50MOL0     H 6570   3.477   5.888   4.133 -0.3893 -0.1828  0.7093
   50MOL0     H 6571   3.384   6.022   4.204  1.0557  1.7040 -1.6216
   50MOL0     H 6572   3.476   5.757   4.331 -0.1976 -1.1567 -1.0100
   50MOL0     H 6573   3.410   5.893   4.424  0.6719 -0.2821 -0.1610
   50MOL0     H 6574   3.257   5.713   4.370  0.2093 -2.2959 -2.8248
   50MOL0     H 6575   3.263   5.760   4.206  2.7100  1.7712 -0.5451
   50MOL0     H 6576   3.177   6.008   4.266  0.3853  1.8843  0.5891
   50MOL0     H 6577   3.170   5.932   4.435 -0.0584 -2.3853  0.3108
   50MOL0     H 6578   2.964   5.911   4.226 -0.0522  0.7780 -0.4207
   50MOL0     H 6579   3.010   5.759   4.321  2.3216  0.4806  0.1012
   50MOL0     H 6580   2.933   6.029   4.444  1.2540 -0.2239 -1.5731
   50MOL0     H 6581   2.972   5.874   4.526 -0.4630 -0.3335  0.1733
   50MOL0     H 6582   3.914   5.779   4.152 -0.1208 -0.5426  2.6748
   50MOL0     H 6583   4.145   5.727   4.120  3.8176  1.3008 -0.2608
   50MOL0     H 6584   4.581   5.827   4.283  0.7258  2.5380 -1.3655
   50MOL0     H 6585   4.792   5.690   4.239  1.1051 -1.2181 -2.1814
   50MOL0     H 6586   6.514   6.277   4.579  0.0532 -0.4200  0.2382
   50MOL0     H 6587   6.753   6.283   4.627  0.2137 -0.6624 -0.3559
   50MOL0     H 6588   7.150   6.543   4.423 -0.4593 -0.1541  0.1239
   50MOL0     H 6589   7.391   6.586   4.448  4.2282 -1.3398  0.7269
   50MOL0     H 6590   7.638   6.274   4.570 -2.3545  1.6292 -1.1549
   50MOL0     H 6591   7.678   6.348   4.726 -0.1703  0.2380 -0.0934
   50MOL0     H 6592   7.882   6.333   4.606 -0.6885 -1.3995 -1.5182
   50MOL0     H 6593   7.806   6.412   4.467 -0.8170 -1.5027  0.2563
   50MOL0     H 6594   7.833   6.559   4.734  0.1040 -0.1893  0.7077
   50MOL0     H 6595   7.773   6.624   4.589  1.4121  1.1088  0.3324
   50MOL0     H 6596   8.002   6.691   4.648 -0.8026 -1.0924  4.1546
   50MOL0     H 6597   8.046   6.525   4.671 -0.7021 -2.4644 -1.3451
   50MOL0     H 6598   8.136   6.592   4.256  0.0314  2.6885 -0.2547
   50MOL0     H 6599   7.444   6.236   4.683 -0.0950 -2.0369 -3.8120
   50MOL0     H 6600   7.204   6.186   4.664  0.7844 -0.9352  1.7733
   51MOL0     O 6601   9.285   9.999   1.397 -0.4856 -0.1036 -0.8450
   51MOL0     C 6602   9.296  10.065   1.499  0.1198  0.0312 -0.5154
   51MOL0     O 6603   9.204  10.071   1.601  0.0567 -0.0089 -0.5482
   51MOL0     C 6604   9.088  10.001   1.568  0.4909 -0.0161 -0.8392
   51MOL0     C 6605   9.072   9.859   1.549 -0.3180  0.1029 -0.1610
   51MOL0     C 6606   8.949   9.816   1.494  0.5065  0.2592  0.6127
   51MOL0     C 6607   8.840   9.906   1.475  0.2649 -0.6761 -0.4479
   51MOL0     O 6608   8.728   9.859   1.412  0.4881  0.2202  0.1821
   51MOL0     C 6609   8.607   9.855   1.499  0.3615  0.0066  1.1855
   51MOL0     C 6610   8.481   9.826   1.417  0.5732 -0.2935  0.2940
   51MOL0     C 6611   8.351   9.862   1.491 -0.0192  0.1676 -0.1434
   51MOL0     C 6612   8.239   9.756   1.466 -0.9376 -0.1303 -0.3571
   51MOL0     C 6613   8.096   9.799   1.480  0.2498  0.3704  0.3385
   51MOL0     C 6614   8.005   9.678   1.493 -0.0133  0.2445 -0.3695
   51MOL0     C 6615   7.858   9.732   1.511 -0.1592  0.3062  0.1469
   51MOL0     C 6616   7.765   9.625   1.465 -0.3673 -0.7367  0.0669
   51MOL0     N 6617   7.624   9.678   1.463 -0.0559  0.6428 -0.0559
   51MOL0     C 6618   7.512   9.603   1.503  0.0174 -0.0397  0.4896
   51MOL0     C 6619   7.404   9.680   1.466  0.1822  0.4752 -0.2677
   51MOL0     C 6620   7.257   9.643   1.475 -0.5688 -0.4814  0.0898
   51MOL0     C 6621   7.157   9.758   1.513 -0.0299 -0.1642  0.5391
   51MOL0     C 6622   7.114   9.853   1.408 -0.2613 -0.3446  0.4213
   51MOL0     C 6623   7.028   9.979   1.438 -0.4384  0.1574 -0.4508
   51MOL0     O 6624   6.893   9.926   1.439 -0.0153  0.0125  0.0040
   51MOL0     C 6625   6.799   9.992   1.509  1.3117  0.3407  0.5429
   51MOL0     C 6626   6.805  10.128   1.518  0.3489  0.5545  0.4047
   51MOL0     C 6627   6.717  10.198   1.598  0.2739  0.0838 -0.6171
   51MOL0     C 6628   6.616  10.128   1.660  0.2850 -0.2153 -0.3314
   51MOL0     C 6629   6.527  10.201   1.751  0.4778  0.1800 -0.2961
   51MOL0     O 6630   6.398  10.169   1.736  0.5171 -0.1463  0.2189
   51MOL0     C 6631   6.303  10.191   1.833  0.3113 -0.3959 -0.1765
   51MOL0     C 6632   6.331  10.189   1.970 -0.4874  0.2645 -0.1529
   51MOL0     C 6633   6.239  10.231   2.066 -0.7461  0.9469 -0.6902
   51MOL0     C 6634   6.105  10.258   2.030 -0.2851 -0.4974  0.3384
   51MOL0     O 6635   6.015  10.262   2.131 -0.2382 -0.6361  0.4082
   51MOL0     C 6636   5.879  10.250   2.081  0.3272  0.1601  1.1919
   51MOL0     C 6637   5.781  10.238   2.202  0.5052 -0.8362 -0.0968
   51MOL0     C 6638   5.704  10.371   2.243  0.0955  0.5934  0.4001
   51MOL0     C 6639   5.603  10.340   2.351 -0.3316  0.0141  0.5183
   51MOL0     C 6640   5.497  10.455   2.343  0.4517  0.6049 -0.0891
   51MOL0     C 6641   5.389  10.432   2.451  0.8902  0.6071 -0.5065
   51MOL0     C 6642   5.257  10.501   2.429  0.1085 -0.2179 -0.2785
   51MOL0     C 6643   5.177  10.523   2.555  0.1435 -0.3478 -0.6303
   51MOL0    Cl 6644   5.025  10.601   2.500 -0.1662  0.2991  0.0302
   51MOL0     C 6645   6.083  10.259   1.895 -0.3027  0.2163  1.8998
   51MOL0     C 6646   6.171  10.226   1.795 -0.0851 -0.2081 -0.0631
   51MOL0     O 6647   6.572  10.288   1.832  0.7290 -0.2932 -0.5342
   51MOL0     C 6648   6.600   9.995   1.642 -0.4371 -0.2898  1.1404
   51MOL0     C 6649   6.683   9.926   1.559 -0.4318 -0.3353  0.6932
   51MOL0     N 6650   7.458   9.787   1.387  0.0941 -0.7330 -0.6947
   51MOL0     N 6651   7.585   9.780   1.390  0.0994 -0.5717  0.0805
   51MOL0     C 6652   8.854  10.038   1.509 -0.2649  0.2428 -0.1056
   51MOL0     C 6653   8.976  10.085   1.562 -0.4447 -0.0226  0.4668
   51MOL0     C 6654   9.423  10.133   1.519 -0.1930 -1.1455 -0.1162
   51MOL0     C 6655   9.522  10.113   1.416  0.8923 -0.9623  0.3081
   51MOL0     C 6656   9.645  10.172   1.441 -0.5061 -0.4453  0.1724
   51MOL0     C 6657   9.675  10.257   1.548  0.1889  0.5636 -0.0229
   51MOL0     O 6658   9.797  10.315   1.581  0.4774 -0.0355  0.4549
   51MOL0     C 6659   9.919  10.257   1.523 -0.1093 -0.4097  0.1581
   51MOL0     C 6660   9.983  10.162   1.633  0.0033  0.1933 -0.1340
   51MOL0     C 6661   9.902  10.038   1.661  0.1828 -0.3816 -0.3107
   51MOL0     C 6662   9.975   9.974   1.791 -0.4994  0.4172  1.0696
   51MOL0     C 6663   9.898   9.865   1.845  0.8810  0.6642 -0.8706
   51MOL0     C 6664   9.811   9.797   1.909 -0.8254 -0.2741  0.7611
   51MOL0     C 6665   9.572  10.288   1.638  0.3769  0.6438 -0.1303
   51MOL0     C 6666   9.449  10.219   1.623  0.0763 -0.8040  0.0837
   51MOL0     H 6667   9.160   9.797   1.563 -0.2758  0.6353  2.3759
   51MOL0     H 6668   8.932   9.713   1.462  0.7970  0.7781 -1.3274
   51MOL0     H 6669   8.601   9.959   1.532  0.8069 -0.4254  2.6955
   51MOL0     H 6670   8.625   9.782   1.578  0.6383 -2.7017 -1.1931
   51MOL0     H 6671   8.482   9.718   1.407  0.5000 -0.5616  2.5668
   51MOL0     H 6672   8.480   9.881   1.323 -4.2248  0.2644  0.4306
   51MOL0     H 6673   8.317   9.958   1.451 -1.2285 -1.0382 -2.2091
   51MOL0     H 6674   8.368   9.869   1.598  0.3663  3.1965 -0.3223
   51MOL0     H 6675   8.255   9.726   1.362 -1.0962  0.4293 -0.5462
   51MOL0     H 6676   8.257   9.677   1.539 -1.5874 -0.6148 -0.7045
   51MOL0     H 6677   8.060   9.852   1.392 -2.6464 -1.5460  0.2303
   51MOL0     H 6678   8.090   9.853   1.575  0.5030  0.0356  0.5493
   51MOL0     H 6679   8.034   9.622   1.583 -0.7969 -0.8246 -0.7677
   51MOL0     H 6680   8.016   9.614   1.405 -0.8713 -0.2642 -0.1146
   51MOL0     H 6681   7.835   9.758   1.615 -1.7937 -1.1363  0.1941
   51MOL0     H 6682   7.841   9.817   1.445 -1.8393  1.0407  1.4554
   51MOL0     H 6683   7.775   9.545   1.539  0.9827  0.1895  0.9248
   51MOL0     H 6684   7.781   9.593   1.361 -1.0823 -0.1895 -0.2235
   51MOL0     H 6685   7.515   9.511   1.561  0.3476 -1.1205 -1.2033
   51MOL0     H 6686   7.254   9.552   1.534 -1.2071 -2.4011 -2.7043
   51MOL0     H 6687   7.229   9.601   1.378  0.3998 -1.3671  0.1787
   51MOL0     H 6688   7.209   9.815   1.590 -1.1918 -1.0021  1.9906
   51MOL0     H 6689   7.063   9.727   1.560 -0.8344  1.8617  0.3735
   51MOL0     H 6690   7.207   9.893   1.366 -0.5879 -0.1683 -0.1401
   51MOL0     H 6691   7.050   9.794   1.342 -0.2242  1.1841 -1.0500
   51MOL0     H 6692   7.036  10.048   1.354 -2.8899 -0.2878 -1.1545
   51MOL0     H 6693   7.050  10.024   1.535 -1.5081 -1.5574  0.6661
   51MOL0     H 6694   6.885  10.174   1.462  0.2215 -1.7865 -1.9043
   51MOL0     H 6695   6.714  10.306   1.601 -1.2765  0.0625  2.9192
   51MOL0     H 6696   6.431  10.166   2.005 -1.0030 -0.9723  0.5849
   51MOL0     H 6697   6.274  10.224   2.169  0.2292 -0.6580 -1.1054
   51MOL0     H 6698   5.872  10.159   2.020  0.1788 -0.0397  1.5023
   51MOL0     H 6699   5.847  10.336   2.022 -0.5442 -0.7420  0.2966
   51MOL0     H 6700   5.843  10.193   2.280  0.6097 -0.5449 -0.0118
   51MOL0     H 6701   5.716  10.151   2.188 -0.1749 -0.2583 -0.5908
   51MOL0     H 6702   5.653  10.416   2.158 -1.1341  1.9097  1.7847
   51MOL0     H 6703   5.779  10.446   2.270  0.6838 -0.1718  0.9757
   51MOL0     H 6704   5.569  10.237   2.345  4.3764 -1.7499 -0.0820
   51MOL0     H 6705   5.643  10.343   2.452 -0.3248  0.1417  0.5128
   51MOL0     H 6706   5.438  10.463   2.251 -3.5847  2.6730  2.4428
   51MOL0     H 6707   5.546  10.552   2.359  1.6852  0.2915 -1.6375
   51MOL0     H 6708   5.440  10.464   2.542  3.9154 -1.7363 -1.1799
   51MOL0     H 6709   5.372  10.324   2.456  1.9110  0.4328 -0.5532
   51MOL0     H 6710   5.275  10.596   2.378 -1.7220  1.3298  1.7761
   51MOL0     H 6711   5.190  10.432   2.377  2.5964 -5.0007  2.2236
   51MOL0     H 6712   5.230  10.588   2.625  0.6112  0.5439 -1.7945
   51MOL0     H 6713   5.164  10.421   2.593  2.0626 -0.5418 -0.3763
   51MOL0     H 6714   5.988  10.291   1.854  1.4187 -0.2581 -3.1342
   51MOL0     H 6715   6.148  10.216   1.690 -1.6497 -0.8041  0.3083
   51MOL0     H 6716   6.525   9.940   1.697 -1.7185  0.9882  0.7184
   51MOL0     H 6717   6.682   9.821   1.535 -0.5596  0.6622 -4.7643
   51MOL0     H 6718   8.768  10.103   1.494 -1.3899 -1.6298 -2.5770
   51MOL0     H 6719   8.986  10.190   1.588  0.3982 -0.0357  0.2170
   51MOL0     H 6720   9.517  10.044   1.333 -1.7057 -2.1079  1.3067
   51MOL0     H 6721   9.717  10.168   1.360 -0.5024  1.8609 -0.0058
   51MOL0     H 6722   9.988  10.340   1.503  1.7955 -1.6440  1.3204
   51MOL0     H 6723   9.909  10.200   1.430 -0.0756  0.0981 -0.1649
   51MOL0     H 6724  10.088  10.141   1.611  0.2108 -1.1818  1.9256
   51MOL0     H 6725   9.987  10.222   1.724 -1.7541 -0.7853  0.6281
   51MOL0     H 6726   9.918   9.972   1.576  1.4754  2.8574 -2.8162
   51MOL0     H 6727   9.795  10.059   1.672  0.3560  0.0964  0.6144
   51MOL0     H 6728  10.067   9.925   1.759  0.2618  1.8981  0.9002
   51MOL0     H 6729  10.009  10.046   1.866 -1.1736  1.2041  0.6410
   51MOL0     H 6730   9.734   9.743   1.960 -2.6111  0.8335 -0.6445
   51MOL0     H 6731   9.595  10.347   1.726  2.4602 -0.2978  0.0000
   51MOL0     H 6732   9.367  10.235   1.693 -1.7496 -3.1243 -1.3940
   52MOL0     O 6733   2.053   1.990  10.299  0.1225  0.2681  0.3200
   52MOL0     C 6734   2.133   2.075  10.293 -0.4132  0.2055  0.1418
   52MOL0     O 6735   2.107   2.199  10.239  0.0009 -0.2433 -0.0475
   52MOL0     C 6736   1.981   2.242  10.194  0.1538  0.5277 -0.0730
   52MOL0     C 6737   1.971   2.299  10.068  0.7454 -0.4861 -0.5237
   52MOL0     C 6738   1.852   2.350  10.017 -0.3097  0.1166  0.0555
   52MOL0     C 6739   1.740   2.359  10.106  0.2357 -0.5394 -1.1136
   52MOL0     O 6740   1.631   2.416  10.049 -0.0691 -1.1556  0.1081
   52MOL0     C 6741   1.507   2.380  10.102  0.4290  0.3993  0.7465
   52MOL0     C 6742   1.404   2.440  10.011  0.4201 -0.0086 -0.2951
   52MOL0     C 6743   1.263   2.372  10.009 -0.6062  0.1735  1.2049
   52MOL0     C 6744   1.143   2.463   9.998  0.0803  0.6513 -0.1238
   52MOL0     C 6745   1.080   2.480  10.143 -0.3080  0.5641  0.7597
   52MOL0     C 6746   0.961   2.575  10.132  0.3092 -0.4071 -0.6029
   52MOL0     C 6747   0.840   2.523  10.052 -0.6919  0.3767  0.2734
   52MOL0     C 6748   0.764   2.419  10.123  0.1197  0.1494 -0.1192
   52MOL0     N 6749   0.645   2.366  10.057 -0.1515  1.2830 -0.1440
   52MOL0     C 6750   0.598   2.239  10.074  0.6474  0.5838  0.8064
   52MOL0     C 6751   0.477   2.248  10.005 -0.4793  0.2412  0.1231
   52MOL0     C 6752   0.395   2.129   9.987 -0.5338 -0.9233  0.3699
   52MOL0     C 6753   0.253   2.158   9.921 -0.1847 -0.4031 -0.2542
   52MOL0     C 6754   0.167   2.227  10.017 -0.1475 -0.2056  0.2224
   52MOL0     C 6755   0.020   2.240   9.968 -0.0458 -0.5505 -0.1784
   52MOL0     O 6756  -0.055   2.306  10.072  0.2624 -0.7618 -0.0720
   52MOL0     C 6757  -0.189   2.316  10.046  0.3071 -0.1554  0.3903
   52MOL0     C 6758  -0.252   2.287   9.929 -0.5309 -0.4105  0.7798
   52MOL0     C 6759  -0.391   2.311   9.911 -0.2221 -0.4277 -0.5140
   52MOL0     C 6760  -0.470   2.368  10.019 -0.4934 -0.6234  0.1646
   52MOL0     C 6761  -0.614   2.398   9.995 -0.0043  0.6510 -0.2485
   52MOL0     O 6762  -0.679   2.485  10.080  0.3517  0.2719 -0.5195
   52MOL0     C 6763  -0.815   2.505  10.067  0.8117  0.6121  0.5264
   52MOL0     C 6764  -0.869   2.576   9.956 -0.7755  0.1354  0.8816
   52MOL0     C 6765  -0.998   2.605   9.936  0.0577 -0.6647 -0.1094
   52MOL0     C 6766  -1.089   2.568  10.038 -0.3158 -0.5553 -0.0765
   52MOL0     O 6767  -1.222   2.594  10.026 -0.8398  0.2823 -0.8470
   52MOL0     C 6768  -1.291   2.474   9.992  0.5838  0.1426 -0.1712
   52MOL0     C 6769  -1.413   2.520   9.909 -0.6960  0.7183 -1.0384
   52MOL0     C 6770  -1.525   2.417   9.925  1.0592  0.1675  0.3919
   52MOL0     C 6771  -1.669   2.473   9.937  0.0402  0.1529  0.4207
   52MOL0     C 6772  -1.775   2.356   9.947 -0.1212 -0.1392  0.2849
   52MOL0     C 6773  -1.913   2.407   9.919  0.3016 -0.6083  0.3874
   52MOL0     C 6774  -2.012   2.296   9.937  0.2196  0.8452  1.0082
   52MOL0     C 6775  -2.157   2.330   9.899 -0.7012 -0.2898  0.0608
   52MOL0    Cl 6776  -2.270   2.201   9.940 -0.0561 -0.2614  0.0862
   52MOL0     C 6777  -1.043   2.492  10.143  0.0904  0.0467  0.3269
   52MOL0     C 6778  -0.906   2.464  10.163  0.4427  0.1585  0.2511
   52MOL0     O 6779  -0.673   2.330   9.914  0.3465  0.1985  0.0604
   52MOL0     C 6780  -0.394   2.410  10.136  0.3983 -0.1761  0.6238
   52MOL0     C 6781  -0.258   2.370  10.150  0.6712 -0.0110 -0.0464
   52MOL0     N 6782   0.451   2.376   9.975  0.4609 -0.0283 -0.1032
   52MOL0     N 6783   0.555   2.448  10.005  0.8058  0.2854  0.7996
   52MOL0     C 6784   1.743   2.292  10.233  0.2379 -0.1164  0.3583
   52MOL0     C 6785   1.867   2.237  10.276 -0.7468 -0.1706 -0.0361
   52MOL0     C 6786   2.269   2.039  10.315 -1.3663 -0.2582 -0.4724
   52MOL0     C 6787   2.307   1.915  10.372 -0.1577  0.1945 -0.8989
   52MOL0     C 6788   2.441   1.874  10.377 -0.3987  0.2358  0.8162
   52MOL0     C 6789   2.542   1.961  10.324 -1.1181  0.8602 -0.5488
   52MOL0     O 6790   2.673   1.906  10.338 -0.0618  0.3993  0.4250
   52MOL0     C 6791   2.796   1.967  10.291 -0.1834  0.4596 -0.2599
   52MOL0     C 6792   2.906   1.871  10.330  0.2417  0.0380  0.4996
   52MOL0     C 6793   3.030   1.940  10.376  0.3024 -0.4159 -0.5926
   52MOL0     C 6794   3.119   1.996  10.266  0.3619  0.0533  0.3471
   52MOL0     C 6795   3.053   2.114  10.211  0.3962 -0.5609 -1.0354
   52MOL0     C 6796   3.006   2.216  10.176 -0.2488  0.3791  0.3846
   52MOL0     C 6797   2.504   2.075  10.252  0.6165 -0.2336  0.8629
   52MOL0     C 6798   2.371   2.120  10.253 -0.7521  0.0468  0.3505
   52MOL0     H 6799   2.060   2.306  10.007  1.1687 -0.2054  0.1224
   52MOL0     H 6800   1.863   2.378   9.913  2.6820 -0.6694  0.0483
   52MOL0     H 6801   1.502   2.431  10.198 -0.3590  0.8205  0.4940
   52MOL0     H 6802   1.500   2.271  10.103 -0.8780  0.4622  0.3915
   52MOL0     H 6803   1.442   2.439   9.908  0.0595 -3.0587 -0.5168
   52MOL0     H 6804   1.400   2.546  10.037 -2.2136  0.2351 -1.2952
   52MOL0     H 6805   1.246   2.300  10.089 -0.3449  0.4169  1.4795
   52MOL0     H 6806   1.273   2.309   9.919  1.2212 -3.0201  3.4319
   52MOL0     H 6807   1.184   2.559   9.967  0.6136  0.5592  0.2739
   52MOL0     H 6808   1.072   2.419   9.927  0.5206  1.6814 -1.2545
   52MOL0     H 6809   1.157   2.526  10.205 -0.3331  0.2516  1.0277
   52MOL0     H 6810   1.044   2.387  10.188  0.2843 -0.1481 -0.2159
   52MOL0     H 6811   0.990   2.670  10.087  1.0590  0.3474  1.3241
   52MOL0     H 6812   0.925   2.606  10.231  2.2593  1.1358 -0.3174
   52MOL0     H 6813   0.775   2.605  10.020  0.3951  0.8892 -0.6879
   52MOL0     H 6814   0.873   2.466   9.964 -1.1293  0.7593 -0.1454
   52MOL0     H 6815   0.728   2.474  10.210  3.2667  1.4644  0.4838
   52MOL0     H 6816   0.833   2.345  10.164 -1.1968 -0.2999  1.3913
   52MOL0     H 6817   0.655   2.159  10.121  1.6163  1.2568  0.8144
   52MOL0     H 6818   0.387   2.078  10.084 -0.6115 -2.0488 -0.2097
   52MOL0     H 6819   0.450   2.050   9.935 -1.0628 -2.9299  2.6494
   52MOL0     H 6820   0.193   2.070   9.894 -1.2571 -0.1953  1.3050
   52MOL0     H 6821   0.270   2.220   9.833 -1.5661 -0.7284 -0.7866
   52MOL0     H 6822   0.158   2.170  10.110 -3.0983  0.4093  0.4028
   52MOL0     H 6823   0.196   2.329  10.044 -2.7127  0.5306  0.4510
   52MOL0     H 6824  -0.002   2.136   9.942 -0.0163 -0.3996 -0.8250
   52MOL0     H 6825   0.013   2.302   9.878 -0.5145  5.3413  3.3545
   52MOL0     H 6826  -0.188   2.255   9.847  0.2398 -0.9542  1.5735
   52MOL0     H 6827  -0.443   2.285   9.819 -0.5766 -0.9096 -0.1858
   52MOL0     H 6828  -0.799   2.621   9.887  1.9340 -1.3532  2.4582
   52MOL0     H 6829  -1.026   2.668   9.852  0.5143 -0.1090  0.1454
   52MOL0     H 6830  -1.318   2.427  10.086 -3.2365 -3.4335 -2.7094
   52MOL0     H 6831  -1.232   2.405   9.930  0.2035 -2.7651  2.4791
   52MOL0     H 6832  -1.387   2.542   9.805 -4.3880  3.6922 -1.5460
   52MOL0     H 6833  -1.453   2.616   9.942 -1.9767 -0.3614  0.6804
   52MOL0     H 6834  -1.509   2.331   9.989 -2.0835 -3.9132 -3.6650
   52MOL0     H 6835  -1.527   2.363   9.830  2.5869 -1.1928  1.0742
   52MOL0     H 6836  -1.677   2.540  10.024  0.8142  0.6505  0.1164
   52MOL0     H 6837  -1.693   2.537   9.851  1.6825  0.6262  0.2851
   52MOL0     H 6838  -1.760   2.326  10.052 -2.2694  0.3207  0.7582
   52MOL0     H 6839  -1.745   2.274   9.881  1.5441  0.0117  0.7996
   52MOL0     H 6840  -1.914   2.443   9.815  1.9259  0.4854  0.6993
   52MOL0     H 6841  -1.932   2.494   9.982 -0.8707  0.2001 -1.0230
   52MOL0     H 6842  -1.980   2.210   9.877 -0.9051  1.5263 -0.6404
   52MOL0     H 6843  -2.009   2.256  10.039  2.0221 -0.1028  0.6315
   52MOL0     H 6844  -2.181   2.356   9.795 -0.1742  2.6996  0.5921
   52MOL0     H 6845  -2.181   2.420   9.957  1.9719  2.6285 -2.8884
   52MOL0     H 6846  -1.111   2.457  10.220  0.3252  2.0621  1.5097
   52MOL0     H 6847  -0.876   2.409  10.251  0.2580 -1.4372 -0.6580
   52MOL0     H 6848  -0.444   2.444  10.226  1.2577 -0.5384  1.2513
   52MOL0     H 6849  -0.212   2.404  10.243 -3.0395 -1.0678  2.4209
   52MOL0     H 6850   1.666   2.281  10.308  0.4505 -0.7827  0.4884
   52MOL0     H 6851   1.866   2.200  10.378 -4.2662  2.6484  1.1823
   52MOL0     H 6852   2.228   1.843  10.395 -2.5699  2.2143 -2.2989
   52MOL0     H 6853   2.465   1.771  10.399 -0.4133 -0.3118 -1.5176
   52MOL0     H 6854   2.803   2.062  10.346  0.2332 -1.5999  3.6243
   52MOL0     H 6855   2.800   1.981  10.183 -0.7172 -1.2432 -0.5240
   52MOL0     H 6856   2.875   1.811  10.415 -1.1681  0.1351  0.0856
   52MOL0     H 6857   2.919   1.806  10.243 -3.6535  1.7341 -1.6427
   52MOL0     H 6858   3.096   1.862  10.414  0.6591 -0.4193 -1.2125
   52MOL0     H 6859   3.006   2.015  10.452 -0.1239 -0.2294 -0.9038
   52MOL0     H 6860   3.213   2.022  10.317 -0.6957  0.0341  2.4170
   52MOL0     H 6861   3.146   1.913  10.201  0.0600  0.7555 -0.6953
   52MOL0     H 6862   2.963   2.309  10.145  1.4495  2.0218  2.6125
   52MOL0     H 6863   2.578   2.143  10.211  0.3999 -1.1605 -1.1584
   52MOL0     H 6864   2.359   2.220  10.214 -2.9690 -1.2520 -2.6627
   53MOL0     O 6865   9.959   8.316   8.083  0.2946 -0.0495  0.1491
   53MOL0     C 6866  10.057   8.386   8.083 -0.1070 -0.3257  0.2588
   53MOL0     O 6867  10.068   8.502   8.148 -0.4408  0.3616  0.2513
   53MOL0     C 6868   9.954   8.550   8.204  0.8192  0.6049 -0.3258
   53MOL0     C 6869   9.847   8.615   8.134 -1.0614 -0.4406 -0.4895
   53MOL0     C 6870   9.748   8.686   8.198  0.1625 -0.0367 -1.1347
   53MOL0     C 6871   9.722   8.670   8.334  0.3925 -0.4440  0.4320
   53MOL0     O 6872   9.608   8.722   8.390  0.2276 -0.7716 -0.0454
   53MOL0     C 6873   9.575   8.694   8.520  0.5187  0.0973  0.2193
   53MOL0     C 6874   9.447   8.780   8.554  0.1575  0.9276 -0.3311
   53MOL0     C 6875   9.322   8.752   8.469  0.5885  0.1510 -0.0352
   53MOL0     C 6876   9.200   8.830   8.503  0.5765 -0.8994  0.7095
   53MOL0     C 6877   9.094   8.775   8.412 -0.1074  0.1147  0.4136
   53MOL0     C 6878   8.957   8.853   8.414  0.0746  0.2436 -0.0092
   53MOL0     C 6879   8.851   8.772   8.332  1.4661 -0.4519  0.4780
   53MOL0     C 6880   8.895   8.768   8.184 -0.7586 -0.0054 -0.4345
   53MOL0     N 6881   8.776   8.760   8.093 -0.3704  0.4195  0.1605
   53MOL0     C 6882   8.723   8.865   8.018  0.3304  1.0537  0.1790
   53MOL0     C 6883   8.595   8.820   7.987 -0.5748  0.7752  0.4209
   53MOL0     C 6884   8.483   8.889   7.911 -0.5410  0.1535 -0.0593
   53MOL0     C 6885   8.559   8.936   7.785  0.0119 -0.1731  0.2561
   53MOL0     C 6886   8.459   9.009   7.681  0.1053  0.8222  0.5211
   53MOL0     C 6887   8.391   8.898   7.604  0.1820 -0.2802 -0.2503
   53MOL0     O 6888   8.298   8.950   7.505 -0.3083 -0.3797  0.3125
   53MOL0     C 6889   8.359   9.001   7.390  0.1325 -0.4666 -0.0340
   53MOL0     C 6890   8.294   9.106   7.332  0.6723 -0.3332 -0.1735
   53MOL0     C 6891   8.343   9.157   7.211  0.5622 -0.4847 -0.4131
   53MOL0     C 6892   8.461   9.109   7.148  0.0980  0.0229 -0.7691
   53MOL0     C 6893   8.498   9.168   7.018  0.1392  0.2520  0.2600
   53MOL0     O 6894   8.465   9.301   6.997  0.9347  0.4214 -0.3799
   53MOL0     C 6895   8.466   9.347   6.863  0.2044 -0.5699 -0.5530
   53MOL0     C 6896   8.576   9.354   6.773 -0.7162 -0.6336  0.0023
   53MOL0     C 6897   8.550   9.389   6.641  0.5750  1.0476  0.2723
   53MOL0     C 6898   8.420   9.418   6.592 -1.1624 -0.4877  0.5950
   53MOL0     O 6899   8.394   9.455   6.458 -0.0128  0.2935 -0.1510
   53MOL0     C 6900   8.452   9.362   6.361 -0.5867  0.5279 -0.3808
   53MOL0     C 6901   8.395   9.218   6.387 -0.0616 -0.0755  0.2849
   53MOL0     C 6902   8.240   9.212   6.398 -0.2224  0.7864 -0.4536
   53MOL0     C 6903   8.199   9.069   6.358  0.0964 -0.1242  0.5584
   53MOL0     C 6904   8.187   9.067   6.201  0.5928 -0.2003  0.4951
   53MOL0     C 6905   8.040   9.069   6.150 -0.5192  0.8559  0.1495
   53MOL0     C 6906   8.018   9.082   5.997 -0.7197 -1.7998 -0.4804
   53MOL0     C 6907   7.992   8.948   5.934  0.4903 -0.1076 -0.6229
   53MOL0    Cl 6908   8.131   8.830   5.945  0.3560  0.1864  0.4868
   53MOL0     C 6909   8.319   9.432   6.679 -1.5093  0.4543 -0.1618
   53MOL0     C 6910   8.347   9.410   6.818  0.3484  0.4971  0.4762
   53MOL0     O 6911   8.566   9.096   6.940 -0.3901  0.4352  0.6425
   53MOL0     C 6912   8.534   9.002   7.210 -0.5824 -1.3216 -0.5284
   53MOL0     C 6913   8.481   8.954   7.331 -0.9888  0.2161  0.6308
   53MOL0     N 6914   8.565   8.710   8.055  0.1936 -0.1046 -0.4417
   53MOL0     N 6915   8.674   8.675   8.122 -0.3324 -0.4301  1.1941
   53MOL0     C 6916   9.828   8.610   8.408 -0.3982  0.0298 -0.8344
   53MOL0     C 6917   9.941   8.560   8.343 -0.3206 -0.2778  0.5888
   53MOL0     C 6918  10.167   8.334   7.994 -0.4172  0.8730 -0.7355
   53MOL0     C 6919  10.272   8.413   7.947 -0.5049  0.1454 -0.5560
   53MOL0     C 6920  10.374   8.372   7.864 -0.2999  0.5720 -0.1590
   53MOL0     C 6921  10.373   8.241   7.822 -0.7739 -0.1818  0.8961
   53MOL0     O 6922  10.458   8.182   7.727  0.2751  0.9866  0.2019
   53MOL0     C 6923  10.559   8.268   7.664  0.0719  0.0406 -0.2579
   53MOL0     C 6924  10.685   8.255   7.758 -0.4312 -0.8055 -0.1662
   53MOL0     C 6925  10.802   8.354   7.724  0.3519 -0.3688  0.9789
   53MOL0     C 6926  10.783   8.500   7.747 -0.4745  0.7843 -0.2915
   53MOL0     C 6927  10.714   8.542   7.867 -0.3750  0.1568  0.5166
   53MOL0     C 6928  10.667   8.601   7.962  0.0353  0.0757 -0.3095
   53MOL0     C 6929  10.270   8.157   7.867 -0.3444  0.4207  0.3721
   53MOL0     C 6930  10.161   8.204   7.940 -0.4584 -0.1434  0.2579
   53MOL0     H 6931   9.858   8.617   8.026  0.4032  0.3698 -0.3623
   53MOL0     H 6932   9.669   8.743   8.151  1.7525  1.6325 -1.9122
   53MOL0     H 6933   9.651   8.728   8.591 -0.4602 -1.5922  2.1886
   53MOL0     H 6934   9.559   8.587   8.536  1.9777  0.2127  3.0392
   53MOL0     H 6935   9.481   8.880   8.526  0.4541  0.0230 -3.5629
   53MOL0     H 6936   9.414   8.768   8.658 -0.1944 -0.0091 -0.5398
   53MOL0     H 6937   9.288   8.648   8.479 -2.3152  0.5175 -3.8685
   53MOL0     H 6938   9.339   8.777   8.364  1.5772 -0.2456  0.0243
   53MOL0     H 6939   9.182   8.818   8.610 -1.0681 -0.2670  0.5353
   53MOL0     H 6940   9.214   8.935   8.476  0.8727 -1.4417 -1.4677
   53MOL0     H 6941   9.073   8.673   8.447  1.6249  0.5435  3.0107
   53MOL0     H 6942   9.121   8.780   8.306 -1.5803  3.4057  0.0995
   53MOL0     H 6943   8.969   8.951   8.365  2.2189 -0.2677 -0.6141
   53MOL0     H 6944   8.915   8.857   8.515  0.3198  1.5896  0.0576
   53MOL0     H 6945   8.836   8.670   8.368  0.6332 -0.5371 -0.0796
   53MOL0     H 6946   8.757   8.828   8.338  2.1936  0.6422  2.3124
   53MOL0     H 6947   8.958   8.681   8.167  2.3150  1.8201  0.8430
   53MOL0     H 6948   8.953   8.860   8.168  1.5200 -1.2951 -0.0169
   53MOL0     H 6949   8.781   8.949   7.982  1.8092 -0.9695 -2.5517
   53MOL0     H 6950   8.437   8.975   7.962  1.6695  2.0356 -1.0730
   53MOL0     H 6951   8.403   8.820   7.882 -1.0907  1.4006 -1.6636
   53MOL0     H 6952   8.626   8.860   7.743 -2.1578 -3.2753  2.0096
   53MOL0     H 6953   8.632   9.013   7.814  1.8533 -2.1211  1.0204
   53MOL0     H 6954   8.380   9.070   7.726 -2.5513 -0.8632 -1.4721
   53MOL0     H 6955   8.518   9.076   7.617  0.7973  0.5156  0.8291
   53MOL0     H 6956   8.328   8.836   7.668  1.1175 -3.0410 -1.8689
   53MOL0     H 6957   8.463   8.826   7.565 -0.0813 -1.1641  0.8461
   53MOL0     H 6958   8.200   9.136   7.378  1.1283  2.3287 -0.8086
   53MOL0     H 6959   8.275   9.227   7.164 -0.2123 -0.3421  0.8527
   53MOL0     H 6960   8.676   9.327   6.806 -0.4027 -2.9662 -2.5191
   53MOL0     H 6961   8.630   9.373   6.569  0.5820 -0.9949  0.6786
   53MOL0     H 6962   8.561   9.372   6.359 -0.6640  1.5360  0.0928
   53MOL0     H 6963   8.408   9.382   6.262 -1.8046  0.3927  0.1222
   53MOL0     H 6964   8.444   9.183   6.478 -1.8969  3.0786  2.7003
   53MOL0     H 6965   8.429   9.158   6.302 -1.4310  0.4501 -0.6850
   53MOL0     H 6966   8.192   9.289   6.337 -1.7944 -0.1224 -0.4136
   53MOL0     H 6967   8.214   9.231   6.502  1.8438  1.8780 -0.0885
   53MOL0     H 6968   8.281   9.003   6.386  1.2597  0.4667 -1.2194
   53MOL0     H 6969   8.103   9.043   6.401  0.1924 -0.8936  0.3128
   53MOL0     H 6970   8.215   8.965   6.176 -1.5028 -0.8566  0.6621
   53MOL0     H 6971   8.238   9.143   6.140 -2.1629  1.2505 -0.2226
   53MOL0     H 6972   7.990   9.157   6.192 -1.7068 -0.0628  0.6958
   53MOL0     H 6973   7.986   8.984   6.192 -0.7410 -0.1775 -2.1369
   53MOL0     H 6974   7.927   9.141   5.985  0.5421  0.8236  1.7141
   53MOL0     H 6975   8.099   9.125   5.937  0.1348 -2.7546 -0.0554
   53MOL0     H 6976   7.971   8.959   5.828 -0.6100  1.3375 -0.2945
   53MOL0     H 6977   7.904   8.901   5.980  0.9703  0.1907  0.6378
   53MOL0     H 6978   8.222   9.448   6.632 -1.6593 -1.0165 -0.3787
   53MOL0     H 6979   8.273   9.441   6.892 -0.7581 -3.3065  1.1658
   53MOL0     H 6980   8.611   8.953   7.151 -2.1312  1.5813 -5.6024
   53MOL0     H 6981   8.533   8.868   7.373  0.5793  0.4830 -0.6683
   53MOL0     H 6982   9.817   8.604   8.515 -1.2435  1.4291 -0.8226
   53MOL0     H 6983  10.030   8.528   8.397 -0.5354 -1.5640  0.2373
   53MOL0     H 6984  10.285   8.516   7.981  0.5656  0.8732 -2.9295
   53MOL0     H 6985  10.455   8.441   7.842  0.4784 -0.5157 -0.8170
   53MOL0     H 6986  10.520   8.369   7.676  1.6182  0.3486  4.9101
   53MOL0     H 6987  10.572   8.221   7.566  1.1312 -0.9704  0.3398
   53MOL0     H 6988  10.658   8.282   7.861 -0.6490  1.4096 -0.7572
   53MOL0     H 6989  10.728   8.154   7.751 -2.4093 -1.5832 -2.6803
   53MOL0     H 6990  10.836   8.341   7.621 -2.6945  2.2092 -0.5094
   53MOL0     H 6991  10.879   8.328   7.797  0.8350 -2.0649 -0.0779
   53MOL0     H 6992  10.877   8.552   7.732  0.0415 -0.5705 -2.0741
   53MOL0     H 6993  10.707   8.526   7.672 -1.1876 -0.3154  0.0129
   53MOL0     H 6994  10.630   8.655   8.047 -3.1192 -0.9337 -0.8702
   53MOL0     H 6995  10.271   8.057   7.827 -0.5699  0.8054 -0.6261
   53MOL0     H 6996  10.078   8.136   7.951  0.1542 -1.0097 -0.3528
   54MOL0     O 6997   4.058  10.125   4.763 -0.1806  0.1637 -0.1547
   54MOL0     C 6998   4.100  10.177   4.867  1.0526 -0.2723 -0.8563
   54MOL0     O 6999   4.049  10.151   4.987 -0.6265  0.0647  0.1482
   54MOL0     C 7000   3.944  10.064   5.014 -0.0092  0.3028  0.0503
   54MOL0     C 7001   3.815  10.065   4.957 -0.1372 -0.6482  0.1130
   54MOL0     C 7002   3.723   9.971   4.984  1.0956  1.3801  0.1194
   54MOL0     C 7003   3.751   9.867   5.078  0.3471  0.5049  1.0798
   54MOL0     O 7004   3.666   9.765   5.108 -0.1608  0.3103 -0.3048
   54MOL0     C 7005   3.541   9.762   5.043 -0.4932  0.0789 -0.9626
   54MOL0     C 7006   3.445   9.666   5.101  0.1770 -0.5382  0.1324
   54MOL0     C 7007   3.345   9.614   4.999 -1.2959 -0.4021  0.6368
   54MOL0     C 7008   3.235   9.531   5.079 -0.1657  0.2602 -0.3843
   54MOL0     C 7009   3.293   9.408   5.145 -0.0732  0.3132 -0.7279
   54MOL0     C 7010   3.195   9.322   5.218 -0.7450 -0.3685  0.9278
   54MOL0     C 7011   3.108   9.239   5.121 -0.8675  0.5949 -0.1488
   54MOL0     C 7012   2.969   9.180   5.180 -0.2676 -0.2151 -0.6370
   54MOL0     N 7013   2.877   9.121   5.087  0.2110  0.5071  0.7681
   54MOL0     C 7014   2.913   9.032   4.990  0.3435 -0.4372 -0.2177
   54MOL0     C 7015   2.797   9.002   4.931 -0.2110 -0.2504  1.3489
   54MOL0     C 7016   2.770   8.903   4.820 -0.1997 -0.6477 -0.1922
   54MOL0     C 7017   2.748   8.759   4.866  0.0575 -0.5205 -0.3635
   54MOL0     C 7018   2.616   8.736   4.946 -0.2023 -0.9315 -0.5272
   54MOL0     C 7019   2.494   8.757   4.860 -0.1202 -0.0700 -0.2598
   54MOL0     O 7020   2.379   8.725   4.937 -0.2423 -0.4768  0.8152
   54MOL0     C 7021   2.260   8.716   4.875 -0.2057  1.1180  0.8064
   54MOL0     C 7022   2.154   8.663   4.948  0.8505 -0.3408 -0.3824
   54MOL0     C 7023   2.025   8.644   4.895  0.0588 -0.0595 -0.1567
   54MOL0     C 7024   2.006   8.677   4.752  1.1931  0.2186  0.0343
   54MOL0     C 7025   1.883   8.622   4.687 -0.0541 -0.7281 -0.8171
   54MOL0     O 7026   1.885   8.625   4.551 -0.7339 -0.5430  0.5741
   54MOL0     C 7027   1.775   8.580   4.485  0.3541  0.6945  0.6503
   54MOL0     C 7028   1.719   8.452   4.504 -0.7319  0.0215  0.0265
   54MOL0     C 7029   1.605   8.409   4.448 -0.4432 -0.8296  0.2610
   54MOL0     C 7030   1.531   8.502   4.362 -0.2484  0.3132  0.4361
   54MOL0     O 7031   1.423   8.450   4.286 -0.2226 -0.8049 -0.0141
   54MOL0     C 7032   1.317   8.539   4.289 -0.0751  0.1370  0.8921
   54MOL0     C 7033   1.190   8.499   4.225 -0.0604  0.0452  0.1169
   54MOL0     C 7034   1.126   8.602   4.118  0.2830 -0.0994 -0.2239
   54MOL0     C 7035   0.985   8.567   4.086  0.7216 -0.8946  0.0316
   54MOL0     C 7036   0.907   8.670   3.993  0.2882 -0.0289  0.3835
   54MOL0     C 7037   0.926   8.669   3.839  0.8604 -0.7973  0.2291
   54MOL0     C 7038   0.906   8.534   3.758 -0.2806 -0.1785  0.0062
   54MOL0     C 7039   0.900   8.567   3.610  0.5188 -0.4126  0.0489
   54MOL0    Cl 7040   1.065   8.631   3.569 -0.6952  0.3169 -0.5040
   54MOL0     C 7041   1.585   8.629   4.349 -0.8150 -0.8459  0.5334
   54MOL0     C 7042   1.704   8.670   4.410 -0.4296 -0.5589  0.5017
   54MOL0     O 7043   1.799   8.567   4.762 -0.1959 -0.0333  0.2291
   54MOL0     C 7044   2.111   8.726   4.677  0.6227  0.3690 -0.5202
   54MOL0     C 7045   2.232   8.743   4.739  0.4707 -0.3463 -0.4386
   54MOL0     N 7046   2.687   9.070   4.983 -0.1345 -0.1989  0.1254
   54MOL0     N 7047   2.737   9.138   5.080  0.1872 -0.5968 -0.1021
   54MOL0     C 7048   3.879   9.858   5.135 -0.0805 -0.6120  0.2689
   54MOL0     C 7049   3.975   9.961   5.107 -0.4682  0.1379 -0.3919
   54MOL0     C 7050   4.229  10.259   4.849  0.9397 -0.1894 -0.2219
   54MOL0     C 7051   4.276  10.338   4.953  0.2365 -0.6256 -0.1110
   54MOL0     C 7052   4.393  10.420   4.921  0.2660 -0.2402  0.5070
   54MOL0     C 7053   4.446  10.409   4.793 -0.1966 -0.6826 -0.8890
   54MOL0     O 7054   4.564  10.483   4.767  0.1251 -0.6865 -0.7950
   54MOL0     C 7055   4.659  10.534   4.869  0.2706  0.1424 -0.1681
   54MOL0     C 7056   4.786  10.579   4.798 -0.3375  0.3487 -0.2490
   54MOL0     C 7057   4.768  10.707   4.718  0.6881  0.5921 -0.7625
   54MOL0     C 7058   4.904  10.759   4.672  0.3879  0.4769 -0.2825
   54MOL0     C 7059   4.956  10.689   4.558  0.1123  0.5159 -0.1386
   54MOL0     C 7060   4.963  10.639   4.448 -0.4313 -0.5972 -0.2796
   54MOL0     C 7061   4.389  10.334   4.695 -0.1391 -0.0650  0.4355
   54MOL0     C 7062   4.286  10.246   4.724 -0.2224  0.0475  1.2985
   54MOL0     H 7063   3.788  10.138   4.882  0.0664  0.6647  1.2654
   54MOL0     H 7064   3.626   9.986   4.939  1.1624  1.8544  0.1293
   54MOL0     H 7065   3.560   9.751   4.936  1.0923 -1.8203 -0.5260
   54MOL0     H 7066   3.499   9.864   5.042  0.7362  0.6007 -2.1637
   54MOL0     H 7067   3.403   9.720   5.186  0.2329 -0.0262 -0.1659
   54MOL0     H 7068   3.509   9.584   5.136 -1.7423 -1.0370  2.7773
   54MOL0     H 7069   3.409   9.557   4.932  1.7788  1.9885  1.2832
   54MOL0     H 7070   3.310   9.704   4.947  0.0817 -1.3020 -2.0379
   54MOL0     H 7071   3.204   9.595   5.162 -0.0563  0.0691 -0.1931
   54MOL0     H 7072   3.155   9.499   5.012 -0.2529 -0.5107  0.0810
   54MOL0     H 7073   3.365   9.445   5.218 -1.8668  0.7831  0.8643
   54MOL0     H 7074   3.347   9.347   5.072 -1.1344 -2.6878  0.8369
   54MOL0     H 7075   3.144   9.381   5.295  5.3234  1.5874  4.1639
   54MOL0     H 7076   3.255   9.252   5.276 -2.5739 -4.9331 -2.1323
   54MOL0     H 7077   3.072   9.297   5.035 -1.3011 -0.0196 -0.3875
   54MOL0     H 7078   3.169   9.155   5.088 -2.2880 -0.1745 -0.9215
   54MOL0     H 7079   2.925   9.270   5.224 -1.0997 -1.0598  0.3438
   54MOL0     H 7080   2.982   9.108   5.262  1.0639  2.2112  1.4089
   54MOL0     H 7081   3.012   8.988   4.977  0.6511  0.3907 -0.8057
   54MOL0     H 7082   2.859   8.904   4.756 -0.3110 -0.4061 -0.3462
   54MOL0     H 7083   2.692   8.937   4.752 -0.0365 -1.4652 -0.7902
   54MOL0     H 7084   2.834   8.715   4.918  0.1266  1.5377  1.3994
   54MOL0     H 7085   2.730   8.693   4.780 -0.6280 -0.6097 -0.1596
   54MOL0     H 7086   2.607   8.635   4.988 -1.6581 -2.5891 -4.3123
   54MOL0     H 7087   2.613   8.810   5.026  4.7129 -1.0578  0.0659
   54MOL0     H 7088   2.509   8.695   4.771 -1.5507  1.0348 -1.3065
   54MOL0     H 7089   2.490   8.862   4.829  2.2937  0.5386  1.2195
   54MOL0     H 7090   2.186   8.641   5.049  2.4372  1.5571 -0.4104
   54MOL0     H 7091   1.952   8.587   4.952 -0.3402 -0.0152 -0.6201
   54MOL0     H 7092   1.759   8.379   4.575 -2.5913 -2.1429 -1.0095
   54MOL0     H 7093   1.569   8.308   4.468  2.2168 -1.3392  3.2665
   54MOL0     H 7094   1.338   8.634   4.239 -1.1658  0.9093  1.8364
   54MOL0     H 7095   1.298   8.561   4.395 -0.3215 -0.5638  0.9978
   54MOL0     H 7096   1.108   8.475   4.293  0.4288 -0.6569  0.4721
   54MOL0     H 7097   1.209   8.406   4.170  2.2357  1.3568 -1.4688
   54MOL0     H 7098   1.189   8.612   4.029 -0.7083  0.5487 -0.8786
   54MOL0     H 7099   1.122   8.698   4.171  1.1457 -0.5168  0.6148
   54MOL0     H 7100   0.976   8.463   4.051 -4.3127 -1.0762  1.1272
   54MOL0     H 7101   0.923   8.561   4.176  0.9574  1.3603  0.3929
   54MOL0     H 7102   0.944   8.766   4.030  0.7774 -0.7254  1.7999
   54MOL0     H 7103   0.800   8.658   4.014  0.6558 -1.6868  1.5407
   54MOL0     H 7104   1.030   8.699   3.829  1.5714 -3.0030  0.5786
   54MOL0     H 7105   0.869   8.755   3.802 -0.2671 -1.7466 -0.3057
   54MOL0     H 7106   0.992   8.466   3.768 -0.5956 -0.3265  2.3986
   54MOL0     H 7107   0.809   8.486   3.772  0.0917 -0.7357  0.8035
   54MOL0     H 7108   0.818   8.635   3.586  0.2958  0.1529  2.2198
   54MOL0     H 7109   0.879   8.475   3.554 -1.0816 -0.6914  1.0414
   54MOL0     H 7110   1.536   8.697   4.280  0.4895  0.1521  0.5562
   54MOL0     H 7111   1.723   8.774   4.387 -0.6413 -1.0273 -2.0058
   54MOL0     H 7112   2.099   8.748   4.571 -2.0262  1.1158 -0.1430
   54MOL0     H 7113   2.318   8.771   4.679  1.5374 -0.8657  0.7858
   54MOL0     H 7114   3.905   9.780   5.205 -1.9330 -0.1561  1.5393
   54MOL0     H 7115   4.075   9.956   5.149 -1.6196 -0.9853  2.4311
   54MOL0     H 7116   4.231  10.334   5.052 -1.8518  0.1769 -0.9937
   54MOL0     H 7117   4.436  10.480   5.000  3.0745  0.5467 -1.4552
   54MOL0     H 7118   4.679  10.448   4.934  1.6403  0.2506 -0.4026
   54MOL0     H 7119   4.614  10.610   4.934 -2.2768 -1.7581  0.4063
   54MOL0     H 7120   4.863  10.597   4.874 -1.3462  1.3025  0.5813
   54MOL0     H 7121   4.821  10.495   4.737  0.4822  1.7046 -1.7274
   54MOL0     H 7122   4.723  10.767   4.798 -1.6088 -1.7481 -0.1884
   54MOL0     H 7123   4.699  10.686   4.637  1.7553 -1.3822 -1.2039
   54MOL0     H 7124   4.891  10.865   4.651 -0.0922  0.0367 -2.5002
   54MOL0     H 7125   4.974  10.746   4.755  0.6063 -1.5388 -0.7181
   54MOL0     H 7126   4.945  10.598   4.351 -1.5930 -0.6803 -0.0346
   54MOL0     H 7127   4.439  10.329   4.599 -2.0355  0.2406 -0.6251
   54MOL0     H 7128   4.257  10.170   4.652  0.4840 -0.3663  1.4475
   55MOL0     O 7129   0.988   0.824   4.952 -0.1426  0.3750  0.9322
   55MOL0     C 7130   0.999   0.851   5.074  0.4345  0.0823  0.1194
   55MOL0     O 7131   0.895   0.847   5.161 -0.1993 -0.1240  0.5257
   55MOL0     C 7132   0.772   0.810   5.115  0.5251  0.3757 -0.3012
   55MOL0     C 7133   0.760   0.681   5.052  0.2823 -0.2877  0.1471
   55MOL0     C 7134   0.634   0.633   5.021  0.6246 -0.7309  0.4599
   55MOL0     C 7135   0.518   0.712   5.055 -0.3787  1.7792  0.2474
   55MOL0     O 7136   0.385   0.681   5.026 -0.7307 -0.4138  0.0021
   55MOL0     C 7137   0.372   0.585   4.924 -0.2910  0.8809  0.0918
   55MOL0     C 7138   0.226   0.574   4.896  1.2557  0.6277  1.2099
   55MOL0     C 7139   0.155   0.704   4.847  0.2278  0.7413  0.7391
   55MOL0     C 7140   0.176   0.718   4.697  0.5206 -0.2577  0.5210
   55MOL0     C 7141   0.089   0.834   4.643 -0.0490 -0.4542  0.8895
   55MOL0     C 7142   0.124   0.871   4.493  0.0250  0.4587 -0.1750
   55MOL0     C 7143   0.072   1.012   4.452  0.1869 -0.1232  0.0692
   55MOL0     C 7144  -0.086   1.020   4.455 -0.2292 -0.4093  0.6779
   55MOL0     N 7145  -0.154   1.155   4.431  0.0645 -0.8018  0.2112
   55MOL0     C 7146  -0.117   1.254   4.340 -0.1368 -0.0898  0.3749
   55MOL0     C 7147  -0.224   1.336   4.336 -0.1216  0.8212 -0.7194
   55MOL0     C 7148  -0.240   1.431   4.221 -0.7109 -0.3245 -0.4597
   55MOL0     C 7149  -0.372   1.507   4.235 -0.3416 -0.8908 -0.0364
   55MOL0     C 7150  -0.488   1.415   4.196 -0.6398  0.5346 -0.1177
   55MOL0     C 7151  -0.614   1.498   4.176 -1.2008 -0.0106  0.0892
   55MOL0     O 7152  -0.604   1.597   4.076  0.1686  0.0394  0.0683
   55MOL0     C 7153  -0.723   1.657   4.034 -0.5480 -0.7224  0.2907
   55MOL0     C 7154  -0.711   1.758   3.936 -0.2001  0.1160 -0.0155
   55MOL0     C 7155  -0.821   1.841   3.918  0.3614  0.7355  0.2096
   55MOL0     C 7156  -0.940   1.827   3.990 -0.2446  0.4848  0.5037
   55MOL0     C 7157  -1.047   1.931   3.977  0.5404  0.5891  0.8253
   55MOL0     O 7158  -1.041   2.017   3.872  0.4896  0.0640  0.3487
   55MOL0     C 7159  -1.133   2.117   3.853  0.5901  0.1030  0.4076
   55MOL0     C 7160  -1.198   2.198   3.951  0.5285  0.3575  0.5416
   55MOL0     C 7161  -1.292   2.296   3.907  0.1722 -0.0837  0.1755
   55MOL0     C 7162  -1.322   2.312   3.770 -0.3274 -0.1197  0.1831
   55MOL0     O 7163  -1.418   2.400   3.725  0.0783 -0.0874  0.5751
   55MOL0     C 7164  -1.533   2.415   3.798 -0.2269 -0.2448 -0.2641
   55MOL0     C 7165  -1.645   2.470   3.715 -0.3165  0.7830 -0.1777
   55MOL0     C 7166  -1.782   2.492   3.796 -0.7021  0.2134  1.0026
   55MOL0     C 7167  -1.770   2.595   3.911  0.4255 -0.5844 -0.1121
   55MOL0     C 7168  -1.910   2.636   3.959 -0.7583  0.3781  0.0742
   55MOL0     C 7169  -2.003   2.543   4.019 -0.5197  0.8562  0.3062
   55MOL0     C 7170  -1.938   2.482   4.153  0.1903 -0.1985  0.8607
   55MOL0     C 7171  -2.048   2.398   4.224 -0.9963 -0.3352  0.8845
   55MOL0    Cl 7172  -2.133   2.490   4.347  0.0215 -0.3650  0.0879
   55MOL0     C 7173  -1.254   2.238   3.675 -0.1625  0.0747  0.0069
   55MOL0     C 7174  -1.153   2.147   3.720 -0.1046  0.2620 -0.1027
   55MOL0     O 7175  -1.144   1.919   4.053 -0.4900  0.1016  0.3972
   55MOL0     C 7176  -0.948   1.722   4.083  0.2413 -0.6805  0.4151
   55MOL0     C 7177  -0.843   1.637   4.104 -0.0289 -1.0401  0.3116
   55MOL0     N 7178  -0.306   1.303   4.441  0.3379  0.5196  0.8233
   55MOL0     N 7179  -0.270   1.195   4.493 -0.7137  0.7258  0.0383
   55MOL0     C 7180   0.533   0.822   5.142 -0.1134 -0.2948 -0.3911
   55MOL0     C 7181   0.661   0.869   5.168 -0.4017 -0.9366  0.7764
   55MOL0     C 7182   1.127   0.863   5.132 -0.2239 -0.5804  0.2322
   55MOL0     C 7183   1.165   0.865   5.267  0.7594  0.0630  0.2099
   55MOL0     C 7184   1.294   0.860   5.317  0.1251  0.4024 -1.0718
   55MOL0     C 7185   1.395   0.853   5.226 -0.1915 -1.5311 -0.2665
   55MOL0     O 7186   1.532   0.845   5.253  0.6261  0.7308  0.2139
   55MOL0     C 7187   1.575   0.867   5.387 -0.1706  0.7027 -0.0071
   55MOL0     C 7188   1.720   0.827   5.397 -0.0796  0.0761 -0.0088
   55MOL0     C 7189   1.780   0.824   5.532  1.3183  0.3029  0.3067
   55MOL0     C 7190   1.696   0.744   5.645  0.2185  0.0213 -0.1966
   55MOL0     C 7191   1.700   0.599   5.609 -0.4607 -0.2207 -0.7629
   55MOL0     C 7192   1.701   0.485   5.575  0.0483  0.7628  0.1514
   55MOL0     C 7193   1.365   0.867   5.090 -0.1601 -0.1226 -0.1450
   55MOL0     C 7194   1.235   0.877   5.048 -0.0792  0.1498 -0.4547
   55MOL0     H 7195   0.844   0.616   5.032  0.1503 -0.0988 -1.1496
   55MOL0     H 7196   0.627   0.536   4.973 -0.3076 -2.5063  3.8538
   55MOL0     H 7197   0.406   0.486   4.956 -0.9766  0.4522 -0.4916
   55MOL0     H 7198   0.416   0.616   4.829  0.5940 -1.4849 -0.3316
   55MOL0     H 7199   0.187   0.543   4.994  0.1023  1.1757  0.9458
   55MOL0     H 7200   0.223   0.490   4.827  1.7962  2.6548 -1.4349
   55MOL0     H 7201   0.189   0.795   4.898  0.8595  0.5141  0.7357
   55MOL0     H 7202   0.050   0.708   4.874  0.4399  1.5016  1.4935
   55MOL0     H 7203   0.280   0.735   4.669 -0.4034  1.5260 -2.2528
   55MOL0     H 7204   0.156   0.620   4.652  1.9202 -0.3438  0.0262
   55MOL0     H 7205   0.114   0.922   4.702  1.3496  0.4929 -1.0208
   55MOL0     H 7206  -0.017   0.811   4.654 -0.9619  2.0910 -1.6308
   55MOL0     H 7207   0.075   0.801   4.425 -0.4855 -1.5613  2.0907
   55MOL0     H 7208   0.232   0.879   4.477 -0.2079  0.5043 -1.8643
   55MOL0     H 7209   0.102   1.084   4.529  0.6293 -1.6175  1.3489
   55MOL0     H 7210   0.118   1.043   4.358 -1.5887  0.6041 -0.6104
   55MOL0     H 7211  -0.121   1.001   4.556 -0.3473  0.0648  0.7300
   55MOL0     H 7212  -0.126   0.946   4.385 -2.4779 -1.1453  2.6199
   55MOL0     H 7213  -0.032   1.254   4.273  2.1380 -0.5343  3.0637
   55MOL0     H 7214  -0.217   1.384   4.125 -4.9544  1.3098 -2.5334
   55MOL0     H 7215  -0.158   1.504   4.217 -2.1449  1.4618  0.9948
   55MOL0     H 7216  -0.378   1.600   4.177  0.5352  1.1473  2.8937
   55MOL0     H 7217  -0.383   1.536   4.340  0.9201 -3.5717  0.9299
   55MOL0     H 7218  -0.466   1.367   4.100  0.2320  1.6412 -0.4983
   55MOL0     H 7219  -0.502   1.339   4.274 -3.0556 -0.0399 -1.0301
   55MOL0     H 7220  -0.645   1.545   4.271  2.4141 -1.8269  2.3639
   55MOL0     H 7221  -0.692   1.430   4.140 -1.5416  1.2974 -1.7804
   55MOL0     H 7222  -0.623   1.782   3.877 -0.6842 -0.1705 -0.8795
   55MOL0     H 7223  -0.815   1.925   3.849  2.1309  0.2156 -0.3245
   55MOL0     H 7224  -1.185   2.186   4.058  0.7513  2.5585  0.8013
   55MOL0     H 7225  -1.341   2.362   3.978 -0.8194  0.4640 -0.9763
   55MOL0     H 7226  -1.519   2.491   3.876  0.6300  0.1143 -0.7506
   55MOL0     H 7227  -1.555   2.318   3.842  0.2717 -0.2726 -0.0743
   55MOL0     H 7228  -1.662   2.393   3.639  0.7322 -0.8533  1.1823
   55MOL0     H 7229  -1.608   2.560   3.666  1.5376  0.7177  1.0079
   55MOL0     H 7230  -1.829   2.401   3.832 -2.5036  1.6991  2.6188
   55MOL0     H 7231  -1.850   2.542   3.726  1.2172 -0.3677 -1.4274
   55MOL0     H 7232  -1.726   2.544   3.997 -2.1208 -1.5220  0.7276
   55MOL0     H 7233  -1.713   2.683   3.878 -1.2469  0.3133 -0.7479
   55MOL0     H 7234  -1.968   2.687   3.882 -3.0807  1.5421  2.4494
   55MOL0     H 7235  -1.887   2.710   4.035  0.3730  1.8930 -1.6606
   55MOL0     H 7236  -2.008   2.459   3.950  0.4385  0.1734  1.0400
   55MOL0     H 7237  -2.101   2.592   4.032 -1.0321  1.3489 -4.0062
   55MOL0     H 7238  -1.853   2.420   4.123 -0.1760 -0.4030  0.2284
   55MOL0     H 7239  -1.895   2.559   4.218 -0.4895 -0.5239  1.7045
   55MOL0     H 7240  -1.990   2.323   4.277 -1.6831 -0.9516  0.7916
   55MOL0     H 7241  -2.100   2.336   4.150  1.8456 -2.5879  0.5972
   55MOL0     H 7242  -1.275   2.259   3.570 -0.7520 -2.1894 -0.3856
   55MOL0     H 7243  -1.108   2.086   3.642  2.7709  1.4112  0.5476
   55MOL0     H 7244  -1.038   1.713   4.143  0.7377 -3.2885  0.8652
   55MOL0     H 7245  -0.850   1.559   4.179 -0.6350  0.7179  2.1615
   55MOL0     H 7246   0.453   0.877   5.191  0.5328 -0.5906  1.0433
   55MOL0     H 7247   0.684   0.958   5.227  1.1526 -1.7068  1.3734
   55MOL0     H 7248   1.081   0.869   5.335  0.5921  1.0988 -0.0472
   55MOL0     H 7249   1.316   0.854   5.423  0.0136  0.2857 -1.0543
   55MOL0     H 7250   1.518   0.806   5.457 -0.1827 -0.1731 -0.7644
   55MOL0     H 7251   1.569   0.976   5.397  1.0232  0.9608 -1.6356
   55MOL0     H 7252   1.739   0.729   5.352 -0.7879 -1.1470  2.1683
   55MOL0     H 7253   1.774   0.900   5.337  0.5585 -0.8594 -0.6061
   55MOL0     H 7254   1.772   0.930   5.561  1.8579  0.8858 -1.5328
   55MOL0     H 7255   1.883   0.788   5.533  0.6332 -2.4071 -3.9304
   55MOL0     H 7256   1.755   0.757   5.736  0.4983  0.3576 -0.4218
   55MOL0     H 7257   1.595   0.784   5.654  0.7026  1.9521 -2.3949
   55MOL0     H 7258   1.690   0.390   5.528  1.5436  0.9563 -0.6388
   55MOL0     H 7259   1.445   0.881   5.018  0.3177  1.5516  0.6505
   55MOL0     H 7260   1.214   0.879   4.942 -2.9834 -2.1563 -0.0537
   56MOL0     O 7261   7.589   7.501   8.963 -0.1615 -0.0975  0.5191
   56MOL0     C 7262   7.658   7.406   8.916 -0.1195  0.3609 -0.0339
   56MOL0     O 7263   7.611   7.286   8.874 -0.3984  0.2266  0.3940
   56MOL0     C 7264   7.473   7.289   8.857 -0.7062 -0.3546  0.8086
   56MOL0     C 7265   7.383   7.278   8.960 -1.0406 -0.0911  0.0497
   56MOL0     C 7266   7.248   7.284   8.944  0.0682 -0.7397  0.5807
   56MOL0     C 7267   7.193   7.281   8.820  0.6803 -0.0511  0.5127
   56MOL0     O 7268   7.059   7.268   8.792 -0.3424 -0.1582 -0.2531
   56MOL0     C 7269   6.970   7.308   8.897  0.3864 -0.8474 -0.6495
   56MOL0     C 7270   6.830   7.280   8.842  0.1705 -0.0412 -0.6721
   56MOL0     C 7271   6.712   7.336   8.922  0.3486  0.0175  1.2848
   56MOL0     C 7272   6.574   7.314   8.843  0.6510  0.2567 -0.3615
   56MOL0     C 7273   6.453   7.325   8.943 -0.4242 -0.2197 -0.5441
   56MOL0     C 7274   6.319   7.305   8.876  0.1910 -0.7792  0.1230
   56MOL0     C 7275   6.300   7.426   8.784  0.0224 -0.5986  0.4000
   56MOL0     C 7276   6.154   7.431   8.743  0.0852 -0.9354  0.5570
   56MOL0     N 7277   6.060   7.480   8.846 -0.5286  0.2827  0.1177
   56MOL0     C 7278   6.044   7.606   8.885 -0.3581  0.2201 -0.8701
   56MOL0     C 7279   5.934   7.597   8.964 -0.5142  0.2535 -0.0563
   56MOL0     C 7280   5.878   7.724   9.028  0.1590  0.4113  0.5938
   56MOL0     C 7281   5.766   7.753   8.930 -0.0969 -0.6663  0.3966
   56MOL0     C 7282   5.699   7.876   8.989  0.1611 -0.2010 -0.3351
   56MOL0     C 7283   5.738   8.007   8.927 -0.3369  0.4593 -0.1067
   56MOL0     O 7284   5.708   8.130   8.995 -0.3338 -0.2256  0.1125
   56MOL0     C 7285   5.596   8.148   9.067  1.6841  0.8143 -0.2592
   56MOL0     C 7286   5.471   8.111   9.014  0.8158  0.5939 -0.9810
   56MOL0     C 7287   5.361   8.121   9.096 -0.0513 -0.4383 -0.5128
   56MOL0     C 7288   5.378   8.158   9.235 -0.2846  0.9234  0.1142
   56MOL0     C 7289   5.262   8.175   9.319 -0.4452 -0.5459 -0.9969
   56MOL0     O 7290   5.255   8.296   9.389  0.4966  0.1771  0.2544
   56MOL0     C 7291   5.125   8.328   9.418 -0.7055 -0.1159 -0.1242
   56MOL0     C 7292   5.062   8.296   9.542 -0.8548  0.1976 -0.2067
   56MOL0     C 7293   4.931   8.328   9.567 -0.4873  0.0421 -0.6243
   56MOL0     C 7294   4.858   8.394   9.476  0.8953  0.1642  0.4220
   56MOL0     O 7295   4.729   8.431   9.490 -0.0191 -0.5346 -0.2449
   56MOL0     C 7296   4.673   8.454   9.620  0.3984 -0.3053 -0.8022
   56MOL0     C 7297   4.554   8.554   9.607 -0.4501 -0.5792 -0.1508
   56MOL0     C 7298   4.613   8.706   9.603 -0.1250  1.4442  0.1425
   56MOL0     C 7299   4.500   8.806   9.643 -1.6548 -0.2442  0.5949
   56MOL0     C 7300   4.396   8.840   9.533 -0.3005  0.4014  0.7945
   56MOL0     C 7301   4.289   8.930   9.589  0.2865  0.2468  1.2747
   56MOL0     C 7302   4.162   8.939   9.503  0.3780  0.4976  1.1206
   56MOL0     C 7303   4.055   9.007   9.582 -0.5699 -0.1716  0.2187
   56MOL0    Cl 7304   3.906   8.991   9.487  0.0610  0.1584 -0.3738
   56MOL0     C 7305   4.916   8.435   9.355 -0.5215 -0.8699  0.3046
   56MOL0     C 7306   5.043   8.388   9.321 -0.3586  0.2522  0.8605
   56MOL0     O 7307   5.177   8.091   9.309  0.1881 -0.6532 -0.2954
   56MOL0     C 7308   5.497   8.195   9.284  0.1602  0.3151 -0.7187
   56MOL0     C 7309   5.604   8.199   9.202 -0.3962 -0.8572 -0.4719
   56MOL0     N 7310   5.907   7.465   8.997  0.6096  0.1941 -0.0893
   56MOL0     N 7311   5.992   7.389   8.927 -0.4952 -0.4074 -0.4129
   56MOL0     C 7312   7.274   7.282   8.710 -0.5870  0.6508 -0.2679
   56MOL0     C 7313   7.417   7.294   8.727  0.8426  0.7159 -0.7851
   56MOL0     C 7314   7.798   7.429   8.887  0.5768  0.4863 -1.0454
   56MOL0     C 7315   7.851   7.551   8.920  0.4040  0.0216 -0.2033
   56MOL0     C 7316   7.982   7.588   8.882  0.6953 -0.4237  0.0927
   56MOL0     C 7317   8.061   7.503   8.810 -0.3759 -0.2457  0.1907
   56MOL0     O 7318   8.181   7.554   8.761 -0.0330 -0.0058 -0.0123
   56MOL0     C 7319   8.261   7.481   8.669  0.1807  0.3910 -0.0246
   56MOL0     C 7320   8.356   7.571   8.591  0.3818  0.1960 -0.0477
   56MOL0     C 7321   8.433   7.479   8.496 -0.9327 -0.1452 -0.0239
   56MOL0     C 7322   8.536   7.552   8.411  1.1874 -0.5322 -0.6138
   56MOL0     C 7323   8.644   7.613   8.493 -0.1065  0.5703  0.1981
   56MOL0     C 7324   8.728   7.678   8.558  0.3707  0.0861  1.0984
   56MOL0     C 7325   8.004   7.384   8.773 -0.4632 -0.1803 -0.0922
   56MOL0     C 7326   7.876   7.335   8.824 -0.1593  0.3512 -0.8190
   56MOL0     H 7327   7.420   7.269   9.062 -1.3826 -2.9853 -0.0211
   56MOL0     H 7328   7.194   7.273   9.038 -1.5020 -1.0296 -0.3295
   56MOL0     H 7329   6.979   7.414   8.921  0.7169 -0.9058 -0.5217
   56MOL0     H 7330   6.987   7.252   8.990  1.8615  0.8894  0.1734
   56MOL0     H 7331   6.818   7.171   8.842 -0.2569 -0.0042  0.1426
   56MOL0     H 7332   6.829   7.318   8.740 -0.5800 -0.9634 -1.0273
   56MOL0     H 7333   6.740   7.441   8.915  2.5399 -0.6160 -2.1429
   56MOL0     H 7334   6.721   7.291   9.021 -3.1170 -1.0332  1.2510
   56MOL0     H 7335   6.564   7.379   8.756  0.8405 -1.7001 -1.9168
   56MOL0     H 7336   6.562   7.210   8.812  0.1374 -0.2239  1.3540
   56MOL0     H 7337   6.449   7.426   8.986 -0.5767  0.1808 -1.4647
   56MOL0     H 7338   6.464   7.253   9.024  0.1300  0.3044 -0.1419
   56MOL0     H 7339   6.237   7.301   8.948  2.8503  1.1345  3.5377
   56MOL0     H 7340   6.317   7.220   8.806 -1.6714 -2.1615  1.7421
   56MOL0     H 7341   6.315   7.523   8.833 -0.6980 -1.6154  2.8093
   56MOL0     H 7342   6.359   7.410   8.693  2.4210  1.6146  1.4390
   56MOL0     H 7343   6.122   7.337   8.697  0.8678 -0.9730  0.0789
   56MOL0     H 7344   6.143   7.506   8.664  0.6077  0.3607  1.6678
   56MOL0     H 7345   6.089   7.701   8.859 -0.0719 -0.0604 -1.4283
   56MOL0     H 7346   5.952   7.805   9.034  0.4493  0.3206 -1.2141
   56MOL0     H 7347   5.837   7.704   9.127  0.2245 -0.2733  0.4898
   56MOL0     H 7348   5.695   7.670   8.920  0.3712 -0.9451 -0.7534
   56MOL0     H 7349   5.807   7.773   8.830  2.0647  1.8702  1.6631
   56MOL0     H 7350   5.592   7.858   8.980  0.5507 -2.5552 -0.9012
   56MOL0     H 7351   5.733   7.887   9.092  1.8154  1.0247 -0.9500
   56MOL0     H 7352   5.691   8.011   8.828 -2.9636 -0.5939  1.0166
   56MOL0     H 7353   5.847   8.006   8.915 -0.0375  2.3048  1.7898
   56MOL0     H 7354   5.455   8.073   8.913  1.6540 -1.8574 -0.2800
   56MOL0     H 7355   5.262   8.103   9.056 -2.1690  4.3494  1.7667
   56MOL0     H 7356   5.116   8.248   9.623 -2.5224 -0.5717  0.4810
   56MOL0     H 7357   4.894   8.310   9.667  2.1065  0.0358  0.3987
   56MOL0     H 7358   4.747   8.491   9.691  1.9964  0.5322 -2.7970
   56MOL0     H 7359   4.644   8.360   9.667 -0.4264  0.3972  0.1242
   56MOL0     H 7360   4.484   8.545   9.691 -1.0349  1.6926 -0.3045
   56MOL0     H 7361   4.491   8.516   9.526  1.0262  0.2550 -1.7518
   56MOL0     H 7362   4.659   8.717   9.504  2.5056  1.1383  1.2303
   56MOL0     H 7363   4.695   8.721   9.674  1.0743  0.4301 -0.9473
   56MOL0     H 7364   4.454   8.769   9.736 -1.3361 -0.6902  0.5769
   56MOL0     H 7365   4.543   8.902   9.674 -1.7070  0.5863 -1.7516
   56MOL0     H 7366   4.353   8.745   9.498  5.4751 -0.9414 -4.2787
   56MOL0     H 7367   4.439   8.873   9.438 -0.4711 -1.8485 -0.1279
   56MOL0     H 7368   4.332   9.031   9.588  0.6233  0.0956  0.3697
   56MOL0     H 7369   4.275   8.897   9.692 -1.1337  2.6400  1.9568
   56MOL0     H 7370   4.182   9.001   9.416 -1.8985  0.9570  0.8788
   56MOL0     H 7371   4.125   8.843   9.465 -2.8007  2.0892 -0.2366
   56MOL0     H 7372   4.098   9.105   9.608  5.4708 -1.9865 -1.2388
   56MOL0     H 7373   4.055   8.934   9.663  1.9209 -4.0359 -2.8797
   56MOL0     H 7374   4.860   8.483   9.275  3.2554  3.2203 -0.3241
   56MOL0     H 7375   5.081   8.411   9.221  1.4139 -0.1272  1.4191
   56MOL0     H 7376   5.495   8.240   9.383 -2.5550  1.0539 -1.0317
   56MOL0     H 7377   5.694   8.250   9.235 -2.7695  2.0547  2.0097
   56MOL0     H 7378   7.235   7.277   8.609  0.6788 -2.0501 -0.7298
   56MOL0     H 7379   7.490   7.314   8.650  2.9669  1.6584  1.3544
   56MOL0     H 7380   7.786   7.618   8.975 -2.3716 -1.0669 -1.9771
   56MOL0     H 7381   8.015   7.689   8.902  1.6270 -1.0643  1.9780
   56MOL0     H 7382   8.201   7.430   8.593  0.9188 -1.0160  0.3002
   56MOL0     H 7383   8.304   7.404   8.733 -0.7422  0.0061  0.1569
   56MOL0     H 7384   8.310   7.657   8.542 -2.1228 -1.0448 -0.0459
   56MOL0     H 7385   8.430   7.614   8.659 -2.3873 -0.4532  3.7173
   56MOL0     H 7386   8.367   7.423   8.430  0.8604  0.5274 -2.5400
   56MOL0     H 7387   8.482   7.407   8.563 -3.3313 -1.1793  0.7345
   56MOL0     H 7388   8.578   7.479   8.341 -0.7658 -1.1460 -1.2190
   56MOL0     H 7389   8.481   7.624   8.349  2.5110  1.4024  0.3492
   56MOL0     H 7390   8.792   7.750   8.606 -0.5147  3.4244 -2.2583
   56MOL0     H 7391   8.061   7.310   8.718 -2.5684  0.4706 -3.4492
   56MOL0     H 7392   7.857   7.229   8.812 -1.0376  0.1886  1.5622
   57MOL0     O 7393   5.774   6.814  10.904  0.2167  0.9751 -0.6862
   57MOL0     C 7394   5.691   6.798  10.997  1.1467 -0.1337  0.3358
   57MOL0     O 7395   5.714   6.744  11.125  0.7725  0.3838  1.4444
   57MOL0     C 7396   5.841   6.698  11.143  0.7054  0.3133 -0.4269
   57MOL0     C 7397   5.846   6.574  11.215  0.2398 -0.2779 -0.1847
   57MOL0     C 7398   5.972   6.516  11.231  0.2045  1.1324  0.4300
   57MOL0     C 7399   6.095   6.578  11.199  0.3080 -0.2576 -0.9441
   57MOL0     O 7400   6.213   6.521  11.231 -0.1452  0.4075 -0.3866
   57MOL0     C 7401   6.330   6.553  11.150  0.2104 -0.1762  0.8530
   57MOL0     C 7402   6.442   6.473  11.194 -0.1721  1.1925 -0.2726
   57MOL0     C 7403   6.557   6.498  11.097 -0.0159  0.0185  0.4770
   57MOL0     C 7404   6.671   6.393  11.118  0.1603  0.4666 -0.3357
   57MOL0     C 7405   6.785   6.400  11.018  0.7425  0.1154 -0.2214
   57MOL0     C 7406   6.858   6.534  11.007  0.2691 -0.5622 -0.3325
   57MOL0     C 7407   6.928   6.577  11.143 -0.1627  0.9353  0.8771
   57MOL0     C 7408   7.043   6.479  11.192  0.1563  0.1185  0.0717
   57MOL0     N 7409   7.165   6.480  11.098 -0.4550 -0.0686 -0.1420
   57MOL0     C 7410   7.238   6.587  11.067  0.4039 -0.3038  0.4518
   57MOL0     C 7411   7.345   6.553  10.990 -0.7290 -0.4125 -1.0651
   57MOL0     C 7412   7.437   6.644  10.926 -0.7986 -0.0106 -0.0778
   57MOL0     C 7413   7.578   6.659  10.991  0.5952 -0.6489 -0.2924
   57MOL0     C 7414   7.651   6.536  11.043 -0.2869 -0.2001 -0.0686
   57MOL0     C 7415   7.788   6.579  11.076 -0.2234  0.8739  1.1352
   57MOL0     O 7416   7.797   6.661  11.196 -0.0969 -0.0868  0.3409
   57MOL0     C 7417   7.832   6.599  11.315  0.5793  0.4547  0.7236
   57MOL0     C 7418   7.919   6.497  11.329 -0.4928 -0.2035 -0.8980
   57MOL0     C 7419   7.953   6.441  11.452  0.2504  0.2927  0.2901
   57MOL0     C 7420   7.887   6.482  11.568 -0.1806 -0.2457  0.4205
   57MOL0     C 7421   7.930   6.435  11.705  0.4651  0.4383  0.0285
   57MOL0     O 7422   7.885   6.514  11.805 -0.1544 -0.7471 -0.3362
   57MOL0     C 7423   7.896   6.475  11.935 -0.1898 -0.8133 -0.0213
   57MOL0     C 7424   7.823   6.366  11.977 -0.8094 -0.2844  0.2872
   57MOL0     C 7425   7.803   6.351  12.111  0.5905 -0.1306  0.0510
   57MOL0     C 7426   7.863   6.436  12.195  0.2528  0.1509  0.5003
   57MOL0     O 7427   7.834   6.435  12.327 -0.3065  0.0953 -0.5999
   57MOL0     C 7428   7.695   6.416  12.362  0.4294  0.4379  0.3068
   57MOL0     C 7429   7.680   6.377  12.511  0.0551 -0.6941  0.0501
   57MOL0     C 7430   7.746   6.235  12.522 -0.1897 -0.3519  0.2270
   57MOL0     C 7431   7.728   6.181  12.665 -0.2032  0.7046 -0.4302
   57MOL0     C 7432   7.795   6.047  12.680 -0.9126  0.4754  0.2290
   57MOL0     C 7433   7.717   5.925  12.618  0.2536 -0.6809 -0.3851
   57MOL0     C 7434   7.788   5.799  12.659 -0.2321 -0.1890 -0.3934
   57MOL0     C 7435   7.696   5.683  12.635  0.1201  0.1868 -0.0062
   57MOL0    Cl 7436   7.624   5.698  12.468 -0.0263  0.4600 -0.0282
   57MOL0     C 7437   7.951   6.543  12.157 -0.3480  0.0475 -0.5138
   57MOL0     C 7438   7.958   6.567  12.020 -0.1790  0.8932 -0.0810
   57MOL0     O 7439   7.983   6.324  11.720  0.3168 -0.3287  1.4045
   57MOL0     C 7440   7.798   6.586  11.553 -0.3087  0.8141 -0.4787
   57MOL0     C 7441   7.774   6.647  11.428 -0.8973 -0.1475 -0.6226
   57MOL0     N 7442   7.330   6.414  10.971 -0.2428 -0.5279  0.1807
   57MOL0     N 7443   7.229   6.369  11.038 -0.5540  0.3565 -0.7243
   57MOL0     C 7444   6.088   6.703  11.139 -0.9901  0.0409 -0.4656
   57MOL0     C 7445   5.963   6.763  11.112  0.7542  0.2296  0.2636
   57MOL0     C 7446   5.552   6.828  10.979 -0.2648 -0.3824 -0.3320
   57MOL0     C 7447   5.513   6.886  10.865  0.6676 -0.2910 -0.2687
   57MOL0     C 7448   5.377   6.923  10.843  0.6592  0.1262  0.7784
   57MOL0     C 7449   5.282   6.903  10.948 -0.1795 -0.4035 -0.5239
   57MOL0     O 7450   5.154   6.948  10.951  0.5041 -0.6249  0.7009
   57MOL0     C 7451   5.119   7.048  10.857 -0.4450 -0.1790  0.1678
   57MOL0     C 7452   4.971   7.084  10.877 -0.6980 -0.5497 -0.1009
   57MOL0     C 7453   4.916   7.212  10.809 -0.5494  0.4909  0.2024
   57MOL0     C 7454   4.755   7.205  10.802 -0.6184 -0.0497 -0.1336
   57MOL0     C 7455   4.684   7.331  10.815  0.3223 -0.0872  0.8819
   57MOL0     C 7456   4.632   7.442  10.829 -0.8155  0.6293 -1.2562
   57MOL0     C 7457   5.327   6.836  11.062 -0.2139  0.0397 -0.1270
   57MOL0     C 7458   5.458   6.800  11.077  0.4060  0.3327  0.5874
   57MOL0     H 7459   5.758   6.517  11.241 -0.6506  0.4734 -1.4488
   57MOL0     H 7460   5.979   6.416  11.273  0.4034 -0.0413 -2.1859
   57MOL0     H 7461   6.356   6.659  11.157 -1.3539  0.2441  0.6507
   57MOL0     H 7462   6.314   6.528  11.045  2.5496 -1.3061  0.6913
   57MOL0     H 7463   6.407   6.370  11.181 -1.5701  1.6020  0.0057
   57MOL0     H 7464   6.463   6.499  11.298 -1.5303  2.1319 -0.2061
   57MOL0     H 7465   6.601   6.596  11.116 -0.4285  0.4761 -0.8660
   57MOL0     H 7466   6.526   6.509  10.993 -2.0199 -3.1982  0.5911
   57MOL0     H 7467   6.708   6.390  11.221  0.6286 -0.2705 -0.5195
   57MOL0     H 7468   6.629   6.292  11.128  0.2061  0.5124  0.3153
   57MOL0     H 7469   6.740   6.377  10.921  0.7314 -0.9727  0.0305
   57MOL0     H 7470   6.853   6.317  11.040 -0.8048 -0.9758  0.6612
   57MOL0     H 7471   6.798   6.616  10.967  2.3535  0.7518 -0.9121
   57MOL0     H 7472   6.934   6.522  10.929 -0.5559 -3.1551 -0.8307
   57MOL0     H 7473   6.979   6.674  11.132  0.6612  0.4628  0.4702
   57MOL0     H 7474   6.847   6.597  11.214  0.1763  1.9929  0.9930
   57MOL0     H 7475   6.994   6.383  11.179  1.4495 -0.7370  1.2148
   57MOL0     H 7476   7.066   6.499  11.297 -3.4520 -2.8326  1.6340
   57MOL0     H 7477   7.197   6.682  11.101 -0.5261 -0.3784 -0.4031
   57MOL0     H 7478   7.394   6.745  10.933  1.7279  1.2234 -1.1100
   57MOL0     H 7479   7.448   6.616  10.821 -0.7216 -0.9453  0.1761
   57MOL0     H 7480   7.579   6.735  11.070  1.7250 -0.9366 -0.0079
   57MOL0     H 7481   7.645   6.701  10.916  1.1309  1.6887  1.3702
   57MOL0     H 7482   7.598   6.505  11.134  1.0686  0.7588  1.1054
   57MOL0     H 7483   7.634   6.450  10.978  0.6583  0.8053 -1.7086
   57MOL0     H 7484   7.823   6.634  10.989  0.4774  0.2347  1.0007
   57MOL0     H 7485   7.860   6.496  11.082 -0.5522  0.1473 -2.6598
   57MOL0     H 7486   7.973   6.461  11.242  1.2305 -1.2821  0.5648
   57MOL0     H 7487   8.030   6.365  11.465  0.1465  0.2263  0.5175
   57MOL0     H 7488   7.771   6.302  11.906 -0.7992 -0.5039  0.4786
   57MOL0     H 7489   7.745   6.270  12.154 -0.5056  0.7028  0.1973
   57MOL0     H 7490   7.641   6.336  12.310 -2.7817  1.6210  1.5444
   57MOL0     H 7491   7.651   6.515  12.347  1.2195  0.9119  1.0224
   57MOL0     H 7492   7.573   6.368  12.534  0.0141 -2.7515 -0.6582
   57MOL0     H 7493   7.732   6.447  12.576 -0.3431 -0.1942 -0.1656
   57MOL0     H 7494   7.850   6.234  12.486 -0.2239 -3.1562 -0.0208
   57MOL0     H 7495   7.698   6.162  12.456 -0.0435 -1.0406  0.8625
   57MOL0     H 7496   7.778   6.252  12.733  1.1210  1.6114 -2.2596
   57MOL0     H 7497   7.623   6.169  12.693 -0.1224  1.1629  0.1066
   57MOL0     H 7498   7.793   6.023  12.786  1.7675 -0.1187  0.2297
   57MOL0     H 7499   7.899   6.059  12.645 -1.6922  1.8967 -1.8198
   57MOL0     H 7500   7.704   5.936  12.510 -4.1019 -1.2941 -0.0992
   57MOL0     H 7501   7.618   5.917  12.664  0.4875 -0.3248  0.1859
   57MOL0     H 7502   7.877   5.782  12.597  1.1312 -0.6946  1.6103
   57MOL0     H 7503   7.814   5.809  12.765 -0.8422  1.2431 -0.3588
   57MOL0     H 7504   7.616   5.677  12.710  0.6445  0.9416  0.6292
   57MOL0     H 7505   7.746   5.587  12.647  0.3564  0.3253  0.1305
   57MOL0     H 7506   7.989   6.614  12.230 -2.4654  2.4386 -1.5679
   57MOL0     H 7507   8.005   6.648  11.966 -0.0549 -1.5132 -3.9759
   57MOL0     H 7508   7.733   6.633  11.626  1.4874  2.1379  0.3494
   57MOL0     H 7509   7.704   6.730  11.432 -0.9886 -0.2704  1.5866
   57MOL0     H 7510   6.176   6.762  11.114 -0.2680  0.4603  2.7416
   57MOL0     H 7511   5.947   6.852  11.052 -1.0788  0.9867  1.7629
   57MOL0     H 7512   5.579   6.893  10.779 -0.6883 -1.4094 -1.4415
   57MOL0     H 7513   5.342   6.955  10.745  0.6763 -1.0188  0.3756
   57MOL0     H 7514   5.130   7.013  10.754  2.0691 -2.0578  0.9823
   57MOL0     H 7515   5.173   7.140  10.879 -3.2533  1.7190 -0.2667
   57MOL0     H 7516   4.920   7.000  10.828 -1.7080 -0.1905  0.3045
   57MOL0     H 7517   4.953   7.082  10.985  0.4041 -0.4481  0.0873
   57MOL0     H 7518   4.956   7.232  10.709  1.6565  1.1063  1.1639
   57MOL0     H 7519   4.944   7.300  10.867 -0.3309  0.5892 -0.0522
   57MOL0     H 7520   4.726   7.157  10.709  1.1769  0.1303 -0.8292
   57MOL0     H 7521   4.721   7.139  10.882 -0.7449 -0.3557 -0.4438
   57MOL0     H 7522   4.590   7.541  10.836  0.9077  1.5117 -2.6140
   57MOL0     H 7523   5.260   6.811  11.143 -1.8741  3.1273 -0.4104
   57MOL0     H 7524   5.482   6.753  11.172 -0.7814 -0.6754  0.4165
   58MOL0     O 7525   8.055   4.365   6.874 -0.4363  0.0947  0.4909
   58MOL0     C 7526   8.027   4.261   6.807  1.0554  0.1546 -0.3862
   58MOL0     O 7527   8.113   4.150   6.780 -0.4795 -0.4835 -0.5070
   58MOL0     C 7528   8.241   4.140   6.827  0.1806  0.2590  0.6316
   58MOL0     C 7529   8.302   4.214   6.932 -0.0939 -0.4065  0.5390
   58MOL0     C 7530   8.431   4.193   6.975 -0.3506  0.9199  0.0882
   58MOL0     C 7531   8.503   4.090   6.906 -0.0684 -0.7626 -0.0893
   58MOL0     O 7532   8.638   4.064   6.919  0.2566  0.3346  0.2666
   58MOL0     C 7533   8.693   4.063   7.050  0.3688 -0.3118 -0.1571
   58MOL0     C 7534   8.756   4.188   7.080  0.0707 -1.6160 -0.6762
   58MOL0     C 7535   8.882   4.205   6.986  1.0859  0.9553 -0.0296
   58MOL0     C 7536   8.941   4.343   7.003 -0.1192  0.8954 -0.9774
   58MOL0     C 7537   9.083   4.349   6.948  0.5752 -0.1399 -0.7451
   58MOL0     C 7538   9.145   4.491   6.932 -0.0116 -0.0021  1.3275
   58MOL0     C 7539   9.053   4.598   6.848 -0.1263  0.3050  0.4528
   58MOL0     C 7540   9.040   4.551   6.703 -0.3682  0.0152  0.5474
   58MOL0     N 7541   8.961   4.654   6.632 -0.9464 -0.1558  0.7709
   58MOL0     C 7542   8.841   4.620   6.574 -0.9117  0.0885 -0.1086
   58MOL0     C 7543   8.817   4.727   6.488  0.1708  0.1992 -0.7722
   58MOL0     C 7544   8.691   4.782   6.425  0.1247  0.1745 -0.1944
   58MOL0     C 7545   8.649   4.687   6.309 -0.4074  0.4097  0.8902
   58MOL0     C 7546   8.596   4.560   6.357  0.3030  0.3541  0.0771
   58MOL0     C 7547   8.533   4.478   6.241  0.4724  0.6755  0.3420
   58MOL0     O 7548   8.391   4.499   6.227 -0.2928  0.3909  0.4440
   58MOL0     C 7549   8.337   4.547   6.115  0.6378  0.0123 -0.4306
   58MOL0     C 7550   8.296   4.679   6.094 -0.2818 -0.2664  0.5456
   58MOL0     C 7551   8.219   4.712   5.984 -0.3277  0.7747 -0.2722
   58MOL0     C 7552   8.183   4.606   5.896 -0.1706 -0.0208 -0.3878
   58MOL0     C 7553   8.104   4.643   5.780 -0.6178 -0.4863 -0.4000
   58MOL0     O 7554   8.088   4.781   5.749 -0.7717  0.0380 -0.1618
   58MOL0     C 7555   8.017   4.818   5.633 -0.0239  1.2239 -0.0057
   58MOL0     C 7556   8.077   4.910   5.546 -0.1801 -0.0675  0.3287
   58MOL0     C 7557   8.005   4.963   5.434 -0.4528  0.1512  0.3483
   58MOL0     C 7558   7.880   4.899   5.396 -0.8363 -0.4017 -0.5368
   58MOL0     O 7559   7.800   4.937   5.290 -0.0812 -0.2083 -0.0224
   58MOL0     C 7560   7.864   4.933   5.164  0.0432  0.0063 -0.0365
   58MOL0     C 7561   7.806   4.825   5.076  0.0217  0.0916  0.2182
   58MOL0     C 7562   7.655   4.856   5.019 -0.0640  0.0396 -0.6774
   58MOL0     C 7563   7.551   4.865   5.140  0.0170  1.1350  0.5985
   58MOL0     C 7564   7.409   4.799   5.131 -0.2679  0.9398  0.3353
   58MOL0     C 7565   7.338   4.814   4.999 -0.0657 -0.2220  0.9826
   58MOL0     C 7566   7.336   4.959   4.936  0.7003  0.7573  0.6184
   58MOL0     C 7567   7.234   4.969   4.823  0.2532 -0.3311 -0.5509
   58MOL0    Cl 7568   7.205   5.134   4.776  0.4502 -0.0841 -0.3661
   58MOL0     C 7569   7.827   4.797   5.477  0.0967  0.0078 -0.3981
   58MOL0     C 7570   7.894   4.758   5.588 -0.0033 -0.2976 -0.6808
   58MOL0     O 7571   8.055   4.548   5.723  0.4416  0.4101  0.9989
   58MOL0     C 7572   8.235   4.476   5.912  0.0022 -0.6121 -1.1104
   58MOL0     C 7573   8.302   4.446   6.027 -1.1648 -0.9412 -0.2802
   58MOL0     N 7574   8.941   4.791   6.463  0.7130 -0.0142  0.1553
   58MOL0     N 7575   9.020   4.755   6.558  0.7289 -0.2359  1.1751
   58MOL0     C 7576   8.457   4.027   6.795  0.3277  0.4605 -0.4387
   58MOL0     C 7577   8.324   4.048   6.761  0.3326  0.4919 -0.0269
   58MOL0     C 7578   7.899   4.252   6.734 -0.4448 -0.3704 -0.2465
   58MOL0     C 7579   7.804   4.353   6.746  0.2143  0.0469 -0.3973
   58MOL0     C 7580   7.686   4.352   6.671  0.8321 -0.0187 -0.5707
   58MOL0     C 7581   7.656   4.249   6.587 -0.9020  0.2816 -0.3030
   58MOL0     O 7582   7.559   4.253   6.491 -0.9209  0.0644 -0.6997
   58MOL0     C 7583   7.560   4.384   6.427  0.4172  0.3704 -0.4909
   58MOL0     C 7584   7.494   4.378   6.292  0.2411  0.1934  0.2806
   58MOL0     C 7585   7.351   4.320   6.304  0.1646  0.2614  0.2114
   58MOL0     C 7586   7.303   4.270   6.170 -0.4705  0.6509  0.2524
   58MOL0     C 7587   7.337   4.350   6.050  0.2434  0.3576 -0.6795
   58MOL0     C 7588   7.369   4.406   5.949 -0.3401  0.2377  0.1048
   58MOL0     C 7589   7.744   4.142   6.584  0.4759 -0.1769 -0.0735
   58MOL0     C 7590   7.867   4.143   6.646 -0.5200 -0.2548 -0.2299
   58MOL0     H 7591   8.257   4.296   6.987 -0.0140 -1.0696  1.6158
   58MOL0     H 7592   8.466   4.248   7.061 -0.4030  0.3889  0.4530
   58MOL0     H 7593   8.757   3.975   7.057 -0.9856 -1.6145 -2.6608
   58MOL0     H 7594   8.615   4.045   7.124  1.5985  1.7551  1.7376
   58MOL0     H 7595   8.797   4.192   7.181  0.3631  1.0578 -0.8302
   58MOL0     H 7596   8.693   4.276   7.061 -0.4463 -1.8748 -0.1785
   58MOL0     H 7597   8.856   4.173   6.885 -0.8397 -0.2816  0.8019
   58MOL0     H 7598   8.952   4.130   7.024 -1.8626 -1.3115  1.3644
   58MOL0     H 7599   8.878   4.417   6.952 -0.7552  0.1673 -1.2664
   58MOL0     H 7600   8.944   4.365   7.110  2.1769  3.4847 -1.4547
   58MOL0     H 7601   9.075   4.281   6.863 -4.0938 -3.0024  1.5485
   58MOL0     H 7602   9.150   4.302   7.021 -1.6891  1.6991  2.8116
   58MOL0     H 7603   9.245   4.489   6.887 -0.4122  1.9467  0.2886
   58MOL0     H 7604   9.161   4.530   7.033  0.4587  2.2718  0.4264
   58MOL0     H 7605   8.952   4.604   6.888 -0.5041 -1.1446 -0.2025
   58MOL0     H 7606   9.092   4.700   6.855 -0.2997  0.2469  2.7229
   58MOL0     H 7607   8.991   4.454   6.695 -1.6118  0.5638  1.2023
   58MOL0     H 7608   9.141   4.540   6.661 -1.4436 -3.9054 -1.4524
   58MOL0     H 7609   8.775   4.537   6.594 -0.3622 -0.4446 -0.4979
   58MOL0     H 7610   8.706   4.883   6.385  3.1539 -0.3112 -0.4687
   58MOL0     H 7611   8.609   4.790   6.498  0.2882 -1.0640  0.1486
   58MOL0     H 7612   8.735   4.670   6.244 -0.2797 -2.1162  1.6428
   58MOL0     H 7613   8.571   4.739   6.253 -0.5495  0.4034  1.0808
   58MOL0     H 7614   8.673   4.500   6.405 -0.3698  0.6040  1.5110
   58MOL0     H 7615   8.518   4.570   6.433 -0.0169  2.3858 -0.4584
   58MOL0     H 7616   8.548   4.373   6.266 -1.0838  1.1806  4.1436
   58MOL0     H 7617   8.585   4.495   6.146  0.2447  2.1487  0.4489
   58MOL0     H 7618   8.336   4.755   6.160 -0.1345 -0.5245  0.7556
   58MOL0     H 7619   8.198   4.818   5.976  0.7385  1.0882  0.8336
   58MOL0     H 7620   8.177   4.947   5.569 -1.0695  1.8800  1.3179
   58MOL0     H 7621   8.040   5.032   5.358 -0.3798 -1.8337 -1.5145
   58MOL0     H 7622   7.973   4.923   5.172  0.0660  0.0808 -0.2355
   58MOL0     H 7623   7.860   5.030   5.113  2.7032 -0.3489 -1.0869
   58MOL0     H 7624   7.797   4.744   5.149  0.2078 -1.4359 -1.3883
   58MOL0     H 7625   7.877   4.792   5.000 -3.3424 -1.0656 -2.6412
   58MOL0     H 7626   7.625   4.785   4.942 -0.8370 -1.6916  1.1350
   58MOL0     H 7627   7.660   4.960   4.986  1.4893  1.3413  3.0672
   58MOL0     H 7628   7.605   4.813   5.220 -0.4540 -0.9056 -0.3499
   58MOL0     H 7629   7.533   4.968   5.170  0.6458  0.5909  3.1061
   58MOL0     H 7630   7.353   4.836   5.217  1.5145 -2.0172  2.9414
   58MOL0     H 7631   7.418   4.691   5.146  0.0990  1.1513  1.7164
   58MOL0     H 7632   7.235   4.779   5.015  0.2675 -0.7640  2.0249
   58MOL0     H 7633   7.383   4.744   4.928  0.1795  0.1332  0.7834
   58MOL0     H 7634   7.311   5.033   5.013 -1.4803  0.0318  0.6921
   58MOL0     H 7635   7.435   4.991   4.903 -0.2508 -0.6174 -4.2752
   58MOL0     H 7636   7.138   4.922   4.844 -1.8150  3.2004 -1.2388
   58MOL0     H 7637   7.276   4.910   4.740  0.7485  0.5475 -0.9493
   58MOL0     H 7638   7.745   4.738   5.437  0.6038 -1.0332  0.0644
   58MOL0     H 7639   7.852   4.670   5.636 -0.6568  0.2290 -0.2817
   58MOL0     H 7640   8.206   4.402   5.838  3.3159 -2.5718 -0.6405
   58MOL0     H 7641   8.316   4.339   6.030  1.9577 -0.6681 -1.6274
   58MOL0     H 7642   8.514   3.961   6.731  1.5170  0.9522  0.0781
   58MOL0     H 7643   8.282   3.987   6.683  1.0610 -0.2554  0.1496
   58MOL0     H 7644   7.836   4.431   6.815  1.0597 -1.6631  1.2502
   58MOL0     H 7645   7.624   4.435   6.703  2.3147 -0.3087  3.6384
   58MOL0     H 7646   7.664   4.418   6.421  0.4908  0.8208  2.1254
   58MOL0     H 7647   7.511   4.464   6.484  3.3703  2.9070 -1.2361
   58MOL0     H 7648   7.510   4.475   6.245  1.8929 -0.8232 -1.3725
   58MOL0     H 7649   7.550   4.306   6.231  0.5937  2.2812 -1.9800
   58MOL0     H 7650   7.282   4.394   6.346  0.2637 -0.9044  2.5910
   58MOL0     H 7651   7.332   4.238   6.374 -0.7305 -0.5189 -0.9164
   58MOL0     H 7652   7.349   4.172   6.156 -0.7178  0.7366 -1.3176
   58MOL0     H 7653   7.195   4.254   6.172 -0.3474 -0.2085  1.5609
   58MOL0     H 7654   7.395   4.451   5.855 -1.7493 -1.0619 -0.9526
   58MOL0     H 7655   7.712   4.062   6.518 -2.2871 -0.5285  1.5399
   58MOL0     H 7656   7.935   4.058   6.641 -2.7747 -2.2536  1.1034
   59MOL0     O 7657   8.598   0.908   0.195 -0.1138  0.1756 -0.1593
   59MOL0     C 7658   8.607   0.786   0.197  0.2894 -0.1769  0.5467
   59MOL0     O 7659   8.717   0.699   0.174  0.2227 -0.6893 -0.7038
   59MOL0     C 7660   8.849   0.745   0.148 -0.1944 -0.4616 -0.3673
   59MOL0     C 7661   8.952   0.667   0.175  1.3134  1.2713  0.2030
   59MOL0     C 7662   9.081   0.704   0.156  0.0217 -1.0245  0.6340
   59MOL0     C 7663   9.109   0.834   0.095  0.6554 -0.4906 -0.8511
   59MOL0     O 7664   9.238   0.862   0.060  0.3461  0.0493  0.0256
   59MOL0     C 7665   9.344   0.833   0.154 -1.0153 -0.3378 -0.3823
   59MOL0     C 7666   9.478   0.895   0.113 -0.6154 -1.2369 -0.1546
   59MOL0     C 7667   9.602   0.863   0.205  0.6084 -0.0943  0.6355
   59MOL0     C 7668   9.705   0.969   0.206 -0.0822 -0.1671  0.6364
   59MOL0     C 7669   9.835   0.915   0.279  0.5890  0.3581  0.4527
   59MOL0     C 7670   9.947   1.015   0.298  0.2172  0.4132 -0.5175
   59MOL0     C 7671  10.068   0.943   0.364 -0.1578  0.3353 -0.0529
   59MOL0     C 7672  10.054   0.919   0.511  0.3809  0.6813 -0.6294
   59MOL0     N 7673  10.189   0.916   0.577  0.6860  1.0221  0.8155
   59MOL0     C 7674  10.289   0.825   0.545  1.5515  0.1218  0.0836
   59MOL0     C 7675  10.382   0.843   0.649 -0.7756  0.3998  0.9189
   59MOL0     C 7676  10.522   0.779   0.668  0.2292  0.2560 -0.1068
   59MOL0     C 7677  10.545   0.643   0.599  0.2496  0.3246 -0.8630
   59MOL0     C 7678  10.488   0.523   0.690 -0.0599 -0.7477  0.1128
   59MOL0     C 7679  10.331   0.498   0.697 -0.2509  0.5534  0.0873
   59MOL0     O 7680  10.291   0.462   0.561 -0.0084  0.1589  0.1663
   59MOL0     C 7681  10.163   0.477   0.529 -0.3034 -1.2374 -0.2628
   59MOL0     C 7682  10.131   0.548   0.413 -0.4779  0.4384  0.0206
   59MOL0     C 7683   9.995   0.575   0.381 -0.6031  0.1350  0.2128
   59MOL0     C 7684   9.891   0.538   0.471 -0.4517  0.3782 -0.2359
   59MOL0     C 7685   9.743   0.558   0.442 -0.2225  0.0906  0.9858
   59MOL0     O 7686   9.651   0.524   0.536 -0.1735 -0.3268  0.5809
   59MOL0     C 7687   9.521   0.565   0.508  0.8999  0.4812 -0.1603
   59MOL0     C 7688   9.433   0.482   0.428  0.3258  0.0496  0.4682
   59MOL0     C 7689   9.302   0.525   0.423 -0.3723 -0.9399 -0.1610
   59MOL0     C 7690   9.245   0.634   0.497 -0.5465  0.2696 -0.6462
   59MOL0     O 7691   9.110   0.655   0.502  0.0340  0.3409 -0.4063
   59MOL0     C 7692   9.049   0.775   0.555 -0.8618 -0.3827 -0.4424
   59MOL0     C 7693   8.897   0.761   0.543  0.3155 -0.9593  0.1649
   59MOL0     C 7694   8.815   0.871   0.622  0.1105  1.3659 -1.4346
   59MOL0     C 7695   8.669   0.876   0.591  0.1232  0.1341  0.6388
   59MOL0     C 7696   8.578   0.754   0.618 -0.3047 -0.9120  0.8128
   59MOL0     C 7697   8.433   0.788   0.588  0.2894 -0.6091 -0.1671
   59MOL0     C 7698   8.339   0.665   0.582 -0.8052 -0.3303 -0.0114
   59MOL0     C 7699   8.194   0.718   0.553 -0.1195  0.6342  0.2201
   59MOL0    Cl 7700   8.086   0.708   0.697  0.0373  0.0980  0.4103
   59MOL0     C 7701   9.342   0.718   0.560  0.7443  0.5711 -0.0279
   59MOL0     C 7702   9.472   0.681   0.569  0.7680 -0.5434  0.6188
   59MOL0     O 7703   9.710   0.598   0.330 -0.0922 -0.1428 -0.0201
   59MOL0     C 7704   9.924   0.488   0.601 -0.0837  0.4030 -0.0668
   59MOL0     C 7705  10.059   0.446   0.627 -0.6519  0.0699  0.2362
   59MOL0     N 7706  10.320   0.929   0.734 -0.3836  0.6241 -0.5860
   59MOL0     N 7707  10.200   0.963   0.701 -0.5523 -0.2105 -0.4926
   59MOL0     C 7708   9.007   0.920   0.068  0.0248  0.1668 -0.2523
   59MOL0     C 7709   8.879   0.870   0.088 -0.2040 -0.2123 -1.0114
   59MOL0     C 7710   8.486   0.708   0.224 -0.3432 -0.3864  0.5254
   59MOL0     C 7711   8.505   0.567   0.244  0.3756 -0.3077  0.3532
   59MOL0     C 7712   8.393   0.478   0.238  0.4069 -0.1706 -0.7696
   59MOL0     C 7713   8.263   0.529   0.221  0.5454 -0.0336  0.1309
   59MOL0     O 7714   8.165   0.430   0.228 -0.7754  0.0994  0.0818
   59MOL0     C 7715   8.027   0.481   0.215 -0.6719  0.0009 -0.4819
   59MOL0     C 7716   7.934   0.366   0.243 -0.7755  1.3701  0.6577
   59MOL0     C 7717   7.805   0.369   0.158  0.4178 -0.4757 -0.0885
   59MOL0     C 7718   7.707   0.249   0.193  0.3184 -0.0922 -0.3257
   59MOL0     C 7719   7.726   0.123   0.128 -0.0984  0.0191  0.7717
   59MOL0     C 7720   7.743   0.021   0.061 -0.1478 -0.7552 -0.5378
   59MOL0     C 7721   8.244   0.663   0.212 -0.4490  0.0016 -0.6498
   59MOL0     C 7722   8.354   0.748   0.204  0.2096 -0.7312 -0.4421
   59MOL0     H 7723   8.931   0.569   0.216 -1.8374  2.8929  2.8766
   59MOL0     H 7724   9.163   0.634   0.167  1.3533  0.3550 -0.0844
   59MOL0     H 7725   9.356   0.725   0.165 -1.5277 -0.2531  1.4435
   59MOL0     H 7726   9.320   0.871   0.254  0.6120 -1.4784  0.4822
   59MOL0     H 7727   9.462   1.002   0.128  0.0592 -1.3807  1.9154
   59MOL0     H 7728   9.498   0.865   0.010  0.4683  2.6305 -1.2415
   59MOL0     H 7729   9.643   0.774   0.156 -1.3506 -0.7263  0.0896
   59MOL0     H 7730   9.574   0.837   0.307  1.2006 -1.7395  0.4063
   59MOL0     H 7731   9.721   0.991   0.100 -3.5470 -2.4358 -0.5540
   59MOL0     H 7732   9.672   1.064   0.249  2.6875 -0.2732  3.2546
   59MOL0     H 7733   9.871   0.840   0.209  2.2444  0.4583  1.1559
   59MOL0     H 7734   9.808   0.876   0.378 -0.0470 -0.1006  0.1007
   59MOL0     H 7735   9.917   1.099   0.360  0.2209  0.0421 -0.0095
   59MOL0     H 7736   9.978   1.069   0.208  2.4489  1.3302  0.7181
   59MOL0     H 7737  10.090   0.848   0.315 -0.3827  0.1016  0.2962
   59MOL0     H 7738  10.156   1.008   0.355 -0.5382  1.2456  2.1800
   59MOL0     H 7739  10.005   0.822   0.525  2.5968 -0.6918 -1.8601
   59MOL0     H 7740   9.983   0.988   0.559 -0.8034  0.7782 -2.4131
   59MOL0     H 7741  10.304   0.773   0.450  0.4532  4.0663 -2.5069
   59MOL0     H 7742  10.533   0.763   0.775  4.4593  1.6726 -0.1258
   59MOL0     H 7743  10.603   0.845   0.637  1.7175  0.0613  3.0209
   59MOL0     H 7744  10.653   0.625   0.600  0.1422 -0.8785  2.4378
   59MOL0     H 7745  10.504   0.633   0.498 -0.6903 -3.3179 -0.2812
   59MOL0     H 7746  10.537   0.431   0.657  0.0592 -0.5097 -0.3959
   59MOL0     H 7747  10.512   0.545   0.794 -0.0872  3.3197 -0.5747
   59MOL0     H 7748  10.286   0.595   0.720  1.4543  1.4253 -0.0674
   59MOL0     H 7749  10.310   0.429   0.780 -0.8565 -0.8070 -1.1474
   59MOL0     H 7750  10.214   0.575   0.348 -0.7962  0.3699 -0.4182
   59MOL0     H 7751   9.972   0.643   0.300  0.2283  1.0121  0.6869
   59MOL0     H 7752   9.466   0.391   0.379  1.1270 -0.0697  1.2024
   59MOL0     H 7753   9.231   0.459   0.375 -0.3329 -2.2196  1.4366
   59MOL0     H 7754   9.074   0.864   0.497  0.5670  0.0601  0.7999
   59MOL0     H 7755   9.075   0.789   0.660  0.8242 -0.8200 -0.7706
   59MOL0     H 7756   8.869   0.667   0.593 -0.0117 -0.8554  0.1821
   59MOL0     H 7757   8.871   0.753   0.437  2.0879 -3.4099 -0.1866
   59MOL0     H 7758   8.855   0.970   0.598  0.4276  1.4957 -0.4065
   59MOL0     H 7759   8.836   0.838   0.723  2.8262  1.3621 -1.9411
   59MOL0     H 7760   8.621   0.961   0.641  0.5763 -0.2429  1.7396
   59MOL0     H 7761   8.666   0.894   0.483 -0.9941  2.3467  0.9820
   59MOL0     H 7762   8.592   0.723   0.721  0.7487 -3.2914  0.0239
   59MOL0     H 7763   8.610   0.678   0.546  0.2236 -1.0261  1.1688
   59MOL0     H 7764   8.414   0.839   0.494 -3.2344  0.0514  0.7786
   59MOL0     H 7765   8.394   0.858   0.663 -0.6609  0.6501 -1.7830
   59MOL0     H 7766   8.360   0.595   0.501 -0.9871 -1.9938  1.3358
   59MOL0     H 7767   8.351   0.612   0.677 -1.1736  0.4028  0.4559
   59MOL0     H 7768   8.146   0.653   0.480 -2.2378 -1.2545  3.0742
   59MOL0     H 7769   8.192   0.818   0.510 -3.5100  1.4841  1.9959
   59MOL0     H 7770   9.315   0.814   0.605 -2.3317  0.0070 -0.4354
   59MOL0     H 7771   9.541   0.743   0.625 -0.2800  1.2211  0.0042
   59MOL0     H 7772   9.851   0.462   0.677  1.6085  1.4989  2.0404
   59MOL0     H 7773  10.074   0.390   0.718 -0.0110 -0.8266 -0.4024
   59MOL0     H 7774   9.026   1.024   0.044  0.4065  1.0186  3.1309
   59MOL0     H 7775   8.795   0.937   0.070  0.1849  0.5640 -0.0016
   59MOL0     H 7776   8.603   0.527   0.271  0.4653 -0.2555  0.1066
   59MOL0     H 7777   8.422   0.376   0.262  0.3970  0.4095  2.0226
   59MOL0     H 7778   8.015   0.517   0.112  0.5482  2.7485  0.2456
   59MOL0     H 7779   8.002   0.562   0.283 -1.8893  1.1530 -2.2285
   59MOL0     H 7780   7.993   0.277   0.221 -1.1705  0.8467  1.6538
   59MOL0     H 7781   7.905   0.365   0.348  0.8372  0.7816  1.1200
   59MOL0     H 7782   7.826   0.361   0.051  0.2928 -0.5758 -0.1047
   59MOL0     H 7783   7.750   0.462   0.173 -0.1166 -0.9278  0.8048
   59MOL0     H 7784   7.712   0.227   0.300  3.2220 -1.1821 -0.6012
   59MOL0     H 7785   7.603   0.270   0.167  0.5636  1.0691 -0.3798
   59MOL0     H 7786   7.778  -0.064   0.007  1.9244 -0.9900  1.0526
   59MOL0     H 7787   8.152   0.719   0.200 -0.5164  0.8117  2.6436
   59MOL0     H 7788   8.339   0.855   0.192  1.5625 -0.2751  1.4608
   60MOL0     O 7789   2.420   9.866   8.230 -0.1277  0.1003 -0.9876
   60MOL0     C 7790   2.473   9.840   8.336 -0.0194 -0.1047 -0.7159
   60MOL0     O 7791   2.418   9.775   8.445 -0.0936 -1.2255  0.3259
   60MOL0     C 7792   2.296   9.716   8.414  0.4051 -0.7769  0.2763
   60MOL0     C 7793   2.172   9.783   8.385 -0.1322 -0.0886 -1.0673
   60MOL0     C 7794   2.057   9.705   8.375  0.1259  0.2022 -0.3701
   60MOL0     C 7795   2.052   9.569   8.392  0.5797  0.4217 -0.3496
   60MOL0     O 7796   1.930   9.504   8.384 -0.1449  0.3515  0.4254
   60MOL0     C 7797   1.910   9.373   8.423 -0.1260 -0.2913 -1.1602
   60MOL0     C 7798   1.762   9.365   8.477  0.3862 -0.9490  0.4343
   60MOL0     C 7799   1.733   9.263   8.584 -0.5475 -0.2064  0.3763
   60MOL0     C 7800   1.749   9.115   8.541 -0.6638 -0.5752 -0.1012
   60MOL0     C 7801   1.771   9.025   8.664 -0.3281 -0.4925  0.0429
   60MOL0     C 7802   1.753   8.878   8.633  0.1732 -0.7866 -0.3400
   60MOL0     C 7803   1.722   8.792   8.755 -0.1482 -0.3200 -0.2333
   60MOL0     C 7804   1.583   8.818   8.808 -0.3335 -0.3125  0.4232
   60MOL0     N 7805   1.466   8.858   8.723  0.5129 -0.1044  0.7617
   60MOL0     C 7806   1.408   8.974   8.755  0.4814  0.4965  0.2357
   60MOL0     C 7807   1.311   9.003   8.667 -0.8910 -0.2196  0.3064
   60MOL0     C 7808   1.237   9.125   8.655 -0.4474  0.1458 -0.5519
   60MOL0     C 7809   1.089   9.100   8.695 -0.3780 -0.1774  0.2909
   60MOL0     C 7810   1.012   9.246   8.689 -0.2382 -0.0558  0.0437
   60MOL0     C 7811   0.869   9.234   8.736  0.9803 -0.3364  0.2731
   60MOL0     O 7812   0.818   9.115   8.667  0.3809  0.0750  0.0847
   60MOL0     C 7813   0.682   9.119   8.670 -0.6187  0.1111 -0.0273
   60MOL0     C 7814   0.611   9.134   8.549  1.2250 -0.1516 -0.3997
   60MOL0     C 7815   0.464   9.129   8.555 -1.0360 -0.0641 -0.1241
   60MOL0     C 7816   0.391   9.125   8.678 -0.3021  0.1604 -0.7492
   60MOL0     C 7817   0.243   9.137   8.688  0.1298 -0.3434 -0.4109
   60MOL0     O 7818   0.191   9.170   8.812  0.0403  0.1115 -0.4446
   60MOL0     C 7819   0.054   9.158   8.826 -0.5200  0.4975  0.4423
   60MOL0     C 7820  -0.024   9.049   8.788 -0.3926 -0.0899  1.0245
   60MOL0     C 7821  -0.163   9.061   8.796  1.0105 -0.5817 -0.8669
   60MOL0     C 7822  -0.233   9.175   8.845  0.2546  0.4123  0.2971
   60MOL0     O 7823  -0.372   9.178   8.843 -0.1646 -0.2587  0.0731
   60MOL0     C 7824  -0.442   9.305   8.873  0.1127  0.1723  0.7563
   60MOL0     C 7825  -0.585   9.305   8.822 -0.0250  0.2330  1.4151
   60MOL0     C 7826  -0.603   9.283   8.671  0.0880  0.2314  0.0145
   60MOL0     C 7827  -0.749   9.291   8.624 -0.1081 -0.7858  0.2636
   60MOL0     C 7828  -0.823   9.418   8.677  0.4876 -0.1111 -0.4839
   60MOL0     C 7829  -0.953   9.447   8.594  0.7957 -0.8151  0.3523
   60MOL0     C 7830  -1.074   9.351   8.593 -0.8389  0.2404  0.3418
   60MOL0     C 7831  -1.183   9.398   8.498  0.2746 -0.0562 -0.4312
   60MOL0    Cl 7832  -1.152   9.365   8.324 -0.1025 -0.1057  0.0530
   60MOL0     C 7833  -0.152   9.272   8.901 -0.4965 -0.4402  0.6076
   60MOL0     C 7834  -0.014   9.269   8.885 -0.3515  0.7950 -0.5683
   60MOL0     O 7835   0.178   9.124   8.583  0.6448  0.3716 -0.4704
   60MOL0     C 7836   0.467   9.107   8.795 -0.1177 -0.3568  0.7690
   60MOL0     C 7837   0.612   9.110   8.790 -0.5720 -0.1219  0.7957
   60MOL0     N 7838   1.298   8.885   8.592 -1.0851 -0.0992 -0.1229
   60MOL0     N 7839   1.395   8.797   8.625 -0.6116  0.2012  0.7047
   60MOL0     C 7840   2.174   9.503   8.427 -0.1369  0.1960  0.1066
   60MOL0     C 7841   2.290   9.577   8.427 -0.3941  0.4033  0.7082
   60MOL0     C 7842   2.603   9.908   8.342 -1.1639  0.3643 -0.6156
   60MOL0     C 7843   2.644  10.009   8.251  0.5508 -0.3548 -0.8096
   60MOL0     C 7844   2.769  10.078   8.257  0.2873 -0.7719 -0.3562
   60MOL0     C 7845   2.855  10.054   8.365 -0.9453 -0.4097  0.7690
   60MOL0     O 7846   2.984  10.101   8.383 -0.7990  0.4638  0.0085
   60MOL0     C 7847   3.045  10.167   8.276 -0.9361 -0.9961 -1.2547
   60MOL0     C 7848   3.197  10.175   8.306  0.3836  0.3891  0.7246
   60MOL0     C 7849   3.236  10.300   8.397 -0.1627  0.3921  0.0389
   60MOL0     C 7850   3.176  10.281   8.548 -0.1671 -0.3163  0.1342
   60MOL0     C 7851   3.258  10.364   8.634 -0.1977  0.3834  0.1070
   60MOL0     C 7852   3.328  10.445   8.684  0.1694  0.5274 -0.2460
   60MOL0     C 7853   2.820   9.956   8.460 -0.2177  0.2934  0.6910
   60MOL0     C 7854   2.695   9.884   8.444 -0.6470  0.2854 -0.5380
   60MOL0     H 7855   2.161   9.891   8.379 -2.3055 -0.1559  0.4450
   60MOL0     H 7856   1.966   9.756   8.345  0.4237  0.3793 -0.9921
   60MOL0     H 7857   1.972   9.353   8.512 -3.2094  0.5729  1.3555
   60MOL0     H 7858   1.944   9.304   8.345 -0.9616 -1.5275 -0.4701
   60MOL0     H 7859   1.696   9.358   8.389 -0.6638 -1.3229  1.2391
   60MOL0     H 7860   1.731   9.458   8.525 -2.9008 -2.5894  1.7745
   60MOL0     H 7861   1.630   9.278   8.619  0.1438  1.5348  1.7516
   60MOL0     H 7862   1.799   9.291   8.666 -0.3464 -0.2285  0.2231
   60MOL0     H 7863   1.660   9.088   8.483 -1.0768  3.2468 -1.5804
   60MOL0     H 7864   1.841   9.105   8.483  0.0999  1.1656  0.7282
   60MOL0     H 7865   1.690   9.052   8.732 -2.3206 -0.9610 -2.0159
   60MOL0     H 7866   1.867   9.044   8.712  2.0909  2.2289 -5.0615
   60MOL0     H 7867   1.851   8.847   8.596  2.1654  1.7604  2.3281
   60MOL0     H 7868   1.669   8.869   8.564 -1.6607  3.2935  1.0235
   60MOL0     H 7869   1.733   8.685   8.736 -0.5141 -0.6634  1.3268
   60MOL0     H 7870   1.792   8.822   8.833  0.9232 -0.3410 -1.1599
   60MOL0     H 7871   1.593   8.896   8.884  0.9907 -1.6896  1.7258
   60MOL0     H 7872   1.539   8.729   8.854 -0.8161 -0.4677 -0.3117
   60MOL0     H 7873   1.408   9.027   8.849  3.3487  3.0036 -1.0134
   60MOL0     H 7874   1.234   9.163   8.552 -2.5118 -0.3813 -0.7275
   60MOL0     H 7875   1.287   9.200   8.718 -0.9110  1.5977 -1.8293
   60MOL0     H 7876   1.090   9.048   8.791 -2.7373 -0.9491 -0.0431
   60MOL0     H 7877   1.038   9.025   8.633 -1.7807  0.8110  0.2052
   60MOL0     H 7878   1.063   9.321   8.751  0.3480  0.7986 -1.4026
   60MOL0     H 7879   1.018   9.283   8.586  2.5478 -0.7463 -0.1169
   60MOL0     H 7880   0.819   9.326   8.706 -0.5992 -1.8770 -2.1099
   60MOL0     H 7881   0.851   9.229   8.844  1.0021  2.2223  0.4538
   60MOL0     H 7882   0.665   9.135   8.454  0.5592  0.0323 -0.7869
   60MOL0     H 7883   0.406   9.141   8.464  1.4004 -1.5823 -2.0021
   60MOL0     H 7884   0.024   8.964   8.739 -0.5209  0.3521  0.1190
   60MOL0     H 7885  -0.223   8.989   8.740 -2.0202  0.5583  0.6879
   60MOL0     H 7886  -0.386   9.375   8.810 -0.0251  0.1844  0.6447
   60MOL0     H 7887  -0.450   9.334   8.978 -2.4212 -0.0823  0.6963
   60MOL0     H 7888  -0.629   9.404   8.840  0.5600  0.2592  2.8048
   60MOL0     H 7889  -0.650   9.238   8.879  2.0256  0.3662  4.1204
   60MOL0     H 7890  -0.565   9.181   8.657 -0.6417 -0.2626  1.4842
   60MOL0     H 7891  -0.551   9.361   8.614  3.0720 -1.0951  0.6956
   60MOL0     H 7892  -0.757   9.277   8.516  0.1032 -0.1967  0.1671
   60MOL0     H 7893  -0.804   9.208   8.670 -1.1510  1.9442  4.4935
   60MOL0     H 7894  -0.762   9.509   8.675 -2.3968  1.9547 -2.6438
   60MOL0     H 7895  -0.854   9.398   8.780  0.6058  0.6816 -0.2842
   60MOL0     H 7896  -0.918   9.463   8.492  1.0498 -0.4270  0.5025
   60MOL0     H 7897  -0.985   9.543   8.636  1.2347 -0.5258  0.0229
   60MOL0     H 7898  -1.032   9.258   8.553 -1.5462  0.5359 -1.1616
   60MOL0     H 7899  -1.103   9.324   8.695 -2.8971  1.6705  0.1770
   60MOL0     H 7900  -1.224   9.498   8.509 -3.5646 -1.5126 -0.0134
   60MOL0     H 7901  -1.267   9.337   8.531  0.3801 -0.0651 -0.1824
   60MOL0     H 7902  -0.187   9.359   8.956  0.5398  0.9988 -0.9119
   60MOL0     H 7903   0.040   9.352   8.930  0.2704  1.1257 -1.8672
   60MOL0     H 7904   0.421   9.098   8.894 -1.0785  2.4113  0.6558
   60MOL0     H 7905   0.656   9.097   8.888  0.5369  1.6557  0.5871
   60MOL0     H 7906   2.190   9.396   8.431 -1.6359 -0.0155  1.6965
   60MOL0     H 7907   2.383   9.523   8.443  0.1101  1.2792  0.7788
   60MOL0     H 7908   2.576  10.040   8.172 -0.6612 -2.2506 -0.5786
   60MOL0     H 7909   2.788  10.163   8.192 -1.9285  0.8363  0.9639
   60MOL0     H 7910   3.002  10.267   8.261  2.4705  0.7272 -0.5863
   60MOL0     H 7911   3.027  10.109   8.184  2.0111 -1.4114 -1.6421
   60MOL0     H 7912   3.229  10.080   8.350 -0.5795 -0.0458  0.5178
   60MOL0     H 7913   3.256  10.189   8.215 -0.1163 -0.4104  0.2579
   60MOL0     H 7914   3.189  10.390   8.358 -1.3444 -0.4521 -0.5484
   60MOL0     H 7915   3.344  10.319   8.398  0.2829 -1.5988 -1.8380
   60MOL0     H 7916   3.068  10.292   8.560 -0.3858 -0.3838 -1.4950
   60MOL0     H 7917   3.191  10.176   8.577  3.7825  0.8870  3.2142
   60MOL0     H 7918   3.382  10.530   8.720  0.0763  0.0614  1.0539
   60MOL0     H 7919   2.888   9.943   8.543 -1.0886 -0.8519  1.2682
   60MOL0     H 7920   2.670   9.805   8.514 -0.1255 -1.4941 -2.2569
   61MOL0     O 7921   2.977   8.212   6.588 -0.1370 -0.4003 -0.4287
   61MOL0     C 7922   2.974   8.333   6.556 -0.2677 -0.5514 -0.5784
   61MOL0     O 7923   2.866   8.407   6.503 -0.2174  0.2928 -0.4491
   61MOL0     C 7924   2.751   8.328   6.497 -0.0411 -0.5035 -0.0446
   61MOL0     C 7925   2.683   8.334   6.376 -0.1649 -0.0598  0.3610
   61MOL0     C 7926   2.556   8.276   6.360 -0.2034  0.8777 -0.0847
   61MOL0     C 7927   2.495   8.213   6.469  0.1783  0.3108  0.2212
   61MOL0     O 7928   2.364   8.164   6.484 -0.5546  0.0072 -0.5898
   61MOL0     C 7929   2.275   8.164   6.374 -0.3993  0.5429 -0.1695
   61MOL0     C 7930   2.148   8.091   6.425 -0.1799 -0.3352 -0.5993
   61MOL0     C 7931   2.188   7.948   6.488 -0.1467  0.3152  0.9327
   61MOL0     C 7932   2.059   7.868   6.511 -0.2995 -0.4328  0.1074
   61MOL0     C 7933   1.976   7.932   6.626  0.6303  0.5327  0.1539
   61MOL0     C 7934   1.916   7.819   6.700 -0.2192  0.4691 -0.0603
   61MOL0     C 7935   1.833   7.864   6.819 -0.3882 -0.2297 -0.0534
   61MOL0     C 7936   1.701   7.924   6.769 -0.3936 -0.4955  0.8147
   61MOL0     N 7937   1.606   7.901   6.881  0.7651 -0.5297 -0.6706
   61MOL0     C 7938   1.601   7.958   7.010  0.4476  0.1354 -0.1992
   61MOL0     C 7939   1.493   7.898   7.075  0.0789 -0.3427  1.0136
   61MOL0     C 7940   1.454   7.942   7.212 -0.5185  0.9422 -0.1420
   61MOL0     C 7941   1.297   7.938   7.244  0.3981  1.2120  0.4863
   61MOL0     C 7942   1.222   7.799   7.251 -0.1004  0.4743  0.0677
   61MOL0     C 7943   1.070   7.807   7.230  0.5512  0.4448 -0.3348
   61MOL0     O 7944   1.006   7.883   7.327  0.4494  0.3067  0.2958
   61MOL0     C 7945   0.876   7.854   7.339 -0.4107  0.2185  0.3888
   61MOL0     C 7946   0.826   7.769   7.436  0.5490  0.4890 -0.4842
   61MOL0     C 7947   0.690   7.743   7.454  0.0807  0.4073  0.2298
   61MOL0     C 7948   0.596   7.816   7.376 -1.5727 -0.1094 -0.0034
   61MOL0     C 7949   0.457   7.808   7.402 -0.0602 -0.1887 -0.5384
   61MOL0     O 7950   0.416   7.784   7.533 -0.3170 -0.1242  0.3211
   61MOL0     C 7951   0.286   7.811   7.579 -0.2112  0.1109 -1.2368
   61MOL0     C 7952   0.269   7.858   7.707 -0.2044 -0.5371 -0.0042
   61MOL0     C 7953   0.147   7.880   7.768  0.4356 -0.4963 -0.8576
   61MOL0     C 7954   0.028   7.856   7.694 -0.3508  0.3513  1.0790
   61MOL0     O 7955  -0.089   7.891   7.754  0.2873 -1.0343  0.2799
   61MOL0     C 7956  -0.205   7.800   7.741 -0.3174 -0.5758  0.1815
   61MOL0     C 7957  -0.335   7.882   7.719 -0.0667  0.0489 -0.3787
   61MOL0     C 7958  -0.453   7.785   7.707 -0.4428 -0.6533 -0.9144
   61MOL0     C 7959  -0.577   7.864   7.665  0.6575 -0.0009  0.0911
   61MOL0     C 7960  -0.699   7.762   7.665 -0.5409 -0.3099 -0.5850
   61MOL0     C 7961  -0.741   7.708   7.807  0.2584 -1.3346  0.4910
   61MOL0     C 7962  -0.850   7.796   7.873  0.0498  0.4546  0.2561
   61MOL0     C 7963  -0.907   7.733   7.997 -0.4271  0.2541  0.1581
   61MOL0    Cl 7964  -1.017   7.590   7.964 -0.1652  0.0779  0.5355
   61MOL0     C 7965   0.041   7.815   7.556 -0.2488 -0.5694  0.2179
   61MOL0     C 7966   0.167   7.790   7.500  0.1545  1.0462 -0.0430
   61MOL0     O 7967   0.384   7.818   7.304 -0.0766 -0.1478 -0.1269
   61MOL0     C 7968   0.640   7.889   7.268  0.1188 -1.4769  0.0903
   61MOL0     C 7969   0.780   7.909   7.247 -0.1897  0.2084 -0.1358
   61MOL0     N 7970   1.429   7.808   6.988 -0.8510  0.4274 -0.1027
   61MOL0     N 7971   1.497   7.809   6.874  0.5876  0.3742 -0.3159
   61MOL0     C 7972   2.572   8.198   6.584  0.5938 -0.3502 -0.0580
   61MOL0     C 7973   2.695   8.261   6.603  0.6983 -0.2338  0.1143
   61MOL0     C 7974   3.104   8.412   6.570  0.7406  0.5964 -0.2507
   61MOL0     C 7975   3.109   8.547   6.534 -0.4658  0.9652  0.3751
   61MOL0     C 7976   3.236   8.613   6.523  0.2392 -0.3979 -0.6695
   61MOL0     C 7977   3.354   8.550   6.558 -0.3402 -0.3013  0.2712
   61MOL0     O 7978   3.467   8.634   6.565 -0.1062  1.5361  0.0028
   61MOL0     C 7979   3.595   8.582   6.571 -0.3089 -0.4440 -0.7335
   61MOL0     C 7980   3.634   8.489   6.460 -0.4392  0.2315 -0.3299
   61MOL0     C 7981   3.609   8.533   6.315  0.5331 -0.6128 -0.2679
   61MOL0     C 7982   3.720   8.502   6.205  0.3606 -0.2836 -0.3359
   61MOL0     C 7983   3.746   8.357   6.204 -0.4497  0.3595 -0.3793
   61MOL0     C 7984   3.767   8.240   6.187  0.7538  0.1611  0.1000
   61MOL0     C 7985   3.339   8.420   6.597 -0.0071  0.2372 -0.1066
   61MOL0     C 7986   3.220   8.351   6.600 -0.2730 -0.3926  0.5103
   61MOL0     H 7987   2.722   8.391   6.292 -3.7553  0.6971 -0.9765
   61MOL0     H 7988   2.497   8.283   6.269 -0.9805  1.2868  0.4360
   61MOL0     H 7989   2.313   8.113   6.285 -1.9581  0.5374 -0.8693
   61MOL0     H 7990   2.257   8.267   6.342 -0.5440  0.3601 -0.6894
   61MOL0     H 7991   2.077   8.071   6.344  0.2861  1.2583 -1.4360
   61MOL0     H 7992   2.117   8.160   6.504  1.0090 -1.4901  0.9454
   61MOL0     H 7993   2.243   7.952   6.583  1.5814  3.3207 -0.0463
   61MOL0     H 7994   2.251   7.897   6.415  0.4825 -2.0691  2.9701
   61MOL0     H 7995   2.009   7.847   6.416 -1.5887 -2.3903  1.1519
   61MOL0     H 7996   2.083   7.768   6.551 -0.4723 -0.6986 -0.4499
   61MOL0     H 7997   1.901   8.002   6.588  1.5201  1.2132 -0.3887
   61MOL0     H 7998   2.030   7.993   6.700 -0.1893 -2.0123  3.1038
   61MOL0     H 7999   1.996   7.751   6.731 -2.4479 -2.0134  0.6158
   61MOL0     H 8000   1.849   7.757   6.639 -0.4834 -2.3244  2.8529
   61MOL0     H 8001   1.817   7.770   6.873 -0.2369 -1.5384 -2.1792
   61MOL0     H 8002   1.886   7.941   6.875  0.0209  3.4415 -4.8204
   61MOL0     H 8003   1.671   7.869   6.680 -0.4804 -1.3882  1.3835
   61MOL0     H 8004   1.703   8.028   6.734 -0.8729 -0.4010  1.0556
   61MOL0     H 8005   1.670   8.025   7.060  0.5851 -0.3619  0.2878
   61MOL0     H 8006   1.491   8.045   7.222 -0.9821  1.2617 -1.4833
   61MOL0     H 8007   1.507   7.879   7.284  0.3493  2.2190  0.3800
   61MOL0     H 8008   1.255   7.998   7.163  1.7943 -0.6482 -1.7069
   61MOL0     H 8009   1.285   7.982   7.344 -0.5024  0.3024  0.7811
   61MOL0     H 8010   1.265   7.729   7.178  2.6631  0.9322  1.1179
   61MOL0     H 8011   1.237   7.756   7.350  2.4886 -0.7557 -0.7576
   61MOL0     H 8012   1.030   7.706   7.217  0.8483  0.3007 -0.1529
   61MOL0     H 8013   1.058   7.857   7.134 -0.5473  1.7273  0.4375
   61MOL0     H 8014   0.895   7.721   7.504 -0.1748  0.7787  0.4941
   61MOL0     H 8015   0.649   7.682   7.533 -1.7605 -1.5474 -2.0689
   61MOL0     H 8016   0.354   7.888   7.766  1.5441 -2.8593 -1.1782
   61MOL0     H 8017   0.134   7.913   7.870 -1.5053 -2.1308 -0.5129
   61MOL0     H 8018  -0.206   7.743   7.834  2.6079 -2.1735 -0.6204
   61MOL0     H 8019  -0.193   7.730   7.658  0.6151  0.3139 -0.4706
   61MOL0     H 8020  -0.316   7.941   7.629  0.9870  3.0283  1.6344
   61MOL0     H 8021  -0.347   7.954   7.800 -0.0985 -0.0924 -0.2572
   61MOL0     H 8022  -0.458   7.728   7.801  1.0712  2.0399  0.9380
   61MOL0     H 8023  -0.437   7.711   7.628 -0.0125 -0.2026 -1.2561
   61MOL0     H 8024  -0.595   7.936   7.746  1.9863 -2.3468  2.6452
   61MOL0     H 8025  -0.539   7.912   7.574  1.9407 -3.6333 -1.4502
   61MOL0     H 8026  -0.678   7.674   7.604 -0.7343 -1.5421  1.0711
   61MOL0     H 8027  -0.788   7.804   7.618 -0.6060  1.8276  1.2854
   61MOL0     H 8028  -0.653   7.715   7.872  1.1280 -0.1785 -0.7626
   61MOL0     H 8029  -0.767   7.602   7.802  2.1069 -1.7664 -2.0302
   61MOL0     H 8030  -0.814   7.893   7.908 -0.8055  0.9859 -0.2991
   61MOL0     H 8031  -0.933   7.816   7.804 -0.5726 -1.8389  0.2503
   61MOL0     H 8032  -0.955   7.816   8.049  4.3019  2.8220  0.9875
   61MOL0     H 8033  -0.822   7.694   8.054 -1.9398 -0.1228  2.2875
   61MOL0     H 8034  -0.050   7.814   7.497 -1.4884  3.2095  1.7055
   61MOL0     H 8035   0.172   7.770   7.393 -0.5350  0.1440  0.0831
   61MOL0     H 8036   0.578   7.933   7.190  2.1125 -0.2277 -0.8977
   61MOL0     H 8037   0.798   7.980   7.167 -1.6227  0.8722  0.1023
   61MOL0     H 8038   2.536   8.135   6.665  2.3911  0.0280  1.0688
   61MOL0     H 8039   2.756   8.259   6.693  0.5909  0.3166  0.2016
   61MOL0     H 8040   3.021   8.603   6.503 -1.6534 -0.4014  1.0995
   61MOL0     H 8041   3.237   8.717   6.493  0.0280  0.6032  2.4186
   61MOL0     H 8042   3.614   8.535   6.668 -3.0256  1.3705  0.8154
   61MOL0     H 8043   3.661   8.667   6.558 -0.9762 -0.0460 -1.6866
   61MOL0     H 8044   3.739   8.464   6.479  0.7155  1.9929 -3.5321
   61MOL0     H 8045   3.582   8.394   6.475 -1.6205  0.4808 -2.3868
   61MOL0     H 8046   3.589   8.641   6.318 -1.0270 -0.8917  0.3573
   61MOL0     H 8047   3.520   8.485   6.273  1.2680 -3.4103  1.0862
   61MOL0     H 8048   3.684   8.528   6.105  2.8782 -0.0144 -1.2539
   61MOL0     H 8049   3.815   8.552   6.226  1.3291 -1.9313 -0.6031
   61MOL0     H 8050   3.764   8.134   6.171  0.1044  0.3911 -1.5524
   61MOL0     H 8051   3.426   8.370   6.638 -0.7567  0.6366  2.1031
   61MOL0     H 8052   3.220   8.245   6.626 -0.7440 -0.6700 -0.5620
   62MOL0     O 8053   1.405   1.352   6.283 -0.0392 -1.0429 -0.3983
   62MOL0     C 8054   1.505   1.312   6.346  0.3752  0.0585 -0.6209
   62MOL0     O 8055   1.504   1.243   6.461  0.0021 -0.0388  0.5511
   62MOL0     C 8056   1.386   1.230   6.532  0.5668 -0.0682  0.1657
   62MOL0     C 8057   1.276   1.159   6.477 -0.0370  0.6116 -0.8966
   62MOL0     C 8058   1.161   1.134   6.554  0.5520 -0.5215  0.2155
   62MOL0     C 8059   1.150   1.188   6.687  0.3412 -0.9053  1.1841
   62MOL0     O 8060   1.042   1.185   6.769 -0.6160 -0.1316  0.2403
   62MOL0     C 8061   0.926   1.242   6.706 -0.2664  0.3509 -0.5424
   62MOL0     C 8062   0.884   1.380   6.762 -1.0638  0.2117  0.2160
   62MOL0     C 8063   0.903   1.406   6.909 -0.2444 -1.1748  0.0189
   62MOL0     C 8064   0.839   1.541   6.944  0.5200 -0.6458 -1.2571
   62MOL0     C 8065   0.927   1.668   6.929  0.3688  0.0038  0.9614
   62MOL0     C 8066   1.057   1.670   7.010  0.6546 -0.0789 -0.2970
   62MOL0     C 8067   1.113   1.818   7.016  0.5252 -0.4554  0.2414
   62MOL0     C 8068   1.235   1.835   7.107  1.0203 -0.9245 -0.2322
   62MOL0     N 8069   1.344   1.752   7.059 -1.3828 -0.2426  0.2262
   62MOL0     C 8070   1.390   1.628   7.106  0.1279  1.0406  0.7358
   62MOL0     C 8071   1.506   1.601   7.027 -0.0971  0.0088  0.0034
   62MOL0     C 8072   1.608   1.487   7.041  0.6292 -0.7301 -0.4364
   62MOL0     C 8073   1.759   1.530   7.040  0.3553  0.3187 -0.1988
   62MOL0     C 8074   1.814   1.515   6.905 -0.7358 -0.5145  0.1957
   62MOL0     C 8075   1.843   1.373   6.855 -0.6380  0.3240 -0.8915
   62MOL0     O 8076   1.954   1.381   6.768 -0.1181  0.1721  0.0339
   62MOL0     C 8077   2.085   1.365   6.821 -0.0017  0.5253  0.0933
   62MOL0     C 8078   2.167   1.472   6.784  0.2608 -0.2157  0.0499
   62MOL0     C 8079   2.286   1.495   6.864 -0.0360  0.2495  0.5142
   62MOL0     C 8080   2.331   1.406   6.957 -0.2477 -0.2963  0.2966
   62MOL0     C 8081   2.472   1.406   6.998 -0.0379 -0.2342  0.3429
   62MOL0     O 8082   2.503   1.316   7.095  0.1544 -0.7318  0.3642
   62MOL0     C 8083   2.630   1.303   7.132 -0.6577  0.6408 -0.2334
   62MOL0     C 8084   2.695   1.404   7.202  0.1946  0.5436  0.5632
   62MOL0     C 8085   2.830   1.405   7.218 -0.0588 -0.0725 -0.4644
   62MOL0     C 8086   2.912   1.295   7.175  0.2671  0.7551  0.8605
   62MOL0     O 8087   3.049   1.298   7.173 -0.2110 -0.3653 -0.5124
   62MOL0     C 8088   3.122   1.423   7.183 -1.1019 -0.1532  0.6087
   62MOL0     C 8089   3.246   1.435   7.096 -1.2742  0.2312 -0.4802
   62MOL0     C 8090   3.345   1.325   7.124 -0.5937  0.5241  0.1613
   62MOL0     C 8091   3.438   1.322   7.005  0.5962  0.8373 -0.6272
   62MOL0     C 8092   3.553   1.225   7.003 -0.8889 -0.2801  0.4952
   62MOL0     C 8093   3.661   1.272   7.106  0.1638 -0.2766  0.3169
   62MOL0     C 8094   3.776   1.181   7.116 -0.3745  0.1658 -1.4768
   62MOL0     C 8095   3.889   1.229   7.197  0.4826 -0.6650 -0.5553
   62MOL0    Cl 8096   3.974   1.377   7.134  0.0051  0.0181 -0.0855
   62MOL0     C 8097   2.844   1.190   7.107 -0.1931 -1.3633 -0.2507
   62MOL0     C 8098   2.705   1.190   7.093  0.3518  0.6845 -0.2145
   62MOL0     O 8099   2.551   1.475   6.928  0.0287  0.0678  0.2131
   62MOL0     C 8100   2.244   1.300   6.995  0.2839 -0.3973  0.5927
   62MOL0     C 8101   2.123   1.286   6.932  0.2222 -0.3294  0.1463
   62MOL0     N 8102   1.521   1.697   6.935 -0.0487  0.4493  0.3818
   62MOL0     N 8103   1.428   1.788   6.950  0.7229 -1.2893 -0.2845
   62MOL0     C 8104   1.260   1.260   6.734  0.7114 -1.2326 -0.5789
   62MOL0     C 8105   1.375   1.283   6.662 -0.6848 -0.0455  1.1988
   62MOL0     C 8106   1.635   1.332   6.275  0.7973 -0.4091 -0.4556
   62MOL0     C 8107   1.751   1.263   6.316  1.3017 -0.0711  0.3853
   62MOL0     C 8108   1.871   1.281   6.240  0.1152  0.4739 -0.5398
   62MOL0     C 8109   1.877   1.368   6.128 -0.1225  0.7477  0.6151
   62MOL0     O 8110   1.985   1.391   6.050  0.4064 -0.0132  0.8578
   62MOL0     C 8111   2.112   1.330   6.064 -0.7259  0.3621  0.2805
   62MOL0     C 8112   2.196   1.409   6.168 -0.0935 -0.7852  0.3506
   62MOL0     C 8113   2.340   1.353   6.165 -0.8529 -0.6821 -0.6748
   62MOL0     C 8114   2.427   1.446   6.255  0.4455 -0.4480 -0.1386
   62MOL0     C 8115   2.561   1.395   6.279  0.5958 -0.0995 -0.7941
   62MOL0     C 8116   2.678   1.363   6.308 -0.4117 -0.6748  0.0423
   62MOL0     C 8117   1.755   1.430   6.096 -1.3867 -0.7022  0.0382
   62MOL0     C 8118   1.635   1.418   6.166 -0.6984  0.5648  0.3056
   62MOL0     H 8119   1.281   1.135   6.371 -2.7426  0.2365 -1.0099
   62MOL0     H 8120   1.074   1.082   6.515 -0.4966 -0.5385  2.4304
   62MOL0     H 8121   0.841   1.174   6.712 -1.2975  1.3871 -2.3925
   62MOL0     H 8122   0.948   1.252   6.599  3.6018  2.5895  0.2611
   62MOL0     H 8123   0.780   1.388   6.729 -0.8117  1.4465 -0.3443
   62MOL0     H 8124   0.943   1.453   6.706 -0.3111  1.0325  2.0062
   62MOL0     H 8125   1.006   1.399   6.943  0.2362  0.5154 -1.0147
   62MOL0     H 8126   0.852   1.328   6.967  1.1664 -2.0059  0.1998
   62MOL0     H 8127   0.750   1.559   6.883  1.1770  7.2632 -0.8840
   62MOL0     H 8128   0.810   1.544   7.049 -1.0066 -2.4275 -1.5593
   62MOL0     H 8129   0.862   1.750   6.961 -0.8390 -0.9750  1.1328
   62MOL0     H 8130   0.965   1.684   6.827  0.8931 -1.4545  0.8925
   62MOL0     H 8131   1.133   1.605   6.967 -0.3227 -0.3941 -1.6160
   62MOL0     H 8132   1.032   1.634   7.111  2.0878  0.3251  0.2251
   62MOL0     H 8133   1.136   1.854   6.916 -0.5945 -1.5923 -0.4488
   62MOL0     H 8134   1.037   1.884   7.058  0.6626 -0.7938  1.0520
   62MOL0     H 8135   1.198   1.803   7.205 -0.1548  1.6494  0.2574
   62MOL0     H 8136   1.263   1.941   7.109  0.0858 -0.6742  2.3714
   62MOL0     H 8137   1.329   1.572   7.177  1.0696 -0.3834  0.4560
   62MOL0     H 8138   1.588   1.413   6.963  1.9957  1.4259 -3.0518
   62MOL0     H 8139   1.591   1.447   7.141 -2.3590  1.2523 -0.0132
   62MOL0     H 8140   1.818   1.484   7.120  0.0893  2.1881  1.1392
   62MOL0     H 8141   1.761   1.638   7.059 -3.8018  0.4603  0.3509
   62MOL0     H 8142   1.766   1.573   6.826  0.3290  3.5211  2.2877
   62MOL0     H 8143   1.910   1.564   6.922 -1.3455  0.1170  2.0849
   62MOL0     H 8144   1.759   1.342   6.792 -3.2040 -0.5301  2.5856
   62MOL0     H 8145   1.860   1.302   6.937  0.4242  1.3083 -0.2276
   62MOL0     H 8146   2.137   1.538   6.704  2.9028 -1.9381 -2.5654
   62MOL0     H 8147   2.348   1.579   6.834 -0.1178  0.4831  0.9910
   62MOL0     H 8148   2.638   1.494   7.223  1.8068  1.2299  2.3391
   62MOL0     H 8149   2.876   1.495   7.257  0.1712  0.2814 -1.4990
   62MOL0     H 8150   3.155   1.439   7.286 -1.0486 -1.9863  0.9121
   62MOL0     H 8151   3.056   1.503   7.149 -0.8076 -0.5760 -1.0520
   62MOL0     H 8152   3.292   1.534   7.093 -2.7312  0.9266 -1.4231
   62MOL0     H 8153   3.213   1.421   6.992 -0.9927  0.4078 -0.5941
   62MOL0     H 8154   3.302   1.224   7.117  2.3408 -0.7241 -1.5003
   62MOL0     H 8155   3.401   1.341   7.216  2.7554 -2.5079 -1.1059
   62MOL0     H 8156   3.384   1.303   6.912 -0.3304 -2.4746  0.4180
   62MOL0     H 8157   3.499   1.412   6.992  0.4886  1.1027  0.6226
   62MOL0     H 8158   3.600   1.230   6.904 -0.4162 -2.5867  0.5428
   62MOL0     H 8159   3.528   1.120   7.020  0.6895 -0.6193  0.8589
   62MOL0     H 8160   3.609   1.269   7.203  0.5002  1.0252  0.5573
   62MOL0     H 8161   3.695   1.373   7.084 -0.4659  0.0569  0.8312
   62MOL0     H 8162   3.732   1.093   7.164 -0.0833  0.3947 -0.7856
   62MOL0     H 8163   3.803   1.165   7.011 -0.5986  0.5420 -1.5924
   62MOL0     H 8164   3.954   1.144   7.221 -0.4639 -0.8102  1.6964
   62MOL0     H 8165   3.853   1.259   7.296  3.6893  0.4712  0.3771
   62MOL0     H 8166   2.903   1.104   7.076  0.4405 -1.2561  0.6151
   62MOL0     H 8167   2.661   1.105   7.042 -0.9103  0.0586  1.7877
   62MOL0     H 8168   2.273   1.250   7.086  1.5652  0.8216  0.8939
   62MOL0     H 8169   2.046   1.224   6.975 -0.9194  1.3426  0.6102
   62MOL0     H 8170   1.261   1.300   6.835 -1.7939 -0.5987 -0.7318
   62MOL0     H 8171   1.458   1.342   6.701  1.0800 -1.1446 -0.6773
   62MOL0     H 8172   1.747   1.202   6.406  1.4149  0.8611  1.0401
   62MOL0     H 8173   1.953   1.213   6.258 -1.0161 -0.8549 -0.1919
   62MOL0     H 8174   2.161   1.319   5.967 -2.8088  0.7342 -0.8661
   62MOL0     H 8175   2.093   1.228   6.098 -1.8037 -0.2550 -1.9978
   62MOL0     H 8176   2.190   1.517   6.154 -1.2925 -0.8911 -0.0271
   62MOL0     H 8177   2.153   1.385   6.266 -2.6094 -1.9098 -0.9443
   62MOL0     H 8178   2.379   1.354   6.062  0.2469 -0.2999 -0.2644
   62MOL0     H 8179   2.322   1.256   6.212 -0.5590  0.0885  1.0721
   62MOL0     H 8180   2.431   1.543   6.205 -1.1901 -1.1879 -1.8115
   62MOL0     H 8181   2.380   1.458   6.353  0.8664 -3.3512  0.5298
   62MOL0     H 8182   2.780   1.345   6.334 -0.1933 -1.8753 -1.5151
   62MOL0     H 8183   1.756   1.481   6.001 -1.1569 -2.5795 -1.0112
   62MOL0     H 8184   1.549   1.472   6.128 -0.7577  0.1126 -0.2028
   63MOL0     O 8185   8.784   1.424   6.197  0.7562  0.2766 -0.0346
   63MOL0     C 8186   8.836   1.410   6.089 -0.3345  0.4754  0.3705
   63MOL0     O 8187   8.800   1.471   5.971 -0.3104 -0.5356  0.1875
   63MOL0     C 8188   8.687   1.550   5.950  0.3905 -0.4730 -0.3044
   63MOL0     C 8189   8.575   1.560   6.030 -0.0894 -0.5344 -0.6205
   63MOL0     C 8190   8.474   1.645   6.015  0.1111 -0.0573  0.2787
   63MOL0     C 8191   8.469   1.716   5.901  0.2510  0.0837 -0.1461
   63MOL0     O 8192   8.369   1.808   5.899  0.5984 -0.2211 -0.2572
   63MOL0     C 8193   8.359   1.897   5.782  0.4586  1.0235  0.2777
   63MOL0     C 8194   8.229   1.972   5.780  1.0122 -0.2498  0.3637
   63MOL0     C 8195   8.107   1.878   5.780 -0.1066  0.0176 -1.0917
   63MOL0     C 8196   8.109   1.775   5.674 -0.4879 -0.1907  0.5065
   63MOL0     C 8197   7.968   1.700   5.649 -0.4387  0.2454  0.6682
   63MOL0     C 8198   7.893   1.655   5.779  0.4561  1.3364  0.1238
   63MOL0     C 8199   7.759   1.585   5.745  0.1187 -0.3036 -0.1890
   63MOL0     C 8200   7.645   1.673   5.710 -0.7385 -0.1770  0.1744
   63MOL0     N 8201   7.516   1.607   5.673 -0.5654  0.0943  0.5458
   63MOL0     C 8202   7.437   1.545   5.763 -0.2513  0.4559  0.2191
   63MOL0     C 8203   7.340   1.485   5.691  0.3315  0.3148  0.2732
   63MOL0     C 8204   7.227   1.381   5.724 -0.5075  0.0751  0.2414
   63MOL0     C 8205   7.106   1.400   5.648  0.7160 -0.4109  0.8448
   63MOL0     C 8206   7.030   1.533   5.678  0.0530 -0.0843  0.1280
   63MOL0     C 8207   6.892   1.553   5.613 -0.0809  0.7829 -0.8075
   63MOL0     O 8208   6.788   1.498   5.696  0.1562 -0.0340  0.5550
   63MOL0     C 8209   6.652   1.534   5.671 -0.0617 -0.0415 -0.0480
   63MOL0     C 8210   6.621   1.669   5.639 -1.1883  0.2864  0.2273
   63MOL0     C 8211   6.494   1.708   5.629 -0.0014  0.6214 -0.8107
   63MOL0     C 8212   6.384   1.622   5.639  0.9272 -0.5657 -0.8995
   63MOL0     C 8213   6.245   1.667   5.626  0.4177  0.4379  0.0479
   63MOL0     O 8214   6.156   1.579   5.572 -0.1757  0.3080  0.3912
   63MOL0     C 8215   6.032   1.623   5.550  0.6728  0.7713  0.0766
   63MOL0     C 8216   5.954   1.670   5.653 -0.1012  0.6751  0.1976
   63MOL0     C 8217   5.819   1.704   5.635 -0.8084  0.3921  0.3386
   63MOL0     C 8218   5.765   1.695   5.509  0.7821 -0.1673  0.1722
   63MOL0     O 8219   5.638   1.736   5.486  1.1647 -0.3268 -0.3416
   63MOL0     C 8220   5.549   1.700   5.380  0.0076 -0.5132  0.2644
   63MOL0     C 8221   5.514   1.553   5.372 -0.7352  0.2939 -0.0367
   63MOL0     C 8222   5.370   1.535   5.310  0.0589 -0.0990 -0.1717
   63MOL0     C 8223   5.357   1.585   5.161 -0.7320  0.8831  0.2744
   63MOL0     C 8224   5.214   1.582   5.108 -0.3053 -0.9559 -0.3579
   63MOL0     C 8225   5.155   1.440   5.088 -0.4642  0.5877 -0.1029
   63MOL0     C 8226   5.001   1.433   5.125 -0.0846  0.3101  0.5685
   63MOL0     C 8227   4.935   1.308   5.084  0.0143 -0.2898  0.6559
   63MOL0    Cl 8228   4.943   1.298   4.905  0.5141  0.3193  0.1638
   63MOL0     C 8229   5.851   1.649   5.402  0.0294 -0.1024 -0.0570
   63MOL0     C 8230   5.980   1.607   5.429 -0.0738 -0.4756 -0.3464
   63MOL0     O 8231   6.226   1.788   5.649  0.0160  0.8339 -0.1000
   63MOL0     C 8232   6.411   1.490   5.675 -0.8323 -0.3440  0.7410
   63MOL0     C 8233   6.546   1.445   5.682 -0.4570 -0.4988 -0.0442
   63MOL0     N 8234   7.355   1.519   5.562  0.1392  0.1980  0.6215
   63MOL0     N 8235   7.457   1.598   5.556 -0.1195 -0.5386 -0.4361
   63MOL0     C 8236   8.575   1.717   5.813  1.6254 -0.0328  0.3812
   63MOL0     C 8237   8.686   1.634   5.835 -0.4279 -0.0726  0.7296
   63MOL0     C 8238   8.967   1.349   6.090 -0.7841 -0.5849 -0.0870
   63MOL0     C 8239   9.032   1.320   5.968  0.2899  0.3636 -0.2809
   63MOL0     C 8240   9.157   1.279   5.964  0.2595 -0.4391  0.4818
   63MOL0     C 8241   9.228   1.260   6.082  0.4555 -0.0654 -0.6605
   63MOL0     O 8242   9.351   1.212   6.062  0.0542 -0.1583 -0.5366
   63MOL0     C 8243   9.415   1.154   6.178 -0.2319  0.7847  0.0280
   63MOL0     C 8244   9.504   1.251   6.256  0.2504  0.5177 -0.2207
   63MOL0     C 8245   9.571   1.358   6.162  0.2063 -0.2170  0.2276
   63MOL0     C 8246   9.674   1.447   6.231 -0.1157  0.1236 -0.4617
   63MOL0     C 8247   9.760   1.529   6.142 -0.2823 -0.1409  0.8216
   63MOL0     C 8248   9.854   1.566   6.072 -0.0536  0.0907 -0.1963
   63MOL0     C 8249   9.163   1.280   6.207  0.1765  0.4543 -0.7316
   63MOL0     C 8250   9.029   1.317   6.214  0.5670 -0.5711  1.2316
   63MOL0     H 8251   8.590   1.515   6.128 -2.0599  0.7263  0.3125
   63MOL0     H 8252   8.398   1.656   6.092  2.4191  0.2515  2.6871
   63MOL0     H 8253   8.372   1.852   5.684 -2.6221 -1.3478  0.7974
   63MOL0     H 8254   8.446   1.963   5.796  0.5963  1.1470 -1.0393
   63MOL0     H 8255   8.228   2.038   5.692 -2.0777  0.7848  1.0476
   63MOL0     H 8256   8.216   2.031   5.871 -0.1609  0.3204 -0.1463
   63MOL0     H 8257   8.014   1.935   5.778 -0.2379  0.5731  4.4927
   63MOL0     H 8258   8.094   1.828   5.876 -1.3153 -0.0252 -1.2580
   63MOL0     H 8259   8.135   1.815   5.575 -1.8574  0.5329  0.3979
   63MOL0     H 8260   8.181   1.702   5.711  1.7829  2.2342  1.1239
   63MOL0     H 8261   7.995   1.621   5.578  2.2028  1.4494  0.1966
   63MOL0     H 8262   7.898   1.765   5.594  1.5180  1.8615 -0.0602
   63MOL0     H 8263   7.871   1.743   5.840  1.3278  1.1582  0.7151
   63MOL0     H 8264   7.952   1.586   5.840 -0.8714 -1.8140 -1.8685
   63MOL0     H 8265   7.771   1.513   5.664  0.8836  0.6389 -0.9341
   63MOL0     H 8266   7.730   1.513   5.822  0.6517 -0.2678  0.0453
   63MOL0     H 8267   7.678   1.743   5.633 -1.1410  1.0061  1.0429
   63MOL0     H 8268   7.629   1.738   5.797  0.0293  0.4382 -0.1406
   63MOL0     H 8269   7.457   1.524   5.867 -0.2295 -1.7235 -0.1702
   63MOL0     H 8270   7.214   1.376   5.833  3.4359 -0.7114  0.8501
   63MOL0     H 8271   7.268   1.281   5.705  0.1323  0.3572  0.0944
   63MOL0     H 8272   7.036   1.319   5.668  0.3712 -0.4676 -0.4656
   63MOL0     H 8273   7.122   1.396   5.539  3.3074  2.4090  0.9834
   63MOL0     H 8274   7.021   1.539   5.787 -4.1034 -0.5923 -0.0439
   63MOL0     H 8275   7.088   1.617   5.637 -0.2997 -0.0742 -0.3529
   63MOL0     H 8276   6.895   1.496   5.520  2.0209 -3.2253  1.4446
   63MOL0     H 8277   6.884   1.661   5.597  0.0603  1.4943  2.9258
   63MOL0     H 8278   6.687   1.754   5.629 -1.5665  0.4286 -1.2877
   63MOL0     H 8279   6.481   1.810   5.592 -6.4966 -0.7919 -3.8933
   63MOL0     H 8280   6.003   1.663   5.749 -3.0288 -2.5457  1.6832
   63MOL0     H 8281   5.760   1.752   5.712 -1.9839  0.1992 -0.4161
   63MOL0     H 8282   5.578   1.744   5.285  0.4501 -0.6947  0.3148
   63MOL0     H 8283   5.458   1.760   5.389  1.4712  2.4273 -2.5108
   63MOL0     H 8284   5.516   1.514   5.474 -0.3921  2.8922  1.0242
   63MOL0     H 8285   5.595   1.497   5.323 -1.4853 -1.5933  0.8008
   63MOL0     H 8286   5.294   1.586   5.371  1.1514  2.1503 -0.5723
   63MOL0     H 8287   5.359   1.427   5.319 -3.3771  0.2732  2.5077
   63MOL0     H 8288   5.377   1.692   5.155 -2.9661  1.3032 -0.6981
   63MOL0     H 8289   5.422   1.522   5.100  1.2905  2.1810  0.9936
   63MOL0     H 8290   5.217   1.635   5.013  0.5446 -0.7804 -0.2457
   63MOL0     H 8291   5.149   1.641   5.173  0.7464  1.1385 -1.1349
   63MOL0     H 8292   5.207   1.364   5.147 -1.7079  0.3039  0.6658
   63MOL0     H 8293   5.178   1.410   4.985  0.4266  0.3544  0.1612
   63MOL0     H 8294   4.992   1.433   5.234  1.8616  0.1184  0.7530
   63MOL0     H 8295   4.942   1.519   5.091 -2.4118  0.1900  3.8179
   63MOL0     H 8296   4.834   1.290   5.121 -0.3761 -3.3786 -1.5480
   63MOL0     H 8297   5.004   1.232   5.124  0.5021 -1.4129 -2.1240
   63MOL0     H 8298   5.803   1.640   5.305 -1.4341 -0.5029  0.6744
   63MOL0     H 8299   6.040   1.557   5.354  2.3497  0.2846  0.9737
   63MOL0     H 8300   6.331   1.419   5.694  0.5866 -2.1069  0.3921
   63MOL0     H 8301   6.581   1.345   5.706 -0.7786 -0.1280  2.1758
   63MOL0     H 8302   8.569   1.780   5.725 -0.2846 -1.8711 -0.9016
   63MOL0     H 8303   8.775   1.631   5.773  0.0146  2.7016  1.1248
   63MOL0     H 8304   8.981   1.334   5.874  0.2348 -0.6403 -0.4091
   63MOL0     H 8305   9.198   1.270   5.865 -3.2496  3.2175 -1.6191
   63MOL0     H 8306   9.464   1.059   6.153 -1.7496  0.1094 -0.4678
   63MOL0     H 8307   9.337   1.114   6.243  2.3366  0.3581  3.1604
   63MOL0     H 8308   9.448   1.301   6.336  0.8840 -2.9694  2.6266
   63MOL0     H 8309   9.579   1.197   6.313  0.6366 -2.0606 -2.9501
   63MOL0     H 8310   9.495   1.433   6.138  0.5610  0.2300  0.4850
   63MOL0     H 8311   9.609   1.326   6.065  0.2236  0.9262 -0.1607
   63MOL0     H 8312   9.609   1.510   6.293 -0.5395  0.2659 -1.0391
   63MOL0     H 8313   9.744   1.391   6.293 -0.7889 -0.4671 -0.2142
   63MOL0     H 8314   9.936   1.592   6.007  0.1152 -4.6881 -2.3084
   63MOL0     H 8315   9.207   1.274   6.306 -3.3566  2.9423  1.2186
   63MOL0     H 8316   8.965   1.329   6.301  1.5735  0.9830  1.8030
   64MOL0     O 8317   7.410   3.209   7.353  0.2071  0.3425 -0.0654
   64MOL0     C 8318   7.446   3.256   7.458 -0.5712  0.0210  0.3506
   64MOL0     O 8319   7.365   3.308   7.558  0.0807  0.0174 -0.2145
   64MOL0     C 8320   7.233   3.329   7.521 -0.2612 -0.1623 -0.5038
   64MOL0     C 8321   7.129   3.262   7.591  0.6476  0.0550  0.3594
   64MOL0     C 8322   7.000   3.284   7.547  0.2496  0.3881  0.1094
   64MOL0     C 8323   6.959   3.368   7.441 -0.3639  0.1630 -0.6157
   64MOL0     O 8324   6.826   3.377   7.401 -0.3731 -0.5163 -0.3695
   64MOL0     C 8325   6.723   3.374   7.506  0.3606  0.5522 -0.5430
   64MOL0     C 8326   6.576   3.416   7.461  0.1535  0.0173  0.6330
   64MOL0     C 8327   6.493   3.437   7.577  0.3542  0.8424  0.5938
   64MOL0     C 8328   6.337   3.390   7.551 -1.3374 -0.1442 -0.3431
   64MOL0     C 8329   6.275   3.392   7.684 -0.3706 -0.7415  0.3835
   64MOL0     C 8330   6.141   3.327   7.674  0.2673  0.4293 -0.9248
   64MOL0     C 8331   6.043   3.404   7.575  0.1920  0.1858 -0.6692
   64MOL0     C 8332   5.915   3.313   7.553 -0.1842  0.4588 -0.8129
   64MOL0     N 8333   5.821   3.317   7.659  0.2430  0.2893 -1.1977
   64MOL0     C 8334   5.736   3.418   7.685  0.4964 -0.4477 -0.0213
   64MOL0     C 8335   5.663   3.380   7.787 -0.1414 -0.3115 -1.7537
   64MOL0     C 8336   5.553   3.457   7.852  0.2583  0.2495 -1.3554
   64MOL0     C 8337   5.550   3.432   8.009 -0.0032  0.1607  0.4797
   64MOL0     C 8338   5.679   3.461   8.078  0.3863  0.0123  0.3383
   64MOL0     C 8339   5.709   3.604   8.099 -0.3916 -0.3161  0.1441
   64MOL0     O 8340   5.791   3.621   8.213  0.9736  0.1651  0.4641
   64MOL0     C 8341   5.914   3.553   8.213  0.4444 -0.3834 -0.4639
   64MOL0     C 8342   5.957   3.505   8.333  0.6378  0.5393 -0.7062
   64MOL0     C 8343   6.096   3.467   8.348  0.4204  0.0907 -1.1170
   64MOL0     C 8344   6.193   3.482   8.245  1.4209 -1.6472 -0.7138
   64MOL0     C 8345   6.330   3.446   8.259  0.1134 -0.7904  0.9000
   64MOL0     O 8346   6.371   3.386   8.367  0.5590 -0.2685 -0.0934
   64MOL0     C 8347   6.499   3.354   8.384 -0.1473 -0.2933  0.1503
   64MOL0     C 8348   6.553   3.231   8.346  0.7060  0.5808  1.1267
   64MOL0     C 8349   6.685   3.202   8.394 -0.6219 -0.8748  0.5261
   64MOL0     C 8350   6.765   3.289   8.466  0.1649 -0.9011 -1.2890
   64MOL0     O 8351   6.896   3.270   8.503  0.5685  0.3635  0.1789
   64MOL0     C 8352   6.958   3.138   8.470 -0.3892 -0.0689 -0.7612
   64MOL0     C 8353   7.105   3.138   8.509 -0.1110  0.6359 -0.2176
   64MOL0     C 8354   7.172   3.181   8.383  0.0261 -0.2595  0.1731
   64MOL0     C 8355   7.322   3.192   8.414  0.3710 -0.0040  0.3319
   64MOL0     C 8356   7.380   3.304   8.313  0.3646  0.2551 -0.0947
   64MOL0     C 8357   7.345   3.297   8.159 -0.1095 -0.6964  0.0758
   64MOL0     C 8358   7.459   3.347   8.067 -0.5041  0.2794 -0.3779
   64MOL0     C 8359   7.459   3.310   7.919  0.2522 -0.2180 -0.3440
   64MOL0    Cl 8360   7.476   3.134   7.906 -0.4047 -0.1272 -0.3941
   64MOL0     C 8361   6.703   3.409   8.513  0.1327  0.1303  0.0531
   64MOL0     C 8362   6.570   3.438   8.473  0.7126  0.9913 -0.5986
   64MOL0     O 8363   6.406   3.466   8.166 -0.1175 -0.2974  0.2635
   64MOL0     C 8364   6.157   3.544   8.124 -1.1241 -0.3621 -0.3523
   64MOL0     C 8365   6.017   3.575   8.109  0.4897  0.0969 -0.0898
   64MOL0     N 8366   5.690   3.245   7.815  0.3261 -0.0370  0.2328
   64MOL0     N 8367   5.786   3.216   7.742  0.4749  0.0176  0.2850
   64MOL0     C 8368   7.063   3.432   7.379  0.1122  1.2192  0.1013
   64MOL0     C 8369   7.198   3.417   7.418 -0.6773 -0.2075  0.0870
   64MOL0     C 8370   7.589   3.231   7.480 -0.6642  0.0201  0.5128
   64MOL0     C 8371   7.639   3.261   7.608 -0.6345  0.7487 -0.2771
   64MOL0     C 8372   7.781   3.254   7.626  0.6980 -0.5301  0.2538
   64MOL0     C 8373   7.864   3.225   7.520  0.5592 -0.8192  1.0742
   64MOL0     O 8374   7.997   3.212   7.540  0.3362 -0.1964 -0.2898
   64MOL0     C 8375   8.061   3.235   7.666 -0.1399 -0.8471 -0.0479
   64MOL0     C 8376   8.210   3.241   7.648  0.0513 -0.2836  0.3142
   64MOL0     C 8377   8.250   3.336   7.532 -0.3244 -0.6736 -0.0480
   64MOL0     C 8378   8.399   3.289   7.486  0.5747 -1.3794  0.6529
   64MOL0     C 8379   8.438   3.413   7.401 -0.5373  1.0156  0.1105
   64MOL0     C 8380   8.462   3.498   7.324 -0.5888 -1.3310 -0.5054
   64MOL0     C 8381   7.813   3.183   7.398  0.0495 -0.5995  0.5361
   64MOL0     C 8382   7.675   3.194   7.376  0.2227 -0.0051  1.1008
   64MOL0     H 8383   7.152   3.203   7.679  0.2352 -2.2435 -0.9647
   64MOL0     H 8384   6.920   3.237   7.603  3.1509 -0.9207  3.5278
   64MOL0     H 8385   6.747   3.453   7.578 -2.1882 -1.1631  2.4202
   64MOL0     H 8386   6.719   3.286   7.570  1.1951 -0.1444 -1.4158
   64MOL0     H 8387   6.544   3.341   7.388 -0.3285  1.3952 -0.5991
   64MOL0     H 8388   6.580   3.510   7.405  0.5782 -3.1808 -5.5797
   64MOL0     H 8389   6.500   3.543   7.601  0.0843  1.0415 -0.1826
   64MOL0     H 8390   6.528   3.379   7.663 -1.4642 -2.7606 -0.8524
   64MOL0     H 8391   6.296   3.463   7.480 -1.5338  1.2848  1.1712
   64MOL0     H 8392   6.338   3.288   7.511 -2.6655  0.5525 -2.3245
   64MOL0     H 8393   6.266   3.492   7.727  3.4983 -1.1725  2.6249
   64MOL0     H 8394   6.332   3.335   7.757  1.1483  0.1523 -0.0635
   64MOL0     H 8395   6.092   3.330   7.771  0.3113  0.6281 -0.9081
   64MOL0     H 8396   6.165   3.222   7.659 -0.7616 -0.5566  3.2253
   64MOL0     H 8397   6.019   3.505   7.609  3.6676  0.4006  1.6242
   64MOL0     H 8398   6.076   3.417   7.471 -1.1516  3.1584 -0.8228
   64MOL0     H 8399   5.947   3.210   7.541  0.2254  0.5691 -0.6750
   64MOL0     H 8400   5.868   3.338   7.457 -0.2888 -1.6823 -1.3586
   64MOL0     H 8401   5.736   3.509   7.627  1.0019 -1.1882 -1.2213
   64MOL0     H 8402   5.451   3.439   7.816 -0.4373  0.6709  0.3387
   64MOL0     H 8403   5.580   3.562   7.837 -1.2840  0.9374  0.2801
   64MOL0     H 8404   5.520   3.329   8.031  0.9034 -0.1102  0.4920
   64MOL0     H 8405   5.471   3.501   8.041  0.6195  1.4859 -0.7140
   64MOL0     H 8406   5.670   3.413   8.175  4.3034 -1.7447  0.0300
   64MOL0     H 8407   5.767   3.414   8.034  1.3166  2.0046 -0.0388
   64MOL0     H 8408   5.622   3.668   8.113  0.8301  1.6012 -0.7342
   64MOL0     H 8409   5.762   3.657   8.020 -1.6579  0.4022 -0.2579
   64MOL0     H 8410   5.883   3.500   8.413  1.5338 -3.1650  0.0826
   64MOL0     H 8411   6.125   3.440   8.448 -0.2884 -1.0004 -1.1862
   64MOL0     H 8412   6.504   3.167   8.274  4.0428 -0.3196 -0.5553
   64MOL0     H 8413   6.725   3.110   8.353  1.5944  1.4480 -3.2058
   64MOL0     H 8414   6.938   3.111   8.366 -0.8962  2.1349 -1.2900
   64MOL0     H 8415   6.921   3.063   8.540 -0.3105  3.2860  3.3050
   64MOL0     H 8416   7.139   3.041   8.545 -2.1620 -0.0791 -0.0822
   64MOL0     H 8417   7.115   3.212   8.590  0.1557  0.5300 -0.1557
   64MOL0     H 8418   7.129   3.278   8.358 -1.0176 -0.9662 -0.8613
   64MOL0     H 8419   7.157   3.107   8.304 -1.3160  0.2243 -0.0478
   64MOL0     H 8420   7.349   3.225   8.515 -1.0371 -0.0925  0.7526
   64MOL0     H 8421   7.371   3.096   8.399 -0.2483 -0.1923 -0.5907
   64MOL0     H 8422   7.489   3.301   8.308  0.5045  0.5730  1.8847
   64MOL0     H 8423   7.375   3.404   8.358  1.6838  1.0769 -1.6786
   64MOL0     H 8424   7.258   3.357   8.130  1.4659  1.8401  0.3250
   64MOL0     H 8425   7.319   3.195   8.131  0.3035 -0.7493 -0.1143
   64MOL0     H 8426   7.461   3.456   8.066 -1.7611  0.3387  0.8737
   64MOL0     H 8427   7.550   3.304   8.111 -1.1316 -0.4834  0.2009
   64MOL0     H 8428   7.540   3.362   7.866 -1.8566  0.4388 -3.1383
   64MOL0     H 8429   7.362   3.326   7.871 -0.7064 -1.3637  1.1222
   64MOL0     H 8430   6.742   3.465   8.597 -0.0219 -1.8889  1.5346
   64MOL0     H 8431   6.517   3.525   8.511  1.5966  1.3007 -0.0368
   64MOL0     H 8432   6.229   3.575   8.048 -2.0204  0.9516 -0.7169
   64MOL0     H 8433   6.014   3.628   8.014  1.8576  1.5830  0.6409
   64MOL0     H 8434   7.051   3.472   7.279 -0.8726  2.5315  0.7118
   64MOL0     H 8435   7.272   3.468   7.357 -0.7335  0.7679  0.8278
   64MOL0     H 8436   7.573   3.281   7.692 -0.7641  0.9259 -0.4200
   64MOL0     H 8437   7.825   3.300   7.714 -0.3939  0.4334  0.3265
   64MOL0     H 8438   8.038   3.166   7.748  0.9808  2.0019  2.8588
   64MOL0     H 8439   8.028   3.332   7.705  2.1215 -0.1669  0.3271
   64MOL0     H 8440   8.248   3.278   7.743 -1.0951 -3.3972  2.1165
   64MOL0     H 8441   8.252   3.143   7.622  2.4175  0.2287  1.8592
   64MOL0     H 8442   8.252   3.439   7.568 -1.8683 -0.5555 -0.2645
   64MOL0     H 8443   8.180   3.333   7.448  0.8786  0.3086 -1.1258
   64MOL0     H 8444   8.460   3.273   7.575  0.2618 -1.6603  0.8240
   64MOL0     H 8445   8.394   3.205   7.416  0.8973  0.6261 -1.9245
   64MOL0     H 8446   8.478   3.584   7.262 -1.9979 -0.4992  0.2254
   64MOL0     H 8447   7.879   3.127   7.332  0.2782 -0.6602  0.8172
   64MOL0     H 8448   7.634   3.178   7.277  1.1323  6.8014 -0.8815
   65MOL0     O 8449   6.150  11.166   4.828 -0.7934  0.5947 -0.2408
   65MOL0     C 8450   6.149  11.053   4.873 -0.0085  0.2432 -0.2811
   65MOL0     O 8451   6.042  10.998   4.929 -0.2060 -0.3764  0.3332
   65MOL0     C 8452   5.938  11.079   4.941  0.6974  0.4384  0.3789
   65MOL0     C 8453   5.837  11.087   4.841 -0.0765 -0.6314 -0.6236
   65MOL0     C 8454   5.714  11.150   4.870  0.4948 -0.3100  0.5017
   65MOL0     C 8455   5.692  11.217   4.993 -0.0857 -0.5515 -0.2295
   65MOL0     O 8456   5.578  11.281   5.031  0.3528  0.1501  0.3485
   65MOL0     C 8457   5.458  11.277   4.955  0.0679 -0.0777  0.6495
   65MOL0     C 8458   5.336  11.286   5.041  0.0135 -0.3313 -0.4625
   65MOL0     C 8459   5.337  11.404   5.142  0.2532  0.3696  0.0185
   65MOL0     C 8460   5.228  11.381   5.252 -0.1249  0.3674  0.6975
   65MOL0     C 8461   5.099  11.450   5.198  0.2457  0.0508 -0.2363
   65MOL0     C 8462   4.985  11.429   5.302  0.3246 -0.3442 -0.0041
   65MOL0     C 8463   4.840  11.473   5.265  0.1478  0.4964 -0.6245
   65MOL0     C 8464   4.751  11.368   5.199  0.0872  0.0708 -0.4983
   65MOL0     N 8465   4.611  11.422   5.182  0.2246  0.0253 -0.0872
   65MOL0     C 8466   4.572  11.555   5.203 -0.5732  0.0968 -0.5990
   65MOL0     C 8467   4.442  11.550   5.175 -0.2032 -0.0104  0.1607
   65MOL0     C 8468   4.345  11.666   5.194  0.3251  0.6859  0.1888
   65MOL0     C 8469   4.218  11.637   5.118  0.0823  0.5360  0.4125
   65MOL0     C 8470   4.116  11.753   5.139  0.2207 -0.1415  0.8600
   65MOL0     C 8471   3.983  11.729   5.070  0.0534  0.1852  0.0374
   65MOL0     O 8472   3.927  11.862   5.079 -0.0520 -0.5581 -0.4938
   65MOL0     C 8473   3.789  11.872   5.044 -0.9228  0.1255 -0.7240
   65MOL0     C 8474   3.731  11.994   5.016 -0.2115 -0.8941  0.3892
   65MOL0     C 8475   3.600  12.022   4.985  0.0053  0.1229 -0.3030
   65MOL0     C 8476   3.509  11.918   4.979 -1.3261 -0.0003  0.1929
   65MOL0     C 8477   3.367  11.936   4.953 -0.0643 -1.2402  0.0945
   65MOL0     O 8478   3.279  11.846   4.996  0.0474 -0.4104  0.1049
   65MOL0     C 8479   3.148  11.885   4.997  0.6437  0.1342  0.4472
   65MOL0     C 8480   3.062  11.779   4.980  0.1786 -0.0474  0.1314
   65MOL0     C 8481   2.922  11.803   4.999  0.0168  0.3574 -0.2369
   65MOL0     C 8482   2.868  11.930   5.036  0.0573  1.2325  0.1552
   65MOL0     O 8483   2.734  11.957   5.065 -0.8298  0.2558 -0.2258
   65MOL0     C 8484   2.636  11.850   5.086  0.0334 -0.8415  0.2669
   65MOL0     C 8485   2.578  11.870   5.234  1.2744 -0.0858 -0.3103
   65MOL0     C 8486   2.677  11.873   5.345 -0.1180 -0.5045  0.5460
   65MOL0     C 8487   2.695  12.019   5.382 -0.4029  1.0455  0.5046
   65MOL0     C 8488   2.793  12.011   5.502  0.3166 -0.1241 -0.4546
   65MOL0     C 8489   2.839  12.145   5.555 -0.1153 -0.9574  0.8487
   65MOL0     C 8490   2.900  12.154   5.696 -0.3474 -0.4780 -0.3266
   65MOL0     C 8491   2.928  12.305   5.729 -0.0122  0.5016  0.4310
   65MOL0    Cl 8492   3.006  12.359   5.884  0.0106  0.2980  0.0019
   65MOL0     C 8493   2.955  12.038   5.051 -0.1321 -0.4054  0.8526
   65MOL0     C 8494   3.094  12.021   5.022 -0.1092 -0.7873  0.7602
   65MOL0     O 8495   3.341  12.040   4.892  0.0317 -0.6079  0.3491
   65MOL0     C 8496   3.562  11.790   5.020  0.4648  0.4147 -0.2754
   65MOL0     C 8497   3.695  11.762   5.054  0.0888 -0.7236 -0.3726
   65MOL0     N 8498   4.400  11.420   5.162 -0.1796  0.2154 -1.0258
   65MOL0     N 8499   4.504  11.343   5.166  1.1998 -0.3210  0.7190
   65MOL0     C 8500   5.805  11.227   5.076  0.5054 -0.0208  0.4344
   65MOL0     C 8501   5.915  11.149   5.054 -0.4013 -0.3288 -0.6709
   65MOL0     C 8502   6.271  10.980   4.887  0.8841  0.2120  0.2205
   65MOL0     C 8503   6.382  11.014   4.801  0.9355  0.6098  0.5163
   65MOL0     C 8504   6.497  10.926   4.795 -0.2498  0.1667 -1.1652
   65MOL0     C 8505   6.506  10.814   4.878  0.1339  0.0202  0.0487
   65MOL0     O 8506   6.600  10.718   4.870 -1.0226  0.3568 -0.0203
   65MOL0     C 8507   6.730  10.749   4.814  0.5368 -0.6158  0.2393
   65MOL0     C 8508   6.849  10.688   4.895 -0.3407  0.2591 -0.3943
   65MOL0     C 8509   6.981  10.741   4.842 -0.4096  0.9330  0.2812
   65MOL0     C 8510   7.100  10.656   4.898 -0.1188 -0.2071 -0.6433
   65MOL0     C 8511   7.233  10.691   4.836  0.0331 -0.2627  0.3864
   65MOL0     C 8512   7.337  10.696   4.772  0.2407  0.4383 -0.2334
   65MOL0     C 8513   6.397  10.775   4.961  0.8965 -0.7299  0.3590
   65MOL0     C 8514   6.278  10.858   4.960 -0.3202 -0.3299  0.1005
   65MOL0     H 8515   5.858  11.044   4.744  1.6123 -0.3407 -0.4202
   65MOL0     H 8516   5.633  11.156   4.799 -0.3099  1.6355  1.4914
   65MOL0     H 8517   5.467  11.177   4.911  1.3470 -0.2056  1.1419
   65MOL0     H 8518   5.462  11.350   4.874  0.2760  1.3867  1.9255
   65MOL0     H 8519   5.333  11.189   5.093  0.5124 -1.2619 -2.1157
   65MOL0     H 8520   5.241  11.287   4.986 -1.6737  0.8548  2.2461
   65MOL0     H 8521   5.326  11.499   5.090 -0.0478 -0.6043 -1.7617
   65MOL0     H 8522   5.431  11.405   5.199  1.3468 -2.2545 -1.5607
   65MOL0     H 8523   5.194  11.277   5.254 -0.9108  0.3118 -3.7512
   65MOL0     H 8524   5.263  11.412   5.351  2.5453  2.4679 -0.7691
   65MOL0     H 8525   5.062  11.391   5.113 -0.3791  0.5840 -0.3441
   65MOL0     H 8526   5.121  11.556   5.179  0.4316  0.5662  2.5256
   65MOL0     H 8527   5.019  11.452   5.403 -1.3067 -0.3285  0.5758
   65MOL0     H 8528   4.970  11.321   5.314  0.9459 -0.8190 -2.6617
   65MOL0     H 8529   4.786  11.498   5.356 -0.8471 -0.3124 -0.9792
   65MOL0     H 8530   4.851  11.567   5.210  1.6301  1.5568  1.3423
   65MOL0     H 8531   4.730  11.291   5.274 -3.6452  1.7503  0.4244
   65MOL0     H 8532   4.790  11.335   5.102 -3.9934 -3.0426 -1.3966
   65MOL0     H 8533   4.636  11.641   5.221  1.7239 -1.2170 -1.9910
   65MOL0     H 8534   4.389  11.757   5.152  0.1380 -0.1242 -1.8916
   65MOL0     H 8535   4.332  11.677   5.302 -0.0581 -0.6244  0.2962
   65MOL0     H 8536   4.179  11.541   5.153  0.3308  0.6295  0.9613
   65MOL0     H 8537   4.240  11.634   5.011 -0.9859 -1.4030  0.2098
   65MOL0     H 8538   4.106  11.768   5.247  1.7648 -0.4226  1.0688
   65MOL0     H 8539   4.155  11.846   5.096 -3.1930  0.3151 -1.7028
   65MOL0     H 8540   3.925  11.648   5.115  0.2804  1.3599  2.6859
   65MOL0     H 8541   4.008  11.696   4.969  2.1340  2.2256 -0.2176
   65MOL0     H 8542   3.804  12.074   5.013  0.7626 -1.6822  1.9832
   65MOL0     H 8543   3.571  12.125   4.967 -1.7750 -0.3073 -0.0812
   65MOL0     H 8544   3.111  11.682   4.975 -3.7103 -2.1825 -0.4274
   65MOL0     H 8545   2.857  11.716   4.988  1.6276 -1.3388  2.4945
   65MOL0     H 8546   2.671  11.747   5.075  2.1021 -0.1392 -0.3151
   65MOL0     H 8547   2.545  11.867   5.028 -1.2856 -0.9607  2.2008
   65MOL0     H 8548   2.506  11.792   5.259  0.4441 -0.1712 -2.7031
   65MOL0     H 8549   2.527  11.966   5.224 -2.7563 -2.1134 -1.1153
   65MOL0     H 8550   2.775  11.838   5.312  0.2004  1.8416 -1.2966
   65MOL0     H 8551   2.648  11.811   5.430  4.8220 -2.7768  0.9082
   65MOL0     H 8552   2.738  12.071   5.296  0.4100  2.8092  1.9106
   65MOL0     H 8553   2.599  12.064   5.408 -2.3339 -1.9744 -0.7813
   65MOL0     H 8554   2.886  11.958   5.478  0.9492  1.1522 -0.9167
   65MOL0     H 8555   2.745  11.953   5.581 -3.0915  0.7376 -1.7411
   65MOL0     H 8556   2.754  12.214   5.549 -0.0906 -1.0729 -1.5751
   65MOL0     H 8557   2.910  12.186   5.483 -4.1094  1.7990 -1.9442
   65MOL0     H 8558   2.831  12.124   5.775  1.3053  2.2165  2.3526
   65MOL0     H 8559   2.993  12.096   5.692  0.2144  0.5057 -2.1862
   65MOL0     H 8560   2.830  12.352   5.713 -0.4118 -0.1604  0.8776
   65MOL0     H 8561   2.998  12.340   5.653  0.1288  0.8927  0.7364
   65MOL0     H 8562   2.906  12.131   5.081 -0.1452  0.4190 -1.5364
   65MOL0     H 8563   3.164  12.100   5.046  0.4540 -1.2489  0.6378
   65MOL0     H 8564   3.493  11.707   5.033  1.2313 -0.1564  0.2416
   65MOL0     H 8565   3.721  11.662   5.088 -0.4874 -0.0691  2.1890
   65MOL0     H 8566   5.789  11.285   5.167 -3.2006  0.3047 -0.2904
   65MOL0     H 8567   5.981  11.140   5.140  1.2256 -0.8935 -1.9372
   65MOL0     H 8568   6.387  11.097   4.731  3.7122 -0.0510 -0.1646
   65MOL0     H 8569   6.576  10.949   4.725 -1.0419  1.9675 -1.5313
   65MOL0     H 8570   6.739  10.858   4.815  0.2759 -0.5587 -1.3325
   65MOL0     H 8571   6.740  10.714   4.711  2.8423 -2.3073  0.9657
   65MOL0     H 8572   6.830  10.721   4.998 -1.8154  0.5516 -0.7331
   65MOL0     H 8573   6.855  10.579   4.890 -0.1686  0.2397  0.0944
   65MOL0     H 8574   6.993  10.846   4.870 -3.1679  1.4250 -0.1516
   65MOL0     H 8575   6.975  10.745   4.732 -0.9185 -1.6314  0.1761
   65MOL0     H 8576   7.101  10.665   5.007  1.7725  1.9642 -0.7572
   65MOL0     H 8577   7.082  10.551   4.871 -0.2254 -0.7695  1.4047
   65MOL0     H 8578   7.430  10.692   4.719  0.1532  0.1934 -0.3700
   65MOL0     H 8579   6.400  10.684   5.020  0.8333 -0.1546  1.2560
   65MOL0     H 8580   6.199  10.835   5.030  0.9958 -0.2313  1.6779
   66MOL0     O 8581   2.482   9.680   2.772 -0.0111 -0.1630  0.3136
   66MOL0     C 8582   2.458   9.565   2.811 -0.2046 -0.1045  0.8147
   66MOL0     O 8583   2.341   9.529   2.864 -0.1783 -0.1109 -0.1354
   66MOL0     C 8584   2.237   9.623   2.859 -0.7960  0.3030  0.1471
   66MOL0     C 8585   2.178   9.648   2.733  0.8195 -0.3764  0.2034
   66MOL0     C 8586   2.065   9.727   2.727 -0.5628  0.8061 -0.3431
   66MOL0     C 8587   2.013   9.790   2.839  0.4286 -0.2381 -0.7636
   66MOL0     O 8588   1.903   9.877   2.840 -0.7532  0.1565 -0.0689
   66MOL0     C 8589   1.810   9.884   2.732  0.6999 -0.8178  0.0464
   66MOL0     C 8590   1.713  10.006   2.754  0.4120  0.5210 -0.1654
   66MOL0     C 8591   1.592  10.000   2.653 -0.4085  0.2393 -0.5384
   66MOL0     C 8592   1.484  10.100   2.692  0.0298 -0.6831  0.0543
   66MOL0     C 8593   1.352  10.083   2.620 -0.7965  1.3353 -0.0021
   66MOL0     C 8594   1.258  10.209   2.633 -0.1185 -0.3031 -0.8520
   66MOL0     C 8595   1.146  10.207   2.532 -0.3766  1.5427  0.2282
   66MOL0     C 8596   1.063  10.087   2.565 -0.3374 -1.0605 -0.1509
   66MOL0     N 8597   0.918  10.127   2.572  0.4095 -0.2468 -0.5975
   66MOL0     C 8598   0.856  10.189   2.678  0.6505  0.8767 -1.0544
   66MOL0     C 8599   0.728  10.224   2.636 -0.3403 -0.3618 -0.1102
   66MOL0     C 8600   0.623  10.304   2.714  0.1272  0.7046  0.1246
   66MOL0     C 8601   0.488  10.254   2.672 -0.7557 -0.4345 -0.3022
   66MOL0     C 8602   0.376  10.356   2.704 -0.0601  0.2960 -0.6225
   66MOL0     C 8603   0.237  10.306   2.728  0.0645 -0.4062 -1.0247
   66MOL0     O 8604   0.177  10.239   2.611 -0.7314  0.0006 -0.4028
   66MOL0     C 8605   0.056  10.204   2.642 -0.3931 -1.0459  0.4852
   66MOL0     C 8606   0.029  10.080   2.699  0.5798 -0.9828 -0.5553
   66MOL0     C 8607  -0.100  10.065   2.747  0.8722 -0.1652  0.1926
   66MOL0     C 8608  -0.202  10.165   2.727  0.0566  0.6059 -0.0779
   66MOL0     C 8609  -0.336  10.137   2.768  0.3231 -0.1613 -0.8380
   66MOL0     O 8610  -0.423  10.238   2.765  0.6378 -0.8821 -0.1607
   66MOL0     C 8611  -0.552  10.217   2.800  0.0126  0.4791  0.1359
   66MOL0     C 8612  -0.604  10.285   2.914  0.1585  0.7487  0.6728
   66MOL0     C 8613  -0.735  10.272   2.953  0.9433 -0.0969  0.3703
   66MOL0     C 8614  -0.819  10.183   2.870 -0.2551  0.7096 -0.3060
   66MOL0     O 8615  -0.952  10.153   2.900 -0.3055 -0.4085  0.8456
   66MOL0     C 8616  -1.020  10.228   3.005  0.1221 -0.1456  0.0952
   66MOL0     C 8617  -1.173  10.219   3.009  0.2160  1.0721  0.5724
   66MOL0     C 8618  -1.240  10.264   3.136 -0.6376 -0.1011  0.2441
   66MOL0     C 8619  -1.393  10.233   3.130  0.6704 -0.0348 -1.0205
   66MOL0     C 8620  -1.463  10.314   3.241 -0.5643  0.4900 -0.5035
   66MOL0     C 8621  -1.612  10.288   3.234 -0.0944 -0.9281 -0.0625
   66MOL0     C 8622  -1.666  10.168   3.308  0.2452  0.1164 -0.2402
   66MOL0     C 8623  -1.821  10.166   3.291 -0.0055  0.0855  0.1650
   66MOL0    Cl 8624  -1.871  10.112   3.121  0.0759  0.0213 -0.5431
   66MOL0     C 8625  -0.768  10.121   2.752 -0.6916  0.0220  0.1892
   66MOL0     C 8626  -0.634  10.139   2.718 -0.8785 -0.1237 -0.1392
   66MOL0     O 8627  -0.371  10.020   2.796 -0.7632 -0.9077  0.1506
   66MOL0     C 8628  -0.164  10.286   2.666  0.2600 -0.3313 -0.5408
   66MOL0     C 8629  -0.038  10.302   2.626  0.6969 -0.5046  0.5085
   66MOL0     N 8630   0.722  10.183   2.503  0.0734  0.4930 -0.2828
   66MOL0     N 8631   0.836  10.134   2.468  0.0615  0.1812 -0.6718
   66MOL0     C 8632   2.073   9.770   2.966  0.0347 -0.7611  0.8983
   66MOL0     C 8633   2.182   9.686   2.973 -0.2805 -0.4183 -0.1686
   66MOL0     C 8634   2.566   9.460   2.807  0.6773  0.9601  0.1850
   66MOL0     C 8635   2.520   9.323   2.825  0.0314 -0.1584  0.9828
   66MOL0     C 8636   2.619   9.221   2.810 -0.1438  0.7738 -0.5152
   66MOL0     C 8637   2.752   9.250   2.764  0.6202  0.5732 -0.5670
   66MOL0     O 8638   2.832   9.137   2.750 -0.2990  0.5759 -0.3992
   66MOL0     C 8639   2.972   9.151   2.783 -0.4931 -0.2335  0.5665
   66MOL0     C 8640   3.039   9.008   2.763 -0.9029 -0.6877  0.8924
   66MOL0     C 8641   3.014   8.946   2.623  0.3944  0.4715  0.4666
   66MOL0     C 8642   2.869   8.910   2.578  0.3502  0.1185  1.0705
   66MOL0     C 8643   2.871   8.815   2.467 -0.5965 -0.7457  0.7268
   66MOL0     C 8644   2.891   8.720   2.399 -1.2283 -0.0503 -0.0259
   66MOL0     C 8645   2.787   9.379   2.731 -0.1835 -0.2111 -0.5700
   66MOL0     C 8646   2.700   9.488   2.765 -1.0563 -0.0156  0.3543
   66MOL0     H 8647   2.217   9.602   2.643 -0.5060 -0.3289 -0.4248
   66MOL0     H 8648   2.030   9.746   2.626  0.9126  2.3335 -0.6209
   66MOL0     H 8649   1.755   9.793   2.706 -0.8362  1.2561 -5.5957
   66MOL0     H 8650   1.861   9.898   2.636  0.2873 -2.1036 -0.3838
   66MOL0     H 8651   1.769  10.099   2.744  0.7009  0.7330  2.6668
   66MOL0     H 8652   1.672  10.017   2.855  0.3429  2.2353 -0.3421
   66MOL0     H 8653   1.556   9.897   2.650 -2.3397  0.6352  3.0501
   66MOL0     H 8654   1.619  10.034   2.553  2.4173  1.1112  0.4136
   66MOL0     H 8655   1.472  10.097   2.801  1.1371  2.3763  0.3547
   66MOL0     H 8656   1.514  10.205   2.679  1.6215 -1.2093 -0.6148
   66MOL0     H 8657   1.312   9.993   2.669  2.9053 -0.8824 -0.6539
   66MOL0     H 8658   1.373  10.059   2.516  0.2608 -2.2933  0.8809
   66MOL0     H 8659   1.308  10.305   2.623 -0.4110 -0.3527 -3.6234
   66MOL0     H 8660   1.218  10.205   2.735 -1.2681  2.6441 -1.1051
   66MOL0     H 8661   1.088  10.299   2.545  0.7030  2.1196  1.2058
   66MOL0     H 8662   1.189  10.196   2.432 -0.2839  0.9081  0.3325
   66MOL0     H 8663   1.093  10.031   2.654 -2.1072  0.1642  1.2898
   66MOL0     H 8664   1.069  10.014   2.483  3.2209 -2.3220  1.0321
   66MOL0     H 8665   0.891  10.221   2.776 -1.2293  1.4185 -0.5223
   66MOL0     H 8666   0.637  10.410   2.690  3.9916  0.7087  1.6566
   66MOL0     H 8667   0.636  10.290   2.822  4.0515 -1.0642 -0.3682
   66MOL0     H 8668   0.479  10.163   2.732  0.7604 -0.7838 -0.5666
   66MOL0     H 8669   0.483  10.227   2.567  1.4693  0.4443 -0.6822
   66MOL0     H 8670   0.411  10.410   2.793  0.2941 -0.5508 -0.2422
   66MOL0     H 8671   0.365  10.419   2.615  0.9453 -0.4408 -1.2771
   66MOL0     H 8672   0.175  10.394   2.750 -1.0141 -0.8719 -2.1163
   66MOL0     H 8673   0.233  10.240   2.815  1.0698 -2.0509 -2.1665
   66MOL0     H 8674   0.113  10.013   2.714  0.2219 -1.7951 -1.9774
   66MOL0     H 8675  -0.129   9.970   2.790 -2.7004  0.5390 -0.3016
   66MOL0     H 8676  -0.543  10.349   2.977  0.9551 -1.0363  1.8219
   66MOL0     H 8677  -0.783  10.319   3.038  1.4996 -0.5987  0.9753
   66MOL0     H 8678  -0.990  10.333   3.001 -0.1970 -0.0346  0.5289
   66MOL0     H 8679  -0.980  10.188   3.099 -0.8208  1.6821  1.3347
   66MOL0     H 8680  -1.190  10.111   3.008 -1.3175  1.2923 -0.7908
   66MOL0     H 8681  -1.225  10.264   2.924 -0.4095 -0.1480  0.2836
   66MOL0     H 8682  -1.224  10.369   3.162 -0.1822 -0.4405  1.3839
   66MOL0     H 8683  -1.196  10.205   3.216 -1.4744 -3.6084 -1.7052
   66MOL0     H 8684  -1.432  10.264   3.033  0.0259  1.2877 -0.3726
   66MOL0     H 8685  -1.412  10.130   3.162  2.0322  1.2295  5.2226
   66MOL0     H 8686  -1.444  10.422   3.243  1.5359  0.2138 -1.9127
   66MOL0     H 8687  -1.420  10.277   3.335  2.8466  2.3276 -1.1499
   66MOL0     H 8688  -1.646  10.287   3.130  0.6314 -1.0978 -0.3033
   66MOL0     H 8689  -1.655  10.377   3.281 -1.2637  0.1467 -2.9181
   66MOL0     H 8690  -1.627  10.076   3.265  0.7729  0.7335 -1.1300
   66MOL0     H 8691  -1.643  10.169   3.415  1.4425  2.8807 -0.4406
   66MOL0     H 8692  -1.859  10.268   3.307  3.9757  1.7101  0.4598
   66MOL0     H 8693  -1.864  10.100   3.366 -0.3989  0.3499  0.1784
   66MOL0     H 8694  -0.823  10.068   2.675  1.7535  0.7159 -2.2143
   66MOL0     H 8695  -0.602  10.094   2.624 -3.3212  0.5243 -1.3647
   66MOL0     H 8696  -0.221  10.377   2.646 -0.3755 -0.8873 -1.3650
   66MOL0     H 8697  -0.018  10.396   2.575 -2.7383 -2.1097 -4.6061
   66MOL0     H 8698   2.037   9.830   3.049 -0.5774 -1.7521  1.3707
   66MOL0     H 8699   2.221   9.664   3.072 -2.6913  2.3703  1.5889
   66MOL0     H 8700   2.419   9.295   2.851  0.1929  0.1172  1.9588
   66MOL0     H 8701   2.583   9.120   2.824 -0.4680  1.0312  0.5965
   66MOL0     H 8702   2.989   9.187   2.885 -4.1252 -1.4725  1.7493
   66MOL0     H 8703   3.023   9.218   2.714  0.8939  0.0099  1.7783
   66MOL0     H 8704   3.147   9.019   2.777  0.3976 -0.9305 -5.6390
   66MOL0     H 8705   2.998   8.939   2.838 -2.9993 -0.1714  0.2909
   66MOL0     H 8706   3.066   8.850   2.628  1.3768  1.0367  1.7286
   66MOL0     H 8707   3.050   9.013   2.545 -1.4629  1.2252  0.2069
   66MOL0     H 8708   2.805   8.867   2.656 -1.5182  2.5489  0.9896
   66MOL0     H 8709   2.826   9.001   2.535  1.9419  0.8352  0.9652
   66MOL0     H 8710   2.901   8.628   2.346  2.6269 -0.3227  0.8732
   66MOL0     H 8711   2.884   9.408   2.692 -0.8390  2.5092 -0.3720
   66MOL0     H 8712   2.736   9.589   2.746 -0.8393 -0.7122 -4.1390
   67MOL0     O 8713   1.590  11.234   6.653 -0.4809  0.6640 -0.3450
   67MOL0     C 8714   1.528  11.137   6.613 -0.0993  0.1386  1.2606
   67MOL0     O 8715   1.536  11.010   6.660 -0.1160  0.1532  0.5457
   67MOL0     C 8716   1.621  10.976   6.756  0.0878 -0.3192  0.2343
   67MOL0     C 8717   1.752  11.036   6.778 -0.2519 -0.0474  0.0765
   67MOL0     C 8718   1.826  11.010   6.889 -0.0689  0.2800  0.6528
   67MOL0     C 8719   1.776  10.926   6.986 -0.0302  0.6191 -0.2071
   67MOL0     O 8720   1.856  10.916   7.102  0.0019 -0.1125 -0.6323
   67MOL0     C 8721   1.837  10.809   7.188  0.8907 -0.1813 -0.2093
   67MOL0     C 8722   1.955  10.794   7.282 -0.0129  0.2887  0.6330
   67MOL0     C 8723   1.961  10.670   7.374 -0.4605  0.0021  0.2026
   67MOL0     C 8724   2.076  10.684   7.473  1.0717 -0.1280 -0.9402
   67MOL0     C 8725   2.217  10.686   7.419 -0.7997 -0.6179 -0.4093
   67MOL0     C 8726   2.310  10.681   7.547 -0.0610 -0.1958  0.1774
   67MOL0     C 8727   2.453  10.690   7.493  0.8454  0.2841 -0.0199
   67MOL0     C 8728   2.549  10.647   7.606 -0.6866  0.4176 -0.6778
   67MOL0     N 8729   2.696  10.674   7.574 -0.0613 -0.7538  0.1116
   67MOL0     C 8730   2.792  10.657   7.662 -0.2887 -0.0174  0.0140
   67MOL0     C 8731   2.905  10.656   7.587 -0.1159  0.4935  0.7218
   67MOL0     C 8732   3.055  10.649   7.624 -0.1776 -0.1059 -0.5620
   67MOL0     C 8733   3.093  10.510   7.665  0.4174 -0.0634  0.2509
   67MOL0     C 8734   3.155  10.420   7.555 -0.4566  0.0998 -0.5467
   67MOL0     C 8735   3.062  10.304   7.506  0.5932 -0.1364 -0.2773
   67MOL0     O 8736   3.031  10.209   7.607  0.3789  0.7317  0.4632
   67MOL0     C 8737   2.940  10.110   7.604 -0.6916 -0.4805 -0.3921
   67MOL0     C 8738   2.846  10.094   7.510  0.3673  0.2584 -0.8736
   67MOL0     C 8739   2.754   9.995   7.523 -0.1011 -0.6779 -0.1244
   67MOL0     C 8740   2.755   9.902   7.625 -0.1184 -0.3668  0.1504
   67MOL0     C 8741   2.650   9.801   7.634 -0.1119  0.3682  0.3138
   67MOL0     O 8742   2.557   9.811   7.543  0.8462  0.4452 -0.4089
   67MOL0     C 8743   2.436   9.754   7.555 -0.0415 -0.3272  0.6145
   67MOL0     C 8744   2.318   9.824   7.535 -0.0383 -0.3197 -0.1128
   67MOL0     C 8745   2.200   9.761   7.537  0.2829  0.1105  0.3725
   67MOL0     C 8746   2.193   9.623   7.553  0.5351  0.3596  0.0226
   67MOL0     O 8747   2.077   9.564   7.576  0.5851 -0.4272  0.3024
   67MOL0     C 8748   2.004   9.513   7.460 -0.4729 -0.2634 -0.6198
   67MOL0     C 8749   1.854   9.541   7.455 -0.1049 -0.5362  0.3098
   67MOL0     C 8750   1.830   9.686   7.387 -0.6429 -0.0654 -0.1284
   67MOL0     C 8751   1.687   9.725   7.371 -0.2698  0.5883 -1.0145
   67MOL0     C 8752   1.629   9.622   7.268  0.8440  0.9743 -0.1081
   67MOL0     C 8753   1.488   9.677   7.232 -0.3270 -0.4495  0.2323
   67MOL0     C 8754   1.395   9.578   7.150 -0.3172  0.0882  0.0793
   67MOL0     C 8755   1.300   9.497   7.237 -0.2216 -0.0641 -0.7380
   67MOL0    Cl 8756   1.171   9.609   7.305  0.3958  0.1743 -0.5085
   67MOL0     C 8757   2.310   9.544   7.555  0.1080  0.1554 -1.7195
   67MOL0     C 8758   2.436   9.615   7.558  0.5913 -0.3628  0.2898
   67MOL0     O 8759   2.653   9.722   7.728 -0.1172 -0.0626  0.1022
   67MOL0     C 8760   2.849   9.929   7.731 -0.9151 -0.2710  0.3081
   67MOL0     C 8761   2.943  10.030   7.716 -0.7547  0.9813 -0.7717
   67MOL0     N 8762   2.872  10.674   7.458 -0.4589  0.1277 -0.4661
   67MOL0     N 8763   2.742  10.677   7.448 -0.0932 -1.1323 -0.4361
   67MOL0     C 8764   1.652  10.864   6.967 -0.5190  1.1298  0.8601
   67MOL0     C 8765   1.572  10.887   6.851  0.5919 -0.1534 -0.2282
   67MOL0     C 8766   1.462  11.164   6.476  0.1724  0.3026 -0.6054
   67MOL0     C 8767   1.419  11.061   6.390 -0.0500  0.5272  0.2232
   67MOL0     C 8768   1.368  11.075   6.261  1.0702  0.0395  0.0657
   67MOL0     C 8769   1.352  11.200   6.204  0.2242 -0.3375  0.0500
   67MOL0     O 8770   1.328  11.209   6.073 -0.0634  0.5879 -0.4018
   67MOL0     C 8771   1.202  11.273   6.042 -0.0439 -0.0610  0.7366
   67MOL0     C 8772   1.116  11.170   5.979  0.4682 -0.2551  0.6654
   67MOL0     C 8773   0.974  11.220   5.938  0.0157 -0.1962  0.1480
   67MOL0     C 8774   0.893  11.270   6.062 -0.3181 -0.8872  0.0852
   67MOL0     C 8775   0.754  11.252   6.038 -0.4879  0.4015 -0.0818
   67MOL0     C 8776   0.641  11.233   6.013  0.2793 -0.1697  0.4286
   67MOL0     C 8777   1.397  11.307   6.283 -0.1229  0.3845  0.7207
   67MOL0     C 8778   1.450  11.286   6.413 -0.8041  0.0126 -0.2476
   67MOL0     H 8779   1.791  11.107   6.706 -2.1641  1.7829  0.7652
   67MOL0     H 8780   1.925  11.050   6.904  1.2354 -2.9520  1.3594
   67MOL0     H 8781   1.820  10.723   7.122  4.1911  0.2979 -1.8822
   67MOL0     H 8782   1.749  10.831   7.250  0.9389 -0.1686 -0.1459
   67MOL0     H 8783   1.951  10.878   7.352  0.0864  1.0893 -0.3043
   67MOL0     H 8784   2.047  10.807   7.225 -1.7242 -0.1563 -2.4072
   67MOL0     H 8785   1.973  10.588   7.303 -1.3934  1.3678 -1.6243
   67MOL0     H 8786   1.864  10.650   7.422 -2.1595  3.0364 -1.6247
   67MOL0     H 8787   2.060  10.773   7.534  1.0308 -0.3008 -0.6983
   67MOL0     H 8788   2.067  10.595   7.536 -0.9031 -1.9703 -3.6025
   67MOL0     H 8789   2.232  10.777   7.360 -3.0248 -0.4074 -0.7430
   67MOL0     H 8790   2.246  10.609   7.348  0.6998  0.0390 -0.5343
   67MOL0     H 8791   2.300  10.585   7.599 -0.1870 -0.2476  0.0592
   67MOL0     H 8792   2.277  10.763   7.611 -2.9798 -1.5777  0.5780
   67MOL0     H 8793   2.470  10.648   7.393 -4.4254 -0.4410 -0.8821
   67MOL0     H 8794   2.472  10.798   7.485  2.0361  0.4637  3.5193
   67MOL0     H 8795   2.540  10.542   7.634  0.2723  0.5710  0.2591
   67MOL0     H 8796   2.514  10.702   7.694 -1.7587  0.3695 -1.0576
   67MOL0     H 8797   2.794  10.650   7.770  3.4389 -1.2215  0.0154
   67MOL0     H 8798   3.090  10.722   7.698  3.2721 -1.4708 -0.6433
   67MOL0     H 8799   3.108  10.675   7.531  4.6841 -2.1516  1.2743
   67MOL0     H 8800   3.006  10.457   7.704  0.1768  0.6354  0.6887
   67MOL0     H 8801   3.169  10.528   7.741  1.0401  1.2584 -0.6466
   67MOL0     H 8802   3.169  10.482   7.465 -1.2719  0.8411 -0.1808
   67MOL0     H 8803   3.258  10.390   7.572  1.0713  3.3876 -2.8074
   67MOL0     H 8804   3.114  10.258   7.423 -0.3113 -1.5664 -0.0864
   67MOL0     H 8805   2.969  10.349   7.469  1.0157  2.0371  1.1322
   67MOL0     H 8806   2.824  10.160   7.426 -0.5888 -1.5995 -2.1510
   67MOL0     H 8807   2.688   9.987   7.437 -2.1188 -1.5859  1.4262
   67MOL0     H 8808   2.318   9.928   7.504 -2.8774 -0.5718 -1.3041
   67MOL0     H 8809   2.109   9.819   7.524 -0.9910 -1.0528  3.2532
   67MOL0     H 8810   2.022   9.407   7.480  0.4926  0.1842  1.0647
   67MOL0     H 8811   2.057   9.537   7.367  2.7862 -2.0445  0.6247
   67MOL0     H 8812   1.815   9.534   7.556 -1.3398  1.9578  0.0738
   67MOL0     H 8813   1.818   9.465   7.385  0.9270  2.0707 -3.4151
   67MOL0     H 8814   1.879   9.696   7.290  2.8728  1.3221  1.6576
   67MOL0     H 8815   1.881   9.758   7.451 -2.1304 -0.4877  1.6330
   67MOL0     H 8816   1.648   9.714   7.472  0.5759 -2.6464 -0.9425
   67MOL0     H 8817   1.673   9.830   7.342 -0.8866  0.7948 -0.0313
   67MOL0     H 8818   1.620   9.518   7.299  1.7793  0.7706 -0.4806
   67MOL0     H 8819   1.699   9.625   7.184 -0.3047 -0.2512 -1.1514
   67MOL0     H 8820   1.503   9.760   7.161 -2.0424  2.7909  3.3359
   67MOL0     H 8821   1.432   9.712   7.319 -1.1066 -0.8770 -0.0890
   67MOL0     H 8822   1.344   9.630   7.069 -0.8103 -0.1575  0.2272
   67MOL0     H 8823   1.463   9.510   7.098 -0.5834 -0.4827  0.4662
   67MOL0     H 8824   1.368   9.451   7.310 -1.1139 -1.6804 -0.8670
   67MOL0     H 8825   1.254   9.412   7.186  2.0944  0.6616 -4.3732
   67MOL0     H 8826   2.306   9.437   7.570  2.5128  0.2013 -0.2969
   67MOL0     H 8827   2.528   9.558   7.552  0.6618 -0.2187 -0.0382
   67MOL0     H 8828   2.848   9.862   7.816  0.4914 -1.9365 -0.9200
   67MOL0     H 8829   3.011  10.050   7.798 -0.9691 -2.0082  0.2899
   67MOL0     H 8830   1.628  10.794   7.046 -0.0669 -0.9646 -0.7781
   67MOL0     H 8831   1.477  10.836   6.834 -0.0354  1.5607 -2.3548
   67MOL0     H 8832   1.446  10.958   6.411  3.3311  1.3110  0.3054
   67MOL0     H 8833   1.345  10.988   6.200 -0.9131  0.7521 -0.2664
   67MOL0     H 8834   1.222  11.351   5.969  2.5387  0.1817  1.6320
   67MOL0     H 8835   1.151  11.313   6.130 -1.6530 -0.8956  0.2389
   67MOL0     H 8836   1.170  11.134   5.892  2.2966  0.2752  1.5181
   67MOL0     H 8837   1.111  11.082   6.044  0.3851  0.5815  1.8470
   67MOL0     H 8838   0.913  11.148   5.882 -1.7355  1.3259  0.0327
   67MOL0     H 8839   0.989  11.307   5.874  3.1315 -0.6529  0.1032
   67MOL0     H 8840   0.921  11.213   6.151  1.0647  0.2601  0.4128
   67MOL0     H 8841   0.907  11.374   6.092  0.3766 -1.1832  0.8350
   67MOL0     H 8842   0.535  11.224   6.000  0.3602 -2.1288  0.7628
   67MOL0     H 8843   1.396  11.403   6.231 -0.2126 -0.2103 -0.3987
   67MOL0     H 8844   1.475  11.379   6.463  2.1065 -0.4030 -0.7580
   68MOL0     O 8845   5.067  11.137  11.264 -0.2874 -0.8959  0.4207
   68MOL0     C 8846   5.074  11.258  11.234 -0.3346 -0.4455  0.1772
   68MOL0     O 8847   5.001  11.358  11.276  0.2041 -0.9004 -0.7571
   68MOL0     C 8848   4.895  11.346  11.363 -0.4282 -0.6741 -0.4535
   68MOL0     C 8849   4.884  11.249  11.463  0.4661 -0.6682  0.2401
   68MOL0     C 8850   4.757  11.238  11.528  0.1274 -0.5585 -1.0215
   68MOL0     C 8851   4.653  11.327  11.503 -0.2995 -0.7566 -0.6285
   68MOL0     O 8852   4.530  11.335  11.574 -0.7513 -0.5546  0.5863
   68MOL0     C 8853   4.503  11.240  11.681 -0.3669 -0.9872 -0.4022
   68MOL0     C 8854   4.374  11.273  11.743  0.8629 -0.2407 -0.9946
   68MOL0     C 8855   4.258  11.242  11.651  0.2485 -0.2769  1.1174
   68MOL0     C 8856   4.120  11.308  11.675 -0.5156  0.9373  0.1610
   68MOL0     C 8857   4.120  11.455  11.706 -0.3792  0.2845  0.5971
   68MOL0     C 8858   4.203  11.533  11.592  1.0119  0.6643 -0.1920
   68MOL0     C 8859   4.203  11.681  11.617  0.5701  0.0058  0.4003
   68MOL0     C 8860   4.308  11.712  11.716 -0.5814  0.2730 -0.5069
   68MOL0     N 8861   4.337  11.850  11.743  0.6868 -1.2900  0.2480
   68MOL0     C 8862   4.389  11.950  11.658 -0.2661  0.7083 -0.6181
   68MOL0     C 8863   4.338  12.064  11.705 -0.4014  0.0910 -0.4149
   68MOL0     C 8864   4.361  12.198  11.651 -0.1619 -0.0525  0.2201
   68MOL0     C 8865   4.502  12.249  11.696 -1.4918 -0.6775 -0.2960
   68MOL0     C 8866   4.543  12.391  11.649 -0.1779 -0.2217 -0.2395
   68MOL0     C 8867   4.670  12.438  11.722  0.8767  0.5557  0.9181
   68MOL0     O 8868   4.722  12.562  11.673  0.0755 -0.4800 -0.3154
   68MOL0     C 8869   4.845  12.579  11.622 -0.8680  0.6011  0.4962
   68MOL0     C 8870   4.858  12.675  11.523 -0.6056 -0.6260 -0.4007
   68MOL0     C 8871   4.987  12.701  11.466  0.0557  0.2420  0.2573
   68MOL0     C 8872   5.093  12.629  11.527 -0.1008  0.3073 -0.0130
   68MOL0     C 8873   5.234  12.653  11.480 -0.0874 -0.4213  0.9958
   68MOL0     O 8874   5.335  12.566  11.513 -0.0580  0.2452  0.3089
   68MOL0     C 8875   5.438  12.543  11.431 -0.1210  0.3909 -0.5948
   68MOL0     C 8876   5.458  12.587  11.302  0.0715 -0.8222  0.1823
   68MOL0     C 8877   5.571  12.573  11.230 -0.5623 -0.6290 -1.3022
   68MOL0     C 8878   5.688  12.525  11.293  0.3258  0.5917 -0.1087
   68MOL0     O 8879   5.817  12.525  11.243  0.7366 -0.1357  0.3148
   68MOL0     C 8880   5.836  12.488  11.112  0.2939 -0.3449 -0.3566
   68MOL0     C 8881   5.774  12.350  11.075 -0.0299 -0.1707  0.6440
   68MOL0     C 8882   5.807  12.235  11.166  0.0491  0.0377 -0.6791
   68MOL0     C 8883   5.826  12.097  11.097  0.5823 -0.0610 -0.0555
   68MOL0     C 8884   5.961  12.038  11.113 -0.9039 -0.0997  0.4560
   68MOL0     C 8885   6.068  12.121  11.025  0.6410 -0.4584 -0.2430
   68MOL0     C 8886   6.171  12.017  10.964  0.7942  0.4678  0.7112
   68MOL0     C 8887   6.269  11.975  11.063 -0.2794 -0.4417 -0.1540
   68MOL0    Cl 8888   6.410  11.905  10.973 -0.0786 -0.0599  0.0055
   68MOL0     C 8889   5.685  12.482  11.428 -0.7067 -0.0014 -0.0298
   68MOL0     C 8890   5.557  12.488  11.492 -0.7165 -0.4374 -0.5892
   68MOL0     O 8891   5.256  12.761  11.418  0.3568  0.1609  0.2828
   68MOL0     C 8892   5.079  12.535  11.629  0.3220 -1.5974 -0.3012
   68MOL0     C 8893   4.954  12.507  11.675  0.2762 -0.1930 -0.2510
   68MOL0     N 8894   4.296  12.040  11.837 -0.5238  0.4389  0.6523
   68MOL0     N 8895   4.277  11.920  11.848 -0.6170 -1.6296  0.4788
   68MOL0     C 8896   4.674  11.432  11.419  0.2891 -0.2796 -0.3116
   68MOL0     C 8897   4.794  11.446  11.349  0.4497  1.1906 -0.6332
   68MOL0     C 8898   5.193  11.302  11.138 -0.2750  0.5513 -0.1683
   68MOL0     C 8899   5.304  11.213  11.120  0.9858 -0.0087  0.9273
   68MOL0     C 8900   5.432  11.246  11.067  1.0285 -0.2658 -0.1023
   68MOL0     C 8901   5.440  11.376  11.023 -0.2490  0.1242 -0.5813
   68MOL0     O 8902   5.562  11.423  10.969 -0.0571  0.4544  0.0542
   68MOL0     C 8903   5.648  11.335  10.911  0.2618 -0.7002 -0.2370
   68MOL0     C 8904   5.786  11.318  10.986  1.0297 -0.3903 -0.4943
   68MOL0     C 8905   5.896  11.254  10.907 -0.0005  0.5074  0.3231
   68MOL0     C 8906   6.029  11.260  10.978 -0.8559  0.2904 -0.1900
   68MOL0     C 8907   6.031  11.153  11.086  1.2399  0.1322 -0.3467
   68MOL0     C 8908   6.029  11.067  11.168  1.0343 -0.2274  0.2170
   68MOL0     C 8909   5.342  11.467  11.047  0.4537 -1.4364  0.1641
   68MOL0     C 8910   5.221  11.429  11.099 -1.0401  0.7027 -1.1375
   68MOL0     H 8911   4.959  11.171  11.473  1.1127 -0.4209 -2.2036
   68MOL0     H 8912   4.748  11.167  11.610  0.1587 -0.2261 -0.7243
   68MOL0     H 8913   4.580  11.233  11.759 -0.3314 -0.0614 -0.3377
   68MOL0     H 8914   4.498  11.140  11.637 -0.2169 -0.2823 -2.0680
   68MOL0     H 8915   4.377  11.378  11.774  1.5286 -0.1546 -1.3400
   68MOL0     H 8916   4.368  11.219  11.838 -0.1566  1.6291  0.0589
   68MOL0     H 8917   4.241  11.135  11.663 -2.7448  0.1594  1.3995
   68MOL0     H 8918   4.289  11.241  11.546 -2.6725 -3.2391  0.1094
   68MOL0     H 8919   4.066  11.292  11.581  2.0545  1.7683 -1.5383
   68MOL0     H 8920   4.068  11.261  11.759 -0.4092 -1.4492 -1.0170
   68MOL0     H 8921   4.154  11.478  11.807 -1.7961 -1.1376  1.4314
   68MOL0     H 8922   4.018  11.493  11.694 -1.2650 -2.1212 -0.0440
   68MOL0     H 8923   4.140  11.502  11.508 -1.0241  1.2211  1.0538
   68MOL0     H 8924   4.306  11.500  11.575  0.4261 -0.8802 -0.9098
   68MOL0     H 8925   4.225  11.727  11.520 -0.4822 -4.6825 -2.3977
   68MOL0     H 8926   4.111  11.724  11.657  0.0601 -0.3759 -0.3247
   68MOL0     H 8927   4.397  11.652  11.695  0.6661  2.3134 -1.3128
   68MOL0     H 8928   4.264  11.665  11.805  0.4068  0.1276 -0.0838
   68MOL0     H 8929   4.424  11.929  11.558 -0.8467 -1.5160 -0.4006
   68MOL0     H 8930   4.279  12.262  11.685 -2.4353 -1.2255 -2.6170
   68MOL0     H 8931   4.352  12.213  11.543  1.5612  1.7278  0.2485
   68MOL0     H 8932   4.576  12.184  11.649  0.4635  2.3851 -1.7658
   68MOL0     H 8933   4.506  12.236  11.805 -0.5868  1.3820 -0.0273
   68MOL0     H 8934   4.571  12.395  11.544 -5.6811 -0.2140 -1.9901
   68MOL0     H 8935   4.465  12.465  11.668 -0.9301 -0.6262 -1.6512
   68MOL0     H 8936   4.737  12.354  11.699 -0.8319 -0.4146 -0.8989
   68MOL0     H 8937   4.646  12.450  11.828 -0.8415  1.3953  0.4660
   68MOL0     H 8938   4.769  12.731  11.496 -1.9772 -1.5554  1.9391
   68MOL0     H 8939   4.993  12.768  11.380  0.0400 -1.8555 -1.4773
   68MOL0     H 8940   5.375  12.639  11.254  1.1260 -0.5629 -1.4374
   68MOL0     H 8941   5.580  12.596  11.124  4.0287 -4.3687 -2.0698
   68MOL0     H 8942   5.941  12.484  11.084  0.0926 -2.9716 -1.0693
   68MOL0     H 8943   5.802  12.572  11.051  1.9026 -2.6389 -4.9130
   68MOL0     H 8944   5.817  12.328  10.977 -0.9503  2.8159 -0.5591
   68MOL0     H 8945   5.666  12.367  11.069 -0.4156 -2.0672  1.4441
   68MOL0     H 8946   5.725  12.227  11.238  0.5111 -1.3593 -0.2690
   68MOL0     H 8947   5.898  12.262  11.221 -0.4438  0.9123 -0.2746
   68MOL0     H 8948   5.750  12.036  11.148 -0.2333  2.0984  1.4787
   68MOL0     H 8949   5.789  12.117  10.996 -0.2212  0.0233  0.2484
   68MOL0     H 8950   5.969  11.932  11.087 -2.5065 -0.0091 -0.5422
   68MOL0     H 8951   6.000  12.022  11.214 -1.3565 -1.7703  0.3974
   68MOL0     H 8952   6.123  12.190  11.089 -1.3923 -1.0835  2.3437
   68MOL0     H 8953   6.013  12.166  10.941 -0.9251  0.3679  1.1749
   68MOL0     H 8954   6.110  11.933  10.928 -0.6718  2.5562 -2.1022
   68MOL0     H 8955   6.208  12.050  10.866 -2.1096 -0.2706 -0.7701
   68MOL0     H 8956   6.238  11.908  11.144  2.0685 -2.3580 -0.7064
   68MOL0     H 8957   6.316  12.066  11.101  1.9103 -0.7670 -1.9068
   68MOL0     H 8958   5.765  12.423  11.471  1.2712  2.0433 -0.7048
   68MOL0     H 8959   5.551  12.459  11.596 -2.4303 -2.3564 -1.1479
   68MOL0     H 8960   5.167  12.489  11.674  1.5924 -0.2925 -1.3713
   68MOL0     H 8961   4.954  12.443  11.762  1.9911  0.2673  0.1323
   68MOL0     H 8962   4.595  11.501  11.393  2.1562  2.1702  0.1450
   68MOL0     H 8963   4.807  11.523  11.273  2.4988  0.0336 -1.5309
   68MOL0     H 8964   5.305  11.110  11.153  2.1945 -0.3760 -0.1521
   68MOL0     H 8965   5.507  11.169  11.055  0.1360 -0.8971 -2.0442
   68MOL0     H 8966   5.676  11.385  10.818 -0.3585  1.9460  0.9264
   68MOL0     H 8967   5.608  11.234  10.894  1.2755 -1.5093  1.7674
   68MOL0     H 8968   5.816  11.405  11.044 -0.1860  1.1569 -2.0939
   68MOL0     H 8969   5.771  11.247  11.068 -1.8923 -1.2189 -1.5815
   68MOL0     H 8970   5.904  11.298  10.807 -1.0449 -2.0556 -0.9870
   68MOL0     H 8971   5.865  11.149  10.897  0.2315  0.3776  0.9615
   68MOL0     H 8972   6.108  11.240  10.906  0.0116  1.8527  0.2765
   68MOL0     H 8973   6.049  11.358  11.021 -1.9442 -0.1257  1.3474
   68MOL0     H 8974   6.022  10.993  11.245  4.4523 -1.0455 -0.0662
   68MOL0     H 8975   5.352  11.571  11.016 -2.8659 -0.8140  0.8184
   68MOL0     H 8976   5.143  11.503  11.116 -2.0673 -0.7936  1.1908
   69MOL0     O 8977   0.100   8.695  10.678 -1.0413  0.4302 -0.4276
   69MOL0     C 8978   0.063   8.566  10.681  0.0553 -0.6245  0.4313
   69MOL0     O 8979   0.152   8.466  10.672  0.1684  0.2814 -0.0099
   69MOL0     C 8980   0.283   8.503  10.695  0.8653 -0.4864  0.2255
   69MOL0     C 8981   0.328   8.521  10.817 -0.3929 -0.6258 -0.4002
   69MOL0     C 8982   0.461   8.547  10.842  0.6528 -0.3875 -0.7878
   69MOL0     C 8983   0.560   8.534  10.740 -0.0880 -0.3788 -0.3584
   69MOL0     O 8984   0.689   8.575  10.758 -0.3206 -0.1500 -0.2319
   69MOL0     C 8985   0.756   8.512  10.865 -0.1051  1.2613  0.2432
   69MOL0     C 8986   0.851   8.412  10.793 -0.1274  0.6445  0.6377
   69MOL0     C 8987   0.967   8.376  10.886  0.6391 -0.6747  0.3050
   69MOL0     C 8988   1.050   8.267  10.821  0.2805  0.3119  0.6538
   69MOL0     C 8989   1.188   8.255  10.877 -1.0017 -1.3582 -0.6056
   69MOL0     C 8990   1.247   8.134  10.802 -0.7995  0.0323  0.3136
   69MOL0     C 8991   1.392   8.099  10.853  0.6004  0.0142 -0.8573
   69MOL0     C 8992   1.469   7.994  10.760  0.0449 -1.0823  0.2825
   69MOL0     N 8993   1.397   7.875  10.731 -0.3236 -0.0135  0.4450
   69MOL0     C 8994   1.324   7.806  10.820  0.2117  0.0460  0.3565
   69MOL0     C 8995   1.255   7.725  10.734 -0.1822  0.4481 -0.8408
   69MOL0     C 8996   1.149   7.627  10.771 -0.7769 -0.7438 -0.1923
   69MOL0     C 8997   1.015   7.701  10.774 -0.4718 -0.3357 -0.7922
   69MOL0     C 8998   0.906   7.609  10.829 -0.1978  0.1011  0.0142
   69MOL0     C 8999   0.766   7.658  10.789 -0.2108  0.2524  0.0727
   69MOL0     O 9000   0.667   7.578  10.862  0.9093 -0.4831  0.1596
   69MOL0     C 9001   0.529   7.597  10.843 -0.3620  0.6698  0.0887
   69MOL0     C 9002   0.477   7.719  10.801 -0.8690  0.4797 -0.3451
   69MOL0     C 9003   0.340   7.733  10.777 -0.4644 -0.4046  0.7570
   69MOL0     C 9004   0.248   7.627  10.803  0.5598 -0.3002 -0.7694
   69MOL0     C 9005   0.108   7.644  10.777 -0.3552 -0.3435  0.1429
   69MOL0     O 9006   0.065   7.722  10.673 -0.2670 -0.0923  0.3955
   69MOL0     C 9007  -0.069   7.765  10.667  0.3205 -0.2788  0.8596
   69MOL0     C 9008  -0.102   7.892  10.628 -0.5374 -0.5949  0.9592
   69MOL0     C 9009  -0.235   7.941  10.594  0.1756  0.9413 -0.7448
   69MOL0     C 9010  -0.339   7.862  10.619 -0.6497 -0.0879  1.1784
   69MOL0     O 9011  -0.467   7.888  10.575 -0.0112  0.1652 -0.4031
   69MOL0     C 9012  -0.496   8.021  10.535 -0.2224 -0.9036  0.5081
   69MOL0     C 9013  -0.651   8.046  10.519 -0.0736  0.3813  0.3330
   69MOL0     C 9014  -0.680   8.188  10.537 -1.0147 -0.1044 -0.3202
   69MOL0     C 9015  -0.824   8.206  10.564 -0.7540  0.5317 -0.1262
   69MOL0     C 9016  -0.927   8.188  10.453 -0.5685  0.4859  0.0514
   69MOL0     C 9017  -1.069   8.188  10.511 -0.1107  0.6159  0.3807
   69MOL0     C 9018  -1.176   8.197  10.403  0.0230 -0.3007 -0.4339
   69MOL0     C 9019  -1.309   8.222  10.467  0.1645  0.7076 -0.1124
   69MOL0    Cl 9020  -1.302   8.373  10.572  0.6151  0.5931  0.1934
   69MOL0     C 9021  -0.313   7.733  10.673  0.4861 -0.0974 -0.4266
   69MOL0     C 9022  -0.183   7.684  10.686 -0.5016  0.1202 -0.8462
   69MOL0     O 9023   0.033   7.591  10.857 -0.6932 -0.0021 -0.7840
   69MOL0     C 9024   0.302   7.506  10.863  0.0409  0.2421 -0.5897
   69MOL0     C 9025   0.441   7.492  10.873  0.1786 -0.0322 -0.1775
   69MOL0     N 9026   1.293   7.732  10.605 -1.7251 -0.2718 -0.4235
   69MOL0     N 9027   1.376   7.828  10.609 -0.3205 -0.5704 -0.0070
   69MOL0     C 9028   0.522   8.498  10.606 -0.3141  0.4945 -0.3320
   69MOL0     C 9029   0.379   8.483  10.595  0.1529 -0.3183  0.8728
   69MOL0     C 9030  -0.081   8.538  10.683 -0.1895 -0.4084 -0.2682
   69MOL0     C 9031  -0.179   8.637  10.717 -0.8728  0.5142 -1.2043
   69MOL0     C 9032  -0.305   8.605  10.756 -0.6975  0.5363 -0.2727
   69MOL0     C 9033  -0.353   8.474  10.734 -0.1616  0.2985 -0.2701
   69MOL0     O 9034  -0.484   8.443  10.750 -0.7708 -0.1974 -0.2471
   69MOL0     C 9035  -0.539   8.490  10.876 -0.5947  0.0557 -0.6191
   69MOL0     C 9036  -0.689   8.455  10.875  0.6909 -0.8758 -0.0374
   69MOL0     C 9037  -0.750   8.462  11.016  0.1915 -0.1583 -0.2224
   69MOL0     C 9038  -0.899   8.438  11.000 -0.1574 -0.9465  0.8579
   69MOL0     C 9039  -0.968   8.421  11.128 -0.3122  0.4485 -0.4594
   69MOL0     C 9040  -1.028   8.412  11.231  0.0400  1.1046 -0.3253
   69MOL0     C 9041  -0.264   8.386  10.688 -0.4027 -0.2760  1.0785
   69MOL0     C 9042  -0.124   8.416  10.657  0.5470  0.4580 -0.4309
   69MOL0     H 9043   0.259   8.525  10.901  1.2181 -1.1114  1.0048
   69MOL0     H 9044   0.504   8.579  10.937  2.0034  0.9817 -1.8099
   69MOL0     H 9045   0.696   8.452  10.935 -1.1056  0.4640 -1.2338
   69MOL0     H 9046   0.815   8.576  10.932  2.2840  0.4037 -0.9326
   69MOL0     H 9047   0.891   8.461  10.704 -1.6406  1.0758  0.1841
   69MOL0     H 9048   0.795   8.323  10.764  0.4802  0.8292 -1.2030
   69MOL0     H 9049   0.932   8.351  10.986  0.8061 -0.2357  0.4726
   69MOL0     H 9050   1.026   8.467  10.897  0.1351 -0.1600 -0.9994
   69MOL0     H 9051   0.999   8.174  10.847 -0.5669  0.6486  0.2421
   69MOL0     H 9052   1.041   8.286  10.713 -1.6414 -1.8852  0.3497
   69MOL0     H 9053   1.187   8.225  10.982 -3.5441 -0.2556 -0.2524
   69MOL0     H 9054   1.249   8.345  10.867  0.3294 -2.1109  0.4498
   69MOL0     H 9055   1.249   8.150  10.693  4.1307  3.3155  0.5634
   69MOL0     H 9056   1.181   8.046  10.803 -1.6010  0.6250  1.3354
   69MOL0     H 9057   1.446   8.194  10.868 -1.4323  1.3654 -1.6457
   69MOL0     H 9058   1.384   8.066  10.957 -1.7607 -0.9054 -1.2685
   69MOL0     H 9059   1.558   7.959  10.813  1.3471  0.3132 -0.9163
   69MOL0     H 9060   1.503   8.042  10.668 -2.7147 -0.0020 -0.2650
   69MOL0     H 9061   1.314   7.830  10.925  1.0997  0.6931  0.3019
   69MOL0     H 9062   1.175   7.582  10.867 -1.6904 -0.0793  0.3866
   69MOL0     H 9063   1.149   7.541  10.704 -3.1399 -1.9723  1.2645
   69MOL0     H 9064   0.992   7.720  10.669 -1.1883 -1.0556 -0.7744
   69MOL0     H 9065   1.012   7.795  10.830 -0.9449 -1.9102  2.0226
   69MOL0     H 9066   0.914   7.507  10.791  0.3806 -0.3918  1.4160
   69MOL0     H 9067   0.909   7.605  10.938  2.7448 -2.5786 -0.0064
   69MOL0     H 9068   0.754   7.637  10.682  0.4873 -0.8645  0.1980
   69MOL0     H 9069   0.756   7.766  10.803  1.3869  0.6111 -1.1938
   69MOL0     H 9070   0.553   7.793  10.776  0.9575 -1.0246  0.5139
   69MOL0     H 9071   0.301   7.823  10.731 -1.9999  0.4074  3.4056
   69MOL0     H 9072  -0.020   7.961  10.612 -0.2367 -0.8741  1.2957
   69MOL0     H 9073  -0.245   8.039  10.550 -0.4307  2.2394  2.0498
   69MOL0     H 9074  -0.456   8.045  10.435  2.9475 -0.2680  1.8015
   69MOL0     H 9075  -0.454   8.094  10.604  2.3376  2.1741 -3.7763
   69MOL0     H 9076  -0.689   7.978  10.596  1.6861 -0.2840  0.6715
   69MOL0     H 9077  -0.679   8.015  10.418 -3.2434 -1.2959  1.5787
   69MOL0     H 9078  -0.654   8.254  10.453  1.2186  0.2169  0.5531
   69MOL0     H 9079  -0.622   8.221  10.624  1.3460 -0.5461 -1.6279
   69MOL0     H 9080  -0.863   8.139  10.641 -1.7118 -1.6196 -2.3662
   69MOL0     H 9081  -0.826   8.309  10.602 -2.3295 -0.2404  2.0350
   69MOL0     H 9082  -0.918   8.088  10.408 -3.4251  1.3031 -2.6676
   69MOL0     H 9083  -0.912   8.268  10.380  0.1089 -0.6674 -1.1179
   69MOL0     H 9084  -1.070   8.266  10.588  1.4158  1.3180 -0.2773
   69MOL0     H 9085  -1.083   8.095  10.568  2.0592  0.6659  1.1123
   69MOL0     H 9086  -1.150   8.282  10.338  0.7781 -0.3912 -0.2611
   69MOL0     H 9087  -1.182   8.103  10.347 -1.8306 -0.0984 -0.6380
   69MOL0     H 9088  -1.342   8.135  10.524  0.3814 -1.7545 -3.4409
   69MOL0     H 9089  -1.385   8.237  10.390  0.4371  0.9178 -0.3426
   69MOL0     H 9090  -0.399   7.668  10.685  0.5164  0.2016  1.7379
   69MOL0     H 9091  -0.176   7.581  10.718  0.5978  0.5981  0.5918
   69MOL0     H 9092   0.231   7.429  10.890  1.5834 -0.7870  0.6998
   69MOL0     H 9093   0.485   7.402  10.915 -1.9551  0.8905  4.8676
   69MOL0     H 9094   0.596   8.492  10.527 -1.2074 -0.1831 -1.1363
   69MOL0     H 9095   0.333   8.462  10.499 -1.4911  0.3559  1.4780
   69MOL0     H 9096  -0.163   8.743  10.733 -1.5377  0.3726  0.5694
   69MOL0     H 9097  -0.360   8.693  10.790 -0.3174  0.7413 -0.1837
   69MOL0     H 9098  -0.531   8.597  10.898 -2.1198 -0.2121  1.4421
   69MOL0     H 9099  -0.492   8.425  10.950  0.7891  0.4946 -1.0864
   69MOL0     H 9100  -0.737   8.528  10.809  3.3301  2.1616  1.1524
   69MOL0     H 9101  -0.705   8.358  10.827 -1.2150 -0.8910  0.5594
   69MOL0     H 9102  -0.725   8.553  11.070  0.2966 -1.4102  1.9701
   69MOL0     H 9103  -0.705   8.385  11.080  2.2881  0.3794 -0.9935
   69MOL0     H 9104  -0.941   8.522  10.945 -0.9406 -0.8078  1.6544
   69MOL0     H 9105  -0.913   8.355  10.930 -3.2542  1.0061 -1.0612
   69MOL0     H 9106  -1.077   8.394  11.324 -1.0570 -0.0279 -1.0896
   69MOL0     H 9107  -0.297   8.284  10.668 -1.8960  0.6289 -1.4196
   69MOL0     H 9108  -0.060   8.344  10.607  0.8220 -1.2413  2.1771
   70MOL0     O 9109   9.396   3.497   4.777  0.3002  0.3013  0.1948
   70MOL0     C 9110   9.494   3.498   4.707 -0.1219  0.0020 -0.2120
   70MOL0     O 9111   9.497   3.462   4.573 -0.1600  0.7786 -0.4394
   70MOL0     C 9112   9.388   3.426   4.500  0.4827  0.3227 -0.6735
   70MOL0     C 9113   9.282   3.509   4.512  0.5102 -1.2540  0.4589
   70MOL0     C 9114   9.179   3.483   4.419 -0.2314 -0.0024  0.5307
   70MOL0     C 9115   9.182   3.377   4.325 -0.0288 -0.0194  0.1523
   70MOL0     O 9116   9.077   3.365   4.241 -0.2515 -0.1418 -0.6266
   70MOL0     C 9117   9.092   3.276   4.128  0.0252 -0.3834 -0.1754
   70MOL0     C 9118   8.967   3.278   4.046 -0.3071 -0.2924 -0.8933
   70MOL0     C 9119   8.949   3.417   3.988 -0.1578 -0.9836  0.5108
   70MOL0     C 9120   8.827   3.406   3.894 -0.4990  0.2762  0.9670
   70MOL0     C 9121   8.787   3.541   3.830  0.3638  1.2259 -0.3186
   70MOL0     C 9122   8.654   3.533   3.753 -0.0452 -0.1808  0.1576
   70MOL0     C 9123   8.600   3.663   3.688 -0.3166  0.0929 -0.2465
   70MOL0     C 9124   8.547   3.773   3.792 -0.0428  0.5593  0.7298
   70MOL0     N 9125   8.595   3.910   3.765  0.6064  0.9806 -0.3076
   70MOL0     C 9126   8.724   3.953   3.747 -0.0115  0.3883 -0.7706
   70MOL0     C 9127   8.717   4.083   3.706  0.1117  0.5159 -0.0438
   70MOL0     C 9128   8.835   4.157   3.661 -0.2813 -0.9235 -0.1299
   70MOL0     C 9129   8.941   4.176   3.772 -0.1209 -1.0707 -0.0647
   70MOL0     C 9130   8.900   4.286   3.876 -0.4618 -0.6224 -0.3244
   70MOL0     C 9131   8.992   4.285   3.993 -0.3018  0.4864 -0.9557
   70MOL0     O 9132   9.133   4.279   3.954  0.6784  0.3498 -0.3737
   70MOL0     C 9133   9.216   4.298   4.062  0.9669  0.4269  0.1131
   70MOL0     C 9134   9.350   4.331   4.041 -0.2439  0.5022  0.4248
   70MOL0     C 9135   9.432   4.347   4.142  0.3843  0.1033  0.2718
   70MOL0     C 9136   9.394   4.350   4.276 -0.0938 -0.1129  0.2506
   70MOL0     C 9137   9.493   4.354   4.380  0.3446 -0.9943 -0.1374
   70MOL0     O 9138   9.622   4.401   4.351 -0.2144  0.1032 -0.6999
   70MOL0     C 9139   9.728   4.376   4.443  0.3742 -0.9854  0.2123
   70MOL0     C 9140   9.825   4.480   4.446 -0.2511 -0.3712 -0.5287
   70MOL0     C 9141   9.953   4.448   4.499 -0.1369  0.4661  0.4769
   70MOL0     C 9142   9.978   4.329   4.564 -0.1181 -0.4905  0.2284
   70MOL0     O 9143  10.081   4.299   4.645 -0.2976 -0.6920 -0.2384
   70MOL0     C 9144  10.168   4.399   4.697  0.9188  0.4168 -1.5154
   70MOL0     C 9145  10.287   4.350   4.789  0.5180  0.3557 -0.2608
   70MOL0     C 9146  10.392   4.296   4.689 -0.2639  0.3944 -0.4906
   70MOL0     C 9147  10.528   4.340   4.747  0.1563  0.9406 -0.5089
   70MOL0     C 9148  10.625   4.337   4.637 -0.2176  0.1072  0.6179
   70MOL0     C 9149  10.770   4.336   4.680 -0.3384  0.2180 -0.1366
   70MOL0     C 9150  10.856   4.292   4.567 -0.3575 -0.4358 -0.1183
   70MOL0     C 9151  10.998   4.254   4.608 -0.3826 -0.4304 -0.0742
   70MOL0    Cl 9152  10.998   4.105   4.722 -0.3429 -0.2709 -0.0357
   70MOL0     C 9153   9.874   4.237   4.584 -0.0972 -0.2994  0.3384
   70MOL0     C 9154   9.749   4.261   4.523 -0.1189  0.5276 -0.5529
   70MOL0     O 9155   9.454   4.324   4.496  0.9424 -0.0601 -0.4899
   70MOL0     C 9156   9.264   4.329   4.296  0.5964  0.2096  0.1485
   70MOL0     C 9157   9.174   4.291   4.195  0.3339 -0.1770  0.1813
   70MOL0     N 9158   8.582   4.118   3.715 -0.0644  0.1342 -0.3579
   70MOL0     N 9159   8.518   4.016   3.743  0.3815 -0.4678 -0.6803
   70MOL0     C 9160   9.295   3.286   4.324 -0.9016 -0.6310  0.6668
   70MOL0     C 9161   9.395   3.311   4.416 -1.1102  0.3023 -0.0363
   70MOL0     C 9162   9.611   3.564   4.755 -0.4632 -0.3856 -0.7657
   70MOL0     C 9163   9.727   3.577   4.676 -0.1127 -0.3939 -0.2466
   70MOL0     C 9164   9.842   3.627   4.733 -0.5221  0.3627 -0.0604
   70MOL0     C 9165   9.850   3.678   4.869 -0.1831  0.8025  0.6672
   70MOL0     O 9166   9.958   3.724   4.941 -0.8387 -0.2991  0.0839
   70MOL0     C 9167  10.085   3.743   4.875  0.4582 -0.1900 -0.6704
   70MOL0     C 9168  10.187   3.800   4.974 -0.2239 -1.1873 -0.4601
   70MOL0     C 9169  10.297   3.883   4.911 -0.6210 -0.4712 -0.2450
   70MOL0     C 9170  10.403   3.809   4.834 -0.0566  1.1353 -0.3273
   70MOL0     C 9171  10.507   3.889   4.790 -1.4504 -0.0447 -0.7718
   70MOL0     C 9172  10.592   3.959   4.744 -0.9326  0.6024  0.4599
   70MOL0     C 9173   9.730   3.673   4.936  0.0047 -0.8073 -0.2989
   70MOL0     C 9174   9.621   3.621   4.881 -0.8530 -1.4505  0.4530
   70MOL0     H 9175   9.256   3.586   4.584 -2.2824 -1.7567  0.0860
   70MOL0     H 9176   9.084   3.535   4.422 -0.5113 -0.5062  0.5294
   70MOL0     H 9177   9.089   3.177   4.175  0.7925  0.6323  2.1286
   70MOL0     H 9178   9.182   3.303   4.071  0.3201  1.9184  1.2610
   70MOL0     H 9179   8.883   3.272   4.115 -1.5297 -0.1234 -2.3083
   70MOL0     H 9180   8.967   3.186   3.985  0.8908 -0.7881 -0.1759
   70MOL0     H 9181   9.046   3.448   3.946 -0.2860  1.7427  1.9591
   70MOL0     H 9182   8.920   3.488   4.066  0.1590 -1.5091  1.1192
   70MOL0     H 9183   8.848   3.347   3.804 -4.0825 -0.2309  0.3411
   70MOL0     H 9184   8.748   3.366   3.958 -0.3872  1.4829  1.8929
   70MOL0     H 9185   8.862   3.577   3.759  1.9479 -4.1837 -1.8637
   70MOL0     H 9186   8.780   3.615   3.910 -1.7326  1.7346 -0.9224
   70MOL0     H 9187   8.580   3.489   3.821 -1.8681  1.2125 -0.8481
   70MOL0     H 9188   8.669   3.460   3.673 -1.7287  1.4452 -1.7533
   70MOL0     H 9189   8.689   3.706   3.642  1.1712 -0.6099  1.8470
   70MOL0     H 9190   8.530   3.639   3.608 -2.6102  0.3673  1.5641
   70MOL0     H 9191   8.587   3.742   3.889 -1.6045 -2.6628  0.4955
   70MOL0     H 9192   8.438   3.763   3.790 -0.2653  1.9320 -3.5680
   70MOL0     H 9193   8.804   3.881   3.756 -3.1809 -3.2411  1.1818
   70MOL0     H 9194   8.798   4.247   3.611 -1.5371 -1.0104  0.6292
   70MOL0     H 9195   8.874   4.089   3.585  1.3142 -2.1086  1.6518
   70MOL0     H 9196   9.038   4.196   3.725 -1.4071  1.4423 -1.8691
   70MOL0     H 9197   8.951   4.074   3.812  2.0177  0.0006  2.3966
   70MOL0     H 9198   8.896   4.385   3.829 -1.5541  0.6722  2.3301
   70MOL0     H 9199   8.800   4.256   3.911 -0.1352 -1.2862  0.0623
   70MOL0     H 9200   8.975   4.193   4.050  0.5788 -0.2830 -1.8738
   70MOL0     H 9201   8.978   4.375   4.054  2.9449 -2.6579  5.5294
   70MOL0     H 9202   9.386   4.319   3.939 -3.9559  0.1333 -1.0288
   70MOL0     H 9203   9.537   4.362   4.120  0.1200  0.8738 -0.5599
   70MOL0     H 9204   9.815   4.576   4.397  2.2077 -0.2936 -0.9778
   70MOL0     H 9205  10.034   4.519   4.486  0.2435 -0.1924 -0.9729
   70MOL0     H 9206  10.093   4.445   4.762  0.3271 -4.7651  2.0274
   70MOL0     H 9207  10.202   4.476   4.627  0.7973  2.0340  0.1214
   70MOL0     H 9208  10.263   4.271   4.860  3.1578 -0.4443 -0.1438
   70MOL0     H 9209  10.325   4.442   4.836  0.7993  0.3295 -0.4364
   70MOL0     H 9210  10.385   4.340   4.589  2.0167  0.0391 -0.8783
   70MOL0     H 9211  10.386   4.188   4.683  1.5454 -0.1329  3.4302
   70MOL0     H 9212  10.536   4.443   4.783  1.5914  1.5190 -2.3598
   70MOL0     H 9213  10.554   4.281   4.835 -1.9668  1.7244  0.7077
   70MOL0     H 9214  10.607   4.411   4.558 -0.6274 -0.9706 -0.3240
   70MOL0     H 9215  10.604   4.236   4.600 -2.1069  0.3350  0.9845
   70MOL0     H 9216  10.788   4.271   4.767  1.7966 -0.3766 -0.9577
   70MOL0     H 9217  10.785   4.437   4.718 -2.2727 -0.7684  3.7291
   70MOL0     H 9218  10.813   4.203   4.521 -0.7430 -0.8518  1.0232
   70MOL0     H 9219  10.843   4.369   4.490  1.1362 -0.9897 -0.9696
   70MOL0     H 9220  11.051   4.341   4.649 -3.4051  0.4039  2.4923
   70MOL0     H 9221  11.052   4.226   4.518 -1.3059 -1.5664 -0.3006
   70MOL0     H 9222   9.892   4.147   4.643 -0.5452 -1.5258 -1.3139
   70MOL0     H 9223   9.669   4.188   4.530  0.9420 -0.6809 -0.5588
   70MOL0     H 9224   9.226   4.336   4.398  1.7389 -2.3271  0.8417
   70MOL0     H 9225   9.074   4.262   4.224  0.4681 -0.6239  0.1970
   70MOL0     H 9226   9.304   3.202   4.256  4.3527  0.4065 -0.3451
   70MOL0     H 9227   9.486   3.252   4.414 -0.3982  1.3910 -0.7311
   70MOL0     H 9228   9.736   3.537   4.576 -3.8938  0.4436 -1.0837
   70MOL0     H 9229   9.932   3.620   4.673 -1.7184  1.2731 -2.0527
   70MOL0     H 9230  10.066   3.809   4.790 -1.3094  0.9076  0.5037
   70MOL0     H 9231  10.129   3.645   4.853 -1.4427 -1.2381 -0.1219
   70MOL0     H 9232  10.154   3.883   5.038  2.7112  1.8696 -2.6010
   70MOL0     H 9233  10.241   3.719   5.023  3.3595  1.1350 -0.2181
   70MOL0     H 9234  10.343   3.943   4.990 -0.3331 -2.0525  0.8404
   70MOL0     H 9235  10.245   3.955   4.848 -0.1115  0.8332  0.7585
   70MOL0     H 9236  10.450   3.730   4.894 -2.5704 -0.0614  0.1849
   70MOL0     H 9237  10.353   3.747   4.759  0.1147 -1.6343  1.6914
   70MOL0     H 9238  10.671   4.022   4.709 -1.8768  1.2421 -0.6329
   70MOL0     H 9239   9.719   3.712   5.037 -1.5585 -0.5719 -0.5452
   70MOL0     H 9240   9.536   3.607   4.948 -1.6459 -2.3693 -0.7075
   71MOL0     O 9241   6.516   9.310   7.119  0.3917 -0.6965 -0.3093
   71MOL0     C 9242   6.542   9.405   7.046  0.2621 -0.2708  0.0550
   71MOL0     O 9243   6.454   9.469   6.961  0.3312 -0.3884  0.0085
   71MOL0     C 9244   6.330   9.421   6.958 -0.6494 -0.6362  0.9414
   71MOL0     C 9245   6.246   9.453   7.063 -0.3572 -0.0865  0.1503
   71MOL0     C 9246   6.115   9.397   7.062 -0.8974 -0.6796 -0.5552
   71MOL0     C 9247   6.075   9.298   6.972  0.0241 -0.6458 -0.4574
   71MOL0     O 9248   5.949   9.244   6.957 -0.8052 -0.9439 -0.1456
   71MOL0     C 9249   5.835   9.266   7.035 -0.1005  0.1894 -0.1848
   71MOL0     C 9250   5.751   9.153   6.978  1.1193  0.1368 -0.0525
   71MOL0     C 9251   5.613   9.138   7.030  0.7379 -0.1446  0.2696
   71MOL0     C 9252   5.547   9.011   6.968  0.0965 -0.3344 -0.2705
   71MOL0     C 9253   5.454   8.939   7.070  0.3213  0.0789  0.3361
   71MOL0     C 9254   5.322   9.011   7.114 -0.4130 -0.7426 -1.0312
   71MOL0     C 9255   5.225   8.931   7.196  0.0646  0.4545 -0.5007
   71MOL0     C 9256   5.093   9.012   7.198  1.2087 -0.3680 -0.5686
   71MOL0     N 9257   4.986   8.936   7.275  0.4536  0.3168  0.5000
   71MOL0     C 9258   4.958   8.930   7.412  0.7813  0.1770 -0.4345
   71MOL0     C 9259   4.861   8.834   7.427 -0.8133  0.0754 -0.3142
   71MOL0     C 9260   4.786   8.810   7.560  0.1651  0.0309  0.0838
   71MOL0     C 9261   4.629   8.805   7.523 -0.7502 -0.2464  0.6274
   71MOL0     C 9262   4.543   8.726   7.619  0.5627  1.5672 -0.5888
   71MOL0     C 9263   4.392   8.739   7.604  0.4402 -1.0713 -0.4565
   71MOL0     O 9264   4.358   8.668   7.483  0.5137  0.1878 -0.1759
   71MOL0     C 9265   4.223   8.646   7.471 -0.9485  0.3834  0.5154
   71MOL0     C 9266   4.157   8.552   7.550 -0.5058  0.6425 -0.7907
   71MOL0     C 9267   4.020   8.527   7.546  0.6331  0.3711  0.2973
   71MOL0     C 9268   3.954   8.585   7.433  0.8688 -0.4052 -0.5041
   71MOL0     C 9269   3.810   8.570   7.436  0.6587 -0.1065 -0.1573
   71MOL0     O 9270   3.752   8.523   7.550  0.5171 -0.3184 -0.0853
   71MOL0     C 9271   3.620   8.511   7.548  0.7916 -0.1511 -0.5511
   71MOL0     C 9272   3.550   8.394   7.537  0.1203 -0.6657  0.2101
   71MOL0     C 9273   3.410   8.392   7.527 -0.1732 -0.3701 -0.2066
   71MOL0     C 9274   3.330   8.517   7.552  0.6692  0.6040 -0.6860
   71MOL0     O 9275   3.194   8.498   7.556 -0.0191  0.0205 -0.5135
   71MOL0     C 9276   3.094   8.591   7.588  0.5678  0.0492  0.4929
   71MOL0     C 9277   3.022   8.630   7.450  0.3027  0.3716 -0.3577
   71MOL0     C 9278   2.898   8.721   7.486 -0.0279  0.2980  0.8359
   71MOL0     C 9279   2.777   8.692   7.402 -0.2591  0.0777  0.7446
   71MOL0     C 9280   2.669   8.792   7.447  0.5974  0.2033 -0.0852
   71MOL0     C 9281   2.531   8.741   7.391 -0.3409  0.1309  0.6701
   71MOL0     C 9282   2.534   8.747   7.238 -0.2075 -0.3634 -0.5393
   71MOL0     C 9283   2.413   8.678   7.175  0.7052 -0.2965 -0.9984
   71MOL0    Cl 9284   2.263   8.747   7.243 -0.5488 -0.1691 -0.3335
   71MOL0     C 9285   3.401   8.631   7.577 -0.2451 -0.0248  0.1391
   71MOL0     C 9286   3.547   8.630   7.572  0.1222 -0.0015  0.0941
   71MOL0     O 9287   3.754   8.634   7.345 -0.0378  0.0269 -0.0444
   71MOL0     C 9288   4.022   8.655   7.331 -0.5844 -0.0352 -1.0463
   71MOL0     C 9289   4.151   8.689   7.356 -0.8536 -0.2375 -1.2540
   71MOL0     N 9290   4.831   8.781   7.299  1.2793  0.1725 -0.5197
   71MOL0     N 9291   4.901   8.839   7.216 -0.8410  0.4666  0.0902
   71MOL0     C 9292   6.166   9.279   6.867 -0.0292  0.6191 -0.9594
   71MOL0     C 9293   6.291   9.342   6.858  0.8110  0.2731  0.2401
   71MOL0     C 9294   6.684   9.439   7.026 -0.9452 -0.1838 -1.0799
   71MOL0     C 9295   6.780   9.412   7.123 -0.1283  0.3070  0.6689
   71MOL0     C 9296   6.909   9.469   7.114 -0.1797  0.3627 -0.0628
   71MOL0     C 9297   6.943   9.534   6.994  0.0045  0.1792  0.9670
   71MOL0     O 9298   7.065   9.593   6.973  0.3965 -0.2640  0.6413
   71MOL0     C 9299   7.164   9.500   6.919  0.0382  0.2514  0.4902
   71MOL0     C 9300   7.260   9.471   7.034 -0.1871  0.3710  0.4769
   71MOL0     C 9301   7.362   9.578   7.060 -0.5205 -0.3122 -0.0910
   71MOL0     C 9302   7.454   9.598   6.933 -0.1102  0.3592 -0.0150
   71MOL0     C 9303   7.577   9.667   6.966 -0.3082  0.0184  0.6418
   71MOL0     C 9304   7.664   9.744   7.005 -0.1420 -0.6584 -0.5525
   71MOL0     C 9305   6.850   9.567   6.901  0.4003 -0.1134  1.0130
   71MOL0     C 9306   6.718   9.517   6.917 -0.9042  0.8237 -0.2548
   71MOL0     H 9307   6.269   9.521   7.145  0.8753  0.9974 -1.0248
   71MOL0     H 9308   6.039   9.429   7.134 -0.3982  2.3486 -1.2409
   71MOL0     H 9309   5.776   9.355   7.013 -3.0851 -1.8756 -1.1018
   71MOL0     H 9310   5.841   9.259   7.144 -1.9302 -1.0355 -0.1211
   71MOL0     H 9311   5.808   9.061   6.993  2.3236  1.0253  1.1387
   71MOL0     H 9312   5.748   9.153   6.868  0.4569 -3.6349 -0.1517
   71MOL0     H 9313   5.545   9.217   6.995  0.6004  0.4253  1.7637
   71MOL0     H 9314   5.601   9.132   7.139  0.4400 -0.4568  0.2218
   71MOL0     H 9315   5.495   9.047   6.879  0.3672  0.4603 -0.1158
   71MOL0     H 9316   5.628   8.951   6.926  0.4399  0.1053 -0.2422
   71MOL0     H 9317   5.514   8.920   7.160  0.4617 -0.1537  0.1915
   71MOL0     H 9318   5.428   8.842   7.028 -0.6562  0.7961 -0.7763
   71MOL0     H 9319   5.272   9.052   7.026 -0.1488  1.8749 -0.0512
   71MOL0     H 9320   5.341   9.100   7.175  2.8822 -2.0505  0.0709
   71MOL0     H 9321   5.207   8.833   7.152 -0.4885  0.6498 -0.7158
   71MOL0     H 9322   5.265   8.915   7.297  1.1304 -0.1431 -1.0069
   71MOL0     H 9323   5.054   9.026   7.097  0.7837 -3.5195 -0.9405
   71MOL0     H 9324   5.115   9.111   7.239  1.0972 -0.2107 -0.8849
   71MOL0     H 9325   4.984   9.000   7.490 -0.8930 -0.7725  1.0423
   71MOL0     H 9326   4.809   8.897   7.622 -3.3661  2.7275 -1.9616
   71MOL0     H 9327   4.803   8.713   7.608 -2.2215 -0.5640 -0.1506
   71MOL0     H 9328   4.610   8.764   7.424 -1.2441  0.7835  0.2733
   71MOL0     H 9329   4.583   8.905   7.516 -0.9770 -0.4567 -1.8197
   71MOL0     H 9330   4.564   8.619   7.612  0.3348  1.5376 -0.8213
   71MOL0     H 9331   4.567   8.747   7.724 -0.5945 -1.1747  0.3038
   71MOL0     H 9332   4.367   8.845   7.612  0.8126 -1.1101  1.7592
   71MOL0     H 9333   4.350   8.683   7.688  3.1821 -3.1004 -0.3138
   71MOL0     H 9334   4.209   8.520   7.640 -0.6411 -1.0852 -1.2957
   71MOL0     H 9335   3.967   8.467   7.619  0.5102  0.8450  0.6032
   71MOL0     H 9336   3.604   8.301   7.529 -2.3386 -2.2213  0.5030
   71MOL0     H 9337   3.356   8.301   7.505  0.5626 -1.0269  0.6582
   71MOL0     H 9338   3.136   8.680   7.637 -0.6495  1.4602 -0.9122
   71MOL0     H 9339   3.011   8.554   7.648  0.9044  0.9863  1.5769
   71MOL0     H 9340   2.967   8.540   7.421 -0.3441  0.3862  0.7607
   71MOL0     H 9341   3.085   8.681   7.377 -0.1231  0.8794 -0.3749
   71MOL0     H 9342   2.927   8.825   7.465 -0.4373  0.5025  1.2807
   71MOL0     H 9343   2.883   8.713   7.593  1.5483  0.1624  1.0798
   71MOL0     H 9344   2.796   8.714   7.297  0.7882 -1.1608  0.6449
   71MOL0     H 9345   2.753   8.585   7.407 -0.0788 -0.0273 -0.4199
   71MOL0     H 9346   2.685   8.888   7.397 -0.5391  1.7322  2.2896
   71MOL0     H 9347   2.655   8.806   7.554  1.0616  0.3104 -0.0375
   71MOL0     H 9348   2.449   8.806   7.424  1.2015  1.0522  2.9311
   71MOL0     H 9349   2.509   8.645   7.439  0.9341 -0.0344  0.9409
   71MOL0     H 9350   2.545   8.848   7.198 -0.3108 -0.5446 -1.0349
   71MOL0     H 9351   2.623   8.698   7.196  0.0480 -0.4913  0.1295
   71MOL0     H 9352   2.412   8.573   7.205 -2.5023 -0.5903 -1.8160
   71MOL0     H 9353   2.426   8.671   7.066  1.8295 -2.7010 -0.7866
   71MOL0     H 9354   3.350   8.726   7.588 -0.5513  0.2246 -2.6923
   71MOL0     H 9355   3.606   8.720   7.583  3.2145 -2.0873  2.1186
   71MOL0     H 9356   3.967   8.697   7.248 -1.0606  0.8713 -0.2843
   71MOL0     H 9357   4.207   8.750   7.286 -1.2785  2.9721  1.0020
   71MOL0     H 9358   6.139   9.215   6.783  1.2442  0.3050 -1.1574
   71MOL0     H 9359   6.357   9.330   6.773 -0.1613 -1.8016 -0.2732
   71MOL0     H 9360   6.752   9.365   7.216  0.0025 -1.2401 -0.0395
   71MOL0     H 9361   6.974   9.458   7.200  0.8705 -1.6688 -1.0359
   71MOL0     H 9362   7.220   9.553   6.841  0.8283  2.9918  2.7312
   71MOL0     H 9363   7.126   9.405   6.880  2.1859 -0.1153 -0.9154
   71MOL0     H 9364   7.198   9.463   7.124 -0.2943 -0.6613  0.3281
   71MOL0     H 9365   7.315   9.379   7.011 -2.0039 -0.6418 -0.0672
   71MOL0     H 9366   7.428   9.535   7.137  2.2267 -2.9517 -3.5734
   71MOL0     H 9367   7.325   9.666   7.113  0.2867 -0.4162  0.6782
   71MOL0     H 9368   7.482   9.497   6.900  0.3070  0.3372  0.3982
   71MOL0     H 9369   7.396   9.656   6.860 -2.2847 -0.1625  1.2160
   71MOL0     H 9370   7.736   9.821   7.023 -0.8628  0.4752 -2.2950
   71MOL0     H 9371   6.872   9.628   6.814  2.3664 -0.4979  1.2040
   71MOL0     H 9372   6.646   9.548   6.842 -0.0038 -1.4615 -2.2019
   72MOL0     O 9373   8.903  11.097  10.790 -0.7904  0.4153 -0.2812
   72MOL0     C 9374   8.916  11.184  10.875 -0.0257  0.2664 -0.6751
   72MOL0     O 9375   8.825  11.278  10.907  0.4561  0.4645  0.2798
   72MOL0     C 9376   8.696  11.260  10.872 -0.9637  0.2398 -0.4524
   72MOL0     C 9377   8.623  11.374  10.827  0.4428 -0.1773 -0.6955
   72MOL0     C 9378   8.493  11.367  10.790  1.1550  0.4798  0.5166
   72MOL0     C 9379   8.424  11.246  10.786  0.0772 -0.1463  0.0953
   72MOL0     O 9380   8.293  11.238  10.741  0.1016  0.1215 -0.8316
   72MOL0     C 9381   8.265  11.288  10.608  0.3786  0.4089 -0.8047
   72MOL0     C 9382   8.127  11.246  10.563  0.7720 -0.1824  0.6484
   72MOL0     C 9383   8.105  11.096  10.570 -0.8686 -0.5014 -0.1917
   72MOL0     C 9384   7.958  11.080  10.528  0.0658  0.3724 -0.2759
   72MOL0     C 9385   7.919  10.945  10.459  0.6330 -0.3598  0.3790
   72MOL0     C 9386   7.772  10.953  10.403  0.0355  0.2853 -0.4310
   72MOL0     C 9387   7.745  10.852  10.298  0.4756  0.5104  0.1992
   72MOL0     C 9388   7.599  10.862  10.236  0.7548 -0.0097 -0.1753
   72MOL0     N 9389   7.577  10.757  10.142  0.2384 -0.6521  0.2567
   72MOL0     C 9390   7.525  10.643  10.176 -0.2594  1.2172 -0.7958
   72MOL0     C 9391   7.489  10.583  10.057 -0.7366  0.0542 -0.1640
   72MOL0     C 9392   7.444  10.445  10.044  0.3216  0.1470 -0.2122
   72MOL0     C 9393   7.290  10.415  10.079 -0.1777 -0.0399  0.2452
   72MOL0     C 9394   7.190  10.488   9.994  0.1215  0.0932  1.8052
   72MOL0     C 9395   7.046  10.454  10.037 -0.0743  0.0020 -0.3084
   72MOL0     O 9396   6.947  10.502   9.943 -0.9498 -0.1840 -0.8870
   72MOL0     C 9397   6.828  10.452   9.955 -0.1201  0.4166  0.3734
   72MOL0     C 9398   6.806  10.328   9.885 -1.0101  0.0433 -0.7888
   72MOL0     C 9399   6.698  10.252   9.913  0.1129  0.1993  0.1184
   72MOL0     C 9400   6.594  10.298  10.001 -0.0620 -0.5456 -0.6865
   72MOL0     C 9401   6.470  10.217  10.021  0.6238  0.2354 -0.4824
   72MOL0     O 9402   6.368  10.278  10.079 -0.1723  0.4594 -0.0546
   72MOL0     C 9403   6.246  10.218  10.079  0.2942  0.6800 -0.7989
   72MOL0     C 9404   6.180  10.142   9.979 -0.0013  0.8598 -0.0689
   72MOL0     C 9405   6.045  10.099   9.986  0.2377  0.6592  0.7076
   72MOL0     C 9406   5.978  10.126  10.106 -0.4259  0.0989  0.3811
   72MOL0     O 9407   5.849  10.097  10.130 -0.1117 -0.0705  0.1287
   72MOL0     C 9408   5.841   9.959  10.179 -0.4022 -0.5713 -0.2898
   72MOL0     C 9409   5.709   9.936  10.256  0.7884 -0.0695 -0.6630
   72MOL0     C 9410   5.591   9.969  10.173  0.3097  0.6804  0.4784
   72MOL0     C 9411   5.462   9.926  10.241 -0.0379 -0.9208 -0.3576
   72MOL0     C 9412   5.333   9.984  10.185  0.0280 -0.2746 -1.4210
   72MOL0     C 9413   5.271   9.918  10.067 -0.2311 -0.4174 -0.0463
   72MOL0     C 9414   5.150  10.004  10.007  0.7061 -0.3559  0.0333
   72MOL0     C 9415   5.088   9.920   9.882 -1.0991  0.1210  0.0708
   72MOL0    Cl 9416   5.005  10.040   9.782  0.3050  0.1695 -0.6702
   72MOL0     C 9417   6.040  10.202  10.203 -0.2180  1.0103 -0.3049
   72MOL0     C 9418   6.170  10.248  10.197 -0.6999 -0.8288  0.1410
   72MOL0     O 9419   6.475  10.100   9.984  0.1747 -0.9801  0.0933
   72MOL0     C 9420   6.606  10.426  10.067 -0.3625 -0.7915 -0.3132
   72MOL0     C 9421   6.727  10.496  10.047 -0.5875 -0.5166 -0.2810
   72MOL0     N 9422   7.522  10.672   9.953  0.1712  0.3401 -0.5373
   72MOL0     N 9423   7.577  10.774  10.009  0.5099 -0.2926  0.0178
   72MOL0     C 9424   8.489  11.137  10.839  0.0787  0.4904  0.5589
   72MOL0     C 9425   8.621  11.141  10.883  0.1804  0.6384 -0.1043
   72MOL0     C 9426   9.062  11.214  10.909 -0.0526  0.0769 -0.7944
   72MOL0     C 9427   9.092  11.297  11.016 -0.4432 -1.4034 -0.4058
   72MOL0     C 9428   9.226  11.329  11.046  0.7458 -0.9395 -0.0925
   72MOL0     C 9429   9.331  11.272  10.974  0.8057  0.4751  0.5151
   72MOL0     O 9430   9.457  11.317  11.020  0.6032 -0.1507 -0.1545
   72MOL0     C 9431   9.574  11.268  10.947 -0.5981 -0.1355 -0.4224
   72MOL0     C 9432   9.712  11.319  11.013  0.6292 -0.6358  0.0540
   72MOL0     C 9433   9.757  11.461  10.971 -0.4740 -0.1682  0.3978
   72MOL0     C 9434   9.906  11.491  11.011 -1.1089  0.1278  0.5621
   72MOL0     C 9435   9.981  11.527  10.893  0.3890 -0.7943 -0.4385
   72MOL0     C 9436  10.031  11.565  10.790 -0.5209  0.3011  0.1479
   72MOL0     C 9437   9.303  11.181  10.876 -1.1434 -0.1530 -0.3987
   72MOL0     C 9438   9.171  11.148  10.843 -0.9528 -0.4341 -0.3069
   72MOL0     H 9439   8.669  11.472  10.836  2.5450 -1.2667  1.5792
   72MOL0     H 9440   8.444  11.462  10.770  1.4350  1.0214  2.2380
   72MOL0     H 9441   8.341  11.265  10.533 -1.4134 -0.8448 -2.2986
   72MOL0     H 9442   8.271  11.397  10.612  1.4958  0.4334 -2.4204
   72MOL0     H 9443   8.120  11.279  10.459 -2.4888  1.7611  1.3449
   72MOL0     H 9444   8.055  11.306  10.619 -0.0525 -0.9711  0.4772
   72MOL0     H 9445   8.118  11.050  10.668  3.4596 -3.1790 -1.7413
   72MOL0     H 9446   8.179  11.050  10.504  1.9314  1.1733  1.5976
   72MOL0     H 9447   7.901  11.092  10.621  0.9774  2.6966  0.0419
   72MOL0     H 9448   7.924  11.152  10.454 -0.1022 -0.2012 -0.7646
   72MOL0     H 9449   7.915  10.855  10.522  0.6575 -1.4823 -1.1416
   72MOL0     H 9450   7.986  10.929  10.373  0.1632 -0.3544  0.0119
   72MOL0     H 9451   7.751  11.050  10.357 -2.6410 -0.3126 -0.5926
   72MOL0     H 9452   7.703  10.935  10.485 -0.8357 -1.7158 -1.5371
   72MOL0     H 9453   7.823  10.858  10.222 -1.9816  2.5590 -2.3871
   72MOL0     H 9454   7.742  10.752  10.343 -2.8398  1.3050  2.1153
   72MOL0     H 9455   7.581  10.957  10.187  1.0781  0.2208  0.1463
   72MOL0     H 9456   7.523  10.846  10.314  3.3039  0.1016  2.5331
   72MOL0     H 9457   7.514  10.604  10.277  1.4679  0.8822 -0.7009
   72MOL0     H 9458   7.501  10.388  10.118 -1.6534 -0.1399  1.1582
   72MOL0     H 9459   7.457  10.411   9.941 -2.3633 -0.2562 -0.4910
   72MOL0     H 9460   7.266  10.422  10.185  1.2403 -1.1239  0.6537
   72MOL0     H 9461   7.283  10.307  10.061 -0.0240  0.1691 -1.2628
   72MOL0     H 9462   7.216  10.594   9.985  2.2133 -0.4211  1.2089
   72MOL0     H 9463   7.209  10.451   9.893  1.3809  5.3078 -0.2343
   72MOL0     H 9464   7.026  10.497  10.135  0.9086 -0.3905  0.0783
   72MOL0     H 9465   7.043  10.345  10.045  4.0046 -0.4067 -2.0848
   72MOL0     H 9466   6.873  10.299   9.805  1.2857  3.7531 -0.4522
   72MOL0     H 9467   6.689  10.162   9.854  1.7434  0.3584 -0.4315
   72MOL0     H 9468   6.232  10.104   9.892 -1.9389  2.9339 -2.2867
   72MOL0     H 9469   5.999  10.047   9.903 -0.3752  0.9212  0.8750
   72MOL0     H 9470   5.927   9.923  10.237  0.0296 -2.6298 -2.0858
   72MOL0     H 9471   5.835   9.891  10.094 -1.5616  0.7666 -1.3159
   72MOL0     H 9472   5.720   9.999  10.345 -0.9662  0.1627 -0.5652
   72MOL0     H 9473   5.709   9.834  10.294  2.4855  1.1425  3.0573
   72MOL0     H 9474   5.603   9.929  10.072 -0.8421  2.0778 -0.2440
   72MOL0     H 9475   5.593  10.078  10.163  0.0616  0.9068  2.5359
   72MOL0     H 9476   5.455   9.817  10.242 -3.3798 -0.8200 -0.9372
   72MOL0     H 9477   5.460   9.956  10.346 -1.7269 -1.6821 -0.1353
   72MOL0     H 9478   5.344  10.090  10.159 -2.6883 -0.3613 -3.3863
   72MOL0     H 9479   5.272   9.973  10.275  1.6344  0.9933 -0.1117
   72MOL0     H 9480   5.222   9.822  10.090 -0.9921 -0.6457 -2.3210
   72MOL0     H 9481   5.346   9.898   9.990 -1.5586  1.0164 -1.8074
   72MOL0     H 9482   5.076  10.043  10.079  0.5132  1.9560 -1.2962
   72MOL0     H 9483   5.196  10.086   9.952 -0.1454 -1.4105 -2.4046
   72MOL0     H 9484   5.015   9.845   9.915 -1.5667  0.2706 -0.5862
   72MOL0     H 9485   5.167   9.868   9.828 -0.9390  1.0759 -0.6409
   72MOL0     H 9486   5.997  10.240  10.296  1.6579  2.2731  0.1022
   72MOL0     H 9487   6.215  10.299  10.281 -0.2610  1.8603 -1.5988
   72MOL0     H 9488   6.541  10.467  10.144  1.3718  1.8374 -0.0836
   72MOL0     H 9489   6.735  10.591  10.099 -0.3502 -0.5285 -0.2911
   72MOL0     H 9490   8.439  11.041  10.841 -1.0825  1.0626  2.4233
   72MOL0     H 9491   8.660  11.052  10.933 -0.7852  0.7459  0.8930
   72MOL0     H 9492   9.018  11.350  11.076  0.0829 -2.5746  1.3441
   72MOL0     H 9493   9.236  11.400  11.128  1.9969  0.9770 -1.7791
   72MOL0     H 9494   9.568  11.301  10.843  3.4131  0.7777 -0.5159
   72MOL0     H 9495   9.564  11.159  10.944 -0.0836 -0.1951 -0.1276
   72MOL0     H 9496   9.695  11.325  11.121 -2.4590 -2.0317 -0.2308
   72MOL0     H 9497   9.789  11.244  10.992  0.4399 -0.5797 -0.8950
   72MOL0     H 9498   9.700  11.541  11.018 -1.6913  1.3764 -3.3289
   72MOL0     H 9499   9.739  11.473  10.864  0.7789  0.7547  0.2671
   72MOL0     H 9500   9.908  11.572  11.084  1.4404  0.7981 -0.1362
   72MOL0     H 9501   9.947  11.405  11.066  3.8188  1.6420 -0.2047
   72MOL0     H 9502  10.078  11.601  10.701 -0.4473  3.4683  1.3645
   72MOL0     H 9503   9.386  11.121  10.839 -0.9119  2.5802 -5.1874
   72MOL0     H 9504   9.145  11.077  10.765 -3.4081  2.1188 -1.9785
   73MOL0     O 9505   7.514   6.649   4.259 -0.5749  0.3449  0.6636
   73MOL0     C 9506   7.515   6.766   4.214 -0.4245 -0.6420  0.4514
   73MOL0     O 9507   7.406   6.834   4.168 -0.0785  0.5372 -0.1962
   73MOL0     C 9508   7.281   6.803   4.216 -0.2578 -0.9484  0.0077
   73MOL0     C 9509   7.237   6.874   4.325  1.0121  0.4424 -0.7393
   73MOL0     C 9510   7.104   6.867   4.363 -0.2308  0.3299 -0.6679
   73MOL0     C 9511   7.016   6.776   4.304 -0.2882 -0.0076  0.1751
   73MOL0     O 9512   6.892   6.749   4.348  0.0947  1.4009 -0.1250
   73MOL0     C 9513   6.797   6.856   4.348  1.3882  0.3566 -0.4714
   73MOL0     C 9514   6.653   6.797   4.332 -0.1228 -0.0535 -0.5337
   73MOL0     C 9515   6.607   6.743   4.469 -0.0169 -0.7861 -0.3043
   73MOL0     C 9516   6.476   6.682   4.474  1.2216 -0.0178  1.1122
   73MOL0     C 9517   6.373   6.797   4.439 -0.8652 -0.2499  0.3062
   73MOL0     C 9518   6.227   6.757   4.453 -0.6866  1.3446  0.1606
   73MOL0     C 9519   6.116   6.862   4.429 -0.2815  0.6590  0.0650
   73MOL0     C 9520   5.978   6.799   4.402 -0.9899 -0.3814  0.3374
   73MOL0     N 9521   5.952   6.720   4.521 -0.4649  0.3495 -0.2489
   73MOL0     C 9522   5.919   6.588   4.523 -1.0752 -0.3962  0.4610
   73MOL0     C 9523   5.895   6.566   4.656 -0.5119 -0.4278 -0.4020
   73MOL0     C 9524   5.849   6.424   4.704 -0.6001  0.7465  0.3948
   73MOL0     C 9525   5.725   6.379   4.621  0.2699  0.1246 -0.2596
   73MOL0     C 9526   5.611   6.488   4.637 -0.3599 -0.9430  0.1359
   73MOL0     C 9527   5.477   6.428   4.619  0.2731  0.0797  0.7497
   73MOL0     O 9528   5.427   6.367   4.730  0.3634  0.1808 -0.9698
   73MOL0     C 9529   5.294   6.355   4.765 -0.0567  0.4784  1.9284
   73MOL0     C 9530   5.176   6.421   4.707 -0.3577  0.0137  0.2468
   73MOL0     C 9531   5.055   6.394   4.764 -0.1714  0.3866  0.3995
   73MOL0     C 9532   5.048   6.304   4.870 -0.0926 -0.0236  0.2206
   73MOL0     C 9533   4.919   6.276   4.927 -0.4126 -0.3198 -0.4768
   73MOL0     O 9534   4.803   6.307   4.849 -0.2746 -0.9659  0.3853
   73MOL0     C 9535   4.681   6.287   4.912  0.9138  0.5016  0.5367
   73MOL0     C 9536   4.602   6.400   4.950  0.0588  0.7103  0.6037
   73MOL0     C 9537   4.482   6.382   5.023 -0.3355 -0.0154 -0.0299
   73MOL0     C 9538   4.440   6.263   5.061  0.3851 -0.1568  0.0133
   73MOL0     O 9539   4.343   6.267   5.157  0.2669 -0.2378  0.2160
   73MOL0     C 9540   4.304   6.156   5.230 -0.6770  0.3884 -0.3428
   73MOL0     C 9541   4.386   6.114   5.347 -0.5943  0.3874 -0.1988
   73MOL0     C 9542   4.307   6.047   5.453 -0.5150  0.0374  0.5647
   73MOL0     C 9543   4.388   6.026   5.585 -0.0500  0.4137 -0.2434
   73MOL0     C 9544   4.280   5.968   5.676 -0.2132  0.0221 -0.3842
   73MOL0     C 9545   4.341   5.965   5.817  0.0261 -1.0219  0.9411
   73MOL0     C 9546   4.237   5.900   5.911  0.1432  1.0161  0.1512
   73MOL0     C 9547   4.249   5.937   6.052 -0.6360  0.5446 -0.1560
   73MOL0    Cl 9548   4.138   5.836   6.148  0.1151  0.0784  0.4469
   73MOL0     C 9549   4.511   6.146   5.023  0.0399 -0.3451 -0.0833
   73MOL0     C 9550   4.625   6.159   4.956 -0.3200  0.3929  0.1777
   73MOL0     O 9551   4.921   6.223   5.036  0.0692  0.4710 -0.4047
   73MOL0     C 9552   5.159   6.243   4.923 -0.2158  0.6858  0.4742
   73MOL0     C 9553   5.283   6.260   4.862 -0.1834 -0.2087  0.6574
   73MOL0     N 9554   5.904   6.679   4.727  0.0380  0.0748  0.3083
   73MOL0     N 9555   5.932   6.774   4.639 -0.1983 -0.6942 -0.0069
   73MOL0     C 9556   7.064   6.694   4.207  0.4177 -0.1037  1.1881
   73MOL0     C 9557   7.191   6.707   4.162 -1.1705 -0.5862 -0.9224
   73MOL0     C 9558   7.646   6.829   4.179 -0.1556 -0.5109  0.2806
   73MOL0     C 9559   7.767   6.760   4.179 -0.2142 -0.8998 -0.4908
   73MOL0     C 9560   7.885   6.814   4.137 -0.6480  0.0032  0.7902
   73MOL0     C 9561   7.889   6.951   4.110  0.5931 -0.8824 -0.7690
   73MOL0     O 9562   8.006   7.020   4.088 -0.3737  0.1817  1.0723
   73MOL0     C 9563   8.076   6.999   3.963 -0.0928 -0.7709  0.3760
   73MOL0     C 9564   8.160   7.116   3.920 -0.2667  0.2045 -0.4288
   73MOL0     C 9565   8.210   7.108   3.774 -0.3990 -0.0253 -0.6507
   73MOL0     C 9566   8.298   6.984   3.744  0.1056  0.2488 -0.2017
   73MOL0     C 9567   8.426   6.990   3.810 -0.1147 -0.3411 -1.6552
   73MOL0     C 9568   8.534   7.007   3.872  0.5446  0.1696  0.6708
   73MOL0     C 9569   7.778   7.032   4.122  0.1679  0.3500  0.6028
   73MOL0     C 9570   7.650   6.974   4.148 -0.3281 -0.6691 -0.6119
   73MOL0     H 9571   7.303   6.942   4.376 -0.0106  1.9186 -1.2959
   73MOL0     H 9572   7.074   6.935   4.441  1.1867  2.7465 -2.1129
   73MOL0     H 9573   6.809   6.912   4.255  2.1943 -0.6316 -0.9786
   73MOL0     H 9574   6.808   6.908   4.444 -1.9950 -1.1520  0.9058
   73MOL0     H 9575   6.649   6.717   4.257  2.4750  0.7798 -1.6881
   73MOL0     H 9576   6.582   6.871   4.294 -2.7181 -1.5940  1.0115
   73MOL0     H 9577   6.610   6.825   4.541  1.8378 -1.3517  0.3255
   73MOL0     H 9578   6.669   6.661   4.506  1.7151  0.6751  0.1563
   73MOL0     H 9579   6.466   6.601   4.401 -2.8852  2.4122 -1.4354
   73MOL0     H 9580   6.455   6.638   4.572 -2.1427  1.7147  1.3205
   73MOL0     H 9581   6.384   6.830   4.336  0.5755 -1.7051 -0.0405
   73MOL0     H 9582   6.390   6.879   4.510  1.2744  1.3352 -1.8656
   73MOL0     H 9583   6.216   6.722   4.556  0.2722  0.0984 -0.1410
   73MOL0     H 9584   6.214   6.673   4.384  0.7682  2.4851 -1.5823
   73MOL0     H 9585   6.116   6.925   4.518  3.1829  0.0491  0.6441
   73MOL0     H 9586   6.145   6.920   4.341 -1.0467  0.5148 -0.2924
   73MOL0     H 9587   5.995   6.741   4.310 -1.3090 -0.6509  0.4461
   73MOL0     H 9588   5.896   6.869   4.384  0.2494  0.7989 -1.0271
   73MOL0     H 9589   5.930   6.512   4.446  3.3178  1.4230 -1.0242
   73MOL0     H 9590   5.824   6.425   4.810 -3.1401 -0.6056 -0.1179
   73MOL0     H 9591   5.935   6.357   4.698 -0.2428  1.3155 -2.0421
   73MOL0     H 9592   5.689   6.288   4.670 -0.5940  0.5299 -0.1200
   73MOL0     H 9593   5.750   6.349   4.519 -0.2101  1.1245 -0.6888
   73MOL0     H 9594   5.612   6.537   4.735 -2.9528  1.2428 -0.8163
   73MOL0     H 9595   5.644   6.560   4.561  0.2195  1.1919  2.2984
   73MOL0     H 9596   5.484   6.353   4.540 -2.1731 -0.1086  0.6187
   73MOL0     H 9597   5.416   6.511   4.584 -1.2565 -2.5010 -3.4982
   73MOL0     H 9598   5.196   6.488   4.624  2.5213  2.8235  2.9179
   73MOL0     H 9599   4.968   6.451   4.736  1.1124  1.8313 -0.8668
   73MOL0     H 9600   4.617   6.501   4.913 -1.0738  1.9171  3.1974
   73MOL0     H 9601   4.428   6.470   5.058 -2.2432 -0.9662 -0.5196
   73MOL0     H 9602   4.276   6.065   5.177 -2.1558  0.5507  0.1176
   73MOL0     H 9603   4.215   6.197   5.278 -1.3372  0.3720 -1.5240
   73MOL0     H 9604   4.435   6.198   5.397  0.4128  0.7703 -1.7585
   73MOL0     H 9605   4.463   6.049   5.303  0.6095  2.9853 -2.1809
   73MOL0     H 9606   4.257   5.956   5.416 -2.4341  0.8924  0.9546
   73MOL0     H 9607   4.226   6.119   5.468 -0.6439  0.2780 -1.0399
   73MOL0     H 9608   4.471   5.956   5.574  0.9741  1.8684 -2.4704
   73MOL0     H 9609   4.432   6.120   5.620 -0.0766  0.1219  0.6160
   73MOL0     H 9610   4.241   5.874   5.634 -2.2283  0.6922 -0.1440
   73MOL0     H 9611   4.196   6.037   5.686 -0.5810 -0.7146  2.4906
   73MOL0     H 9612   4.372   6.064   5.852  1.2063 -1.9081  2.5504
   73MOL0     H 9613   4.437   5.913   5.817 -0.8241 -2.7585  3.6327
   73MOL0     H 9614   4.135   5.928   5.885 -0.9152 -2.9750 -0.5830
   73MOL0     H 9615   4.238   5.792   5.895  0.1805  1.2387 -1.4318
   73MOL0     H 9616   4.226   6.042   6.069  3.3931  1.0654  3.7565
   73MOL0     H 9617   4.347   5.920   6.096 -0.7723  3.2658  1.3524
   73MOL0     H 9618   4.501   6.048   5.069  3.8788 -0.7832  0.1533
   73MOL0     H 9619   4.693   6.075   4.951  0.0340  0.7245 -1.0061
   73MOL0     H 9620   5.156   6.157   4.989 -1.2195  0.1037 -0.2925
   73MOL0     H 9621   5.375   6.204   4.880  0.3078  0.6022  0.7449
   73MOL0     H 9622   6.995   6.634   4.149  1.6950  1.4794 -2.2654
   73MOL0     H 9623   7.231   6.649   4.079  0.8698 -0.1307 -0.3242
   73MOL0     H 9624   7.774   6.658   4.214  3.6013 -0.8513 -0.6879
   73MOL0     H 9625   7.975   6.754   4.136 -0.5150  0.1642 -1.2894
   73MOL0     H 9626   8.007   6.963   3.886 -1.7439  1.3250  0.8037
   73MOL0     H 9627   8.147   6.919   3.986 -0.0795 -0.4530  1.4943
   73MOL0     H 9628   8.104   7.206   3.944 -1.1407 -0.4042 -0.1186
   73MOL0     H 9629   8.248   7.115   3.985  2.5655  0.3485 -3.9199
   73MOL0     H 9630   8.269   7.194   3.741 -1.6841  1.0137 -0.3582
   73MOL0     H 9631   8.118   7.102   3.715 -0.1417  1.6092 -1.2792
   73MOL0     H 9632   8.251   6.892   3.781  0.2273  0.5764  0.7952
   73MOL0     H 9633   8.325   6.977   3.638  1.5355  1.7476  0.0190
   73MOL0     H 9634   8.625   7.017   3.927  2.4722  1.8099 -2.4667
   73MOL0     H 9635   7.790   7.136   4.095 -1.3504  0.5169  0.4972
   73MOL0     H 9636   7.564   7.039   4.152  1.5824  2.0339 -0.1181
   74MOL0     O 9637   9.057   6.742   3.352 -0.7288 -0.2339 -0.6439
   74MOL0     C 9638   9.088   6.854   3.317  0.7473 -0.4510 -0.0026
   74MOL0     O 9639   9.022   6.927   3.222  0.5306  0.1087  0.3653
   74MOL0     C 9640   8.896   6.896   3.173 -0.1934  0.5037 -0.4126
   74MOL0     C 9641   8.877   6.766   3.128 -0.2587  0.6430 -1.0489
   74MOL0     C 9642   8.752   6.730   3.067  1.2827  0.3815  0.1669
   74MOL0     C 9643   8.656   6.830   3.051  1.0700  1.2412 -0.2171
   74MOL0     O 9644   8.547   6.817   2.970  0.8302  0.1907  0.2753
   74MOL0     C 9645   8.563   6.752   2.844 -0.1145 -0.2711 -0.0282
   74MOL0     C 9646   8.533   6.863   2.740 -0.2253  0.3553 -1.1054
   74MOL0     C 9647   8.471   6.816   2.615 -0.8099 -0.3535  1.2167
   74MOL0     C 9648   8.330   6.762   2.636  0.8188  0.4048  0.4378
   74MOL0     C 9649   8.257   6.758   2.499  0.4900  0.7319 -0.1325
   74MOL0     C 9650   8.132   6.661   2.486  0.3831 -0.3136  0.2354
   74MOL0     C 9651   8.037   6.666   2.609  0.3247  0.8980 -0.7959
   74MOL0     C 9652   7.964   6.798   2.622  0.2761  0.5365  0.7459
   74MOL0     N 9653   7.828   6.782   2.691 -0.1491 -0.1723 -0.4525
   74MOL0     C 9654   7.710   6.730   2.642 -0.2127 -0.1592 -0.1368
   74MOL0     C 9655   7.616   6.751   2.737 -0.7421 -0.5220 -0.3254
   74MOL0     C 9656   7.466   6.714   2.731  0.0624  0.6430  0.4383
   74MOL0     C 9657   7.374   6.835   2.686  0.7588  0.4617  0.3471
   74MOL0     C 9658   7.299   6.897   2.799 -0.1126  0.0794 -1.2112
   74MOL0     C 9659   7.393   6.964   2.903  0.8776  0.0400 -0.6566
   74MOL0     O 9660   7.322   7.023   3.017 -0.0632 -0.0066 -0.7236
   74MOL0     C 9661   7.223   6.954   3.085  0.5303 -0.9121 -0.1332
   74MOL0     C 9662   7.259   6.872   3.195  0.2667  0.3248  0.6743
   74MOL0     C 9663   7.152   6.811   3.263 -0.3357  0.6767 -0.3259
   74MOL0     C 9664   7.018   6.845   3.235 -0.0224  0.0515 -0.0306
   74MOL0     C 9665   6.915   6.790   3.336  0.5680  0.2172  0.0967
   74MOL0     O 9666   6.790   6.822   3.311  0.9684 -0.2659 -0.0750
   74MOL0     C 9667   6.682   6.792   3.394  1.1607  0.4363 -1.1975
   74MOL0     C 9668   6.559   6.834   3.346 -0.3765  0.2307 -0.4953
   74MOL0     C 9669   6.434   6.802   3.413 -0.2747  1.0445 -0.3259
   74MOL0     C 9670   6.442   6.734   3.532  0.1362 -0.6134  0.1215
   74MOL0     O 9671   6.333   6.706   3.608  0.2251  0.3725  0.5467
   74MOL0     C 9672   6.202   6.747   3.560 -0.2366 -0.3383 -1.2936
   74MOL0     C 9673   6.097   6.682   3.657  0.2728 -0.1347 -0.4386
   74MOL0     C 9674   5.954   6.680   3.616  0.5753  0.6023  0.5620
   74MOL0     C 9675   5.933   6.596   3.480  0.0292  1.2608 -0.1257
   74MOL0     C 9676   5.786   6.540   3.481  0.0427  0.6824  0.4382
   74MOL0     C 9677   5.686   6.650   3.432 -0.3423 -0.3502 -0.4574
   74MOL0     C 9678   5.550   6.651   3.509 -0.0585  0.8993  0.7524
   74MOL0     C 9679   5.466   6.528   3.483  0.1186 -0.4952  0.3442
   74MOL0    Cl 9680   5.301   6.545   3.544  0.5143 -0.0267 -0.3516
   74MOL0     C 9681   6.562   6.690   3.585  1.6068  0.7894 -0.2697
   74MOL0     C 9682   6.682   6.721   3.522  0.0157 -0.7119 -0.2090
   74MOL0     O 9683   6.954   6.704   3.415 -0.7964 -0.5437 -0.4879
   74MOL0     C 9684   6.980   6.919   3.126 -0.3835  0.4971  0.0622
   74MOL0     C 9685   7.083   6.975   3.052  0.1395 -0.0124  0.1339
   74MOL0     N 9686   7.680   6.807   2.844 -0.1208  0.4428  0.4258
   74MOL0     N 9687   7.799   6.829   2.816 -0.4300 -0.4266 -0.6498
   74MOL0     C 9688   8.682   6.959   3.093 -0.5373  0.7398  0.1861
   74MOL0     C 9689   8.805   6.995   3.145 -0.8132 -0.3222 -1.1495
   74MOL0     C 9690   9.225   6.895   3.350  0.8322 -0.0592  0.5789
   74MOL0     C 9691   9.300   6.824   3.443  0.0533 -0.3181  0.8773
   74MOL0     C 9692   9.434   6.858   3.464 -0.5105  0.6997  1.2562
   74MOL0     C 9693   9.490   6.981   3.424  0.9027 -0.4696 -0.0345
   74MOL0     O 9694   9.616   7.010   3.434 -0.1588  0.1236  0.1902
   74MOL0     C 9695   9.720   6.908   3.419  0.1457 -0.8397  0.1969
   74MOL0     C 9696   9.848   6.988   3.392  1.1963  0.0101  0.1227
   74MOL0     C 9697   9.897   6.965   3.245  0.7815  0.5175  0.4808
   74MOL0     C 9698  10.033   7.043   3.216  0.2932  0.3866 -0.1980
   74MOL0     C 9699  10.076   7.028   3.073 -0.4644 -0.0197 -0.2713
   74MOL0     C 9700  10.138   7.012   2.972 -0.6093  0.7692 -0.3459
   74MOL0     C 9701   9.406   7.061   3.342  0.2506  0.3208 -0.9159
   74MOL0     C 9702   9.279   7.019   3.310  0.1718  0.1108  0.3383
   74MOL0     H 9703   8.961   6.698   3.141  1.8296  2.4964 -3.7448
   74MOL0     H 9704   8.749   6.628   3.031  0.5495  0.3119  0.3951
   74MOL0     H 9705   8.481   6.680   2.846 -0.7680  0.4749  0.2292
   74MOL0     H 9706   8.655   6.698   2.819  0.5355  0.7198  0.1896
   74MOL0     H 9707   8.634   6.906   2.734  2.3027 -4.5133  0.6718
   74MOL0     H 9708   8.470   6.942   2.781 -1.5448 -0.2569 -1.8922
   74MOL0     H 9709   8.528   6.728   2.581 -2.0358 -0.7480  0.1045
   74MOL0     H 9710   8.468   6.897   2.541 -1.5693 -1.5510 -0.1317
   74MOL0     H 9711   8.337   6.662   2.679 -0.0431 -1.3784 -3.1810
   74MOL0     H 9712   8.270   6.821   2.706  1.2268  0.6094  0.6186
   74MOL0     H 9713   8.327   6.711   2.429  0.7469 -0.5357  0.9327
   74MOL0     H 9714   8.227   6.859   2.469 -0.2756  0.2875 -0.9273
   74MOL0     H 9715   8.175   6.561   2.475 -0.3406 -0.4866 -1.1833
   74MOL0     H 9716   8.077   6.686   2.396 -0.8387 -0.8146  0.8206
   74MOL0     H 9717   7.967   6.585   2.583  1.6683 -0.5528 -0.0945
   74MOL0     H 9718   8.084   6.639   2.704 -0.0816  1.9002 -0.3004
   74MOL0     H 9719   7.937   6.843   2.525 -1.9313 -1.0314  0.5387
   74MOL0     H 9720   8.030   6.865   2.677  1.6670  0.1256 -0.3609
   74MOL0     H 9721   7.706   6.690   2.541  3.5654  2.3548 -1.5324
   74MOL0     H 9722   7.436   6.674   2.828  3.0101  0.1816  1.2697
   74MOL0     H 9723   7.458   6.631   2.660  0.1479  1.6527 -0.8019
   74MOL0     H 9724   7.308   6.792   2.610  0.8418  0.1065  0.4725
   74MOL0     H 9725   7.439   6.903   2.631  0.5813  0.2730 -0.1044
   74MOL0     H 9726   7.228   6.972   2.762 -3.1796 -0.7119  2.5028
   74MOL0     H 9727   7.229   6.826   2.843  1.5617 -1.7223 -1.3464
   74MOL0     H 9728   7.454   7.044   2.858 -0.6907  2.1996  0.8381
   74MOL0     H 9729   7.462   6.892   2.947 -0.7865  0.8593  3.7987
   74MOL0     H 9730   7.364   6.857   3.218  0.1448 -2.4840 -0.2315
   74MOL0     H 9731   7.179   6.749   3.348 -0.0929  3.2109  1.5545
   74MOL0     H 9732   6.557   6.882   3.248  0.0285 -0.9172 -1.0845
   74MOL0     H 9733   6.340   6.828   3.366 -0.5372  1.0085  0.1777
   74MOL0     H 9734   6.179   6.699   3.465 -1.8028 -1.0216 -0.6056
   74MOL0     H 9735   6.202   6.856   3.562 -1.2393 -0.3166 -1.8692
   74MOL0     H 9736   6.097   6.745   3.746  1.7083 -0.9441  0.1623
   74MOL0     H 9737   6.135   6.586   3.692 -1.4379  0.8941  5.2346
   74MOL0     H 9738   5.920   6.781   3.591  1.1260  1.0183  1.4630
   74MOL0     H 9739   5.887   6.646   3.696 -0.7214 -0.5815 -0.9542
   74MOL0     H 9740   5.954   6.649   3.387  0.6780  0.1388 -0.6404
   74MOL0     H 9741   5.994   6.506   3.484 -3.6250 -1.3953  2.7142
   74MOL0     H 9742   5.771   6.502   3.582  0.4504 -0.6356  0.0211
   74MOL0     H 9743   5.778   6.460   3.406  1.1571  1.9791 -1.1307
   74MOL0     H 9744   5.657   6.623   3.330 -2.7261  2.5567 -0.6664
   74MOL0     H 9745   5.731   6.750   3.427 -0.8154 -0.2057 -2.4798
   74MOL0     H 9746   5.556   6.668   3.617  0.5352 -0.4607  0.9484
   74MOL0     H 9747   5.495   6.738   3.470 -0.6128 -0.3369 -1.3851
   74MOL0     H 9748   5.519   6.457   3.548 -0.9079  0.9210  2.9050
   74MOL0     H 9749   5.462   6.517   3.375  3.6536  1.8170 -0.2122
   74MOL0     H 9750   6.549   6.629   3.675 -0.2177  0.1173 -0.9415
   74MOL0     H 9751   6.769   6.671   3.564 -1.0950 -1.8988  0.7432
   74MOL0     H 9752   6.874   6.937   3.109 -1.2771 -1.4967  2.8523
   74MOL0     H 9753   7.050   7.039   2.971 -6.1875 -1.9671  0.6288
   74MOL0     H 9754   8.602   7.029   3.070 -0.7926  0.3229 -0.2226
   74MOL0     H 9755   8.820   7.101   3.163 -0.2120 -0.6507  0.3808
   74MOL0     H 9756   9.260   6.737   3.494 -5.0623  0.6968 -0.8031
   74MOL0     H 9757   9.501   6.790   3.517 -1.7225 -0.9745  0.7066
   74MOL0     H 9758   9.693   6.865   3.322  0.7289  2.1847 -1.4299
   74MOL0     H 9759   9.723   6.831   3.496 -1.3839 -0.1151  1.0284
   74MOL0     H 9760   9.828   7.094   3.410 -1.4826 -0.4886  0.4747
   74MOL0     H 9761   9.927   6.956   3.460  1.1776  0.5627  0.4120
   74MOL0     H 9762   9.818   7.002   3.179 -0.4178 -0.9733  1.0239
   74MOL0     H 9763   9.903   6.857   3.234  1.7193  0.7106 -1.2266
   74MOL0     H 9764  10.029   7.151   3.236 -2.2238  0.5626 -1.3128
   74MOL0     H 9765  10.107   7.007   3.288  0.2168  1.8312  0.6516
   74MOL0     H 9766  10.198   6.978   2.891  0.9109  0.8155  0.7172
   74MOL0     H 9767   9.452   7.150   3.301  0.8250  0.3980 -0.1245
   74MOL0     H 9768   9.210   7.082   3.254  1.1504  1.5393  0.6956
   75MOL0     O 9769   8.704   9.795   7.549  0.4480  0.7515 -0.1225
   75MOL0     C 9770   8.748   9.733   7.454 -1.2043 -0.7695 -0.7680
   75MOL0     O 9771   8.689   9.628   7.392 -0.6807 -0.4267  0.4118
   75MOL0     C 9772   8.579   9.564   7.448 -0.8391  0.3812  0.4879
   75MOL0     C 9773   8.462   9.639   7.476  0.3255  0.2702 -0.1499
   75MOL0     C 9774   8.343   9.575   7.508 -0.2170 -0.1892 -0.5225
   75MOL0     C 9775   8.342   9.435   7.518 -0.0932 -1.1589 -0.1995
   75MOL0     O 9776   8.236   9.373   7.559  0.2774  0.6175 -0.3116
   75MOL0     C 9777   8.097   9.410   7.525  0.1492  0.7446  0.6483
   75MOL0     C 9778   8.019   9.314   7.612 -0.5114 -0.5226  0.0018
   75MOL0     C 9779   7.865   9.319   7.613 -0.5419 -0.3941 -1.1249
   75MOL0     C 9780   7.808   9.309   7.470  0.6277 -0.5435  0.5257
   75MOL0     C 9781   7.657   9.317   7.476  0.2490 -0.0049  0.3620
   75MOL0     C 9782   7.599   9.296   7.329 -0.0466  0.0630 -0.1683
   75MOL0     C 9783   7.447   9.303   7.319 -0.0355  0.5468  0.2219
   75MOL0     C 9784   7.371   9.217   7.428 -0.6807  0.3199  0.2370
   75MOL0     N 9785   7.232   9.189   7.383  0.0729 -0.0472 -1.0703
   75MOL0     C 9786   7.194   9.087   7.299 -0.3487  0.5289  0.0709
   75MOL0     C 9787   7.058   9.102   7.270 -0.1098 -0.0460 -0.4565
   75MOL0     C 9788   6.969   8.999   7.191 -0.5154 -0.1492  0.4440
   75MOL0     C 9789   6.843   9.060   7.141  0.6355 -0.1551  1.4377
   75MOL0     C 9790   6.754   8.943   7.088  0.2798  0.1934  0.7158
   75MOL0     C 9791   6.619   9.008   7.030  0.2180  0.8720 -0.0710
   75MOL0     O 9792   6.546   8.898   6.961  0.5502 -0.2054 -0.3967
   75MOL0     C 9793   6.434   8.914   6.885 -0.2613 -0.7947 -0.3502
   75MOL0     C 9794   6.322   8.986   6.928 -0.2890 -0.2728 -0.8913
   75MOL0     C 9795   6.198   8.972   6.866 -1.3039  0.6734 -0.4213
   75MOL0     C 9796   6.189   8.893   6.740  0.3667  0.1801 -0.5285
   75MOL0     C 9797   6.074   8.902   6.662 -0.3608 -0.8370  0.5478
   75MOL0     O 9798   6.038   8.789   6.598 -0.4852 -0.5875  1.0117
   75MOL0     C 9799   5.940   8.794   6.501 -0.5019 -0.3083  0.1700
   75MOL0     C 9800   5.973   8.825   6.369  0.1652  0.3382 -0.1445
   75MOL0     C 9801   5.869   8.831   6.276 -0.2698  0.0271  0.4590
   75MOL0     C 9802   5.735   8.815   6.304  0.3035  2.0144 -0.3909
   75MOL0     O 9803   5.637   8.804   6.206 -1.0743  0.5944  0.4218
   75MOL0     C 9804   5.619   8.917   6.131  0.2157  0.2367  0.7145
   75MOL0     C 9805   5.480   8.932   6.078  0.2131 -0.3145  0.0058
   75MOL0     C 9806   5.391   9.023   6.160 -0.3526  0.3902  0.8698
   75MOL0     C 9807   5.244   9.045   6.111  0.5760  0.4452 -0.3877
   75MOL0     C 9808   5.162   8.918   6.098  0.1000  0.1426  0.1477
   75MOL0     C 9809   5.017   8.936   6.085 -0.1029 -0.5349  0.4172
   75MOL0     C 9810   4.951   8.808   6.034  0.2475 -0.4599  0.5548
   75MOL0     C 9811   4.806   8.835   6.009 -0.5566 -1.0250 -1.0846
   75MOL0    Cl 9812   4.725   8.934   6.131  0.1912 -0.5263  0.4879
   75MOL0     C 9813   5.700   8.801   6.441  0.3144 -0.6355 -0.4813
   75MOL0     C 9814   5.807   8.795   6.533  0.5518  0.1468 -0.3622
   75MOL0     O 9815   6.016   9.012   6.665  0.5133  0.3278 -0.1670
   75MOL0     C 9816   6.298   8.805   6.706  0.4111  0.4478 -0.7387
   75MOL0     C 9817   6.418   8.819   6.781  0.9127  0.3865  0.1831
   75MOL0     N 9818   7.018   9.206   7.350  0.6144  0.2180 -0.6504
   75MOL0     N 9819   7.118   9.255   7.415  0.1333 -0.0252  0.4684
   75MOL0     C 9820   8.458   9.363   7.492  0.8617  0.5081 -0.0517
   75MOL0     C 9821   8.573   9.420   7.466 -0.4338 -1.0753 -0.5649
   75MOL0     C 9822   8.882   9.767   7.395 -0.4039  0.3111  0.1890
   75MOL0     C 9823   8.938   9.695   7.291 -0.6048  1.0656  0.9870
   75MOL0     C 9824   9.060   9.724   7.237 -0.9602  0.1821  0.5134
   75MOL0     C 9825   9.123   9.838   7.279 -0.3208 -0.7162 -0.6748
   75MOL0     O 9826   9.243   9.878   7.225  0.2277 -1.2407 -0.2837
   75MOL0     C 9827   9.248   9.973   7.126  0.1078 -0.9511  0.2286
   75MOL0     C 9828   9.246   9.918   6.981  0.4829 -0.2797 -0.0713
   75MOL0     C 9829   9.385   9.907   6.938 -0.8505  0.3864 -0.7060
   75MOL0     C 9830   9.398   9.891   6.785  0.8240  0.2983  0.2444
   75MOL0     C 9831   9.525   9.938   6.742 -0.6045  0.6170  0.7100
   75MOL0     C 9832   9.622  10.003   6.709  0.2180 -0.3409 -0.1405
   75MOL0     C 9833   9.067   9.918   7.385  0.4173  0.4339 -0.5378
   75MOL0     C 9834   8.950   9.884   7.446 -0.0054  0.1460 -0.3655
   75MOL0     H 9835   8.468   9.746   7.462  1.0952 -0.0956 -3.4926
   75MOL0     H 9836   8.255   9.639   7.516  1.4766  2.0256  1.9872
   75MOL0     H 9837   8.067   9.396   7.420 -0.2704  3.4441  0.3477
   75MOL0     H 9838   8.088   9.517   7.547 -2.3891  1.0073 -1.2438
   75MOL0     H 9839   8.042   9.331   7.717 -2.1423 -0.4972  0.3828
   75MOL0     H 9840   8.056   9.212   7.595  0.7629  0.0960 -1.0296
   75MOL0     H 9841   7.848   9.423   7.641 -1.9179 -0.8479 -0.2133
   75MOL0     H 9842   7.829   9.246   7.686  2.1564  0.5238  1.3362
   75MOL0     H 9843   7.856   9.381   7.402  2.3919 -0.4414  1.8000
   75MOL0     H 9844   7.831   9.207   7.439 -1.7974 -1.1660  0.5542
   75MOL0     H 9845   7.634   9.419   7.507  0.0730  0.3375 -0.8340
   75MOL0     H 9846   7.614   9.250   7.551 -1.2829  2.7602  2.1109
   75MOL0     H 9847   7.634   9.199   7.292  0.3261 -0.2911  1.0561
   75MOL0     H 9848   7.638   9.376   7.266  1.0381  1.2356  1.8883
   75MOL0     H 9849   7.421   9.408   7.329 -2.6499 -0.1536  1.7383
   75MOL0     H 9850   7.411   9.260   7.224 -0.7016  2.1336 -0.2721
   75MOL0     H 9851   7.362   9.268   7.525  1.2265 -0.9272  1.1294
   75MOL0     H 9852   7.411   9.118   7.451  0.4915 -0.1496 -3.2974
   75MOL0     H 9853   7.261   9.012   7.260  1.1441  0.0842  3.1924
   75MOL0     H 9854   6.949   8.921   7.265  1.3171  0.6348  1.8526
   75MOL0     H 9855   7.018   8.951   7.106  1.9630  1.0367  1.1157
   75MOL0     H 9856   6.860   9.129   7.058 -0.5448 -3.1221 -1.5311
   75MOL0     H 9857   6.782   9.109   7.217 -0.9680  1.0537 -0.5114
   75MOL0     H 9858   6.808   8.889   7.009  2.2066  2.4939  0.3461
   75MOL0     H 9859   6.740   8.876   7.173  1.4223 -2.0696 -0.7675
   75MOL0     H 9860   6.651   9.086   6.960  0.1757  1.4894  0.5848
   75MOL0     H 9861   6.569   9.049   7.118  0.1374  2.7416 -0.9390
   75MOL0     H 9862   6.333   9.045   7.019 -1.1376 -1.3069 -0.0980
   75MOL0     H 9863   6.111   9.024   6.904 -1.3932 -0.8309  1.5899
   75MOL0     H 9864   6.074   8.855   6.343  0.1909  0.1719 -0.2379
   75MOL0     H 9865   5.885   8.861   6.173  1.9551  0.4207  0.8716
   75MOL0     H 9866   5.681   8.922   6.041 -1.7442 -3.7655 -1.1330
   75MOL0     H 9867   5.642   9.007   6.189  3.5826  0.6273 -0.9727
   75MOL0     H 9868   5.424   8.839   6.065 -2.6203  1.5137 -1.9604
   75MOL0     H 9869   5.489   8.980   5.981 -0.1679  1.3402  0.7544
   75MOL0     H 9870   5.435   9.123   6.160  0.4203  0.0689 -0.5692
   75MOL0     H 9871   5.389   8.999   6.267 -1.3197  1.8440  1.2194
   75MOL0     H 9872   5.195   9.101   6.191 -0.5182 -2.1413  0.8769
   75MOL0     H 9873   5.258   9.105   6.021 -0.6113 -0.6896 -1.3754
   75MOL0     H 9874   5.185   8.859   6.187  0.0056 -0.1781 -0.0370
   75MOL0     H 9875   5.190   8.854   6.013  0.2074  0.9337 -0.4267
   75MOL0     H 9876   5.000   9.015   6.012  4.0473  0.5418  0.3441
   75MOL0     H 9877   4.964   8.960   6.178 -1.0608 -0.0941 -0.2263
   75MOL0     H 9878   4.999   8.770   5.943 -0.5464  0.7392 -0.3813
   75MOL0     H 9879   4.963   8.729   6.109  0.5271 -2.3007 -1.3358
   75MOL0     H 9880   4.745   8.745   6.007 -0.6002 -1.0378 -0.0216
   75MOL0     H 9881   4.789   8.883   5.912 -0.5262  0.0017 -0.5985
   75MOL0     H 9882   5.598   8.796   6.477  0.5108 -0.1455  0.1581
   75MOL0     H 9883   5.780   8.791   6.638 -1.0299 -0.3989 -0.7629
   75MOL0     H 9884   6.302   8.739   6.620  1.5184 -2.2676  1.2524
   75MOL0     H 9885   6.514   8.773   6.758  0.0452 -0.8335 -1.2129
   75MOL0     H 9886   8.446   9.255   7.495 -2.1024  0.4908 -4.1198
   75MOL0     H 9887   8.668   9.367   7.458  1.0605  1.0995  1.3599
   75MOL0     H 9888   8.895   9.603   7.252  3.1529  0.0185 -1.1822
   75MOL0     H 9889   9.108   9.669   7.156 -0.0591 -0.2059  1.2967
   75MOL0     H 9890   9.338  10.033   7.142 -0.4999  0.0535 -0.0142
   75MOL0     H 9891   9.172  10.051   7.124  2.4623  1.5395 -3.1980
   75MOL0     H 9892   9.184   9.828   6.976 -2.5354  1.6922 -0.9425
   75MOL0     H 9893   9.200   9.995   6.918 -1.5410 -1.5564 -0.2472
   75MOL0     H 9894   9.429   9.832   7.004  1.3429  1.8627 -0.3869
   75MOL0     H 9895   9.439  10.000   6.960  0.6195 -0.1244 -2.0453
   75MOL0     H 9896   9.381   9.789   6.749 -3.0256  0.5674  0.8875
   75MOL0     H 9897   9.316   9.949   6.741 -0.4009 -1.8324 -0.4469
   75MOL0     H 9898   9.694  10.063   6.657 -1.3715  0.6784 -1.2636
   75MOL0     H 9899   9.110  10.014   7.413 -1.6867  1.9965 -2.3459
   75MOL0     H 9900   8.912   9.928   7.538  0.6432 -0.1420  0.0475
   76MOL0     O 9901   9.178   6.995   4.510  0.0120 -0.0640 -0.0173
   76MOL0     C 9902   9.222   6.881   4.472 -0.4186 -0.0610  0.2753
   76MOL0     O 9903   9.160   6.785   4.394  0.3514  0.0143  0.2870
   76MOL0     C 9904   9.024   6.809   4.363  0.6969 -0.3173  0.3781
   76MOL0     C 9905   8.937   6.701   4.375  0.4810 -0.2240  0.3162
   76MOL0     C 9906   8.804   6.716   4.332 -0.7693 -0.6592 -0.1555
   76MOL0     C 9907   8.751   6.843   4.306 -0.4224 -0.4901 -0.1197
   76MOL0     O 9908   8.617   6.838   4.288 -0.8370 -0.7460 -0.1822
   76MOL0     C 9909   8.534   6.958   4.281  0.4567 -0.4177  0.5665
   76MOL0     C 9910   8.393   6.921   4.302 -0.3400 -0.3497  0.0832
   76MOL0     C 9911   8.392   6.866   4.445 -0.0779  0.2459 -0.0918
   76MOL0     C 9912   8.249   6.871   4.504  0.3446 -0.7365  0.0214
   76MOL0     C 9913   8.219   7.008   4.556 -0.2642 -1.0378 -0.1307
   76MOL0     C 9914   8.283   7.058   4.688 -0.5821 -0.6111  0.5977
   76MOL0     C 9915   8.258   7.212   4.717  0.6292  0.8434 -0.4350
   76MOL0     C 9916   8.347   7.269   4.841  0.7974  0.9633 -0.0234
   76MOL0     N 9917   8.269   7.286   4.962 -0.4923 -0.1041  1.3938
   76MOL0     C 9918   8.209   7.182   5.022  0.0245 -0.2593 -0.1510
   76MOL0     C 9919   8.160   7.232   5.132  0.2500  0.3001 -0.1145
   76MOL0     C 9920   8.127   7.141   5.248 -0.9310  0.4193  0.3220
   76MOL0     C 9921   7.992   7.061   5.221  0.1454  0.3779 -0.0526
   76MOL0     C 9922   7.956   6.969   5.336 -0.0729  0.0413  0.2671
   76MOL0     C 9923   7.821   6.900   5.316  0.6111  0.0025 -0.4137
   76MOL0     O 9924   7.707   6.981   5.327 -0.0729 -0.3076  0.1993
   76MOL0     C 9925   7.587   6.920   5.346  0.5829  0.2069  0.2393
   76MOL0     C 9926   7.539   6.799   5.280 -0.2421 -0.0993  0.8142
   76MOL0     C 9927   7.416   6.745   5.310  0.5247 -0.4169  0.4969
   76MOL0     C 9928   7.322   6.812   5.394 -0.3250 -0.4383 -0.8589
   76MOL0     C 9929   7.191   6.760   5.418  0.0868  1.4477  1.2440
   76MOL0     O 9930   7.117   6.818   5.513 -0.0525  0.4691  0.3224
   76MOL0     C 9931   6.982   6.785   5.520 -0.2868  0.6697 -0.2526
   76MOL0     C 9932   6.926   6.673   5.593  0.0624 -0.4109  0.7770
   76MOL0     C 9933   6.787   6.644   5.578  0.0331 -0.1306  0.3511
   76MOL0     C 9934   6.702   6.727   5.501  0.7007  0.6749 -0.0386
   76MOL0     O 9935   6.562   6.697   5.493  0.1502 -0.6273 -0.1586
   76MOL0     C 9936   6.514   6.703   5.358  0.1678  0.4919  0.1314
   76MOL0     C 9937   6.405   6.609   5.363 -0.2430  0.0950  0.7161
   76MOL0     C 9938   6.456   6.463   5.370  0.2700  0.2370 -0.4703
   76MOL0     C 9939   6.374   6.368   5.453  0.4889  0.9619  0.1497
   76MOL0     C 9940   6.440   6.227   5.462 -0.8225 -0.1177  0.6505
   76MOL0     C 9941   6.336   6.131   5.509  0.4082  0.0109  0.2676
   76MOL0     C 9942   6.393   5.986   5.502  0.4288 -0.2592  0.6509
   76MOL0     C 9943   6.310   5.866   5.544 -0.2763  0.6691  0.2420
   76MOL0    Cl 9944   6.414   5.718   5.565 -0.3954  0.2811 -0.3991
   76MOL0     C 9945   6.759   6.837   5.433 -0.4702  1.2596  1.7085
   76MOL0     C 9946   6.896   6.861   5.442 -0.2390 -0.0230 -0.0384
   76MOL0     O 9947   7.153   6.667   5.347  0.0459  0.4093  0.2810
   76MOL0     C 9948   7.362   6.931   5.450  0.0529  0.3802 -0.7061
   76MOL0     C 9949   7.491   6.987   5.423 -0.9102  0.4729 -0.3785
   76MOL0     N 9950   8.166   7.370   5.135 -0.0819  0.6949  0.3307
   76MOL0     N 9951   8.229   7.403   5.025 -0.9328  0.5215  0.5501
   76MOL0     C 9952   8.839   6.950   4.299  0.3064  0.0911 -0.1605
   76MOL0     C 9953   8.972   6.928   4.313  0.1789  0.3804  0.3327
   76MOL0     C 9954   9.362   6.861   4.514  0.8433 -0.4423 -1.0025
   76MOL0     C 9955   9.416   6.931   4.624 -0.1095 -0.0856 -0.8780
   76MOL0     C 9956   9.549   6.908   4.667  0.9289 -0.5146 -0.1186
   76MOL0     C 9957   9.628   6.813   4.604 -0.3237 -0.4663 -0.2650
   76MOL0     O 9958   9.746   6.771   4.653 -0.0969  0.1638 -0.2687
   76MOL0     C 9959   9.746   6.670   4.747 -0.7107 -0.4658  0.0740
   76MOL0     C 9960   9.727   6.528   4.693  1.1420  0.1735  0.0931
   76MOL0     C 9961   9.735   6.429   4.807 -0.3447 -0.1137 -0.0336
   76MOL0     C 9962   9.703   6.282   4.763  0.1144 -0.5511  0.4626
   76MOL0     C 9963   9.551   6.261   4.750 -0.1779  0.0604 -0.5409
   76MOL0     C 9964   9.433   6.249   4.756  0.0749 -0.5942 -0.2148
   76MOL0     C 9965   9.576   6.760   4.492 -0.4965 -0.5143 -0.3774
   76MOL0     C 9966   9.443   6.775   4.445 -0.4927 -0.0953  0.3972
   76MOL0     H 9967   8.975   6.602   4.398  6.1240  1.6179  0.5398
   76MOL0     H 9968   8.736   6.631   4.332 -0.8789 -0.6648 -2.7313
   76MOL0     H 9969   8.536   6.998   4.179 -1.2268 -1.9444 -0.1202
   76MOL0     H 9970   8.545   7.040   4.353 -4.1600 -0.3047  1.4520
   76MOL0     H 9971   8.358   6.861   4.218 -1.3579 -0.2949  0.4471
   76MOL0     H 9972   8.341   7.017   4.300  0.2225  0.0121  1.4895
   76MOL0     H 9973   8.475   6.905   4.505  0.9321 -0.6968 -0.8444
   76MOL0     H 9974   8.407   6.759   4.431 -2.5624 -0.0033 -1.2055
   76MOL0     H 9975   8.167   6.857   4.433  0.2904 -2.0104  0.2974
   76MOL0     H 9976   8.244   6.798   4.586 -0.7856 -0.7433 -0.0405
   76MOL0     H 9977   8.110   7.004   4.566 -0.3052 -2.4752 -0.9734
   76MOL0     H 9978   8.233   7.089   4.484 -0.2210  0.9734  2.0264
   76MOL0     H 9979   8.389   7.035   4.673 -0.4885  0.7354 -1.0668
   76MOL0     H 9980   8.232   7.006   4.769 -1.0983 -1.8465 -0.5019
   76MOL0     H 9981   8.282   7.269   4.626  0.5633 -0.1103 -1.0571
   76MOL0     H 9982   8.152   7.233   4.734 -0.5040 -2.2635 -2.7135
   76MOL0     H 9983   8.403   7.357   4.809  1.2781  0.0102 -1.9741
   76MOL0     H 9984   8.423   7.197   4.874  0.7116  2.0027  2.6892
   76MOL0     H 9985   8.217   7.075   5.007  4.1189 -0.4872  2.0243
   76MOL0     H 9986   8.127   7.202   5.339 -2.5724 -0.0222  0.6620
   76MOL0     H 9987   8.211   7.071   5.249  0.5624  2.0845 -1.2852
   76MOL0     H 9988   8.003   6.990   5.138 -2.1839 -1.2857  0.9722
   76MOL0     H 9989   7.910   7.133   5.213  0.8212  1.2547  0.7432
   76MOL0     H 9990   8.034   6.893   5.329 -1.0721 -1.1486  1.4247
   76MOL0     H 9991   7.950   7.020   5.433 -2.9194  1.5869 -0.5866
   76MOL0     H 9992   7.823   6.818   5.388  5.2980 -0.3038 -0.5840
   76MOL0     H 9993   7.817   6.851   5.219 -2.5623 -1.2315  0.2003
   76MOL0     H 9994   7.606   6.745   5.213 -0.1453  0.1566  0.7019
   76MOL0     H 9995   7.370   6.673   5.244 -2.2984  1.0765  0.6531
   76MOL0     H 9996   6.993   6.617   5.658  1.6732  0.2504 -0.2422
   76MOL0     H 9997   6.753   6.553   5.624 -1.6948 -0.0964 -0.7601
   76MOL0     H 9998   6.597   6.659   5.302  0.6976 -2.0178  2.6405
   76MOL0     H 9999   6.485   6.803   5.324 -2.3355  0.6023  2.2456
   76MOL0     H10000   6.343   6.623   5.274 -1.6872 -3.2193  1.0431
   76MOL0     H10001   6.345   6.641   5.448 -1.9255  2.8023 -1.3320
   76MOL0     H10002   6.558   6.467   5.409 -0.1633  0.6643  0.6626
   76MOL0     H10003   6.469   6.429   5.267  1.3303  2.0864 -0.9842
   76MOL0     H10004   6.359   6.405   5.555  0.7910 -0.6296  0.8159
   76MOL0     H10005   6.279   6.354   5.401  0.1433  1.1545  0.7187
   76MOL0     H10006   6.517   6.219   5.539 -0.8425 -1.1976  0.5717
   76MOL0     H10007   6.478   6.201   5.362 -2.9489 -2.0617  0.2707
   76MOL0     H10008   6.246   6.142   5.448 -0.6848  2.2137  2.1214
   76MOL0     H10009   6.304   6.156   5.610  0.5876  0.5119  0.2041
   76MOL0     H10010   6.428   5.976   5.399 -0.0506  0.7926  0.3658
   76MOL0     H10011   6.486   5.982   5.560  1.5044  0.0450 -1.0016
   76MOL0     H10012   6.231   5.836   5.474 -2.7921 -1.1699  3.5640
   76MOL0     H10013   6.263   5.894   5.639  0.6463 -2.0709  1.6016
   76MOL0     H10014   6.696   6.904   5.377 -0.8170  1.0514  1.8486
   76MOL0     H10015   6.937   6.945   5.387 -0.7585  0.6962  0.6326
   76MOL0     H10016   7.293   6.993   5.506  0.7793  2.3980 -1.9299
   76MOL0     H10017   7.536   7.077   5.463  2.3265 -0.2791 -2.0316
   76MOL0     H10018   8.795   7.047   4.282 -1.0280 -0.6172 -0.8967
   76MOL0     H10019   9.043   7.006   4.288 -2.0446  2.6176  0.6238
   76MOL0     H10020   9.350   6.994   4.683 -0.7947 -0.0432 -1.6714
   76MOL0     H10021   9.594   6.967   4.746 -0.6914 -0.7960  1.0810
   76MOL0     H10022   9.672   6.698   4.823 -1.3457 -1.4878 -0.1521
   76MOL0     H10023   9.844   6.670   4.795 -1.3128 -1.4636  1.3561
   76MOL0     H10024   9.632   6.522   4.641  0.5711  0.6977  1.0440
   76MOL0     H10025   9.806   6.508   4.620  1.4037  1.3333  0.0342
   76MOL0     H10026   9.670   6.448   4.893 -0.2390 -2.2273  0.5620
   76MOL0     H10027   9.840   6.425   4.837 -0.6077  0.2321  0.9640
   76MOL0     H10028   9.748   6.254   4.668  1.1014 -1.0235  1.0578
   76MOL0     H10029   9.748   6.213   4.835  0.3178 -0.2893  0.5855
   76MOL0     H10030   9.326   6.238   4.751 -0.0067  0.3916 -1.0679
   76MOL0     H10031   9.636   6.687   4.440  0.7805  0.6896 -0.6276
   76MOL0     H10032   9.402   6.717   4.363 -0.4977  0.1598  0.2163
   77MOL0     O10033   3.545   3.098   6.075  0.0194 -0.6388  0.1465
   77MOL0     C10034   3.512   3.208   6.115 -0.8098 -0.3480  0.6410
   77MOL0     O10035   3.382   3.244   6.162 -0.3317  0.1676  0.0130
   77MOL0     C10036   3.269   3.224   6.091  1.2869  0.4924  0.9245
   77MOL0     C10037   3.261   3.160   5.966 -0.1804  0.7409  0.1885
   77MOL0     C10038   3.138   3.143   5.910  0.3149 -0.5205 -0.0440
   77MOL0     C10039   3.020   3.189   5.969  0.0924  0.7934  0.1875
   77MOL0     O10040   2.905   3.165   5.892 -0.1542  0.5751 -0.1747
   77MOL0     C10041   2.780   3.203   5.937 -0.0789  0.2943  0.2388
   77MOL0     C10042   2.681   3.146   5.842  0.4045  0.4024 -1.0726
   77MOL0     C10043   2.546   3.143   5.916 -0.0641 -0.1908  0.8614
   77MOL0     C10044   2.438   3.090   5.828  0.4685  0.0471  0.0061
   77MOL0     C10045   2.312   3.060   5.902  0.5332 -0.3079 -0.2249
   77MOL0     C10046   2.241   3.190   5.951  0.3481  0.1596 -0.1419
   77MOL0     C10047   2.087   3.178   5.951 -0.0756  0.5790  0.0718
   77MOL0     C10048   2.019   3.207   5.812 -0.7906 -0.0179 -0.1032
   77MOL0     N10049   1.877   3.166   5.825  0.5357 -0.1071 -0.4507
   77MOL0     C10050   1.779   3.235   5.890  0.9516 -0.2541  0.5853
   77MOL0     C10051   1.665   3.156   5.887  0.1557  0.1312  0.2552
   77MOL0     C10052   1.534   3.192   5.957 -0.5718  0.0208 -0.2775
   77MOL0     C10053   1.405   3.113   5.921 -0.1530 -0.1051 -0.9682
   77MOL0     C10054   1.350   3.143   5.785  0.5271  0.5505  0.2207
   77MOL0     C10055   1.239   3.034   5.759  0.4583 -0.4345 -0.4072
   77MOL0     O10056   1.117   3.070   5.828 -0.1979 -0.4210  0.2281
   77MOL0     C10057   1.004   3.036   5.765 -0.2967 -0.0546  1.1749
   77MOL0     C10058   0.958   2.902   5.758 -0.9634  0.4851  0.0030
   77MOL0     C10059   0.831   2.879   5.698  1.6045 -0.1556  0.9704
   77MOL0     C10060   0.745   2.979   5.639 -0.9966 -0.8010  0.4971
   77MOL0     C10061   0.619   2.961   5.575 -0.1530  0.2161 -0.3957
   77MOL0     O10062   0.571   3.070   5.508  0.1496  0.6248  0.3667
   77MOL0     C10063   0.441   3.060   5.470  1.0643  0.1061  0.9873
   77MOL0     C10064   0.336   3.051   5.553 -0.0592 -1.2312 -0.7762
   77MOL0     C10065   0.207   3.034   5.502  0.5838  0.2924 -0.4773
   77MOL0     C10066   0.186   3.023   5.363  0.5739 -0.8014  0.9039
   77MOL0     O10067   0.066   3.004   5.293  0.4561  0.0714 -0.4424
   77MOL0     C10068  -0.052   2.960   5.360  0.7357  0.1975 -0.3549
   77MOL0     C10069  -0.135   2.894   5.243  0.4278  0.5646  0.0865
   77MOL0     C10070  -0.289   2.897   5.268 -0.7784 -0.5100 -0.5172
   77MOL0     C10071  -0.350   3.036   5.267 -0.4889  0.0457  0.2322
   77MOL0     C10072  -0.497   3.020   5.313 -0.0399 -0.6540 -0.0541
   77MOL0     C10073  -0.580   3.012   5.185 -0.1168  0.0123  0.2643
   77MOL0     C10074  -0.730   3.053   5.206  0.5496  0.5990  0.0126
   77MOL0     C10075  -0.823   3.007   5.090  0.1025 -0.1912  0.4245
   77MOL0    Cl10076  -0.919   2.859   5.121  0.1512 -0.6385 -0.2320
   77MOL0     C10077   0.300   3.037   5.280  0.9537  1.1738  0.5467
   77MOL0     C10078   0.424   3.064   5.335  0.7800  0.0916  0.7407
   77MOL0     O10079   0.566   2.851   5.593  0.1319  0.3768  0.4027
   77MOL0     C10080   0.789   3.112   5.647  0.2541 -0.3537 -0.1570
   77MOL0     C10081   0.918   3.135   5.706  0.0868 -0.2738  0.3478
   77MOL0     N10082   1.691   3.057   5.796 -0.1432  1.1955  0.1341
   77MOL0     N10083   1.811   3.056   5.769 -0.7165 -0.5060  0.1116
   77MOL0     C10084   3.023   3.238   6.094 -1.5320 -0.0612 -0.4073
   77MOL0     C10085   3.148   3.263   6.152  1.2502 -0.4553 -0.0276
   77MOL0     C10086   3.628   3.296   6.156  0.7493  0.0405  0.7566
   77MOL0     C10087   3.594   3.424   6.212  0.1476 -0.5264 -0.9031
   77MOL0     C10088   3.700   3.508   6.262  0.0730  0.7262 -0.0919
   77MOL0     C10089   3.833   3.468   6.254 -1.2442 -0.2174  0.4783
   77MOL0     O10090   3.939   3.542   6.302 -0.3855  0.2133  0.2868
   77MOL0     C10091   3.904   3.642   6.397 -0.4203  0.7792  1.4465
   77MOL0     C10092   4.040   3.714   6.424 -0.4510 -0.1989 -0.5834
   77MOL0     C10093   4.148   3.643   6.495 -0.4372  0.8594  0.4910
   77MOL0     C10094   4.198   3.710   6.621 -0.4570 -0.1739  0.2158
   77MOL0     C10095   4.097   3.748   6.709  0.1725  0.6491 -0.1662
   77MOL0     C10096   4.013   3.773   6.793  0.3020  0.5790  0.0905
   77MOL0     C10097   3.865   3.345   6.192 -0.6773  0.6676  0.2962
   77MOL0     C10098   3.766   3.260   6.140 -0.0964  0.1903 -0.3652
   77MOL0     H10099   3.353   3.127   5.919 -0.5228 -2.6186  1.5233
   77MOL0     H10100   3.144   3.097   5.811  0.0661 -1.4785  0.3743
   77MOL0     H10101   2.768   3.312   5.941 -0.7805  0.4373 -3.2102
   77MOL0     H10102   2.766   3.160   6.037  0.8929  1.0627  0.7126
   77MOL0     H10103   2.707   3.049   5.799  1.2219  1.0531 -2.0753
   77MOL0     H10104   2.674   3.214   5.757  2.1721  3.5056  1.0421
   77MOL0     H10105   2.508   3.239   5.954 -1.9764 -0.4269 -0.3268
   77MOL0     H10106   2.566   3.075   6.000 -0.2816 -1.4239 -0.0643
   77MOL0     H10107   2.421   3.173   5.760  2.1184 -0.1664 -0.7283
   77MOL0     H10108   2.484   3.004   5.778  0.0598 -0.0938 -0.1325
   77MOL0     H10109   2.331   2.990   5.983 -3.6745 -2.6590 -0.9648
   77MOL0     H10110   2.245   3.000   5.840  3.1042 -0.8246 -2.7277
   77MOL0     H10111   2.273   3.272   5.887  2.8514  0.9614  1.9622
   77MOL0     H10112   2.274   3.209   6.054  2.2422 -0.0556 -0.6641
   77MOL0     H10113   2.059   3.079   5.988  1.1112 -0.4004 -1.5297
   77MOL0     H10114   2.050   3.252   6.022 -2.9384 -0.1015 -0.5719
   77MOL0     H10115   2.072   3.150   5.735  1.8296  1.0302  0.8071
   77MOL0     H10116   2.021   3.314   5.788 -1.1448 -0.4085 -2.0167
   77MOL0     H10117   1.800   3.326   5.945 -1.9873 -0.2253  1.7987
   77MOL0     H10118   1.523   3.297   5.930  0.2653  0.6009  1.4696
   77MOL0     H10119   1.570   3.184   6.060  2.3575  1.0394 -1.1356
   77MOL0     H10120   1.328   3.154   5.987  0.8317 -0.8472  0.7012
   77MOL0     H10121   1.418   3.008   5.946  0.5945  0.2221  0.1214
   77MOL0     H10122   1.303   3.241   5.770 -0.3719  0.1543  0.4053
   77MOL0     H10123   1.436   3.140   5.717 -0.6725  2.7515 -1.5579
   77MOL0     H10124   1.277   2.934   5.782 -0.7245 -0.9194 -0.4775
   77MOL0     H10125   1.212   3.044   5.654  1.7314  0.1596 -0.7010
   77MOL0     H10126   1.011   2.818   5.804 -0.6024  0.2331 -0.8566
   77MOL0     H10127   0.794   2.777   5.689 -0.9720  0.7256  0.8825
   77MOL0     H10128   0.353   3.044   5.660  0.5343  1.9572 -0.5474
   77MOL0     H10129   0.127   3.024   5.575 -0.8900  0.7820 -1.9685
   77MOL0     H10130  -0.109   3.036   5.414 -1.4449 -3.2448  2.6361
   77MOL0     H10131  -0.042   2.875   5.427 -3.9518 -0.9652 -0.7833
   77MOL0     H10132  -0.114   2.789   5.221  3.8186  1.2571 -0.6013
   77MOL0     H10133  -0.119   2.951   5.151  0.6863 -2.3764 -1.8089
   77MOL0     H10134  -0.305   2.843   5.362  1.2225 -2.2864 -1.1140
   77MOL0     H10135  -0.334   2.840   5.187 -0.0352 -3.3281  0.9262
   77MOL0     H10136  -0.300   3.096   5.344  2.8982 -0.2819 -1.5192
   77MOL0     H10137  -0.334   3.083   5.170  1.2509 -0.9512 -0.0043
   77MOL0     H10138  -0.534   3.103   5.373 -2.0360 -1.7778  0.3790
   77MOL0     H10139  -0.504   2.935   5.382  1.1819 -1.2133 -0.5644
   77MOL0     H10140  -0.578   2.912   5.141 -0.5410 -0.6749  1.7401
   77MOL0     H10141  -0.535   3.078   5.111 -1.3728  2.4388  1.5401
   77MOL0     H10142  -0.752   3.003   5.300  1.2811 -0.0363 -0.1407
   77MOL0     H10143  -0.732   3.162   5.215 -0.0649  0.7907 -1.9424
   77MOL0     H10144  -0.774   2.995   4.993 -1.6297  0.5155 -0.5934
   77MOL0     H10145  -0.892   3.090   5.070 -0.4227 -0.4657  1.0707
   77MOL0     H10146   0.285   3.030   5.172 -1.3561 -1.8597  0.9063
   77MOL0     H10147   0.521   3.079   5.288  1.3873 -0.2124  1.8498
   77MOL0     H10148   0.740   3.199   5.606 -0.3105 -0.8394 -0.5241
   77MOL0     H10149   0.955   3.237   5.698  1.0898 -0.6074  0.6484
   77MOL0     H10150   2.934   3.259   6.152 -1.6438  0.4708 -0.7735
   77MOL0     H10151   3.155   3.306   6.252  0.9149 -0.9785  0.2252
   77MOL0     H10152   3.493   3.463   6.222  0.1317 -0.7657  0.0114
   77MOL0     H10153   3.662   3.592   6.320  0.4689  1.2811 -0.6151
   77MOL0     H10154   3.860   3.587   6.481  0.0107 -2.6764 -0.4162
   77MOL0     H10155   3.834   3.712   6.350 -0.4466 -1.0023 -1.4077
   77MOL0     H10156   4.078   3.744   6.326 -0.0325 -1.8978 -0.9868
   77MOL0     H10157   4.010   3.810   6.466 -1.4915 -1.3851  1.5595
   77MOL0     H10158   4.231   3.623   6.427 -1.5063  0.9801 -0.8977
   77MOL0     H10159   4.115   3.545   6.529 -0.8782  1.1033  0.7802
   77MOL0     H10160   4.266   3.642   6.673  0.5232 -0.0010 -0.7927
   77MOL0     H10161   4.261   3.796   6.597 -0.2305  0.6656  3.3220
   77MOL0     H10162   3.935   3.813   6.855  0.2885  0.5057  0.1204
   77MOL0     H10163   3.970   3.319   6.187 -1.1498 -1.3114 -0.3287
   77MOL0     H10164   3.789   3.165   6.094 -0.2281  0.3023 -0.6660
   78MOL0     O10165   5.906   7.568   7.965 -0.2451  0.8493  0.2959
   78MOL0     C10166   5.992   7.510   8.030  0.2698 -0.4575  0.1019
   78MOL0     O10167   6.008   7.529   8.163 -0.3236  0.3206  0.4115
   78MOL0     C10168   5.915   7.568   8.252 -0.4370 -0.3696 -0.9323
   78MOL0     C10169   5.776   7.575   8.233 -0.1698 -0.5856  0.6970
   78MOL0     C10170   5.684   7.594   8.333 -0.0099  0.5322 -0.4240
   78MOL0     C10171   5.730   7.636   8.466 -0.6350  0.9591  0.7606
   78MOL0     O10172   5.652   7.670   8.575 -0.0113  0.5929 -0.3622
   78MOL0     C10173   5.516   7.696   8.545 -0.0314  0.3036 -0.7468
   78MOL0     C10174   5.460   7.771   8.662  0.3035  0.2567 -0.4149
   78MOL0     C10175   5.314   7.762   8.661 -0.3239 -0.7289  0.5879
   78MOL0     C10176   5.250   7.827   8.793  0.0631 -0.5206  0.4750
   78MOL0     C10177   5.104   7.856   8.780  0.9222 -0.4663 -0.2440
   78MOL0     C10178   5.059   7.918   8.918 -0.7661  0.5045  0.1402
   78MOL0     C10179   4.908   7.932   8.950 -0.0813 -0.7825  0.4913
   78MOL0     C10180   4.855   7.781   8.968 -0.3804 -0.1216  0.5056
   78MOL0     N10181   4.710   7.790   8.957 -0.4812 -0.5253  0.2606
   78MOL0     C10182   4.638   7.797   8.840  0.5178 -0.1089 -0.3153
   78MOL0     C10183   4.510   7.783   8.864  0.6338 -0.1169 -0.3901
   78MOL0     C10184   4.398   7.797   8.769  0.3883 -0.0316  0.1015
   78MOL0     C10185   4.289   7.909   8.791  0.0414  0.8051 -0.7918
   78MOL0     C10186   4.343   8.057   8.797  0.2107  0.0764 -0.6162
   78MOL0     C10187   4.383   8.078   8.951 -0.1345 -0.9917 -0.4046
   78MOL0     O10188   4.301   8.179   9.013  0.8318  0.4731  0.7406
   78MOL0     C10189   4.178   8.137   9.057 -0.7030  0.2661 -0.4471
   78MOL0     C10190   4.139   8.007   9.113 -0.5156 -0.8783 -0.5417
   78MOL0     C10191   4.007   7.982   9.162  0.4858 -0.8256 -0.2666
   78MOL0     C10192   3.909   8.084   9.146  0.2651 -0.9221  1.0898
   78MOL0     C10193   3.762   8.053   9.146 -0.2312  1.3533 -0.7235
   78MOL0     O10194   3.679   8.136   9.083  0.3551 -0.4370 -0.5679
   78MOL0     C10195   3.548   8.109   9.052  0.6930  0.0369  0.5232
   78MOL0     C10196   3.502   8.122   8.917 -0.0826 -0.6719 -0.8733
   78MOL0     C10197   3.367   8.094   8.881  0.7474 -0.2957  0.0921
   78MOL0     C10198   3.279   8.054   8.978 -0.4932  0.8765  0.2790
   78MOL0     O10199   3.147   8.036   8.945 -0.1912  0.6651  0.0254
   78MOL0     C10200   3.107   8.022   8.810 -0.7890 -0.8627 -0.4875
   78MOL0     C10201   2.966   7.960   8.813  1.0854  0.8118  0.9708
   78MOL0     C10202   2.867   8.064   8.861  0.9752  0.1109  0.6110
   78MOL0     C10203   2.713   8.026   8.866  0.0539 -0.2787 -0.1821
   78MOL0     C10204   2.651   8.005   8.731  0.2136  0.3004  0.1113
   78MOL0     C10205   2.509   7.977   8.749 -0.2766  0.1675 -0.5306
   78MOL0     C10206   2.442   7.935   8.618  0.4701  0.1085  0.0388
   78MOL0     C10207   2.473   7.789   8.583  0.0100 -0.4469  0.4750
   78MOL0    Cl10208   2.372   7.741   8.441 -0.2413 -0.1603 -0.3410
   78MOL0     C10209   3.324   8.026   9.105  0.2989 -0.5634 -0.2195
   78MOL0     C10210   3.453   8.068   9.149  0.4888 -0.0009 -0.1674
   78MOL0     O10211   3.734   7.959   9.221 -0.4881  0.3978  0.2383
   78MOL0     C10212   3.946   8.211   9.100 -0.4730  1.0715 -0.3292
   78MOL0     C10213   4.080   8.238   9.052  0.2232  1.1722  0.6660
   78MOL0     N10214   4.501   7.770   9.004 -0.4488 -0.0963 -0.7145
   78MOL0     N10215   4.618   7.768   9.057 -0.2031  0.2565  0.3378
   78MOL0     C10216   5.867   7.652   8.485 -0.0771  0.0394 -0.2790
   78MOL0     C10217   5.956   7.614   8.385 -0.3860 -0.8305 -0.1067
   78MOL0     C10218   6.095   7.447   7.958  0.0256  0.3946  0.3636
   78MOL0     C10219   6.101   7.445   7.817  0.4489 -0.4522 -0.0026
   78MOL0     C10220   6.214   7.390   7.748  0.7868  0.7309  0.9530
   78MOL0     C10221   6.324   7.333   7.818 -0.1059  0.4861 -0.1466
   78MOL0     O10222   6.426   7.287   7.748  0.9492 -0.0584 -0.3350
   78MOL0     C10223   6.550   7.254   7.809  0.4183  0.1290  0.0819
   78MOL0     C10224   6.654   7.217   7.704  0.5418 -0.3979  0.0466
   78MOL0     C10225   6.795   7.184   7.763  0.8655  0.3404  0.7297
   78MOL0     C10226   6.801   7.063   7.854  0.2033 -0.2415 -0.2709
   78MOL0     C10227   6.940   7.044   7.901  0.1552 -0.1304 -1.1306
   78MOL0     C10228   7.051   7.029   7.956 -0.2163 -0.3664  0.4063
   78MOL0     C10229   6.317   7.340   7.961 -0.1094  0.0578 -0.6866
   78MOL0     C10230   6.203   7.391   8.024 -0.4785  0.7973  1.2692
   78MOL0     H10231   5.744   7.535   8.137  0.7607  0.9687 -0.3013
   78MOL0     H10232   5.578   7.589   8.311  0.3853 -0.1589 -2.3804
   78MOL0     H10233   5.459   7.605   8.522  2.6244 -1.9493  0.9773
   78MOL0     H10234   5.514   7.757   8.454  0.4894 -0.0763 -1.0263
   78MOL0     H10235   5.492   7.875   8.653  0.1580  0.1216 -3.3593
   78MOL0     H10236   5.490   7.723   8.756  0.5491 -1.7308 -1.4501
   78MOL0     H10237   5.283   7.658   8.651 -3.1525  0.0436  0.3582
   78MOL0     H10238   5.278   7.825   8.580 -1.0618 -0.4108  1.1431
   78MOL0     H10239   5.267   7.761   8.878 -0.2571 -1.2977 -0.0451
   78MOL0     H10240   5.307   7.919   8.808  2.2660 -1.3340 -2.1193
   78MOL0     H10241   5.053   7.761   8.760  1.6868 -0.7669 -0.8045
   78MOL0     H10242   5.109   7.927   8.696 -0.8058  0.2014  0.1747
   78MOL0     H10243   5.110   8.015   8.927  0.6834 -0.3488  1.8642
   78MOL0     H10244   5.107   7.856   8.995  0.2930  3.7249  2.2703
   78MOL0     H10245   4.914   7.989   9.043  3.6205  1.4845 -0.9095
   78MOL0     H10246   4.846   7.982   8.876 -1.6401 -2.0431  0.9081
   78MOL0     H10247   4.874   7.756   9.073  1.6396  2.1240  0.7444
   78MOL0     H10248   4.905   7.711   8.901  2.3601 -0.4368  2.6855
   78MOL0     H10249   4.680   7.808   8.741  1.3162  2.0693  0.1946
   78MOL0     H10250   4.345   7.703   8.787 -0.3338  0.5765  1.2623
   78MOL0     H10251   4.438   7.802   8.667  2.0407 -0.7112  0.6799
   78MOL0     H10252   4.244   7.884   8.887 -1.0855  3.1855 -0.6324
   78MOL0     H10253   4.216   7.901   8.710 -0.6539  4.3063 -0.6952
   78MOL0     H10254   4.426   8.062   8.726  0.4739  1.1451 -0.2412
   78MOL0     H10255   4.270   8.129   8.758 -0.3443 -0.4223 -0.5132
   78MOL0     H10256   4.487   8.111   8.958 -0.8094  1.0626  0.7269
   78MOL0     H10257   4.371   7.987   9.010 -2.5216  0.6633  1.8747
   78MOL0     H10258   4.210   7.927   9.126  0.0894 -0.4041 -0.8755
   78MOL0     H10259   3.975   7.884   9.195 -1.5412 -0.5443 -1.2216
   78MOL0     H10260   3.579   8.156   8.849  0.5423  0.5854  0.4222
   78MOL0     H10261   3.348   8.090   8.775  4.4561  0.1436 -0.7364
   78MOL0     H10262   3.173   7.949   8.762  0.4212  0.2553 -0.5770
   78MOL0     H10263   3.104   8.120   8.761 -0.7892 -1.0636 -0.8873
   78MOL0     H10264   2.964   7.868   8.872  1.8567 -0.0841 -0.3311
   78MOL0     H10265   2.944   7.930   8.710  2.5797  0.1449  0.8123
   78MOL0     H10266   2.873   8.161   8.810 -1.7383  0.7701  1.3562
   78MOL0     H10267   2.891   8.077   8.967  1.4205 -1.3411  0.7072
   78MOL0     H10268   2.710   7.932   8.922  2.1872 -0.7379 -0.7491
   78MOL0     H10269   2.657   8.104   8.918  1.9514  1.6449 -0.8574
   78MOL0     H10270   2.701   7.915   8.693 -1.6139 -0.3935 -0.8034
   78MOL0     H10271   2.658   8.095   8.670  1.5620  2.0731  2.7364
   78MOL0     H10272   2.465   8.069   8.789 -1.0150 -0.9481  1.2880
   78MOL0     H10273   2.493   7.899   8.823 -1.5598  0.3653 -0.5857
   78MOL0     H10274   2.334   7.942   8.627  0.3072 -1.8019  0.0227
   78MOL0     H10275   2.476   7.998   8.535  2.8576 -2.1435 -0.8512
   78MOL0     H10276   2.459   7.718   8.665  1.5314 -1.8803 -0.4436
   78MOL0     H10277   2.579   7.779   8.557 -0.3865 -2.7430 -0.5029
   78MOL0     H10278   3.257   7.991   9.183  0.5959 -0.2102  0.1996
   78MOL0     H10279   3.485   8.056   9.252  2.3262  1.5105 -0.5214
   78MOL0     H10280   3.878   8.293   9.120 -0.2881  1.0166  0.5602
   78MOL0     H10281   4.102   8.336   9.011  3.1832  0.5411  0.4959
   78MOL0     H10282   5.895   7.691   8.582  0.6474  1.3661 -0.9937
   78MOL0     H10283   6.062   7.615   8.405 -0.1881 -2.0551 -1.0040
   78MOL0     H10284   6.014   7.474   7.759  2.2405  2.0997 -1.5911
   78MOL0     H10285   6.218   7.395   7.640 -0.8888  1.1319  0.8911
   78MOL0     H10286   6.529   7.175   7.882 -0.1513 -0.0542 -0.2706
   78MOL0     H10287   6.586   7.342   7.863  0.4423  1.3236 -1.7778
   78MOL0     H10288   6.611   7.137   7.643  0.0203 -0.1150  0.0311
   78MOL0     H10289   6.667   7.305   7.640 -2.5129  1.0593  1.2425
   78MOL0     H10290   6.838   7.269   7.817  1.0044  0.4732  0.4139
   78MOL0     H10291   6.857   7.151   7.679  0.5754 -2.2560  1.4353
   78MOL0     H10292   6.735   7.080   7.940 -0.1004 -1.0116 -0.3456
   78MOL0     H10293   6.750   6.984   7.800 -3.6099 -0.1940  2.7769
   78MOL0     H10294   7.143   7.006   8.005 -0.5937  1.0841  1.8916
   78MOL0     H10295   6.391   7.305   8.033 -2.1610  0.4416  1.7506
   78MOL0     H10296   6.206   7.390   8.132  0.8951  2.6197  1.2936
   79MOL0     O10297   9.472   7.638   4.107  0.0366 -0.1122 -0.7400
   79MOL0     C10298   9.473   7.604   3.990  0.4535  0.6655 -0.1947
   79MOL0     O10299   9.353   7.573   3.916 -0.5556  0.8818 -0.6092
   79MOL0     C10300   9.242   7.628   3.962  0.4344 -0.2217 -0.5160
   79MOL0     C10301   9.145   7.554   4.031 -0.9420 -0.2475 -0.2400
   79MOL0     C10302   9.034   7.617   4.076  1.6003  0.7107 -0.1290
   79MOL0     C10303   8.991   7.742   4.034 -0.2264 -0.0854 -0.6510
   79MOL0     O10304   8.868   7.805   4.063  0.1244  1.0975 -0.3958
   79MOL0     C10305   8.767   7.733   4.127 -0.6667  0.1820 -0.2016
   79MOL0     C10306   8.628   7.796   4.116  0.1211 -0.6398  0.1410
   79MOL0     C10307   8.532   7.709   4.194 -0.4536  0.3037  0.2081
   79MOL0     C10308   8.390   7.746   4.155  0.2793 -0.7193 -0.5020
   79MOL0     C10309   8.285   7.706   4.251 -0.4711  0.7056 -0.0484
   79MOL0     C10310   8.304   7.744   4.399  0.1359  0.3357  0.1464
   79MOL0     C10311   8.200   7.689   4.493 -0.7622  0.9735  0.3620
   79MOL0     C10312   8.086   7.786   4.527 -0.2501  0.3069 -0.1542
   79MOL0     N10313   8.001   7.723   4.627  0.8575 -0.3375  0.9477
   79MOL0     C10314   8.031   7.624   4.718  0.0828 -0.5061  0.5720
   79MOL0     C10315   7.915   7.569   4.762  0.8751 -0.1992  0.6399
   79MOL0     C10316   7.908   7.458   4.858 -0.9271 -0.1086 -0.3871
   79MOL0     C10317   7.771   7.398   4.863 -0.4171  0.2913 -0.8992
   79MOL0     C10318   7.788   7.262   4.947  0.5366 -0.1733 -0.0674
   79MOL0     C10319   7.655   7.227   5.013 -0.6330  0.2794  0.4361
   79MOL0     O10320   7.558   7.209   4.906 -0.4631  0.3063  0.4382
   79MOL0     C10321   7.429   7.180   4.936 -0.1508 -0.2883  1.1819
   79MOL0     C10322   7.321   7.208   4.841 -0.4832  0.7592  0.6523
   79MOL0     C10323   7.186   7.182   4.868 -0.0723  0.5912  0.7074
   79MOL0     C10324   7.154   7.118   4.984 -0.5000  0.3888  0.1307
   79MOL0     C10325   7.015   7.096   5.025  0.1259 -0.4959  0.3885
   79MOL0     O10326   6.912   7.131   4.940  0.8928  0.0611 -0.6872
   79MOL0     C10327   6.784   7.101   4.988  0.6616 -0.4222 -0.3463
   79MOL0     C10328   6.719   6.995   4.931 -0.5679 -0.1717  0.6158
   79MOL0     C10329   6.595   6.951   4.966  0.2399 -0.3163  1.1699
   79MOL0     C10330   6.523   7.017   5.063 -0.6600 -0.6587 -0.1943
   79MOL0     O10331   6.398   6.983   5.112 -0.7716  0.2074 -0.2243
   79MOL0     C10332   6.318   6.870   5.067 -0.7264 -0.3567  0.1289
   79MOL0     C10333   6.180   6.869   5.129 -0.4309  0.3363  0.6071
   79MOL0     C10334   6.085   6.772   5.063  0.9350  0.1347 -0.0984
   79MOL0     C10335   5.963   6.760   5.152  0.5262 -0.1900 -0.3220
   79MOL0     C10336   5.852   6.707   5.066 -0.5312 -0.3017  0.2164
   79MOL0     C10337   5.724   6.682   5.140  0.0556 -0.7401 -0.0562
   79MOL0     C10338   5.606   6.654   5.045 -0.1315 -0.4916 -0.1332
   79MOL0     C10339   5.560   6.509   5.036  0.4973 -0.5263  0.3765
   79MOL0    Cl10340   5.690   6.386   5.020 -0.5624  0.7625 -0.5987
   79MOL0     C10341   6.585   7.135   5.121  0.2776  0.4173  0.5841
   79MOL0     C10342   6.716   7.173   5.079  0.3685 -0.9510 -0.4111
   79MOL0     O10343   6.994   7.039   5.138  0.0397  0.4751 -0.0724
   79MOL0     C10344   7.255   7.079   5.075  0.1210  0.4122 -0.1446
   79MOL0     C10345   7.385   7.120   5.053 -0.1977 -0.8212 -0.9709
   79MOL0     N10346   7.817   7.628   4.690 -0.4928  0.3052  1.2383
   79MOL0     N10347   7.864   7.716   4.613 -0.0512  0.0978 -0.0234
   79MOL0     C10348   9.087   7.818   3.957 -0.1122  0.0175  0.8511
   79MOL0     C10349   9.205   7.751   3.921 -0.2821  0.0757  0.1106
   79MOL0     C10350   9.597   7.634   3.912  0.9292  0.0739  0.4415
   79MOL0     C10351   9.586   7.663   3.774  0.2115  0.4437 -0.6004
   79MOL0     C10352   9.696   7.687   3.700 -0.5284 -0.1602  0.3216
   79MOL0     C10353   9.820   7.690   3.754  0.5353  0.1227 -0.2359
   79MOL0     O10354   9.935   7.728   3.689  0.4879 -0.3804 -0.6864
   79MOL0     C10355   9.923   7.783   3.560  0.0965  0.4312 -0.2395
   79MOL0     C10356  10.043   7.876   3.538 -0.3252 -0.6207  0.3687
   79MOL0     C10357  10.028   7.961   3.410  0.4831  0.2059  0.5276
   79MOL0     C10358  10.009   7.884   3.280  0.3810  0.2587  0.2503
   79MOL0     C10359  10.140   7.827   3.230  0.4258  0.0214 -0.3507
   79MOL0     C10360  10.240   7.782   3.182 -0.0733  0.6270 -0.8679
   79MOL0     C10361   9.838   7.661   3.888 -0.3551  0.6625  0.4693
   79MOL0     C10362   9.726   7.638   3.965  1.1128  0.3689  0.2089
   79MOL0     H10363   9.181   7.457   4.066  1.0053  0.8096  0.8613
   79MOL0     H10364   8.962   7.569   4.141  0.9385  2.2130  0.2934
   79MOL0     H10365   8.793   7.711   4.231 -2.0830 -2.2268 -0.2800
   79MOL0     H10366   8.756   7.635   4.080  0.0572 -0.5892  1.1824
   79MOL0     H10367   8.588   7.808   4.015 -2.1588  2.5480  1.2385
   79MOL0     H10368   8.632   7.899   4.154  1.0330  0.0024 -1.5846
   79MOL0     H10369   8.552   7.735   4.298  3.4704  0.5702 -0.4492
   79MOL0     H10370   8.552   7.603   4.176  0.8922  0.1439  2.3566
   79MOL0     H10371   8.380   7.853   4.134  3.3772 -0.9737 -4.4455
   79MOL0     H10372   8.363   7.699   4.060 -2.7585 -2.1888  0.9530
   79MOL0     H10373   8.268   7.598   4.246 -1.8880  0.8070  1.5015
   79MOL0     H10374   8.192   7.742   4.207 -1.1363 -0.3315  0.4528
   79MOL0     H10375   8.309   7.852   4.416 -2.4433  0.7556 -1.2671
   79MOL0     H10376   8.393   7.699   4.444 -0.4415 -0.7469  0.2461
   79MOL0     H10377   8.157   7.595   4.458  1.7550  0.0036 -0.3172
   79MOL0     H10378   8.251   7.650   4.581  0.0022  0.9326 -0.0863
   79MOL0     H10379   8.028   7.815   4.439  0.2815  1.8257 -0.0376
   79MOL0     H10380   8.132   7.873   4.576  2.2540  0.9124 -3.2711
   79MOL0     H10381   8.132   7.606   4.754 -0.2827 -2.5324  0.7534
   79MOL0     H10382   7.946   7.500   4.952  1.1857  1.3430 -1.8066
   79MOL0     H10383   7.985   7.384   4.835  1.5745  2.2213 -0.0818
   79MOL0     H10384   7.742   7.381   4.759 -0.4264  1.0900 -1.0373
   79MOL0     H10385   7.707   7.464   4.923  0.9187 -1.4401  2.6739
   79MOL0     H10386   7.824   7.179   4.885  1.1358 -0.5919  0.8086
   79MOL0     H10387   7.853   7.273   5.035 -0.7932  2.4148  0.6987
   79MOL0     H10388   7.622   7.310   5.075  0.7944  2.3191 -1.3806
   79MOL0     H10389   7.671   7.138   5.076  1.3970 -0.7829 -1.4508
   79MOL0     H10390   7.333   7.265   4.750 -2.8597 -0.2841 -0.4129
   79MOL0     H10391   7.098   7.213   4.813 -0.4119 -0.3558  0.6967
   79MOL0     H10392   6.772   6.941   4.853 -1.3167  1.4798 -1.1096
   79MOL0     H10393   6.543   6.864   4.929  3.7952 -1.8077 -0.8451
   79MOL0     H10394   6.371   6.776   5.087  0.1470  0.0819 -0.1113
   79MOL0     H10395   6.296   6.896   4.963 -2.2328 -3.4778 -0.4664
   79MOL0     H10396   6.141   6.971   5.125 -2.6992 -0.3221  2.9213
   79MOL0     H10397   6.202   6.844   5.233 -1.6966 -4.0390  0.0407
   79MOL0     H10398   6.140   6.678   5.050  0.9036  0.5273 -4.2953
   79MOL0     H10399   6.056   6.810   4.965 -0.0022 -2.2939 -0.8462
   79MOL0     H10400   5.973   6.697   5.242 -2.4325 -4.5721 -2.6617
   79MOL0     H10401   5.946   6.865   5.175  1.0765 -0.0688 -0.4660
   79MOL0     H10402   5.881   6.623   5.002  1.5677  1.9862 -2.0657
   79MOL0     H10403   5.827   6.792   5.002 -0.0082  1.3200  2.0675
   79MOL0     H10404   5.695   6.771   5.196  0.2350 -0.5284 -0.2995
   79MOL0     H10405   5.739   6.608   5.219  0.5781  1.8462  2.4204
   79MOL0     H10406   5.519   6.709   5.082  2.3309  1.1082  3.8970
   79MOL0     H10407   5.631   6.683   4.943  0.4426 -0.9937 -0.1438
   79MOL0     H10408   5.489   6.507   4.952  0.9598  0.2891 -0.0463
   79MOL0     H10409   5.502   6.490   5.127  0.6818  0.5928  0.7354
   79MOL0     H10410   6.530   7.180   5.203  0.8449  1.0671  0.6230
   79MOL0     H10411   6.777   7.254   5.118  1.3028 -0.3935 -2.8704
   79MOL0     H10412   7.234   7.039   5.174  0.7567 -0.5723 -0.3949
   79MOL0     H10413   7.452   7.099   5.136  1.1546  1.2198 -1.4718
   79MOL0     H10414   9.075   7.918   3.916  0.5311 -0.0574  0.4626
   79MOL0     H10415   9.283   7.808   3.871 -0.0287 -0.9729 -0.7133
   79MOL0     H10416   9.489   7.653   3.726 -0.9301 -2.9123  2.0123
   79MOL0     H10417   9.681   7.713   3.595  2.0042 -0.7436 -0.2576
   79MOL0     H10418   9.830   7.838   3.545 -0.2956  0.1235  0.9707
   79MOL0     H10419   9.922   7.705   3.483 -2.4721  0.0954  0.0700
   79MOL0     H10420  10.061   7.946   3.621  3.4464 -0.8719 -0.0693
   79MOL0     H10421  10.128   7.808   3.523 -1.0603 -1.4871  0.0739
   79MOL0     H10422  10.106   8.035   3.390 -1.2122  1.3013 -2.7510
   79MOL0     H10423   9.939   8.024   3.425  0.9026  1.3705 -1.5315
   79MOL0     H10424   9.944   7.798   3.294 -0.4957  0.6528 -1.1845
   79MOL0     H10425   9.960   7.956   3.214  0.5012 -0.6331 -0.8299
   79MOL0     H10426  10.337   7.752   3.147  0.5470 -0.7620  1.7702
   79MOL0     H10427   9.934   7.671   3.938 -0.3030  1.0151  0.3023
   79MOL0     H10428   9.736   7.627   4.073  3.3653 -0.5533 -0.0376
   80MOL0     O10429   0.673   2.187   0.406  0.8818  0.2769 -0.5577
   80MOL0     C10430   0.674   2.071   0.394 -0.0257  0.3290 -0.7580
   80MOL0     O10431   0.564   1.989   0.400 -1.1299 -0.6689 -0.8555
   80MOL0     C10432   0.436   2.036   0.407 -0.4755 -0.8508  0.4412
   80MOL0     C10433   0.380   2.158   0.460  0.2921  0.8469  0.1297
   80MOL0     C10434   0.237   2.181   0.468 -0.6771 -0.1028 -0.0339
   80MOL0     C10435   0.151   2.086   0.432 -0.4118  0.0466 -0.1961
   80MOL0     O10436   0.021   2.111   0.451  0.5633 -0.7332  0.6813
   80MOL0     C10437  -0.074   2.016   0.419  0.4259  0.4164  1.1458
   80MOL0     C10438  -0.210   2.070   0.451  0.6853 -0.6931  0.2593
   80MOL0     C10439  -0.332   1.991   0.396 -0.4383 -0.5212 -0.6932
   80MOL0     C10440  -0.457   2.039   0.471  0.2085 -0.6659 -0.5985
   80MOL0     C10441  -0.567   1.938   0.438  0.1565  0.4281 -0.2618
   80MOL0     C10442  -0.700   1.998   0.492  0.2026 -0.8118  0.2542
   80MOL0     C10443  -0.823   1.915   0.451 -1.1529  0.2114 -0.0862
   80MOL0     C10444  -0.953   1.990   0.480 -0.0273 -0.1103  0.2563
   80MOL0     N10445  -1.070   1.926   0.418  0.7680 -0.2566  0.0526
   80MOL0     C10446  -1.193   1.991   0.405  0.0175  0.0930 -0.9421
   80MOL0     C10447  -1.273   1.892   0.355 -0.1016 -0.3661 -0.1956
   80MOL0     C10448  -1.408   1.911   0.301 -0.2715 -0.8619 -0.6052
   80MOL0     C10449  -1.412   1.990   0.171  0.7188 -0.0305 -0.1714
   80MOL0     C10450  -1.547   1.978   0.102 -0.1262 -0.3809  0.5344
   80MOL0     C10451  -1.552   1.860   0.013  0.4052 -0.2901  0.1799
   80MOL0     O10452  -1.652   1.870  -0.098 -0.3048  0.4651  0.3301
   80MOL0     C10453  -1.769   1.804  -0.078  0.3039 -0.4090 -0.3042
   80MOL0     C10454  -1.794   1.687  -0.004 -0.3052 -0.3149 -0.2080
   80MOL0     C10455  -1.923   1.630  -0.000  0.6102 -0.3075  0.3068
   80MOL0     C10456  -2.039   1.687  -0.068 -0.1578 -0.3429 -0.2860
   80MOL0     C10457  -2.159   1.614  -0.074  0.5623  1.1721  0.1860
   80MOL0     O10458  -2.181   1.508   0.002  0.8749 -0.4428 -0.4550
   80MOL0     C10459  -2.286   1.430  -0.020 -0.5176  0.5829  0.4456
   80MOL0     C10460  -2.273   1.309  -0.087  0.3592  0.5268 -0.7458
   80MOL0     C10461  -2.388   1.223  -0.108 -1.1807 -0.0132  0.2663
   80MOL0     C10462  -2.513   1.265  -0.054 -0.0175 -0.7807 -1.1149
   80MOL0     O10463  -2.632   1.207  -0.062 -0.2513 -0.4634  0.6769
   80MOL0     C10464  -2.655   1.134  -0.176 -0.8597 -0.1729 -0.3551
   80MOL0     C10465  -2.806   1.108  -0.201 -1.3993 -1.1188  0.8455
   80MOL0     C10466  -2.863   1.030  -0.086  0.2982 -0.2911 -0.1010
   80MOL0     C10467  -3.004   0.993  -0.111  0.2542 -0.7038 -0.2271
   80MOL0     C10468  -3.019   0.864  -0.183 -0.5906  0.0052 -0.2796
   80MOL0     C10469  -3.169   0.857  -0.216  0.3489 -0.0587  1.0412
   80MOL0     C10470  -3.200   0.709  -0.248  0.0737 -0.2139  0.1090
   80MOL0     C10471  -3.344   0.678  -0.294 -0.0010  0.1533 -0.4161
   80MOL0    Cl10472  -3.422   0.616  -0.142  0.0966  0.1247  0.6429
   80MOL0     C10473  -2.528   1.390   0.008  0.0450  0.2298  0.0454
   80MOL0     C10474  -2.414   1.464   0.029 -0.6530 -0.3411  0.6134
   80MOL0     O10475  -2.236   1.645  -0.165 -0.5850 -0.3384 -0.0307
   80MOL0     C10476  -2.009   1.811  -0.132  0.2533 -0.8179 -0.5558
   80MOL0     C10477  -1.878   1.856  -0.153 -0.4767 -1.0944 -0.2978
   80MOL0     N10478  -1.210   1.775   0.340 -0.0256  0.0149 -0.1336
   80MOL0     N10479  -1.088   1.800   0.363  0.2712 -0.0804  0.1202
   80MOL0     C10480   0.202   1.963   0.377 -0.8170 -0.4818  0.2010
   80MOL0     C10481   0.344   1.941   0.366 -0.2689 -0.4448 -0.1521
   80MOL0     C10482   0.803   1.993   0.406 -0.6008  0.3218 -0.6234
   80MOL0     C10483   0.922   2.066   0.438  0.0173 -0.2236  0.3614
   80MOL0     C10484   1.043   2.014   0.425 -0.7279 -0.0657  1.2905
   80MOL0     C10485   1.056   1.875   0.384 -0.3648  0.4487 -0.5207
   80MOL0     O10486   1.172   1.800   0.372  0.3205 -0.2382 -0.5258
   80MOL0     C10487   1.292   1.854   0.404 -1.1171  0.2915  0.0807
   80MOL0     C10488   1.388   1.742   0.365 -0.2981 -0.2559 -0.6318
   80MOL0     C10489   1.533   1.797   0.363  0.0403  0.3849  0.3103
   80MOL0     C10490   1.635   1.686   0.379  0.0719  0.2298 -0.2877
   80MOL0     C10491   1.776   1.719   0.348 -0.2876 -0.1332  0.4181
   80MOL0     C10492   1.897   1.741   0.338 -0.0181 -0.5757  0.4321
   80MOL0     C10493   0.938   1.804   0.371 -1.2339 -0.1200 -0.0384
   80MOL0     C10494   0.812   1.851   0.386  0.1580 -0.2668  0.0953
   80MOL0     H10495   0.449   2.240   0.475  0.1029  1.0943 -0.3225
   80MOL0     H10496   0.201   2.269   0.520 -1.1143 -2.7496  4.6955
   80MOL0     H10497  -0.064   1.931   0.488 -1.0222 -1.6354 -0.9770
   80MOL0     H10498  -0.071   1.980   0.315 -3.0969  1.5655  0.4999
   80MOL0     H10499  -0.218   2.169   0.406 -0.1695  0.2779  2.4103
   80MOL0     H10500  -0.210   2.084   0.559  6.0513  0.7237  0.3820
   80MOL0     H10501  -0.331   1.883   0.417  0.8239 -0.5342 -0.7238
   80MOL0     H10502  -0.328   1.999   0.287 -0.9757  2.3042 -0.5636
   80MOL0     H10503  -0.456   2.049   0.580 -1.7599  1.3174 -0.6904
   80MOL0     H10504  -0.483   2.141   0.441 -1.4937 -0.7225  0.5566
   80MOL0     H10505  -0.538   1.837   0.468 -1.2231 -0.0807 -0.5576
   80MOL0     H10506  -0.578   1.927   0.329  1.5602 -2.0689 -0.2122
   80MOL0     H10507  -0.716   2.099   0.453 -1.7194 -1.0972  0.1634
   80MOL0     H10508  -0.694   2.014   0.601 -0.2795  1.6497 -0.0207
   80MOL0     H10509  -0.812   1.893   0.344  1.2122 -0.6860  0.2650
   80MOL0     H10510  -0.822   1.816   0.498 -1.5338  0.0566 -0.4015
   80MOL0     H10511  -0.950   2.094   0.446  1.3049 -0.1436  0.2282
   80MOL0     H10512  -0.970   1.996   0.588 -1.6741 -0.2958  0.0289
   80MOL0     H10513  -1.220   2.096   0.412 -1.6372 -0.3787  0.9230
   80MOL0     H10514  -1.462   1.967   0.378  1.7216 -0.9651  0.9538
   80MOL0     H10515  -1.453   1.812   0.290 -1.2877 -0.5757  0.6834
   80MOL0     H10516  -1.336   1.956   0.101  0.0786 -1.8408 -0.0341
   80MOL0     H10517  -1.398   2.095   0.199  0.0274  0.7931 -2.6526
   80MOL0     H10518  -1.625   1.986   0.179 -0.7889 -1.7928  0.0352
   80MOL0     H10519  -1.559   2.065   0.037  0.1103  0.1473  1.1845
   80MOL0     H10520  -1.562   1.762   0.058 -3.9987 -0.1484 -0.1058
   80MOL0     H10521  -1.459   1.857  -0.046 -0.0847 -1.5441 -0.5699
   80MOL0     H10522  -1.720   1.636   0.056 -1.1383  0.3237  1.4349
   80MOL0     H10523  -1.928   1.533   0.048 -2.3756 -1.0320 -1.2574
   80MOL0     H10524  -2.179   1.277  -0.132  0.3001 -3.0848  1.3183
   80MOL0     H10525  -2.382   1.132  -0.166  3.6331 -1.3923  2.4300
   80MOL0     H10526  -2.603   1.037  -0.172 -0.4335  0.0787  0.6715
   80MOL0     H10527  -2.624   1.188  -0.266 -2.5662  0.9693 -0.2983
   80MOL0     H10528  -2.829   1.053  -0.292 -3.4001 -0.4268  0.8864
   80MOL0     H10529  -2.863   1.201  -0.209 -1.9272 -1.5987 -1.5390
   80MOL0     H10530  -2.861   1.096   0.002 -2.1227 -0.9547  0.5353
   80MOL0     H10531  -2.800   0.944  -0.066  1.3809  0.2481 -1.0971
   80MOL0     H10532  -3.064   0.985  -0.020 -2.1048 -2.4374 -1.8143
   80MOL0     H10533  -3.057   1.060  -0.180 -3.1195 -2.8556  0.0147
   80MOL0     H10534  -2.984   0.793  -0.107  0.5379  0.4664 -0.3520
   80MOL0     H10535  -2.959   0.851  -0.273 -1.7762  0.4790 -1.1719
   80MOL0     H10536  -3.191   0.920  -0.302  1.6757  0.9573  1.4150
   80MOL0     H10537  -3.225   0.902  -0.134  1.2122  1.5025  0.8146
   80MOL0     H10538  -3.137   0.690  -0.336  0.7965  1.6089  0.1873
   80MOL0     H10539  -3.185   0.649  -0.158  0.3404  1.3435  1.1398
   80MOL0     H10540  -3.331   0.589  -0.357  2.5966  0.2998 -0.2050
   80MOL0     H10541  -3.386   0.764  -0.347  1.6389  0.0100 -2.0481
   80MOL0     H10542  -2.623   1.430   0.041  0.4418  0.0007  1.5198
   80MOL0     H10543  -2.430   1.557   0.082 -1.4202  0.1606 -0.4715
   80MOL0     H10544  -2.086   1.858  -0.192 -1.1811 -0.8548  1.1991
   80MOL0     H10545  -1.852   1.943  -0.212  0.4765 -0.3300  1.1947
   80MOL0     H10546   0.131   1.886   0.349 -0.8171 -0.3178 -0.2649
   80MOL0     H10547   0.381   1.848   0.326 -1.6027 -1.2029  0.3110
   80MOL0     H10548   0.919   2.173   0.458  0.3372 -0.0892 -0.2796
   80MOL0     H10549   1.122   2.086   0.442  2.1509 -1.6817 -3.3179
   80MOL0     H10550   1.307   1.878   0.510 -0.0065 -1.9065  0.5047
   80MOL0     H10551   1.314   1.944   0.346  1.6708  0.7063  1.5725
   80MOL0     H10552   1.381   1.661   0.438 -1.1745  0.7517  0.4595
   80MOL0     H10553   1.364   1.709   0.264  0.4844 -0.2677 -0.8166
   80MOL0     H10554   1.546   1.881   0.431  0.7042  3.2478 -3.0679
   80MOL0     H10555   1.541   1.835   0.261 -1.4009  0.4053  0.1832
   80MOL0     H10556   1.631   1.649   0.482  0.9868 -2.0056 -0.9951
   80MOL0     H10557   1.612   1.605   0.310  1.6795 -1.1992  0.7728
   80MOL0     H10558   2.001   1.745   0.310  0.4622  0.9302  2.2263
   80MOL0     H10559   0.951   1.698   0.352  1.3884  0.1658 -0.1728
   80MOL0     H10560   0.726   1.785   0.375 -1.0570  0.7141  2.8302
   81MOL0     O10561   2.690   5.617   3.497 -0.0162  0.0522  0.3096
   81MOL0     C10562   2.775   5.693   3.530 -0.2925 -0.0732 -0.2853
   81MOL0     O10563   2.798   5.746   3.655  0.2370 -0.2551 -0.4122
   81MOL0     C10564   2.717   5.712   3.757  0.2803 -0.3163 -0.6699
   81MOL0     C10565   2.783   5.732   3.877 -0.2568  0.3783  0.6623
   81MOL0     C10566   2.711   5.715   3.998 -0.5467 -1.3152 -0.1158
   81MOL0     C10567   2.581   5.666   3.999  0.4847  0.6842  0.1565
   81MOL0     O10568   2.509   5.606   4.105 -0.4939 -0.1292  0.1157
   81MOL0     C10569   2.553   5.623   4.244 -0.2572 -0.5598  1.3517
   81MOL0     C10570   2.455   5.544   4.325 -0.3553  0.7444 -0.1575
   81MOL0     C10571   2.300   5.599   4.317  0.3583  0.7016 -0.2506
   81MOL0     C10572   2.204   5.521   4.411  0.5386  0.1308 -0.4534
   81MOL0     C10573   2.059   5.522   4.364 -0.2152  0.5887  0.3186
   81MOL0     C10574   1.978   5.655   4.391 -0.1665  1.0758 -0.4357
   81MOL0     C10575   1.830   5.612   4.402  0.3722  0.8467  0.3801
   81MOL0     C10576   1.729   5.722   4.407 -0.0700 -0.1229  1.2666
   81MOL0     N10577   1.592   5.682   4.436  0.1175  0.5931  0.4471
   81MOL0     C10578   1.504   5.623   4.348 -0.0400  0.1838 -0.0046
   81MOL0     C10579   1.382   5.642   4.405 -0.0010  0.9998 -0.3285
   81MOL0     C10580   1.241   5.579   4.361  0.0813  0.3710  0.2035
   81MOL0     C10581   1.224   5.571   4.209  0.5356  0.8135  0.0778
   81MOL0     C10582   1.216   5.706   4.131 -0.1410 -0.0997 -0.5907
   81MOL0     C10583   1.195   5.688   3.977  0.7827  0.4311  0.3792
   81MOL0     O10584   1.293   5.600   3.930  0.4343  0.6494 -0.2505
   81MOL0     C10585   1.423   5.639   3.939 -0.2097  0.1894  0.4892
   81MOL0     C10586   1.524   5.535   3.946  0.0219  0.2817 -0.0720
   81MOL0     C10587   1.654   5.568   3.963 -0.6545  0.7629  0.5362
   81MOL0     C10588   1.696   5.696   3.972  0.3979 -1.4282  0.3256
   81MOL0     C10589   1.835   5.736   3.982  0.1889 -0.0555  0.2286
   81MOL0     O10590   1.863   5.856   4.033 -0.4057 -0.0161  0.1178
   81MOL0     C10591   1.996   5.904   4.059  0.2971  0.0187 -1.1017
   81MOL0     C10592   1.998   5.993   4.162 -0.2231 -0.5143 -0.9797
   81MOL0     C10593   2.120   6.037   4.211 -0.5648  0.4745 -0.0617
   81MOL0     C10594   2.245   5.995   4.157 -0.2477 -0.3624 -0.2290
   81MOL0     O10595   2.359   6.054   4.209 -0.2443 -0.0424 -0.3913
   81MOL0     C10596   2.496   6.034   4.145  0.4536  0.1323 -0.2948
   81MOL0     C10597   2.590   6.141   4.204 -0.3489 -0.2395  0.9028
   81MOL0     C10598   2.736   6.135   4.183 -0.3519  0.2536 -0.0012
   81MOL0     C10599   2.811   6.250   4.254  0.1630 -1.2512 -1.1486
   81MOL0     C10600   2.949   6.277   4.189  0.0307 -0.9536  0.1558
   81MOL0     C10601   3.037   6.371   4.276  0.2075 -0.0832  0.2377
   81MOL0     C10602   3.165   6.416   4.203 -0.2806  0.3450 -0.6514
   81MOL0     C10603   3.275   6.311   4.218 -0.6042 -0.9526  0.3823
   81MOL0    Cl10604   3.321   6.297   4.386  0.2798 -0.6882  0.1976
   81MOL0     C10605   2.243   5.902   4.050  0.0101 -0.2690  0.1712
   81MOL0     C10606   2.119   5.857   4.005  0.6775  0.7906 -0.0447
   81MOL0     O10607   1.916   5.660   3.932  0.0526 -0.6193 -0.1827
   81MOL0     C10608   1.602   5.799   3.954  0.2828  0.3902  0.9672
   81MOL0     C10609   1.466   5.773   3.942 -0.2160 -0.1777  0.6466
   81MOL0     N10610   1.402   5.716   4.523 -0.1741  0.6032  0.1458
   81MOL0     N10611   1.529   5.741   4.540 -0.5239 -0.4120 -0.0788
   81MOL0     C10612   2.511   5.661   3.881 -0.1627 -0.3925 -0.1264
   81MOL0     C10613   2.580   5.677   3.761  0.2550  0.1843  1.0258
   81MOL0     C10614   2.879   5.741   3.434  0.2787  0.5392  0.4009
   81MOL0     C10615   2.978   5.829   3.473  0.6630 -0.3671  0.2085
   81MOL0     C10616   3.071   5.872   3.377  0.2383 -0.0414 -0.1009
   81MOL0     C10617   3.066   5.838   3.248  0.8066 -0.4167  0.7335
   81MOL0     O10618   3.150   5.881   3.146  0.0705 -0.6466 -0.4610
   81MOL0     C10619   3.275   5.935   3.182 -0.0359  0.1907  0.0367
   81MOL0     C10620   3.366   5.963   3.059 -0.5116 -0.5244 -0.2250
   81MOL0     C10621   3.498   6.028   3.108  0.2956 -0.5347  0.3155
   81MOL0     C10622   3.555   5.935   3.209 -0.7180 -0.2400  0.2896
   81MOL0     C10623   3.706   5.946   3.208 -0.1824 -0.2267  0.6040
   81MOL0     C10624   3.826   5.944   3.211 -0.3741 -0.6517  0.3748
   81MOL0     C10625   2.963   5.743   3.211 -0.3105 -0.0732 -0.4829
   81MOL0     C10626   2.878   5.692   3.304  1.1217  0.8178 -0.1431
   81MOL0     H10627   2.884   5.770   3.882  0.0218 -0.1407 -0.7422
   81MOL0     H10628   2.759   5.747   4.090  0.4375  0.2306 -1.1158
   81MOL0     H10629   2.547   5.728   4.273 -0.9986  0.8853 -3.1366
   81MOL0     H10630   2.656   5.589   4.260  0.5379  1.1699  0.2581
   81MOL0     H10631   2.484   5.546   4.431  1.0136  0.8834 -0.5144
   81MOL0     H10632   2.458   5.438   4.298 -3.1357  0.5967 -0.1571
   81MOL0     H10633   2.249   5.589   4.221 -2.5409  3.8565  0.7483
   81MOL0     H10634   2.284   5.701   4.352  0.9736 -0.2037  3.0932
   81MOL0     H10635   2.233   5.416   4.407 -1.6840 -0.4984 -1.4447
   81MOL0     H10636   2.203   5.566   4.511  1.8038 -0.8302  0.0192
   81MOL0     H10637   2.017   5.441   4.424  4.5722 -0.7785  2.2982
   81MOL0     H10638   2.057   5.493   4.258 -0.5373 -1.2122  0.7904
   81MOL0     H10639   1.996   5.733   4.316 -0.2444  4.3458  2.6391
   81MOL0     H10640   2.002   5.709   4.483 -2.6625  1.5592  0.0037
   81MOL0     H10641   1.806   5.554   4.312 -0.6569  2.3185 -0.3291
   81MOL0     H10642   1.820   5.544   4.487  0.4018  0.0789 -0.2139
   81MOL0     H10643   1.715   5.772   4.311 -3.0394  1.0246  2.1873
   81MOL0     H10644   1.760   5.792   4.485  0.3110  0.8940  0.2325
   81MOL0     H10645   1.525   5.561   4.261 -4.0431 -2.5105  0.6689
   81MOL0     H10646   1.156   5.632   4.405  0.0104  0.1949  0.2785
   81MOL0     H10647   1.233   5.474   4.390 -2.9103 -0.0416 -1.7235
   81MOL0     H10648   1.123   5.529   4.200  0.7617 -0.2702  2.1308
   81MOL0     H10649   1.292   5.505   4.154 -0.5743  0.5694 -1.0708
   81MOL0     H10650   1.140   5.768   4.180 -0.8263 -0.7390 -0.8250
   81MOL0     H10651   1.303   5.770   4.149 -1.6113  1.5848  1.1433
   81MOL0     H10652   1.204   5.784   3.927  2.2211 -0.6145 -1.4768
   81MOL0     H10653   1.099   5.644   3.950  1.4621 -0.9785  0.1705
   81MOL0     H10654   1.501   5.430   3.934 -1.6383  0.5368  0.6053
   81MOL0     H10655   1.727   5.488   3.970  1.6693  2.6180 -0.8006
   81MOL0     H10656   1.903   6.017   4.208 -0.3899 -0.2433 -1.4491
   81MOL0     H10657   2.111   6.111   4.290 -0.1100  0.7558 -0.2727
   81MOL0     H10658   2.502   6.053   4.038  0.7165  0.2782 -0.2556
   81MOL0     H10659   2.538   5.935   4.161  0.7431 -0.2079 -2.7590
   81MOL0     H10660   2.571   6.132   4.312 -1.7893 -1.9676  0.5464
   81MOL0     H10661   2.557   6.241   4.174 -1.0379 -0.4094  1.0718
   81MOL0     H10662   2.749   6.145   4.075  2.2865 -1.8607  0.0218
   81MOL0     H10663   2.777   6.035   4.198  0.3729  0.3698 -1.1095
   81MOL0     H10664   2.762   6.348   4.250  1.4406 -0.4025  1.3692
   81MOL0     H10665   2.814   6.232   4.362  0.3605  0.9688 -0.7246
   81MOL0     H10666   2.939   6.327   4.093 -0.7153 -0.0066  0.7137
   81MOL0     H10667   3.019   6.193   4.180  2.0824  0.3525  2.4062
   81MOL0     H10668   3.059   6.334   4.376 -1.2881  0.7548  0.9248
   81MOL0     H10669   2.981   6.464   4.290  1.0479  0.2639  1.4146
   81MOL0     H10670   3.143   6.435   4.097 -1.8241 -0.0894 -0.4400
   81MOL0     H10671   3.198   6.515   4.237  2.1710 -0.2301 -1.1808
   81MOL0     H10672   3.365   6.327   4.159 -2.5086 -3.0294 -3.4260
   81MOL0     H10673   3.238   6.215   4.181  0.2596 -0.3497 -2.2184
   81MOL0     H10674   2.335   5.858   4.014  1.5487  0.7979  2.5538
   81MOL0     H10675   2.120   5.777   3.931  1.2388  0.1771  0.6190
   81MOL0     H10676   1.635   5.902   3.961 -0.1142  0.6261 -0.4251
   81MOL0     H10677   1.390   5.850   3.938  0.8501  1.0579  2.6553
   81MOL0     H10678   2.412   5.617   3.876  0.9164 -2.9338 -1.0201
   81MOL0     H10679   2.528   5.659   3.668  1.0757 -2.2251  0.9649
   81MOL0     H10680   2.999   5.852   3.578  1.0345 -1.2220  0.3281
   81MOL0     H10681   3.150   5.934   3.416 -1.3251  2.9323 -1.3685
   81MOL0     H10682   3.318   5.860   3.249  0.2103 -2.4849 -2.8946
   81MOL0     H10683   3.247   6.027   3.234 -0.6146 -0.7627  1.4860
   81MOL0     H10684   3.389   5.879   2.993 -0.8112  1.2913 -2.8078
   81MOL0     H10685   3.319   6.038   2.995  0.3117 -1.4694 -2.0023
   81MOL0     H10686   3.480   6.125   3.155  2.0973 -0.9628  1.9737
   81MOL0     H10687   3.570   6.025   3.026  1.6193  0.1347  1.4285
   81MOL0     H10688   3.525   5.967   3.310  1.9923  0.5582  0.9297
   81MOL0     H10689   3.535   5.829   3.194  1.0855 -0.7638  1.2920
   81MOL0     H10690   3.932   5.928   3.212 -0.3262 -0.3835  1.6677
   81MOL0     H10691   2.944   5.725   3.105 -3.1401  0.7390 -0.2123
   81MOL0     H10692   2.801   5.620   3.279  2.6459 -0.7979 -0.4484
   82MOL0     O10693   4.995   6.497   6.163 -0.4757 -0.2802  0.0695
   82MOL0     C10694   5.052   6.611   6.171  0.7305  0.2665 -0.0528
   82MOL0     O10695   4.988   6.721   6.232 -0.7715  0.4276  0.1515
   82MOL0     C10696   4.866   6.710   6.281  0.2457  0.0574 -0.8611
   82MOL0     C10697   4.845   6.720   6.419  0.4801 -0.1164  0.2857
   82MOL0     C10698   4.727   6.703   6.480  0.5267  0.1842 -0.6023
   82MOL0     C10699   4.616   6.685   6.403  0.8837  1.1267  0.0816
   82MOL0     O10700   4.503   6.642   6.472  0.4278  0.4687 -0.0242
   82MOL0     C10701   4.398   6.577   6.394  0.3027  0.4081 -0.2174
   82MOL0     C10702   4.285   6.534   6.496 -0.9538 -0.7582  0.4773
   82MOL0     C10703   4.178   6.445   6.425  0.1175 -0.6823  0.2585
   82MOL0     C10704   4.078   6.388   6.527 -0.0483 -0.0481 -0.3990
   82MOL0     C10705   3.970   6.320   6.448 -0.3679  0.1837 -0.5870
   82MOL0     C10706   3.900   6.195   6.520  0.0055 -0.2482  0.0227
   82MOL0     C10707   3.805   6.145   6.419  0.7193 -1.0723  0.6454
   82MOL0     C10708   3.672   6.233   6.416  0.1454  0.4365 -0.2138
   82MOL0     N10709   3.580   6.173   6.317  0.5749 -0.0191  0.9562
   82MOL0     C10710   3.519   6.237   6.217  0.2144  1.7713  0.0877
   82MOL0     C10711   3.445   6.137   6.157 -0.1473  0.0018 -0.3661
   82MOL0     C10712   3.359   6.168   6.031 -0.4370 -0.5391  0.0592
   82MOL0     C10713   3.232   6.081   6.040 -0.2206 -0.5913  0.0829
   82MOL0     C10714   3.117   6.149   5.965 -0.5119  0.1235 -0.1551
   82MOL0     C10715   2.985   6.068   5.961  0.3644 -0.7329  0.7809
   82MOL0     O10716   2.878   6.172   5.984 -0.2162  0.2852  0.0122
   82MOL0     C10717   2.751   6.119   6.009  0.6837  0.2232  0.3000
   82MOL0     C10718   2.718   5.985   6.005  0.6364 -0.3766  0.9434
   82MOL0     C10719   2.587   5.941   6.004 -0.6032 -0.0504 -0.4406
   82MOL0     C10720   2.478   6.029   6.016  0.8468  0.1659 -0.8843
   82MOL0     C10721   2.336   5.988   6.003  0.1737  0.1604  0.1517
   82MOL0     O10722   2.245   6.057   6.067  1.0784 -0.2841  0.9925
   82MOL0     C10723   2.114   6.011   6.064  0.1326 -0.2340  0.5657
   82MOL0     C10724   2.034   6.039   5.958 -0.8098  0.5934 -0.3134
   82MOL0     C10725   1.908   5.976   5.943 -0.5551  0.8780 -0.0408
   82MOL0     C10726   1.847   5.906   6.048 -0.1716 -0.5354  0.0573
   82MOL0     O10727   1.717   5.869   6.046  0.8384  0.5214  0.7802
   82MOL0     C10728   1.681   5.770   6.150 -0.7515 -0.0643 -0.7238
   82MOL0     C10729   1.559   5.697   6.105 -0.3092  0.2899  0.4064
   82MOL0     C10730   1.440   5.794   6.093  0.6650  0.1776  0.4248
   82MOL0     C10731   1.310   5.712   6.051 -0.4572 -0.2613  0.9793
   82MOL0     C10732   1.257   5.628   6.156 -0.0758  0.0788 -0.4301
   82MOL0     C10733   1.123   5.567   6.115 -0.4703  0.7291 -0.1746
   82MOL0     C10734   1.031   5.509   6.225 -0.0601 -0.0431 -0.0360
   82MOL0     C10735   1.090   5.387   6.303  0.3845  1.0404 -0.2517
   82MOL0    Cl10736   1.183   5.426   6.450  0.0159 -0.1002  0.6527
   82MOL0     C10737   1.934   5.893   6.161 -0.5840 -0.1953 -0.5445
   82MOL0     C10738   2.068   5.938   6.174 -0.0668  0.3274 -0.4126
   82MOL0     O10739   2.315   5.888   5.940 -0.2743  0.5798  0.3282
   82MOL0     C10740   2.508   6.166   6.027  0.0051 -0.2278  0.3511
   82MOL0     C10741   2.645   6.209   6.027  0.0476  0.4869 -0.0465
   82MOL0     N10742   3.454   6.029   6.240 -0.2465  0.2894  0.2356
   82MOL0     N10743   3.529   6.047   6.336 -0.0392  0.0474  0.1108
   82MOL0     C10744   4.629   6.669   6.261  0.9969  0.2958  0.1686
   82MOL0     C10745   4.752   6.683   6.200  0.1534  0.4641 -0.5288
   82MOL0     C10746   5.187   6.629   6.107  0.4844 -1.4236  0.0274
   82MOL0     C10747   5.244   6.519   6.041  0.2267 -0.9200 -0.7469
   82MOL0     C10748   5.369   6.537   5.981  0.5906  0.8888  0.2775
   82MOL0     C10749   5.433   6.657   5.976 -0.7487 -0.4815 -0.3284
   82MOL0     O10750   5.551   6.651   5.912 -0.0757  0.4626 -0.4164
   82MOL0     C10751   5.565   6.741   5.804 -0.9148  0.4964 -0.3250
   82MOL0     C10752   5.670   6.689   5.705  0.0887  0.1436 -0.1721
   82MOL0     C10753   5.717   6.806   5.617  0.4158  0.6068  0.1448
   82MOL0     C10754   5.811   6.765   5.503 -0.8118  0.1400 -0.6305
   82MOL0     C10755   5.927   6.678   5.550  0.4763  0.0487 -0.7756
   82MOL0     C10756   6.015   6.609   5.599 -0.8047  0.2556  0.1710
   82MOL0     C10757   5.379   6.771   6.044 -0.2825 -0.3260  0.1231
   82MOL0     C10758   5.261   6.759   6.117  0.7852  0.2535 -0.0431
   82MOL0     H10759   4.932   6.725   6.484 -0.7417  0.4953  1.9356
   82MOL0     H10760   4.739   6.695   6.587  0.2647  0.6312 -0.5363
   82MOL0     H10761   4.442   6.484   6.357 -0.4687 -2.0930  4.3557
   82MOL0     H10762   4.353   6.642   6.319  3.3285  3.2286  0.2038
   82MOL0     H10763   4.241   6.626   6.534 -1.4148 -1.1901  1.0116
   82MOL0     H10764   4.329   6.482   6.582  1.6412 -1.4727 -1.1558
   82MOL0     H10765   4.215   6.368   6.356 -0.9739 -2.2394  1.3197
   82MOL0     H10766   4.120   6.515   6.364 -0.5083 -1.2817  0.1535
   82MOL0     H10767   4.137   6.333   6.601  0.9882  2.2861  0.6114
   82MOL0     H10768   4.030   6.467   6.586  0.2055 -0.1580 -0.0365
   82MOL0     H10769   4.014   6.275   6.359 -0.2425 -0.6148 -0.1345
   82MOL0     H10770   3.895   6.396   6.425 -2.8032 -2.4280 -1.9413
   82MOL0     H10771   3.844   6.224   6.609  1.8791 -0.7992  1.4519
   82MOL0     H10772   3.983   6.129   6.548 -0.3263 -1.1200 -0.9363
   82MOL0     H10773   3.855   6.138   6.323 -0.7043 -0.1285 -0.1983
   82MOL0     H10774   3.780   6.044   6.454 -1.2139 -0.0789  2.3659
   82MOL0     H10775   3.678   6.340   6.393 -0.2175  0.5300  0.1048
   82MOL0     H10776   3.630   6.228   6.517 -1.6930 -0.0425 -0.9709
   82MOL0     H10777   3.545   6.329   6.166 -0.1118  0.9963 -1.5737
   82MOL0     H10778   3.407   6.154   5.933 -0.9903 -1.1188 -0.1363
   82MOL0     H10779   3.335   6.273   6.017  1.5862 -0.3577 -2.7786
   82MOL0     H10780   3.189   6.063   6.138 -1.8339 -0.3329 -0.5440
   82MOL0     H10781   3.264   5.986   5.995  3.8929 -0.1229  1.5403
   82MOL0     H10782   3.102   6.249   6.006  0.4850 -0.2109  1.0749
   82MOL0     H10783   3.163   6.154   5.865  2.4081 -3.7091  0.7710
   82MOL0     H10784   2.979   5.998   6.045  0.8267  1.9767  3.2310
   82MOL0     H10785   2.973   6.026   5.861  1.8629 -0.7312  0.5704
   82MOL0     H10786   2.786   5.902   5.992 -1.1104 -2.0971  2.2069
   82MOL0     H10787   2.586   5.832   6.007  0.3584 -0.0685 -0.7343
   82MOL0     H10788   2.075   6.094   5.874  1.5585 -0.4382  0.0831
   82MOL0     H10789   1.851   5.991   5.852  0.2195  0.7202 -0.5579
   82MOL0     H10790   1.668   5.822   6.245  1.7330 -0.2321 -0.2460
   82MOL0     H10791   1.763   5.698   6.161 -1.8736 -1.0473  2.2036
   82MOL0     H10792   1.547   5.612   6.173  1.0131  0.8331  1.3494
   82MOL0     H10793   1.580   5.657   6.005  0.9922  1.8447  0.0218
   82MOL0     H10794   1.450   5.868   6.013 -2.6962 -0.3867 -0.7068
   82MOL0     H10795   1.430   5.834   6.194  1.5215 -1.4743  1.2118
   82MOL0     H10796   1.233   5.778   6.012  1.7417 -0.7766 -5.3648
   82MOL0     H10797   1.333   5.648   5.965 -2.7433  2.2513 -1.6672
   82MOL0     H10798   1.247   5.675   6.254  1.7486  0.6707 -0.5025
   82MOL0     H10799   1.327   5.548   6.180  0.5195  0.8204  0.3601
   82MOL0     H10800   1.132   5.485   6.043 -2.1361  0.4923 -0.1719
   82MOL0     H10801   1.066   5.645   6.063 -0.5091 -0.0245 -1.3178
   82MOL0     H10802   1.001   5.582   6.301  3.8296 -0.0761  1.7391
   82MOL0     H10803   0.946   5.462   6.175 -0.8024  0.5547  0.6254
   82MOL0     H10804   1.158   5.333   6.236  1.9314  3.0457 -0.3758
   82MOL0     H10805   1.001   5.331   6.334  0.1229  1.5059 -0.1563
   82MOL0     H10806   1.900   5.846   6.252  0.4498 -0.2056 -0.1498
   82MOL0     H10807   2.121   5.919   6.267  4.6397 -1.7953 -3.1999
   82MOL0     H10808   2.435   6.247   6.032  1.7653  1.5611 -1.1039
   82MOL0     H10809   2.662   6.316   6.021 -1.1848  0.6834 -0.2575
   82MOL0     H10810   4.549   6.645   6.191  0.5069  0.6945  0.5871
   82MOL0     H10811   4.765   6.674   6.093 -1.1002 -1.7722 -0.5411
   82MOL0     H10812   5.188   6.426   6.035 -3.0170  0.9298 -2.2662
   82MOL0     H10813   5.425   6.452   5.944  0.3380  1.2228 -0.9041
   82MOL0     H10814   5.617   6.834   5.829  4.4431 -2.5395  1.4037
   82MOL0     H10815   5.469   6.765   5.757  0.2353  2.0842 -2.0306
   82MOL0     H10816   5.755   6.634   5.747 -0.5980 -1.6060 -0.9544
   82MOL0     H10817   5.620   6.613   5.644  0.1067  0.4185 -0.5344
   82MOL0     H10818   5.755   6.889   5.678 -0.7129  0.5599  0.9438
   82MOL0     H10819   5.626   6.839   5.566  0.9883  2.1851  0.0723
   82MOL0     H10820   5.758   6.698   5.435  1.8853 -2.5781 -0.2692
   82MOL0     H10821   5.854   6.851   5.450 -1.7497  0.7933 -0.3608
   82MOL0     H10822   6.114   6.575   5.621 -0.1489  3.0130  2.1442
   82MOL0     H10823   5.425   6.869   6.055 -0.8356 -0.0275 -0.1797
   82MOL0     H10824   5.229   6.845   6.174  0.0103  0.8969 -1.4126
   83MOL0     O10825   4.412   9.584   1.878 -0.0203  0.6722 -0.1656
   83MOL0     C10826   4.314   9.569   1.814 -0.3638  0.4068 -0.0825
   83MOL0     O10827   4.191   9.583   1.865 -0.0850  0.3102  0.6799
   83MOL0     C10828   4.181   9.610   2.003  0.1821 -1.0879  0.9561
   83MOL0     C10829   4.093   9.713   2.041 -0.2314 -0.3139 -0.2547
   83MOL0     C10830   4.059   9.742   2.174  0.6924  0.1136  0.1122
   83MOL0     C10831   4.107   9.661   2.272  0.2752 -0.4652  0.0281
   83MOL0     O10832   4.071   9.671   2.399 -0.0617 -0.3582 -0.1165
   83MOL0     C10833   4.010   9.562   2.459  0.3452 -0.2726 -1.0658
   83MOL0     C10834   3.868   9.591   2.507  1.1653  0.3364  0.0987
   83MOL0     C10835   3.833   9.743   2.545 -0.5344  0.6702  0.4662
   83MOL0     C10836   3.723   9.735   2.644  0.4728 -0.2483 -0.1652
   83MOL0     C10837   3.685   9.873   2.694  0.2648 -0.3976 -0.1875
   83MOL0     C10838   3.606   9.847   2.824 -0.7904 -0.4273 -0.9781
   83MOL0     C10839   3.530   9.966   2.869  0.2139 -0.4199 -0.3258
   83MOL0     C10840   3.448   9.930   2.992  0.5537  0.7798  0.4749
   83MOL0     N10841   3.340  10.022   3.027  0.5237  0.0849 -0.1588
   83MOL0     C10842   3.371  10.150   3.080  0.5772  0.5360  0.1067
   83MOL0     C10843   3.266  10.217   3.078  0.9482 -0.5454  0.1504
   83MOL0     C10844   3.252  10.355   3.122 -0.2878 -0.1413 -0.2400
   83MOL0     C10845   3.186  10.347   3.262  0.1980 -0.5150 -0.3832
   83MOL0     C10846   3.162  10.488   3.304  0.4959  0.4399  1.1725
   83MOL0     C10847   3.137  10.492   3.450  0.3901  0.4065  0.4239
   83MOL0     O10848   3.050  10.390   3.492 -0.5373 -0.3802 -0.4459
   83MOL0     C10849   2.918  10.416   3.499 -0.4877  0.5761 -0.3788
   83MOL0     C10850   2.841  10.422   3.387  0.3223 -0.6347 -0.1971
   83MOL0     C10851   2.699  10.445   3.399 -1.0184  0.5000 -0.5773
   83MOL0     C10852   2.639  10.460   3.522 -0.4059 -0.5825 -0.0775
   83MOL0     C10853   2.493  10.479   3.521  0.0063  1.3121 -0.5331
   83MOL0     O10854   2.437  10.491   3.393 -0.4184 -0.1803  0.5623
   83MOL0     C10855   2.306  10.514   3.382  0.2260 -0.6314  0.3617
   83MOL0     C10856   2.212  10.438   3.443  0.1314 -0.1175 -1.1915
   83MOL0     C10857   2.076  10.467   3.448  0.3218  0.2654  0.1142
   83MOL0     C10858   2.026  10.577   3.367 -0.0776  0.1753  0.3758
   83MOL0     O10859   1.896  10.621   3.347  0.5836 -0.2362  0.4833
   83MOL0     C10860   1.805  10.593   3.454  0.0884 -0.9361  0.3401
   83MOL0     C10861   1.686  10.683   3.426 -0.6867  0.2983  0.7495
   83MOL0     C10862   1.572  10.668   3.513  0.6677 -0.1136 -0.0921
   83MOL0     C10863   1.449  10.749   3.477 -0.0516  0.4275 -1.4541
   83MOL0     C10864   1.337  10.705   3.570  0.2481 -0.4437  0.2719
   83MOL0     C10865   1.225  10.817   3.574  0.4985  0.1646  0.6734
   83MOL0     C10866   1.137  10.804   3.689  0.7629 -0.8859 -0.6331
   83MOL0     C10867   1.049  10.927   3.684  0.5295  0.1818 -0.3447
   83MOL0    Cl10868   0.913  10.906   3.806 -0.0228 -0.3374  0.0559
   83MOL0     C10869   2.119  10.649   3.294 -0.6834  0.1567 -0.2621
   83MOL0     C10870   2.255  10.625   3.308 -1.0053  0.0689  0.1254
   83MOL0     O10871   2.435  10.487   3.632 -0.4675  0.3720  0.9150
   83MOL0     C10872   2.730  10.463   3.632  0.3152 -0.8947 -0.1438
   83MOL0     C10873   2.865  10.450   3.620  0.7455  0.0462  0.7996
   83MOL0     N10874   3.162  10.133   3.033  0.6329 -0.1412 -0.4388
   83MOL0     N10875   3.204  10.014   3.007 -0.3948 -0.9759  0.6305
   83MOL0     C10876   4.202   9.560   2.235  0.1218 -1.2995  0.6768
   83MOL0     C10877   4.235   9.534   2.104  0.9501 -0.5586  0.8427
   83MOL0     C10878   4.338   9.523   1.673 -0.4776  0.1033  0.9329
   83MOL0     C10879   4.227   9.479   1.591  0.4447 -0.3253  0.4643
   83MOL0     C10880   4.245   9.412   1.475 -0.0971  0.0316  0.8877
   83MOL0     C10881   4.375   9.385   1.420  0.3441 -0.6828 -0.7314
   83MOL0     O10882   4.408   9.338   1.297  0.5791 -0.6656  0.6127
   83MOL0     C10883   4.325   9.222   1.265  0.0904  1.0888 -0.2245
   83MOL0     C10884   4.402   9.141   1.154  0.3916 -0.1269 -0.3802
   83MOL0     C10885   4.369   8.994   1.134  0.1315 -0.2519  0.7729
   83MOL0     C10886   4.428   8.904   1.247 -0.6632  0.1994  0.4405
   83MOL0     C10887   4.360   8.775   1.249 -0.2470 -0.1007  0.6148
   83MOL0     C10888   4.303   8.674   1.213 -0.0521  0.9082 -0.1730
   83MOL0     C10889   4.488   9.433   1.501 -0.8810  0.4196  0.0723
   83MOL0     C10890   4.467   9.496   1.625  0.2603 -0.7785 -0.0472
   83MOL0     H10891   4.047   9.769   1.961 -2.4551  0.5131  1.4658
   83MOL0     H10892   3.985   9.816   2.203  1.8404  2.8693 -3.3633
   83MOL0     H10893   4.083   9.543   2.538 -0.7863 -2.5449 -0.4760
   83MOL0     H10894   4.014   9.477   2.390 -0.6008  0.1636 -1.6868
   83MOL0     H10895   3.853   9.532   2.597 -2.3695  0.2074 -0.4358
   83MOL0     H10896   3.793   9.551   2.438  0.8809 -1.8750  1.6057
   83MOL0     H10897   3.804   9.793   2.451  2.6468 -1.2767 -1.7422
   83MOL0     H10898   3.928   9.780   2.582  0.0060 -0.7986  0.6180
   83MOL0     H10899   3.633   9.706   2.588 -0.5514  0.1747  1.2022
   83MOL0     H10900   3.747   9.662   2.721  1.4505 -1.1065 -1.2505
   83MOL0     H10901   3.619   9.931   2.630  0.7405  1.0816  0.6320
   83MOL0     H10902   3.774   9.934   2.715 -1.2186  1.1958  1.8613
   83MOL0     H10903   3.683   9.822   2.898 -1.0435 -1.4359 -1.0414
   83MOL0     H10904   3.538   9.762   2.821 -0.3312 -0.7774 -4.0030
   83MOL0     H10905   3.605  10.041   2.897 -0.2326  0.4814 -1.4905
   83MOL0     H10906   3.476  10.011   2.786 -0.3213 -2.1824 -0.9813
   83MOL0     H10907   3.513   9.924   3.080 -0.8785  1.1945  1.5972
   83MOL0     H10908   3.406   9.831   2.970  1.2971  0.4231  0.6254
   83MOL0     H10909   3.466  10.193   3.111  2.1098 -1.9623 -0.8345
   83MOL0     H10910   3.184  10.412   3.059 -1.6351 -1.0168  0.3573
   83MOL0     H10911   3.344  10.413   3.130  1.1870 -2.5815  3.0349
   83MOL0     H10912   3.263  10.295   3.320  0.0684  0.2131  0.4738
   83MOL0     H10913   3.090  10.296   3.249 -0.0452 -0.1511 -0.0671
   83MOL0     H10914   3.243  10.553   3.269 -0.9788  1.6810 -0.0791
   83MOL0     H10915   3.077  10.533   3.252  0.8078  1.5555  1.6120
   83MOL0     H10916   3.093  10.589   3.477 -1.9096  0.3253 -2.4622
   83MOL0     H10917   3.231  10.479   3.503 -0.9392  0.7407  3.0060
   83MOL0     H10918   2.877  10.404   3.286 -0.5250 -2.8656 -0.1768
   83MOL0     H10919   2.640  10.437   3.308  0.6455  1.0800 -1.7497
   83MOL0     H10920   2.241  10.346   3.492 -2.1344 -1.0290 -1.4414
   83MOL0     H10921   2.002  10.405   3.498  0.0538  0.4886 -0.0082
   83MOL0     H10922   1.840  10.632   3.550 -1.4124 -1.0533  0.9603
   83MOL0     H10923   1.785  10.486   3.458  0.7631 -1.0542  0.6637
   83MOL0     H10924   1.662  10.658   3.322  0.8461  0.9077  0.2182
   83MOL0     H10925   1.714  10.789   3.424 -1.9685  0.6484 -1.0723
   83MOL0     H10926   1.597  10.694   3.616  0.4504 -0.3297  0.0172
   83MOL0     H10927   1.547  10.562   3.522 -1.6064  0.3300 -0.5478
   83MOL0     H10928   1.471  10.850   3.511  3.1180 -1.4721  3.0617
   83MOL0     H10929   1.414  10.741   3.373 -0.4249 -1.6589 -1.2231
   83MOL0     H10930   1.385  10.710   3.668  2.5068 -1.1029 -0.7336
   83MOL0     H10931   1.303  10.602   3.557 -0.7570 -0.3124  1.6538
   83MOL0     H10932   1.169  10.819   3.480 -1.2974 -1.2632  1.6507
   83MOL0     H10933   1.278  10.911   3.587  1.7894 -0.2766 -1.1400
   83MOL0     H10934   1.082  10.711   3.674  0.0999 -0.2750 -2.1920
   83MOL0     H10935   1.194  10.804   3.783 -0.6567  1.8944  0.3134
   83MOL0     H10936   1.011  10.937   3.582  0.3611 -1.8034 -0.5238
   83MOL0     H10937   1.105  11.017   3.708 -1.1517  1.1361  0.1328
   83MOL0     H10938   2.088  10.734   3.234  4.7712  4.3338  1.9924
   83MOL0     H10939   2.317  10.699   3.258 -1.3762 -0.4552 -1.1647
   83MOL0     H10940   2.691  10.489   3.730  1.6702  0.4936  0.0662
   83MOL0     H10941   2.927  10.455   3.709  1.2144 -1.5749  0.5975
   83MOL0     H10942   4.252   9.491   2.303  2.8869 -2.1102 -1.9585
   83MOL0     H10943   4.294   9.446   2.078  0.6660 -0.5543  0.1669
   83MOL0     H10944   4.126   9.495   1.627 -1.3621  0.3228 -4.1137
   83MOL0     H10945   4.164   9.380   1.410  1.3063 -0.0035 -0.9502
   83MOL0     H10946   4.232   9.259   1.222  1.4342  0.8544 -3.6215
   83MOL0     H10947   4.308   9.163   1.356 -0.4468 -0.3106 -1.1961
   83MOL0     H10948   4.383   9.182   1.054  0.6936 -1.5430 -1.0623
   83MOL0     H10949   4.509   9.154   1.172  0.5545 -1.9175  0.1654
   83MOL0     H10950   4.410   8.956   1.040  1.2311 -2.1226  1.9335
   83MOL0     H10951   4.260   8.996   1.130 -0.0154 -0.8104  2.9165
   83MOL0     H10952   4.536   8.901   1.231 -0.6563 -1.7270  0.6055
   83MOL0     H10953   4.413   8.950   1.345 -0.9562 -3.4235  2.2550
   83MOL0     H10954   4.268   8.573   1.201  3.6118 -0.6256  0.5822
   83MOL0     H10955   4.591   9.415   1.473  0.5235  2.4394  3.3677
   83MOL0     H10956   4.546   9.525   1.693 -1.3540 -0.6402  1.8458
   84MOL0     O10957   3.472   1.685   2.353  0.4089  0.4713  0.1383
   84MOL0     C10958   3.370   1.654   2.410  0.4612 -0.6456 -0.2461
   84MOL0     O10959   3.361   1.633   2.547 -0.1229 -0.5678  0.5286
   84MOL0     C10960   3.448   1.698   2.630 -0.7267 -0.1673  0.1384
   84MOL0     C10961   3.475   1.643   2.760  0.3466 -0.3193  0.3135
   84MOL0     C10962   3.560   1.702   2.856 -0.0925  0.3053  0.0524
   84MOL0     C10963   3.614   1.829   2.826 -1.5389  0.4946  0.1562
   84MOL0     O10964   3.692   1.904   2.911  0.3678  0.0175  0.3569
   84MOL0     C10965   3.662   1.897   3.046 -0.5670  0.7350  0.2068
   84MOL0     C10966   3.535   1.961   3.081  0.1294 -0.3171  0.3072
   84MOL0     C10967   3.545   2.115   3.071  0.3923  0.7021 -0.0102
   84MOL0     C10968   3.401   2.164   3.052  0.2163 -0.1742 -0.6895
   84MOL0     C10969   3.393   2.309   3.081 -0.4628 -0.2885 -0.0098
   84MOL0     C10970   3.257   2.356   3.044 -0.0415 -0.8919  0.3506
   84MOL0     C10971   3.223   2.496   3.089  0.1894  0.7666  0.4047
   84MOL0     C10972   3.224   2.507   3.239  0.2552 -0.0428 -0.4423
   84MOL0     N10973   3.237   2.650   3.276  0.5144 -0.2275 -0.0348
   84MOL0     C10974   3.142   2.750   3.265  0.4059 -0.2179 -0.2271
   84MOL0     C10975   3.198   2.863   3.312  0.1674 -0.2453  0.2022
   84MOL0     C10976   3.125   2.991   3.321  0.1578  0.5925  0.4294
   84MOL0     C10977   3.149   3.062   3.458 -0.8369  0.0898  0.6159
   84MOL0     C10978   3.072   3.196   3.472 -0.0091 -0.1484  0.3746
   84MOL0     C10979   3.028   3.224   3.616  0.3165 -0.9343 -0.6180
   84MOL0     O10980   2.944   3.344   3.615  0.4078 -0.1578 -0.0953
   84MOL0     C10981   2.818   3.351   3.665 -0.5510  0.4921  0.1410
   84MOL0     C10982   2.736   3.442   3.608 -0.0089  0.4813 -0.1385
   84MOL0     C10983   2.611   3.471   3.667  0.4263 -0.3036  0.0226
   84MOL0     C10984   2.563   3.392   3.769  0.0635  1.4515 -0.0890
   84MOL0     C10985   2.428   3.425   3.831 -0.4309  0.1645  0.5659
   84MOL0     O10986   2.350   3.519   3.761 -0.2235 -0.8663  0.2122
   84MOL0     C10987   2.244   3.583   3.830  0.4381  0.1634 -0.8890
   84MOL0     C10988   2.123   3.585   3.757  1.4244  0.5371  0.2544
   84MOL0     C10989   2.013   3.648   3.810 -0.1679  0.5100  0.5031
   84MOL0     C10990   2.013   3.704   3.939 -0.3203 -0.4440  0.4136
   84MOL0     O10991   1.893   3.765   3.982 -0.6237  0.1525 -0.4423
   84MOL0     C10992   1.864   3.787   4.120  0.4615 -0.1913  0.5229
   84MOL0     C10993   1.722   3.846   4.130  0.3295  0.5663  0.5729
   84MOL0     C10994   1.620   3.761   4.058  0.2572  0.3639 -0.2238
   84MOL0     C10995   1.494   3.844   4.050  0.2630 -0.2471 -0.4435
   84MOL0     C10996   1.383   3.758   3.990 -0.3345 -0.1215  0.4486
   84MOL0     C10997   1.260   3.832   3.951 -0.0421  0.5476 -0.8388
   84MOL0     C10998   1.167   3.873   4.062  0.0913 -0.1372 -0.6207
   84MOL0     C10999   1.019   3.876   4.029 -0.0220 -0.0242  0.2706
   84MOL0    Cl11000   0.918   3.909   4.175  0.1731 -0.3653  0.4420
   84MOL0     C11001   2.136   3.702   4.017  0.8607  0.4653 -0.0100
   84MOL0     C11002   2.246   3.648   3.956  0.7420  0.3136 -0.7829
   84MOL0     O11003   2.393   3.386   3.946 -0.7474 -0.0935  0.4572
   84MOL0     C11004   2.643   3.289   3.829  0.7808 -1.2033  0.0147
   84MOL0     C11005   2.776   3.281   3.778  0.2264  0.1854 -0.5311
   84MOL0     N11006   3.324   2.836   3.361  0.2400  0.5625 -0.3606
   84MOL0     N11007   3.350   2.716   3.324 -0.2341 -0.1502  0.3945
   84MOL0     C11008   3.591   1.889   2.701  0.7306  0.2292 -0.3435
   84MOL0     C11009   3.503   1.828   2.612 -0.4068 -0.4144  0.4240
   84MOL0     C11010   3.244   1.652   2.325  0.1228 -0.3894 -0.0121
   84MOL0     C11011   3.250   1.693   2.195  0.3759  0.6349  0.4352
   84MOL0     C11012   3.138   1.681   2.114  0.1717 -1.0199 -0.4294
   84MOL0     C11013   3.014   1.634   2.155  0.5547  0.0910  0.6893
   84MOL0     O11014   2.904   1.633   2.066 -0.3991 -0.0762 -0.1586
   84MOL0     C11015   2.776   1.626   2.122  0.4803  0.2754  0.5598
   84MOL0     C11016   2.724   1.487   2.096  0.0592 -0.0215 -0.3533
   84MOL0     C11017   2.584   1.454   2.148 -0.5286 -1.1567  0.8957
   84MOL0     C11018   2.550   1.318   2.103 -0.3865  0.9383  1.0341
   84MOL0     C11019   2.650   1.221   2.152 -0.2606  0.5056  0.3317
   84MOL0     C11020   2.750   1.161   2.193 -0.0363 -0.0680 -0.4776
   84MOL0     C11021   3.002   1.604   2.294 -0.1128  0.5256  1.2642
   84MOL0     C11022   3.115   1.605   2.378 -0.5640  1.0739  0.3767
   84MOL0     H11023   3.424   1.551   2.786 -0.2566  0.1598  0.8618
   84MOL0     H11024   3.579   1.654   2.952  2.3215  1.2009  0.0982
   84MOL0     H11025   3.737   1.954   3.103 -0.3960 -0.4491  1.1924
   84MOL0     H11026   3.662   1.794   3.081 -1.5717  0.9722  0.9411
   84MOL0     H11027   3.488   1.931   3.175 -1.4659 -1.0359 -0.6727
   84MOL0     H11028   3.463   1.921   3.008  1.4263  1.6242 -2.2294
   84MOL0     H11029   3.603   2.133   2.981 -1.3163  2.4717 -0.8348
   84MOL0     H11030   3.606   2.151   3.154 -0.6534 -1.1251  1.6540
   84MOL0     H11031   3.379   2.152   2.945 -1.6565  2.2116 -0.6397
   84MOL0     H11032   3.331   2.104   3.111  0.2338  0.6900  0.2308
   84MOL0     H11033   3.464   2.358   3.015  2.9442 -4.5866 -0.0277
   84MOL0     H11034   3.408   2.320   3.188 -0.5977 -0.3805  0.0192
   84MOL0     H11035   3.187   2.285   3.089 -1.3106  0.6932  1.0126
   84MOL0     H11036   3.245   2.361   2.935 -1.1680 -0.7371  0.4676
   84MOL0     H11037   3.282   2.577   3.045 -0.7334  0.6372 -1.1532
   84MOL0     H11038   3.123   2.520   3.051 -0.4480  1.5884  2.4466
   84MOL0     H11039   3.313   2.460   3.283 -0.3605 -3.0748 -2.1125
   84MOL0     H11040   3.137   2.451   3.276  0.3048  2.7635  4.8303
   84MOL0     H11041   3.040   2.754   3.229  0.0589  1.8057  0.8583
   84MOL0     H11042   3.016   2.977   3.316  0.1988 -0.5078  1.9390
   84MOL0     H11043   3.157   3.058   3.241  0.5835  0.8640  0.8193
   84MOL0     H11044   3.255   3.087   3.460 -0.3905 -1.6625  0.5673
   84MOL0     H11045   3.115   2.998   3.541 -1.2391  0.5736  0.8287
   84MOL0     H11046   3.127   3.283   3.434  2.9498 -2.3962 -0.8395
   84MOL0     H11047   2.983   3.173   3.412  1.6850 -2.6005 -1.3831
   84MOL0     H11048   3.112   3.237   3.685 -0.3996 -1.2374  0.3311
   84MOL0     H11049   2.982   3.132   3.652 -2.1158 -0.9255 -3.3407
   84MOL0     H11050   2.765   3.492   3.516 -2.8985 -0.3592 -1.6221
   84MOL0     H11051   2.549   3.551   3.626 -0.8767 -1.7120 -0.8652
   84MOL0     H11052   2.124   3.550   3.655  1.3003 -1.7304  0.9736
   84MOL0     H11053   1.921   3.654   3.753  1.5225  1.6725 -2.2775
   84MOL0     H11054   1.937   3.857   4.163 -0.2128  2.7582 -2.6968
   84MOL0     H11055   1.858   3.695   4.179  2.0899 -0.5991  0.1201
   84MOL0     H11056   1.722   3.947   4.086 -0.3453 -0.3055 -1.5932
   84MOL0     H11057   1.701   3.853   4.237  1.0064 -0.8888  0.8249
   84MOL0     H11058   1.603   3.666   4.111 -0.6736  0.4343 -0.3812
   84MOL0     H11059   1.647   3.738   3.954 -1.9323 -1.7179 -0.4096
   84MOL0     H11060   1.462   3.883   4.147 -0.0346  1.2729 -1.1274
   84MOL0     H11061   1.522   3.921   3.978  1.4509 -2.4770 -2.5185
   84MOL0     H11062   1.358   3.677   4.061  1.6388 -0.9435  0.2646
   84MOL0     H11063   1.424   3.712   3.900  0.7245  1.0739  0.3090
   84MOL0     H11064   1.197   3.774   3.883 -2.4135  1.0535  0.7907
   84MOL0     H11065   1.289   3.926   3.905  2.0500  0.0559 -0.6129
   84MOL0     H11066   1.186   3.801   4.142  1.2178  0.1076 -0.6552
   84MOL0     H11067   1.191   3.971   4.104 -1.3973  0.1733 -0.4283
   84MOL0     H11068   0.994   3.773   4.001  1.7883 -1.3632  3.0348
   84MOL0     H11069   1.001   3.937   3.940 -2.1407 -3.9861 -2.2972
   84MOL0     H11070   2.126   3.746   4.115 -2.8945  0.2288 -0.1397
   84MOL0     H11071   2.338   3.658   4.014 -0.3215  4.4325  0.5775
   84MOL0     H11072   2.610   3.245   3.922  1.1175 -3.1938 -0.7772
   84MOL0     H11073   2.851   3.217   3.825 -0.2512 -0.2536 -0.3531
   84MOL0     H11074   3.632   1.990   2.696  0.8498  0.1816 -0.3332
   84MOL0     H11075   3.478   1.891   2.527 -0.3550 -0.3383  0.4649
   84MOL0     H11076   3.347   1.719   2.151  1.4499 -2.8576  0.4271
   84MOL0     H11077   3.150   1.704   2.008  1.6038 -1.0124 -0.2818
   84MOL0     H11078   2.710   1.697   2.071  0.1531  0.7020  1.5483
   84MOL0     H11079   2.768   1.642   2.230 -0.3134 -5.2835  1.6385
   84MOL0     H11080   2.714   1.472   1.989 -0.0720  2.3472 -0.7352
   84MOL0     H11081   2.794   1.416   2.142  1.5548  0.2610 -2.1039
   84MOL0     H11082   2.507   1.520   2.109  0.6170  0.6392  1.5230
   84MOL0     H11083   2.587   1.462   2.257  1.4791 -0.9266  0.8663
   84MOL0     H11084   2.448   1.287   2.126 -1.2009  3.1052  0.5966
   84MOL0     H11085   2.554   1.319   1.994 -1.4355 -0.4947  0.9636
   84MOL0     H11086   2.849   1.134   2.222  0.5384  2.0455 -0.3369
   84MOL0     H11087   2.911   1.565   2.340 -0.6214 -2.9895 -2.2120
   84MOL0     H11088   3.120   1.573   2.482  4.6715 -1.4559 -0.2980
   85MOL0     O11089   4.887   7.957   3.784  0.0083 -0.0245  0.6001
   85MOL0     C11090   4.963   7.890   3.859 -0.4747  0.3013  0.2773
   85MOL0     O11091   4.922   7.807   3.959  0.3439  0.2382  0.2438
   85MOL0     C11092   4.792   7.826   3.995 -0.6737  0.5119  0.7381
   85MOL0     C11093   4.694   7.749   3.934  1.0092 -0.1811 -0.0822
   85MOL0     C11094   4.566   7.756   3.989  0.2769 -0.1199 -0.0360
   85MOL0     C11095   4.535   7.846   4.096 -0.1273  0.1914  0.0909
   85MOL0     O11096   4.416   7.849   4.162  0.7759  0.7102  0.5965
   85MOL0     C11097   4.292   7.852   4.096 -0.5917  0.1903  0.1169
   85MOL0     C11098   4.173   7.801   4.188 -0.3905 -0.1341 -0.3819
   85MOL0     C11099   4.161   7.878   4.324 -0.4890  0.4649 -1.2049
   85MOL0     C11100   4.044   7.829   4.406  0.1159 -0.4379  0.0235
   85MOL0     C11101   4.022   7.913   4.531  0.2225  0.2997 -0.0209
   85MOL0     C11102   3.879   7.899   4.583  0.8437  0.3738 -0.2652
   85MOL0     C11103   3.839   7.763   4.649 -0.7102 -0.1475 -0.1398
   85MOL0     C11104   3.704   7.772   4.712  0.2386  0.2248  0.4500
   85MOL0     N11105   3.691   7.802   4.853 -0.0923  0.9506  0.5864
   85MOL0     C11106   3.695   7.708   4.951 -0.8540 -0.6231 -0.0208
   85MOL0     C11107   3.673   7.771   5.062 -0.9432  0.3064 -0.1854
   85MOL0     C11108   3.669   7.708   5.196 -0.2790 -0.7656  0.0808
   85MOL0     C11109   3.534   7.622   5.218 -0.0797  0.9189  0.9379
   85MOL0     C11110   3.414   7.717   5.221  0.6048  0.4902  0.2114
   85MOL0     C11111   3.281   7.637   5.224  0.5832  0.7841  0.7754
   85MOL0     O11112   3.166   7.714   5.191  0.3326  0.6285 -0.9781
   85MOL0     C11113   3.033   7.664   5.208 -0.0603  0.2698  0.2332
   85MOL0     C11114   3.005   7.556   5.289 -1.1154  0.0890  0.5410
   85MOL0     C11115   2.875   7.508   5.305 -0.1665 -0.1877 -0.2756
   85MOL0     C11116   2.760   7.566   5.243 -0.1062 -0.5251  0.0699
   85MOL0     C11117   2.620   7.520   5.258 -0.4060 -0.0535 -0.0342
   85MOL0     O11118   2.525   7.597   5.204  0.5102  0.2888  0.8088
   85MOL0     C11119   2.400   7.536   5.203  0.2431 -0.1691  0.3132
   85MOL0     C11120   2.334   7.553   5.326  1.8963 -0.2091 -0.5470
   85MOL0     C11121   2.216   7.472   5.328  0.6317  1.1727 -0.2860
   85MOL0     C11122   2.162   7.408   5.220  0.1436 -0.3625 -0.4307
   85MOL0     O11123   2.041   7.345   5.244 -0.5093 -0.1287  0.3755
   85MOL0     C11124   2.000   7.269   5.132  0.8877 -0.2415 -0.7459
   85MOL0     C11125   1.887   7.182   5.187  0.3569  0.4242  0.0490
   85MOL0     C11126   1.783   7.140   5.072 -0.2910  0.4962 -0.0857
   85MOL0     C11127   1.701   7.023   5.137  0.4532 -0.3066 -0.4442
   85MOL0     C11128   1.557   7.077   5.172  0.8223  0.4852  0.5894
   85MOL0     C11129   1.484   6.985   5.279 -0.3712 -0.1001 -0.4508
   85MOL0     C11130   1.360   7.057   5.330  0.5000  0.0649 -0.1029
   85MOL0     C11131   1.256   7.100   5.229 -0.5706  0.2832  0.1505
   85MOL0    Cl11132   1.197   6.958   5.142 -0.0111 -0.2546  0.1066
   85MOL0     C11133   2.238   7.392   5.103 -0.3798 -0.6956 -0.2762
   85MOL0     C11134   2.358   7.459   5.094  0.3970  0.2790  0.1314
   85MOL0     O11135   2.610   7.419   5.330  0.0685 -0.4076  0.3984
   85MOL0     C11136   2.794   7.679   5.167 -0.0222 -0.2497 -0.0862
   85MOL0     C11137   2.929   7.724   5.147  0.4517  0.8964 -0.5453
   85MOL0     N11138   3.646   7.898   5.033  0.2038  0.0179  0.3977
   85MOL0     N11139   3.676   7.920   4.909 -0.9207  0.0217  0.6923
   85MOL0     C11140   4.640   7.907   4.166 -0.2479  0.2916  0.0651
   85MOL0     C11141   4.768   7.900   4.110  0.2015  0.2044  0.0595
   85MOL0     C11142   5.109   7.900   3.838  0.0974  0.7829 -0.5055
   85MOL0     C11143   5.151   7.985   3.734 -0.4864 -0.2327 -0.4008
   85MOL0     C11144   5.290   7.998   3.711 -0.3863  0.0703  0.3438
   85MOL0     C11145   5.389   7.949   3.798  0.3136  0.8312  0.0939
   85MOL0     O11146   5.531   7.963   3.793  0.3607  0.0808 -0.2997
   85MOL0     C11147   5.582   7.997   3.671  0.1434 -0.6707 -0.9266
   85MOL0     C11148   5.623   8.146   3.663 -0.4639  0.4624  0.5838
   85MOL0     C11149   5.738   8.189   3.759 -0.1328  0.1638 -0.4787
   85MOL0     C11150   5.694   8.323   3.829  0.3499 -0.2596 -0.7853
   85MOL0     C11151   5.804   8.393   3.894 -0.4702  0.6817 -0.7367
   85MOL0     C11152   5.888   8.472   3.939  0.3748  0.2727 -0.7230
   85MOL0     C11153   5.348   7.871   3.904 -0.6268 -0.1700  0.2877
   85MOL0     C11154   5.207   7.831   3.923 -0.0415  0.8434  0.7049
   85MOL0     H11155   4.722   7.680   3.855  0.6774  0.3013 -0.6396
   85MOL0     H11156   4.487   7.687   3.961  0.9150 -0.2429 -1.6066
   85MOL0     H11157   4.291   7.794   4.003  1.0891 -0.0060  0.1976
   85MOL0     H11158   4.274   7.956   4.066  2.6456  0.3996 -1.5845
   85MOL0     H11159   4.189   7.694   4.204  0.1285 -0.3994 -2.3915
   85MOL0     H11160   4.082   7.819   4.130 -0.4516  2.7017  0.4058
   85MOL0     H11161   4.162   7.986   4.308 -0.2425  0.7943  0.7607
   85MOL0     H11162   4.247   7.870   4.391 -0.2647  0.4922 -1.4897
   85MOL0     H11163   3.959   7.827   4.337  1.7054 -0.9424 -2.0117
   85MOL0     H11164   4.076   7.728   4.432  0.6528  0.1134  1.6361
   85MOL0     H11165   4.029   8.019   4.506 -1.1104  0.4705  0.2832
   85MOL0     H11166   4.099   7.904   4.608  0.9522 -1.9538 -0.9301
   85MOL0     H11167   3.823   7.915   4.490  3.0475  3.3323 -1.2238
   85MOL0     H11168   3.866   7.984   4.651  1.8577  0.2948  0.0291
   85MOL0     H11169   3.832   7.690   4.568 -0.4399 -0.6929  0.3177
   85MOL0     H11170   3.916   7.732   4.721 -2.4127 -1.1428  1.3544
   85MOL0     H11171   3.656   7.675   4.702  0.6797  0.0590 -0.1457
   85MOL0     H11172   3.651   7.848   4.654 -1.2667 -1.2231 -0.1521
   85MOL0     H11173   3.695   7.601   4.933 -2.1578 -0.5226 -0.7651
   85MOL0     H11174   3.672   7.783   5.276 -0.7496 -0.6004 -0.0570
   85MOL0     H11175   3.756   7.643   5.209 -0.3125 -1.3465 -2.1558
   85MOL0     H11176   3.544   7.563   5.310  0.8657  0.0275  0.2971
   85MOL0     H11177   3.534   7.542   5.143  1.0843 -0.0771  1.9577
   85MOL0     H11178   3.432   7.787   5.303  5.0754  1.5521 -1.4144
   85MOL0     H11179   3.395   7.776   5.131 -3.6603  1.0867  1.2775
   85MOL0     H11180   3.262   7.593   5.322  0.0284 -1.0546 -0.1162
   85MOL0     H11181   3.286   7.554   5.153 -1.8147  0.1113  1.2987
   85MOL0     H11182   3.079   7.503   5.347  0.2592 -0.2367 -1.4164
   85MOL0     H11183   2.862   7.428   5.378  1.1124  0.5123  0.7652
   85MOL0     H11184   2.390   7.590   5.411  0.9693  1.9005 -0.7961
   85MOL0     H11185   2.163   7.470   5.422 -1.5539 -0.2988 -1.4692
   85MOL0     H11186   2.076   7.207   5.083  2.6809  2.6443 -1.8972
   85MOL0     H11187   1.947   7.320   5.051 -0.4338  2.6685  1.7447
   85MOL0     H11188   1.833   7.235   5.266 -1.6855 -1.1425 -0.2022
   85MOL0     H11189   1.937   7.094   5.229 -0.4032 -0.0144  0.0538
   85MOL0     H11190   1.827   7.102   4.979 -0.6997 -0.0470 -0.0613
   85MOL0     H11191   1.723   7.229   5.050 -2.2463  0.4305  4.0351
   85MOL0     H11192   1.680   6.954   5.055 -1.2834 -1.0582  0.5715
   85MOL0     H11193   1.755   6.982   5.223  4.0923  3.6660 -0.5051
   85MOL0     H11194   1.493   7.085   5.084 -2.5174 -2.7918  2.4440
   85MOL0     H11195   1.574   7.174   5.219  0.8249 -1.0050  3.8955
   85MOL0     H11196   1.549   6.965   5.365 -0.4764  1.6776  0.1018
   85MOL0     H11197   1.454   6.891   5.231  0.8349 -0.8763  0.2848
   85MOL0     H11198   1.304   6.996   5.402  2.2427  0.3301  1.5476
   85MOL0     H11199   1.382   7.151   5.381 -2.2147  0.5930  0.2396
   85MOL0     H11200   1.287   7.182   5.163 -0.8926 -0.0040 -0.3612
   85MOL0     H11201   1.173   7.128   5.293  0.0744  1.8041  0.3563
   85MOL0     H11202   2.222   7.334   5.012  0.7491  0.2214 -1.0960
   85MOL0     H11203   2.431   7.459   5.013 -0.3284  3.6733 -0.6917
   85MOL0     H11204   2.719   7.732   5.108  0.5543 -0.1477 -0.7295
   85MOL0     H11205   2.945   7.802   5.074  3.1626 -0.5827 -1.6569
   85MOL0     H11206   4.622   7.966   4.255 -1.0609  1.3728 -0.7949
   85MOL0     H11207   4.854   7.945   4.158 -0.9092 -0.8288  3.2183
   85MOL0     H11208   5.081   8.051   3.684  0.7852  0.6303 -1.1195
   85MOL0     H11209   5.304   8.063   3.625  0.2753 -1.2659 -0.6068
   85MOL0     H11210   5.522   7.970   3.583 -1.3919 -2.2007  0.5391
   85MOL0     H11211   5.681   7.950   3.674  0.5579  0.0818  3.8700
   85MOL0     H11212   5.666   8.164   3.564  2.2095  1.6679  1.8328
   85MOL0     H11213   5.538   8.213   3.683  0.8675  2.0636  1.1425
   85MOL0     H11214   5.825   8.215   3.698  1.0976 -1.3635  0.5558
   85MOL0     H11215   5.766   8.115   3.834 -1.6276  0.5231  0.4925
   85MOL0     H11216   5.670   8.397   3.751 -0.9853  3.3983  2.7687
   85MOL0     H11217   5.611   8.312   3.898  0.0569  2.5269 -0.5897
   85MOL0     H11218   5.968   8.526   3.987  0.5122 -1.9670  1.7857
   85MOL0     H11219   5.430   7.821   3.956  0.3538  0.3199 -0.7340
   85MOL0     H11220   5.177   7.751   3.989  0.5189  0.5535  0.6150
   86MOL0     O11221   5.177   0.055   7.350 -0.2576 -0.0158  0.2378
   86MOL0     C11222   5.136   0.126   7.440 -0.4363  0.2870  0.0103
   86MOL0     O11223   5.046   0.086   7.539  0.4871 -0.1801  0.5869
   86MOL0     C11224   5.003  -0.044   7.528  0.0312  0.5044 -0.5634
   86MOL0     C11225   5.095  -0.150   7.516 -0.7313  0.6974  0.0728
   86MOL0     C11226   5.047  -0.287   7.505 -0.4698  0.1360  0.4838
   86MOL0     C11227   4.910  -0.309   7.488  0.1763  0.0956  1.1991
   86MOL0     O11228   4.860  -0.433   7.469  0.6090  0.5309  0.1339
   86MOL0     C11229   4.942  -0.552   7.470  0.2060  1.0280 -0.1650
   86MOL0     C11230   4.973  -0.605   7.613  0.3011  0.1175  0.1908
   86MOL0     C11231   4.863  -0.706   7.671  0.2336 -0.5882  1.2625
   86MOL0     C11232   4.742  -0.624   7.732 -0.4529 -0.2285  0.4577
   86MOL0     C11233   4.656  -0.701   7.826  0.8778  0.2643  0.4515
   86MOL0     C11234   4.568  -0.615   7.916  0.6164 -0.1435 -0.3390
   86MOL0     C11235   4.449  -0.702   7.963 -0.1615  0.4173  0.5571
   86MOL0     C11236   4.347  -0.612   8.044 -0.3109  0.8081 -0.3368
   86MOL0     N11237   4.249  -0.714   8.088 -0.2169 -0.1402 -0.7687
   86MOL0     C11238   4.117  -0.698   8.073 -0.1725 -0.6930  0.6816
   86MOL0     C11239   4.049  -0.808   8.126 -0.4231 -0.1194 -0.1133
   86MOL0     C11240   3.903  -0.843   8.146  1.0464 -0.3994  0.4547
   86MOL0     C11241   3.840  -0.908   8.015  0.1323 -0.1309 -0.4728
   86MOL0     C11242   3.695  -0.952   8.018 -0.2391  0.1710  0.1976
   86MOL0     C11243   3.652  -1.057   8.116  0.4730 -0.4119 -0.1857
   86MOL0     O11244   3.656  -1.006   8.250  0.7247 -0.2230 -0.3359
   86MOL0     C11245   3.608  -1.080   8.351  0.6652 -0.4465 -0.3560
   86MOL0     C11246   3.584  -1.019   8.474  0.1724  0.2498  0.1988
   86MOL0     C11247   3.531  -1.103   8.571  0.3023 -0.7230 -0.3384
   86MOL0     C11248   3.499  -1.238   8.562 -0.2872  0.3277 -0.0203
   86MOL0     C11249   3.426  -1.312   8.673  0.3401 -0.8842 -0.2540
   86MOL0     O11250   3.360  -1.224   8.767  0.2654  0.4892 -0.2485
   86MOL0     C11251   3.302  -1.275   8.886 -1.0943 -0.1066 -0.8048
   86MOL0     C11252   3.323  -1.222   9.016  0.0362 -0.7318  0.0668
   86MOL0     C11253   3.231  -1.255   9.117  0.3310  0.3481 -0.0336
   86MOL0     C11254   3.127  -1.339   9.099  1.0293 -0.6882  0.2949
   86MOL0     O11255   3.051  -1.364   9.210  0.0601  0.9799  0.3462
   86MOL0     C11256   2.915  -1.415   9.185  0.5812  0.2009 -0.0235
   86MOL0     C11257   2.841  -1.415   9.315 -0.6793  0.2121 -0.1470
   86MOL0     C11258   2.718  -1.501   9.300 -0.0757  0.1381 -0.1628
   86MOL0     C11259   2.640  -1.505   9.434 -0.9650  0.5374  0.6583
   86MOL0     C11260   2.506  -1.592   9.427  0.0830 -0.1442  0.8084
   86MOL0     C11261   2.450  -1.621   9.567  0.6522 -0.0208 -0.0659
   86MOL0     C11262   2.313  -1.681   9.547  0.1355  0.6576 -0.2881
   86MOL0     C11263   2.257  -1.741   9.677 -0.0059  0.4155  1.0652
   86MOL0    Cl11264   2.079  -1.743   9.664  0.6238 -0.4408  0.5160
   86MOL0     C11265   3.113  -1.399   8.977  0.3583  0.0888 -0.5796
   86MOL0     C11266   3.196  -1.362   8.870 -0.0091 -0.3337  0.5339
   86MOL0     O11267   3.432  -1.433   8.675  0.7923  0.8716  0.5580
   86MOL0     C11268   3.541  -1.296   8.438  0.0422  1.1820  0.3054
   86MOL0     C11269   3.600  -1.220   8.338  0.2941  1.2005  0.3011
   86MOL0     N11270   4.145  -0.885   8.178 -0.3895 -0.0678 -0.6090
   86MOL0     N11271   4.262  -0.828   8.172 -0.3645 -0.4170 -0.0639
   86MOL0     C11272   4.820  -0.200   7.475 -0.4180  0.5128 -0.5240
   86MOL0     C11273   4.862  -0.069   7.504 -0.7904 -0.1681  0.8233
   86MOL0     C11274   5.218   0.255   7.453 -0.4339  0.7784 -0.0046
   86MOL0     C11275   5.203   0.321   7.573 -0.1907  0.4223 -0.3719
   86MOL0     C11276   5.283   0.436   7.592  0.4108 -0.1592  0.3018
   86MOL0     C11277   5.363   0.497   7.497 -0.2201 -0.4095 -0.4949
   86MOL0     O11278   5.430   0.621   7.507  0.8970  0.0165  0.1106
   86MOL0     C11279   5.415   0.691   7.629 -0.1299  0.4838  0.1993
   86MOL0     C11280   5.495   0.829   7.629 -1.1589  0.0157  0.9130
   86MOL0     C11281   5.647   0.810   7.587  1.1667  0.0162  0.7262
   86MOL0     C11282   5.679   0.938   7.503  0.7001  0.9299 -0.4957
   86MOL0     C11283   5.822   0.927   7.464 -0.6156  0.5660 -0.4867
   86MOL0     C11284   5.942   0.945   7.452 -0.1441 -0.1103  0.6958
   86MOL0     C11285   5.370   0.434   7.376 -0.4408 -0.0184 -0.1099
   86MOL0     C11286   5.297   0.316   7.352  0.9354 -0.8321 -0.6497
   86MOL0     H11287   5.201  -0.132   7.527 -0.7496 -0.1893  2.2420
   86MOL0     H11288   5.124  -0.363   7.494  0.4278  1.1341 -0.4068
   86MOL0     H11289   5.034  -0.537   7.413  0.4290  0.0328 -0.0674
   86MOL0     H11290   4.891  -0.637   7.423  3.2710 -1.4792  0.7219
   86MOL0     H11291   4.979  -0.532   7.695 -0.4940 -1.9376  2.2053
   86MOL0     H11292   5.070  -0.656   7.612  0.7965  0.7868  3.4103
   86MOL0     H11293   4.918  -0.753   7.753  2.3008 -0.2705  0.1455
   86MOL0     H11294   4.834  -0.780   7.596 -0.0812 -1.6585  2.4053
   86MOL0     H11295   4.783  -0.542   7.791  1.2583  0.5777 -1.7153
   86MOL0     H11296   4.682  -0.589   7.648  1.3945 -1.2898 -1.3951
   86MOL0     H11297   4.712  -0.755   7.903  2.1764  0.4019 -0.3860
   86MOL0     H11298   4.604  -0.775   7.764 -0.0624  0.4888  0.9431
   86MOL0     H11299   4.516  -0.533   7.865 -2.4259 -2.0287 -0.4921
   86MOL0     H11300   4.625  -0.583   8.005 -2.3812 -1.2407  2.1469
   86MOL0     H11301   4.403  -0.748   7.874  0.5810  2.4766 -0.9550
   86MOL0     H11302   4.480  -0.791   8.019 -1.8899 -0.3870  0.3063
   86MOL0     H11303   4.307  -0.533   7.980  0.6155  1.0168 -0.6652
   86MOL0     H11304   4.404  -0.568   8.126  1.5616  0.6496 -1.4882
   86MOL0     H11305   4.077  -0.612   8.020  0.8110  0.3117  1.5264
   86MOL0     H11306   3.858  -0.744   8.159  0.6637 -0.2554 -1.5584
   86MOL0     H11307   3.889  -0.909   8.232  1.0395 -0.4670  0.4014
   86MOL0     H11308   3.907  -0.987   7.978 -1.3585 -1.0752 -1.2630
   86MOL0     H11309   3.862  -0.831   7.941  3.3318  0.3549  0.7858
   86MOL0     H11310   3.629  -0.866   8.034 -1.1312 -0.2282 -1.2008
   86MOL0     H11311   3.674  -0.994   7.919 -2.1805  1.2144  0.0965
   86MOL0     H11312   3.700  -1.154   8.104  0.2514 -0.3081 -2.3096
   86MOL0     H11313   3.545  -1.079   8.103  1.0863 -2.3230 -2.8342
   86MOL0     H11314   3.617  -0.919   8.499 -1.8225  0.8832  0.4437
   86MOL0     H11315   3.526  -1.066   8.673 -1.0447 -1.0880 -0.2520
   86MOL0     H11316   3.409  -1.163   9.043  0.3929 -0.9595 -0.5619
   86MOL0     H11317   3.237  -1.216   9.218 -2.5117  4.7613 -1.2733
   86MOL0     H11318   2.921  -1.511   9.134  0.4294  0.0982  0.1529
   86MOL0     H11319   2.873  -1.334   9.125  1.1208  1.4932  1.2789
   86MOL0     H11320   2.814  -1.314   9.349  2.8013  1.3559 -0.3969
   86MOL0     H11321   2.899  -1.466   9.392  1.6334  1.6527 -0.8430
   86MOL0     H11322   2.749  -1.600   9.265  0.0959  0.0452  0.2486
   86MOL0     H11323   2.666  -1.444   9.222 -1.0770 -1.5200 -0.7492
   86MOL0     H11324   2.696  -1.538   9.522 -0.2651 -1.6084 -0.5360
   86MOL0     H11325   2.612  -1.402   9.460  0.2781  1.2843 -0.7878
   86MOL0     H11326   2.529  -1.685   9.373 -0.1284  1.2185 -1.7680
   86MOL0     H11327   2.434  -1.538   9.365  0.9525  0.5895  0.4164
   86MOL0     H11328   2.440  -1.538   9.637 -0.0872 -2.4248  2.8931
   86MOL0     H11329   2.525  -1.681   9.619  2.5941  1.9351 -0.4360
   86MOL0     H11330   2.239  -1.605   9.521 -0.1062  0.7108  0.5205
   86MOL0     H11331   2.315  -1.752   9.463 -4.3188 -2.6918  1.9902
   86MOL0     H11332   2.287  -1.685   9.766 -0.3116  0.3911  1.1861
   86MOL0     H11333   2.282  -1.846   9.689 -2.0889 -0.2150  0.4332
   86MOL0     H11334   3.034  -1.470   8.954  0.7924 -0.0267 -1.7971
   86MOL0     H11335   3.173  -1.398   8.771 -2.2992  2.3164 -0.0342
   86MOL0     H11336   3.513  -1.399   8.418  0.3201  0.9598  1.0255
   86MOL0     H11337   3.626  -1.266   8.243 -0.8700  1.2006 -0.0372
   86MOL0     H11338   4.727  -0.239   7.435  1.3200 -2.6397 -1.8876
   86MOL0     H11339   4.788   0.006   7.530  0.6125  0.8562  2.1205
   86MOL0     H11340   5.139   0.284   7.653  1.3822 -3.0510 -0.5302
   86MOL0     H11341   5.282   0.478   7.692 -2.4819 -1.8059  1.0609
   86MOL0     H11342   5.455   0.625   7.707 -0.3344 -0.1989 -0.2690
   86MOL0     H11343   5.309   0.704   7.651 -0.2325 -1.7013  1.1879
   86MOL0     H11344   5.435   0.898   7.569  1.0318 -1.0227 -2.7478
   86MOL0     H11345   5.493   0.872   7.730 -1.5120 -0.1300  0.9680
   86MOL0     H11346   5.653   0.715   7.533 -1.7161 -0.6778  1.4253
   86MOL0     H11347   5.706   0.808   7.679  1.2242  1.1424  0.7265
   86MOL0     H11348   5.623   0.926   7.410  1.7501 -1.2755 -0.9200
   86MOL0     H11349   5.664   1.028   7.564  1.1136  0.7828 -0.1705
   86MOL0     H11350   6.047   0.966   7.441  0.4179 -3.2101 -1.6345
   86MOL0     H11351   5.428   0.474   7.293  0.2507  0.9013  0.7981
   86MOL0     H11352   5.308   0.258   7.261  4.0263  0.3334 -1.1334
   87MOL0     O11353   6.739   7.283   9.924 -0.2239 -0.0014  0.0780
   87MOL0     C11354   6.746   7.370   9.840 -0.2534 -1.3012  0.0965
   87MOL0     O11355   6.636   7.431   9.778 -0.4863 -0.1623 -0.5047
   87MOL0     C11356   6.515   7.368   9.774 -1.1045  0.4401  0.1301
   87MOL0     C11357   6.396   7.453   9.741 -0.4366  0.0273  0.4083
   87MOL0     C11358   6.274   7.402   9.722  0.9476  0.0364 -0.0753
   87MOL0     C11359   6.251   7.265   9.724  0.8801 -0.0306  0.4005
   87MOL0     O11360   6.133   7.211   9.681  0.4717  0.2894 -0.5149
   87MOL0     C11361   6.068   7.091   9.731 -0.1331 -0.1811 -0.4695
   87MOL0     C11362   5.967   7.105   9.847  0.4794  0.6434 -0.4251
   87MOL0     C11363   5.856   7.208   9.824  0.6195 -0.3340 -0.1116
   87MOL0     C11364   5.776   7.251   9.947 -0.6152  0.4514 -0.1675
   87MOL0     C11365   5.857   7.333  10.058 -0.9750 -0.6211  0.6909
   87MOL0     C11366   5.771   7.348  10.187  0.4724  0.7899  0.1094
   87MOL0     C11367   5.853   7.394  10.312  0.0273  0.1219 -0.1288
   87MOL0     C11368   5.767   7.465  10.413 -0.5438 -0.8463  0.4119
   87MOL0     N11369   5.682   7.362  10.476  0.7222 -0.1778 -0.4213
   87MOL0     C11370   5.551   7.399  10.508 -0.4557  0.1679 -0.2097
   87MOL0     C11371   5.511   7.304  10.593 -0.2173 -0.4746  0.2326
   87MOL0     C11372   5.379   7.294  10.667 -0.1248 -0.3490  0.3943
   87MOL0     C11373   5.372   7.380  10.790 -0.3297 -0.1908  0.1426
   87MOL0     C11374   5.467   7.358  10.906  0.4311  0.3715 -0.0910
   87MOL0     C11375   5.459   7.229  10.982 -0.1872  0.0140 -0.5392
   87MOL0     O11376   5.538   7.227  11.097 -0.2966  0.5397 -0.5261
   87MOL0     C11377   5.669   7.205  11.098 -0.9621 -0.1537  0.4532
   87MOL0     C11378   5.749   7.159  10.989 -0.3809 -0.3623  0.2452
   87MOL0     C11379   5.884   7.132  11.008  0.1883  0.5248 -1.6893
   87MOL0     C11380   5.939   7.144  11.137  0.2965  0.1156  0.2608
   87MOL0     C11381   6.078   7.107  11.167 -0.3026 -0.2025  0.7766
   87MOL0     O11382   6.145   7.047  11.064 -0.2178  0.4569 -0.8281
   87MOL0     C11383   6.282   7.038  11.053 -0.7760 -0.5664 -0.6948
   87MOL0     C11384   6.371   7.134  11.105  0.1458 -0.0912 -0.0190
   87MOL0     C11385   6.511   7.119  11.085 -0.1489  0.1659  1.2826
   87MOL0     C11386   6.572   7.012  11.018  0.4187  0.3484  0.1459
   87MOL0     O11387   6.707   6.984  11.010 -0.1869 -0.3441  0.4084
   87MOL0     C11388   6.807   7.067  11.058 -0.4628 -0.1844 -0.2600
   87MOL0     C11389   6.930   6.988  11.061 -0.4012 -1.2606 -0.0434
   87MOL0     C11390   7.014   7.008  10.933 -0.1997  0.0472 -0.4742
   87MOL0     C11391   7.055   7.153  10.915  0.3351  0.0179 -0.3935
   87MOL0     C11392   7.198   7.176  10.880  0.2894  0.5742  0.2815
   87MOL0     C11393   7.310   7.114  10.963  0.5178  0.1200  0.9776
   87MOL0     C11394   7.435   7.190  10.921 -1.1820 -0.8828  0.7341
   87MOL0     C11395   7.564   7.131  10.995  0.4816  0.2442 -0.2933
   87MOL0    Cl11396   7.702   7.237  10.950  0.2049 -0.0995 -0.2980
   87MOL0     C11397   6.489   6.925  10.963  0.1310  0.5047 -0.7843
   87MOL0     C11398   6.345   6.933  10.982  0.0962  0.6664 -0.5284
   87MOL0     O11399   6.119   7.125  11.282 -0.0260 -0.2401 -0.2671
   87MOL0     C11400   5.859   7.193  11.247  0.7822  0.0945  0.0303
   87MOL0     C11401   5.725   7.216  11.231  0.3490 -0.2852  0.1756
   87MOL0     N11402   5.616   7.220  10.621  0.2465  0.1920  0.2661
   87MOL0     N11403   5.713   7.257  10.552  0.2678 -0.1937  0.0262
   87MOL0     C11404   6.364   7.177   9.744 -0.1158 -0.3924  0.2780
   87MOL0     C11405   6.501   7.224   9.770 -1.0516 -0.3985  0.2597
   87MOL0     C11406   6.883   7.438   9.819 -0.1965  0.3692 -0.6675
   87MOL0     C11407   6.987   7.383   9.887 -0.4381  0.0704 -0.3120
   87MOL0     C11408   7.116   7.436   9.878  0.2066 -0.2911 -0.8518
   87MOL0     C11409   7.146   7.536   9.791 -0.1299  0.6061 -0.2296
   87MOL0     O11410   7.284   7.579   9.792  0.5462  0.0325  0.1154
   87MOL0     C11411   7.308   7.672   9.693  0.4110  0.0571  0.7345
   87MOL0     C11412   7.454   7.677   9.669 -0.1233  0.8108  0.5394
   87MOL0     C11413   7.531   7.710   9.799 -0.2185  0.9318  0.6536
   87MOL0     C11414   7.477   7.826   9.882 -0.6313  0.2781 -0.8191
   87MOL0     C11415   7.585   7.911   9.935  0.4771 -0.2288 -0.7594
   87MOL0     C11416   7.688   7.959   9.961  0.7173  0.3534 -0.2771
   87MOL0     C11417   7.039   7.590   9.719  0.1786 -0.4909  0.9264
   87MOL0     C11418   6.907   7.545   9.733 -0.5428  0.4596 -0.1586
   87MOL0     H11419   6.414   7.560   9.730  2.0326 -0.3995 -0.3407
   87MOL0     H11420   6.182   7.457   9.703 -0.7724 -2.4484  0.4600
   87MOL0     H11421   6.146   7.021   9.764 -0.0630  0.1829  0.1606
   87MOL0     H11422   6.018   7.053   9.642  0.0273  0.3031 -0.7664
   87MOL0     H11423   6.025   7.149   9.930  1.7250 -0.7965 -0.4957
   87MOL0     H11424   5.918   7.018   9.891 -3.1471  3.5777  1.9962
   87MOL0     H11425   5.786   7.178   9.745 -0.7063  4.4041 -1.0508
   87MOL0     H11426   5.906   7.290   9.771  3.4671 -1.5951  0.4349
   87MOL0     H11427   5.698   7.317   9.908 -0.1258  1.1445  0.0012
   87MOL0     H11428   5.734   7.163   9.995 -0.1948  0.7927  0.8422
   87MOL0     H11429   5.901   7.428  10.026 -2.0624  0.5848  2.5612
   87MOL0     H11430   5.944   7.276  10.093  0.1166 -0.0568 -0.9686
   87MOL0     H11431   5.726   7.250  10.205 -0.4808  0.8300 -1.8279
   87MOL0     H11432   5.684   7.411  10.163 -2.4469 -3.3799 -1.3862
   87MOL0     H11433   5.905   7.304  10.346 -2.9448 -2.1757 -1.2842
   87MOL0     H11434   5.932   7.461  10.276  0.5866 -1.7018 -2.4796
   87MOL0     H11435   5.705   7.542  10.367 -0.1655 -1.0135 -0.3948
   87MOL0     H11436   5.818   7.527  10.487 -0.2785 -0.0313 -0.4413
   87MOL0     H11437   5.493   7.482  10.467 -0.3586 -1.8226 -5.1132
   87MOL0     H11438   5.348   7.191  10.687 -0.3052 -0.5196 -0.6642
   87MOL0     H11439   5.302   7.329  10.597 -0.5091 -0.6712  0.6522
   87MOL0     H11440   5.266   7.370  10.811 -0.5929 -1.5529 -1.5984
   87MOL0     H11441   5.379   7.484  10.759 -0.0937 -0.1854  0.2054
   87MOL0     H11442   5.570   7.368  10.870  0.6294 -2.8218 -0.7222
   87MOL0     H11443   5.452   7.439  10.979  4.1357 -0.8487  2.3510
   87MOL0     H11444   5.483   7.142  10.920 -0.3744 -0.0078 -0.5817
   87MOL0     H11445   5.353   7.217  11.009  0.0132 -2.1977 -0.5690
   87MOL0     H11446   5.697   7.161  10.894 -0.5439  0.3243  0.3460
   87MOL0     H11447   5.956   7.102  10.933  2.5965  1.6447  0.0516
   87MOL0     H11448   6.330   7.214  11.166  2.2629  0.5164  0.6707
   87MOL0     H11449   6.584   7.172  11.146  0.4830 -1.6089  2.1315
   87MOL0     H11450   6.790   7.098  11.161  0.3906  1.8509 -0.6956
   87MOL0     H11451   6.805   7.159  11.000 -0.6961  0.9109  1.4240
   87MOL0     H11452   6.924   6.880  11.076  1.8908 -1.2214  1.7950
   87MOL0     H11453   6.995   7.030  11.138 -0.0206 -0.2026 -0.8998
   87MOL0     H11454   6.955   6.967  10.851  4.1635 -4.4581 -1.8430
   87MOL0     H11455   7.103   6.944  10.925 -0.3528  0.1347 -4.1599
   87MOL0     H11456   6.993   7.190  10.834 -1.3236  0.3454  0.9674
   87MOL0     H11457   7.047   7.217  11.003  1.6526  0.2295 -0.4068
   87MOL0     H11458   7.204   7.285  10.887  0.7787  0.4583  2.2536
   87MOL0     H11459   7.218   7.157  10.774  0.3780  4.2566 -0.4884
   87MOL0     H11460   7.317   7.007  10.941  0.4678  0.8622 -3.6868
   87MOL0     H11461   7.293   7.124  11.071  1.3593  4.1070  0.8860
   87MOL0     H11462   7.450   7.183  10.813  0.8657 -0.9232  0.9753
   87MOL0     H11463   7.434   7.298  10.938 -1.2576 -0.4162 -1.8283
   87MOL0     H11464   7.585   7.027  10.970  2.5424  1.1602 -2.8029
   87MOL0     H11465   7.564   7.137  11.105  1.2149 -1.2087 -0.1997
   87MOL0     H11466   6.537   6.844  10.909  2.5995 -0.1661  2.1608
   87MOL0     H11467   6.280   6.857  10.942  2.1137 -1.2143 -0.4581
   87MOL0     H11468   5.890   7.208  11.349  3.7434 -0.1677 -0.7397
   87MOL0     H11469   5.660   7.247  11.311  0.0570  0.3963 -0.3181
   87MOL0     H11470   6.350   7.069   9.747 -2.8915 -0.0855  1.9035
   87MOL0     H11471   6.591   7.165   9.784 -0.9877 -1.7158 -4.2184
   87MOL0     H11472   6.969   7.324   9.976  2.3421  2.2469  1.8948
   87MOL0     H11473   7.201   7.411   9.941 -0.2730 -0.0843 -0.1148
   87MOL0     H11474   7.267   7.769   9.722  1.8123  1.8708 -2.7006
   87MOL0     H11475   7.256   7.649   9.600  2.9085 -4.1002  0.1232
   87MOL0     H11476   7.489   7.580   9.633  1.8990  1.1501  1.4430
   87MOL0     H11477   7.480   7.749   9.591 -0.1933  0.5471  0.2715
   87MOL0     H11478   7.635   7.737   9.774  0.4955 -0.9741  1.4175
   87MOL0     H11479   7.541   7.619   9.858  1.4306  2.0767  2.2327
   87MOL0     H11480   7.410   7.887   9.820 -0.2138 -0.0541 -1.5949
   87MOL0     H11481   7.415   7.787   9.964 -0.1725  3.0615  1.0010
   87MOL0     H11482   7.775   8.009  10.001 -1.5288  2.6229  2.1359
   87MOL0     H11483   7.048   7.686   9.667  0.3981 -0.1801  1.5305
   87MOL0     H11484   6.826   7.606   9.694 -1.5374 -0.0295  1.0857
   88MOL0     O11485   9.872  10.759   9.438 -0.4567  0.3013 -0.3724
   88MOL0     C11486   9.868  10.747   9.315 -0.8282  0.0848 -0.0677
   88MOL0     O11487   9.762  10.730   9.244  0.1985  0.1090  0.7214
   88MOL0     C11488   9.639  10.724   9.302  0.1301 -0.0943  0.2375
   88MOL0     C11489   9.541  10.781   9.237  0.6023 -0.0551  0.3735
   88MOL0     C11490   9.405  10.779   9.292 -0.4999  0.4234 -0.1339
   88MOL0     C11491   9.379  10.692   9.403 -0.1937 -0.2598  0.4372
   88MOL0     O11492   9.247  10.680   9.433 -0.0143 -0.2818 -0.3429
   88MOL0     C11493   9.206  10.570   9.513 -0.3350  0.0809 -0.2970
   88MOL0     C11494   9.054  10.566   9.493 -0.7939 -0.2951 -0.7236
   88MOL0     C11495   9.011  10.566   9.343 -0.4207 -0.2602  0.6451
   88MOL0     C11496   8.855  10.576   9.321 -0.8889 -0.1842 -0.5226
   88MOL0     C11497   8.790  10.458   9.394 -0.4224 -0.8217  0.3694
   88MOL0     C11498   8.648  10.441   9.339  0.4770  0.4427 -0.2715
   88MOL0     C11499   8.592  10.330   9.422  0.6212  0.1794  0.6398
   88MOL0     C11500   8.435  10.311   9.406  0.0189 -0.4250 -0.8759
   88MOL0     N11501   8.384  10.265   9.277 -0.1168 -0.2598 -0.4749
   88MOL0     C11502   8.411  10.139   9.236  0.5043  0.5838  0.1324
   88MOL0     C11503   8.355  10.119   9.115 -0.6109  0.3083  0.5990
   88MOL0     C11504   8.351   9.991   9.039 -0.2795  0.1263  0.5249
   88MOL0     C11505   8.209   9.958   8.994  0.0111  0.4335 -0.1007
   88MOL0     C11506   8.205   9.827   8.913  0.4251  0.4232  0.1063
   88MOL0     C11507   8.062   9.787   8.877  0.7581 -0.3392  0.6816
   88MOL0     O11508   7.990   9.756   8.995 -0.2943  0.5145  0.4658
   88MOL0     C11509   7.861   9.709   8.992 -0.7756 -0.2034 -0.0534
   88MOL0     C11510   7.791   9.692   8.871  0.3258 -0.2843  0.5658
   88MOL0     C11511   7.668   9.617   8.858 -0.3767 -0.5989 -0.5370
   88MOL0     C11512   7.606   9.568   8.976  0.9498 -0.5004  0.1055
   88MOL0     C11513   7.468   9.506   8.957  0.6920  0.5628  0.8124
   88MOL0     O11514   7.403   9.449   9.062 -0.4348  0.0666 -0.4476
   88MOL0     C11515   7.273   9.425   9.054 -0.3747  1.2346 -0.4049
   88MOL0     C11516   7.171   9.517   9.029  0.2954  0.5322  0.3419
   88MOL0     C11517   7.032   9.477   9.038 -0.4729 -0.0821  1.0684
   88MOL0     C11518   7.007   9.341   9.068  0.3510 -0.2744 -0.7316
   88MOL0     O11519   6.880   9.291   9.085 -0.4223 -1.1318 -0.0805
   88MOL0     C11520   6.768   9.376   9.117  0.0837 -1.1315  0.0509
   88MOL0     C11521   6.662   9.294   9.192 -0.3129  0.2853  0.1494
   88MOL0     C11522   6.604   9.186   9.113 -0.1095 -0.1857 -0.0217
   88MOL0     C11523   6.490   9.235   9.028  0.1398  0.7777 -0.1737
   88MOL0     C11524   6.416   9.122   8.955  0.0488  0.0898 -0.3425
   88MOL0     C11525   6.301   9.173   8.878 -0.5701  0.4213 -0.5800
   88MOL0     C11526   6.230   9.063   8.794 -0.1023  0.1678 -0.5724
   88MOL0     C11527   6.109   9.127   8.721 -0.5749 -0.6177  0.2707
   88MOL0    Cl11528   6.175   9.246   8.603 -0.2548  0.2056  0.0750
   88MOL0     C11529   7.110   9.252   9.090 -0.5533 -0.0244  0.1525
   88MOL0     C11530   7.245   9.289   9.084 -0.0373 -0.7406  0.1730
   88MOL0     O11531   7.425   9.504   8.842  0.3417 -0.6241 -0.4537
   88MOL0     C11532   7.659   9.604   9.105 -0.2140  0.9659 -0.3932
   88MOL0     C11533   7.785   9.671   9.107  0.4114 -0.0723 -0.2911
   88MOL0     N11534   8.307  10.237   9.073  0.2555 -0.8037 -0.5633
   88MOL0     N11535   8.321  10.330   9.167 -0.4161 -0.4919 -1.1914
   88MOL0     C11536   9.488  10.622   9.457 -0.0807  0.0596 -0.2659
   88MOL0     C11537   9.615  10.634   9.407  0.6878 -0.4826  0.1138
   88MOL0     C11538  10.005  10.744   9.249  0.0174  1.1567  0.5354
   88MOL0     C11539  10.012  10.673   9.125  0.3096 -0.1471 -0.5311
   88MOL0     C11540  10.131  10.668   9.062  0.2104  0.5569 -0.8744
   88MOL0     C11541  10.248  10.716   9.121 -0.8981  0.1062 -0.6143
   88MOL0     O11542  10.361  10.702   9.046 -0.3956 -0.3117 -0.3428
   88MOL0     C11543  10.479  10.737   9.110 -0.3244 -0.7075 -0.3845
   88MOL0     C11544  10.603  10.687   9.040 -0.3662  0.3085  0.0201
   88MOL0     C11545  10.726  10.749   9.098  0.3192 -0.2902  0.3795
   88MOL0     C11546  10.844  10.696   9.023  0.4278  0.3128 -0.2111
   88MOL0     C11547  10.967  10.718   9.097  0.1315 -0.4584 -0.0913
   88MOL0     C11548  11.079  10.723   9.147  0.3165  0.2424 -0.6926
   88MOL0     C11549  10.243  10.786   9.242 -0.2780 -0.1778 -0.1847
   88MOL0     C11550  10.120  10.804   9.301 -0.2067  0.3917  0.4451
   88MOL0     H11551   9.559  10.834   9.144 -2.9273  0.9178  0.0888
   88MOL0     H11552   9.324  10.827   9.238 -2.0937 -2.7148 -0.8262
   88MOL0     H11553   9.235  10.587   9.617 -1.1413  0.6558 -0.1538
   88MOL0     H11554   9.252  10.483   9.466 -0.4520 -0.0528 -0.1647
   88MOL0     H11555   9.015  10.653   9.547  1.0282 -0.3595  0.8242
   88MOL0     H11556   9.014  10.474   9.536  2.6497 -1.8809 -0.5847
   88MOL0     H11557   9.055  10.477   9.297 -1.2473 -1.3481  1.8825
   88MOL0     H11558   9.054  10.648   9.286  1.4431 -1.5306  0.1327
   88MOL0     H11559   8.816  10.672   9.357 -0.8317 -0.3544  0.0067
   88MOL0     H11560   8.850  10.583   9.212  0.2615  1.4536 -0.5113
   88MOL0     H11561   8.791  10.469   9.503 -3.6558 -1.1815  0.5401
   88MOL0     H11562   8.847  10.365   9.383  1.1806 -0.1053  2.2274
   88MOL0     H11563   8.655  10.417   9.232  0.6955  1.4119 -0.4801
   88MOL0     H11564   8.599  10.536   9.361 -2.0729 -1.2181  1.8257
   88MOL0     H11565   8.645  10.235   9.410  1.3497  0.9230 -3.9235
   88MOL0     H11566   8.609  10.358   9.526 -0.4405 -0.4431  0.9933
   88MOL0     H11567   8.376  10.401   9.425 -0.4290 -0.9186  0.1670
   88MOL0     H11568   8.406  10.244   9.488 -0.3294 -0.7028 -1.2210
   88MOL0     H11569   8.462  10.063   9.294 -0.7769 -1.4273 -1.2517
   88MOL0     H11570   8.397   9.913   9.100  0.4926  0.1270 -0.0365
   88MOL0     H11571   8.415  10.000   8.951 -1.0775  1.3003  0.0341
   88MOL0     H11572   8.171  10.044   8.939  0.0606  1.8805  1.9930
   88MOL0     H11573   8.149   9.941   9.084 -0.5394 -1.0032 -0.7005
   88MOL0     H11574   8.266   9.828   8.822  0.7735 -0.2138  0.3301
   88MOL0     H11575   8.254   9.751   8.973 -0.5684 -0.3292 -0.0027
   88MOL0     H11576   8.068   9.698   8.813 -3.2964  0.3015 -0.8725
   88MOL0     H11577   8.021   9.872   8.821  0.6542 -1.3412 -0.8185
   88MOL0     H11578   7.830   9.724   8.775 -0.9728 -1.2757 -0.3400
   88MOL0     H11579   7.617   9.609   8.762 -1.1490  1.2538 -0.3109
   88MOL0     H11580   7.201   9.621   9.021 -2.5673  1.5502  1.5289
   88MOL0     H11581   6.953   9.546   9.010 -0.3108 -1.6247 -4.3093
   88MOL0     H11582   6.725   9.421   9.027 -1.9503 -3.2984 -0.1420
   88MOL0     H11583   6.797   9.466   9.172 -2.0115  1.8486 -3.3098
   88MOL0     H11584   6.581   9.350   9.240 -2.4486 -1.1730 -1.5657
   88MOL0     H11585   6.702   9.242   9.279 -0.6848  1.3711  1.0076
   88MOL0     H11586   6.570   9.101   9.173 -0.8461  0.2432  0.1815
   88MOL0     H11587   6.672   9.145   9.038  0.7611 -2.1144  1.7061
   88MOL0     H11588   6.430   9.301   9.092 -0.1625  2.3257 -1.9567
   88MOL0     H11589   6.535   9.299   8.952  3.3785  0.1504  1.0850
   88MOL0     H11590   6.375   9.053   9.030 -1.7989  1.8416  0.3288
   88MOL0     H11591   6.491   9.075   8.891 -1.0930 -1.4688 -0.6007
   88MOL0     H11592   6.341   9.254   8.817  2.3018 -0.6558 -0.2786
   88MOL0     H11593   6.238   9.220   8.954  0.0077  0.3841 -0.0775
   88MOL0     H11594   6.298   9.025   8.717 -1.6295 -0.7582 -1.5234
   88MOL0     H11595   6.190   8.981   8.856  1.3923 -1.2012 -1.3413
   88MOL0     H11596   6.038   9.185   8.781 -1.1165 -1.1590  0.1654
   88MOL0     H11597   6.062   9.046   8.665  1.4795 -0.7767 -1.3593
   88MOL0     H11598   7.082   9.149   9.108 -0.3814 -0.4912 -1.9916
   88MOL0     H11599   7.319   9.212   9.105 -0.2357 -0.6416  1.3093
   88MOL0     H11600   7.602   9.575   9.193  0.1979 -0.4185 -0.5504
   88MOL0     H11601   7.827   9.694   9.205 -1.5736 -2.6749  1.3230
   88MOL0     H11602   9.463  10.553   9.538 -3.1969 -0.5325 -1.5932
   88MOL0     H11603   9.692  10.570   9.447 -0.9242 -0.5673  3.4374
   88MOL0     H11604   9.921  10.628   9.086 -0.7607  1.8249 -0.4108
   88MOL0     H11605  10.142  10.622   8.964 -0.1728 -0.7813 -0.3167
   88MOL0     H11606  10.483  10.715   9.217 -0.3650  4.1094  0.8496
   88MOL0     H11607  10.489  10.846   9.113  1.3293 -0.8555  0.8530
   88MOL0     H11608  10.621  10.579   9.042  0.3163  0.2970 -2.7978
   88MOL0     H11609  10.601  10.722   8.936 -0.6996  1.5086  0.4128
   88MOL0     H11610  10.737  10.720   9.203  0.6344 -0.5758  0.2693
   88MOL0     H11611  10.723  10.857   9.079  0.0668 -0.6811 -2.1939
   88MOL0     H11612  10.828  10.591   8.998 -1.5455  0.8301 -1.3494
   88MOL0     H11613  10.850  10.742   8.924 -1.1852 -0.3660 -0.6618
   88MOL0     H11614  11.181  10.714   9.178  0.2485  0.3050 -0.4506
   88MOL0     H11615  10.324  10.831   9.298 -2.8169 -0.2735  3.9530
   88MOL0     H11616  10.121  10.867   9.389  0.7350 -0.1118  0.7996
   89MOL0     O11617   7.821   2.535   2.012  0.4493 -1.1784 -0.7723
   89MOL0     C11618   7.826   2.605   2.114 -0.1910  0.4175  0.1097
   89MOL0     O11619   7.932   2.613   2.197  0.0360 -0.5662 -0.9896
   89MOL0     C11620   8.066   2.594   2.160  0.5606  0.0843  0.1366
   89MOL0     C11621   8.152   2.573   2.265 -0.7344  0.7142 -0.4247
   89MOL0     C11622   8.297   2.566   2.243  0.5967 -0.3283  0.7662
   89MOL0     C11623   8.344   2.590   2.111  0.1346  0.5007 -0.8744
   89MOL0     O11624   8.472   2.577   2.070 -0.2056  0.1668  0.1068
   89MOL0     C11625   8.545   2.465   2.117  0.1145  0.3910  0.1370
   89MOL0     C11626   8.550   2.355   2.018 -0.3421  0.2107  0.8403
   89MOL0     C11627   8.625   2.383   1.890 -0.6520  0.4218 -0.0865
   89MOL0     C11628   8.624   2.268   1.787 -0.2214  0.4639  0.6764
   89MOL0     C11629   8.729   2.297   1.677  0.5323  0.2327  0.3071
   89MOL0     C11630   8.723   2.195   1.560 -0.0301  0.1018  0.8869
   89MOL0     C11631   8.589   2.204   1.486  0.0323  0.2698  0.6771
   89MOL0     C11632   8.577   2.125   1.347  0.0419  0.2837 -0.2207
   89MOL0     N11633   8.444   2.131   1.289  0.0412  0.6858  0.1002
   89MOL0     C11634   8.336   2.051   1.328  0.1060  0.4905 -0.0577
   89MOL0     C11635   8.232   2.124   1.296 -0.0879  0.5249  1.0061
   89MOL0     C11636   8.082   2.083   1.313 -0.0002 -0.5103  0.3060
   89MOL0     C11637   8.039   1.950   1.243 -0.0580 -0.3840  0.7713
   89MOL0     C11638   7.907   1.899   1.291 -0.3406  0.3280  0.4239
   89MOL0     C11639   7.784   1.987   1.272 -0.2728  0.1219  0.0591
   89MOL0     O11640   7.680   1.899   1.306 -0.0890 -0.5841 -0.6263
   89MOL0     C11641   7.582   1.884   1.217 -0.9019 -0.5373 -0.0747
   89MOL0     C11642   7.611   1.860   1.083 -0.2307  1.3751 -0.8263
   89MOL0     C11643   7.505   1.819   0.999 -1.0227  0.1024  0.3975
   89MOL0     C11644   7.373   1.790   1.044 -0.7958 -0.1664 -0.1329
   89MOL0     C11645   7.279   1.728   0.961  0.4183  0.0144  0.5799
   89MOL0     O11646   7.322   1.701   0.835  0.1590  0.0103 -0.4135
   89MOL0     C11647   7.235   1.668   0.737  1.1432  0.4296 -0.7554
   89MOL0     C11648   7.198   1.530   0.727 -0.7896  0.5910  0.4334
   89MOL0     C11649   7.100   1.491   0.639 -0.5038  1.1465 -0.4544
   89MOL0     C11650   7.028   1.579   0.566  0.2874 -0.6872  0.4721
   89MOL0     O11651   6.931   1.549   0.474 -0.5678  0.4787  0.1782
   89MOL0     C11652   6.927   1.426   0.397  0.1665  0.8186  0.3367
   89MOL0     C11653   6.844   1.325   0.471  0.6310 -0.0112  0.3168
   89MOL0     C11654   6.778   1.227   0.370  0.2860 -0.2476  0.4238
   89MOL0     C11655   6.707   1.107   0.433 -0.5582 -0.2214 -0.2838
   89MOL0     C11656   6.713   0.975   0.348 -0.2004  0.3445  0.4550
   89MOL0     C11657   6.620   0.971   0.230 -0.7361 -0.3540  0.1483
   89MOL0     C11658   6.595   0.836   0.166  0.2447 -0.6442  0.9440
   89MOL0     C11659   6.527   0.838   0.030 -0.3395 -0.1383  1.2058
   89MOL0    Cl11660   6.363   0.892   0.042  0.2505  0.1533 -0.2094
   89MOL0     C11661   7.055   1.714   0.590 -0.0559  0.9620  0.8567
   89MOL0     C11662   7.155   1.759   0.675 -0.0098  0.0374  0.1265
   89MOL0     O11663   7.168   1.708   1.000 -0.7262 -0.6774  0.0707
   89MOL0     C11664   7.353   1.809   1.183  0.0434  0.3700 -0.4756
   89MOL0     C11665   7.459   1.856   1.267 -0.4672  0.7890  0.7571
   89MOL0     N11666   8.270   2.252   1.254 -0.2704  0.2895  0.2253
   89MOL0     N11667   8.398   2.256   1.251 -0.0589 -0.5452 -0.0798
   89MOL0     C11668   8.253   2.607   2.007  0.1642  0.3501  0.0293
   89MOL0     C11669   8.117   2.609   2.032 -0.1441  0.1094 -0.4381
   89MOL0     C11670   7.701   2.677   2.159 -1.3263  0.1434  0.8875
   89MOL0     C11671   7.585   2.677   2.080 -0.6869 -0.6245  0.7559
   89MOL0     C11672   7.469   2.734   2.119 -1.1258 -0.2892 -1.1896
   89MOL0     C11673   7.456   2.793   2.242  0.5205  0.2480 -0.3871
   89MOL0     O11674   7.342   2.855   2.296  0.4389  0.9823 -0.6934
   89MOL0     C11675   7.234   2.901   2.209  0.1873 -0.2320 -0.1908
   89MOL0     C11676   7.111   2.938   2.282 -0.0665  0.2636 -0.2432
   89MOL0     C11677   7.027   2.818   2.319 -0.2073 -0.5324 -0.0279
   89MOL0     C11678   6.919   2.851   2.424 -0.0029 -0.5156  0.4862
   89MOL0     C11679   6.845   2.729   2.454  0.3342  0.1872 -0.3644
   89MOL0     C11680   6.799   2.618   2.475 -0.3755  0.3448  0.7488
   89MOL0     C11681   7.567   2.797   2.327  0.2256  0.2612 -0.4721
   89MOL0     C11682   7.692   2.730   2.285 -0.6029  0.1670  0.5464
   89MOL0     H11683   8.096   2.555   2.356 -1.4318  1.1036 -0.7704
   89MOL0     H11684   8.360   2.539   2.327  1.5156 -0.9686 -0.1146
   89MOL0     H11685   8.502   2.416   2.205 -0.7692  1.4958  0.3481
   89MOL0     H11686   8.652   2.481   2.134  0.4038 -2.0489  1.0642
   89MOL0     H11687   8.449   2.330   1.983 -0.1908 -0.1892  0.6869
   89MOL0     H11688   8.591   2.267   2.068 -1.4704  0.5375  2.4147
   89MOL0     H11689   8.727   2.413   1.917 -0.6715 -1.3740  2.3461
   89MOL0     H11690   8.588   2.473   1.840 -0.4160  0.8533  0.4988
   89MOL0     H11691   8.650   2.170   1.829  0.8481  0.5322  0.2027
   89MOL0     H11692   8.526   2.268   1.738 -1.8254  2.0098  3.6601
   89MOL0     H11693   8.825   2.283   1.727  1.1820 -0.5667 -1.1199
   89MOL0     H11694   8.714   2.402   1.650 -1.1726  0.4827  2.0220
   89MOL0     H11695   8.736   2.088   1.581 -3.4975 -0.2683  1.7809
   89MOL0     H11696   8.799   2.225   1.488 -1.2233  0.3645 -0.3205
   89MOL0     H11697   8.510   2.167   1.554 -0.6454 -0.2429 -0.3588
   89MOL0     H11698   8.574   2.309   1.463  1.2240  0.5971  1.3359
   89MOL0     H11699   8.597   2.022   1.377 -2.1777 -0.1759 -0.1239
   89MOL0     H11700   8.645   2.171   1.275  1.6483 -3.1744 -1.1145
   89MOL0     H11701   8.340   1.953   1.376 -0.2426  0.1400 -0.7323
   89MOL0     H11702   8.023   2.163   1.267 -1.1189 -1.3196  0.2951
   89MOL0     H11703   8.071   2.077   1.422 -1.2172  0.0420  0.2304
   89MOL0     H11704   8.110   1.871   1.267 -0.4973 -1.3703 -1.0725
   89MOL0     H11705   8.038   1.973   1.136 -0.4302  0.9783  1.0391
   89MOL0     H11706   7.892   1.796   1.259  0.1862  0.8148 -1.5228
   89MOL0     H11707   7.927   1.887   1.398 -0.2950  1.3188  0.5364
   89MOL0     H11708   7.779   2.026   1.170 -1.9530 -0.6448 -0.1829
   89MOL0     H11709   7.793   2.067   1.346  1.9707 -1.7595  1.9965
   89MOL0     H11710   7.709   1.863   1.036 -0.4462 -2.3667 -1.8695
   89MOL0     H11711   7.521   1.798   0.894 -1.8124 -1.9607  0.6424
   89MOL0     H11712   7.244   1.447   0.779  0.1325  1.2583  0.7285
   89MOL0     H11713   7.087   1.385   0.621  0.9619  0.6337  1.2022
   89MOL0     H11714   7.028   1.395   0.368 -0.9123 -1.3784 -1.3107
   89MOL0     H11715   6.881   1.451   0.302  0.0592  2.6746  0.8444
   89MOL0     H11716   6.757   1.372   0.516  1.5572  1.4284  0.6868
   89MOL0     H11717   6.900   1.272   0.549 -0.7497  1.1760  2.1716
   89MOL0     H11718   6.848   1.200   0.290 -0.7236 -0.3525 -0.4485
   89MOL0     H11719   6.700   1.283   0.317  0.2212  0.8270  1.6032
   89MOL0     H11720   6.768   1.098   0.524  1.7836  1.3691 -1.5797
   89MOL0     H11721   6.607   1.139   0.461 -0.2314  0.3570  0.2456
   89MOL0     H11722   6.680   0.902   0.423  0.1334 -1.5762 -1.1903
   89MOL0     H11723   6.816   0.954   0.320 -1.3522 -3.5079 -1.6902
   89MOL0     H11724   6.671   1.033   0.156  0.7236 -1.1117  0.4812
   89MOL0     H11725   6.529   1.019   0.267  0.5213  2.3892 -0.1105
   89MOL0     H11726   6.694   0.792   0.150  1.7140  2.8231 -0.5059
   89MOL0     H11727   6.544   0.762   0.228  0.3661 -2.6595 -1.2304
   89MOL0     H11728   6.524   0.735  -0.006 -0.0290  0.2844 -0.0925
   89MOL0     H11729   6.574   0.906  -0.042 -0.6777 -2.2905 -1.1545
   89MOL0     H11730   6.991   1.783   0.535  0.8369  0.6176 -0.6902
   89MOL0     H11731   7.163   1.866   0.692  2.5855 -0.0305 -0.2536
   89MOL0     H11732   7.251   1.811   1.221 -0.2752  1.4210 -1.3152
   89MOL0     H11733   7.443   1.877   1.372  0.2862 -2.9762  1.7571
   89MOL0     H11734   8.301   2.619   1.910 -1.2955 -1.9641 -1.0573
   89MOL0     H11735   8.045   2.610   1.951 -0.0695 -0.7732 -0.5253
   89MOL0     H11736   7.583   2.623   1.986 -2.1130 -0.7308  0.8226
   89MOL0     H11737   7.381   2.728   2.056 -1.2472 -0.9105 -0.9610
   89MOL0     H11738   7.206   2.837   2.125 -1.6077  0.6966 -0.3400
   89MOL0     H11739   7.274   2.994   2.167  2.0240 -1.4699 -1.3552
   89MOL0     H11740   7.138   2.995   2.371  1.3056 -1.1341  0.2720
   89MOL0     H11741   7.057   3.011   2.221 -2.7266 -0.5183  1.0167
   89MOL0     H11742   7.088   2.740   2.365 -2.5402 -2.0321  0.7046
   89MOL0     H11743   6.974   2.765   2.239 -1.6143 -3.1840  2.4482
   89MOL0     H11744   6.966   2.901   2.509 -0.2601  0.4092  0.1094
   89MOL0     H11745   6.865   2.925   2.363 -1.0396 -2.4138 -1.0205
   89MOL0     H11746   6.761   2.518   2.483  0.2717  0.2020  2.4794
   89MOL0     H11747   7.551   2.845   2.423 -1.2579  0.4004 -0.7646
   89MOL0     H11748   7.774   2.730   2.356  0.3645  0.2540 -0.5467
   90MOL0     O11749   3.022   7.067   0.220 -0.3294 -0.4750 -0.3283
   90MOL0     C11750   2.910   7.085   0.172  0.6322 -0.5911 -0.2448
   90MOL0     O11751   2.814   7.168   0.223  0.2386 -0.9540  0.0376
   90MOL0     C11752   2.842   7.272   0.308 -0.3313 -0.4573 -0.3054
   90MOL0     C11753   2.730   7.306   0.390  0.0877  1.0451  0.1764
   90MOL0     C11754   2.740   7.417   0.470 -0.9874  0.4915 -0.2131
   90MOL0     C11755   2.863   7.481   0.482 -0.2237 -0.1832 -0.3209
   90MOL0     O11756   2.868   7.573   0.583  0.6889 -0.2746 -0.1031
   90MOL0     C11757   2.971   7.658   0.606 -0.4887 -0.5833  0.8585
   90MOL0     C11758   2.949   7.729   0.737 -0.3378 -0.7971 -0.1626
   90MOL0     C11759   3.074   7.781   0.802 -0.8574 -0.3375  0.6477
   90MOL0     C11760   3.138   7.905   0.742  0.9759  0.2784 -1.1462
   90MOL0     C11761   3.223   8.007   0.818  0.1216  0.0551 -0.1590
   90MOL0     C11762   3.339   7.934   0.899  0.7212 -0.2671  1.0069
   90MOL0     C11763   3.441   8.036   0.937 -1.3934 -0.2888  0.0066
   90MOL0     C11764   3.522   8.101   0.821  0.0494 -0.9682  0.5165
   90MOL0     N11765   3.642   8.169   0.879 -0.0436  0.9779 -0.2190
   90MOL0     C11766   3.646   8.297   0.932  0.1918  0.0843 -0.5316
   90MOL0     C11767   3.774   8.309   0.955 -0.3807  0.5534  0.1199
   90MOL0     C11768   3.829   8.436   1.018  0.7835  0.8395  0.3485
   90MOL0     C11769   3.913   8.416   1.135 -0.6539 -0.2697 -0.2990
   90MOL0     C11770   3.970   8.543   1.194  0.1212  0.1830  0.4977
   90MOL0     C11771   3.858   8.622   1.257 -0.3123  0.2634  0.2953
   90MOL0     O11772   3.903   8.705   1.364 -0.0762  0.4430 -0.3077
   90MOL0     C11773   3.797   8.760   1.438 -0.2897  0.7633  0.6479
   90MOL0     C11774   3.827   8.812   1.565 -0.0080 -0.3261  0.5447
   90MOL0     C11775   3.730   8.870   1.645  0.1394 -0.1693  0.3797
   90MOL0     C11776   3.592   8.888   1.601 -0.3810 -0.0440 -0.1238
   90MOL0     C11777   3.491   8.966   1.663 -1.3673 -0.6813 -0.3976
   90MOL0     O11778   3.521   9.015   1.787  0.1539 -0.3529  0.2976
   90MOL0     C11779   3.431   9.085   1.856  0.3567  0.1063 -0.9567
   90MOL0     C11780   3.293   9.047   1.860 -0.2294 -0.4796 -0.0759
   90MOL0     C11781   3.212   9.112   1.950  0.6360  0.1889  0.6308
   90MOL0     C11782   3.250   9.210   2.036 -0.7461 -0.1582 -0.8578
   90MOL0     O11783   3.156   9.258   2.121 -0.4354  0.0495 -0.7609
   90MOL0     C11784   3.200   9.338   2.236  0.0186  0.6068 -0.2205
   90MOL0     C11785   3.128   9.323   2.372 -0.2646  0.2756 -0.2840
   90MOL0     C11786   2.982   9.331   2.352 -0.1313  0.2749  0.0451
   90MOL0     C11787   2.941   9.476   2.332  0.3327 -0.2797  0.2772
   90MOL0     C11788   2.789   9.489   2.321  0.6693 -0.8079 -0.4125
   90MOL0     C11789   2.736   9.637   2.350  0.4365 -0.1434  0.2265
   90MOL0     C11790   2.588   9.636   2.387  0.6905 -0.9216 -0.2166
   90MOL0     C11791   2.541   9.785   2.407  0.3991 -0.2798  0.3994
   90MOL0    Cl11792   2.362   9.784   2.395  0.0022  0.3120 -0.2076
   90MOL0     C11793   3.388   9.243   2.033  0.0443  0.0603  0.1165
   90MOL0     C11794   3.477   9.182   1.948  0.0063 -0.6756  0.9196
   90MOL0     O11795   3.402   9.016   1.590 -0.1639 -0.0921  0.3872
   90MOL0     C11796   3.572   8.836   1.469 -0.1529 -0.0236  0.8662
   90MOL0     C11797   3.670   8.772   1.390  0.5882  0.3661 -0.2954
   90MOL0     N11798   3.845   8.193   0.928  0.2913 -0.1886 -0.1118
   90MOL0     N11799   3.760   8.104   0.892 -0.3060 -0.8057 -0.8335
   90MOL0     C11800   2.967   7.456   0.398  0.4572 -0.1395 -0.1946
   90MOL0     C11801   2.953   7.351   0.306 -0.8067  0.5469 -0.3829
   90MOL0     C11802   2.855   6.993   0.067 -0.4365 -0.0668 -0.1790
   90MOL0     C11803   2.938   6.897   0.011  0.1430 -0.5263  0.8612
   90MOL0     C11804   2.891   6.794  -0.066  0.2586  0.5195  0.3111
   90MOL0     C11805   2.759   6.769  -0.088  0.5174 -0.7768 -0.0819
   90MOL0     O11806   2.730   6.663  -0.174  0.1929  0.0577 -0.2188
   90MOL0     C11807   2.595   6.627  -0.208 -0.5501 -0.6352  0.0586
   90MOL0     C11808   2.506   6.590  -0.097  0.0610 -0.1698 -0.5989
   90MOL0     C11809   2.549   6.460  -0.017  0.3574 -0.2873  0.9643
   90MOL0     C11810   2.629   6.486   0.108 -0.6730  0.5966 -0.4844
   90MOL0     C11811   2.644   6.379   0.204  0.2821  0.1411  0.8259
   90MOL0     C11812   2.638   6.291   0.283 -0.4408  0.7082 -1.0895
   90MOL0     C11813   2.668   6.872  -0.043  0.2604  0.2021 -0.3592
   90MOL0     C11814   2.715   6.978   0.040 -0.9118 -1.2217 -0.2505
   90MOL0     H11815   2.633   7.259   0.375  0.0343  1.4009 -0.6326
   90MOL0     H11816   2.657   7.441   0.535  0.5520 -0.9629  2.4448
   90MOL0     H11817   2.987   7.726   0.521  1.1094 -3.9535 -1.7431
   90MOL0     H11818   3.070   7.611   0.600 -1.4143 -2.3876 -2.2831
   90MOL0     H11819   2.894   7.666   0.808 -0.3552 -0.8985 -0.2658
   90MOL0     H11820   2.891   7.820   0.721 -0.4660 -0.2840  2.6380
   90MOL0     H11821   3.147   7.700   0.810 -0.8510 -0.2878  1.1177
   90MOL0     H11822   3.053   7.808   0.906 -0.7466 -3.7119  1.6643
   90MOL0     H11823   3.207   7.864   0.667  1.8913  2.5780 -1.6480
   90MOL0     H11824   3.071   7.976   0.692 -0.8063  0.9950  1.9998
   90MOL0     H11825   3.171   8.075   0.886  1.0197  0.4666  0.1263
   90MOL0     H11826   3.269   8.076   0.747  0.1895  0.6918  0.4984
   90MOL0     H11827   3.380   7.848   0.844  2.1054 -1.1077  3.2159
   90MOL0     H11828   3.293   7.893   0.990 -2.4667  0.2383 -0.2617
   90MOL0     H11829   3.378   8.110   0.988 -2.6323 -1.4996  0.2892
   90MOL0     H11830   3.509   7.996   1.012 -1.1588 -0.2855 -0.2013
   90MOL0     H11831   3.475   8.186   0.772  3.9641  0.8212 -0.5473
   90MOL0     H11832   3.543   8.019   0.751  4.4784 -0.8687  1.4392
   90MOL0     H11833   3.568   8.360   0.974  1.1751  0.6026  0.5733
   90MOL0     H11834   3.741   8.496   1.042 -1.7971 -2.1997 -0.8624
   90MOL0     H11835   3.887   8.489   0.941 -0.3341  2.0403  0.2951
   90MOL0     H11836   3.998   8.358   1.098  0.6183  0.8201  0.7787
   90MOL0     H11837   3.856   8.354   1.205  2.3188 -0.8852  1.7584
   90MOL0     H11838   4.033   8.506   1.276  2.3468  0.8600 -0.8178
   90MOL0     H11839   4.044   8.594   1.132  1.6795 -1.7104  0.6847
   90MOL0     H11840   3.796   8.539   1.292 -1.7707 -0.2966 -3.2074
   90MOL0     H11841   3.804   8.682   1.183 -1.6292 -2.3930 -1.0041
   90MOL0     H11842   3.928   8.815   1.607 -0.4184  0.5999  1.4916
   90MOL0     H11843   3.760   8.907   1.742  0.3753 -1.3856  0.7883
   90MOL0     H11844   3.251   8.978   1.788  0.4008 -0.3743 -0.5532
   90MOL0     H11845   3.109   9.079   1.957  0.3441  0.9552  0.0502
   90MOL0     H11846   3.192   9.440   2.197 -1.4310 -0.2546 -2.3350
   90MOL0     H11847   3.306   9.326   2.260 -0.3465  0.8014  1.6461
   90MOL0     H11848   3.169   9.394   2.445  1.1632  0.0109 -0.7905
   90MOL0     H11849   3.146   9.225   2.416 -0.3079  1.2278  2.0406
   90MOL0     H11850   2.918   9.279   2.424  0.2775 -1.5172 -0.8172
   90MOL0     H11851   2.965   9.280   2.256  1.1710 -3.3898  1.5957
   90MOL0     H11852   2.983   9.537   2.412  2.5177 -0.3264 -0.7463
   90MOL0     H11853   2.986   9.508   2.238  3.0419 -0.0045  1.5586
   90MOL0     H11854   2.745   9.421   2.395  2.2803  1.9999  3.5006
   90MOL0     H11855   2.752   9.470   2.220 -1.2584  1.3727 -0.2213
   90MOL0     H11856   2.767   9.689   2.259 -0.0595 -0.2898 -0.0319
   90MOL0     H11857   2.791   9.681   2.433 -0.5079 -1.7784  1.8038
   90MOL0     H11858   2.547   9.593   2.296 -1.4497  0.8960 -0.1849
   90MOL0     H11859   2.574   9.561   2.466  3.7149 -3.1898 -1.6142
   90MOL0     H11860   2.589   9.840   2.325 -0.3783  0.7359  0.6039
   90MOL0     H11861   2.576   9.822   2.504 -0.2519 -2.4523  1.5142
   90MOL0     H11862   3.428   9.321   2.097 -0.0263  0.5200 -0.3894
   90MOL0     H11863   3.580   9.214   1.934 -1.0279  2.8717  0.2854
   90MOL0     H11864   3.480   8.857   1.415  1.8847  0.9449 -2.5106
   90MOL0     H11865   3.639   8.748   1.288  1.2526 -0.4356 -0.3236
   90MOL0     H11866   3.051   7.525   0.398 -0.6266  1.2207 -0.9517
   90MOL0     H11867   3.040   7.335   0.242 -0.0533 -3.0766  1.2759
   90MOL0     H11868   3.046   6.906   0.020  0.4354 -1.8066 -0.8031
   90MOL0     H11869   2.948   6.718  -0.120 -2.5098 -1.4141 -0.0886
   90MOL0     H11870   2.597   6.544  -0.279 -0.6052  0.4323 -1.2182
   90MOL0     H11871   2.561   6.714  -0.264  1.5154  0.1095 -0.1125
   90MOL0     H11872   2.493   6.665  -0.018 -0.6038 -2.3992  1.5664
   90MOL0     H11873   2.408   6.585  -0.146 -0.1513  3.2436 -0.7513
   90MOL0     H11874   2.598   6.391  -0.086 -0.7573 -0.0534 -0.0936
   90MOL0     H11875   2.450   6.418   0.005 -0.4004  0.0784 -1.4912
   90MOL0     H11876   2.730   6.517   0.078 -1.1919 -0.6132 -3.9371
   90MOL0     H11877   2.586   6.571   0.162  0.0378  1.8246 -1.7611
   90MOL0     H11878   2.625   6.208   0.350  0.4796  1.2096 -0.2862
   90MOL0     H11879   2.561   6.860  -0.048  0.2997 -1.7528  1.8180
   90MOL0     H11880   2.649   7.043   0.097  1.2925 -0.5438  1.7091
   91MOL0     O11881   5.382   4.260   4.714 -0.3771  0.1972  0.0291
   91MOL0     C11882   5.460   4.225   4.627 -1.1849  0.0384 -0.9009
   91MOL0     O11883   5.431   4.144   4.522  0.1738  0.1978  0.2043
   91MOL0     C11884   5.295   4.113   4.483 -0.0110  1.0375  0.4617
   91MOL0     C11885   5.286   4.026   4.371  0.4374  0.8787 -0.5895
   91MOL0     C11886   5.163   3.989   4.321 -0.0218 -0.1752  0.9846
   91MOL0     C11887   5.045   4.038   4.382  0.0072 -0.5139 -0.3930
   91MOL0     O11888   4.917   4.018   4.330 -0.2137  0.3436 -0.1532
   91MOL0     C11889   4.900   3.917   4.230 -0.0073  0.1085  0.0494
   91MOL0     C11890   4.883   3.990   4.096 -0.0927 -0.3910 -0.3209
   91MOL0     C11891   4.738   4.011   4.085  0.3637  0.1745 -0.1873
   91MOL0     C11892   4.710   4.103   3.963 -0.3377  0.2771  0.1263
   91MOL0     C11893   4.558   4.111   3.938 -0.6015 -0.5258  1.1058
   91MOL0     C11894   4.474   4.190   4.045 -0.3004 -0.0010 -0.1779
   91MOL0     C11895   4.331   4.208   3.995 -0.6669  0.3145 -0.4169
   91MOL0     C11896   4.317   4.321   3.884 -0.4270 -0.5274 -0.3807
   91MOL0     N11897   4.187   4.345   3.834  0.6342 -0.7347 -0.0120
   91MOL0     C11898   4.106   4.245   3.795 -0.0690 -0.3986  0.4849
   91MOL0     C11899   3.977   4.289   3.794  0.5419  0.3249 -0.2476
   91MOL0     C11900   3.856   4.205   3.758 -0.2507 -0.1472 -0.2362
   91MOL0     C11901   3.848   4.255   3.606 -0.3830 -0.0702  0.3292
   91MOL0     C11902   3.723   4.196   3.530  0.3733 -0.1948 -0.2547
   91MOL0     C11903   3.596   4.261   3.577  0.3728 -0.8512  0.2830
   91MOL0     O11904   3.578   4.404   3.560 -0.7573  0.1710 -1.0373
   91MOL0     C11905   3.445   4.439   3.549 -0.0282  0.4302  1.2629
   91MOL0     C11906   3.364   4.458   3.662 -0.3630  0.0235  0.1439
   91MOL0     C11907   3.234   4.511   3.656 -0.9140 -0.2042 -0.7494
   91MOL0     C11908   3.178   4.546   3.530 -0.5075 -0.1356  0.4468
   91MOL0     C11909   3.048   4.611   3.528 -0.4781 -0.5437  0.3311
   91MOL0     O11910   2.999   4.625   3.655 -0.6673  0.2356 -0.2808
   91MOL0     C11911   2.876   4.677   3.680 -0.1419 -0.3370  0.3079
   91MOL0     C11912   2.863   4.788   3.763  0.4973 -0.4116  0.0809
   91MOL0     C11913   2.741   4.847   3.786 -0.2938 -0.6004  1.0094
   91MOL0     C11914   2.626   4.797   3.726  0.4513  0.0794 -0.0650
   91MOL0     O11915   2.503   4.851   3.756 -0.5262 -0.2709  0.3412
   91MOL0     C11916   2.380   4.813   3.681 -1.1043  0.0605  0.3082
   91MOL0     C11917   2.248   4.845   3.762  0.3581  0.2209  1.1224
   91MOL0     C11918   2.135   4.748   3.720  0.2113 -0.4295 -0.1918
   91MOL0     C11919   2.000   4.827   3.701 -0.4166  0.2755  0.0047
   91MOL0     C11920   1.873   4.736   3.687 -0.7613  1.0992  0.4024
   91MOL0     C11921   1.748   4.814   3.633  0.1167  0.4748  0.0189
   91MOL0     C11922   1.622   4.728   3.609  0.8374 -0.8891 -0.1898
   91MOL0     C11923   1.631   4.635   3.489 -0.9606  0.2136  0.2234
   91MOL0    Cl11924   1.711   4.475   3.513 -0.4083  0.6948 -0.0333
   91MOL0     C11925   2.641   4.689   3.638 -0.2964  0.0827  0.4159
   91MOL0     C11926   2.766   4.635   3.613 -0.1434  0.5638 -0.6341
   91MOL0     O11927   3.012   4.673   3.431 -0.1144 -0.1226  0.2195
   91MOL0     C11928   3.260   4.537   3.410 -0.0847 -0.6575  0.8371
   91MOL0     C11929   3.394   4.488   3.427 -0.0567  1.1234  0.6682
   91MOL0     N11930   3.982   4.423   3.833  0.4882 -0.4082 -0.1067
   91MOL0     N11931   4.108   4.452   3.850 -0.3967 -0.0784  0.3899
   91MOL0     C11932   5.058   4.135   4.482 -0.0076  0.5402 -0.2007
   91MOL0     C11933   5.182   4.168   4.533 -0.4034 -0.3597 -0.0233
   91MOL0     C11934   5.596   4.272   4.645 -0.6062  0.5747  1.0066
   91MOL0     C11935   5.706   4.210   4.578 -0.3088  0.0019  0.3387
   91MOL0     C11936   5.837   4.256   4.614  1.1142  0.2775  0.6018
   91MOL0     C11937   5.869   4.359   4.708  0.3785  0.6114  0.6272
   91MOL0     O11938   5.999   4.399   4.744  0.5134 -1.0305  0.6247
   91MOL0     C11939   6.120   4.348   4.688  0.0425  0.4077 -0.9659
   91MOL0     C11940   6.132   4.395   4.536 -0.4319  0.8269  0.2197
   91MOL0     C11941   6.137   4.542   4.509  0.7464 -0.0347  0.5396
   91MOL0     C11942   6.122   4.586   4.364 -0.4397  0.5068  0.1171
   91MOL0     C11943   6.227   4.533   4.274 -0.4097  0.7069  0.3333
   91MOL0     C11944   6.324   4.495   4.208  0.9782  0.1657  0.5451
   91MOL0     C11945   5.761   4.405   4.781 -0.2063  0.4243 -0.0372
   91MOL0     C11946   5.633   4.358   4.757  0.6548  0.2469  0.7986
   91MOL0     H11947   5.375   3.975   4.337 -1.0640 -0.5003 -2.6277
   91MOL0     H11948   5.171   3.912   4.244  2.8841  0.7489  0.2241
   91MOL0     H11949   4.810   3.857   4.250 -1.2823  1.7458 -0.5019
   91MOL0     H11950   4.976   3.839   4.224 -3.3856 -3.5354  0.0465
   91MOL0     H11951   4.915   3.931   4.009 -2.3028 -0.6534 -1.0156
   91MOL0     H11952   4.941   4.082   4.104 -2.8410  1.4336  0.0822
   91MOL0     H11953   4.711   4.063   4.177  3.4060 -1.5708  1.8679
   91MOL0     H11954   4.682   3.917   4.080 -0.2616  0.3554  2.3948
   91MOL0     H11955   4.742   4.204   3.992  0.7706 -0.6599  2.4602
   91MOL0     H11956   4.768   4.068   3.878 -0.2393  1.4026 -0.2829
   91MOL0     H11957   4.519   4.009   3.929 -1.8075 -0.0314  0.4381
   91MOL0     H11958   4.542   4.158   3.840 -2.3683 -1.9064  0.6710
   91MOL0     H11959   4.526   4.287   4.046  2.2200 -1.2737 -0.0453
   91MOL0     H11960   4.472   4.145   4.145 -0.2444  0.0493 -0.1539
   91MOL0     H11961   4.283   4.115   3.963  0.4587  0.1231 -1.6400
   91MOL0     H11962   4.272   4.241   4.081  1.3796 -1.3493  1.7770
   91MOL0     H11963   4.381   4.292   3.801  0.3051 -0.1352  0.0425
   91MOL0     H11964   4.343   4.415   3.934  0.2847 -1.5776  1.3179
   91MOL0     H11965   4.142   4.150   3.755  0.3126  1.0636 -3.0625
   91MOL0     H11966   3.763   4.243   3.801 -1.5769 -2.1593 -1.1829
   91MOL0     H11967   3.867   4.097   3.771 -0.3752 -0.0308  0.9548
   91MOL0     H11968   3.939   4.211   3.564  0.9604  1.2949  1.6435
   91MOL0     H11969   3.857   4.363   3.591  2.7709  0.1122  2.4055
   91MOL0     H11970   3.743   4.228   3.427  0.1874 -0.7059 -0.4543
   91MOL0     H11971   3.713   4.087   3.528 -1.8131 -0.0104 -1.2496
   91MOL0     H11972   3.592   4.258   3.687 -1.2177 -0.4120  0.2626
   91MOL0     H11973   3.504   4.210   3.548 -1.3824  3.2231 -2.2344
   91MOL0     H11974   3.402   4.419   3.756  0.0328  1.2371  0.5031
   91MOL0     H11975   3.192   4.525   3.755  0.0699 -0.5344 -0.2770
   91MOL0     H11976   2.954   4.829   3.806  1.6896 -0.6999 -2.0034
   91MOL0     H11977   2.721   4.938   3.841 -0.4022  0.3981 -0.6224
   91MOL0     H11978   2.380   4.707   3.655  0.6692  0.5558 -2.0074
   91MOL0     H11979   2.374   4.864   3.585  1.2192  0.4617  0.3037
   91MOL0     H11980   2.218   4.950   3.749  0.9503  0.7706  3.6241
   91MOL0     H11981   2.265   4.828   3.869  2.5404 -0.4897  0.7227
   91MOL0     H11982   2.123   4.664   3.789 -2.4369  0.1860  0.2195
   91MOL0     H11983   2.153   4.706   3.620 -0.7393  1.1743 -1.0774
   91MOL0     H11984   1.977   4.889   3.789 -1.7631 -1.3219  0.8417
   91MOL0     H11985   2.000   4.889   3.611 -4.8445  2.1030  1.0022
   91MOL0     H11986   1.848   4.684   3.779 -3.5629 -1.3458 -1.5802
   91MOL0     H11987   1.901   4.657   3.617  2.7078  1.9310  0.6847
   91MOL0     H11988   1.781   4.858   3.539  0.7428  0.5932  0.2883
   91MOL0     H11989   1.727   4.897   3.702  0.2451 -0.9168  1.7963
   91MOL0     H11990   1.595   4.673   3.700  0.2940 -0.8606 -0.3338
   91MOL0     H11991   1.536   4.795   3.597 -1.1382 -3.2959 -0.1908
   91MOL0     H11992   1.680   4.686   3.405  0.3317 -1.5300 -0.1502
   91MOL0     H11993   1.529   4.605   3.460  0.3467 -3.3122 -1.3033
   91MOL0     H11994   2.559   4.633   3.594 -1.2441 -0.0914  2.3130
   91MOL0     H11995   2.788   4.542   3.563 -1.6959 -0.0136 -0.2779
   91MOL0     H11996   3.235   4.579   3.313  3.0062 -2.7310 -1.0580
   91MOL0     H11997   3.455   4.493   3.337 -1.7671  0.2839 -0.5857
   91MOL0     H11998   4.977   4.195   4.523 -1.2341 -1.8357  1.0890
   91MOL0     H11999   5.186   4.236   4.617 -0.2503 -2.3836  1.6759
   91MOL0     H12000   5.700   4.132   4.502 -0.9907  0.0073  0.3774
   91MOL0     H12001   5.916   4.201   4.563 -0.5608 -0.0790 -1.7478
   91MOL0     H12002   6.103   4.241   4.698  0.1314  0.5030  0.2835
   91MOL0     H12003   6.209   4.379   4.744 -0.6159 -0.5416  0.6450
   91MOL0     H12004   6.220   4.350   4.487 -0.5168 -3.5315  3.4584
   91MOL0     H12005   6.052   4.347   4.480  2.1343 -1.4700 -1.7262
   91MOL0     H12006   6.230   4.592   4.536  0.4908  1.9397 -1.8693
   91MOL0     H12007   6.055   4.596   4.558 -0.4853 -1.9714  0.7278
   91MOL0     H12008   6.023   4.569   4.320 -0.8477  1.1936  0.7413
   91MOL0     H12009   6.124   4.695   4.364 -0.1127  0.5481 -1.8102
   91MOL0     H12010   6.402   4.478   4.136 -0.9734  2.1532 -2.2486
   91MOL0     H12011   5.773   4.468   4.869 -2.7102  1.3495 -0.2658
   91MOL0     H12012   5.553   4.374   4.829 -0.1553 -1.9489  0.4836
   92MOL0     O12013  10.479   7.424   6.568 -0.4314  0.1129 -0.2564
   92MOL0     C12014  10.593   7.364   6.573 -0.4803 -0.0520 -0.2585
   92MOL0     O12015  10.610   7.226   6.575  0.1807 -0.2226 -0.6549
   92MOL0     C12016  10.491   7.151   6.573 -0.6764 -0.4009  0.6199
   92MOL0     C12017  10.468   7.054   6.467 -0.1593 -0.7092  0.8017
   92MOL0     C12018  10.339   7.008   6.449 -1.3567  0.0093 -0.9931
   92MOL0     C12019  10.239   7.046   6.538 -0.0684  0.0960  0.2556
   92MOL0     O12020  10.118   6.990   6.508  0.0789  0.0939 -0.0707
   92MOL0     C12021  10.006   7.014   6.602 -0.5328  1.1774 -0.0418
   92MOL0     C12022   9.876   6.951   6.556 -0.0846  1.1049  0.1200
   92MOL0     C12023   9.775   6.979   6.655 -0.0624  0.5319 -0.8467
   92MOL0     C12024   9.628   6.962   6.611  0.6559  0.2940 -0.0484
   92MOL0     C12025   9.602   6.824   6.537 -0.4359 -0.0411 -0.4358
   92MOL0     C12026   9.455   6.780   6.530 -0.0158  0.2900  0.1414
   92MOL0     C12027   9.357   6.873   6.461  0.3582 -0.0301  0.5200
   92MOL0     C12028   9.359   6.854   6.303  0.3334 -0.6078  0.2227
   92MOL0     N12029   9.244   6.926   6.254 -0.3154  0.2071 -0.4395
   92MOL0     C12030   9.107   6.910   6.282  0.9526  0.2559 -0.4661
   92MOL0     C12031   9.046   7.004   6.212 -0.2625 -0.6802  0.0803
   92MOL0     C12032   8.900   7.017   6.210  0.6620 -1.0178  0.7191
   92MOL0     C12033   8.837   6.927   6.102  1.1540 -0.3920  0.3243
   92MOL0     C12034   8.686   6.927   6.102  0.1434 -1.0473  0.6738
   92MOL0     C12035   8.627   6.881   5.972 -0.1020  0.4475 -0.0605
   92MOL0     O12036   8.485   6.880   5.987 -0.2642  0.2115  0.0743
   92MOL0     C12037   8.407   6.846   5.880  0.2516  0.0274  0.0358
   92MOL0     C12038   8.268   6.865   5.896 -1.0432  0.7235  0.4846
   92MOL0     C12039   8.178   6.827   5.795  0.3511 -0.3734 -0.1154
   92MOL0     C12040   8.215   6.782   5.673  0.5450  0.0876 -0.3118
   92MOL0     C12041   8.105   6.730   5.580  0.1790 -0.1506 -0.0702
   92MOL0     O12042   7.980   6.709   5.631  0.1609  0.5014 -0.1173
   92MOL0     C12043   7.898   6.616   5.565 -0.6744 -0.5241 -0.0961
   92MOL0     C12044   7.941   6.492   5.521  0.0351 -0.4000 -0.4393
   92MOL0     C12045   7.851   6.405   5.461 -0.0162 -0.1137 -0.4156
   92MOL0     C12046   7.717   6.441   5.439  0.7475 -0.0289  0.5327
   92MOL0     O12047   7.625   6.342   5.393 -0.1632 -0.4609  0.1582
   92MOL0     C12048   7.493   6.356   5.423  0.7685  0.1059  0.0259
   92MOL0     C12049   7.461   6.318   5.567  0.8484 -0.1497 -0.3176
   92MOL0     C12050   7.312   6.334   5.612  0.2842 -0.4980  0.0625
   92MOL0     C12051   7.304   6.297   5.753  0.0475  0.6736 -0.0083
   92MOL0     C12052   7.155   6.296   5.782 -0.4054  0.9284 -0.2740
   92MOL0     C12053   7.119   6.273   5.925 -0.4475 -0.2436 -0.9888
   92MOL0     C12054   7.077   6.397   5.995  0.4995  0.0760 -0.7536
   92MOL0     C12055   7.188   6.496   6.007 -0.4367 -0.1032 -0.3737
   92MOL0    Cl12056   7.333   6.429   6.084  0.4156  0.2240 -0.3810
   92MOL0     C12057   7.670   6.567   5.483 -0.7438 -0.3350 -0.5089
   92MOL0     C12058   7.763   6.652   5.540  0.7373  0.1770 -0.5276
   92MOL0     O12059   8.128   6.712   5.465 -0.3506 -0.5252  0.2652
   92MOL0     C12060   8.349   6.764   5.659 -0.3056 -0.0745 -0.2814
   92MOL0     C12061   8.445   6.797   5.754 -0.2854  0.5872  0.2535
   92MOL0     N12062   9.136   7.074   6.138 -0.4459 -1.0649  1.0960
   92MOL0     N12063   9.252   7.024   6.163  0.1338 -0.1778 -0.3312
   92MOL0     C12064  10.269   7.114   6.654  0.0237 -0.7154  0.2337
   92MOL0     C12065  10.391   7.174   6.667  0.8381  1.0096  0.6845
   92MOL0     C12066  10.713   7.447   6.592  0.7613 -0.1382  0.2139
   92MOL0     C12067  10.720   7.587   6.573  0.6278  0.1742 -0.2064
   92MOL0     C12068  10.838   7.661   6.572 -0.1775  0.0180 -0.3943
   92MOL0     C12069  10.965   7.593   6.620 -0.4085  0.6763 -0.1759
   92MOL0     O12070  11.086   7.656   6.605  0.8576  0.2697  0.1888
   92MOL0     C12071  11.206   7.588   6.638 -0.5860 -1.0160  0.6523
   92MOL0     C12072  11.317   7.668   6.564  0.1516  0.1136 -0.6844
   92MOL0     C12073  11.462   7.614   6.567 -0.1091 -0.2719  0.4612
   92MOL0     C12074  11.565   7.704   6.490  0.7729  0.2326  0.0940
   92MOL0     C12075  11.703   7.656   6.496  0.5184 -0.0850 -0.7902
   92MOL0     C12076  11.827   7.658   6.503 -0.6227 -0.1601  0.5851
   92MOL0     C12077  10.952   7.460   6.655  0.2393  1.3999  0.1593
   92MOL0     C12078  10.827   7.390   6.643 -0.1430  1.1649  0.1299
   92MOL0     H12079  10.546   7.056   6.392  0.2125 -0.0973  1.1970
   92MOL0     H12080  10.315   6.955   6.358  0.9675 -2.0194 -0.5262
   92MOL0     H12081   9.992   7.122   6.601 -1.5268  1.0846  1.1541
   92MOL0     H12082  10.027   6.974   6.702  0.7884 -1.2343 -1.1826
   92MOL0     H12083   9.895   6.848   6.524  1.2343  1.6954 -1.1123
   92MOL0     H12084   9.847   6.996   6.461 -1.6558  0.6357  0.3479
   92MOL0     H12085   9.799   7.083   6.679  3.5976 -0.1443 -1.1019
   92MOL0     H12086   9.776   6.923   6.749  1.0489  0.3754 -0.9460
   92MOL0     H12087   9.563   6.974   6.698  1.3658  2.5061  0.2371
   92MOL0     H12088   9.599   7.039   6.539  3.1116  2.5687  1.2078
   92MOL0     H12089   9.649   6.751   6.603 -0.0175  1.5751  1.1294
   92MOL0     H12090   9.665   6.823   6.448  0.6228  0.6000  0.2701
   92MOL0     H12091   9.424   6.763   6.633 -0.9127  0.3773 -0.1040
   92MOL0     H12092   9.441   6.679   6.491 -2.7333  0.0572  1.5041
   92MOL0     H12093   9.259   6.838   6.495  0.0950 -0.3924 -0.5872
   92MOL0     H12094   9.374   6.978   6.484 -2.4531  1.1066 -1.9176
   92MOL0     H12095   9.371   6.750   6.272  4.4509 -0.5474  0.9463
   92MOL0     H12096   9.450   6.905   6.269 -0.6372  1.1625  0.1877
   92MOL0     H12097   9.051   6.848   6.351 -3.5994  4.6944  0.4491
   92MOL0     H12098   8.873   7.123   6.203  1.0390 -0.7201  2.9746
   92MOL0     H12099   8.861   6.976   6.303 -0.9445 -0.9606  0.1008
   92MOL0     H12100   8.878   6.825   6.109 -1.1024 -1.5423 -1.7428
   92MOL0     H12101   8.868   6.958   6.002 -0.8007 -1.5139 -0.6883
   92MOL0     H12102   8.644   6.868   6.184  0.3958 -0.7897  0.9918
   92MOL0     H12103   8.651   7.029   6.121  1.4034 -0.7880  1.7250
   92MOL0     H12104   8.671   6.781   5.961 -1.0545  0.0347 -0.1685
   92MOL0     H12105   8.675   6.943   5.896  3.3319 -1.2301  0.5421
   92MOL0     H12106   8.237   6.912   5.989  3.0830  2.0712  1.3966
   92MOL0     H12107   8.075   6.840   5.826  0.5206 -1.7642  1.2097
   92MOL0     H12108   8.042   6.458   5.542 -0.0140 -1.2954 -1.5393
   92MOL0     H12109   7.884   6.313   5.414 -1.4390 -0.6367 -0.4452
   92MOL0     H12110   7.441   6.282   5.360  0.6194  2.2234 -2.5185
   92MOL0     H12111   7.452   6.454   5.399  0.9206  0.0163 -0.6367
   92MOL0     H12112   7.527   6.385   5.624  1.0405 -0.7776  0.2142
   92MOL0     H12113   7.490   6.215   5.587 -1.4743 -1.1525 -1.7356
   92MOL0     H12114   7.236   6.286   5.550 -0.6515  1.4530 -0.3795
   92MOL0     H12115   7.281   6.438   5.602  2.2073  0.2613  1.4581
   92MOL0     H12116   7.347   6.204   5.792  0.3462  1.5666  1.8536
   92MOL0     H12117   7.352   6.375   5.811 -0.9578  1.6032 -0.3958
   92MOL0     H12118   7.118   6.212   5.722  2.2059 -0.9786  0.6095
   92MOL0     H12119   7.109   6.388   5.745 -0.8392  0.4857 -0.8525
   92MOL0     H12120   7.206   6.234   5.979  1.5667  2.0061 -2.4039
   92MOL0     H12121   7.032   6.207   5.917 -1.6584  1.3327 -1.1270
   92MOL0     H12122   6.986   6.446   5.959  0.0758 -0.8903 -1.0398
   92MOL0     H12123   7.062   6.364   6.098 -0.0343  1.1913 -0.4594
   92MOL0     H12124   7.170   6.583   6.071  4.9578  1.2852 -0.2955
   92MOL0     H12125   7.215   6.536   5.909 -1.2134 -1.4965 -1.2067
   92MOL0     H12126   7.570   6.609   5.477 -0.4279  0.2932 -1.5671
   92MOL0     H12127   7.722   6.746   5.577 -1.5567 -1.4462  1.3256
   92MOL0     H12128   8.392   6.707   5.577  0.2979 -0.8129  0.5260
   92MOL0     H12129   8.551   6.777   5.738 -0.6740 -3.4298  1.6087
   92MOL0     H12130  10.196   7.126   6.734 -0.5360 -0.0705 -0.3680
   92MOL0     H12131  10.412   7.245   6.746 -1.2845  1.7118  0.7021
   92MOL0     H12132  10.636   7.649   6.544  2.0733  3.1268  1.5150
   92MOL0     H12133  10.853   7.769   6.564  2.1637 -0.3433 -1.7051
   92MOL0     H12134  11.205   7.486   6.600 -0.6379 -0.7941  0.0398
   92MOL0     H12135  11.239   7.603   6.742  3.0074  1.2513 -0.6090
   92MOL0     H12136  11.290   7.671   6.458  1.0664  4.4249 -0.9584
   92MOL0     H12137  11.321   7.768   6.609  0.0904 -1.9413  4.5611
   92MOL0     H12138  11.452   7.518   6.514 -2.8450 -0.0374  0.4186
   92MOL0     H12139  11.502   7.601   6.668  0.6293  1.3849  0.4101
   92MOL0     H12140  11.527   7.714   6.388  1.5243 -0.0634 -0.2217
   92MOL0     H12141  11.576   7.800   6.541  1.4993  0.0275  0.3430
   92MOL0     H12142  11.933   7.660   6.522 -0.3978 -0.7530 -0.5112
   92MOL0     H12143  11.035   7.403   6.697 -2.9489 -1.0378  3.8864
   92MOL0     H12144  10.831   7.290   6.685  3.1368 -0.2921 -3.0272
   93MOL0     O12145   0.303   6.961   1.247  0.3727 -0.1927  0.5013
   93MOL0     C12146   0.374   6.874   1.294 -0.1760 -0.0135 -0.3953
   93MOL0     O12147   0.333   6.757   1.349 -0.3919  0.4935  0.7586
   93MOL0     C12148   0.192   6.732   1.355  0.2976  0.1371  0.1396
   93MOL0     C12149   0.132   6.621   1.299  0.5508  0.1624 -0.2006
   93MOL0     C12150  -0.005   6.599   1.299  0.6938 -0.2746  0.7332
   93MOL0     C12151  -0.094   6.680   1.369 -0.3562 -0.1798 -0.2130
   93MOL0     O12152  -0.225   6.655   1.384 -0.5235  0.0380 -0.0777
   93MOL0     C12153  -0.297   6.569   1.294 -0.0939 -0.0984  0.0951
   93MOL0     C12154  -0.440   6.597   1.312  0.4642  0.5936 -0.3656
   93MOL0     C12155  -0.483   6.741   1.271 -0.5702  0.0275 -0.2777
   93MOL0     C12156  -0.638   6.754   1.281  0.0931 -0.2265  0.2639
   93MOL0     C12157  -0.675   6.898   1.246  0.4897  0.4383  0.2757
   93MOL0     C12158  -0.825   6.934   1.228 -0.0668  0.7878  0.2908
   93MOL0     C12159  -0.907   6.879   1.342 -0.2976 -0.0075  0.9052
   93MOL0     C12160  -1.041   6.936   1.367  0.1909 -0.0562 -0.5477
   93MOL0     N12161  -1.139   6.902   1.261  0.8184  0.3840 -0.7265
   93MOL0     C12162  -1.234   6.808   1.278  0.0337 -1.0970  0.2301
   93MOL0     C12163  -1.287   6.788   1.159 -0.1456 -0.0427  0.1742
   93MOL0     C12164  -1.370   6.661   1.137 -0.2325  0.0714 -0.8322
   93MOL0     C12165  -1.291   6.553   1.054  0.0415 -0.2159 -0.2078
   93MOL0     C12166  -1.378   6.485   0.955  0.3549  0.6191  0.2778
   93MOL0     C12167  -1.426   6.345   0.997 -0.9606 -0.7040  0.4110
   93MOL0     O12168  -1.481   6.348   1.123  0.1299  0.1665  0.0745
   93MOL0     C12169  -1.611   6.308   1.134 -0.4115  0.3380  0.2564
   93MOL0     C12170  -1.722   6.392   1.112 -0.2251 -0.3869 -0.1201
   93MOL0     C12171  -1.852   6.351   1.123 -0.1631  0.1892  0.4650
   93MOL0     C12172  -1.887   6.216   1.139 -0.0753 -0.0937 -0.0789
   93MOL0     C12173  -2.033   6.172   1.146 -0.5439  0.3235  0.0193
   93MOL0     O12174  -2.055   6.040   1.173  0.8796 -0.0017 -0.4707
   93MOL0     C12175  -2.187   6.004   1.150  0.7196 -0.0297 -0.4585
   93MOL0     C12176  -2.286   6.039   1.245  0.1433  0.1268  0.1358
   93MOL0     C12177  -2.417   5.999   1.228  0.2406  0.4047  0.8172
   93MOL0     C12178  -2.453   5.913   1.123 -0.8035  0.4922 -0.4993
   93MOL0     O12179  -2.578   5.883   1.083  0.4873 -0.1921 -0.2850
   93MOL0     C12180  -2.682   5.932   1.172  0.8950  1.3472 -0.3025
   93MOL0     C12181  -2.818   5.899   1.116  0.1005 -0.6950 -0.3397
   93MOL0     C12182  -2.839   5.743   1.102  0.1047  0.4489 -0.1812
   93MOL0     C12183  -2.980   5.720   1.020  0.0681  0.2928 -0.4847
   93MOL0     C12184  -2.970   5.777   0.877  0.6926  0.2082  0.0651
   93MOL0     C12185  -3.034   5.680   0.780  0.6548 -0.8421 -0.9500
   93MOL0     C12186  -2.960   5.555   0.749 -0.2774  0.2413  0.0096
   93MOL0     C12187  -2.998   5.496   0.616 -0.2976  1.0983  0.1737
   93MOL0    Cl12188  -2.920   5.317   0.605 -0.0864  0.0983 -0.2948
   93MOL0     C12189  -2.348   5.870   1.037  0.0675  1.0962 -1.3542
   93MOL0     C12190  -2.214   5.912   1.055  0.6549 -0.7410  0.9442
   93MOL0     O12191  -2.117   6.252   1.110  0.5630 -0.2853 -0.1115
   93MOL0     C12192  -1.776   6.133   1.162 -0.2997 -0.3463 -1.1536
   93MOL0     C12193  -1.640   6.177   1.158  0.7550 -0.2805 -0.5286
   93MOL0     N12194  -1.222   6.874   1.068 -1.0656 -0.5067  0.3939
   93MOL0     N12195  -1.132   6.944   1.131  0.9744 -0.1793 -0.8091
   93MOL0     C12196  -0.036   6.783   1.445 -0.2952  0.5724 -0.4261
   93MOL0     C12197   0.109   6.808   1.437  0.8115 -0.4536 -0.5315
   93MOL0     C12198   0.525   6.900   1.279  0.5967 -0.3859 -0.8992
   93MOL0     C12199   0.580   7.026   1.276  0.1946  0.5981 -0.5845
   93MOL0     C12200   0.715   7.035   1.291  0.0829  0.0116  0.3387
   93MOL0     C12201   0.802   6.926   1.275 -0.0277  0.6251  0.8948
   93MOL0     O12202   0.936   6.937   1.258  0.0694 -0.0505 -0.3692
   93MOL0     C12203   0.994   7.068   1.242  0.0618  0.1317  0.4190
   93MOL0     C12204   1.128   7.055   1.174 -0.9210  0.4301  0.5458
   93MOL0     C12205   1.220   6.953   1.234  0.7269  0.1060  0.5017
   93MOL0     C12206   1.277   7.002   1.362  0.0311 -0.1913 -0.3302
   93MOL0     C12207   1.356   6.890   1.427  0.0988 -0.3723  0.3518
   93MOL0     C12208   1.416   6.825   1.500 -0.9775 -0.0671 -0.1158
   93MOL0     C12209   0.746   6.798   1.263  0.7047  0.3467 -0.7167
   93MOL0     C12210   0.610   6.782   1.284 -0.6687 -0.0643 -0.4695
   93MOL0     H12211   0.195   6.558   1.237 -0.0703  0.1551 -0.8308
   93MOL0     H12212  -0.049   6.513   1.248 -2.0599  0.4254  1.7462
   93MOL0     H12213  -0.288   6.462   1.311 -0.4260 -0.4369 -1.6721
   93MOL0     H12214  -0.268   6.600   1.193 -0.0011  1.3059  0.5252
   93MOL0     H12215  -0.464   6.575   1.417 -2.0418 -0.6678 -1.1279
   93MOL0     H12216  -0.499   6.537   1.242  0.6874 -1.8205  1.3849
   93MOL0     H12217  -0.451   6.752   1.167  0.0982 -1.7889 -0.2887
   93MOL0     H12218  -0.432   6.808   1.341  0.4675 -0.5131 -0.5019
   93MOL0     H12219  -0.683   6.684   1.210  2.2051 -1.6647  0.2568
   93MOL0     H12220  -0.671   6.723   1.381 -1.3551  0.6290  0.0783
   93MOL0     H12221  -0.618   6.914   1.154  2.7204 -1.3730  1.2430
   93MOL0     H12222  -0.635   6.956   1.329 -0.7176  1.1607  0.3805
   93MOL0     H12223  -0.866   6.891   1.136  0.3710  3.4827 -1.2633
   93MOL0     H12224  -0.833   7.040   1.203  0.1129  0.1798 -2.6985
   93MOL0     H12225  -0.923   6.773   1.319 -0.8531  0.5611 -1.6780
   93MOL0     H12226  -0.846   6.882   1.433  1.9498  1.7760 -0.5574
   93MOL0     H12227  -1.038   7.045   1.367 -0.6902  0.0892  2.8315
   93MOL0     H12228  -1.076   6.919   1.469 -2.9919  1.3137 -1.2808
   93MOL0     H12229  -1.247   6.767   1.377 -1.7350 -1.4277 -0.0881
   93MOL0     H12230  -1.458   6.679   1.074  0.4401 -0.1834 -1.8575
   93MOL0     H12231  -1.393   6.621   1.236  1.9248 -0.2249 -0.4162
   93MOL0     H12232  -1.243   6.487   1.127 -0.6362  1.5142  1.9057
   93MOL0     H12233  -1.223   6.608   0.988 -2.9340 -0.6720 -3.9968
   93MOL0     H12234  -1.472   6.541   0.944 -0.2561 -0.1173  1.5528
   93MOL0     H12235  -1.311   6.468   0.870  2.0029  2.1433  1.2190
   93MOL0     H12236  -1.336   6.283   1.002  1.0279  2.0253  1.5901
   93MOL0     H12237  -1.491   6.319   0.913 -0.0262 -0.4391 -0.4117
   93MOL0     H12238  -1.703   6.495   1.081  0.4324 -0.8754 -1.4184
   93MOL0     H12239  -1.929   6.427   1.113  1.8055  2.2335 -0.1002
   93MOL0     H12240  -2.275   6.104   1.331  0.3353  0.4148 -0.1044
   93MOL0     H12241  -2.488   6.033   1.303 -0.2720 -1.5273  1.2527
   93MOL0     H12242  -2.680   6.041   1.181 -3.1448  2.0464 -4.0682
   93MOL0     H12243  -2.667   5.896   1.274  0.9445  2.0733 -0.0435
   93MOL0     H12244  -2.830   5.936   1.014 -0.5582 -1.2689 -0.4825
   93MOL0     H12245  -2.885   5.954   1.183  2.2931  2.8656 -0.7949
   93MOL0     H12246  -2.836   5.708   1.206  2.9836  1.6223  0.2086
   93MOL0     H12247  -2.750   5.694   1.062  0.2703  2.4209 -2.3955
   93MOL0     H12248  -3.001   5.613   1.020  1.0628  0.0817 -1.3205
   93MOL0     H12249  -3.061   5.772   1.073  0.2376  1.4777 -1.3440
   93MOL0     H12250  -2.869   5.807   0.847  1.0870 -0.9322  0.1910
   93MOL0     H12251  -3.038   5.862   0.872 -1.6808 -1.6281 -0.6609
   93MOL0     H12252  -3.041   5.737   0.688 -0.8031 -0.3170 -0.5382
   93MOL0     H12253  -3.136   5.650   0.806  0.6315 -0.8968 -1.1095
   93MOL0     H12254  -2.852   5.568   0.755 -0.0751 -1.7505  1.6946
   93MOL0     H12255  -2.981   5.476   0.821 -0.1915  1.7549  1.7859
   93MOL0     H12256  -2.965   5.560   0.534 -2.0664  0.7010 -0.8954
   93MOL0     H12257  -3.107   5.496   0.611 -0.3291 -2.0985 -1.1720
   93MOL0     H12258  -2.381   5.819   0.947 -2.2982  1.5408 -0.8243
   93MOL0     H12259  -2.145   5.876   0.979 -0.7485  0.1238 -0.8136
   93MOL0     H12260  -1.800   6.028   1.173 -0.9387 -0.0439  0.5437
   93MOL0     H12261  -1.558   6.106   1.168  0.5625 -0.8043 -2.3847
   93MOL0     H12262  -0.101   6.851   1.497  0.2459  0.0984  0.9008
   93MOL0     H12263   0.151   6.891   1.493 -2.4288  1.4155 -0.6482
   93MOL0     H12264   0.511   7.106   1.300  1.6782  1.7994 -0.1815
   93MOL0     H12265   0.754   7.134   1.315  0.8832 -0.3572  0.6050
   93MOL0     H12266   1.008   7.117   1.339  1.3250 -0.0031  0.3256
   93MOL0     H12267   0.937   7.140   1.182 -0.6000 -0.1540  0.7036
   93MOL0     H12268   1.113   7.033   1.068 -0.2104 -0.1275  0.5555
   93MOL0     H12269   1.178   7.152   1.182 -0.9597  0.3979  1.2576
   93MOL0     H12270   1.300   6.911   1.172  0.3127  0.5725 -0.3631
   93MOL0     H12271   1.164   6.862   1.254 -1.1664  1.6277  2.5452
   93MOL0     H12272   1.351   7.073   1.325 -0.2791  0.4578  0.2724
   93MOL0     H12273   1.207   7.050   1.431 -1.3408  1.4889 -2.7178
   93MOL0     H12274   1.463   6.754   1.566 -0.5228 -0.2094 -0.5895
   93MOL0     H12275   0.808   6.710   1.258 -0.6957 -0.7689  0.6282
   93MOL0     H12276   0.561   6.685   1.279 -0.5591 -0.0967 -1.0733
   94MOL0     O12277   2.740   2.734   6.714 -0.3008  0.2567 -0.4496
   94MOL0     C12278   2.786   2.778   6.822  0.2956  0.0221  0.4935
   94MOL0     O12279   2.714   2.842   6.924 -0.3028 -0.1078 -0.6165
   94MOL0     C12280   2.580   2.847   6.907  0.0107 -0.1006 -0.1933
   94MOL0     C12281   2.506   2.733   6.944 -0.1208 -0.2775  0.0214
   94MOL0     C12282   2.364   2.722   6.932 -0.1487  0.0698 -0.5664
   94MOL0     C12283   2.299   2.835   6.899 -0.0243 -0.2866 -0.7744
   94MOL0     O12284   2.173   2.864   6.932 -0.3558 -0.1159 -0.6261
   94MOL0     C12285   2.086   2.759   6.967  0.6244  0.0422 -0.2997
   94MOL0     C12286   1.939   2.802   6.977 -0.6428 -0.1877 -0.5012
   94MOL0     C12287   1.888   2.841   6.832  0.1665  0.2095  0.7710
   94MOL0     C12288   1.752   2.915   6.852  0.7289 -0.5916 -0.0164
   94MOL0     C12289   1.727   3.002   6.732  1.0961 -0.1902  0.2985
   94MOL0     C12290   1.588   3.082   6.726 -0.2553 -0.2673  0.1773
   94MOL0     C12291   1.484   3.044   6.843 -0.2046 -0.4687  0.6410
   94MOL0     C12292   1.369   3.143   6.858  0.4446 -0.8749  0.2114
   94MOL0     N12293   1.309   3.198   6.732  0.7558  0.6660  0.7269
   94MOL0     C12294   1.206   3.124   6.666 -0.0497  0.4658 -0.0294
   94MOL0     C12295   1.176   3.197   6.552 -0.5790 -1.4658  0.2623
   94MOL0     C12296   1.091   3.173   6.442  0.4580  0.5213  1.0442
   94MOL0     C12297   1.157   3.198   6.302  1.0886  1.0344 -0.3320
   94MOL0     C12298   1.060   3.164   6.190  0.4712  0.6416  0.0784
   94MOL0     C12299   0.929   3.234   6.204 -0.0895 -0.6424 -1.2215
   94MOL0     O12300   0.860   3.180   6.095  0.3287 -0.6605 -0.1945
   94MOL0     C12301   0.727   3.210   6.084 -0.7984  0.6869 -0.9334
   94MOL0     C12302   0.660   3.304   6.166  0.1525 -0.3539  0.7079
   94MOL0     C12303   0.525   3.333   6.147 -0.2647 -0.8122 -0.3716
   94MOL0     C12304   0.447   3.268   6.046 -0.1621  0.3577 -0.4884
   94MOL0     C12305   0.304   3.288   6.024 -0.9839  0.3800  0.6582
   94MOL0     O12306   0.250   3.234   5.908  0.4934  0.4423 -0.1427
   94MOL0     C12307   0.110   3.237   5.885  0.3488 -0.9030  0.2493
   94MOL0     C12308   0.072   3.287   5.754 -0.7162  0.6309 -0.1017
   94MOL0     C12309  -0.061   3.300   5.716 -0.2325  0.4645  0.5619
   94MOL0     C12310  -0.159   3.263   5.802 -0.4013  0.1244  0.2129
   94MOL0     O12311  -0.291   3.264   5.771 -0.2068 -0.0907  0.5342
   94MOL0     C12312  -0.343   3.281   5.634  0.3552  0.4518 -0.8118
   94MOL0     C12313  -0.487   3.246   5.602  0.2666 -0.0845  0.6225
   94MOL0     C12314  -0.573   3.311   5.714  0.9044  0.8937  0.0630
   94MOL0     C12315  -0.714   3.341   5.655 -0.5925  0.6401  0.4951
   94MOL0     C12316  -0.797   3.212   5.634  0.2707  0.0048 -0.1741
   94MOL0     C12317  -0.892   3.218   5.516 -0.2280  1.1431 -0.2674
   94MOL0     C12318  -1.006   3.110   5.522 -0.6846  0.1400 -0.1029
   94MOL0     C12319  -1.115   3.119   5.419  0.4585 -0.0622  0.4620
   94MOL0    Cl12320  -1.244   3.011   5.458 -0.1740  0.1762 -0.3646
   94MOL0     C12321  -0.119   3.224   5.936  0.4103  0.3924  0.5135
   94MOL0     C12322   0.014   3.209   5.980 -0.2558  0.1815  0.2230
   94MOL0     O12323   0.239   3.333   6.115 -0.3338 -0.7619 -0.3174
   94MOL0     C12324   0.522   3.178   5.971 -0.3717  0.7076 -0.4275
   94MOL0     C12325   0.663   3.159   5.983  0.5792 -0.7203  0.1717
   94MOL0     N12326   1.246   3.317   6.568  0.2567  0.0710  0.2780
   94MOL0     N12327   1.320   3.323   6.676 -0.4768 -0.2693  0.1070
   94MOL0     C12328   2.368   2.952   6.855 -0.0152 -0.3740  0.2053
   94MOL0     C12329   2.507   2.959   6.859 -0.1766  0.3760  0.0885
   94MOL0     C12330   2.932   2.784   6.835  0.1751 -0.3399 -0.2823
   94MOL0     C12331   3.000   2.886   6.907  0.4203  0.6396 -1.2614
   94MOL0     C12332   3.135   2.881   6.937  0.0964  0.3130  0.3342
   94MOL0     C12333   3.213   2.783   6.886  0.2317  0.4017 -0.3119
   94MOL0     O12334   3.348   2.799   6.911  0.8494  0.0427 -0.1346
   94MOL0     C12335   3.433   2.685   6.900 -0.2355  0.5250 -0.5599
   94MOL0     C12336   3.489   2.694   6.759 -0.8105  0.6231 -0.9921
   94MOL0     C12337   3.585   2.591   6.704 -0.0955 -0.3364 -0.8386
   94MOL0     C12338   3.539   2.443   6.686  0.0100  0.5574  0.7067
   94MOL0     C12339   3.392   2.428   6.659 -0.2953  0.2253 -0.0322
   94MOL0     C12340   3.280   2.392   6.630 -0.1191 -0.7253 -0.7943
   94MOL0     C12341   3.146   2.673   6.816 -1.1622 -0.7696  0.0094
   94MOL0     C12342   3.009   2.686   6.796  0.0657  0.0107  0.6606
   94MOL0     H12343   2.546   2.648   6.999  1.5662 -0.3858 -1.2887
   94MOL0     H12344   2.310   2.635   6.968  0.1805 -0.2135 -0.7488
   94MOL0     H12345   2.109   2.705   7.059 -3.1079 -2.4622 -0.5894
   94MOL0     H12346   2.099   2.689   6.883 -1.2612 -0.9375  0.1861
   94MOL0     H12347   1.936   2.892   7.038 -1.5401  0.6242 -1.6799
   94MOL0     H12348   1.884   2.719   7.022 -3.7312  2.4510  1.0222
   94MOL0     H12349   1.878   2.750   6.771 -0.8591  1.2511 -0.6867
   94MOL0     H12350   1.962   2.906   6.785  0.0079 -0.0143  0.1935
   94MOL0     H12351   1.676   2.837   6.856 -0.2315  0.1620 -1.8644
   94MOL0     H12352   1.754   2.977   6.942 -0.4597 -0.9952  0.3045
   94MOL0     H12353   1.734   2.938   6.643 -0.9896  0.7312 -0.6081
   94MOL0     H12354   1.801   3.083   6.734  1.3787 -0.4166 -0.4600
   94MOL0     H12355   1.537   3.046   6.637  0.4564 -2.9902  0.7792
   94MOL0     H12356   1.605   3.190   6.726  0.7235 -0.4022  0.9545
   94MOL0     H12357   1.451   2.944   6.812  0.3107  0.0103 -1.6674
   94MOL0     H12358   1.533   3.042   6.941  0.2125 -0.6003  0.4329
   94MOL0     H12359   1.404   3.225   6.921 -0.9431  1.6907 -2.1325
   94MOL0     H12360   1.287   3.083   6.899  1.1294 -1.5431  0.6323
   94MOL0     H12361   1.172   3.027   6.702 -0.0962 -0.1574 -1.6584
   94MOL0     H12362   1.012   3.249   6.446  0.4680  0.5420  0.8723
   94MOL0     H12363   1.040   3.078   6.456  1.6625 -0.4225 -0.5883
   94MOL0     H12364   1.248   3.139   6.287  0.8568  1.0106 -1.7597
   94MOL0     H12365   1.180   3.305   6.296 -0.5834  1.4044 -0.6940
   94MOL0     H12366   1.111   3.179   6.095  0.3167  0.5217 -0.0235
   94MOL0     H12367   1.050   3.056   6.201  0.4682  0.6609  0.2800
   94MOL0     H12368   0.937   3.341   6.220  0.8412 -1.2291  3.5458
   94MOL0     H12369   0.876   3.197   6.292 -2.1009  0.0509 -2.0761
   94MOL0     H12370   0.712   3.366   6.238 -3.5568  1.2588  2.2507
   94MOL0     H12371   0.480   3.411   6.208 -1.8193 -2.4322  0.6526
   94MOL0     H12372   0.150   3.313   5.682  0.3394  1.0360  1.1522
   94MOL0     H12373  -0.090   3.332   5.616 -1.1921 -0.3631  0.5587
   94MOL0     H12374  -0.285   3.207   5.579 -1.2890 -2.3549  0.9971
   94MOL0     H12375  -0.323   3.383   5.598 -1.1923  2.4422  3.2886
   94MOL0     H12376  -0.498   3.138   5.599 -0.1003 -0.0630  1.0562
   94MOL0     H12377  -0.521   3.280   5.504 -1.7663  1.1714  1.6789
   94MOL0     H12378  -0.534   3.407   5.746  1.3102  0.5521  0.6069
   94MOL0     H12379  -0.584   3.248   5.803  0.5198  1.0446  0.1273
   94MOL0     H12380  -0.771   3.390   5.735 -0.8236 -1.2353  1.5428
   94MOL0     H12381  -0.712   3.403   5.565  1.4509  1.7933  1.2697
   94MOL0     H12382  -0.857   3.207   5.725  0.7130  3.1121  0.4175
   94MOL0     H12383  -0.731   3.124   5.632  0.1028 -0.1840  1.3978
   94MOL0     H12384  -0.829   3.196   5.429  2.8619  1.1370  1.8221
   94MOL0     H12385  -0.944   3.314   5.514 -0.6592  1.1410  3.5707
   94MOL0     H12386  -0.968   3.008   5.516 -2.7241 -0.5967 -1.8181
   94MOL0     H12387  -1.036   3.117   5.627 -0.1175 -1.0983  0.1572
   94MOL0     H12388  -1.069   3.098   5.322  1.4075  2.2163  0.3482
   94MOL0     H12389  -1.154   3.221   5.410  1.4938  0.4043  1.0704
   94MOL0     H12390  -0.198   3.194   6.004  0.3559  0.8264  0.6450
   94MOL0     H12391   0.042   3.184   6.081  0.7981  1.1712  0.1969
   94MOL0     H12392   0.464   3.133   5.891 -2.2772  2.6423 -0.2310
   94MOL0     H12393   0.702   3.091   5.908  0.3805 -0.7821  0.1229
   94MOL0     H12394   2.304   3.036   6.830 -2.3217 -1.8215  0.8770
   94MOL0     H12395   2.557   3.050   6.828  0.2996  0.5970  1.4225
   94MOL0     H12396   2.947   2.968   6.953  1.2008  0.8981 -0.7988
   94MOL0     H12397   3.171   2.966   6.993 -1.2393  0.6884  0.6573
   94MOL0     H12398   3.394   2.585   6.921  0.8168 -0.0728 -1.3284
   94MOL0     H12399   3.522   2.691   6.964  0.2820  1.5022 -1.3297
   94MOL0     H12400   3.400   2.699   6.696  0.3161 -0.4455 -2.7756
   94MOL0     H12401   3.540   2.788   6.737 -0.4079  0.4432 -0.8492
   94MOL0     H12402   3.670   2.582   6.773 -0.1839 -1.5137 -0.8578
   94MOL0     H12403   3.622   2.630   6.608  1.0430  0.9129  0.0622
   94MOL0     H12404   3.605   2.396   6.613 -1.3584  3.6120 -2.8002
   94MOL0     H12405   3.546   2.389   6.782  0.5565  0.9474  0.8866
   94MOL0     H12406   3.184   2.347   6.613 -0.3561 -0.4009 -0.3319
   94MOL0     H12407   3.197   2.580   6.792 -0.5605 -0.0325 -1.7139
   94MOL0     H12408   2.958   2.607   6.741 -0.3943 -0.9006  2.3469
   95MOL0     O12409   6.845  11.011   4.579  0.5114 -0.0993 -0.3696
   95MOL0     C12410   6.878  11.069   4.475 -0.3184  1.1708  0.1768
   95MOL0     O12411   6.796  11.079   4.361  0.1743 -0.4416 -0.1076
   95MOL0     C12412   6.660  11.064   4.374 -0.0511  0.0850 -0.5880
   95MOL0     C12413   6.589  11.179   4.337  0.4778  0.1180 -0.2252
   95MOL0     C12414   6.446  11.186   4.360 -0.3372 -0.2886  0.0547
   95MOL0     C12415   6.380  11.071   4.397 -0.0802  0.1527 -0.0833
   95MOL0     O12416   6.246  11.080   4.405 -0.1291  0.3339  0.2538
   95MOL0     C12417   6.174  10.966   4.347 -0.0032  0.1452 -0.6597
   95MOL0     C12418   6.076  10.997   4.233 -0.3723 -0.1468 -0.8480
   95MOL0     C12419   6.110  11.104   4.131  0.1989 -0.2348  0.3972
   95MOL0     C12420   6.165  11.040   4.000 -0.2317 -0.0530 -0.2178
   95MOL0     C12421   6.203  11.132   3.885  0.0723  0.0840 -0.4366
   95MOL0     C12422   6.325  11.212   3.923 -0.5171 -0.4372  0.3116
   95MOL0     C12423   6.389  11.257   3.786 -0.3609  0.5579  0.1588
   95MOL0     C12424   6.504  11.348   3.807 -0.2095  0.0662 -0.3525
   95MOL0     N12425   6.613  11.296   3.899  0.0676  0.3876  0.5930
   95MOL0     C12426   6.663  11.170   3.886 -0.1658  0.2911  0.1004
   95MOL0     C12427   6.760  11.168   3.983 -0.8517  0.4754  0.5491
   95MOL0     C12428   6.855  11.046   3.999  0.4620 -0.1166  0.2190
   95MOL0     C12429   6.998  11.087   3.954 -0.5038  0.4561 -0.3201
   95MOL0     C12430   7.105  10.977   3.985 -0.1818 -1.6335 -0.2220
   95MOL0     C12431   7.242  11.019   3.925 -0.2489  0.7593 -0.1998
   95MOL0     O12432   7.340  10.912   3.940  0.2989 -0.1857  0.1615
   95MOL0     C12433   7.470  10.946   3.920  0.2936  0.1713 -0.6114
   95MOL0     C12434   7.544  11.013   4.019  0.0753  0.7904  0.8425
   95MOL0     C12435   7.674  11.041   3.982 -0.4331 -0.1568  0.3604
   95MOL0     C12436   7.735  11.006   3.859 -1.4028  1.1503 -1.0585
   95MOL0     C12437   7.881  11.027   3.832 -1.1859 -0.1601 -0.4733
   95MOL0     O12438   7.920  10.981   3.711 -0.2594  0.3432 -0.0318
   95MOL0     C12439   8.049  10.988   3.667 -0.3399  0.3500 -0.4014
   95MOL0     C12440   8.148  10.940   3.747 -0.2282 -0.0346 -0.1576
   95MOL0     C12441   8.274  10.926   3.691  0.0729  0.0799  0.6587
   95MOL0     C12442   8.300  10.977   3.566 -0.4188 -0.6151 -1.1859
   95MOL0     O12443   8.424  10.944   3.521  0.4976 -0.1943  0.5689
   95MOL0     C12444   8.497  11.065   3.488  0.3157  0.0243  0.1144
   95MOL0     C12445   8.654  11.034   3.474  0.6094 -0.8352 -0.0169
   95MOL0     C12446   8.724  10.974   3.597 -1.0363 -0.3644 -0.2725
   95MOL0     C12447   8.861  10.914   3.576 -0.1770 -0.1608  0.6499
   95MOL0     C12448   8.924  10.882   3.707 -0.8653  0.7100  0.2486
   95MOL0     C12449   8.862  10.752   3.767 -0.7702  0.0328  0.7005
   95MOL0     C12450   8.912  10.622   3.692  0.0865 -0.1495  0.9106
   95MOL0     C12451   9.068  10.608   3.704 -0.0005  0.3402 -0.0902
   95MOL0    Cl12452   9.148  10.630   3.870 -0.3499  0.1796 -0.5658
   95MOL0     C12453   8.195  11.008   3.475 -0.7061 -0.6069 -0.3229
   95MOL0     C12454   8.068  11.017   3.531  0.0305  0.5247 -0.9536
   95MOL0     O12455   7.950  11.093   3.908 -0.3242  0.3804 -0.8800
   95MOL0     C12456   7.660  10.940   3.769  0.7927 -0.0758 -0.2851
   95MOL0     C12457   7.524  10.903   3.802 -0.2548 -0.3455  0.5532
   95MOL0     N12458   6.786  11.290   4.040  0.7980  0.0689 -0.1334
   95MOL0     N12459   6.690  11.366   3.991  0.0262 -1.3414  0.2254
   95MOL0     C12460   6.452  10.960   4.443  0.1353 -0.3443 -0.5222
   95MOL0     C12461   6.597  10.953   4.441  1.7173  0.1963  0.8852
   95MOL0     C12462   7.012  11.132   4.471  0.6939  0.8391  0.5273
   95MOL0     C12463   7.107  11.109   4.564 -0.5327 -0.1373 -0.0560
   95MOL0     C12464   7.233  11.164   4.548 -0.4670 -0.3245 -0.0151
   95MOL0     C12465   7.260  11.246   4.435 -0.7369 -0.4877 -0.2634
   95MOL0     O12466   7.383  11.314   4.414  0.3253  0.5323 -0.3586
   95MOL0     C12467   7.486  11.311   4.515  0.2018 -0.7427  0.7731
   95MOL0     C12468   7.607  11.382   4.459  0.7154  0.8856  0.0383
   95MOL0     C12469   7.687  11.287   4.359 -0.0690 -0.6299  0.2212
   95MOL0     C12470   7.797  11.362   4.284 -0.3320 -0.7633  0.0002
   95MOL0     C12471   7.899  11.430   4.375  0.1420  0.3177 -0.5508
   95MOL0     C12472   7.977  11.483   4.453  0.0193 -0.0694 -0.3049
   95MOL0     C12473   7.157  11.277   4.341 -0.6577  0.3560  0.6752
   95MOL0     C12474   7.033  11.219   4.355  0.2077  0.7084 -0.2676
   95MOL0     H12475   6.643  11.270   4.313  2.2892 -0.7230  0.5174
   95MOL0     H12476   6.392  11.280   4.351 -0.2456 -0.0641  1.5648
   95MOL0     H12477   6.120  10.923   4.431  2.3503  0.9174  1.3617
   95MOL0     H12478   6.242  10.889   4.310 -2.2039 -1.4650 -1.5505
   95MOL0     H12479   5.987  11.034   4.284  0.4714  2.7030 -1.2648
   95MOL0     H12480   6.066  10.903   4.178 -1.3392 -1.1153  0.8892
   95MOL0     H12481   6.177  11.174   4.181 -0.2400  0.8750 -0.5426
   95MOL0     H12482   6.018  11.156   4.104  1.8025  0.6517 -4.1210
   95MOL0     H12483   6.261  10.992   4.021  1.7130  3.1730 -1.0489
   95MOL0     H12484   6.091  10.974   3.954 -0.2652 -0.5059  0.4678
   95MOL0     H12485   6.122  11.198   3.852  0.6473  0.2766 -1.5187
   95MOL0     H12486   6.219  11.071   3.796  0.5605  1.3029 -1.2128
   95MOL0     H12487   6.403  11.151   3.971 -1.0842 -0.1476  1.6334
   95MOL0     H12488   6.297  11.296   3.987 -1.2588 -1.1744  0.9653
   95MOL0     H12489   6.427  11.169   3.733  2.1426  0.1777  2.3630
   95MOL0     H12490   6.319  11.312   3.722 -1.1722 -0.7148 -0.0752
   95MOL0     H12491   6.464  11.445   3.838 -1.8476 -0.7928  0.3388
   95MOL0     H12492   6.561  11.382   3.720  1.1475  0.7868  0.7647
   95MOL0     H12493   6.628  11.091   3.820 -0.2318 -0.8705  1.4836
   95MOL0     H12494   6.818  10.970   3.930  0.8616 -0.2767  0.1788
   95MOL0     H12495   6.849  11.018   4.105 -2.9147  1.2736  0.5156
   95MOL0     H12496   7.027  11.179   4.006  1.3263 -0.7964  1.0302
   95MOL0     H12497   6.990  11.099   3.846 -2.2142  0.5404 -0.2025
   95MOL0     H12498   7.111  10.971   4.094  0.1821  0.4465 -0.0848
   95MOL0     H12499   7.077  10.876   3.954 -2.1149 -1.8376  1.9036
   95MOL0     H12500   7.272  11.101   3.990 -0.0525 -0.9749  2.0120
   95MOL0     H12501   7.245  11.060   3.823  1.9073  1.2080  0.0005
   95MOL0     H12502   7.501  11.043   4.115 -2.2537 -0.2188  0.1686
   95MOL0     H12503   7.730  11.104   4.050 -0.5329  1.0995 -0.6999
   95MOL0     H12504   8.121  10.896   3.843  0.3905  1.9749  0.9999
   95MOL0     H12505   8.347  10.869   3.750 -2.7620 -0.8133  3.6221
   95MOL0     H12506   8.496  11.138   3.569 -0.1714 -2.3304  2.3718
   95MOL0     H12507   8.457  11.105   3.394  0.7942 -2.6238 -1.3101
   95MOL0     H12508   8.710  11.120   3.435  0.4588 -1.1174 -0.8899
   95MOL0     H12509   8.663  10.963   3.391  0.1719  0.6662 -1.4128
   95MOL0     H12510   8.660  10.903   3.650 -0.6089 -2.0178 -1.8855
   95MOL0     H12511   8.750  11.060   3.660 -2.2005 -0.1596 -0.0480
   95MOL0     H12512   8.854  10.835   3.500  2.0770  0.5444 -0.3706
   95MOL0     H12513   8.932  10.985   3.533 -0.1659 -0.7745 -0.3642
   95MOL0     H12514   8.919  10.956   3.788  0.9999 -1.6910  2.7690
   95MOL0     H12515   9.031  10.880   3.688 -0.8824 -1.0901  0.1534
   95MOL0     H12516   8.753  10.760   3.760 -0.5694  1.8326 -1.4690
   95MOL0     H12517   8.893  10.738   3.871  1.9309 -1.2730 -0.1738
   95MOL0     H12518   8.858  10.538   3.737 -0.0032 -1.2078 -1.0446
   95MOL0     H12519   8.887  10.620   3.586 -0.1431  5.0556  0.6364
   95MOL0     H12520   9.107  10.688   3.641 -0.4544  1.1825  0.6808
   95MOL0     H12521   9.096  10.514   3.655  0.7339 -0.2425  1.3486
   95MOL0     H12522   8.213  11.026   3.370 -1.4452 -0.6680 -0.4628
   95MOL0     H12523   7.980  11.044   3.473 -0.8538  0.1657  0.1609
   95MOL0     H12524   7.698  10.913   3.671  1.2836  1.2671 -0.4776
   95MOL0     H12525   7.455  10.851   3.737 -0.6398  2.7031 -1.7011
   95MOL0     H12526   6.407  10.874   4.492  1.7253 -1.5454 -1.0715
   95MOL0     H12527   6.645  10.858   4.463  0.5410 -0.7020 -0.2746
   95MOL0     H12528   7.091  11.030   4.638  0.2495  0.6727  1.0007
   95MOL0     H12529   7.320  11.140   4.609  2.5404  1.7031 -3.0901
   95MOL0     H12530   7.510  11.204   4.517 -0.2709 -0.8505  3.2275
   95MOL0     H12531   7.454  11.355   4.610 -1.0939 -0.1358  0.0754
   95MOL0     H12532   7.587  11.476   4.405  1.5303  0.8136 -0.3963
   95MOL0     H12533   7.678  11.414   4.535  0.8187  1.6675 -0.3744
   95MOL0     H12534   7.614  11.258   4.283 -0.5275 -2.6859  1.3711
   95MOL0     H12535   7.727  11.201   4.413 -0.1017 -0.4746  0.4977
   95MOL0     H12536   7.854  11.297   4.217  0.7229  1.4743 -1.3579
   95MOL0     H12537   7.757  11.435   4.214 -2.3210 -1.1869  0.6397
   95MOL0     H12538   8.041  11.530   4.526 -2.2522  2.4640  0.2192
   95MOL0     H12539   7.178  11.336   4.252 -0.1373 -0.1786  0.4469
   95MOL0     H12540   6.953  11.237   4.284 -1.5480  3.0590  2.1018
   96MOL0     O12541   3.587   0.885   8.836 -0.2347 -0.0942 -0.0807
   96MOL0     C12542   3.644   0.991   8.862 -0.1840 -0.5782  0.3835
   96MOL0     O12543   3.590   1.104   8.928 -0.0948  0.5641 -0.2508
   96MOL0     C12544   3.460   1.111   8.952 -0.0957  0.5569 -0.2491
   96MOL0     C12545   3.408   1.073   9.072  1.0787 -1.2594 -0.0616
   96MOL0     C12546   3.267   1.069   9.094  0.0169  0.5541  0.7089
   96MOL0     C12547   3.182   1.112   8.997  1.1611 -0.3448  0.6213
   96MOL0     O12548   3.054   1.078   9.018 -0.1097  0.0128  0.4641
   96MOL0     C12549   2.964   1.188   9.020  0.1407  0.0855 -0.4858
   96MOL0     C12550   2.850   1.153   9.117  0.8046 -0.3797  0.4072
   96MOL0     C12551   2.755   1.047   9.053  0.2452  0.1936 -0.1247
   96MOL0     C12552   2.635   1.035   9.145  0.5397  0.0801 -0.3430
   96MOL0     C12553   2.513   0.985   9.066 -0.4888 -0.3092  0.0731
   96MOL0     C12554   2.388   0.978   9.160  0.7228  0.5825  0.4019
   96MOL0     C12555   2.275   0.909   9.074 -0.3611 -0.9661 -0.5283
   96MOL0     C12556   2.137   0.919   9.142  0.7382 -0.2477  0.3726
   96MOL0     N12557   2.022   0.866   9.060 -0.2741  0.8457 -0.2301
   96MOL0     C12558   1.924   0.786   9.109  1.3880  0.3765  0.6904
   96MOL0     C12559   1.864   0.747   8.996  0.5846  0.1597 -0.2885
   96MOL0     C12560   1.748   0.644   8.989 -0.3465 -0.0239 -0.1863
   96MOL0     C12561   1.614   0.701   9.055  0.1195 -0.3180 -0.4103
   96MOL0     C12562   1.556   0.822   8.973 -0.0040 -0.4092 -0.3258
   96MOL0     C12563   1.464   0.784   8.855 -0.7881 -0.3613  0.4656
   96MOL0     O12564   1.348   0.722   8.893 -0.5360 -0.2108 -0.0433
   96MOL0     C12565   1.302   0.625   8.811 -0.3094 -0.1506 -0.6752
   96MOL0     C12566   1.239   0.516   8.870 -0.9417 -0.7353  0.8159
   96MOL0     C12567   1.205   0.413   8.788  0.6109  0.2157  0.3490
   96MOL0     C12568   1.201   0.422   8.648 -0.1024  1.1181 -1.1978
   96MOL0     C12569   1.157   0.304   8.573 -0.5883 -0.1126  0.6150
   96MOL0     O12570   1.073   0.215   8.630 -0.6384  0.9645 -0.2568
   96MOL0     C12571   1.040   0.097   8.577 -0.1368  0.9352  0.6039
   96MOL0     C12572   0.915   0.044   8.598 -0.2217  0.1259 -0.0315
   96MOL0     C12573   0.877  -0.086   8.542  0.5472  0.7022 -0.3473
   96MOL0     C12574   0.980  -0.161   8.483 -0.3820  0.9487 -0.1667
   96MOL0     O12575   0.966  -0.277   8.406 -0.5009 -0.4650  0.1138
   96MOL0     C12576   0.828  -0.323   8.375  0.5958 -0.2747  0.3252
   96MOL0     C12577   0.766  -0.422   8.475  0.3861  0.4235  0.3777
   96MOL0     C12578   0.618  -0.404   8.477 -0.3256  0.5096 -0.2916
   96MOL0     C12579   0.551  -0.467   8.596  0.2429 -0.3275 -0.7215
   96MOL0     C12580   0.419  -0.415   8.635 -0.8710 -0.6608  0.6777
   96MOL0     C12581   0.315  -0.447   8.528  0.1234  0.4784  0.2871
   96MOL0     C12582   0.270  -0.590   8.550 -0.3110  0.5220 -0.1256
   96MOL0     C12583   0.145  -0.621   8.465 -0.3844  1.0119  0.9425
   96MOL0    Cl12584  -0.002  -0.533   8.511  0.3149  0.3946 -0.0575
   96MOL0     C12585   1.104  -0.114   8.480 -0.4492 -0.2353 -0.2434
   96MOL0     C12586   1.134   0.011   8.517 -0.3138 -0.8835  1.0957
   96MOL0     O12587   1.196   0.306   8.455  0.4474  0.2947  0.0782
   96MOL0     C12588   1.243   0.539   8.585 -0.0699  0.1537  0.3987
   96MOL0     C12589   1.294   0.641   8.668  0.3697  0.3188  0.9140
   96MOL0     N12590   1.905   0.809   8.886 -0.0845 -0.4290 -0.0821
   96MOL0     N12591   1.997   0.889   8.932 -0.4895 -0.7197 -0.2097
   96MOL0     C12592   3.239   1.157   8.868  0.1762  0.5937 -0.3957
   96MOL0     C12593   3.378   1.166   8.859 -0.6654 -0.2738  0.7960
   96MOL0     C12594   3.785   1.007   8.826 -0.3456  0.2333  0.6703
   96MOL0     C12595   3.836   1.130   8.795  0.0455 -0.7459  0.5433
   96MOL0     C12596   3.964   1.144   8.736 -0.7957 -0.3280 -0.0570
   96MOL0     C12597   4.044   1.030   8.712 -0.5666  0.4419 -0.3103
   96MOL0     O12598   4.170   1.031   8.657 -0.3430 -0.0156  0.7428
   96MOL0     C12599   4.228   1.145   8.599 -0.3158 -0.3016  0.1147
   96MOL0     C12600   4.160   1.203   8.474  0.1915  0.1553  0.6743
   96MOL0     C12601   4.199   1.128   8.341  0.7267 -0.0566  0.3199
   96MOL0     C12602   4.108   1.172   8.229 -0.5278 -0.0808  0.2766
   96MOL0     C12603   4.138   1.312   8.174 -0.5106 -0.2211  0.4701
   96MOL0     C12604   4.174   1.430   8.144 -0.3784 -0.2149  0.7132
   96MOL0     C12605   3.991   0.906   8.745 -0.5395 -0.2026  0.5486
   96MOL0     C12606   3.863   0.890   8.801 -0.7749 -0.6144 -0.1325
   96MOL0     H12607   3.479   1.034   9.144  0.0976 -2.5324  0.2566
   96MOL0     H12608   3.220   1.029   9.184 -1.7855  2.6540  0.7907
   96MOL0     H12609   2.923   1.216   8.922 -1.3358 -0.4898 -0.0629
   96MOL0     H12610   3.017   1.278   9.053 -3.4981  1.5003  2.1794
   96MOL0     H12611   2.798   1.247   9.138  0.2412 -0.3717 -0.9092
   96MOL0     H12612   2.889   1.112   9.211  0.1301  0.8670  1.2583
   96MOL0     H12613   2.813   0.954   9.049 -1.7576 -1.0692 -2.5316
   96MOL0     H12614   2.728   1.070   8.950 -0.8133  0.6055  0.2279
   96MOL0     H12615   2.657   0.964   9.225 -2.1242 -1.2944 -0.7139
   96MOL0     H12616   2.610   1.127   9.199 -0.5876 -0.3164 -0.1436
   96MOL0     H12617   2.540   0.897   9.007 -2.8191 -1.4161  0.5305
   96MOL0     H12618   2.470   1.057   8.996 -0.4185 -0.8414 -0.5282
   96MOL0     H12619   2.346   1.074   9.191 -0.6348  1.1934 -2.8916
   96MOL0     H12620   2.414   0.911   9.243  2.3635  1.9668  1.0842
   96MOL0     H12621   2.258   0.975   8.988 -1.3844  0.2418  0.5448
   96MOL0     H12622   2.307   0.808   9.046 -0.9042 -1.4046  0.3829
   96MOL0     H12623   2.123   1.025   9.162  4.1303  0.1584  1.1714
   96MOL0     H12624   2.142   0.854   9.230  2.7277 -1.8994 -0.8636
   96MOL0     H12625   1.911   0.752   9.211  1.2268  0.5921  0.7442
   96MOL0     H12626   1.778   0.547   9.030  3.2790  1.3008  0.6602
   96MOL0     H12627   1.734   0.632   8.881 -0.9940  1.8582 -0.3533
   96MOL0     H12628   1.618   0.712   9.164  1.6264 -2.9033 -0.1200
   96MOL0     H12629   1.545   0.616   9.051  1.0018 -1.3446  2.9664
   96MOL0     H12630   1.505   0.892   9.041 -0.5150 -2.4856  1.5422
   96MOL0     H12631   1.641   0.877   8.932  0.8665 -1.6412 -0.2413
   96MOL0     H12632   1.523   0.726   8.783 -0.1202  3.9963 -2.9062
   96MOL0     H12633   1.429   0.871   8.798 -0.7767 -1.4647 -1.2943
   96MOL0     H12634   1.233   0.503   8.978  1.0169  3.5677  1.6678
   96MOL0     H12635   1.164   0.331   8.847 -1.0939  1.5283  1.0812
   96MOL0     H12636   0.844   0.097   8.661 -0.8002  0.0755 -0.6351
   96MOL0     H12637   0.773  -0.117   8.545 -0.0852  2.6184 -0.9659
   96MOL0     H12638   0.822  -0.374   8.278  0.1260  1.1850 -0.4342
   96MOL0     H12639   0.765  -0.235   8.363 -0.2710 -0.6154  2.0211
   96MOL0     H12640   0.820  -0.416   8.570  1.9192 -1.2288 -0.3321
   96MOL0     H12641   0.787  -0.520   8.433  1.4929 -0.0722  2.0097
   96MOL0     H12642   0.571  -0.438   8.384  0.0777  3.8044 -1.8239
   96MOL0     H12643   0.593  -0.298   8.489 -1.0842  0.1799  1.2291
   96MOL0     H12644   0.547  -0.574   8.574 -2.0375  0.0855 -2.7280
   96MOL0     H12645   0.620  -0.454   8.679 -3.0672  0.5842  2.1251
   96MOL0     H12646   0.426  -0.307   8.654  1.0165 -0.6654  0.1973
   96MOL0     H12647   0.402  -0.466   8.731  2.0314  0.8710  2.1341
   96MOL0     H12648   0.333  -0.439   8.421  0.2694  0.3385  0.3005
   96MOL0     H12649   0.229  -0.381   8.546  0.6966  0.9032  1.5939
   96MOL0     H12650   0.351  -0.660   8.525 -2.1441 -1.4033 -0.9580
   96MOL0     H12651   0.248  -0.603   8.656 -0.7150  0.2211 -0.2459
   96MOL0     H12652   0.128  -0.729   8.466  1.7334  0.5895 -0.3940
   96MOL0     H12653   0.159  -0.596   8.359  0.6556 -1.8376  0.3155
   96MOL0     H12654   1.195  -0.156   8.438  0.3149 -0.1692  1.2840
   96MOL0     H12655   1.233   0.040   8.486  0.4629 -4.4167 -0.2707
   96MOL0     H12656   1.255   0.555   8.478  1.2004  3.7528  0.9193
   96MOL0     H12657   1.342   0.722   8.614 -0.7532 -0.1643 -0.9115
   96MOL0     H12658   3.171   1.187   8.789 -1.3255  0.1633  0.6863
   96MOL0     H12659   3.425   1.205   8.769  1.2864  0.6779  2.1529
   96MOL0     H12660   3.771   1.217   8.803 -0.6030 -1.1067 -0.6025
   96MOL0     H12661   4.013   1.234   8.701 -1.4039 -0.5021 -1.4019
   96MOL0     H12662   4.333   1.116   8.591 -0.2372 -0.4793  1.5365
   96MOL0     H12663   4.223   1.228   8.670  2.7278  1.0185 -1.0394
   96MOL0     H12664   4.051   1.215   8.483 -0.0818 -0.1618 -1.5394
   96MOL0     H12665   4.186   1.308   8.461 -2.0966  0.6642 -0.3922
   96MOL0     H12666   4.167   1.023   8.343 -2.8577  0.8504 -1.0221
   96MOL0     H12667   4.302   1.132   8.306  0.6876 -2.3037 -0.1897
   96MOL0     H12668   4.129   1.101   8.147  0.4927 -0.2129  0.6399
   96MOL0     H12669   4.003   1.167   8.260  0.0966 -0.1477  2.5670
   96MOL0     H12670   4.186   1.535   8.126  0.1251 -0.2828  0.6375
   96MOL0     H12671   4.046   0.817   8.719 -0.8580 -0.3873  0.5040
   96MOL0     H12672   3.827   0.794   8.838 -3.3098  0.6974  1.0731
   97MOL0     O12673   2.567   6.452   6.734 -0.0172  0.3033 -0.4755
   97MOL0     C12674   2.640   6.476   6.834 -0.6388  0.0498 -0.2803
   97MOL0     O12675   2.599   6.490   6.961 -0.1990  0.7280 -0.0620
   97MOL0     C12676   2.469   6.485   6.998 -0.2489  0.2749  0.4094
   97MOL0     C12677   2.363   6.431   6.935 -1.1465  0.5354 -0.3671
   97MOL0     C12678   2.234   6.451   6.977  1.3428 -0.2746  0.2546
   97MOL0     C12679   2.205   6.531   7.087 -0.0620  0.1066  0.0558
   97MOL0     O12680   2.074   6.539   7.130 -0.1992  0.3579  0.2734
   97MOL0     C12681   2.041   6.675   7.156  0.3910  0.6884 -0.3622
   97MOL0     C12682   1.903   6.680   7.219 -1.4993 -0.1027  0.4175
   97MOL0     C12683   1.794   6.603   7.143  0.0071 -0.1276 -0.3747
   97MOL0     C12684   1.657   6.608   7.230 -0.3444  0.0627 -0.0256
   97MOL0     C12685   1.549   6.510   7.189 -1.1807  0.0090 -0.1307
   97MOL0     C12686   1.424   6.537   7.276  0.5499  0.2061 -1.5013
   97MOL0     C12687   1.305   6.447   7.235  0.3353  0.4794 -0.5146
   97MOL0     C12688   1.177   6.498   7.303 -0.3765 -0.3298 -1.1365
   97MOL0     N12689   1.121   6.606   7.226 -0.8840 -0.2781  0.2544
   97MOL0     C12690   1.051   6.593   7.116  0.2046 -0.2343  0.0825
   97MOL0     C12691   1.001   6.709   7.076  0.4658 -0.5596  0.2282
   97MOL0     C12692   0.927   6.746   6.956  0.1028  0.0625 -0.0647
   97MOL0     C12693   0.790   6.671   6.962  0.0532  0.0137  0.8009
   97MOL0     C12694   0.784   6.548   6.870  1.1603  0.4433  0.4463
   97MOL0     C12695   0.642   6.500   6.844 -0.1891 -0.3039 -0.0402
   97MOL0     O12696   0.586   6.451   6.961  0.4128  0.2814 -0.0019
   97MOL0     C12697   0.462   6.394   6.955  0.7333 -0.0087  0.3878
   97MOL0     C12698   0.427   6.334   7.076  0.5817  0.3151  0.7913
   97MOL0     C12699   0.298   6.263   7.095 -0.5314 -0.1015  0.0504
   97MOL0     C12700   0.209   6.250   6.983 -0.9049  0.2615 -0.0963
   97MOL0     C12701   0.068   6.209   6.994 -0.1177  0.0795 -0.6388
   97MOL0     O12702  -0.027   6.256   6.911  0.0180  0.1994 -0.2936
   97MOL0     C12703  -0.163   6.233   6.933  0.1247 -1.5969 -0.2519
   97MOL0     C12704  -0.257   6.327   6.893 -0.3680 -0.3642 -0.5045
   97MOL0     C12705  -0.391   6.295   6.886 -0.0931  1.1395 -0.0431
   97MOL0     C12706  -0.431   6.165   6.908  0.6119 -1.1867 -0.0565
   97MOL0     O12707  -0.554   6.121   6.893  0.2413  0.1537  0.6683
   97MOL0     C12708  -0.646   6.141   7.009 -0.4993  0.4412  0.0244
   97MOL0     C12709  -0.797   6.134   7.002  0.0168  0.1624  0.1302
   97MOL0     C12710  -0.845   5.995   7.042  0.1720  0.9510  0.2640
   97MOL0     C12711  -0.999   5.993   7.065 -0.1229  0.1229 -0.6630
   97MOL0     C12712  -1.054   5.857   7.114  0.2766 -0.8970  0.7686
   97MOL0     C12713  -1.198   5.862   7.174  0.2290  0.5115 -0.9229
   97MOL0     C12714  -1.305   5.924   7.092  0.4873  0.1463  0.5707
   97MOL0     C12715  -1.436   5.943   7.162 -0.6066 -0.4780 -0.4635
   97MOL0    Cl12716  -1.489   5.784   7.217  0.1229 -0.0039  0.3289
   97MOL0     C12717  -0.344   6.083   6.958 -0.5995  0.6577 -0.6599
   97MOL0     C12718  -0.210   6.111   6.975 -0.5613 -0.4064  0.3755
   97MOL0     O12719   0.054   6.131   7.088  1.2360  0.7055  1.0022
   97MOL0     C12720   0.250   6.300   6.857 -0.2688  0.9099 -0.3223
   97MOL0     C12721   0.374   6.372   6.850  0.0917 -0.6723 -0.0008
   97MOL0     N12722   1.042   6.802   7.171 -0.5314 -0.3422  0.4265
   97MOL0     N12723   1.111   6.743   7.267 -0.3120 -0.5579 -0.5840
   97MOL0     C12724   2.314   6.588   7.153  0.2971 -0.7217  0.2314
   97MOL0     C12725   2.452   6.560   7.122 -0.5548 -0.4109  0.1339
   97MOL0     C12726   2.788   6.487   6.813 -0.3619 -0.0284 -0.6598
   97MOL0     C12727   2.836   6.435   6.692  0.4211 -0.2545  0.3956
   97MOL0     C12728   2.975   6.433   6.659  0.7239  0.2829  0.2845
   97MOL0     C12729   3.070   6.475   6.748  0.4901  0.0014 -0.2378
   97MOL0     O12730   3.200   6.457   6.732 -1.1386 -0.6437 -0.1420
   97MOL0     C12731   3.251   6.406   6.610 -0.3170 -0.3552 -0.7429
   97MOL0     C12732   3.262   6.506   6.497  0.7100 -0.2048 -0.8505
   97MOL0     C12733   3.334   6.452   6.379  0.1026  0.9860  0.5456
   97MOL0     C12734   3.308   6.546   6.259  0.2234 -0.1789  0.0328
   97MOL0     C12735   3.168   6.532   6.221 -0.1442 -1.6755  0.1377
   97MOL0     C12736   3.052   6.513   6.182 -0.3103 -0.4584 -0.6648
   97MOL0     C12737   3.018   6.538   6.864 -0.3260  0.9137  0.1417
   97MOL0     C12738   2.885   6.546   6.902  0.4189 -0.4843 -0.2201
   97MOL0     H12739   2.382   6.368   6.849 -0.2144  0.0563  0.1736
   97MOL0     H12740   2.152   6.398   6.929  1.5137 -0.7988  0.5316
   97MOL0     H12741   2.033   6.742   7.070 -1.2519  0.4097 -0.4464
   97MOL0     H12742   2.104   6.718   7.235 -1.1895 -1.3548  2.1511
   97MOL0     H12743   1.881   6.787   7.224  0.9021  0.6080 -2.0359
   97MOL0     H12744   1.917   6.641   7.320  3.0816 -1.7673 -0.6009
   97MOL0     H12745   1.829   6.499   7.147  0.5481  0.0973  1.9569
   97MOL0     H12746   1.794   6.627   7.036  2.1856 -0.7333 -0.5540
   97MOL0     H12747   1.684   6.573   7.329 -1.4440 -2.0855 -0.4312
   97MOL0     H12748   1.626   6.713   7.239 -1.3652 -0.3716  1.8941
   97MOL0     H12749   1.596   6.411   7.191  0.9810  0.9141 -2.0360
   97MOL0     H12750   1.528   6.522   7.082  0.1010 -0.9673 -0.5118
   97MOL0     H12751   1.402   6.643   7.257  4.9585  0.9282 -4.2276
   97MOL0     H12752   1.450   6.514   7.379 -0.2691 -0.7080 -1.4896
   97MOL0     H12753   1.289   6.429   7.129  0.0693 -2.1025 -0.1016
   97MOL0     H12754   1.337   6.350   7.273  0.4939  1.0955  1.0451
   97MOL0     H12755   1.201   6.539   7.402 -0.1199 -1.3611 -0.7576
   97MOL0     H12756   1.107   6.415   7.317 -0.9640  0.5000  1.3160
   97MOL0     H12757   1.039   6.503   7.056  0.5792  0.9615 -1.8582
   97MOL0     H12758   0.987   6.715   6.870  2.0387  1.1453  0.8399
   97MOL0     H12759   0.904   6.852   6.965 -2.3526 -0.4654  0.9198
   97MOL0     H12760   0.710   6.739   6.931  0.1698 -0.8617 -1.7148
   97MOL0     H12761   0.774   6.639   7.065  0.8439 -2.3508  0.2397
   97MOL0     H12762   0.834   6.558   6.773  0.9035 -0.4627  0.2077
   97MOL0     H12763   0.837   6.464   6.916 -0.2528  0.6768  2.6345
   97MOL0     H12764   0.653   6.421   6.769  0.0172 -0.4010  0.0896
   97MOL0     H12765   0.594   6.589   6.803  3.3352  2.5967  1.5599
   97MOL0     H12766   0.488   6.337   7.166 -0.8080  1.3466  1.7454
   97MOL0     H12767   0.269   6.219   7.189 -1.1968 -1.4398 -0.7577
   97MOL0     H12768  -0.225   6.425   6.857  0.8991 -0.9108 -0.9248
   97MOL0     H12769  -0.466   6.360   6.841 -0.0476 -0.5271 -2.7111
   97MOL0     H12770  -0.621   6.240   7.046  0.6008  0.2286 -0.0955
   97MOL0     H12771  -0.607   6.069   7.082 -1.0280 -0.4633 -0.5535
   97MOL0     H12772  -0.836   6.160   6.903 -1.9484  0.1985  0.8759
   97MOL0     H12773  -0.839   6.207   7.072  0.9796  2.3200 -1.4205
   97MOL0     H12774  -0.801   5.957   7.134 -0.1766 -0.4766 -0.1369
   97MOL0     H12775  -0.808   5.920   6.972  2.4791 -2.7550  4.8914
   97MOL0     H12776  -1.010   6.063   7.149  0.4885 -0.0928 -0.3970
   97MOL0     H12777  -1.064   6.029   6.984 -1.1876 -1.2732 -0.4709
   97MOL0     H12778  -0.978   5.831   7.189 -1.7106 -0.2352  3.1190
   97MOL0     H12779  -1.050   5.780   7.037 -1.2866  0.0408 -0.2952
   97MOL0     H12780  -1.184   5.907   7.273 -0.3643  1.5264 -1.2898
   97MOL0     H12781  -1.216   5.756   7.196 -0.1973  1.2290  2.9624
   97MOL0     H12782  -1.270   6.021   7.054  0.0890 -0.4369 -1.3827
   97MOL0     H12783  -1.320   5.866   7.001 -0.6094  2.1512 -0.6124
   97MOL0     H12784  -1.511   6.003   7.108  1.7394  2.4644 -0.7231
   97MOL0     H12785  -1.420   5.997   7.255  1.2525  1.5738 -1.8623
   97MOL0     H12786  -0.383   5.989   6.997 -1.5136  0.8116 -1.1696
   97MOL0     H12787  -0.146   6.026   6.999  3.8338  2.6086  0.5374
   97MOL0     H12788   0.191   6.303   6.766  1.0009 -1.2925 -1.2714
   97MOL0     H12789   0.414   6.403   6.754  1.8635 -0.8974  0.6288
   97MOL0     H12790   2.310   6.652   7.241  0.4087 -0.9874  0.4315
   97MOL0     H12791   2.531   6.616   7.171  0.4413 -0.6526 -1.1344
   97MOL0     H12792   2.761   6.406   6.619 -0.5695  2.5035  0.1968
   97MOL0     H12793   3.008   6.390   6.566  0.9567 -0.1628  0.5679
   97MOL0     H12794   3.201   6.311   6.587  0.4914 -1.1907  0.7999
   97MOL0     H12795   3.354   6.383   6.635  0.1660  1.7163 -0.6523
   97MOL0     H12796   3.162   6.546   6.477 -1.2577 -3.5641  1.2620
   97MOL0     H12797   3.318   6.593   6.532 -2.8875  2.7321 -1.8290
   97MOL0     H12798   3.292   6.353   6.359 -2.8169  2.5533 -2.0346
   97MOL0     H12799   3.442   6.451   6.395  0.5925  0.0996 -2.2705
   97MOL0     H12800   3.331   6.647   6.294  0.2622  1.1260 -3.3697
   97MOL0     H12801   3.367   6.519   6.171  0.7643 -2.7257  1.0923
   97MOL0     H12802   2.953   6.481   6.154 -1.0841  1.6305 -0.5181
   97MOL0     H12803   3.095   6.577   6.929 -1.1245  0.0474  1.6465
   97MOL0     H12804   2.862   6.606   6.990 -0.9871 -1.2344 -0.0557
   98MOL0     O12805   0.332   8.612   4.613  0.7241 -0.0616  0.3291
   98MOL0     C12806   0.413   8.647   4.529 -0.2161 -0.0432  0.4989
   98MOL0     O12807   0.387   8.694   4.403  1.2004 -0.3124 -0.3678
   98MOL0     C12808   0.266   8.761   4.390 -0.3790  0.4019  0.0794
   98MOL0     C12809   0.271   8.903   4.415 -1.0117  1.0835  0.4860
   98MOL0     C12810   0.157   8.969   4.401 -0.4271 -0.9677 -1.3427
   98MOL0     C12811   0.038   8.913   4.369  0.5196  0.3004 -0.3965
   98MOL0     O12812  -0.081   8.987   4.361 -0.5823  0.3086  0.1100
   98MOL0     C12813  -0.084   9.126   4.380 -0.4618 -0.4712 -0.2775
   98MOL0     C12814  -0.203   9.200   4.321  0.4051  0.3139  0.4097
   98MOL0     C12815  -0.329   9.189   4.407 -0.8801  0.2038  0.5865
   98MOL0     C12816  -0.425   9.306   4.364  0.5374 -0.1393  0.3118
   98MOL0     C12817  -0.547   9.321   4.456 -0.1143 -0.6113 -1.3086
   98MOL0     C12818  -0.638   9.421   4.395  0.0708 -0.2546 -0.5301
   98MOL0     C12819  -0.740   9.493   4.502 -1.2724 -0.6882  0.5811
   98MOL0     C12820  -0.836   9.588   4.413  0.0154  0.9185  0.0400
   98MOL0     N12821  -0.921   9.673   4.498 -0.6387 -0.1720 -0.4071
   98MOL0     C12822  -0.879   9.758   4.593  0.5311 -1.0136  0.1566
   98MOL0     C12823  -0.993   9.820   4.629 -0.7315  0.2122 -0.0932
   98MOL0     C12824  -0.991   9.945   4.716  0.2627 -0.6556 -1.1160
   98MOL0     C12825  -1.112   9.972   4.806 -0.0422  0.1885  0.1355
   98MOL0     C12826  -1.113  10.130   4.844 -0.9239  0.0616  0.0272
   98MOL0     C12827  -1.259  10.172   4.868 -0.0702  0.2483  0.3583
   98MOL0     O12828  -1.312  10.102   4.985  0.1574  0.4400 -0.0490
   98MOL0     C12829  -1.443  10.066   4.963 -0.2697 -0.0485  0.7163
   98MOL0     C12830  -1.541  10.158   4.920 -0.6967  0.0173  0.0271
   98MOL0     C12831  -1.682  10.123   4.912  0.0355 -0.6656 -0.3438
   98MOL0     C12832  -1.719  10.003   4.960  0.6230  0.2210  0.1008
   98MOL0     C12833  -1.864   9.982   4.968  0.3137 -0.0012 -0.5523
   98MOL0     O12834  -1.957  10.084   4.951  0.5218 -0.4519 -0.1739
   98MOL0     C12835  -2.090  10.058   4.959  0.3409  0.2871 -1.1527
   98MOL0     C12836  -2.166  10.080   5.074  0.1858 -0.5143  0.3786
   98MOL0     C12837  -2.300  10.035   5.090 -0.8689 -0.2527  1.0991
   98MOL0     C12838  -2.366   9.994   4.975  0.0137 -0.4992 -0.5843
   98MOL0     O12839  -2.491   9.935   4.968 -0.1543  0.1397  0.2066
   98MOL0     C12840  -2.583   9.959   5.075  0.1673  0.3832 -0.3863
   98MOL0     C12841  -2.720   9.904   5.035 -0.1129 -0.3093 -0.5770
   98MOL0     C12842  -2.830   9.930   5.136  0.1102  0.9099 -0.4486
   98MOL0     C12843  -2.967   9.869   5.090  0.4111 -0.3205  0.3235
   98MOL0     C12844  -3.076   9.896   5.195 -1.1297 -0.0683 -0.0812
   98MOL0     C12845  -3.219   9.862   5.162  0.0164  0.4638  0.0671
   98MOL0     C12846  -3.305   9.898   5.278  0.5339  0.1612  0.1419
   98MOL0     C12847  -3.453   9.893   5.246  0.7810  0.5956  0.1271
   98MOL0    Cl12848  -3.490   9.733   5.187 -0.2270 -0.1811  0.3243
   98MOL0     C12849  -2.291   9.990   4.859 -0.5997 -0.6555 -0.2707
   98MOL0     C12850  -2.154  10.024   4.846  0.2966  0.4496  0.4503
   98MOL0     O12851  -1.893   9.866   5.000 -1.2308 -0.2914  0.2170
   98MOL0     C12852  -1.624   9.910   5.000  0.2473 -0.5788 -0.2470
   98MOL0     C12853  -1.484   9.941   4.992  0.3413  0.0391  0.6876
   98MOL0     N12854  -1.103   9.772   4.556  0.7569 -0.3669  0.0242
   98MOL0     N12855  -1.051   9.687   4.473 -1.2676 -0.4491 -0.1636
   98MOL0     C12856   0.027   8.775   4.346  0.5080 -0.2321  0.3787
   98MOL0     C12857   0.144   8.697   4.363  0.3396  0.8658 -0.2964
   98MOL0     C12858   0.555   8.650   4.555 -0.1762 -0.3362  0.1188
   98MOL0     C12859   0.613   8.598   4.669  0.0198  0.3034 -0.0686
   98MOL0     C12860   0.751   8.612   4.692  0.4161  0.4602  0.4627
   98MOL0     C12861   0.841   8.648   4.582 -0.0325  0.0278 -0.9617
   98MOL0     O12862   0.981   8.633   4.581  0.1280  0.5294 -0.3671
   98MOL0     C12863   1.052   8.573   4.692  0.6071 -0.0687  0.8674
   98MOL0     C12864   1.060   8.420   4.657 -0.2677  0.0019  0.3271
   98MOL0     C12865   1.166   8.361   4.738  0.2679  0.9479  0.4377
   98MOL0     C12866   1.306   8.369   4.678  0.4240  0.4667  1.1802
   98MOL0     C12867   1.412   8.343   4.773 -1.2445 -0.5874 -0.6558
   98MOL0     C12868   1.505   8.314   4.849 -0.2955  0.3142 -0.5517
   98MOL0     C12869   0.783   8.686   4.459 -0.0718  0.3731  0.1261
   98MOL0     C12870   0.644   8.689   4.438 -0.6264 -0.3277 -0.3734
   98MOL0     H12871   0.367   8.949   4.436  0.4366 -1.4782 -0.1122
   98MOL0     H12872   0.177   9.071   4.432  1.8650 -0.7811 -3.1686
   98MOL0     H12873   0.011   9.162   4.339 -0.8716  0.0196 -0.8047
   98MOL0     H12874  -0.086   9.141   4.489  0.5756  2.1121 -0.5316
   98MOL0     H12875  -0.233   9.150   4.229 -3.5855 -0.6345  2.0066
   98MOL0     H12876  -0.178   9.306   4.308 -1.0069  0.4475 -1.4781
   98MOL0     H12877  -0.302   9.203   4.512 -0.1322  0.2739  0.3882
   98MOL0     H12878  -0.383   9.094   4.402 -0.2361 -0.3386  2.8536
   98MOL0     H12879  -0.373   9.401   4.378  0.1304  0.1699 -0.2450
   98MOL0     H12880  -0.461   9.300   4.261  0.0727 -0.2317  0.4767
   98MOL0     H12881  -0.514   9.363   4.551  5.3943 -2.1873 -2.1506
   98MOL0     H12882  -0.598   9.225   4.470  1.6721 -1.5507 -0.9041
   98MOL0     H12883  -0.697   9.358   4.328  1.7258 -2.2380 -0.2365
   98MOL0     H12884  -0.585   9.495   4.335 -3.3827  2.6045 -0.4084
   98MOL0     H12885  -0.797   9.417   4.556 -1.6075 -0.0881  1.0844
   98MOL0     H12886  -0.680   9.545   4.577 -2.0232  1.2638 -0.1127
   98MOL0     H12887  -0.895   9.525   4.345  0.9704 -0.8233  0.7396
   98MOL0     H12888  -0.769   9.648   4.351  0.2389  1.5841  0.9084
   98MOL0     H12889  -0.777   9.779   4.624 -0.0545 -0.4279  1.7678
   98MOL0     H12890  -0.965  10.025   4.647  1.1364 -1.1204 -1.3414
   98MOL0     H12891  -0.905   9.948   4.783 -1.5492  2.7377  1.3048
   98MOL0     H12892  -1.086   9.918   4.898 -1.3101  0.5760  0.7416
   98MOL0     H12893  -1.199   9.921   4.763  0.3738 -0.7449  0.3634
   98MOL0     H12894  -1.060  10.160   4.935  0.9126  0.5102 -1.1421
   98MOL0     H12895  -1.067  10.193   4.767 -1.9324 -0.7335 -1.2647
   98MOL0     H12896  -1.311  10.151   4.774 -0.3089 -0.7472  0.6993
   98MOL0     H12897  -1.254  10.277   4.896 -2.7881  0.1237  1.5701
   98MOL0     H12898  -1.508  10.261   4.909 -0.7915 -0.0558 -1.0782
   98MOL0     H12899  -1.763  10.192   4.891 -0.2336  0.4802  3.5646
   98MOL0     H12900  -2.099  10.106   5.155  2.3044  0.2453 -1.5162
   98MOL0     H12901  -2.347  10.015   5.185 -3.2635 -0.8848 -0.1392
   98MOL0     H12902  -2.585  10.067   5.098 -2.2394  0.0795  1.3139
   98MOL0     H12903  -2.550   9.904   5.164 -2.2410 -2.0916 -0.8936
   98MOL0     H12904  -2.708   9.796   5.028 -1.4327 -0.7416  2.4170
   98MOL0     H12905  -2.746   9.955   4.941  0.6512  0.3424 -0.4450
   98MOL0     H12906  -2.833  10.039   5.139 -1.4734  1.0386 -3.2281
   98MOL0     H12907  -2.796   9.890   5.232  0.3911  3.8869  0.8110
   98MOL0     H12908  -3.005   9.915   4.998  1.2012 -2.8646 -1.3672
   98MOL0     H12909  -2.948   9.762   5.081 -0.2747 -0.3870 -0.5043
   98MOL0     H12910  -3.065  10.001   5.223  1.5049 -0.2738 -0.1377
   98MOL0     H12911  -3.050   9.843   5.287  1.7251 -0.0125 -0.7863
   98MOL0     H12912  -3.234   9.757   5.136 -0.8123  0.3086  1.0872
   98MOL0     H12913  -3.241   9.928   5.078  1.3724 -1.0762 -1.5780
   98MOL0     H12914  -3.293   9.828   5.361  1.6903 -0.0276 -0.1625
   98MOL0     H12915  -3.291   9.998   5.320  0.6978  0.4375 -0.5460
   98MOL0     H12916  -3.501   9.962   5.176  0.2287  1.7449  1.5919
   98MOL0     H12917  -3.514   9.901   5.337 -0.2830  1.0004 -0.6019
   98MOL0     H12918  -2.351   9.956   4.776  1.0510 -1.8865 -1.0111
   98MOL0     H12919  -2.111  10.024   4.747 -1.2613  0.0473 -0.2627
   98MOL0     H12920  -1.658   9.808   5.018 -0.2482 -0.0728  1.9160
   98MOL0     H12921  -1.415   9.858   5.007 -3.6485 -3.5624  1.2041
   98MOL0     H12922  -0.071   8.739   4.315 -0.5670  0.2003  2.9858
   98MOL0     H12923   0.139   8.591   4.344  2.3343  0.6867 -0.0419
   98MOL0     H12924   0.558   8.558   4.753  1.3980  0.1394  0.7863
   98MOL0     H12925   0.786   8.573   4.787 -3.9903 -1.6902  1.4505
   98MOL0     H12926   0.985   8.584   4.777 -1.2987 -0.2620 -0.5324
   98MOL0     H12927   1.146   8.627   4.704 -0.4694  2.0009  0.3522
   98MOL0     H12928   0.972   8.357   4.674 -0.7832 -0.1412 -2.4135
   98MOL0     H12929   1.095   8.400   4.555  1.2765  0.8193  0.6656
   98MOL0     H12930   1.148   8.255   4.754 -1.9214  1.4829  1.8800
   98MOL0     H12931   1.161   8.408   4.837 -1.5112 -0.2974  0.9741
   98MOL0     H12932   1.318   8.300   4.594 -0.7390  1.8061 -0.1403
   98MOL0     H12933   1.318   8.469   4.635  2.1476  0.1679  0.9026
   98MOL0     H12934   1.574   8.280   4.924 -1.2244  1.3482  0.8369
   98MOL0     H12935   0.849   8.710   4.376 -0.3127 -0.3907 -0.2957
   98MOL0     H12936   0.609   8.715   4.338 -2.6832  2.0343  0.8503
   99MOL0     O12937   6.855   5.779  10.668 -0.2766 -0.5340 -0.6508
   99MOL0     C12938   6.846   5.684  10.596  0.4038 -0.3686  0.3626
   99MOL0     O12939   6.737   5.632  10.550 -0.2514  0.1448 -0.0967
   99MOL0     C12940   6.621   5.694  10.581 -0.4254 -0.6357  0.1921
   99MOL0     C12941   6.573   5.686  10.710  0.0539 -1.0194 -0.6321
   99MOL0     C12942   6.447   5.737  10.742  0.1752 -0.7739 -0.2199
   99MOL0     C12943   6.376   5.797  10.643  0.6452  1.0378 -0.4277
   99MOL0     O12944   6.261   5.865  10.661  0.6610  0.2778 -0.5627
   99MOL0     C12945   6.189   5.847  10.789  0.2933 -0.5872 -0.5141
   99MOL0     C12946   6.046   5.903  10.783  0.4527 -0.4889 -0.0630
   99MOL0     C12947   5.960   5.833  10.895  1.0861  0.0892  0.1942
   99MOL0     C12948   5.812   5.872  10.884 -0.6626  0.3298 -0.3000
   99MOL0     C12949   5.739   5.783  10.985  0.9836 -0.5353  0.8616
   99MOL0     C12950   5.583   5.805  10.988  0.5345  0.1203  0.4275
   99MOL0     C12951   5.532   5.751  10.857  1.2600  1.1025 -0.4401
   99MOL0     C12952   5.487   5.856  10.753 -0.1169 -0.2428  0.3340
   99MOL0     N12953   5.343   5.891  10.798  0.2247 -0.0290  0.6078
   99MOL0     C12954   5.222   5.834  10.757 -0.2189 -0.1045 -0.0195
   99MOL0     C12955   5.136   5.876  10.855 -0.4544 -0.8315  1.1537
   99MOL0     C12956   4.998   5.838  10.874  0.0423 -0.8513 -0.4360
   99MOL0     C12957   4.895   5.951  10.861 -0.3488  0.0091  0.1710
   99MOL0     C12958   4.875   6.009  10.718  0.1992  0.2654  0.0851
   99MOL0     C12959   4.848   5.910  10.604 -0.3335 -0.1292  0.6608
   99MOL0     O12960   4.758   5.815  10.652  0.2121  0.2749  0.0098
   99MOL0     C12961   4.625   5.841  10.678 -0.3652 -0.5651 -0.3469
   99MOL0     C12962   4.575   5.787  10.791  0.5820  0.4927 -0.1190
   99MOL0     C12963   4.434   5.793  10.812 -0.0122  0.3308  0.2480
   99MOL0     C12964   4.345   5.866  10.730  0.1402  0.9070 -0.1055
   99MOL0     C12965   4.209   5.862  10.758 -0.0171 -1.0289 -0.9901
   99MOL0     O12966   4.169   5.859  10.892 -0.4569 -0.5965 -0.3934
   99MOL0     C12967   4.036   5.835  10.917  0.1575  0.2636 -0.2190
   99MOL0     C12968   3.945   5.936  10.923 -0.3819  0.2133 -0.3783
   99MOL0     C12969   3.813   5.909  10.946 -0.7516 -0.5721  0.1253
   99MOL0     C12970   3.763   5.777  10.949  0.5722 -0.4301 -0.5750
   99MOL0     O12971   3.631   5.760  10.972 -0.8541  0.3291 -0.2532
   99MOL0     C12972   3.591   5.629  11.020 -0.4390 -0.2965 -0.5524
   99MOL0     C12973   3.445   5.645  11.065  0.0865  0.6463 -0.4015
   99MOL0     C12974   3.432   5.747  11.180  0.8387  0.2316 -0.1164
   99MOL0     C12975   3.280   5.767  11.215  0.6461 -0.2170 -0.1754
   99MOL0     C12976   3.246   5.858  11.344  0.7424 -0.0306  0.6777
   99MOL0     C12977   3.298   6.004  11.326  0.6113  0.0111 -0.5065
   99MOL0     C12978   3.309   6.069  11.464  0.3272  0.9704 -0.0839
   99MOL0     C12979   3.366   6.212  11.451 -0.2221  0.1624  0.1588
   99MOL0    Cl12980   3.359   6.283  11.612  0.1975  0.3443 -0.2626
   99MOL0     C12981   3.852   5.668  10.954 -0.6121 -0.2510  0.5312
   99MOL0     C12982   3.987   5.702  10.933 -0.4686  0.0071 -0.1035
   99MOL0     O12983   4.131   5.866  10.669 -0.2578 -0.5594 -0.2337
   99MOL0     C12984   4.397   5.917  10.612  0.2464 -0.1231 -0.4821
   99MOL0     C12985   4.537   5.898  10.585  0.1058  0.3585  0.2405
   99MOL0     N12986   5.202   5.964  10.946 -0.8263  0.7642  0.2530
   99MOL0     N12987   5.327   5.973  10.902  0.4113  0.4263 -0.5221
   99MOL0     C12988   6.424   5.807  10.514 -0.3262  0.0796 -0.9410
   99MOL0     C12989   6.544   5.754  10.480  0.5039  0.0541 -0.4685
   99MOL0     C12990   6.971   5.633  10.536 -0.6622  0.0130  0.3778
   99MOL0     C12991   7.102   5.678  10.576  0.1051 -1.0685 -0.4312
   99MOL0     C12992   7.225   5.621  10.531 -0.3632  0.7638  0.1255
   99MOL0     C12993   7.218   5.515  10.438 -0.1433 -0.4757  0.2808
   99MOL0     O12994   7.324   5.457  10.371  0.3455 -0.2197  0.1000
   99MOL0     C12995   7.462   5.481  10.408  0.3409  0.7197  0.6253
   99MOL0     C12996   7.503   5.610  10.341  0.7461 -0.2448  0.1173
   99MOL0     C12997   7.656   5.643  10.369  0.0315 -0.1148  0.4867
   99MOL0     C12998   7.705   5.729  10.248 -0.7172 -0.0814  0.7628
   99MOL0     C12999   7.851   5.761  10.260  0.8542  0.2488  0.0487
   99MOL0     C13000   7.963   5.791  10.283 -0.6308 -0.6071  0.3452
   99MOL0     C13001   7.086   5.467  10.398 -0.3146 -0.4983 -0.5038
   99MOL0     C13002   6.967   5.530  10.442 -0.1057 -0.2897 -0.2114
   99MOL0     H13003   6.636   5.652  10.792 -3.0302 -0.2520  2.2678
   99MOL0     H13004   6.422   5.747  10.847  1.1228  0.4133 -0.0926
   99MOL0     H13005   6.238   5.892  10.876 -1.9062  2.6090 -0.7677
   99MOL0     H13006   6.179   5.739  10.807  1.9498 -0.9518 -1.5683
   99MOL0     H13007   6.001   5.875  10.687 -3.2156  2.1397  0.6717
   99MOL0     H13008   6.046   6.012  10.786  2.4982 -0.3619 -2.2262
   99MOL0     H13009   5.992   5.853  10.997 -1.9955 -0.3950  1.3778
   99MOL0     H13010   5.972   5.724  10.896  0.8120  0.0590  1.1168
   99MOL0     H13011   5.799   5.978  10.910 -0.9923  0.3453 -0.5166
   99MOL0     H13012   5.774   5.866  10.782 -2.1118  1.4355  0.1275
   99MOL0     H13013   5.777   5.804  11.085 -2.7133 -0.8016  2.4840
   99MOL0     H13014   5.755   5.675  10.970 -2.1776 -0.8616 -1.0429
   99MOL0     H13015   5.561   5.909  11.012  2.8265  1.0575 -1.1486
   99MOL0     H13016   5.548   5.740  11.069 -1.9286  0.9868  0.1454
   99MOL0     H13017   5.603   5.688  10.802  0.4861 -1.8190  1.6351
   99MOL0     H13018   5.448   5.685  10.881  2.7170 -0.5999  0.2091
   99MOL0     H13019   5.488   5.821  10.649  0.1387  2.7404 -0.7615
   99MOL0     H13020   5.545   5.947  10.765  0.7426 -1.0127  2.5638
   99MOL0     H13021   5.200   5.771  10.671 -1.5861 -0.3197  0.4571
   99MOL0     H13022   4.990   5.792  10.973 -3.2532 -1.0737 -0.6908
   99MOL0     H13023   4.964   5.763  10.803 -1.0877 -0.8748  0.1132
   99MOL0     H13024   4.915   6.037  10.925 -0.0905  1.3678 -1.6569
   99MOL0     H13025   4.795   5.923  10.896 -0.4824  0.0264 -0.1987
   99MOL0     H13026   4.796   6.083  10.716 -3.5944 -3.4072 -1.4307
   99MOL0     H13027   4.958   6.076  10.691 -1.6635  1.9953 -1.6689
   99MOL0     H13028   4.941   5.871  10.562 -0.7709  0.4410 -0.9005
   99MOL0     H13029   4.808   5.966  10.519  2.2631 -0.5020 -0.9287
   99MOL0     H13030   4.652   5.750  10.858  2.2471  1.6904 -1.3021
   99MOL0     H13031   4.405   5.746  10.906  2.6397 -1.3465  0.3428
   99MOL0     H13032   3.958   6.044  10.931  0.4317  0.0568  0.6706
   99MOL0     H13033   3.745   5.992  10.960 -0.5964 -0.6030  1.1483
   99MOL0     H13034   3.641   5.608  11.114  2.1786  1.7505 -1.3603
   99MOL0     H13035   3.603   5.544  10.951 -0.6724 -0.4508 -0.4031
   99MOL0     H13036   3.418   5.547  11.105 -3.1491 -0.1505 -4.0045
   99MOL0     H13037   3.380   5.663  10.979 -1.4249  0.3620  0.6412
   99MOL0     H13038   3.487   5.838  11.157  1.1997  0.4465  1.5070
   99MOL0     H13039   3.473   5.701  11.270  1.1843  0.2921 -0.2406
   99MOL0     H13040   3.240   5.818  11.127  0.7047  0.3909  0.1451
   99MOL0     H13041   3.232   5.669  11.223 -0.9559  0.4936 -0.8237
   99MOL0     H13042   3.310   5.816  11.421  0.3697 -3.2272 -0.5949
   99MOL0     H13043   3.140   5.857  11.374 -0.2253 -2.4202 -2.2319
   99MOL0     H13044   3.219   6.066  11.282 -2.7419 -1.8214  2.4920
   99MOL0     H13045   3.394   6.009  11.274  1.7578  2.4303  1.6277
   99MOL0     H13046   3.208   6.076  11.506  0.5041 -0.4598  0.6263
   99MOL0     H13047   3.360   5.999  11.530  0.4811 -1.6310 -2.7462
   99MOL0     H13048   3.323   6.282  11.378  2.4784  1.8499  0.0227
   99MOL0     H13049   3.470   6.194  11.424 -0.9966 -2.5649 -1.3437
   99MOL0     H13050   3.820   5.564  10.950  1.2966 -0.8492 -2.2850
   99MOL0     H13051   4.052   5.616  10.934 -0.0216  0.2797  2.6431
   99MOL0     H13052   4.340   5.968  10.535 -1.6807 -2.9849 -1.1389
   99MOL0     H13053   4.570   5.925  10.486 -1.0619  1.0329  0.0201
   99MOL0     H13054   6.362   5.862  10.443 -2.8361  0.0644  1.1179
   99MOL0     H13055   6.576   5.742  10.377 -0.8413  2.5542 -1.2673
   99MOL0     H13056   7.100   5.759  10.648 -2.9304  1.0761 -2.6562
   99MOL0     H13057   7.318   5.663  10.566  0.2961 -0.6329  0.1014
   99MOL0     H13058   7.524   5.400  10.371 -1.0697  0.3320 -0.9841
   99MOL0     H13059   7.485   5.474  10.515  0.2340  0.5772  0.6383
   99MOL0     H13060   7.482   5.600  10.234 -3.9519  0.3234  0.7579
   99MOL0     H13061   7.440   5.688  10.386  1.9124  0.4421  0.5861
   99MOL0     H13062   7.718   5.553  10.372 -0.9782 -0.8025  2.3523
   99MOL0     H13063   7.650   5.697  10.464 -0.5545 -0.5285  0.6972
   99MOL0     H13064   7.692   5.669  10.158  0.4661 -0.3524  0.7474
   99MOL0     H13065   7.659   5.825  10.221 -1.7625 -1.0730 -1.1731
   99MOL0     H13066   8.060   5.825  10.312 -1.7222  1.1336  2.2393
   99MOL0     H13067   7.089   5.398  10.315 -4.8048 -1.0643 -0.4804
   99MOL0     H13068   6.879   5.477  10.407 -0.9931  0.1690  1.2360
  100MOL0     O13069   5.104   1.741   4.196  0.3094  0.2033 -1.5621
  100MOL0     C13070   5.118   1.651   4.121 -0.3401  0.2584  0.2768
  100MOL0     O13071   5.012   1.599   4.044  0.8006  0.0943 -0.0625
  100MOL0     C13072   4.889   1.653   4.059  0.6368 -0.3965 -0.9586
  100MOL0     C13073   4.815   1.711   3.953 -0.1488 -0.0119 -0.5004
  100MOL0     C13074   4.694   1.768   3.975 -0.5832  0.7281  0.2794
  100MOL0     C13075   4.629   1.754   4.095 -0.0376 -0.3402  0.7639
  100MOL0     O13076   4.501   1.802   4.095 -0.3553 -0.1029  0.4956
  100MOL0     C13077   4.427   1.784   4.215 -0.2110 -0.3299  0.1506
  100MOL0     C13078   4.281   1.842   4.195 -0.7739 -0.3449  0.8182
  100MOL0     C13079   4.181   1.740   4.231  0.5543  0.0071 -0.1082
  100MOL0     C13080   4.035   1.773   4.198 -0.7497  0.6061  0.6154
  100MOL0     C13081   3.941   1.656   4.234 -0.8162  0.5725  0.0066
  100MOL0     C13082   3.795   1.678   4.191 -0.4350  0.0160 -0.3196
  100MOL0     C13083   3.693   1.587   4.261 -0.0619  0.1300  0.4243
  100MOL0     C13084   3.655   1.462   4.177 -0.2507  0.8207 -0.2672
  100MOL0     N13085   3.522   1.416   4.194  0.2859 -0.3323  0.9215
  100MOL0     C13086   3.491   1.282   4.178 -0.6429 -0.0222 -0.3054
  100MOL0     C13087   3.364   1.281   4.214 -0.2877  0.3498 -0.7276
  100MOL0     C13088   3.282   1.146   4.214  0.0625  0.0775 -0.1510
  100MOL0     C13089   3.133   1.179   4.242  0.9904  0.4042  0.5209
  100MOL0     C13090   3.051   1.041   4.253  0.4467 -0.3236 -0.6697
  100MOL0     C13091   3.102   0.932   4.336 -1.1084 -0.7758  0.0462
  100MOL0     O13092   3.134   0.970   4.475  0.1785 -0.3950 -0.5297
  100MOL0     C13093   3.032   0.985   4.566  0.7848  0.3524 -0.5279
  100MOL0     C13094   3.068   1.012   4.696 -0.3424  0.5287  0.8915
  100MOL0     C13095   2.973   1.032   4.796  1.0451  0.2599 -0.0673
  100MOL0     C13096   2.837   1.020   4.770  0.3159 -0.7471  0.7103
  100MOL0     C13097   2.745   1.044   4.885  0.9545  1.1831  0.0966
  100MOL0     O13098   2.608   1.013   4.867 -0.2842 -0.1221  0.4169
  100MOL0     C13099   2.520   1.027   4.965  0.0323 -0.1343 -0.7290
  100MOL0     C13100   2.536   0.994   5.101 -0.6121 -0.7496 -1.0585
  100MOL0     C13101   2.431   0.982   5.196 -0.3438  0.0220  0.2830
  100MOL0     C13102   2.303   1.002   5.146 -0.6200  0.7544  0.3152
  100MOL0     O13103   2.212   0.986   5.241 -0.1519 -0.8886 -0.1634
  100MOL0     C13104   2.074   0.963   5.214  0.6192 -0.9361 -0.0359
  100MOL0     C13105   1.978   1.078   5.225 -0.1162 -0.1138  0.3550
  100MOL0     C13106   1.945   1.134   5.360 -0.1813  0.0479 -0.7282
  100MOL0     C13107   1.814   1.209   5.384 -0.6469 -0.1218  0.2119
  100MOL0     C13108   1.770   1.304   5.269 -0.9633  1.1779  0.9067
  100MOL0     C13109   1.635   1.364   5.296  0.2406 -0.1372  0.0842
  100MOL0     C13110   1.624   1.458   5.418 -0.3697  0.4227  0.1010
  100MOL0     C13111   1.483   1.506   5.433 -0.0939  0.4279  0.4227
  100MOL0    Cl13112   1.379   1.380   5.510  0.1569 -0.8808  0.1979
  100MOL0     C13113   2.282   1.049   5.016 -0.2932  0.0523  0.5000
  100MOL0     C13114   2.385   1.058   4.928  0.3083 -0.6510  0.2094
  100MOL0     O13115   2.791   1.079   4.997  0.2765 -0.1586 -0.4987
  100MOL0     C13116   2.801   0.965   4.640  0.4145 -0.2580 -0.6319
  100MOL0     C13117   2.901   0.954   4.541  0.0655 -0.7245  0.4581
  100MOL0     N13118   3.319   1.408   4.235 -0.1467 -0.0907  1.0606
  100MOL0     N13119   3.414   1.493   4.216 -0.1367  0.6800 -0.7783
  100MOL0     C13120   4.691   1.689   4.204  0.1493 -0.5973  1.6608
  100MOL0     C13121   4.823   1.645   4.186 -0.8318  0.2840  0.1098
  100MOL0     C13122   5.246   1.578   4.115  0.5311  0.1243 -0.9998
  100MOL0     C13123   5.271   1.475   4.026  0.3995 -0.3844 -0.7192
  100MOL0     C13124   5.396   1.417   4.029 -0.4961  0.3978  1.7300
  100MOL0     C13125   5.493   1.450   4.117 -0.3515  0.3522 -1.0824
  100MOL0     O13126   5.615   1.398   4.103  0.5555 -0.0496  0.2824
  100MOL0     C13127   5.715   1.425   4.201  0.2255 -0.4966  0.2839
  100MOL0     C13128   5.825   1.327   4.159  0.3546 -0.2769  0.1076
  100MOL0     C13129   5.931   1.287   4.260 -0.7147  0.1739  0.5935
  100MOL0     C13130   6.029   1.181   4.192  0.0586 -0.4986  1.0936
  100MOL0     C13131   6.102   1.105   4.290 -0.6549 -0.0963 -0.7423
  100MOL0     C13132   6.157   1.046   4.379 -0.1162 -0.5115 -0.6790
  100MOL0     C13133   5.472   1.548   4.211  0.4616  0.1063  0.1192
  100MOL0     C13134   5.357   1.619   4.201  0.7735 -0.2553  0.4796
  100MOL0     H13135   4.862   1.710   3.855  0.5058  1.9329 -0.2479
  100MOL0     H13136   4.636   1.814   3.896 -2.1537 -2.1694 -0.4085
  100MOL0     H13137   4.471   1.840   4.298 -0.1552  0.4371 -0.3829
  100MOL0     H13138   4.426   1.677   4.236 -1.5293 -0.6648 -1.3503
  100MOL0     H13139   4.270   1.883   4.094 -0.8243 -2.3940 -0.0498
  100MOL0     H13140   4.274   1.927   4.263  0.6026  0.7925 -0.3876
  100MOL0     H13141   4.183   1.730   4.340 -2.1231 -2.5155 -0.1547
  100MOL0     H13142   4.198   1.640   4.191  0.2255 -0.0185 -0.1927
  100MOL0     H13143   3.997   1.865   4.244  2.3253  3.0688 -1.3110
  100MOL0     H13144   4.029   1.791   4.090  3.3682  2.3067  0.4531
  100MOL0     H13145   3.953   1.637   4.341  1.5313 -1.5129 -0.5234
  100MOL0     H13146   3.967   1.558   4.193 -0.7915  0.0032  1.3317
  100MOL0     H13147   3.783   1.683   4.082  2.3959 -2.3642 -0.8675
  100MOL0     H13148   3.765   1.773   4.235 -3.1989 -0.4587 -0.9901
  100MOL0     H13149   3.723   1.557   4.362  2.0116  2.7414  0.6827
  100MOL0     H13150   3.604   1.649   4.268 -0.7288 -0.5580 -1.3605
  100MOL0     H13151   3.732   1.384   4.182  1.7380  2.3125 -3.9992
  100MOL0     H13152   3.649   1.495   4.073 -1.7087  0.9120 -0.1650
  100MOL0     H13153   3.556   1.201   4.147  1.6198  0.4893  2.6699
  100MOL0     H13154   3.329   1.087   4.294 -0.2493 -0.0360 -0.0507
  100MOL0     H13155   3.294   1.093   4.119  0.3734 -0.9932  0.4695
  100MOL0     H13156   3.086   1.243   4.168  1.1231 -0.8305 -0.6747
  100MOL0     H13157   3.127   1.228   4.340  1.6063 -1.1548  1.3774
  100MOL0     H13158   2.943   1.056   4.265  0.3606  0.2991 -2.0069
  100MOL0     H13159   3.058   0.992   4.156  4.7900 -0.7977 -0.3160
  100MOL0     H13160   3.189   0.894   4.281 -1.0656  2.1552 -2.2104
  100MOL0     H13161   3.038   0.845   4.352 -0.9152 -0.4722  3.0757
  100MOL0     H13162   3.171   1.016   4.730  0.8970  0.2704 -2.5053
  100MOL0     H13163   3.007   1.039   4.899 -0.9907 -1.0138  0.7643
  100MOL0     H13164   2.626   0.948   5.141 -0.3944 -0.4197 -1.1643
  100MOL0     H13165   2.455   0.940   5.293  1.2962 -0.3837 -0.2711
  100MOL0     H13166   2.050   0.892   5.294 -2.2613 -0.4551 -0.3853
  100MOL0     H13167   2.070   0.915   5.115  0.3448 -0.9798 -0.0031
  100MOL0     H13168   1.878   1.045   5.195 -0.4788  0.1833  1.1714
  100MOL0     H13169   2.009   1.161   5.161  0.0592 -0.2571  0.2560
  100MOL0     H13170   2.029   1.190   5.404 -0.0127 -2.4551  2.5420
  100MOL0     H13171   1.943   1.046   5.425  0.0231 -0.5284 -1.4953
  100MOL0     H13172   1.737   1.131   5.383 -1.0103  0.2247  0.6103
  100MOL0     H13173   1.823   1.255   5.483  1.9854 -1.5669  0.7417
  100MOL0     H13174   1.774   1.237   5.183  1.9336  1.8615  0.3951
  100MOL0     H13175   1.846   1.381   5.251  1.4194 -1.6457 -2.5768
  100MOL0     H13176   1.566   1.281   5.314 -1.8026  1.2611 -0.9993
  100MOL0     H13177   1.594   1.406   5.204  0.2214 -1.0247 -0.3165
  100MOL0     H13178   1.657   1.400   5.504  0.3467  0.0330 -0.4354
  100MOL0     H13179   1.683   1.549   5.406  0.4708  0.2633  2.4676
  100MOL0     H13180   1.439   1.547   5.341 -0.5920  2.1056  1.3510
  100MOL0     H13181   1.482   1.593   5.500 -2.2447  1.4662 -0.8104
  100MOL0     H13182   2.187   1.059   4.964 -0.1897 -1.1480  0.0538
  100MOL0     H13183   2.364   1.103   4.832 -0.4069  0.7732  1.0001
  100MOL0     H13184   2.701   0.930   4.616  0.5726  0.6835 -2.9285
  100MOL0     H13185   2.871   0.924   4.441  0.5986  1.8462 -0.5609
  100MOL0     H13186   4.650   1.684   4.304 -2.7990 -2.3029  0.5115
  100MOL0     H13187   4.887   1.605   4.263  0.4066 -2.3197 -2.0881
  100MOL0     H13188   5.193   1.442   3.957 -1.7731 -3.3480  2.7879
  100MOL0     H13189   5.422   1.353   3.945 -0.2306  0.5962  1.6602
  100MOL0     H13190   5.682   1.405   4.303  0.0198  2.8674  0.9704
  100MOL0     H13191   5.745   1.530   4.209 -0.2870 -0.3029 -0.2420
  100MOL0     H13192   5.774   1.236   4.126 -1.9550  1.5254 -1.6273
  100MOL0     H13193   5.877   1.368   4.072  0.5527  0.1712  0.4344
  100MOL0     H13194   5.887   1.257   4.355 -1.6577  2.4629  0.9598
  100MOL0     H13195   6.003   1.365   4.286  2.1290 -1.6878 -1.1920
  100MOL0     H13196   5.973   1.106   4.135 -1.7678  0.2753  1.7715
  100MOL0     H13197   6.094   1.231   4.121  1.0278 -3.4896 -0.3068
  100MOL0     H13198   6.230   1.000   4.442  1.1361 -0.1760 -1.8312
  100MOL0     H13199   5.548   1.601   4.268  0.2480  1.9705 -1.2176
  100MOL0     H13200   5.344   1.698   4.273 -0.4265  0.9239 -0.9612
  101MOL0     O13201   2.942   0.263   9.545  0.0387  0.3447  0.2041
  101MOL0     C13202   2.941   0.207   9.652  0.0433 -0.1672 -0.3628
  101MOL0     O13203   2.842   0.137   9.712 -0.2219  0.1114 -0.0317
  101MOL0     C13204   2.712   0.163   9.689 -0.1312  0.7129  0.1927
  101MOL0     C13205   2.660   0.213   9.570  0.4300  0.4577  0.6411
  101MOL0     C13206   2.526   0.234   9.556  0.2313  0.6489 -0.1806
  101MOL0     C13207   2.438   0.207   9.665  0.1200 -0.0906  0.2411
  101MOL0     O13208   2.306   0.246   9.648 -0.4125  0.5557  0.1057
  101MOL0     C13209   2.209   0.221   9.750 -0.4681  0.9432  0.3008
  101MOL0     C13210   2.056   0.261   9.725  0.1419  0.5549  0.7711
  101MOL0     C13211   1.966   0.260   9.848 -1.1637  0.0958 -0.1989
  101MOL0     C13212   1.932   0.125   9.919 -0.5684 -0.2775 -0.3367
  101MOL0     C13213   1.816   0.050   9.835  0.3114  0.1927 -0.5663
  101MOL0     C13214   1.729  -0.035   9.930  0.5848 -0.1691  0.1802
  101MOL0     C13215   1.611   0.050   9.983 -0.3948 -0.9019  0.2671
  101MOL0     C13216   1.546  -0.015  10.102  1.0950 -0.1769  0.3895
  101MOL0     N13217   1.439   0.068  10.163 -0.0772  0.3819 -1.3795
  101MOL0     C13218   1.417   0.076  10.300  0.3399  0.0405  0.4099
  101MOL0     C13219   1.313   0.154  10.302  0.6507 -0.2692 -0.2640
  101MOL0     C13220   1.246   0.204  10.432  0.8148  0.3479 -0.4854
  101MOL0     C13221   1.311   0.322  10.512  0.3602 -0.4301 -0.2270
  101MOL0     C13222   1.276   0.299  10.658 -1.0175  0.1201 -1.1389
  101MOL0     C13223   1.308   0.413  10.754  0.1486 -0.0339 -0.2044
  101MOL0     O13224   1.210   0.513  10.733  0.3367 -0.9441  0.0948
  101MOL0     C13225   1.089   0.491  10.799  0.8026  0.8977 -0.2636
  101MOL0     C13226   0.980   0.505  10.725  0.4789  0.2515  0.5127
  101MOL0     C13227   0.852   0.471  10.753  0.2003  0.1063 -0.1298
  101MOL0     C13228   0.827   0.434  10.885 -0.2243 -0.6476 -0.7673
  101MOL0     C13229   0.692   0.401  10.933 -0.1054  0.2521 -0.3265
  101MOL0     O13230   0.593   0.389  10.838 -0.0940  0.0639  0.2109
  101MOL0     C13231   0.470   0.329  10.880 -0.3920 -0.6309 -0.7224
  101MOL0     C13232   0.377   0.403  10.958  0.4940 -0.4756 -0.2110
  101MOL0     C13233   0.244   0.362  10.981  0.0403  0.4992  0.0876
  101MOL0     C13234   0.207   0.239  10.935  0.8092  0.4280  0.5418
  101MOL0     O13235   0.083   0.197  10.964 -0.4260 -0.4787  0.3243
  101MOL0     C13236   0.064   0.072  11.032 -0.4354 -0.0234  0.3155
  101MOL0     C13237  -0.081   0.051  11.094 -0.6582  0.2087 -0.2488
  101MOL0     C13238  -0.109   0.162  11.195  0.4394  0.1454 -0.5284
  101MOL0     C13239  -0.256   0.172  11.236  0.3854 -0.6972  0.1425
  101MOL0     C13240  -0.346   0.278  11.169 -0.7173 -1.0146  0.8287
  101MOL0     C13241  -0.302   0.423  11.177 -0.2569  0.3244 -0.3180
  101MOL0     C13242  -0.412   0.523  11.138  0.7491 -0.6298 -0.1669
  101MOL0     C13243  -0.389   0.663  11.074  0.7387 -0.0547  0.3575
  101MOL0    Cl13244  -0.540   0.726  11.026  0.2288 -0.2459  0.2952
  101MOL0     C13245   0.294   0.166  10.855 -0.4206 -0.1260 -0.7287
  101MOL0     C13246   0.429   0.211  10.824  0.8326  0.0370  0.6268
  101MOL0     O13247   0.678   0.380  11.054 -0.2396  0.0527 -0.1213
  101MOL0     C13248   0.939   0.432  10.979  0.0583 -0.3707  1.2466
  101MOL0     C13249   1.067   0.466  10.940 -0.9711 -0.2087 -0.0424
  101MOL0     N13250   1.262   0.187  10.181 -1.2364  0.2267  0.6696
  101MOL0     N13251   1.345   0.139  10.097 -0.1299  0.2005  0.2952
  101MOL0     C13252   2.491   0.162   9.788  0.1105 -0.0560  0.2177
  101MOL0     C13253   2.627   0.139   9.794  0.6352  0.3474  0.4801
  101MOL0     C13254   3.066   0.197   9.733  0.9084 -0.4115 -0.0621
  101MOL0     C13255   3.171   0.287   9.704  0.5656  0.4402  0.4848
  101MOL0     C13256   3.283   0.304   9.786 -0.6021 -0.1318 -0.3738
  101MOL0     C13257   3.308   0.205   9.889  0.5848  0.4643  0.1724
  101MOL0     O13258   3.418   0.184   9.963  0.4518  0.4342  0.0387
  101MOL0     C13259   3.552   0.253   9.924  1.5840 -1.2576 -0.2170
  101MOL0     C13260   3.631   0.274  10.049  0.4997  0.2236  0.2902
  101MOL0     C13261   3.759   0.353  10.032  0.3015  0.0880  0.1277
  101MOL0     C13262   3.874   0.283   9.959 -0.8715 -0.4875 -0.3397
  101MOL0     C13263   3.927   0.170  10.031  1.3730  0.6351  0.3314
  101MOL0     C13264   3.970   0.069  10.080  0.7501  0.1847  0.1889
  101MOL0     C13265   3.207   0.124   9.923  0.3152  0.7316 -0.2125
  101MOL0     C13266   3.089   0.111   9.846 -0.3014  0.0900 -0.0007
  101MOL0     H13267   2.718   0.241   9.482 -2.3632  3.8356 -0.3555
  101MOL0     H13268   2.489   0.268   9.460  0.3891  0.6635 -0.2371
  101MOL0     H13269   2.236   0.280   9.838  0.5968  0.5084  0.2733
  101MOL0     H13270   2.221   0.116   9.776  3.4921  1.0953 -0.3541
  101MOL0     H13271   2.018   0.189   9.652  0.8465  0.7049  0.2493
  101MOL0     H13272   2.042   0.361   9.681 -3.0952 -0.0054  0.2221
  101MOL0     H13273   1.874   0.310   9.817 -1.2329 -0.2247 -0.5081
  101MOL0     H13274   2.022   0.314   9.925  2.4718 -1.5629 -1.4321
  101MOL0     H13275   2.019   0.066   9.949 -1.4704 -0.7780  1.4641
  101MOL0     H13276   1.890   0.137  10.019 -0.7116  1.2260 -0.5438
  101MOL0     H13277   1.867  -0.017   9.766 -0.9554 -0.4438 -0.8898
  101MOL0     H13278   1.766   0.133   9.784 -0.0502  1.3748  1.5752
  101MOL0     H13279   1.788  -0.073  10.014  0.2584  1.2367  1.0724
  101MOL0     H13280   1.689  -0.118   9.870  1.6787 -0.9852  0.5471
  101MOL0     H13281   1.649   0.150  10.004 -0.6805 -1.0851  1.7411
  101MOL0     H13282   1.536   0.057   9.904  2.0644 -0.1446 -2.1863
  101MOL0     H13283   1.615  -0.043  10.182 -0.0408 -2.1151  0.7540
  101MOL0     H13284   1.498  -0.108  10.069  2.0789 -0.2462 -0.9632
  101MOL0     H13285   1.469   0.030  10.383  0.4310 -0.0651  0.2947
  101MOL0     H13286   1.243   0.114  10.494  0.0905  0.0627 -0.9224
  101MOL0     H13287   1.138   0.215  10.417  0.7441 -0.5377 -0.6918
  101MOL0     H13288   1.274   0.416  10.470  1.6626  0.3582  0.3074
  101MOL0     H13289   1.421   0.325  10.510  0.4104  2.3340  1.6269
  101MOL0     H13290   1.175   0.258  10.662 -0.6306 -0.8778 -1.3698
  101MOL0     H13291   1.349   0.224  10.691  2.5105  2.7581 -2.3518
  101MOL0     H13292   1.406   0.455  10.727  0.3621  0.4136  1.1700
  101MOL0     H13293   1.315   0.393  10.861 -0.6832  2.6350  0.4147
  101MOL0     H13294   0.995   0.543  10.624  1.4145  0.4655  0.7232
  101MOL0     H13295   0.769   0.463  10.684  1.3611 -3.3306 -1.3861
  101MOL0     H13296   0.416   0.498  10.993  1.6984  0.0570 -2.7559
  101MOL0     H13297   0.173   0.430  11.026 -0.3636  0.4636 -0.4733
  101MOL0     H13298   0.139   0.063  11.111 -0.3870  1.0704  0.4019
  101MOL0     H13299   0.088  -0.005  10.958  0.1032 -2.5024  2.8977
  101MOL0     H13300  -0.099  -0.045  11.144  1.0647 -0.1273 -0.2216
  101MOL0     H13301  -0.154   0.067  11.014 -1.4279 -1.3878  0.1057
  101MOL0     H13302  -0.084   0.260  11.153  1.2767  0.5657  0.9061
  101MOL0     H13303  -0.050   0.143  11.285  2.8751  2.4201 -1.5304
  101MOL0     H13304  -0.312   0.078  11.224  0.6727 -1.0113  1.2004
  101MOL0     H13305  -0.265   0.191  11.343  2.5884 -0.9435  0.4185
  101MOL0     H13306  -0.444   0.252  11.210 -0.0989 -1.8546  1.8586
  101MOL0     H13307  -0.336   0.242  11.066 -0.5420 -0.5131  0.6680
  101MOL0     H13308  -0.211   0.434  11.117 -0.5378  0.4841 -0.7172
  101MOL0     H13309  -0.253   0.444  11.273  0.5863 -4.0416  0.3872
  101MOL0     H13310  -0.478   0.468  11.070 -1.0661 -0.1408  1.1378
  101MOL0     H13311  -0.473   0.550  11.224  0.8750  1.6531 -0.7216
  101MOL0     H13312  -0.321   0.657  10.988  0.2710  0.3059 -0.0472
  101MOL0     H13313  -0.348   0.727  11.153 -0.8816 -1.3449  2.3390
  101MOL0     H13314   0.241   0.083  10.810 -1.1639 -0.7357  1.1400
  101MOL0     H13315   0.494   0.158  10.755  1.3000  0.6306  0.5995
  101MOL0     H13316   0.927   0.395  11.080 -2.4577 -3.7635 -0.1040
  101MOL0     H13317   1.144   0.465  11.016  0.5340  1.8934 -1.4342
  101MOL0     H13318   2.427   0.149   9.875 -1.8977  2.8114 -0.6799
  101MOL0     H13319   2.678   0.109   9.885 -0.4672 -0.8632  0.7273
  101MOL0     H13320   3.174   0.358   9.622  1.1203 -1.8929 -1.6377
  101MOL0     H13321   3.363   0.373   9.759 -1.2948  2.4766  3.3842
  101MOL0     H13322   3.520   0.352   9.891 -0.2281 -1.5888  0.3806
  101MOL0     H13323   3.619   0.214   9.847  0.9846 -0.4215 -1.1906
  101MOL0     H13324   3.568   0.332  10.118  1.1416 -0.3281  1.3609
  101MOL0     H13325   3.659   0.177  10.089 -0.5566  0.2236  1.0864
  101MOL0     H13326   3.793   0.394  10.128  0.6687 -0.3096  0.1713
  101MOL0     H13327   3.742   0.442   9.970  1.8832 -0.9984 -1.9855
  101MOL0     H13328   3.837   0.260   9.859 -0.2486 -0.4674 -0.5762
  101MOL0     H13329   3.950   0.359   9.939 -2.5184  0.8779 -1.7925
  101MOL0     H13330   3.996  -0.023  10.129 -1.2954 -0.0193  0.9918
  101MOL0     H13331   3.213   0.054  10.006 -4.7713 -1.4283 -1.2755
  101MOL0     H13332   3.005   0.051   9.879  0.5172 -1.0054  0.1159
  102MOL0     O13333   3.428   5.336   1.837  0.1522  0.0901 -0.0817
  102MOL0     C13334   3.495   5.428   1.893 -0.3525  0.1019  0.7381
  102MOL0     O13335   3.437   5.519   1.979 -0.2936 -0.5582 -0.3515
  102MOL0     C13336   3.304   5.554   1.968  0.2305 -0.8467 -0.4630
  102MOL0     C13337   3.231   5.542   1.846 -0.7948 -0.0790  0.6439
  102MOL0     C13338   3.099   5.588   1.850 -0.8164  0.1675  0.0941
  102MOL0     C13339   3.033   5.627   1.973  0.1512 -0.6083 -0.3405
  102MOL0     O13340   2.900   5.669   1.989  0.5518  0.2914  0.6525
  102MOL0     C13341   2.826   5.732   1.889  0.5067 -0.3946  0.6736
  102MOL0     C13342   2.697   5.794   1.958 -0.7425  0.3710 -0.0393
  102MOL0     C13343   2.607   5.690   2.021 -0.2948  0.9051 -0.2047
  102MOL0     C13344   2.532   5.601   1.917 -0.4088 -0.0849 -0.9353
  102MOL0     C13345   2.447   5.493   1.991 -0.3800 -0.1169 -0.1052
  102MOL0     C13346   2.531   5.367   1.994  0.5286  0.7102 -0.7425
  102MOL0     C13347   2.454   5.249   2.059  0.1574 -0.2154 -0.0279
  102MOL0     C13348   2.374   5.281   2.182  0.8327  0.0400 -0.1760
  102MOL0     N13349   2.317   5.158   2.246  0.8202 -0.2493  0.7929
  102MOL0     C13350   2.366   5.081   2.352  0.0692  0.8472  0.0549
  102MOL0     C13351   2.272   4.982   2.380 -0.4892  1.0690 -0.4046
  102MOL0     C13352   2.296   4.861   2.473 -0.2238 -0.4246  0.2099
  102MOL0     C13353   2.282   4.893   2.620  0.4243 -0.0616  0.2427
  102MOL0     C13354   2.301   4.774   2.719 -0.5245 -0.4651 -0.3676
  102MOL0     C13355   2.199   4.667   2.684  0.1913  0.2467  1.0967
  102MOL0     O13356   2.183   4.564   2.786 -0.6073 -0.1781 -0.0765
  102MOL0     C13357   2.063   4.495   2.789 -0.0509 -0.0282  0.7617
  102MOL0     C13358   2.030   4.427   2.906  0.4765 -0.3573 -0.1859
  102MOL0     C13359   1.912   4.352   2.912 -0.1549  0.5970  0.1834
  102MOL0     C13360   1.833   4.323   2.799 -0.1794  0.1948  0.3829
  102MOL0     C13361   1.706   4.248   2.812  1.0494  0.1287 -0.3378
  102MOL0     O13362   1.635   4.233   2.701 -0.2155  0.2310 -0.1465
  102MOL0     C13363   1.528   4.149   2.709 -0.0909  0.3733 -0.7608
  102MOL0     C13364   1.399   4.195   2.733 -0.8564  0.0258 -0.6166
  102MOL0     C13365   1.294   4.107   2.733 -0.1792 -0.7196  0.1174
  102MOL0     C13366   1.302   3.973   2.699  0.5446 -1.0554 -0.5136
  102MOL0     O13367   1.184   3.901   2.687 -0.5263  0.1008  0.7007
  102MOL0     C13368   1.088   3.961   2.597 -0.8600 -0.7706  0.4811
  102MOL0     C13369   0.992   3.838   2.584  0.5310 -0.3523 -0.4888
  102MOL0     C13370   0.860   3.872   2.513  0.1616  1.0750 -0.1539
  102MOL0     C13371   0.867   3.905   2.372 -0.7864  0.5181  0.3336
  102MOL0     C13372   0.733   3.943   2.305  0.1167 -0.1035 -0.3962
  102MOL0     C13373   0.621   3.831   2.318 -0.4373 -0.6156 -0.1186
  102MOL0     C13374   0.509   3.857   2.209 -0.8642 -1.0720  0.0106
  102MOL0     C13375   0.404   3.751   2.210  0.7792 -0.4232 -0.8239
  102MOL0    Cl13376   0.282   3.793   2.090  0.0150  0.0011  0.2929
  102MOL0     C13377   1.431   3.926   2.678 -0.0381 -0.0355 -0.0929
  102MOL0     C13378   1.544   4.012   2.692  0.3940  0.3591  0.1045
  102MOL0     O13379   1.671   4.205   2.922 -0.2598 -0.2813  0.9573
  102MOL0     C13380   1.859   4.397   2.685  0.2918  0.2267 -0.8253
  102MOL0     C13381   1.967   4.484   2.677 -0.6024  0.8253 -0.3019
  102MOL0     N13382   2.157   5.012   2.307 -0.6130  0.4242  0.1157
  102MOL0     N13383   2.187   5.114   2.233 -0.0714  0.1943  0.1962
  102MOL0     C13384   3.112   5.632   2.092  0.1553  0.0353  0.7808
  102MOL0     C13385   3.246   5.601   2.087 -0.3520  0.3590 -0.1405
  102MOL0     C13386   3.647   5.419   1.885  0.1235 -0.3255 -0.0755
  102MOL0     C13387   3.729   5.505   1.950 -0.0113 -0.4090 -0.7870
  102MOL0     C13388   3.868   5.498   1.935  1.1106  0.6952  0.3685
  102MOL0     C13389   3.931   5.398   1.848  0.1088 -1.0093 -1.0820
  102MOL0     O13390   4.072   5.387   1.837  0.3280 -0.3997 -0.4798
  102MOL0     C13391   4.171   5.402   1.943  0.4098  0.3492  0.2189
  102MOL0     C13392   4.243   5.270   1.927 -1.0111  0.1288  0.0442
  102MOL0     C13393   4.394   5.286   1.964  0.3925 -0.0473  0.2469
  102MOL0     C13394   4.426   5.253   2.110 -1.0125  1.2979 -0.6636
  102MOL0     C13395   4.570   5.271   2.126 -0.1961  0.6112  0.0790
  102MOL0     C13396   4.693   5.301   2.124 -0.0411  0.6005  0.5274
  102MOL0     C13397   3.845   5.308   1.785 -0.1615  0.0411  0.3071
  102MOL0     C13398   3.706   5.323   1.804  0.3613  0.0786  0.4400
  102MOL0     H13399   3.264   5.499   1.752  1.0719  0.6963  0.8955
  102MOL0     H13400   3.037   5.577   1.761 -2.4940 -0.6263  1.2997
  102MOL0     H13401   2.796   5.651   1.821  0.9684 -0.6378  0.7525
  102MOL0     H13402   2.879   5.817   1.847  2.4272  0.8763  5.0390
  102MOL0     H13403   2.630   5.840   1.884 -0.3626 -0.7630 -1.1306
  102MOL0     H13404   2.729   5.867   2.032  2.4090  1.2482 -2.0634
  102MOL0     H13405   2.529   5.736   2.081 -1.8333  0.1171 -1.5281
  102MOL0     H13406   2.672   5.621   2.076 -0.1534  1.3466  0.1847
  102MOL0     H13407   2.466   5.679   1.878  0.4509  1.8907  1.3008
  102MOL0     H13408   2.596   5.566   1.836  0.4940 -0.6690  0.0090
  102MOL0     H13409   2.364   5.471   1.923  0.7043  0.0410 -1.5421
  102MOL0     H13410   2.417   5.536   2.087  1.1005  1.8271 -0.4571
  102MOL0     H13411   2.625   5.387   2.046 -1.1966  3.5191  1.6099
  102MOL0     H13412   2.565   5.341   1.893  1.6266 -0.6277 -0.0724
  102MOL0     H13413   2.388   5.217   1.977 -0.2985  1.3849 -0.3328
  102MOL0     H13414   2.517   5.165   2.087 -0.3248 -0.0555  1.5914
  102MOL0     H13415   2.297   5.357   2.165 -2.0648 -2.4574  0.8739
  102MOL0     H13416   2.446   5.325   2.251  1.7303 -0.8695 -0.5069
  102MOL0     H13417   2.467   5.095   2.390 -0.2464 -2.2408  2.4100
  102MOL0     H13418   2.397   4.825   2.455  0.0240 -0.2007  1.1183
  102MOL0     H13419   2.225   4.785   2.437 -0.9886  0.4814 -0.2456
  102MOL0     H13420   2.183   4.927   2.650  0.5526  1.4168 -0.8827
  102MOL0     H13421   2.333   4.986   2.649 -2.6257  1.9059 -0.2852
  102MOL0     H13422   2.403   4.737   2.708  0.3102  1.9553 -1.4964
  102MOL0     H13423   2.295   4.808   2.823  0.7255 -0.4073 -0.3004
  102MOL0     H13424   2.224   4.628   2.585 -2.3872  0.4396  0.2921
  102MOL0     H13425   2.105   4.717   2.662 -1.1482 -1.7523  1.9919
  102MOL0     H13426   2.083   4.429   3.001 -0.2190 -1.7474  0.2505
  102MOL0     H13427   1.890   4.294   3.001 -0.0269  2.1215  1.2403
  102MOL0     H13428   1.384   4.302   2.730 -2.0907 -0.1674 -2.9613
  102MOL0     H13429   1.193   4.145   2.745  0.7195  1.3489  1.8225
  102MOL0     H13430   1.126   3.995   2.500 -2.4319 -0.1886  0.0372
  102MOL0     H13431   1.034   4.044   2.644 -1.0175  0.7536 -2.2109
  102MOL0     H13432   0.963   3.818   2.687  1.9326  1.6847  0.3786
  102MOL0     H13433   1.041   3.749   2.543  1.4208 -0.4413  0.7146
  102MOL0     H13434   0.818   3.955   2.570 -3.5927  0.4088 -1.6395
  102MOL0     H13435   0.784   3.793   2.515 -1.4404  2.5317 -1.2521
  102MOL0     H13436   0.936   3.989   2.360  3.2356 -2.3412  1.4766
  102MOL0     H13437   0.917   3.826   2.315 -0.9076  1.6211 -1.3724
  102MOL0     H13438   0.751   3.965   2.199 -2.5747 -1.4790 -1.2326
  102MOL0     H13439   0.686   4.030   2.351 -3.5865 -1.9373 -0.3829
  102MOL0     H13440   0.565   3.840   2.412  2.7947 -0.8703  1.9940
  102MOL0     H13441   0.662   3.730   2.308  1.0149  0.0185 -0.9581
  102MOL0     H13442   0.474   3.957   2.236  5.6663  0.8738  3.3602
  102MOL0     H13443   0.554   3.863   2.110 -1.9485  2.5904 -0.4104
  102MOL0     H13444   0.369   3.752   2.314  2.3065  0.0102 -0.2739
  102MOL0     H13445   0.446   3.654   2.182  2.3683  0.7490 -2.7720
  102MOL0     H13446   1.449   3.825   2.644  0.2633 -0.7013  1.9408
  102MOL0     H13447   1.645   3.977   2.678 -0.3282 -1.0467 -2.0976
  102MOL0     H13448   1.797   4.389   2.596 -2.5668 -1.7244  1.1654
  102MOL0     H13449   1.977   4.554   2.594 -0.9833  3.3511  1.6369
  102MOL0     H13450   3.063   5.662   2.184 -0.1803  0.6473  0.4179
  102MOL0     H13451   3.309   5.630   2.171  1.8890  1.5590 -2.1241
  102MOL0     H13452   3.686   5.583   2.013  3.2052  0.2600  0.7958
  102MOL0     H13453   3.917   5.569   2.000 -0.8153  0.5719  2.0868
  102MOL0     H13454   4.129   5.420   2.042 -1.4556 -0.0706 -0.4522
  102MOL0     H13455   4.222   5.493   1.911 -1.5047  1.6350  0.6758
  102MOL0     H13456   4.188   5.193   1.981 -1.4705  1.1899  1.1286
  102MOL0     H13457   4.256   5.238   1.823  1.8445 -0.6850  0.5756
  102MOL0     H13458   4.428   5.386   1.938 -1.5861  0.2890 -1.2070
  102MOL0     H13459   4.438   5.215   1.894 -1.1411  1.2287 -2.1078
  102MOL0     H13460   4.365   5.320   2.172 -2.5048 -0.2538 -0.3788
  102MOL0     H13461   4.394   5.154   2.143  2.8024  0.7022  1.8468
  102MOL0     H13462   4.793   5.337   2.108 -0.3403  1.2064 -0.0661
  102MOL0     H13463   3.895   5.234   1.723  1.7546 -0.8630  2.7846
  102MOL0     H13464   3.639   5.259   1.748  0.5573  1.6925 -1.7951
  103MOL0     O13465   3.087   6.919  10.195  0.2543  1.0117  0.2903
  103MOL0     C13466   3.121   6.969  10.299 -0.7175 -0.8304  0.0974
  103MOL0     O13467   3.051   7.061  10.372 -0.2067  0.2551 -0.8287
  103MOL0     C13468   2.918   7.067  10.337  0.7441  0.4489 -0.1013
  103MOL0     C13469   2.861   7.190  10.322  0.1359 -0.4186 -0.4455
  103MOL0     C13470   2.722   7.207  10.300 -0.2737  0.2840  1.0611
  103MOL0     C13471   2.636   7.093  10.297 -0.4112  0.0144 -0.8830
  103MOL0     O13472   2.505   7.108  10.263  0.4787  0.4431 -0.1179
  103MOL0     C13473   2.420   7.185  10.350 -0.2886  0.3392  0.8550
  103MOL0     C13474   2.288   7.109  10.368 -0.3861  0.4972  0.5241
  103MOL0     C13475   2.208   7.167  10.481  0.6731 -0.2578  0.5277
  103MOL0     C13476   2.062   7.123  10.468  0.2569  0.0808  0.4793
  103MOL0     C13477   2.033   6.989  10.537 -0.0054 -1.0498  0.0121
  103MOL0     C13478   1.887   6.949  10.537  0.1157 -0.4808  0.7177
  103MOL0     C13479   1.884   6.810  10.597 -0.9479 -0.2606 -0.8998
  103MOL0     C13480   1.883   6.804  10.756 -0.8639 -0.1025 -0.8466
  103MOL0     N13481   1.760   6.855  10.826 -0.4116  0.3329  0.4980
  103MOL0     C13482   1.637   6.786  10.840 -0.4701 -0.9612  0.0074
  103MOL0     C13483   1.555   6.868  10.917  0.3457  0.5988 -0.3938
  103MOL0     C13484   1.410   6.866  10.950 -0.5176 -0.4311 -0.4325
  103MOL0     C13485   1.389   6.822  11.100 -0.5180  0.5063  0.3171
  103MOL0     C13486   1.228   6.812  11.104 -1.3855 -0.2319 -0.7084
  103MOL0     C13487   1.198   6.740  11.234  0.5693 -0.6212 -0.6743
  103MOL0     O13488   1.056   6.738  11.248 -0.3753 -0.4075 -0.2397
  103MOL0     C13489   0.993   6.836  11.313  1.2586 -0.3838 -0.2145
  103MOL0     C13490   0.859   6.809  11.343 -0.3935  0.7487  0.1105
  103MOL0     C13491   0.783   6.898  11.423 -0.0298 -1.1650  0.0601
  103MOL0     C13492   0.845   7.026  11.456 -0.1702 -0.5929  0.6611
  103MOL0     C13493   0.765   7.122  11.536 -0.0301  0.3185 -0.4289
  103MOL0     O13494   0.629   7.114  11.511 -0.5181  0.2480 -0.6365
  103MOL0     C13495   0.539   7.171  11.593  0.4071 -0.8665  0.0181
  103MOL0     C13496   0.540   7.306  11.636  0.4292  0.3165 -1.0835
  103MOL0     C13497   0.430   7.370  11.700 -0.3671 -0.0372  0.7217
  103MOL0     C13498   0.325   7.285  11.738  0.0335  0.5217 -0.5197
  103MOL0     O13499   0.223   7.348  11.803 -0.1831  0.3718  0.1843
  103MOL0     C13500   0.092   7.297  11.783  0.5626 -0.1208  0.2448
  103MOL0     C13501   0.028   7.425  11.731  0.2172 -0.5886  0.9219
  103MOL0     C13502  -0.122   7.397  11.717 -0.4313  0.1630 -0.2081
  103MOL0     C13503  -0.202   7.521  11.684 -0.0581  0.9687  0.9109
  103MOL0     C13504  -0.352   7.505  11.722 -0.6129 -0.0250  0.4809
  103MOL0     C13505  -0.427   7.643  11.727 -0.4835 -0.0122 -0.6691
  103MOL0     C13506  -0.560   7.602  11.785 -0.8733 -0.1525  0.9115
  103MOL0     C13507  -0.673   7.696  11.737 -0.2247  0.1552  0.1422
  103MOL0    Cl13508  -0.704   7.684  11.563  0.3862  0.0378  0.1430
  103MOL0     C13509   0.322   7.158  11.693 -0.4523  0.1592  0.0493
  103MOL0     C13510   0.421   7.095  11.619 -0.1895  0.0379 -0.5308
  103MOL0     O13511   0.826   7.184  11.628  0.2976 -0.3536  0.1691
  103MOL0     C13512   0.973   7.055  11.422 -0.1151  0.7888 -0.2546
  103MOL0     C13513   1.052   6.963  11.346  0.7660  0.1629 -1.1125
  103MOL0     N13514   1.643   6.966  10.958 -0.1936 -0.7790 -0.0202
  103MOL0     N13515   1.753   6.968  10.895  0.3590  0.3260 -0.7395
  103MOL0     C13516   2.691   6.966  10.317 -0.9952  0.3149  0.4810
  103MOL0     C13517   2.835   6.958  10.342  0.3129  0.2172 -0.5681
  103MOL0     C13518   3.252   6.932  10.354 -0.2360 -0.2441 -0.5939
  103MOL0     C13519   3.316   6.814  10.311 -0.1783 -1.1167 -0.6489
  103MOL0     C13520   3.443   6.787  10.361  0.5628  0.0722  1.2881
  103MOL0     C13521   3.505   6.864  10.458 -0.7473  0.3195  0.4887
  103MOL0     O13522   3.624   6.825  10.519 -0.6075 -0.0902 -0.3366
  103MOL0     C13523   3.682   6.886  10.638  0.4132 -0.0622  1.2872
  103MOL0     C13524   3.801   6.805  10.685  0.7661  0.9579 -0.3792
  103MOL0     C13525   3.779   6.669  10.740 -0.2809  0.0989  0.5218
  103MOL0     C13526   3.904   6.582  10.752 -0.5894 -0.2618  0.8866
  103MOL0     C13527   3.875   6.440  10.776  0.3360  0.0973  0.3254
  103MOL0     C13528   3.850   6.324  10.791  0.4080  0.7475  0.3981
  103MOL0     C13529   3.447   6.982  10.499  0.4083  0.0694  0.6395
  103MOL0     C13530   3.322   7.018  10.444  0.7948 -0.5581 -0.2205
  103MOL0     H13531   2.927   7.274  10.339 -1.0646 -0.1282  3.7863
  103MOL0     H13532   2.664   7.294  10.273 -1.3506  0.0230  2.4517
  103MOL0     H13533   2.399   7.278  10.296  0.6826  0.6656  1.0131
  103MOL0     H13534   2.470   7.221  10.441 -0.6525  1.1967  0.7271
  103MOL0     H13535   2.301   7.003  10.392 -0.2144  1.2181  4.2074
  103MOL0     H13536   2.234   7.124  10.274 -0.2317 -1.2359  0.1273
  103MOL0     H13537   2.203   7.276  10.475 -0.3800 -0.3292 -0.1354
  103MOL0     H13538   2.255   7.143  10.577 -0.5192 -4.5811  0.2437
  103MOL0     H13539   2.005   7.196  10.525  0.7681  0.4224  0.5574
  103MOL0     H13540   2.030   7.127  10.363  1.0108 -1.7548  0.1378
  103MOL0     H13541   2.072   6.985  10.639  0.5311 -1.8516 -0.2118
  103MOL0     H13542   2.090   6.920  10.474 -0.6308 -1.8059  0.2576
  103MOL0     H13543   1.850   6.938  10.434 -1.0922  0.1479  1.0547
  103MOL0     H13544   1.815   7.014  10.587  0.6536 -0.3748  1.3673
  103MOL0     H13545   1.787   6.770  10.564 -0.9171 -1.0963 -0.0164
  103MOL0     H13546   1.962   6.742  10.562 -0.9223  0.5100 -2.4457
  103MOL0     H13547   1.971   6.856  10.793  0.7067 -2.9136 -0.3823
  103MOL0     H13548   1.906   6.703  10.791 -1.3029 -0.1052 -0.5480
  103MOL0     H13549   1.602   6.698  10.786 -2.5344 -0.1090 -0.1403
  103MOL0     H13550   1.355   6.801  10.882 -0.7950  1.4944 -2.1109
  103MOL0     H13551   1.367   6.964  10.930 -1.6420 -1.1681 -1.7912
  103MOL0     H13552   1.425   6.897  11.171  1.4434 -0.3849  0.3300
  103MOL0     H13553   1.436   6.725  11.119 -0.6797  0.6977  1.8212
  103MOL0     H13554   1.193   6.915  11.100  0.5079  0.5457  1.1225
  103MOL0     H13555   1.187   6.755  11.020  0.1994 -2.9233  0.1927
  103MOL0     H13556   1.248   6.788  11.319 -0.3116 -0.7037 -0.0930
  103MOL0     H13557   1.233   6.637  11.239  1.1708 -0.4913 -1.8711
  103MOL0     H13558   0.827   6.708  11.321 -0.6349  0.5706  1.2287
  103MOL0     H13559   0.682   6.871  11.453  0.6157  0.2605  4.2502
  103MOL0     H13560   0.629   7.364  11.614  0.0332  1.1639 -0.4823
  103MOL0     H13561   0.431   7.474  11.729 -0.7549 -0.2273  1.4162
  103MOL0     H13562   0.053   7.256  11.876  1.4267 -1.0398  0.2142
  103MOL0     H13563   0.075   7.223  11.705 -1.4818  1.7050 -1.1750
  103MOL0     H13564   0.071   7.469  11.640 -0.1839  0.1664  1.0884
  103MOL0     H13565   0.041   7.500  11.810 -1.3129  0.7336 -0.0146
  103MOL0     H13566  -0.142   7.362  11.818  2.4450  2.7170  1.4228
  103MOL0     H13567  -0.129   7.322  11.637  0.9334 -1.0438  0.7534
  103MOL0     H13568  -0.155   7.603  11.740 -0.5626  0.7177  1.7003
  103MOL0     H13569  -0.200   7.535  11.575 -1.9451  1.8842  0.9512
  103MOL0     H13570  -0.352   7.454  11.819  3.3384  1.0419  1.2167
  103MOL0     H13571  -0.398   7.439  11.647 -1.5718  0.5124  0.5767
  103MOL0     H13572  -0.432   7.674  11.622  0.4014  0.0919 -0.6860
  103MOL0     H13573  -0.391   7.723  11.793  0.2112 -1.9124  1.3790
  103MOL0     H13574  -0.584   7.501  11.749  1.0745 -1.5591  3.2699
  103MOL0     H13575  -0.552   7.584  11.893 -0.2498 -4.0131  0.3534
  103MOL0     H13576  -0.643   7.799  11.758  0.0405  0.3994 -1.3523
  103MOL0     H13577  -0.760   7.663  11.794  0.4122 -1.5863  0.1674
  103MOL0     H13578   0.232   7.102  11.719 -1.1628 -1.6729 -5.1640
  103MOL0     H13579   0.406   6.994  11.584 -3.8012  0.7470 -1.4355
  103MOL0     H13580   1.003   7.154  11.455  0.1888  0.7259 -0.3362
  103MOL0     H13581   1.156   6.989  11.329 -0.0715  5.1061 -0.2324
  103MOL0     H13582   2.631   6.876  10.325  1.9780 -1.8818 -0.3843
  103MOL0     H13583   2.870   6.858  10.368 -2.2887 -0.9188 -1.0712
  103MOL0     H13584   3.273   6.746  10.239  1.0911 -0.3394 -2.1917
  103MOL0     H13585   3.493   6.703  10.315  3.4320  2.6771 -0.7690
  103MOL0     H13586   3.610   6.877  10.720 -0.1698  1.6039  0.9867
  103MOL0     H13587   3.711   6.990  10.622  2.3182 -0.8116 -0.6236
  103MOL0     H13588   3.868   6.802  10.599  0.7217  2.6207 -0.5113
  103MOL0     H13589   3.844   6.867  10.765 -2.3879  0.0210  2.2711
  103MOL0     H13590   3.719   6.617  10.664  3.3481 -0.9502 -1.8763
  103MOL0     H13591   3.731   6.671  10.838 -0.0577  1.1639  0.6233
  103MOL0     H13592   3.968   6.584  10.663 -2.0364 -0.5264 -0.2009
  103MOL0     H13593   3.960   6.649  10.817 -0.9665  0.8036  0.1561
  103MOL0     H13594   3.830   6.220  10.808  1.0767  0.3111 -1.2830
  103MOL0     H13595   3.497   7.050  10.568 -2.9644 -0.3285  3.7887
  103MOL0     H13596   3.280   7.111  10.480 -1.5264 -1.5874 -0.1455
  104MOL0     O13597  10.717   3.892   3.651  0.8284 -0.6495  0.0747
  104MOL0     C13598  10.688   4.007   3.702 -0.0046  0.0916 -0.3732
  104MOL0     O13599  10.569   4.051   3.754  0.4072 -0.3894 -0.2666
  104MOL0     C13600  10.448   3.986   3.725  0.6016  0.4110  0.3327
  104MOL0     C13601  10.352   4.024   3.812 -1.0212  0.3131 -0.0209
  104MOL0     C13602  10.231   3.949   3.811  0.1617  0.1898 -0.0354
  104MOL0     C13603  10.209   3.833   3.730  0.3472 -0.0378 -0.1427
  104MOL0     O13604  10.085   3.766   3.733  0.1846 -0.1480 -0.6280
  104MOL0     C13605  10.036   3.680   3.628 -0.2752 -0.5006 -0.1564
  104MOL0     C13606   9.893   3.634   3.658 -0.8507 -0.0574  0.4200
  104MOL0     C13607   9.778   3.737   3.643  0.2536 -0.3387  0.5228
  104MOL0     C13608   9.769   3.843   3.766  0.1397 -0.4681  0.4799
  104MOL0     C13609   9.662   3.958   3.735 -0.3738  0.1276 -0.6525
  104MOL0     C13610   9.519   3.905   3.744 -0.0761 -0.8628  0.1647
  104MOL0     C13611   9.425   4.028   3.738 -0.4234 -0.1184  0.1477
  104MOL0     C13612   9.286   3.990   3.699 -0.2050 -0.2081 -0.2627
  104MOL0     N13613   9.215   3.895   3.781  0.2122  0.4525 -0.0047
  104MOL0     C13614   9.183   3.941   3.908 -0.2780 -0.4622 -0.0514
  104MOL0     C13615   9.110   3.832   3.956 -0.1520 -0.2799  0.6382
  104MOL0     C13616   9.047   3.833   4.088 -0.6589  0.3742 -0.1372
  104MOL0     C13617   9.147   3.797   4.204 -0.0914  0.2111  0.1355
  104MOL0     C13618   9.174   3.926   4.285 -0.1635 -0.4003 -0.8626
  104MOL0     C13619   9.101   3.933   4.426 -0.2948 -0.6073  0.6885
  104MOL0     O13620   9.155   3.826   4.506 -0.3268 -0.7743  0.1107
  104MOL0     C13621   9.268   3.872   4.571 -0.3279 -0.0104 -0.5053
  104MOL0     C13622   9.391   3.818   4.537  0.9562 -0.2957 -1.0936
  104MOL0     C13623   9.506   3.860   4.601 -1.2411 -0.0007  0.2320
  104MOL0     C13624   9.504   3.947   4.708  0.1630 -0.2449 -0.0745
  104MOL0     C13625   9.629   3.979   4.780 -0.1356  0.3327 -0.5651
  104MOL0     O13626   9.618   4.025   4.904 -0.3745 -0.6252 -0.3976
  104MOL0     C13627   9.728   4.045   4.984  0.5773 -0.1111 -0.6050
  104MOL0     C13628   9.841   4.123   4.948 -0.8500 -0.5403 -0.9871
  104MOL0     C13629   9.958   4.116   5.028 -0.3115 -0.2992 -0.9150
  104MOL0     C13630   9.958   4.060   5.157  0.1788  0.1355  0.5179
  104MOL0     O13631  10.069   4.058   5.225 -0.0885  0.1822 -0.0043
  104MOL0     C13632  10.057   4.068   5.366  0.4955  0.1754 -0.1845
  104MOL0     C13633  10.192   4.119   5.426  0.6379 -0.6800 -0.4221
  104MOL0     C13634  10.306   4.019   5.389  0.2304 -0.3504  0.4809
  104MOL0     C13635  10.308   3.886   5.462 -0.1788 -0.4093 -0.6465
  104MOL0     C13636  10.441   3.816   5.479 -0.0018 -0.2619  1.0844
  104MOL0     C13637  10.502   3.776   5.347  0.4034  0.1676 -0.5461
  104MOL0     C13638  10.642   3.724   5.371  0.6575 -0.7526 -0.4295
  104MOL0     C13639  10.701   3.683   5.240  0.6977  0.2235 -0.1089
  104MOL0    Cl13640  10.864   3.622   5.286  0.5906 -0.1001  0.0960
  104MOL0     C13641   9.842   3.983   5.191 -0.9557 -0.1986  0.5950
  104MOL0     C13642   9.733   3.971   5.105 -0.6344 -0.4955  0.0736
  104MOL0     O13643   9.737   3.952   4.726 -0.2463  0.4449 -0.1858
  104MOL0     C13644   9.383   4.008   4.735  0.1677  0.7907 -0.0413
  104MOL0     C13645   9.261   3.965   4.680 -0.4512 -0.2142 -0.0588
  104MOL0     N13646   9.089   3.750   3.852 -0.4960  0.6994  0.4191
  104MOL0     N13647   9.147   3.783   3.752 -0.3390 -0.0793 -0.6944
  104MOL0     C13648  10.309   3.800   3.652 -0.6613  0.6970 -0.8942
  104MOL0     C13649  10.429   3.865   3.644 -0.0533 -1.0062 -0.2394
  104MOL0     C13650  10.815   4.089   3.718  0.3921  0.0527 -0.0258
  104MOL0     C13651  10.813   4.210   3.787 -0.0664 -0.2336 -0.1388
  104MOL0     C13652  10.926   4.295   3.792 -0.0152  0.3274 -0.4563
  104MOL0     C13653  11.047   4.271   3.728  0.4903  0.4900  0.4795
  104MOL0     O13654  11.158   4.347   3.740 -0.9811 -0.0555  0.5620
  104MOL0     C13655  11.161   4.460   3.829  0.8984 -0.3324 -0.3745
  104MOL0     C13656  11.299   4.507   3.849 -0.0928 -0.1769 -0.3082
  104MOL0     C13657  11.372   4.552   3.716 -0.6546  0.3143 -0.3202
  104MOL0     C13658  11.439   4.437   3.637 -0.0129 -0.6783 -0.2709
  104MOL0     C13659  11.577   4.460   3.594  0.0179 -0.9244 -0.7168
  104MOL0     C13660  11.690   4.499   3.560 -0.4796 -0.2025  0.0942
  104MOL0     C13661  11.051   4.148   3.655 -0.6235 -0.5143  0.4057
  104MOL0     C13662  10.939   4.054   3.654 -0.2894  0.1816 -0.1703
  104MOL0     H13663  10.372   4.098   3.890 -1.8130 -2.2153  2.7850
  104MOL0     H13664  10.156   3.980   3.883 -2.2872 -1.6863 -1.5953
  104MOL0     H13665  10.108   3.598   3.625  0.1072 -0.1652 -2.7603
  104MOL0     H13666  10.040   3.728   3.530  1.0093  2.5572  1.2680
  104MOL0     H13667   9.899   3.601   3.762  2.5271 -2.1981 -0.2533
  104MOL0     H13668   9.884   3.548   3.592  0.1129  2.9473 -4.0793
  104MOL0     H13669   9.678   3.694   3.633 -0.1270 -0.3567  3.6068
  104MOL0     H13670   9.797   3.775   3.542 -0.2642  1.2510  1.0024
  104MOL0     H13671   9.749   3.787   3.858  4.1058  0.1083  1.8558
  104MOL0     H13672   9.869   3.885   3.775  0.0508 -0.5806  2.1312
  104MOL0     H13673   9.680   3.989   3.632  1.4629 -1.6803 -0.9349
  104MOL0     H13674   9.672   4.041   3.805  0.6793  0.3403 -1.0464
  104MOL0     H13675   9.498   3.854   3.839 -2.4185  1.1013  0.7918
  104MOL0     H13676   9.499   3.836   3.661 -1.2190 -0.4949  0.1185
  104MOL0     H13677   9.411   4.074   3.836  0.1609 -1.8022  1.0774
  104MOL0     H13678   9.460   4.107   3.671 -1.1142  0.0673 -0.0031
  104MOL0     H13679   9.289   3.947   3.599  1.2039  1.3095 -0.9162
  104MOL0     H13680   9.218   4.076   3.701  2.0157  1.6437  1.3483
  104MOL0     H13681   9.207   4.031   3.964  1.7575 -0.8000 -0.3278
  104MOL0     H13682   8.963   3.763   4.086  0.1226 -0.6495 -2.9596
  104MOL0     H13683   9.003   3.930   4.112 -1.0163  0.1081  0.2893
  104MOL0     H13684   9.237   3.749   4.163  1.6490  3.3906 -0.0490
  104MOL0     H13685   9.095   3.723   4.266  0.5935 -0.1969  0.2342
  104MOL0     H13686   9.277   3.936   4.320  0.0096  2.9327 -1.9531
  104MOL0     H13687   9.146   4.015   4.226  1.8355 -0.0476 -1.3532
  104MOL0     H13688   8.995   3.908   4.420 -0.0306 -1.4885 -1.1110
  104MOL0     H13689   9.111   4.027   4.481  0.0352  0.1995 -0.6956
  104MOL0     H13690   9.395   3.740   4.461 -0.4509 -1.1896 -0.2785
  104MOL0     H13691   9.601   3.836   4.555  0.3049  0.6602  2.9047
  104MOL0     H13692   9.832   4.186   4.861  0.2947  0.5457 -0.3508
  104MOL0     H13693  10.046   4.162   4.984  1.2350  1.6242  3.6370
  104MOL0     H13694  10.035   3.967   5.402 -1.4730  1.0350  1.1747
  104MOL0     H13695   9.970   4.130   5.386 -0.9148 -2.0917  1.0922
  104MOL0     H13696  10.186   4.104   5.534  0.0498 -2.3607 -0.6591
  104MOL0     H13697  10.229   4.217   5.394  1.1363 -0.8447 -0.3621
  104MOL0     H13698  10.388   4.087   5.414 -2.6438  2.6121  2.8723
  104MOL0     H13699  10.293   4.013   5.280 -0.9745 -0.3097  0.6063
  104MOL0     H13700  10.266   3.901   5.562 -2.0035 -0.5232 -1.3515
  104MOL0     H13701  10.238   3.821   5.408  0.5007 -0.1652 -1.8630
  104MOL0     H13702  10.414   3.717   5.518 -0.1785 -1.8815 -2.7028
  104MOL0     H13703  10.507   3.881   5.538  0.5595 -0.4192  0.6410
  104MOL0     H13704  10.503   3.862   5.279 -1.5186 -0.5393 -1.5287
  104MOL0     H13705  10.446   3.690   5.309 -0.1819 -0.3014  1.2741
  104MOL0     H13706  10.691   3.811   5.417 -0.5578 -1.0810  1.6414
  104MOL0     H13707  10.645   3.646   5.448  0.4773 -0.7961 -0.4667
  104MOL0     H13708  10.707   3.761   5.163 -0.9453  0.5587  0.0500
  104MOL0     H13709  10.649   3.595   5.201  1.4338 -0.1908 -0.1676
  104MOL0     H13710   9.840   3.934   5.287  0.3982 -5.2248 -1.6157
  104MOL0     H13711   9.656   3.898   5.126 -0.1054 -1.1574 -0.2474
  104MOL0     H13712   9.365   4.079   4.814 -0.9919  0.6261 -0.1450
  104MOL0     H13713   9.166   4.000   4.719 -0.6035  0.5486 -1.0726
  104MOL0     H13714  10.305   3.717   3.582  0.6974  0.5369 -0.8149
  104MOL0     H13715  10.510   3.836   3.577  0.9686 -0.7412  0.8353
  104MOL0     H13716  10.722   4.241   3.838 -0.0054 -0.1035 -0.1091
  104MOL0     H13717  10.907   4.381   3.855 -1.4368  0.3439 -0.8682
  104MOL0     H13718  11.125   4.423   3.925  1.4033 -2.0887 -0.8371
  104MOL0     H13719  11.094   4.540   3.795 -0.6253 -1.0599  0.7762
  104MOL0     H13720  11.294   4.591   3.919 -0.9123 -0.3283 -0.1842
  104MOL0     H13721  11.362   4.426   3.887  1.1026  1.0494  0.4167
  104MOL0     H13722  11.455   4.617   3.744  0.3979 -0.7246 -0.9946
  104MOL0     H13723  11.296   4.604   3.656 -0.8587  0.8492  0.3840
  104MOL0     H13724  11.436   4.343   3.694 -1.4117 -0.6342 -0.2407
  104MOL0     H13725  11.386   4.429   3.542  0.7237  3.4660 -1.2149
  104MOL0     H13726  11.791   4.519   3.529 -0.6608  1.3854  0.4443
  104MOL0     H13727  11.147   4.125   3.610 -1.2045 -1.4048 -0.4275
  104MOL0     H13728  10.952   3.959   3.603  1.7691 -0.4740  1.4031
  105MOL0     O13729   1.977   2.414   5.976 -0.1755 -0.1769 -0.2828
  105MOL0     C13730   1.943   2.532   5.971  0.0336 -0.2821 -0.1812
  105MOL0     O13731   2.029   2.636   5.981 -1.5406  0.3842  0.7392
  105MOL0     C13732   2.169   2.629   5.987 -0.5954 -0.5774 -0.2091
  105MOL0     C13733   2.230   2.539   6.079 -0.2248  0.0495 -0.4097
  105MOL0     C13734   2.369   2.534   6.102  0.0253 -0.5305  0.5597
  105MOL0     C13735   2.456   2.621   6.028 -0.2207 -0.5635 -0.1583
  105MOL0     O13736   2.592   2.600   6.034  0.0341  0.1565  0.0312
  105MOL0     C13737   2.670   2.717   6.052 -0.2540 -0.0750 -0.4475
  105MOL0     C13738   2.813   2.670   6.033  0.1087  0.0035  0.6067
  105MOL0     C13739   2.914   2.779   6.061 -0.3850 -0.0208 -0.2294
  105MOL0     C13740   3.040   2.754   5.976 -0.3661 -0.0241 -0.4256
  105MOL0     C13741   3.173   2.801   6.041  0.3449 -0.3658  0.3949
  105MOL0     C13742   3.289   2.774   5.949 -0.3929  0.6643  0.7588
  105MOL0     C13743   3.421   2.814   6.016 -1.3192  0.1492  0.0999
  105MOL0     C13744   3.541   2.828   5.917  0.1891 -0.5729  0.0373
  105MOL0     N13745   3.682   2.782   5.961  0.2524  0.2498  0.2922
  105MOL0     C13746   3.753   2.857   6.053 -0.5225  1.5736 -0.3514
  105MOL0     C13747   3.856   2.771   6.086  0.5116 -0.3771 -0.2349
  105MOL0     C13748   3.971   2.794   6.186 -0.2578 -0.1654  0.0986
  105MOL0     C13749   4.107   2.780   6.122 -0.3488  0.2560  1.1037
  105MOL0     C13750   4.154   2.910   6.045  0.6829 -0.5234  0.5300
  105MOL0     C13751   4.299   2.903   6.006 -0.1213 -0.1034 -0.5308
  105MOL0     O13752   4.388   2.874   6.112  1.2521 -0.4655  0.0415
  105MOL0     C13753   4.520   2.839   6.085  0.2032  0.3991  0.2283
  105MOL0     C13754   4.596   2.871   6.194  0.5349 -0.2348 -0.2701
  105MOL0     C13755   4.738   2.852   6.188  0.8509  1.1551 -0.2360
  105MOL0     C13756   4.796   2.808   6.066 -0.2513  0.8676  0.5016
  105MOL0     C13757   4.944   2.796   6.037  0.0441  0.4504  1.1336
  105MOL0     O13758   4.982   2.797   5.903  0.2093 -0.0421 -0.3342
  105MOL0     C13759   5.113   2.811   5.876  0.4937  0.1494 -0.9731
  105MOL0     C13760   5.197   2.918   5.907  0.7182  0.7851 -0.7278
  105MOL0     C13761   5.340   2.910   5.883  0.2798  0.4081  0.3836
  105MOL0     C13762   5.391   2.806   5.811 -0.2975  0.2889 -0.1265
  105MOL0     O13763   5.526   2.804   5.765  0.5224  0.3794 -0.0763
  105MOL0     C13764   5.596   2.692   5.713  0.4109 -0.6001 -0.4240
  105MOL0     C13765   5.749   2.716   5.705 -0.3122  0.3410 -0.1170
  105MOL0     C13766   5.814   2.734   5.849  0.3561  0.1875  1.0690
  105MOL0     C13767   5.968   2.745   5.841 -0.0143  0.4457 -0.2333
  105MOL0     C13768   6.038   2.747   5.969 -0.2487  0.2609  0.1750
  105MOL0     C13769   6.026   2.623   6.059 -0.6501 -0.0431  0.5763
  105MOL0     C13770   6.042   2.493   5.991  0.6982  0.2474 -0.1297
  105MOL0     C13771   6.060   2.382   6.095 -0.2329 -1.0444  0.8145
  105MOL0    Cl13772   5.913   2.333   6.178 -0.2293  0.4167 -0.6651
  105MOL0     C13773   5.308   2.706   5.764 -0.4317  0.1203  0.0449
  105MOL0     C13774   5.165   2.710   5.796 -0.2624 -0.7280 -0.1498
  105MOL0     O13775   5.018   2.807   6.137  0.8425 -0.4644  0.3208
  105MOL0     C13776   4.708   2.785   5.951 -0.3840 -0.2367 -0.0711
  105MOL0     C13777   4.569   2.785   5.958  0.0420  0.4502 -1.0668
  105MOL0     N13778   3.838   2.651   6.034  0.6819 -0.0693 -0.1602
  105MOL0     N13779   3.731   2.653   5.950  0.3013 -0.3282 -1.1282
  105MOL0     C13780   2.398   2.704   5.933 -0.1463  0.3539 -0.1194
  105MOL0     C13781   2.254   2.711   5.915  0.2323  0.3762 -0.2842
  105MOL0     C13782   1.794   2.566   5.965  0.4720 -0.2762 -0.1613
  105MOL0     C13783   1.748   2.703   5.930 -0.4108 -0.7194 -0.5563
  105MOL0     C13784   1.609   2.742   5.933 -0.6093 -0.0138 -0.4786
  105MOL0     C13785   1.515   2.638   5.963  0.4026 -1.5833  0.0595
  105MOL0     O13786   1.386   2.675   5.967  0.3001  0.2728 -0.2728
  105MOL0     C13787   1.279   2.570   5.981 -0.3074 -1.9093  1.1337
  105MOL0     C13788   1.268   2.493   5.852  0.1445 -0.3278  1.1754
  105MOL0     C13789   1.179   2.369   5.849  0.5460  0.1802  0.0403
  105MOL0     C13790   1.148   2.314   5.706 -0.3072 -0.2364 -0.1542
  105MOL0     C13791   1.106   2.181   5.729  0.7233  0.7045  0.0398
  105MOL0     C13792   1.079   2.066   5.764 -1.0003  0.6017  0.5476
  105MOL0     C13793   1.564   2.509   6.009  0.2606 -0.5962 -0.3014
  105MOL0     C13794   1.696   2.482   6.008  0.5997 -0.0369  0.2865
  105MOL0     H13795   2.168   2.469   6.134  1.6169 -0.0406  1.6792
  105MOL0     H13796   2.413   2.457   6.165  1.6045 -1.1678 -1.2096
  105MOL0     H13797   2.665   2.743   6.158 -1.7889  0.2071 -0.5678
  105MOL0     H13798   2.638   2.805   5.996  1.4334  0.6102 -0.3855
  105MOL0     H13799   2.824   2.636   5.930  1.6890 -1.5369  1.2331
  105MOL0     H13800   2.833   2.587   6.101  2.0076  1.7903  2.3875
  105MOL0     H13801   2.939   2.782   6.168 -0.1846 -1.3796 -0.2169
  105MOL0     H13802   2.874   2.877   6.034 -2.8916 -0.4331  1.6417
  105MOL0     H13803   3.050   2.649   5.948  1.7806 -0.1540  0.6250
  105MOL0     H13804   3.019   2.813   5.887 -3.1941  0.0784  0.1963
  105MOL0     H13805   3.186   2.736   6.128  0.9099 -0.4175  0.2729
  105MOL0     H13806   3.162   2.907   6.065  4.1830  0.4347 -0.6936
  105MOL0     H13807   3.283   2.827   5.853  2.4615 -0.3733 -0.1079
  105MOL0     H13808   3.297   2.668   5.926 -0.9680  0.3824  1.7776
  105MOL0     H13809   3.408   2.914   6.059  2.4948  0.9237 -0.2079
  105MOL0     H13810   3.445   2.733   6.086 -0.8165  0.5603  0.4118
  105MOL0     H13811   3.543   2.935   5.894  0.0938  0.0656  2.6819
  105MOL0     H13812   3.516   2.763   5.833 -0.6687 -0.8686  0.5190
  105MOL0     H13813   3.723   2.959   6.077 -2.4216  0.8519  0.6037
  105MOL0     H13814   3.959   2.725   6.270 -4.2515 -0.1834 -0.3148
  105MOL0     H13815   3.967   2.895   6.227  0.3418 -0.3262  0.5746
  105MOL0     H13816   4.098   2.699   6.048 -3.1059  0.8797  0.6305
  105MOL0     H13817   4.185   2.759   6.195  1.5340  0.9227 -0.6118
  105MOL0     H13818   4.094   2.926   5.955  0.0622  1.4872  1.2469
  105MOL0     H13819   4.145   3.009   6.093 -1.9992  0.2851 -1.3997
  105MOL0     H13820   4.324   3.002   5.967  1.5632 -1.0635 -2.0352
  105MOL0     H13821   4.312   2.829   5.927 -2.3137 -0.4709 -0.6135
  105MOL0     H13822   4.557   2.918   6.284  1.2143 -1.5140  0.7332
  105MOL0     H13823   4.802   2.882   6.270  1.1335  3.3391 -1.1652
  105MOL0     H13824   5.156   2.997   5.970  0.9190 -0.1185  0.5623
  105MOL0     H13825   5.409   2.984   5.922  0.3170  1.1749 -1.0587
  105MOL0     H13826   5.552   2.679   5.614  0.2835 -1.3010 -0.2865
  105MOL0     H13827   5.579   2.602   5.773 -1.5618  0.3672  0.5743
  105MOL0     H13828   5.753   2.810   5.649 -1.7460 -0.1438 -1.0910
  105MOL0     H13829   5.789   2.637   5.641  0.0082  0.8335 -0.5336
  105MOL0     H13830   5.782   2.656   5.918 -0.6241  2.9987  4.0408
  105MOL0     H13831   5.764   2.821   5.891 -1.8743 -1.0305  1.0565
  105MOL0     H13832   6.017   2.668   5.780  2.6614 -1.2264  3.6048
  105MOL0     H13833   5.988   2.839   5.788 -0.2939 -0.3528 -1.8153
  105MOL0     H13834   6.016   2.835   6.030  1.1022 -0.0823  1.1987
  105MOL0     H13835   6.141   2.765   5.937 -0.3802 -1.2920 -1.2922
  105MOL0     H13836   5.932   2.625   6.115  0.2330  0.3314  2.1279
  105MOL0     H13837   6.095   2.639   6.143  1.0884 -1.9259 -0.4083
  105MOL0     H13838   5.945   2.474   5.944 -0.2700  1.8212  1.1305
  105MOL0     H13839   6.123   2.493   5.917  1.7506  0.5168  0.9817
  105MOL0     H13840   6.128   2.422   6.170 -1.4450  1.7177  0.5820
  105MOL0     H13841   6.096   2.292   6.045 -0.1724 -0.8581  0.5205
  105MOL0     H13842   5.346   2.635   5.692 -3.6792  1.9904 -3.9390
  105MOL0     H13843   5.101   2.637   5.748 -0.5177 -1.6323  1.4626
  105MOL0     H13844   4.758   2.752   5.860 -1.6434  1.6988 -1.5462
  105MOL0     H13845   4.507   2.749   5.877  2.0821 -3.0240 -1.2653
  105MOL0     H13846   2.460   2.770   5.872 -1.2148  1.5252  0.0100
  105MOL0     H13847   2.195   2.770   5.845  1.2420 -1.3738 -2.7822
  105MOL0     H13848   1.821   2.782   5.917 -2.0175  1.3700  2.1213
  105MOL0     H13849   1.575   2.839   5.899 -0.7519 -0.9340 -3.2166
  105MOL0     H13850   1.180   2.616   5.986 -0.5611 -1.5840 -3.1029
  105MOL0     H13851   1.290   2.512   6.073 -1.5364  0.5260  2.9041
  105MOL0     H13852   1.232   2.555   5.769 -0.1895 -0.0779  1.5093
  105MOL0     H13853   1.372   2.460   5.838 -0.1395 -1.7245  2.1783
  105MOL0     H13854   1.080   2.405   5.881 -0.1789  0.4058 -2.2552
  105MOL0     H13855   1.224   2.300   5.920  3.9542  3.0590  0.9579
  105MOL0     H13856   1.079   2.371   5.643  0.4068  0.9346  0.0948
  105MOL0     H13857   1.239   2.306   5.647 -1.3555 -1.8521 -1.6646
  105MOL0     H13858   1.054   1.968   5.801 -0.1976  1.2325  2.9314
  105MOL0     H13859   1.498   2.442   6.065 -2.0743  0.4309 -1.6816
  105MOL0     H13860   1.725   2.393   6.063 -2.3841 -0.4112  1.3976
  106MOL0     O13861   3.647   0.530  10.738 -0.4053  0.0678 -0.5569
  106MOL0     C13862   3.741   0.547  10.813  0.4974  0.0260  0.6444
  106MOL0     O13863   3.740   0.612  10.935  0.4806 -0.3973  1.2478
  106MOL0     C13864   3.632   0.654  11.005 -0.4427  1.0323  1.0171
  106MOL0     C13865   3.502   0.617  10.983 -0.1088 -0.9082 -0.2762
  106MOL0     C13866   3.394   0.673  11.058  0.0660  0.4283 -0.0886
  106MOL0     C13867   3.422   0.769  11.156  0.5676 -0.2268 -0.2285
  106MOL0     O13868   3.320   0.807  11.237 -0.0715  0.5381  0.5640
  106MOL0     C13869   3.198   0.852  11.184 -0.1184  0.1453  0.0409
  106MOL0     C13870   3.090   0.758  11.240  1.2238 -0.0012 -0.0402
  106MOL0     C13871   2.943   0.812  11.232 -1.0856 -0.1727 -0.9403
  106MOL0     C13872   2.910   0.918  11.341 -0.2468 -0.3023  0.0162
  106MOL0     C13873   2.765   0.956  11.335 -0.2756 -0.0614 -0.7463
  106MOL0     C13874   2.735   1.052  11.447 -0.1722 -0.4733  1.0078
  106MOL0     C13875   2.590   1.112  11.420 -0.0840 -0.2804 -0.6091
  106MOL0     C13876   2.478   1.019  11.463 -0.2955  0.4962 -1.0203
  106MOL0     N13877   2.347   1.091  11.486 -0.0094 -0.0147  0.1324
  106MOL0     C13878   2.317   1.156  11.597  0.7455  0.4639 -0.3424
  106MOL0     C13879   2.220   1.248  11.575 -0.3674 -0.1438  0.0194
  106MOL0     C13880   2.143   1.339  11.673 -0.6705 -0.2201 -0.0957
  106MOL0     C13881   2.235   1.447  11.723  0.3379  0.4383 -0.0351
  106MOL0     C13882   2.171   1.556  11.802 -0.1863 -0.8405  0.7526
  106MOL0     C13883   2.093   1.502  11.921 -0.5471  0.1585 -0.0883
  106MOL0     O13884   2.096   1.608  12.019 -0.0691 -0.4578  0.0008
  106MOL0     C13885   1.994   1.702  12.015  0.2855 -0.6866 -0.6188
  106MOL0     C13886   2.013   1.838  11.986 -0.1681 -0.0748 -0.2956
  106MOL0     C13887   1.911   1.926  11.976  0.5032  0.3141 -0.2478
  106MOL0     C13888   1.777   1.895  11.997  0.2150 -0.3431  0.0741
  106MOL0     C13889   1.668   1.994  11.988 -0.8745 -0.5491 -0.4310
  106MOL0     O13890   1.550   1.954  11.951  1.3528 -0.0447  0.7364
  106MOL0     C13891   1.462   2.060  11.936 -0.0832  0.4222  0.3108
  106MOL0     C13892   1.362   2.078  12.033 -0.7738  0.1532  0.8490
  106MOL0     C13893   1.272   2.189  12.018 -0.0584 -1.0027 -0.7430
  106MOL0     C13894   1.293   2.279  11.911  0.6478 -0.2678  0.2672
  106MOL0     O13895   1.234   2.402  11.892 -0.2629 -0.1494 -0.1506
  106MOL0     C13896   1.141   2.457  11.990 -0.1522 -0.5899 -0.1777
  106MOL0     C13897   1.073   2.581  11.937  0.2898 -1.0311  0.0867
  106MOL0     C13898   1.013   2.557  11.801 -0.2802  0.9111  0.6596
  106MOL0     C13899   0.912   2.665  11.770 -0.7047  0.9768 -0.0840
  106MOL0     C13900   0.874   2.676  11.629  0.0157  0.5546 -0.1518
  106MOL0     C13901   0.754   2.576  11.593  0.4979 -0.4731 -1.2179
  106MOL0     C13902   0.713   2.590  11.442  0.2831  0.5778 -0.2421
  106MOL0     C13903   0.619   2.474  11.397  0.3403 -0.0277 -0.3881
  106MOL0    Cl13904   0.513   2.525  11.265 -0.3152  0.0957 -0.2692
  106MOL0     C13905   1.379   2.246  11.802 -0.4779 -0.9148  0.3997
  106MOL0     C13906   1.460   2.134  11.817 -0.2202 -0.2736  0.3919
  106MOL0     O13907   1.702   2.111  11.998  0.4131 -0.3487 -0.3019
  106MOL0     C13908   1.752   1.767  12.038 -0.9099  0.1600 -0.3707
  106MOL0     C13909   1.861   1.676  12.050 -0.5137  0.4470 -0.4380
  106MOL0     N13910   2.188   1.238  11.440 -0.4258  0.3909  0.2667
  106MOL0     N13911   2.257   1.135  11.396 -0.6232 -0.5704 -0.3186
  106MOL0     C13912   3.551   0.802  11.177  0.8554  0.2999  0.6193
  106MOL0     C13913   3.659   0.746  11.110 -0.1911  0.1612  0.3449
  106MOL0     C13914   3.878   0.505  10.761 -0.0132  0.4727  0.2252
  106MOL0     C13915   3.893   0.482  10.622  0.0030  0.9330  0.2750
  106MOL0     C13916   4.023   0.453  10.571  0.4694 -0.4526 -0.5457
  106MOL0     C13917   4.130   0.462  10.668 -0.4675  0.7328  0.0084
  106MOL0     O13918   4.252   0.436  10.610 -0.4624 -0.9528 -0.3865
  106MOL0     C13919   4.363   0.400  10.687 -0.1303  0.2785 -0.3258
  106MOL0     C13920   4.466   0.347  10.585 -0.0391 -0.6694 -0.7665
  106MOL0     C13921   4.596   0.318  10.665  0.7552  0.1944  0.8564
  106MOL0     C13922   4.718   0.293  10.583 -0.2006 -0.1331  0.0546
  106MOL0     C13923   4.712   0.182  10.488 -0.6233 -0.3564  0.0497
  106MOL0     C13924   4.723   0.093  10.403  0.2822  0.1811 -0.1765
  106MOL0     C13925   4.109   0.479  10.806  0.8639 -0.3827 -0.4678
  106MOL0     C13926   3.982   0.498  10.852 -1.2591 -0.2614  0.8439
  106MOL0     H13927   3.469   0.550  10.904  0.7845 -0.4630 -1.0477
  106MOL0     H13928   3.298   0.629  11.036  0.5785 -0.9614  0.3198
  106MOL0     H13929   3.206   0.851  11.075 -0.8788 -0.2476 -0.0195
  106MOL0     H13930   3.190   0.958  11.211  0.7229  0.0998  0.5241
  106MOL0     H13931   3.110   0.740  11.346  2.3941 -1.4714 -0.4764
  106MOL0     H13932   3.098   0.656  11.200 -1.5838  0.9731 -3.7283
  106MOL0     H13933   2.869   0.732  11.233 -2.3107  0.9333  0.3108
  106MOL0     H13934   2.937   0.865  11.136  0.1208 -1.5383 -1.8172
  106MOL0     H13935   2.935   0.885  11.442 -2.8767  0.1071  0.8971
  106MOL0     H13936   2.969   1.010  11.333  1.4151 -1.3859 -0.7295
  106MOL0     H13937   2.697   0.870  11.340 -1.1423  0.5375 -1.8145
  106MOL0     H13938   2.741   1.005  11.240 -0.9580  1.4836  0.1956
  106MOL0     H13939   2.807   1.134  11.440 -2.3802  1.5192  0.4958
  106MOL0     H13940   2.750   1.003  11.543  1.9894 -4.4406 -1.1016
  106MOL0     H13941   2.585   1.205  11.476 -3.1244  0.2416 -1.5959
  106MOL0     H13942   2.579   1.133  11.313  5.0755  1.3968 -1.0850
  106MOL0     H13943   2.512   0.982  11.560  0.6984  0.6081 -1.3205
  106MOL0     H13944   2.468   0.935  11.393  1.0803 -0.6395  0.0944
  106MOL0     H13945   2.366   1.150  11.694 -0.0754 -0.2013  0.0366
  106MOL0     H13946   2.102   1.276  11.753  0.7971 -1.9873 -0.6654
  106MOL0     H13947   2.060   1.388  11.621 -0.6447 -0.8496 -0.7460
  106MOL0     H13948   2.290   1.493  11.640 -0.6617 -2.9995 -2.8629
  106MOL0     H13949   2.301   1.388  11.787 -2.9362 -2.2688  1.1420
  106MOL0     H13950   2.250   1.619  11.845  0.9304 -0.5909 -1.5454
  106MOL0     H13951   2.110   1.624  11.742  2.6002 -0.8398 -2.3628
  106MOL0     H13952   2.139   1.416  11.971  2.1532  1.5104 -0.1011
  106MOL0     H13953   1.989   1.470  11.905 -1.0804  2.0405 -0.6217
  106MOL0     H13954   2.114   1.874  11.972 -0.1574  0.1912  0.3962
  106MOL0     H13955   1.933   2.028  11.946  2.7178 -0.2072 -0.5562
  106MOL0     H13956   1.349   2.010  12.117  0.8288 -1.0376  0.1910
  106MOL0     H13957   1.208   2.204  12.104 -0.0245 -2.0020 -0.5277
  106MOL0     H13958   1.183   2.480  12.089 -3.1435  1.9108  0.6742
  106MOL0     H13959   1.059   2.388  12.012 -0.0276 -0.3650  1.0967
  106MOL0     H13960   1.142   2.665  11.942 -0.9621  0.0549  5.4101
  106MOL0     H13961   0.995   2.617  12.004 -0.2327  2.6073 -2.2258
  106MOL0     H13962   0.967   2.457  11.799 -0.4028  0.9685  0.5293
  106MOL0     H13963   1.084   2.563  11.718 -3.5728  1.6236 -2.4032
  106MOL0     H13964   0.826   2.652  11.837  1.5634 -0.1230  2.8362
  106MOL0     H13965   0.945   2.767  11.794  1.4291  0.7792 -1.9447
  106MOL0     H13966   0.964   2.657  11.571  1.2171  1.8588  1.1870
  106MOL0     H13967   0.840   2.776  11.601  0.6792  0.1175 -2.7988
  106MOL0     H13968   0.668   2.612  11.651 -0.6900 -1.9779 -1.9796
  106MOL0     H13969   0.783   2.474  11.618 -0.0974 -0.2471  0.5018
  106MOL0     H13970   0.668   2.689  11.427  1.5067  1.3818  1.0883
  106MOL0     H13971   0.806   2.588  11.385  0.6158  0.8335  0.2715
  106MOL0     H13972   0.551   2.436  11.475 -0.4361  2.7971  0.4384
  106MOL0     H13973   0.682   2.390  11.370  3.7637  2.6879 -1.5402
  106MOL0     H13974   1.391   2.315  11.719  0.2928 -0.9682  0.4557
  106MOL0     H13975   1.531   2.109  11.739 -0.8131 -0.5889 -0.0574
  106MOL0     H13976   1.650   1.740  12.064 -0.0175 -0.6324  2.7132
  106MOL0     H13977   1.841   1.579  12.094  2.6330 -0.6883 -1.2261
  106MOL0     H13978   3.566   0.880  11.250 -2.9540  1.4632  0.3337
  106MOL0     H13979   3.760   0.786  11.114 -0.3378  1.6893 -4.3664
  106MOL0     H13980   3.809   0.498  10.554  0.4032 -2.1835 -1.1292
  106MOL0     H13981   4.039   0.444  10.464 -1.0816 -0.1076 -0.8377
  106MOL0     H13982   4.340   0.313  10.749  1.6672 -0.5564 -0.7759
  106MOL0     H13983   4.390   0.486  10.749 -4.5634 -0.8826  3.8324
  106MOL0     H13984   4.433   0.263  10.523 -0.6304 -2.4402  1.7982
  106MOL0     H13985   4.488   0.428  10.515 -1.0603  0.2114 -0.1054
  106MOL0     H13986   4.595   0.236  10.738  1.8351  0.6424  1.4027
  106MOL0     H13987   4.602   0.413  10.718 -0.7147  0.0302  1.3513
  106MOL0     H13988   4.745   0.390  10.539 -0.1030  1.1273  2.6674
  106MOL0     H13989   4.802   0.269  10.649  1.1043  3.2457 -0.1284
  106MOL0     H13990   4.720   0.020  10.325 -1.1723 -0.4487  0.4290
  106MOL0     H13991   4.203   0.477  10.861  1.1387 -0.8726 -0.9427
  106MOL0     H13992   3.981   0.505  10.960  0.0431 -1.2775  0.9460
  107MOL0     O13993   4.426   4.289   1.928  0.3725 -0.3057 -0.3421
  107MOL0     C13994   4.441   4.172   1.910  0.3244 -0.1647  0.0336
  107MOL0     O13995   4.338   4.082   1.895  0.0486  0.3092 -0.1358
  107MOL0     C13996   4.213   4.112   1.962  0.6942  0.2986 -0.2899
  107MOL0     C13997   4.093   4.119   1.894  0.3868 -0.5148  0.7842
  107MOL0     C13998   3.975   4.158   1.964 -0.5055  0.2225  0.2880
  107MOL0     C13999   3.977   4.178   2.103  0.3710 -0.0801 -0.0614
  107MOL0     O14000   3.862   4.204   2.172 -0.6326  1.6372 -0.6933
  107MOL0     C14001   3.742   4.242   2.107 -0.0522 -0.0115  0.1244
  107MOL0     C14002   3.634   4.286   2.199 -0.4711 -0.0714  0.9087
  107MOL0     C14003   3.504   4.314   2.115  0.9184  0.8897 -0.0927
  107MOL0     C14004   3.378   4.333   2.204 -0.1491  0.1420  0.5507
  107MOL0     C14005   3.253   4.368   2.123 -1.0557 -0.1034 -0.7698
  107MOL0     C14006   3.226   4.283   2.001  0.2205 -0.2301  0.5045
  107MOL0     C14007   3.092   4.324   1.940 -0.2402 -0.6177  0.0391
  107MOL0     C14008   3.068   4.231   1.822  0.5880  0.9698  1.2750
  107MOL0     N14009   2.950   4.292   1.757  1.0234 -0.3339 -0.5082
  107MOL0     C14010   2.952   4.404   1.674 -0.4331 -0.1845 -0.3256
  107MOL0     C14011   2.827   4.443   1.653  0.1678  1.1030 -0.4125
  107MOL0     C14012   2.782   4.569   1.578 -0.3795 -0.3511 -0.0530
  107MOL0     C14013   2.831   4.574   1.432  0.4984  0.1107  0.4238
  107MOL0     C14014   2.780   4.463   1.337 -0.3985 -0.3814  0.1351
  107MOL0     C14015   2.633   4.464   1.315  0.4418 -0.3882 -0.2818
  107MOL0     O14016   2.610   4.368   1.214 -0.0235 -0.4175 -0.0915
  107MOL0     C14017   2.481   4.321   1.196 -0.3015 -0.0481 -0.9351
  107MOL0     C14018   2.379   4.373   1.279  0.6002  0.1825 -0.1880
  107MOL0     C14019   2.243   4.318   1.258  0.7207  0.5199  0.3561
  107MOL0     C14020   2.206   4.229   1.158 -0.5602 -0.0050  0.6170
  107MOL0     C14021   2.066   4.194   1.133  0.0721 -0.0241 -0.0083
  107MOL0     O14022   1.981   4.243   1.225  0.1737 -0.0621 -0.6348
  107MOL0     C14023   1.848   4.204   1.206 -1.2198  0.1721 -0.1798
  107MOL0     C14024   1.758   4.288   1.138 -0.1435  0.4167 -0.5680
  107MOL0     C14025   1.630   4.245   1.128  0.5624 -0.1293  0.1744
  107MOL0     C14026   1.581   4.124   1.165  0.0494 -0.4278 -0.5631
  107MOL0     O14027   1.448   4.109   1.150  0.9152  0.2220 -0.5096
  107MOL0     C14028   1.403   3.980   1.192 -1.0274 -0.8236  0.0710
  107MOL0     C14029   1.266   3.960   1.130 -0.1706 -0.3969  0.0886
  107MOL0     C14030   1.173   3.863   1.206  0.3695 -0.0561 -0.5102
  107MOL0     C14031   1.031   3.897   1.174 -0.3874  0.0694  0.9788
  107MOL0     C14032   0.946   3.791   1.251  0.2549 -0.1077  0.0553
  107MOL0     C14033   0.803   3.818   1.192  0.1452  0.1801  0.5038
  107MOL0     C14034   0.700   3.731   1.254  0.2583 -0.6598 -0.2119
  107MOL0     C14035   0.560   3.787   1.234 -0.3183  0.0646 -0.7095
  107MOL0    Cl14036   0.517   3.787   1.064  0.3922 -0.1630  0.3848
  107MOL0     C14037   1.675   4.022   1.208  0.8424 -0.3328 -0.0171
  107MOL0     C14038   1.807   4.077   1.227 -0.7749  0.1296 -0.2311
  107MOL0     O14039   2.044   4.110   1.045 -0.4167 -0.1475 -0.6982
  107MOL0     C14040   2.317   4.178   1.084 -1.2168  0.5901  0.1617
  107MOL0     C14041   2.453   4.224   1.105  0.5224  0.4216 -0.3465
  107MOL0     N14042   2.741   4.361   1.734 -0.4201  0.2918  0.1186
  107MOL0     N14043   2.816   4.271   1.786 -0.9328  0.5070  0.0778
  107MOL0     C14044   4.100   4.152   2.172  0.2855  0.3120 -0.4291
  107MOL0     C14045   4.217   4.129   2.102 -0.3336  0.4048 -0.3373
  107MOL0     C14046   4.585   4.120   1.902  0.0228 -0.0521 -0.5668
  107MOL0     C14047   4.692   4.199   1.935 -0.6804 -0.2776 -0.4412
  107MOL0     C14048   4.824   4.162   1.931 -0.4354  0.1142  0.1536
  107MOL0     C14049   4.852   4.037   1.898  0.1342  0.2252  0.1608
  107MOL0     O14050   4.974   3.992   1.869 -0.3314 -0.2753  0.1115
  107MOL0     C14051   5.091   4.071   1.891 -0.3023 -0.4184 -0.3291
  107MOL0     C14052   5.215   3.987   1.862  1.1217  0.1720  0.2843
  107MOL0     C14053   5.237   3.955   1.717 -0.1861  0.5728 -0.8616
  107MOL0     C14054   5.374   3.885   1.687 -0.0363  0.3159  0.1265
  107MOL0     C14055   5.395   3.851   1.545  0.4461  1.0480  0.3564
  107MOL0     C14056   5.415   3.814   1.431 -0.2139 -0.9235  0.3072
  107MOL0     C14057   4.746   3.945   1.884 -0.3498  0.2182  0.1683
  107MOL0     C14058   4.610   3.987   1.896 -1.1296  0.2967  0.3894
  107MOL0     H14059   4.090   4.100   1.788  0.3657  1.6777  0.3514
  107MOL0     H14060   3.883   4.176   1.908  0.6331  2.1557 -1.0901
  107MOL0     H14061   3.715   4.159   2.041 -1.4074 -0.5498  1.3098
  107MOL0     H14062   3.752   4.331   2.043  0.3690 -0.6514 -0.7177
  107MOL0     H14063   3.659   4.377   2.254  4.5351 -1.9099  2.1979
  107MOL0     H14064   3.612   4.204   2.267 -0.7089 -0.4181  0.4211
  107MOL0     H14065   3.492   4.222   2.058  0.3530  1.8161 -1.5163
  107MOL0     H14066   3.510   4.406   2.055 -0.9283  1.9772  1.2701
  107MOL0     H14067   3.360   4.245   2.266  0.6177  0.9779  2.0296
  107MOL0     H14068   3.411   4.409   2.276  1.0349 -2.4670  2.9687
  107MOL0     H14069   3.279   4.462   2.073  0.6950 -1.0839 -1.7868
  107MOL0     H14070   3.165   4.389   2.185 -0.7770 -0.8653 -0.1011
  107MOL0     H14071   3.198   4.182   2.033 -2.0306 -0.3475 -1.5596
  107MOL0     H14072   3.305   4.285   1.925  2.0779  1.2812  2.3570
  107MOL0     H14073   3.012   4.313   2.013 -0.8779  1.0727 -0.3716
  107MOL0     H14074   3.090   4.428   1.907 -0.2125 -0.4990  0.4102
  107MOL0     H14075   3.034   4.132   1.854  1.8749  0.8262  2.2577
  107MOL0     H14076   3.155   4.220   1.757 -0.5184  1.6346 -0.3780
  107MOL0     H14077   3.034   4.462   1.633  0.2926 -0.1020  1.2085
  107MOL0     H14078   2.816   4.650   1.643 -2.1761  1.6048 -1.4392
  107MOL0     H14079   2.673   4.572   1.572 -0.3280  4.3437 -4.0594
  107MOL0     H14080   2.940   4.570   1.440  0.7987 -2.6429 -2.6182
  107MOL0     H14081   2.793   4.665   1.384  0.8310 -0.2328 -0.5007
  107MOL0     H14082   2.826   4.465   1.238 -2.1863  0.1434 -0.7452
  107MOL0     H14083   2.803   4.363   1.373 -4.2308 -1.5593 -0.1657
  107MOL0     H14084   2.600   4.563   1.282  1.9576  0.6414  1.1233
  107MOL0     H14085   2.587   4.433   1.409  0.9141 -0.6593 -0.1373
  107MOL0     H14086   2.388   4.443   1.361 -0.5991 -1.2302  1.2269
  107MOL0     H14087   2.173   4.357   1.331  1.5763  1.1175  0.8750
  107MOL0     H14088   1.787   4.389   1.111  0.8417  0.3086  0.0435
  107MOL0     H14089   1.562   4.314   1.081  2.3897  1.1690 -0.6875
  107MOL0     H14090   1.399   3.965   1.301 -0.5566 -2.0990 -0.0629
  107MOL0     H14091   1.464   3.894   1.162  2.5704  0.7102  2.1989
  107MOL0     H14092   1.284   3.930   1.026 -0.4182  4.1233 -1.4676
  107MOL0     H14093   1.228   4.062   1.119 -1.3019 -1.0470 -2.9439
  107MOL0     H14094   1.184   3.873   1.315 -1.4146 -1.3316 -0.1707
  107MOL0     H14095   1.197   3.760   1.176 -0.2478 -0.8382  1.5128
  107MOL0     H14096   1.003   4.001   1.188 -0.3744 -0.0553  1.9984
  107MOL0     H14097   1.014   3.859   1.073 -0.4158  0.5234  0.8117
  107MOL0     H14098   0.960   3.813   1.357  4.1897  3.0798 -0.8576
  107MOL0     H14099   0.990   3.692   1.239  0.3571 -0.3035  1.7710
  107MOL0     H14100   0.812   3.804   1.084  1.2049  2.6889  0.2051
  107MOL0     H14101   0.779   3.924   1.201 -0.5262  0.0777 -0.0414
  107MOL0     H14102   0.690   3.629   1.215 -1.9590 -1.7491  2.8370
  107MOL0     H14103   0.725   3.714   1.359  0.2049  0.3467 -0.0281
  107MOL0     H14104   0.547   3.890   1.271 -3.2582 -0.7369  0.7792
  107MOL0     H14105   0.484   3.729   1.288 -0.2044 -0.2955 -0.9419
  107MOL0     H14106   1.660   3.914   1.215 -2.0372 -0.1375 -1.7026
  107MOL0     H14107   1.878   4.010   1.275  1.4144  1.8168 -0.9345
  107MOL0     H14108   2.300   4.113   0.999 -1.6396  1.5611 -0.5161
  107MOL0     H14109   2.531   4.205   1.033  0.8485  1.7274 -0.3645
  107MOL0     H14110   4.103   4.167   2.279  0.8778  2.2794 -0.6691
  107MOL0     H14111   4.303   4.100   2.162 -0.5334  0.3299 -0.0841
  107MOL0     H14112   4.687   4.303   1.965  3.0531 -0.1706  0.2635
  107MOL0     H14113   4.900   4.238   1.941  0.9254 -1.4538  2.9271
  107MOL0     H14114   5.093   4.134   1.980 -0.7934  5.1171 -3.7789
  107MOL0     H14115   5.085   4.146   1.812 -0.2414 -1.1133 -1.0129
  107MOL0     H14116   5.299   4.047   1.896  1.2272  2.1919 -3.1185
  107MOL0     H14117   5.198   3.898   1.925  0.5885 -0.3385 -0.5515
  107MOL0     H14118   5.238   4.045   1.654  1.8186  0.9964 -0.2929
  107MOL0     H14119   5.160   3.883   1.687  0.5926 -0.8113  0.3624
  107MOL0     H14120   5.454   3.956   1.711 -0.4900  0.5119  1.0788
  107MOL0     H14121   5.380   3.794   1.746 -1.9327 -0.2630 -0.5043
  107MOL0     H14122   5.443   3.788   1.331  3.6235  0.0709  0.9501
  107MOL0     H14123   4.776   3.842   1.869 -0.6138  0.3126 -1.1496
  107MOL0     H14124   4.523   3.922   1.899 -0.8826 -0.3322 -3.0311
  108MOL0     O14125   6.077  10.357   5.243  0.2363 -0.1279 -0.3925
  108MOL0     C14126   6.141  10.363   5.142 -0.0741 -0.5148  0.2160
  108MOL0     O14127   6.093  10.417   5.021 -0.3311  0.7992  0.1763
  108MOL0     C14128   5.970  10.473   5.034  0.5765  0.2903  0.2281
  108MOL0     C14129   5.971  10.608   5.065  0.4141  0.4139 -0.6669
  108MOL0     C14130   5.852  10.673   5.096 -0.7320 -0.1027  0.2724
  108MOL0     C14131   5.720  10.611   5.097  0.0455 -0.4872 -0.2724
  108MOL0     O14132   5.602  10.677   5.120  0.2867 -0.1845  0.3813
  108MOL0     C14133   5.607  10.823   5.117 -0.4697  1.2677  0.6667
  108MOL0     C14134   5.474  10.898   5.092 -0.1317  0.2764  0.0790
  108MOL0     C14135   5.378  10.840   5.192  0.1050  0.3033  0.0225
  108MOL0     C14136   5.255  10.924   5.209  0.8966 -0.1211 -0.5114
  108MOL0     C14137   5.160  10.860   5.308  0.6474 -0.6706  0.5202
  108MOL0     C14138   5.041  10.949   5.346  0.4524 -0.1048  0.4924
  108MOL0     C14139   4.935  10.947   5.240  0.1007 -0.3759  0.3678
  108MOL0     C14140   4.807  11.012   5.296 -1.3848  0.0296  0.1051
  108MOL0     N14141   4.695  10.968   5.220  0.0074  0.2601 -1.1109
  108MOL0     C14142   4.666  11.017   5.095  0.1810 -0.1249 -0.4200
  108MOL0     C14143   4.571  10.928   5.059  0.4723 -0.3356  0.6028
  108MOL0     C14144   4.479  10.936   4.938 -0.4991  0.7671 -0.0602
  108MOL0     C14145   4.409  11.068   4.930 -0.4369 -0.4042 -0.6710
  108MOL0     C14146   4.310  11.062   5.048  0.3981  0.5917 -1.0417
  108MOL0     C14147   4.199  11.164   5.042  0.1623 -0.3305  0.9110
  108MOL0     O14148   4.083  11.109   4.978 -0.7252  0.5663 -0.1357
  108MOL0     C14149   3.956  11.157   4.993 -0.3519 -0.5575 -0.2439
  108MOL0     C14150   3.934  11.294   4.993  0.0057  0.0259 -0.0614
  108MOL0     C14151   3.806  11.353   4.986 -0.0229 -0.3200 -0.1969
  108MOL0     C14152   3.699  11.275   4.997  0.0605 -0.8900 -0.8328
  108MOL0     C14153   3.563  11.342   4.996  0.1772  0.0393  0.4971
  108MOL0     O14154   3.463  11.255   4.981 -0.0508  0.5019  0.7926
  108MOL0     C14155   3.329  11.308   4.980 -0.3771 -0.0219 -0.2255
  108MOL0     C14156   3.281  11.400   4.889  0.2458 -0.8596  0.6969
  108MOL0     C14157   3.143  11.443   4.883 -0.8356 -0.0281 -1.5323
  108MOL0     C14158   3.053  11.381   4.975  0.2804  0.0025  0.0718
  108MOL0     O14159   2.921  11.417   4.985 -0.7318 -0.7064 -0.2128
  108MOL0     C14160   2.836  11.377   4.876 -0.3612  0.6512 -0.2516
  108MOL0     C14161   2.701  11.445   4.883 -0.2132  0.9711  0.6878
  108MOL0     C14162   2.619  11.389   5.008  0.5835 -0.2199  0.1283
  108MOL0     C14163   2.491  11.478   5.024  0.0411 -0.4783  0.5395
  108MOL0     C14164   2.392  11.391   5.115  0.3338  0.1941 -0.3384
  108MOL0     C14165   2.260  11.465   5.146  0.0444 -0.0872  0.1456
  108MOL0     C14166   2.178  11.377   5.239 -0.4244 -1.3184 -0.0550
  108MOL0     C14167   2.039  11.435   5.263  0.0234  0.2846  0.5178
  108MOL0    Cl14168   1.940  11.316   5.364 -0.4910 -0.1707 -0.4029
  108MOL0     C14169   3.096  11.275   5.054  0.8242 -0.0543  0.0574
  108MOL0     C14170   3.236  11.246   5.066 -0.2310 -0.2853 -0.7182
  108MOL0     O14171   3.546  11.459   5.003 -0.9361  0.8718  0.2644
  108MOL0     C14172   3.716  11.141   5.017  0.7462 -0.3142  0.1087
  108MOL0     C14173   3.840  11.081   4.997 -0.3412 -0.0689  0.3229
  108MOL0     N14174   4.540  10.833   5.157 -0.1999  0.2715  0.1994
  108MOL0     N14175   4.616  10.861   5.256  0.7273 -0.0956 -0.5808
  108MOL0     C14176   5.724  10.471   5.065  0.2846  0.3330 -0.6378
  108MOL0     C14177   5.849  10.405   5.036  0.5869 -0.4263  0.9634
  108MOL0     C14178   6.284  10.334   5.150 -0.2548  0.9725 -0.5157
  108MOL0     C14179   6.376  10.396   5.060 -0.0204  0.3679 -0.8356
  108MOL0     C14180   6.513  10.368   5.067  0.2093 -0.1903  0.2045
  108MOL0     C14181   6.572  10.287   5.170 -0.4084 -0.1907 -0.1918
  108MOL0     O14182   6.703  10.276   5.179 -0.0092  0.0990  0.2105
  108MOL0     C14183   6.759  10.239   5.305 -1.0471 -0.3682 -0.2465
  108MOL0     C14184   6.898  10.202   5.286  0.0270 -0.3939 -1.0432
  108MOL0     C14185   6.897  10.071   5.213 -0.1758 -0.6863  0.5608
  108MOL0     C14186   7.028   9.982   5.214 -0.7897 -0.0878  0.7402
  108MOL0     C14187   7.016   9.846   5.156  0.5444  0.3490 -1.1230
  108MOL0     C14188   6.996   9.735   5.108  0.5553  0.4287  0.1996
  108MOL0     C14189   6.478  10.229   5.265 -1.4987 -0.8933  0.4874
  108MOL0     C14190   6.339  10.258   5.258 -0.1716 -0.3777 -0.3968
  108MOL0     H14191   6.072  10.646   5.079 -0.3996  3.2861 -1.7859
  108MOL0     H14192   5.857  10.780   5.115  2.7664 -0.2686  1.0384
  108MOL0     H14193   5.675  10.849   5.035  1.9030 -3.9716  0.5357
  108MOL0     H14194   5.656  10.856   5.209  2.7013  1.2779 -0.9001
  108MOL0     H14195   5.442  10.887   4.988  3.1869  2.0757 -1.3099
  108MOL0     H14196   5.488  11.003   5.117  0.5885  0.5415 -1.3358
  108MOL0     H14197   5.431  10.820   5.285 -0.5566 -0.7896  0.1920
  108MOL0     H14198   5.347  10.741   5.157 -0.9706 -0.4344  2.7952
  108MOL0     H14199   5.280  11.026   5.240  3.4911 -0.5688 -0.9881
  108MOL0     H14200   5.201  10.928   5.113  0.1951 -2.7969 -0.3244
  108MOL0     H14201   5.219  10.842   5.398  1.6727 -2.9583 -0.5224
  108MOL0     H14202   5.124  10.761   5.276 -0.0807 -0.7281  1.4601
  108MOL0     H14203   5.078  11.050   5.363  0.3529  0.0161  0.0134
  108MOL0     H14204   4.999  10.912   5.440 -4.6205  0.3840 -1.2554
  108MOL0     H14205   4.959  11.001   5.148 -2.3372 -0.8178 -0.6079
  108MOL0     H14206   4.915  10.842   5.216 -2.5933  0.3170 -0.8383
  108MOL0     H14207   4.826  11.119   5.297  0.9644 -0.3492  1.9732
  108MOL0     H14208   4.790  10.988   5.401 -0.7769  0.0876  0.2142
  108MOL0     H14209   4.708  11.106   5.051  1.1454 -0.3286  0.0639
  108MOL0     H14210   4.400  10.859   4.936 -1.1276  1.3750  0.8188
  108MOL0     H14211   4.535  10.924   4.845 -0.0126  0.6169  0.2520
  108MOL0     H14212   4.350  11.065   4.837 -1.0480 -3.0836 -0.2935
  108MOL0     H14213   4.474  11.155   4.935  1.0469 -1.5448  1.8460
  108MOL0     H14214   4.271  10.965   5.080  1.7792  0.2967 -0.1362
  108MOL0     H14215   4.362  11.092   5.140 -0.0672 -0.4249 -0.4316
  108MOL0     H14216   4.237  11.253   4.990 -2.3251  0.3256  0.0898
  108MOL0     H14217   4.163  11.187   5.142  2.7982 -0.8262  2.0466
  108MOL0     H14218   4.010  11.371   4.988 -1.4771  1.4813 -1.4029
  108MOL0     H14219   3.806  11.462   4.994 -1.7068 -0.3067 -0.0477
  108MOL0     H14220   3.345  11.455   4.820 -1.2034  0.9836  0.7556
  108MOL0     H14221   3.102  11.517   4.815 -3.1000 -1.7029 -2.1041
  108MOL0     H14222   2.822  11.269   4.873  3.0905  0.0359  1.0292
  108MOL0     H14223   2.885  11.409   4.783  4.4907  0.0850  1.8016
  108MOL0     H14224   2.637  11.417   4.798 -1.5981  1.7401  1.4309
  108MOL0     H14225   2.717  11.553   4.890  1.1465  0.7813  0.8034
  108MOL0     H14226   2.671  11.376   5.103 -0.3072 -0.9088  0.5275
  108MOL0     H14227   2.595  11.286   4.979 -1.2800 -0.4830  2.2945
  108MOL0     H14228   2.513  11.573   5.073 -0.5181 -0.7652  1.3715
  108MOL0     H14229   2.446  11.496   4.925  1.2459 -2.1094 -0.3492
  108MOL0     H14230   2.444  11.362   5.207  2.1822  2.2742 -0.6181
  108MOL0     H14231   2.373  11.300   5.058  3.6439 -0.3425 -0.7795
  108MOL0     H14232   2.207  11.490   5.053  1.2446  1.4418 -0.1640
  108MOL0     H14233   2.273  11.559   5.201 -1.6208  0.8831 -1.0242
  108MOL0     H14234   2.166  11.272   5.212  2.0004 -0.8105 -3.8963
  108MOL0     H14235   2.230  11.380   5.334 -1.0759  1.7979  0.3371
  108MOL0     H14236   1.982  11.446   5.170 -0.6660  1.7155  1.0843
  108MOL0     H14237   2.045  11.535   5.305 -0.5540  0.2893  0.5946
  108MOL0     H14238   3.020  11.222   5.111  3.1711 -2.5695  1.0532
  108MOL0     H14239   3.276  11.199   5.155  0.0908  0.9658 -0.1821
  108MOL0     H14240   3.625  11.082   5.016  0.5198 -0.0213 -2.3343
  108MOL0     H14241   3.847  10.973   5.004  3.5649 -0.1802 -2.1375
  108MOL0     H14242   5.635  10.411   5.045  1.3247 -1.8346  0.8709
  108MOL0     H14243   5.830  10.304   5.000 -1.8121  0.7547 -1.4071
  108MOL0     H14244   6.352  10.464   4.979  2.2139  4.5675  1.6802
  108MOL0     H14245   6.574  10.411   4.988 -2.1219 -1.9511 -2.7665
  108MOL0     H14246   6.705  10.159   5.357 -0.7251  1.0632  2.4708
  108MOL0     H14247   6.747  10.328   5.367  0.8664 -0.6766  0.6441
  108MOL0     H14248   6.958  10.277   5.233 -0.1355 -0.7266 -1.7182
  108MOL0     H14249   6.946  10.179   5.381  1.2680 -2.1414 -2.0477
  108MOL0     H14250   6.860  10.075   5.110 -0.8194  0.1678  0.8138
  108MOL0     H14251   6.837  10.003   5.274 -0.6546  0.8270  1.8320
  108MOL0     H14252   7.091  10.032   5.141 -1.1569  1.4260  1.4011
  108MOL0     H14253   7.088   9.976   5.305  0.9835 -0.5842 -0.4171
  108MOL0     H14254   6.977   9.640   5.064 -0.4077  0.0835  1.3112
  108MOL0     H14255   6.494  10.161   5.348  0.0796 -0.9804  0.1336
  108MOL0     H14256   6.276  10.229   5.341  0.3962 -0.4955  0.0025
  109MOL0     O14257   8.340   6.107   6.816  0.0992 -0.1169 -0.6428
  109MOL0     C14258   8.325   5.999   6.764 -0.7912 -0.3903 -0.2995
  109MOL0     O14259   8.408   5.938   6.676 -0.3548  0.0236 -0.0780
  109MOL0     C14260   8.524   6.007   6.650  0.0178  1.2775  0.0771
  109MOL0     C14261   8.614   6.062   6.743 -0.9941 -0.2756 -0.0588
  109MOL0     C14262   8.709   6.162   6.704  0.7641 -0.9835 -0.1312
  109MOL0     C14263   8.717   6.207   6.570 -0.6131 -0.4007  0.4427
  109MOL0     O14264   8.807   6.304   6.535 -0.0218  0.2556 -0.9618
  109MOL0     C14265   8.876   6.285   6.413  0.0673  0.1490  0.5090
  109MOL0     C14266   9.017   6.355   6.408 -0.6396  0.1415 -0.8361
  109MOL0     C14267   9.087   6.359   6.542  0.5189  0.0639 -0.5256
  109MOL0     C14268   9.218   6.423   6.524 -0.4585 -0.1664  0.4123
  109MOL0     C14269   9.296   6.416   6.661  1.0341  0.4196  0.4986
  109MOL0     C14270   9.428   6.342   6.662  0.5293 -0.3716 -0.3841
  109MOL0     C14271   9.473   6.326   6.814  0.3559  1.1215 -0.5607
  109MOL0     C14272   9.554   6.424   6.877 -0.2065 -1.1115  0.1378
  109MOL0     N14273   9.492   6.476   7.005 -0.4157 -0.6620  0.1489
  109MOL0     C14274   9.363   6.532   7.014 -0.9008 -0.9434  0.8345
  109MOL0     C14275   9.357   6.569   7.147  0.1796 -0.5604 -0.3480
  109MOL0     C14276   9.230   6.631   7.209 -0.3416  0.0212  0.3738
  109MOL0     C14277   9.240   6.689   7.352  0.2988  0.6476 -0.2429
  109MOL0     C14278   9.131   6.792   7.379  0.1671 -0.9627 -0.0475
  109MOL0     C14279   8.989   6.731   7.389  0.2200  0.8164 -0.3929
  109MOL0     O14280   8.876   6.820   7.413  0.0381  0.3717 -0.2982
  109MOL0     C14281   8.746   6.771   7.404 -0.3715 -0.2183  0.5701
  109MOL0     C14282   8.645   6.865   7.381 -0.8951 -0.4271 -0.1263
  109MOL0     C14283   8.517   6.819   7.361  0.0971  0.6831 -0.2097
  109MOL0     C14284   8.478   6.681   7.386 -0.0263 -0.2035 -0.1108
  109MOL0     C14285   8.342   6.642   7.372  0.1038 -0.2073  0.5908
  109MOL0     O14286   8.252   6.730   7.328  0.6673 -0.2104  0.0061
  109MOL0     C14287   8.116   6.711   7.351  0.5907 -0.0471 -0.4093
  109MOL0     C14288   8.055   6.605   7.306  0.1021  0.0411 -0.4725
  109MOL0     C14289   7.914   6.585   7.313  0.1776 -0.4324  0.8598
  109MOL0     C14290   7.834   6.686   7.363 -0.6855 -0.2215 -0.3052
  109MOL0     O14291   7.700   6.688   7.383 -0.2178 -0.3108  0.4848
  109MOL0     C14292   7.614   6.589   7.334 -0.6254  0.7298 -0.8809
  109MOL0     C14293   7.475   6.630   7.358  0.4448 -0.3751  0.0468
  109MOL0     C14294   7.382   6.511   7.323  0.3926  0.7493 -0.6926
  109MOL0     C14295   7.242   6.542   7.362  1.0114  0.3592  0.0833
  109MOL0     C14296   7.151   6.415   7.359 -0.4095 -0.3765  0.3386
  109MOL0     C14297   7.015   6.457   7.402  0.1947 -0.5568  0.0821
  109MOL0     C14298   6.926   6.538   7.299  0.4194  0.0678  0.0123
  109MOL0     C14299   6.776   6.520   7.320 -0.5182  0.1212 -0.3032
  109MOL0    Cl14300   6.704   6.383   7.236  0.6783 -0.0263  0.1305
  109MOL0     C14301   7.904   6.804   7.404 -0.4059  0.4193  0.0050
  109MOL0     C14302   8.039   6.817   7.402 -1.1395 -0.6886  0.3707
  109MOL0     O14303   8.318   6.522   7.398 -0.2163  0.2548  0.4290
  109MOL0     C14304   8.585   6.589   7.426 -0.2659  0.1410  0.9108
  109MOL0     C14305   8.714   6.640   7.423 -0.4070 -0.2105  0.1685
  109MOL0     N14306   9.473   6.538   7.207 -0.2068  0.1538 -0.5949
  109MOL0     N14307   9.555   6.488   7.119  0.8696 -0.6678 -0.0544
  109MOL0     C14308   8.635   6.141   6.480  0.1528 -0.0466  0.4354
  109MOL0     C14309   8.546   6.040   6.513 -0.1671 -1.3202 -0.4579
  109MOL0     C14310   8.206   5.914   6.807 -0.7190  0.3505 -0.2281
  109MOL0     C14311   8.179   5.780   6.756 -0.3569 -1.2363 -0.3064
  109MOL0     C14312   8.056   5.723   6.774  0.4020 -1.1613 -0.3268
  109MOL0     C14313   7.962   5.791   6.855 -0.3000  0.1512  1.0046
  109MOL0     O14314   7.847   5.725   6.898  0.1921  0.6929  0.0407
  109MOL0     C14315   7.718   5.801   6.898 -0.7302 -1.0052  0.3319
  109MOL0     C14316   7.642   5.773   7.025  0.0501 -0.7399 -0.8098
  109MOL0     C14317   7.593   5.631   7.010 -0.8210  0.1710  0.7471
  109MOL0     C14318   7.529   5.588   7.128 -0.4917 -0.8621 -0.0440
  109MOL0     C14319   7.395   5.648   7.145  0.3111  0.1442  0.1704
  109MOL0     C14320   7.282   5.689   7.142 -0.1183 -0.7144 -0.3816
  109MOL0     C14321   7.988   5.912   6.922  0.1969  0.1694  0.2067
  109MOL0     C14322   8.107   5.974   6.885 -0.2685 -0.1036 -0.2736
  109MOL0     H14323   8.608   6.035   6.848 -1.4976 -2.7182 -0.6400
  109MOL0     H14324   8.770   6.211   6.779 -0.6363 -0.6710  0.8525
  109MOL0     H14325   8.815   6.327   6.332  0.5509 -0.0876  0.0196
  109MOL0     H14326   8.897   6.181   6.390 -0.3623  0.4906 -1.6083
  109MOL0     H14327   8.998   6.460   6.384 -1.0340  0.6130  1.3016
  109MOL0     H14328   9.085   6.315   6.332 -0.4347  1.6606 -1.4856
  109MOL0     H14329   9.094   6.257   6.579  0.9559  0.5570  0.7958
  109MOL0     H14330   9.020   6.421   6.603 -0.8989 -0.9069 -1.0326
  109MOL0     H14331   9.277   6.376   6.445  0.1169  3.8768 -1.8394
  109MOL0     H14332   9.215   6.531   6.503  2.6429 -0.0843  0.0357
  109MOL0     H14333   9.229   6.365   6.732  1.8028  2.3431  2.7380
  109MOL0     H14334   9.317   6.513   6.707  1.6643 -1.2332  4.0637
  109MOL0     H14335   9.506   6.390   6.603 -0.6804  2.4930  0.1817
  109MOL0     H14336   9.416   6.242   6.620 -2.4151 -0.3977  0.3008
  109MOL0     H14337   9.385   6.290   6.869  0.0694 -0.3094 -1.8657
  109MOL0     H14338   9.540   6.241   6.797  1.3864  2.1212 -1.6198
  109MOL0     H14339   9.572   6.510   6.813  1.1728  1.9723  4.2641
  109MOL0     H14340   9.649   6.375   6.899  0.6516 -0.2839 -1.5823
  109MOL0     H14341   9.284   6.549   6.942  0.2493  1.1017 -0.0186
  109MOL0     H14342   9.143   6.565   7.204  0.4003 -0.8627 -2.2316
  109MOL0     H14343   9.209   6.714   7.143  0.1554  1.5181  2.0141
  109MOL0     H14344   9.335   6.740   7.372 -0.3026  1.0615  1.7732
  109MOL0     H14345   9.241   6.601   7.418 -0.1899  1.2296  0.5631
  109MOL0     H14346   9.145   6.842   7.475 -0.2863  2.2335 -1.5039
  109MOL0     H14347   9.148   6.870   7.305  2.6973 -0.8390  0.5928
  109MOL0     H14348   9.002   6.662   7.472  0.4267 -0.6486 -1.6121
  109MOL0     H14349   8.970   6.668   7.302  0.2932 -2.8266  2.0045
  109MOL0     H14350   8.666   6.969   7.362 -1.0210  0.1217  2.3787
  109MOL0     H14351   8.443   6.897   7.356 -0.8794 -0.1086  1.0397
  109MOL0     H14352   8.104   6.521   7.257  0.5262  0.7582 -1.3006
  109MOL0     H14353   7.865   6.494   7.279 -0.1032  0.2297 -0.5491
  109MOL0     H14354   7.640   6.501   7.393 -1.7289  1.9641  1.6304
  109MOL0     H14355   7.628   6.565   7.229 -1.6997 -1.8188 -0.5050
  109MOL0     H14356   7.448   6.716   7.296 -0.6717  0.6217  1.8373
  109MOL0     H14357   7.456   6.660   7.461 -1.4914  0.1386 -0.4175
  109MOL0     H14358   7.422   6.431   7.386 -2.2292  1.6032  2.2995
  109MOL0     H14359   7.390   6.478   7.219  0.1658 -2.0719  0.0920
  109MOL0     H14360   7.244   6.557   7.471  2.2141 -0.0674  0.1390
  109MOL0     H14361   7.207   6.636   7.320 -0.0719  0.2962  0.8058
  109MOL0     H14362   7.198   6.352   7.435  1.7017  0.9781  0.2498
  109MOL0     H14363   7.146   6.368   7.260 -0.4640  1.4416 -0.5838
  109MOL0     H14364   7.013   6.501   7.502 -2.4012  3.0171 -1.3520
  109MOL0     H14365   6.965   6.360   7.408 -2.5073  0.7319 -0.0870
  109MOL0     H14366   6.955   6.642   7.316  0.6482 -0.2265  1.6416
  109MOL0     H14367   6.949   6.503   7.199 -1.5333 -1.6041  0.0768
  109MOL0     H14368   6.725   6.609   7.281 -0.9639  0.2118  0.4625
  109MOL0     H14369   6.755   6.508   7.427 -1.2121  0.5305 -0.3871
  109MOL0     H14370   7.848   6.882   7.454 -0.8084  0.1184  0.0252
  109MOL0     H14371   8.086   6.908   7.439 -1.2235 -0.9930  1.2396
  109MOL0     H14372   8.563   6.486   7.454  0.8576 -0.0079  1.2631
  109MOL0     H14373   8.788   6.561   7.431 -0.1131 -0.3634 -2.9073
  109MOL0     H14374   8.641   6.159   6.374 -1.0502 -5.0865 -0.7608
  109MOL0     H14375   8.464   6.030   6.442 -1.9557 -0.2251  1.3656
  109MOL0     H14376   8.253   5.726   6.699  1.7348 -0.1064  1.1715
  109MOL0     H14377   8.041   5.618   6.752  0.0242 -0.9043 -1.3797
  109MOL0     H14378   7.651   5.775   6.816  0.5243  0.5728 -1.2651
  109MOL0     H14379   7.728   5.909   6.896 -1.1517 -0.9387  1.1393
  109MOL0     H14380   7.700   5.802   7.113 -0.7938  3.9140 -1.5223
  109MOL0     H14381   7.558   5.842   7.031  1.0330  0.4325  0.0762
  109MOL0     H14382   7.679   5.564   6.998  0.6953  1.8625  1.5806
  109MOL0     H14383   7.526   5.616   6.925 -2.2944  1.1597  1.6801
  109MOL0     H14384   7.525   5.478   7.128  2.1000 -1.0340  0.1555
  109MOL0     H14385   7.583   5.612   7.220 -0.1566  0.0129 -0.4613
  109MOL0     H14386   7.185   5.735   7.148  0.7820  1.2109  0.4973
  109MOL0     H14387   7.924   5.949   7.001  1.4137 -0.2858  1.4433
  109MOL0     H14388   8.128   6.074   6.923  0.1772 -0.5329  0.6326
  110MOL0     O14389  11.240   5.139   7.160 -0.5832  1.1558 -0.1853
  110MOL0     C14390  11.196   5.240   7.209  0.9120 -0.7391  0.2876
  110MOL0     O14391  11.068   5.276   7.227  0.7687 -0.8718  0.1597
  110MOL0     C14392  10.957   5.215   7.170  0.1372 -0.6723  0.8090
  110MOL0     C14393  10.834   5.266   7.227  0.1374  0.2438 -0.1436
  110MOL0     C14394  10.708   5.203   7.188 -0.3219 -0.8198  0.2405
  110MOL0     C14395  10.706   5.101   7.096 -0.3813  0.3812 -0.9569
  110MOL0     O14396  10.600   5.027   7.062 -0.2704  0.0511 -0.1472
  110MOL0     C14397  10.468   5.076   7.096 -0.1412  0.5872  0.5780
  110MOL0     C14398  10.376   4.984   7.012 -1.1864  0.8510 -0.2366
  110MOL0     C14399  10.236   5.038   7.006  0.2614 -0.3381 -0.8610
  110MOL0     C14400  10.154   4.975   6.893 -0.3729  0.2992 -0.9349
  110MOL0     C14401  10.007   4.996   6.902  0.0910 -0.1601  0.5659
  110MOL0     C14402   9.936   4.934   6.783 -0.2191  0.3405 -0.0888
  110MOL0     C14403   9.785   4.965   6.777 -0.4034 -0.8493  0.1353
  110MOL0     C14404   9.716   4.921   6.905 -0.3296 -0.0117 -0.6498
  110MOL0     N14405   9.570   4.928   6.895 -0.1371  0.1595 -0.1431
  110MOL0     C14406   9.504   5.046   6.906  0.6238  0.5700 -1.2218
  110MOL0     C14407   9.375   5.016   6.902  0.3017 -0.1873  0.0921
  110MOL0     C14408   9.278   5.126   6.876 -0.3725 -1.3998  0.1404
  110MOL0     C14409   9.270   5.167   6.733 -0.6643 -0.0447  0.7931
  110MOL0     C14410   9.185   5.084   6.630 -0.4377 -0.2273 -0.1665
  110MOL0     C14411   9.038   5.077   6.671 -0.2878 -0.7033 -0.3158
  110MOL0     O14412   8.985   5.205   6.715 -0.4495  0.5188  0.0646
  110MOL0     C14413   8.854   5.214   6.758 -0.9144 -0.6971  0.5184
  110MOL0     C14414   8.806   5.350   6.779  0.9523 -0.2468  0.0800
  110MOL0     C14415   8.683   5.365   6.841  0.6163 -0.6349 -0.5516
  110MOL0     C14416   8.590   5.263   6.856  0.2068 -0.1027 -0.4281
  110MOL0     C14417   8.447   5.298   6.880 -0.2477 -0.1852 -1.4714
  110MOL0     O14418   8.363   5.198   6.910  0.4650  0.4516 -0.1065
  110MOL0     C14419   8.225   5.213   6.927  0.1972  0.7678  0.0411
  110MOL0     C14420   8.156   5.321   6.971  0.3299 -0.4712 -0.0642
  110MOL0     C14421   8.017   5.319   6.980 -0.0572 -0.0119  0.0906
  110MOL0     C14422   7.939   5.218   6.945  0.1296  0.6139 -0.3271
  110MOL0     O14423   7.798   5.247   6.930  0.1721 -0.6458 -0.8522
  110MOL0     C14424   7.697   5.177   6.863  0.5733  0.5961  0.5973
  110MOL0     C14425   7.566   5.254   6.877 -0.0401  0.1593 -0.5563
  110MOL0     C14426   7.434   5.180   6.850  0.0071  0.6044  0.1467
  110MOL0     C14427   7.424   5.050   6.926 -0.3125  0.4120  0.3127
  110MOL0     C14428   7.285   4.990   6.918  1.0035 -0.2935  0.8973
  110MOL0     C14429   7.181   5.042   7.021 -0.2522 -0.6645  0.1936
  110MOL0     C14430   7.041   4.967   7.008 -0.3535  0.3347 -0.5335
  110MOL0     C14431   6.951   5.022   6.897 -0.0369 -0.0258  0.8393
  110MOL0    Cl14432   6.931   5.205   6.886  0.0480 -0.1187  0.2769
  110MOL0     C14433   8.003   5.104   6.906 -0.6278 -0.0914  0.1907
  110MOL0     C14434   8.148   5.098   6.902 -0.0645  0.1814 -0.4877
  110MOL0     O14435   8.409   5.417   6.877  0.1022  0.1089  0.9452
  110MOL0     C14436   8.636   5.132   6.836  0.1246  0.5941 -0.3279
  110MOL0     C14437   8.765   5.104   6.788  0.4940  0.4523  0.1017
  110MOL0     N14438   9.358   4.875   6.906 -0.3612 -0.1509  0.2280
  110MOL0     N14439   9.477   4.826   6.887 -0.4519 -1.1256  0.2512
  110MOL0     C14440  10.830   5.064   7.037  0.4507  0.4955  0.3243
  110MOL0     C14441  10.951   5.118   7.073  0.1482  0.7317 -0.1215
  110MOL0     C14442  11.292   5.320   7.285  0.6171 -0.0572  0.2312
  110MOL0     C14443  11.264   5.456   7.314  0.2015 -0.4745 -0.3828
  110MOL0     C14444  11.347   5.529   7.407 -0.2876  0.5337  0.1149
  110MOL0     C14445  11.468   5.471   7.458  0.0822 -0.1433  0.0879
  110MOL0     O14446  11.551   5.553   7.534  0.3477 -0.0574 -0.7340
  110MOL0     C14447  11.682   5.524   7.582  0.0016 -0.0992  1.2679
  110MOL0     C14448  11.797   5.508   7.472 -0.2001 -0.3884  0.3593
  110MOL0     C14449  11.814   5.628   7.381 -0.6167 -0.3699 -0.9422
  110MOL0     C14450  11.915   5.602   7.264  0.8379  0.1398 -0.1595
  110MOL0     C14451  12.056   5.582   7.312 -0.0807  0.1152  0.3564
  110MOL0     C14452  12.182   5.568   7.337 -0.2301  0.0032 -0.2331
  110MOL0     C14453  11.505   5.342   7.412  0.2881 -0.4414  0.9981
  110MOL0     C14454  11.413   5.268   7.337 -0.5045 -0.1013 -0.9099
  110MOL0     H14455  10.822   5.349   7.296 -2.2090  0.0677 -0.2681
  110MOL0     H14456  10.621   5.242   7.239  0.7847 -1.0446  2.4441
  110MOL0     H14457  10.468   5.178   7.058  2.4917  0.5799  0.4372
  110MOL0     H14458  10.448   5.078   7.204  1.5884 -1.1390  0.9946
  110MOL0     H14459  10.374   4.880   7.046  0.4913  1.1674  0.9553
  110MOL0     H14460  10.413   4.973   6.910 -3.6516  1.8261 -1.3301
  110MOL0     H14461  10.232   5.147   7.002 -0.5895 -0.1748  1.8538
  110MOL0     H14462  10.190   5.014   7.103 -2.4844  3.8315 -0.8864
  110MOL0     H14463  10.192   5.028   6.805 -1.8363  2.5105 -0.3366
  110MOL0     H14464  10.170   4.867   6.898  1.2370  0.5709  0.7591
  110MOL0     H14465   9.978   5.101   6.910 -0.7761  0.0151 -2.9571
  110MOL0     H14466   9.969   4.950   6.993  3.3553 -3.6307  0.4379
  110MOL0     H14467   9.944   4.825   6.779 -0.7322  0.3139 -0.5270
  110MOL0     H14468   9.981   4.981   6.694 -2.1585  0.9157 -0.8133
  110MOL0     H14469   9.760   5.071   6.769 -2.6855 -1.1462  2.1231
  110MOL0     H14470   9.741   4.923   6.686  0.6162 -0.1802 -0.6769
  110MOL0     H14471   9.739   4.986   6.990 -1.0340  1.0093 -1.2125
  110MOL0     H14472   9.739   4.817   6.928 -0.6022 -0.2231 -1.3040
  110MOL0     H14473   9.565   5.135   6.919  1.8529 -0.6421  2.5441
  110MOL0     H14474   9.322   5.216   6.920  2.3377 -0.4269 -3.9142
  110MOL0     H14475   9.177   5.108   6.913  0.4285 -1.6047  2.3510
  110MOL0     H14476   9.369   5.159   6.686 -0.8749 -1.2944  0.5160
  110MOL0     H14477   9.227   5.267   6.726 -2.8224 -0.8428  1.8577
  110MOL0     H14478   9.190   5.143   6.539 -1.5076 -1.2781 -0.9314
  110MOL0     H14479   9.231   4.987   6.608  1.4543  0.8962 -1.4328
  110MOL0     H14480   9.026   5.005   6.752  2.2369 -1.3112 -0.4152
  110MOL0     H14481   8.983   5.043   6.582  0.8016 -2.2086 -0.4544
  110MOL0     H14482   8.881   5.428   6.781  1.0623 -0.3409  1.8104
  110MOL0     H14483   8.651   5.466   6.864  1.3901 -0.3163 -0.8366
  110MOL0     H14484   8.208   5.411   7.002  0.1877 -0.3534 -0.1653
  110MOL0     H14485   7.973   5.415   7.005  1.0249  0.2383  1.1208
  110MOL0     H14486   7.696   5.073   6.898  0.0813  0.9484  1.6506
  110MOL0     H14487   7.723   5.186   6.757  2.6384  0.6927  1.0700
  110MOL0     H14488   7.576   5.329   6.799  1.4222 -0.2557 -0.7914
  110MOL0     H14489   7.563   5.300   6.977  1.7135 -0.9297  0.0473
  110MOL0     H14490   7.432   5.143   6.747  2.0569  2.4531 -0.6070
  110MOL0     H14491   7.344   5.242   6.854 -0.7938 -0.5656  1.0187
  110MOL0     H14492   7.489   4.974   6.883 -0.8395  0.5594 -0.7762
  110MOL0     H14493   7.452   5.061   7.031 -3.2293  0.9235  1.1365
  110MOL0     H14494   7.286   4.883   6.937 -1.4384 -0.4265  0.5882
  110MOL0     H14495   7.248   5.002   6.816  0.5961 -1.1010  0.9430
  110MOL0     H14496   7.170   5.150   7.008 -1.1768 -0.7242  0.3722
  110MOL0     H14497   7.213   5.017   7.123  1.4723  0.2567 -0.0845
  110MOL0     H14498   7.069   4.862   6.995 -1.6583 -0.1633  0.4488
  110MOL0     H14499   6.990   4.981   7.104  1.3641  0.7763  0.3613
  110MOL0     H14500   6.849   4.984   6.910  0.6868 -1.9524  1.1687
  110MOL0     H14501   6.995   4.977   6.808  0.1465  0.3517  0.7376
  110MOL0     H14502   7.943   5.014   6.895 -2.6168  0.9218  2.1036
  110MOL0     H14503   8.190   5.000   6.880 -0.3318  0.2172 -1.1998
  110MOL0     H14504   8.565   5.052   6.857 -0.1041  1.6533  3.8077
  110MOL0     H14505   8.793   5.005   6.752 -2.8511  0.5019 -3.2107
  110MOL0     H14506  10.827   4.991   6.958  0.1722  0.1866  0.6180
  110MOL0     H14507  11.043   5.083   7.029  1.3001  3.6320 -0.2713
  110MOL0     H14508  11.180   5.507   7.268  0.7437  0.0822 -0.7657
  110MOL0     H14509  11.319   5.631   7.429 -0.6744  1.0576 -2.5658
  110MOL0     H14510  11.679   5.431   7.639  0.9986 -0.4110  0.8412
  110MOL0     H14511  11.719   5.607   7.643  0.1626  3.8432 -3.5381
  110MOL0     H14512  11.895   5.488   7.515  0.2813 -0.4828 -0.7381
  110MOL0     H14513  11.769   5.421   7.411 -0.3924 -1.3318  1.7416
  110MOL0     H14514  11.849   5.718   7.431 -0.6151 -1.1841  0.5886
  110MOL0     H14515  11.718   5.635   7.328 -1.2260  0.0370  0.1900
  110MOL0     H14516  11.872   5.519   7.207  3.1362 -2.1044  1.1507
  110MOL0     H14517  11.909   5.695   7.208 -2.6800 -0.2044 -0.5518
  110MOL0     H14518  12.288   5.561   7.353 -0.5619 -2.5098  1.5241
  110MOL0     H14519  11.597   5.291   7.436  1.8573  1.2257 -1.1754
  110MOL0     H14520  11.432   5.161   7.340 -0.9742 -0.4728 -5.2329
  111MOL0     O14521   6.626   8.701   6.499  0.7194 -0.1839 -1.0159
  111MOL0     C14522   6.716   8.640   6.546  0.9310 -0.4039  0.3365
  111MOL0     O14523   6.738   8.504   6.532  0.3480 -0.1462 -0.2628
  111MOL0     C14524   6.631   8.437   6.484 -0.2269  0.3268 -0.5699
  111MOL0     C14525   6.600   8.431   6.347  0.0831 -1.0558  0.7963
  111MOL0     C14526   6.505   8.348   6.298  0.8134 -0.6417  0.0149
  111MOL0     C14527   6.423   8.265   6.383  0.7687  0.0647  0.0838
  111MOL0     O14528   6.329   8.191   6.319 -0.6895 -0.4467  0.1053
  111MOL0     C14529   6.275   8.076   6.378 -0.6404  0.1843 -0.2927
  111MOL0     C14530   6.189   7.991   6.278  0.1961  0.0731 -0.5733
  111MOL0     C14531   6.062   8.051   6.221  0.7410 -0.0374  0.3397
  111MOL0     C14532   6.027   7.981   6.086 -0.2014 -0.8137 -0.0917
  111MOL0     C14533   5.888   8.029   6.049  0.0687  0.6270 -0.3542
  111MOL0     C14534   5.873   8.166   5.986  0.1393  0.2555  0.3193
  111MOL0     C14535   5.906   8.161   5.829 -0.1659 -0.7389 -0.6719
  111MOL0     C14536   6.027   8.256   5.794  0.4455  0.0180  0.0468
  111MOL0     N14537   6.157   8.187   5.815 -0.8776  0.0785 -0.7183
  111MOL0     C14538   6.238   8.202   5.924  0.6115 -0.1863  0.5963
  111MOL0     C14539   6.346   8.124   5.902 -0.7293 -0.4034  0.2870
  111MOL0     C14540   6.464   8.110   5.989  0.0894 -0.9278  0.0637
  111MOL0     C14541   6.492   7.969   6.025  0.0800  0.0380  0.0214
  111MOL0     C14542   6.635   7.954   6.076 -0.0404  0.7410  0.5922
  111MOL0     C14543   6.699   8.064   6.154 -0.2952 -0.9283 -0.1878
  111MOL0     O14544   6.725   8.191   6.077  0.1477  0.2110 -0.2692
  111MOL0     C14545   6.798   8.288   6.143 -0.2717  0.4842 -0.0662
  111MOL0     C14546   6.842   8.280   6.277  0.6137 -0.1449 -0.7617
  111MOL0     C14547   6.937   8.376   6.332 -0.6526 -0.3844 -0.1911
  111MOL0     C14548   6.972   8.483   6.249 -0.4105 -0.1165 -0.5308
  111MOL0     C14549   7.071   8.583   6.285  0.0058  0.3976  0.3360
  111MOL0     O14550   7.141   8.551   6.396  0.4005 -0.4922  0.4341
  111MOL0     C14551   7.233   8.645   6.449  0.7046  0.2668 -0.4011
  111MOL0     C14552   7.198   8.776   6.466 -0.2519  0.3341  0.5015
  111MOL0     C14553   7.302   8.872   6.500  0.1944  0.8113  0.8978
  111MOL0     C14554   7.431   8.829   6.533  0.2804 -0.6463  0.8397
  111MOL0     O14555   7.519   8.932   6.551  0.5738 -0.4601  0.1586
  111MOL0     C14556   7.659   8.912   6.512  0.5364  0.0270 -0.2361
  111MOL0     C14557   7.731   9.029   6.448  0.1443 -0.3512 -0.5310
  111MOL0     C14558   7.744   9.152   6.534  0.2012 -0.3380 -0.8921
  111MOL0     C14559   7.854   9.250   6.493 -0.3587 -0.3202  0.0184
  111MOL0     C14560   7.857   9.378   6.574  0.5165 -0.1112 -0.4854
  111MOL0     C14561   7.893   9.359   6.725  0.4887  0.0150  0.8673
  111MOL0     C14562   7.900   9.493   6.800 -0.1811  0.1310 -0.1512
  111MOL0     C14563   7.915   9.481   6.949 -0.4128  0.2927  0.2626
  111MOL0    Cl14564   7.849   9.333   7.021 -0.1656 -0.2774  0.3308
  111MOL0     C14565   7.462   8.694   6.525 -0.8711 -1.5960  0.8394
  111MOL0     C14566   7.366   8.609   6.481  0.7282  0.2816 -0.1133
  111MOL0     O14567   7.099   8.676   6.208 -0.2300 -0.2227 -0.3607
  111MOL0     C14568   6.915   8.495   6.123 -0.0198  0.5096  0.0390
  111MOL0     C14569   6.834   8.396   6.066  0.4443  0.5429  0.2278
  111MOL0     N14570   6.333   8.055   5.785 -0.1438 -0.7266  0.3686
  111MOL0     N14571   6.215   8.091   5.731  0.3208 -0.0189 -1.2081
  111MOL0     C14572   6.444   8.282   6.520  0.2074 -0.4443  0.7760
  111MOL0     C14573   6.546   8.363   6.568 -0.2205  0.7064 -0.1312
  111MOL0     C14574   6.817   8.710   6.619 -0.0882  0.2795  0.9779
  111MOL0     C14575   6.815   8.850   6.636 -0.1687  0.5355  0.3724
  111MOL0     C14576   6.908   8.912   6.721 -0.0780  0.4862 -0.6966
  111MOL0     C14577   7.004   8.843   6.784 -0.7901 -1.0568  0.0128
  111MOL0     O14578   7.092   8.900   6.878 -0.7469 -0.4169  0.0836
  111MOL0     C14579   7.232   8.930   6.831  0.0533 -0.2207 -0.9237
  111MOL0     C14580   7.327   8.960   6.945 -0.4333  0.5190  0.1948
  111MOL0     C14581   7.476   8.962   6.892 -0.2158  0.0152  0.0046
  111MOL0     C14582   7.575   9.019   6.997  0.7704 -0.6100 -0.1723
  111MOL0     C14583   7.562   8.949   7.127 -0.0757  0.4949 -0.6102
  111MOL0     C14584   7.546   8.903   7.240  1.0151 -0.0836 -0.1259
  111MOL0     C14585   7.014   8.706   6.767 -1.5478 -0.3047  0.0026
  111MOL0     C14586   6.922   8.644   6.682  0.9119  0.8749 -0.4899
  111MOL0     H14587   6.657   8.491   6.277  0.3583  0.0938  1.9494
  111MOL0     H14588   6.486   8.343   6.191 -3.7152 -0.0452  0.5927
  111MOL0     H14589   6.215   8.106   6.465 -0.1534  2.4199 -0.6780
  111MOL0     H14590   6.365   8.024   6.410  0.2703  0.2271 -2.5942
  111MOL0     H14591   6.177   7.900   6.337 -1.2968  1.4331  1.3387
  111MOL0     H14592   6.245   7.960   6.189 -0.0629 -3.0845  0.2572
  111MOL0     H14593   6.072   8.160   6.210 -0.5398 -0.0005 -0.7220
  111MOL0     H14594   5.982   8.033   6.293  0.0911 -1.7923 -0.7687
  111MOL0     H14595   6.100   7.993   6.006  1.4896 -0.5667  1.4459
  111MOL0     H14596   6.016   7.873   6.098 -3.5837 -0.8683 -2.1389
  111MOL0     H14597   5.827   8.029   6.140 -1.6836 -0.1995 -1.4799
  111MOL0     H14598   5.850   7.954   5.979 -0.4736  1.2920 -0.7828
  111MOL0     H14599   5.947   8.233   6.030 -0.1278  0.4585  0.4650
  111MOL0     H14600   5.768   8.197   5.995 -0.5860 -0.5916 -3.4901
  111MOL0     H14601   5.921   8.056   5.802 -1.1871 -1.0360 -0.1235
  111MOL0     H14602   5.815   8.194   5.778  0.0131  0.3575 -0.3179
  111MOL0     H14603   6.030   8.339   5.865  1.6848 -1.4720  1.8339
  111MOL0     H14604   6.023   8.300   5.694 -0.3832  0.2502  0.1727
  111MOL0     H14605   6.219   8.267   6.009  0.1147  0.4526  0.0080
  111MOL0     H14606   6.464   8.176   6.076  1.6767  0.4345 -0.9020
  111MOL0     H14607   6.551   8.145   5.933 -0.1016 -1.9077 -0.8775
  111MOL0     H14608   6.490   7.906   5.936  0.2334  0.0408  0.0143
  111MOL0     H14609   6.410   7.935   6.088 -1.1367  0.5679 -1.2237
  111MOL0     H14610   6.637   7.866   6.141 -0.6559  2.1314  2.5756
  111MOL0     H14611   6.700   7.923   5.993 -0.0229  0.0083  0.8739
  111MOL0     H14612   6.791   8.024   6.198 -0.7519 -2.3568 -0.5005
  111MOL0     H14613   6.639   8.079   6.245 -1.0266 -1.6190 -0.5476
  111MOL0     H14614   6.802   8.197   6.334  1.8694  1.1444  2.2050
  111MOL0     H14615   6.958   8.364   6.438  0.0895 -1.2550 -0.4268
  111MOL0     H14616   7.095   8.809   6.449 -0.3048  0.8716  1.7511
  111MOL0     H14617   7.267   8.974   6.490  0.3998  0.6519 -3.1610
  111MOL0     H14618   7.672   8.828   6.443 -2.7986 -0.0459 -0.9384
  111MOL0     H14619   7.714   8.893   6.604 -0.8570 -0.0208  0.6056
  111MOL0     H14620   7.688   9.050   6.350 -1.2481  1.0740  0.3484
  111MOL0     H14621   7.833   8.997   6.423  0.5622  0.9042 -0.4622
  111MOL0     H14622   7.764   9.127   6.639  0.9884 -2.1251 -1.4225
  111MOL0     H14623   7.647   9.202   6.537  0.6157  0.5072  2.2330
  111MOL0     H14624   7.950   9.198   6.506 -1.3955 -1.5841  4.1220
  111MOL0     H14625   7.833   9.279   6.390 -1.4244  1.6810  0.7460
  111MOL0     H14626   7.775   9.450   6.568  1.0797  0.4469 -2.8118
  111MOL0     H14627   7.941   9.431   6.528 -1.3929  1.4442 -2.3743
  111MOL0     H14628   7.997   9.330   6.738  1.2363  2.7942  1.8031
  111MOL0     H14629   7.827   9.293   6.781  0.5526  1.5040  2.8053
  111MOL0     H14630   7.977   9.556   6.755 -0.1895  1.2779  1.3345
  111MOL0     H14631   7.804   9.537   6.772 -1.2478 -1.8455  0.2486
  111MOL0     H14632   7.871   9.565   7.003  0.4516  0.4113  0.7899
  111MOL0     H14633   8.018   9.482   6.983 -0.6472 -4.8787  2.0494
  111MOL0     H14634   7.564   8.659   6.543 -1.3879 -1.3565  4.9402
  111MOL0     H14635   7.384   8.503   6.463 -0.0516  0.2207 -0.5410
  111MOL0     H14636   6.935   8.587   6.069 -0.7400  0.2552 -0.6678
  111MOL0     H14637   6.789   8.391   5.968  0.2111 -2.0746  0.3860
  111MOL0     H14638   6.387   8.220   6.589  0.4460 -1.2377  0.2703
  111MOL0     H14639   6.575   8.358   6.672  0.2849  0.0485 -0.2986
  111MOL0     H14640   6.745   8.914   6.583  2.3188  2.7221 -0.4944
  111MOL0     H14641   6.913   9.021   6.721  4.1920  0.4667  0.9221
  111MOL0     H14642   7.231   9.022   6.772  4.8551  2.3344  2.3519
  111MOL0     H14643   7.282   8.848   6.778  0.5918 -1.5422  1.4982
  111MOL0     H14644   7.307   9.059   6.987  0.0691  1.0590 -0.7930
  111MOL0     H14645   7.335   8.886   7.025  3.4530  1.4889  0.9457
  111MOL0     H14646   7.477   9.021   6.801 -0.3571 -0.3196 -0.2163
  111MOL0     H14647   7.509   8.860   6.869  2.6859  0.5146  1.4523
  111MOL0     H14648   7.679   9.008   6.963  1.2074 -0.1114  0.9585
  111MOL0     H14649   7.552   9.125   7.007  1.0923 -0.6605  1.2805
  111MOL0     H14650   7.541   8.848   7.332  2.6164  0.8829  0.5840
  111MOL0     H14651   7.079   8.650   6.833 -1.1985  1.1116  0.8866
  111MOL0     H14652   6.925   8.535   6.678  0.2692  0.5139  3.7013
  112MOL0     O14653   8.411   5.454   1.541  0.0646  0.0547 -0.7425
  112MOL0     C14654   8.510   5.425   1.612 -0.8101  0.0467 -0.7564
  112MOL0     O14655   8.534   5.322   1.692  0.7220  0.1697 -0.1007
  112MOL0     C14656   8.445   5.214   1.713  0.1562  1.0853  0.0228
  112MOL0     C14657   8.502   5.099   1.767  0.7419  0.8383 -1.4862
  112MOL0     C14658   8.414   4.984   1.790  0.1033 -0.2789 -0.3043
  112MOL0     C14659   8.278   4.992   1.769 -0.2182  0.1958  0.0598
  112MOL0     O14660   8.208   4.884   1.821 -0.0424 -0.0603  1.0782
  112MOL0     C14661   8.065   4.862   1.794 -0.8921  1.3041  0.0249
  112MOL0     C14662   8.000   4.746   1.864  0.1398 -0.1746 -0.3537
  112MOL0     C14663   7.895   4.674   1.781 -0.2064 -0.3485  0.0862
  112MOL0     C14664   7.814   4.572   1.860  0.0976 -0.2043 -0.2642
  112MOL0     C14665   7.695   4.510   1.785 -0.6462  0.2052  0.1131
  112MOL0     C14666   7.614   4.415   1.878 -0.1575  0.0131  0.3815
  112MOL0     C14667   7.537   4.315   1.791  0.6444  0.4990 -0.7410
  112MOL0     C14668   7.426   4.231   1.871  0.8660 -0.1636  0.6301
  112MOL0     N14669   7.351   4.321   1.960 -0.6484 -0.1116  0.3528
  112MOL0     C14670   7.385   4.334   2.093 -0.0072  1.0275  0.1986
  112MOL0     C14671   7.288   4.400   2.152  0.9139 -0.3757 -0.1839
  112MOL0     C14672   7.259   4.438   2.297  0.5734 -0.0199 -1.0702
  112MOL0     C14673   7.354   4.550   2.346  0.5370  0.8478  0.0862
  112MOL0     C14674   7.351   4.678   2.263 -0.5383  0.9360 -0.2389
  112MOL0     C14675   7.211   4.727   2.223 -0.1355 -0.3546 -0.3144
  112MOL0     O14676   7.133   4.790   2.335  0.0637 -0.2533  0.2539
  112MOL0     C14677   7.004   4.828   2.307  0.8103  0.5687 -0.1229
  112MOL0     C14678   6.959   4.945   2.245  0.7815  0.4557  0.9196
  112MOL0     C14679   6.822   4.967   2.206 -0.0230  0.2872  0.1796
  112MOL0     C14680   6.723   4.876   2.250 -0.5047  0.2329 -0.1392
  112MOL0     C14681   6.574   4.899   2.228  1.0268  0.1263 -0.7497
  112MOL0     O14682   6.482   4.790   2.250 -0.0521 -0.1874  0.6959
  112MOL0     C14683   6.347   4.804   2.227  0.1139  0.8963 -0.1884
  112MOL0     C14684   6.296   4.842   2.102  0.1953 -0.2046  0.9414
  112MOL0     C14685   6.156   4.855   2.081  0.5215  0.1660 -0.1249
  112MOL0     C14686   6.067   4.835   2.186 -0.1130  0.3416  0.1885
  112MOL0     O14687   5.935   4.861   2.184  0.0910  0.0867 -0.7659
  112MOL0     C14688   5.864   4.785   2.085 -0.8757 -0.0543  0.2303
  112MOL0     C14689   5.817   4.883   1.981 -0.5293  0.3470 -0.0049
  112MOL0     C14690   5.745   4.818   1.864  0.4129 -0.4248 -0.2098
  112MOL0     C14691   5.652   4.923   1.796  0.2231 -0.6459 -0.2757
  112MOL0     C14692   5.574   4.862   1.676 -0.5498 -0.1287 -0.2718
  112MOL0     C14693   5.468   4.963   1.625 -0.1178 -0.5538  0.4200
  112MOL0     C14694   5.467   4.986   1.470  0.6264 -0.2498 -0.0124
  112MOL0     C14695   5.571   5.107   1.433  1.0311  0.4616 -0.5608
  112MOL0    Cl14696   5.484   5.264   1.481 -0.0159 -0.2578 -0.0678
  112MOL0     C14697   6.117   4.783   2.312 -0.3229  0.4334 -0.6830
  112MOL0     C14698   6.256   4.763   2.328 -0.5145  0.3145 -0.0136
  112MOL0     O14699   6.531   5.011   2.197  0.4445 -0.7398  0.4264
  112MOL0     C14700   6.768   4.754   2.310  1.1738  0.3286  0.0323
  112MOL0     C14701   6.906   4.736   2.340  0.8474 -0.0239  0.3916
  112MOL0     N14702   7.194   4.438   2.048 -0.3053 -0.3875  0.4541
  112MOL0     N14703   7.231   4.380   1.940 -0.6840  0.0359  0.6962
  112MOL0     C14704   8.225   5.108   1.713  0.4731 -0.6440  0.2169
  112MOL0     C14705   8.308   5.214   1.689  0.5597 -0.0944 -1.0749
  112MOL0     C14706   8.629   5.517   1.618  0.6159 -0.4382  1.1719
  112MOL0     C14707   8.751   5.488   1.670  0.0168  0.3766  0.7798
  112MOL0     C14708   8.852   5.578   1.663 -0.1352 -0.4317 -0.7619
  112MOL0     C14709   8.831   5.707   1.622 -0.0406 -0.5870 -0.2134
  112MOL0     O14710   8.927   5.803   1.636  0.5732 -0.1273  1.2373
  112MOL0     C14711   9.062   5.764   1.642  0.0925 -0.4417 -0.6892
  112MOL0     C14712   9.158   5.871   1.613  0.0392 -0.6388 -0.1930
  112MOL0     C14713   9.197   5.961   1.723 -0.6599 -0.4049  0.9080
  112MOL0     C14714   9.280   6.080   1.671 -0.0450  0.8365  0.0787
  112MOL0     C14715   9.419   6.035   1.663 -0.5346  0.2544  0.0427
  112MOL0     C14716   9.536   6.000   1.637  0.9609  0.6362  0.0270
  112MOL0     C14717   8.706   5.743   1.575  0.8108 -0.4886  0.7090
  112MOL0     C14718   8.609   5.650   1.567  0.9562 -0.9026  0.0348
  112MOL0     H14719   8.603   5.117   1.804  0.0159  1.0273  0.5688
  112MOL0     H14720   8.449   4.900   1.851 -0.4102 -1.2295 -1.2901
  112MOL0     H14721   8.063   4.828   1.690 -1.7890  0.1760  0.3938
  112MOL0     H14722   8.008   4.953   1.813 -3.7694 -0.6695  1.4724
  112MOL0     H14723   7.963   4.775   1.962  3.9061  2.3298  0.5383
  112MOL0     H14724   8.084   4.680   1.892 -0.7221 -0.9985  0.3569
  112MOL0     H14725   7.950   4.637   1.694  1.3286  0.6980  0.5707
  112MOL0     H14726   7.834   4.751   1.731  1.8333 -1.0850 -3.9360
  112MOL0     H14727   7.884   4.491   1.880  0.8406  0.6122  0.4941
  112MOL0     H14728   7.772   4.623   1.947  1.8860  0.7657  0.0697
  112MOL0     H14729   7.728   4.441   1.707 -2.1188  0.8989 -1.1647
  112MOL0     H14730   7.649   4.587   1.723  1.5078  1.9947  0.6193
  112MOL0     H14731   7.551   4.472   1.947 -0.3149 -1.6793  1.7078
  112MOL0     H14732   7.685   4.360   1.941 -0.6774 -0.4904  0.5475
  112MOL0     H14733   7.488   4.364   1.707 -1.0117 -0.5659 -0.4269
  112MOL0     H14734   7.610   4.244   1.750  1.2605  2.2504 -2.9250
  112MOL0     H14735   7.478   4.156   1.932  3.1252  0.5805 -0.2621
  112MOL0     H14736   7.358   4.182   1.800 -0.3888  2.2844  0.0296
  112MOL0     H14737   7.463   4.291   2.154 -0.7661 -1.3798 -0.4230
  112MOL0     H14738   7.273   4.357   2.369 -1.4694 -1.3254 -2.0627
  112MOL0     H14739   7.158   4.472   2.321  1.2582  2.3816 -1.2862
  112MOL0     H14740   7.457   4.514   2.346  0.5200  0.3116 -3.7829
  112MOL0     H14741   7.332   4.567   2.452 -0.6146 -1.3122  0.2509
  112MOL0     H14742   7.407   4.758   2.311  0.1713 -0.4627  1.3621
  112MOL0     H14743   7.397   4.661   2.166 -2.6939 -0.6509 -1.0586
  112MOL0     H14744   7.151   4.645   2.181  0.7998 -0.9674 -0.4765
  112MOL0     H14745   7.209   4.798   2.140 -5.1154 -0.0451 -0.2247
  112MOL0     H14746   7.034   5.015   2.211  2.3124 -1.3777  0.3425
  112MOL0     H14747   6.795   5.060   2.155 -1.5557  0.8300  1.8523
  112MOL0     H14748   6.362   4.864   2.018  0.0548 -0.9414  0.6353
  112MOL0     H14749   6.122   4.906   1.991  1.5984 -0.6715 -1.0185
  112MOL0     H14750   5.777   4.742   2.135 -1.0146 -0.8381 -0.6625
  112MOL0     H14751   5.911   4.696   2.042 -1.6363 -0.0442 -0.6660
  112MOL0     H14752   5.899   4.941   1.937 -2.2956  1.5717 -1.8424
  112MOL0     H14753   5.749   4.954   2.028 -2.0677 -1.9445  1.4830
  112MOL0     H14754   5.687   4.731   1.898  1.8148 -0.6810  1.6545
  112MOL0     H14755   5.816   4.780   1.790  0.5467 -3.3087  1.2596
  112MOL0     H14756   5.584   4.956   1.875  1.0668 -1.1351  0.6825
  112MOL0     H14757   5.713   5.008   1.763  0.8361 -0.8072  0.3950
  112MOL0     H14758   5.534   4.760   1.683  0.9131 -0.9963 -3.0124
  112MOL0     H14759   5.645   4.852   1.593  1.0190 -0.1839  1.0091
  112MOL0     H14760   5.470   5.058   1.678  0.4927  0.6537 -1.6438
  112MOL0     H14761   5.368   4.925   1.647 -2.0693  2.7333 -1.9275
  112MOL0     H14762   5.492   4.897   1.412  0.8810  0.8224 -1.6184
  112MOL0     H14763   5.364   5.014   1.445  0.5233 -1.3276 -0.8681
  112MOL0     H14764   5.586   5.096   1.325 -0.9321 -5.0660 -0.5754
  112MOL0     H14765   5.666   5.103   1.486 -0.0578  1.4823  1.6104
  112MOL0     H14766   6.043   4.769   2.391  0.6801 -1.4325 -0.0101
  112MOL0     H14767   6.286   4.728   2.426 -4.1578  1.6756  1.7383
  112MOL0     H14768   6.689   4.686   2.341 -0.1432  1.8932  0.2482
  112MOL0     H14769   6.943   4.644   2.385  4.5111  1.4802  0.7610
  112MOL0     H14770   8.118   5.116   1.698  0.5177  2.9764  0.9857
  112MOL0     H14771   8.257   5.304   1.654  1.2932  0.3543 -1.0240
  112MOL0     H14772   8.767   5.390   1.715 -2.2139 -1.5828 -2.2925
  112MOL0     H14773   8.942   5.532   1.704 -1.8137 -1.3157  2.2830
  112MOL0     H14774   9.073   5.681   1.572  0.6058 -0.7957 -0.2053
  112MOL0     H14775   9.089   5.719   1.738  0.5128 -0.7478 -0.9454
  112MOL0     H14776   9.249   5.823   1.577  0.6615  0.4318 -0.0740
  112MOL0     H14777   9.108   5.932   1.538  0.3692  0.4027  0.4210
  112MOL0     H14778   9.236   5.901   1.806 -2.1724 -1.7930  0.6790
  112MOL0     H14779   9.100   5.994   1.762 -0.6114 -1.4294  1.9629
  112MOL0     H14780   9.242   6.120   1.576 -0.7355 -1.2156 -0.5940
  112MOL0     H14781   9.282   6.158   1.747  5.7393 -0.7536  2.0385
  112MOL0     H14782   9.629   5.987   1.586  0.2011  1.1867 -1.5787
  112MOL0     H14783   8.676   5.845   1.552 -0.9349 -0.9727  0.7408
  112MOL0     H14784   8.508   5.679   1.538 -0.1491 -0.7144  3.6358
  113MOL0     O14785   9.767   7.239   5.335  0.7376 -0.5633  0.1556
  113MOL0     C14786   9.727   7.344   5.278  0.1471  0.0488 -0.2688
  113MOL0     O14787   9.808   7.441   5.222 -0.1911  0.1499  0.5019
  113MOL0     C14788   9.935   7.400   5.196 -0.1272 -0.6390 -0.1251
  113MOL0     C14789  10.034   7.494   5.220 -0.4518  0.3556  0.0976
  113MOL0     C14790  10.165   7.466   5.176  0.1483  0.3851  0.2363
  113MOL0     C14791  10.189   7.347   5.098 -0.3143  0.5867  0.9331
  113MOL0     O14792  10.318   7.313   5.064 -0.4255 -0.3892 -1.0469
  113MOL0     C14793  10.432   7.386   5.121 -1.0848 -0.3002  0.0125
  113MOL0     C14794  10.568   7.329   5.060 -0.4734  0.6129  0.1084
  113MOL0     C14795  10.610   7.432   4.949  0.3383 -1.2348 -0.0273
  113MOL0     C14796  10.743   7.390   4.877  0.0407  0.4066  0.7603
  113MOL0     C14797  10.786   7.505   4.783  0.2894 -0.1186  0.1156
  113MOL0     C14798  10.922   7.465   4.704  0.1695  0.2327 -0.2529
  113MOL0     C14799  10.995   7.576   4.617 -0.3265 -0.3939 -0.2543
  113MOL0     C14800  11.049   7.692   4.707 -0.8084  0.1705  0.3935
  113MOL0     N14801  11.188   7.725   4.659  0.2127  0.1201  0.2248
  113MOL0     C14802  11.291   7.641   4.702  0.1561 -0.6972 -0.2645
  113MOL0     C14803  11.376   7.647   4.599 -0.2083 -0.3934 -0.1651
  113MOL0     C14804  11.522   7.594   4.594  1.2351 -0.6062  0.0250
  113MOL0     C14805  11.572   7.537   4.726 -0.3667  0.2447 -0.8673
  113MOL0     C14806  11.531   7.393   4.743 -0.1258  0.0863 -0.8951
  113MOL0     C14807  11.640   7.307   4.797 -1.0031 -0.0456  0.1604
  113MOL0     O14808  11.590   7.239   4.913  0.9047  0.0750  0.5888
  113MOL0     C14809  11.532   7.109   4.899 -0.1918  0.4465 -0.4981
  113MOL0     C14810  11.520   7.029   5.012  0.3670  0.8734  0.1369
  113MOL0     C14811  11.456   6.903   5.007 -0.8852  0.4199  0.7010
  113MOL0     C14812  11.403   6.865   4.887  0.3021  0.2414 -0.1262
  113MOL0     C14813  11.322   6.735   4.880 -0.2430 -0.1144  0.2900
  113MOL0     O14814  11.323   6.675   4.756  0.1607 -0.3645  0.4857
  113MOL0     C14815  11.232   6.578   4.713  0.4705  0.0139  0.3636
  113MOL0     C14816  11.147   6.498   4.796 -0.1101 -0.5506  0.0349
  113MOL0     C14817  11.070   6.401   4.733  0.1871  0.4979  0.4204
  113MOL0     C14818  11.072   6.385   4.593 -0.0883 -0.2106  0.2655
  113MOL0     O14819  11.021   6.268   4.539  0.2051  0.2957 -0.7726
  113MOL0     C14820  10.883   6.284   4.488 -0.7049 -0.6695 -0.5329
  113MOL0     C14821  10.796   6.169   4.543  0.0909  0.2443  0.3785
  113MOL0     C14822  10.642   6.201   4.522 -0.5537  1.1320  0.5435
  113MOL0     C14823  10.537   6.100   4.580  0.0526  0.1568  0.1218
  113MOL0     C14824  10.401   6.083   4.512  0.2690 -0.6028  0.6676
  113MOL0     C14825  10.321   6.198   4.555 -0.1518  0.9887 -0.2995
  113MOL0     C14826  10.174   6.185   4.494 -0.4313  0.6455  0.3658
  113MOL0     C14827  10.087   6.284   4.569 -0.5452  0.1021 -0.3278
  113MOL0    Cl14828  10.033   6.218   4.737  0.4687  0.1482 -0.1905
  113MOL0     C14829  11.143   6.478   4.514  0.3930  0.1739  0.5051
  113MOL0     C14830  11.220   6.574   4.571  0.0328 -0.0592  0.2257
  113MOL0     O14831  11.266   6.695   4.979 -0.2071 -0.6760 -0.1581
  113MOL0     C14832  11.420   6.938   4.767 -0.7344 -0.4787 -0.0501
  113MOL0     C14833  11.484   7.065   4.773  0.6006 -0.3045 -0.7056
  113MOL0     N14834  11.329   7.730   4.497  0.3312 -0.1218  0.3152
  113MOL0     N14835  11.220   7.785   4.540 -1.2487 -0.3157 -0.3943
  113MOL0     C14836  10.090   7.265   5.051  1.2242  0.7689 -0.2908
  113MOL0     C14837   9.963   7.288   5.114 -0.0145  0.7986 -0.3980
  113MOL0     C14838   9.588   7.389   5.291 -0.3662  0.2054  0.5093
  113MOL0     C14839   9.533   7.502   5.222  0.8844 -0.7606 -0.3763
  113MOL0     C14840   9.393   7.536   5.224  0.7416 -0.9091  1.2626
  113MOL0     C14841   9.304   7.449   5.291 -0.0934 -0.1971 -0.0391
  113MOL0     O14842   9.171   7.487   5.294 -0.1897 -0.2034  0.1332
  113MOL0     C14843   9.071   7.387   5.327  0.3773  0.6645 -0.3642
  113MOL0     C14844   9.057   7.287   5.204 -0.1057 -1.2211 -0.3787
  113MOL0     C14845   9.050   7.144   5.252  0.3009  0.4548  0.1931
  113MOL0     C14846   9.074   7.048   5.133  0.0733 -0.1978  0.8116
  113MOL0     C14847   9.206   7.053   5.074  0.4162  0.1339  0.5038
  113MOL0     C14848   9.309   7.059   5.019 -0.4627 -1.1529  0.0402
  113MOL0     C14849   9.360   7.335   5.355  0.0301 -0.7916  0.3368
  113MOL0     C14850   9.494   7.309   5.356 -0.4791  0.9610  0.1904
  113MOL0     H14851  10.013   7.581   5.280 -0.5466 -0.6481  1.5597
  113MOL0     H14852  10.243   7.538   5.201 -0.4649  1.5345 -1.0086
  113MOL0     H14853  10.433   7.381   5.230 -1.8778  2.2989  0.1960
  113MOL0     H14854  10.428   7.492   5.094  0.7302  0.3573  2.0214
  113MOL0     H14855  10.559   7.223   5.032  2.2906  0.1207  0.7762
  113MOL0     H14856  10.638   7.330   5.144 -0.1636 -0.9805 -0.0837
  113MOL0     H14857  10.627   7.527   5.001 -0.9533 -1.1063  0.2089
  113MOL0     H14858  10.528   7.439   4.876  0.5842  0.3886 -0.1800
  113MOL0     H14859  10.818   7.348   4.945 -1.5006  0.4082  2.5677
  113MOL0     H14860  10.714   7.303   4.818 -0.3505  1.0192  0.0375
  113MOL0     H14861  10.809   7.590   4.848  2.1286  0.2907 -0.9714
  113MOL0     H14862  10.704   7.546   4.725  1.2441  1.7442 -0.0084
  113MOL0     H14863  10.895   7.389   4.630 -0.3575  1.3048 -1.2001
  113MOL0     H14864  10.996   7.417   4.769 -1.3858 -1.0588  0.6323
  113MOL0     H14865  11.083   7.527   4.574  0.8156  0.3331  1.1491
  113MOL0     H14866  10.933   7.607   4.532 -1.5387 -0.2361  0.6725
  113MOL0     H14867  11.053   7.655   4.809  0.2986 -1.0527 -0.0638
  113MOL0     H14868  10.980   7.774   4.684 -2.0635 -0.5347  1.5061
  113MOL0     H14869  11.300   7.600   4.802  3.0757 -1.5675 -0.7825
  113MOL0     H14870  11.581   7.686   4.579 -0.3866  0.6779  1.0998
  113MOL0     H14871  11.538   7.520   4.516  4.2533  0.2372 -0.3055
  113MOL0     H14872  11.537   7.599   4.809  1.4521  0.4079 -0.1959
  113MOL0     H14873  11.680   7.554   4.723 -0.4696  0.8472 -1.4837
  113MOL0     H14874  11.443   7.388   4.807  0.5690  2.6757  0.4046
  113MOL0     H14875  11.491   7.353   4.650  0.0649  1.7248 -1.7285
  113MOL0     H14876  11.723   7.373   4.823  0.9675 -1.8184 -1.3057
  113MOL0     H14877  11.675   7.228   4.730 -0.3861 -1.7491  2.3668
  113MOL0     H14878  11.564   7.056   5.108  1.2694  1.3693 -0.4039
  113MOL0     H14879  11.438   6.841   5.095  0.2031  0.3551  0.8905
  113MOL0     H14880  11.150   6.504   4.904  0.3290  0.3464 -0.0200
  113MOL0     H14881  11.019   6.325   4.791 -0.6014  0.5301 -0.2231
  113MOL0     H14882  10.886   6.287   4.379  3.1998  1.6663 -0.5607
  113MOL0     H14883  10.835   6.375   4.525 -3.0848 -1.8979 -0.4194
  113MOL0     H14884  10.812   6.131   4.645 -2.0129 -3.6142 -0.5205
  113MOL0     H14885  10.817   6.095   4.465  1.1504  3.0692 -2.1921
  113MOL0     H14886  10.632   6.205   4.413 -2.7592  1.7246  0.7196
  113MOL0     H14887  10.614   6.296   4.568 -1.4244  0.6841  0.9489
  113MOL0     H14888  10.575   5.999   4.564  0.6020  0.1937  1.1494
  113MOL0     H14889  10.517   6.128   4.684  4.3531 -2.8758  2.0714
  113MOL0     H14890  10.344   5.992   4.532 -3.9299  1.9179  1.1606
  113MOL0     H14891  10.409   6.099   4.404 -0.8258 -0.2564  0.6323
  113MOL0     H14892  10.366   6.295   4.530 -3.7234  2.3966 -1.9987
  113MOL0     H14893  10.310   6.191   4.664 -2.2486  1.3702 -0.4403
  113MOL0     H14894  10.164   6.217   4.390 -3.6957  0.5855  0.5380
  113MOL0     H14895  10.129   6.087   4.511 -3.6863  1.3005 -3.1671
  113MOL0     H14896   9.998   6.305   4.509 -2.6953 -2.4326  1.7223
  113MOL0     H14897  10.141   6.377   4.588 -0.3091 -0.5476  2.7219
  113MOL0     H14898  11.155   6.471   4.407  1.4608  0.5356  0.5822
  113MOL0     H14899  11.291   6.630   4.512 -0.9755  2.4798  1.2472
  113MOL0     H14900  11.392   6.898   4.670 -1.5698  3.1574 -1.4770
  113MOL0     H14901  11.479   7.127   4.684  0.6639  1.7316  0.6418
  113MOL0     H14902  10.107   7.189   4.976 -2.4754  1.5384 -2.1250
  113MOL0     H14903   9.881   7.218   5.097  0.0268 -0.2701  3.0510
  113MOL0     H14904   9.608   7.561   5.169  0.7604  0.0695  0.3365
  113MOL0     H14905   9.359   7.626   5.173 -0.2311 -0.6880  2.2414
  113MOL0     H14906   8.974   7.429   5.354 -0.9965 -2.6417  0.3802
  113MOL0     H14907   9.098   7.315   5.405  3.1017 -0.3896 -2.1158
  113MOL0     H14908   8.969   7.323   5.149  0.9320  1.2609 -0.5560
  113MOL0     H14909   9.149   7.300   5.147 -1.2424  0.3503 -1.9922
  113MOL0     H14910   8.951   7.126   5.294  1.3079  0.0573  2.5952
  113MOL0     H14911   9.121   7.131   5.335  0.2140  0.8757  0.3356
  113MOL0     H14912   9.063   6.944   5.162 -0.2692 -0.6290 -0.7699
  113MOL0     H14913   8.998   7.070   5.058  0.8287  1.1444  0.4084
  113MOL0     H14914   9.409   7.060   4.981 -0.3688  0.8950  0.2416
  113MOL0     H14915   9.301   7.267   5.416  0.0689  0.9698  2.4427
  113MOL0     H14916   9.534   7.228   5.416  1.3303  2.6386  1.3973
  114MOL0     O14917   8.693  10.237   8.534 -0.0338  0.1718  0.0586
  114MOL0     C14918   8.706  10.115   8.553 -0.0950 -0.7600  0.6509
  114MOL0     O14919   8.601  10.021   8.546  0.1003 -0.0490 -0.6407
  114MOL0     C14920   8.478  10.067   8.505  0.2869  0.9544 -0.6185
  114MOL0     C14921   8.367  10.065   8.595 -0.2133  0.5390 -0.9799
  114MOL0     C14922   8.247  10.114   8.558 -0.3353 -0.4152  0.5111
  114MOL0     C14923   8.226  10.177   8.438  0.9795  1.1837 -0.3296
  114MOL0     O14924   8.099  10.231   8.416  0.2274  0.4392 -0.0181
  114MOL0     C14925   8.091  10.342   8.325 -0.2670 -0.0281 -0.3775
  114MOL0     C14926   7.965  10.421   8.356 -0.3501 -0.2905  0.1980
  114MOL0     C14927   7.842  10.342   8.312 -0.0626  1.0929  0.2378
  114MOL0     C14928   7.717  10.428   8.317 -0.0109 -0.2109  0.0713
  114MOL0     C14929   7.615  10.369   8.218 -0.5112 -0.4629 -1.4688
  114MOL0     C14930   7.485  10.436   8.257  0.6786 -0.5035  0.5062
  114MOL0     C14931   7.385  10.408   8.135 -0.4236  0.7701  0.4510
  114MOL0     C14932   7.261  10.490   8.136  0.4130 -0.1588  0.0424
  114MOL0     N14933   7.294  10.627   8.093 -1.5651  0.1320  0.3327
  114MOL0     C14934   7.330  10.677   7.974  0.0341  0.3738 -0.0125
  114MOL0     C14935   7.363  10.811   8.004 -0.0608  0.3314  0.1337
  114MOL0     C14936   7.422  10.908   7.905 -0.2488  1.4024  0.3731
  114MOL0     C14937   7.318  10.944   7.790 -1.0303 -0.8363 -0.7930
  114MOL0     C14938   7.199  11.037   7.835 -0.6734 -0.2931 -0.6882
  114MOL0     C14939   7.071  10.963   7.836  0.4101  0.1928 -0.0074
  114MOL0     O14940   7.037  10.904   7.708  0.2144  0.1788 -0.3067
  114MOL0     C14941   6.912  10.918   7.651  0.9612 -0.0627 -0.6990
  114MOL0     C14942   6.894  10.874   7.514  0.1317  0.2703  0.1543
  114MOL0     C14943   6.761  10.877   7.458 -0.1722  0.1621  0.6978
  114MOL0     C14944   6.644  10.926   7.530  0.5934 -0.9185 -0.9955
  114MOL0     C14945   6.512  10.916   7.461  0.1519 -0.2452 -0.5119
  114MOL0     O14946   6.522  10.882   7.326 -0.0481  0.2974 -0.1200
  114MOL0     C14947   6.404  10.888   7.257 -0.6278  0.3418  0.7753
  114MOL0     C14948   6.349  10.775   7.192 -0.7549  0.1947 -0.6815
  114MOL0     C14949   6.220  10.781   7.132 -0.3065  0.1421  0.0333
  114MOL0     C14950   6.161  10.906   7.122  0.3221  0.4709  0.8300
  114MOL0     O14951   6.047  10.933   7.046 -0.4409  0.4203 -0.8072
  114MOL0     C14952   5.928  10.860   7.077 -0.5440 -0.7126 -0.2483
  114MOL0     C14953   5.848  10.935   7.187  0.6801 -0.7990  0.0060
  114MOL0     C14954   5.724  10.848   7.207 -0.1727  1.2446 -0.2988
  114MOL0     C14955   5.625  10.917   7.304 -1.0419  0.3855  0.2048
  114MOL0     C14956   5.485  10.867   7.301  0.4284 -0.0400 -0.4234
  114MOL0     C14957   5.471  10.716   7.328 -0.4029  0.0172 -0.1662
  114MOL0     C14958   5.328  10.659   7.336  0.4637 -0.1812  0.3991
  114MOL0     C14959   5.327  10.525   7.402 -0.3791 -0.5654 -0.0176
  114MOL0    Cl14960   5.174  10.447   7.368 -0.0417  0.2703 -0.0744
  114MOL0     C14961   6.228  11.022   7.167  0.5668 -0.6959  0.4815
  114MOL0     C14962   6.350  11.019   7.231 -0.0052  0.7584  0.3470
  114MOL0     O14963   6.416  10.957   7.516 -0.0859 -0.1172  0.5022
  114MOL0     C14964   6.663  10.970   7.663 -1.1170 -1.1628  0.7440
  114MOL0     C14965   6.794  10.962   7.715 -0.3737 -0.1349 -0.1951
  114MOL0     N14966   7.342  10.834   8.136  0.0553 -0.6397 -0.2303
  114MOL0     N14967   7.308  10.721   8.184 -0.0064 -0.7591 -0.2719
  114MOL0     C14968   8.330  10.179   8.343 -0.2681 -0.0210  0.2258
  114MOL0     C14969   8.455  10.126   8.383 -0.3249 -0.4096 -0.5641
  114MOL0     C14970   8.841  10.071   8.584  0.3253  0.3152  0.1305
  114MOL0     C14971   8.958  10.110   8.530 -0.4613 -1.1699  0.2706
  114MOL0     C14972   9.082  10.076   8.586  0.0220 -0.0081  0.7311
  114MOL0     C14973   9.084   9.974   8.687 -0.7862  0.4517 -0.0610
  114MOL0     O14974   9.194   9.905   8.740 -0.0702 -0.4934  0.2024
  114MOL0     C14975   9.318   9.926   8.678  1.3105 -0.5573  0.0216
  114MOL0     C14976   9.373  10.044   8.753 -0.2306  0.1983  0.0023
  114MOL0     C14977   9.509  10.088   8.691  0.1612  0.1010  0.4166
  114MOL0     C14978   9.631  10.010   8.736 -0.1009  0.0801 -0.4970
  114MOL0     C14979   9.746  10.088   8.701 -0.2684 -0.3501 -0.1731
  114MOL0     C14980   9.859  10.125   8.669  0.1282  0.0046  0.2128
  114MOL0     C14981   8.967   9.924   8.731  0.7839 -0.3722  0.1506
  114MOL0     C14982   8.848   9.977   8.686 -0.1555  0.3674 -1.1751
  114MOL0     H14983   8.370  10.025   8.696  0.3963 -0.7891 -1.5031
  114MOL0     H14984   8.169  10.104   8.632 -0.0222  1.0151  1.0621
  114MOL0     H14985   8.081  10.295   8.227 -0.0395  2.0096 -1.4268
  114MOL0     H14986   8.181  10.402   8.340  0.2538 -1.5684  4.7791
  114MOL0     H14987   7.966  10.518   8.305 -1.3869 -0.6078 -0.4607
  114MOL0     H14988   7.954  10.437   8.463 -3.5871  2.2957 -0.3371
  114MOL0     H14989   7.824  10.257   8.379  0.5394 -1.0770 -2.1781
  114MOL0     H14990   7.854  10.303   8.210 -0.7630  2.4316 -0.3897
  114MOL0     H14991   7.677  10.448   8.417  1.1426  1.0511  0.3186
  114MOL0     H14992   7.749  10.529   8.290  0.3028  0.2260  1.9308
  114MOL0     H14993   7.596  10.262   8.233 -5.1606  0.5670  2.9606
  114MOL0     H14994   7.646  10.408   8.120  3.3649  1.1530  0.2089
  114MOL0     H14995   7.494  10.544   8.274 -0.2654 -0.6108  1.8714
  114MOL0     H14996   7.455  10.370   8.339  0.6953 -1.9926 -0.6258
  114MOL0     H14997   7.440  10.422   8.042  0.7752  0.8887  1.1653
  114MOL0     H14998   7.348  10.305   8.131  0.8832  0.1243  2.9746
  114MOL0     H14999   7.213  10.488   8.234  2.5102  1.3489  1.1905
  114MOL0     H15000   7.197  10.441   8.062  1.9375 -0.4217 -1.1612
  114MOL0     H15001   7.344  10.628   7.879  0.0405 -0.7045  0.5354
  114MOL0     H15002   7.514  10.872   7.859  0.5222  2.0722  1.3551
  114MOL0     H15003   7.460  10.999   7.952  0.9986  1.2483 -0.3045
  114MOL0     H15004   7.286  10.852   7.740 -1.8407 -0.3220 -1.2446
  114MOL0     H15005   7.359  11.012   7.714  0.5787 -0.1011  0.6729
  114MOL0     H15006   7.222  11.071   7.937 -2.5223 -1.7358  0.2763
  114MOL0     H15007   7.193  11.127   7.773 -1.0776  1.3399  1.5760
  114MOL0     H15008   6.992  11.036   7.857 -1.0514 -1.6234  1.1190
  114MOL0     H15009   7.058  10.884   7.910 -1.2977 -2.1323 -2.5705
  114MOL0     H15010   6.973  10.841   7.449 -1.1910  0.6592 -1.7318
  114MOL0     H15011   6.754  10.839   7.357  1.2238  1.4746  0.0664
  114MOL0     H15012   6.412  10.687   7.208 -0.9250 -0.0730 -1.4379
  114MOL0     H15013   6.171  10.695   7.088  2.4916  0.7738 -5.0796
  114MOL0     H15014   5.941  10.754   7.100 -0.8397 -0.3840  1.5988
  114MOL0     H15015   5.869  10.858   6.985  0.7965 -3.3533 -1.1322
  114MOL0     H15016   5.830  11.039   7.158 -1.4111 -1.6106 -1.9325
  114MOL0     H15017   5.909  10.939   7.277  2.3350  0.6820 -1.0927
  114MOL0     H15018   5.747  10.752   7.253 -0.7013  1.5288  0.5893
  114MOL0     H15019   5.669  10.831   7.114  0.5146 -1.5422 -0.2574
  114MOL0     H15020   5.664  10.880   7.400 -1.9271 -1.8241 -0.2342
  114MOL0     H15021   5.609  11.025   7.296 -4.2608  0.0131  0.2308
  114MOL0     H15022   5.450  10.881   7.198  2.6438  0.5657 -1.1485
  114MOL0     H15023   5.419  10.921   7.370  1.5047 -0.3605  0.8941
  114MOL0     H15024   5.514  10.699   7.426 -0.1719 -0.1137 -0.2898
  114MOL0     H15025   5.528  10.657   7.255 -0.5232  1.3171 -1.3626
  114MOL0     H15026   5.250  10.728   7.369 -0.7146  0.2897 -3.0099
  114MOL0     H15027   5.307  10.638   7.231  1.5468 -1.4633  0.4132
  114MOL0     H15028   5.343  10.550   7.507 -1.2718  2.5494 -0.5092
  114MOL0     H15029   5.415  10.473   7.364  0.5419  1.4511 -0.7961
  114MOL0     H15030   6.177  11.117   7.153  0.1855 -0.9958 -0.2407
  114MOL0     H15031   6.402  11.105   7.274  1.7975  0.6482 -1.4719
  114MOL0     H15032   6.579  11.000   7.724 -0.6809  0.2139  0.7073
  114MOL0     H15033   6.808  10.984   7.821  0.7704  0.6840 -0.4865
  114MOL0     H15034   8.308  10.221   8.245 -0.8514  1.1109  0.8158
  114MOL0     H15035   8.531  10.133   8.306 -0.3386 -0.4869 -0.5853
  114MOL0     H15036   8.954  10.184   8.451  0.4115 -1.7656 -0.3542
  114MOL0     H15037   9.172  10.121   8.545 -1.0436  0.9918 -0.6005
  114MOL0     H15038   9.311   9.940   8.570 -2.5048  1.8088  0.3927
  114MOL0     H15039   9.380   9.844   8.716  1.2808  0.0536  1.4661
  114MOL0     H15040   9.299  10.125   8.749 -0.1894  0.1834 -2.2667
  114MOL0     H15041   9.386  10.031   8.861  1.9144 -0.1849 -0.2507
  114MOL0     H15042   9.513  10.197   8.702 -1.1466  0.5905 -2.8797
  114MOL0     H15043   9.497  10.074   8.583 -1.3380 -2.0983  0.8118
  114MOL0     H15044   9.639  10.015   8.845  1.8931 -0.0374 -0.6158
  114MOL0     H15045   9.635   9.906   8.701 -1.0038 -0.4570  0.8913
  114MOL0     H15046   9.958  10.156   8.641  0.3075  1.1514  1.9606
  114MOL0     H15047   8.955   9.831   8.786 -1.5766 -0.6752 -0.7736
  114MOL0     H15048   8.761   9.930   8.732 -0.1121  2.3496  1.0807
  115MOL0     O15049   9.276   6.412   9.139  0.2821  0.2369 -0.4782
  115MOL0     C15050   9.215   6.515   9.157 -0.4579 -0.2220 -0.0231
  115MOL0     O15051   9.223   6.634   9.085  0.3063 -0.8477  0.4544
  115MOL0     C15052   9.332   6.657   8.998  0.1690  1.6646 -0.5158
  115MOL0     C15053   9.406   6.765   9.023 -0.1313 -0.4074 -1.2641
  115MOL0     C15054   9.517   6.788   8.944 -0.0701 -1.3303  0.2254
  115MOL0     C15055   9.555   6.699   8.844 -0.0045  0.6781 -0.2504
  115MOL0     O15056   9.675   6.737   8.785  0.9274  0.0657 -0.3651
  115MOL0     C15057   9.700   6.704   8.646  0.0714 -0.3070  0.4387
  115MOL0     C15058   9.854   6.710   8.652  0.5275  0.0528 -0.5615
  115MOL0     C15059   9.912   6.737   8.512  0.3666 -0.2664 -0.5667
  115MOL0     C15060  10.060   6.785   8.523  0.0238  0.3756 -0.1170
  115MOL0     C15061  10.127   6.868   8.426  0.3696  0.9949 -0.4850
  115MOL0     C15062  10.019   6.963   8.354 -0.2269  0.6447 -0.1798
  115MOL0     C15063   9.956   7.070   8.439  0.5740 -0.9938  0.0661
  115MOL0     C15064   9.844   7.149   8.362 -0.0258  0.7616 -0.0582
  115MOL0     N15065   9.710   7.092   8.396 -0.2643  0.9167  0.7206
  115MOL0     C15066   9.631   7.116   8.507  0.1701  0.3897  0.5035
  115MOL0     C15067   9.514   7.043   8.489 -0.4559  0.1698 -0.0163
  115MOL0     C15068   9.381   7.073   8.559 -1.1101 -0.7356 -0.1800
  115MOL0     C15069   9.352   6.963   8.668  0.5734 -0.6059  0.8633
  115MOL0     C15070   9.206   6.981   8.705 -0.0027  0.1193 -0.3151
  115MOL0     C15071   9.149   6.848   8.761 -0.2027  0.3144 -0.1997
  115MOL0     O15072   9.006   6.839   8.740 -0.3571  0.1679 -0.2050
  115MOL0     C15073   8.918   6.872   8.840  0.4237 -0.4574  0.0710
  115MOL0     C15074   8.903   6.999   8.905 -0.5048  0.4392  0.2372
  115MOL0     C15075   8.799   7.026   8.994 -0.2674  1.0771 -1.1675
  115MOL0     C15076   8.710   6.927   9.038 -0.4269  0.4649  0.3008
  115MOL0     C15077   8.608   6.956   9.142 -0.1195  0.9486 -0.6343
  115MOL0     O15078   8.538   6.842   9.191 -0.2031 -0.7089  0.2462
  115MOL0     C15079   8.442   6.864   9.281  0.8411 -0.5772 -0.7539
  115MOL0     C15080   8.326   6.789   9.257 -1.2186 -0.1093  0.2179
  115MOL0     C15081   8.219   6.809   9.333  0.1393  0.1740  0.1255
  115MOL0     C15082   8.213   6.914   9.431 -0.1967 -0.2907  0.6281
  115MOL0     O15083   8.111   6.952   9.514 -0.6787 -1.4149  0.4615
  115MOL0     C15084   7.995   6.867   9.521 -0.1557 -0.0649  1.2613
  115MOL0     C15085   7.912   6.909   9.637 -0.8740 -0.7577 -0.5234
  115MOL0     C15086   7.776   6.835   9.630 -0.5089 -0.2632  0.2312
  115MOL0     C15087   7.682   6.877   9.750  0.5292  0.1743  0.0489
  115MOL0     C15088   7.552   6.810   9.733 -0.5471 -0.5383 -0.0223
  115MOL0     C15089   7.572   6.662   9.772  0.4867 -0.7890 -0.0654
  115MOL0     C15090   7.432   6.602   9.794  0.0205 -0.5114  0.1058
  115MOL0     C15091   7.411   6.470   9.717  0.6368  0.8692  0.1365
  115MOL0    Cl15092   7.468   6.478   9.543 -0.3911  0.0150 -0.1832
  115MOL0     C15093   8.337   6.982   9.463 -1.1947  0.0360  0.1998
  115MOL0     C15094   8.452   6.946   9.393 -0.1891  0.0734  0.1918
  115MOL0     O15095   8.582   7.073   9.172 -0.5162 -0.1027  0.3218
  115MOL0     C15096   8.723   6.797   8.979  1.3832 -0.1214  0.3272
  115MOL0     C15097   8.826   6.776   8.879 -0.8491 -0.8064  0.0917
  115MOL0     N15098   9.539   6.981   8.373  0.2890 -0.3544  0.4154
  115MOL0     N15099   9.646   7.001   8.320 -0.5986  0.1831  0.2646
  115MOL0     C15100   9.475   6.589   8.818 -0.7444 -0.2556  0.5649
  115MOL0     C15101   9.364   6.568   8.892  0.1383  0.1409 -0.3804
  115MOL0     C15102   9.106   6.509   9.255  0.0967  0.9332  0.6372
  115MOL0     C15103   9.100   6.408   9.351 -0.3677 -0.4239 -0.0912
  115MOL0     C15104   8.999   6.399   9.436  0.0015 -0.3249 -0.2838
  115MOL0     C15105   8.894   6.489   9.423 -0.3388 -0.7212  0.1921
  115MOL0     O15106   8.791   6.479   9.516 -0.8348  1.0883  0.0349
  115MOL0     C15107   8.694   6.583   9.502 -0.0164 -0.3075 -0.1993
  115MOL0     C15108   8.572   6.534   9.574  0.5773 -0.2007 -0.6530
  115MOL0     C15109   8.448   6.627   9.569  0.1423  0.0916 -0.0571
  115MOL0     C15110   8.322   6.573   9.633  1.0380  0.2342  0.4793
  115MOL0     C15111   8.278   6.445   9.585 -0.4349 -0.5795 -0.6593
  115MOL0     C15112   8.249   6.343   9.525 -0.1055  0.4419 -0.0936
  115MOL0     C15113   8.901   6.593   9.328 -0.4473  0.0259 -0.2341
  115MOL0     C15114   9.012   6.604   9.244 -0.1505  0.6488 -0.0482
  115MOL0     H15115   9.363   6.826   9.102  2.1566  0.3419 -0.5066
  115MOL0     H15116   9.564   6.885   8.952 -0.7881 -0.6490 -2.6836
  115MOL0     H15117   9.669   6.788   8.583  0.8347 -2.1520 -2.6073
  115MOL0     H15118   9.672   6.606   8.606  1.0332  0.7502 -3.1346
  115MOL0     H15119   9.887   6.616   8.699 -0.8701 -0.4091 -0.4723
  115MOL0     H15120   9.885   6.794   8.714  1.4681 -1.2314  0.8103
  115MOL0     H15121   9.849   6.814   8.467 -1.3438 -0.8612  0.7229
  115MOL0     H15122   9.908   6.637   8.468 -1.5128 -1.2506  1.6610
  115MOL0     H15123  10.061   6.840   8.617  1.5434  4.4933 -2.3110
  115MOL0     H15124  10.123   6.697   8.542 -2.0625 -1.4902 -1.3132
  115MOL0     H15125  10.184   6.808   8.355 -1.1488 -1.7051  0.4211
  115MOL0     H15126  10.201   6.924   8.483  0.6993 -1.9689  2.3037
  115MOL0     H15127   9.947   6.899   8.302 -2.3651  0.3980  2.8546
  115MOL0     H15128  10.071   7.017   8.274 -0.4099  0.0101 -0.7375
  115MOL0     H15129   9.908   7.035   8.531 -3.3086  1.3494 -0.8428
  115MOL0     H15130  10.038   7.137   8.469  0.9636 -2.2213  1.9056
  115MOL0     H15131   9.868   7.142   8.256  2.1289  1.8427  0.3107
  115MOL0     H15132   9.853   7.255   8.389  1.8029  1.8030 -4.0727
  115MOL0     H15133   9.648   7.182   8.592 -0.7515 -1.0391  1.8446
  115MOL0     H15134   9.313   7.074   8.473  0.1383  0.4405 -1.2174
  115MOL0     H15135   9.394   7.170   8.608  0.1455 -1.4265  0.9376
  115MOL0     H15136   9.411   6.979   8.758  1.1047  0.7936  0.2892
  115MOL0     H15137   9.367   6.867   8.617 -0.3623 -0.3284  0.0442
  115MOL0     H15138   9.189   7.062   8.777  2.7411  1.4714 -1.0550
  115MOL0     H15139   9.150   7.013   8.616  0.8803  0.5270 -0.7298
  115MOL0     H15140   9.177   6.847   8.866  0.7297  2.2628 -0.3895
  115MOL0     H15141   9.207   6.772   8.707  2.9556  0.6825  2.3551
  115MOL0     H15142   8.974   7.071   8.866 -1.6838  0.1641 -2.6358
  115MOL0     H15143   8.805   7.128   9.031  1.8235  0.7249 -0.3913
  115MOL0     H15144   8.332   6.732   9.165  2.3817  3.8128 -2.3980
  115MOL0     H15145   8.124   6.771   9.297  0.1387 -0.5605  0.8783
  115MOL0     H15146   8.034   6.765   9.522  4.4038  1.4410 -0.0595
  115MOL0     H15147   7.939   6.885   9.429  2.6356  0.0068 -0.5315
  115MOL0     H15148   7.904   7.018   9.638 -1.6841 -0.7526 -2.4776
  115MOL0     H15149   7.965   6.889   9.731 -2.8776  1.0309  1.0732
  115MOL0     H15150   7.795   6.727   9.623  1.2402 -0.0113  0.6238
  115MOL0     H15151   7.737   6.872   9.535  1.5920 -0.2985 -0.7024
  115MOL0     H15152   7.724   6.859   9.850  0.1587 -2.0600 -0.1384
  115MOL0     H15153   7.668   6.985   9.746  1.0797  0.4588  3.0757
  115MOL0     H15154   7.505   6.840   9.639 -0.6988  2.6659  0.9306
  115MOL0     H15155   7.482   6.850   9.807 -1.7803 -0.7440 -1.0366
  115MOL0     H15156   7.610   6.667   9.874  2.4246  0.9410 -0.8125
  115MOL0     H15157   7.631   6.600   9.703 -0.1562 -0.2049 -1.1770
  115MOL0     H15158   7.412   6.582   9.900 -3.6686 -0.5363 -0.4563
  115MOL0     H15159   7.351   6.670   9.766  0.1302  0.9371  2.9875
  115MOL0     H15160   7.304   6.447   9.715  1.1828 -2.1081  0.2760
  115MOL0     H15161   7.455   6.384   9.768 -0.8341 -0.6458 -1.0261
  115MOL0     H15162   8.334   7.063   9.534  0.2423 -1.0696  1.6176
  115MOL0     H15163   8.532   7.007   9.433 -1.7979  2.0081  0.6077
  115MOL0     H15164   8.659   6.714   9.009  2.3101 -0.1158  2.5070
  115MOL0     H15165   8.841   6.683   8.826  4.0627  1.0077 -2.3212
  115MOL0     H15166   9.503   6.518   8.741 -1.7855  2.4255 -2.5189
  115MOL0     H15167   9.305   6.480   8.866 -2.1312  1.7561 -1.0447
  115MOL0     H15168   9.186   6.342   9.348  1.2893  1.6089 -0.6334
  115MOL0     H15169   9.000   6.322   9.512 -0.5983 -1.7853 -1.7096
  115MOL0     H15170   8.658   6.608   9.401  1.3201  0.4030 -0.5239
  115MOL0     H15171   8.732   6.680   9.536  2.1632 -0.8140 -1.0500
  115MOL0     H15172   8.545   6.450   9.508  1.5390 -2.0270  1.1794
  115MOL0     H15173   8.600   6.495   9.672  3.6811 -1.0298 -1.7706
  115MOL0     H15174   8.421   6.639   9.464 -0.1406 -2.0364 -0.2750
  115MOL0     H15175   8.477   6.726   9.607 -1.7057  0.3694  0.7257
  115MOL0     H15176   8.347   6.562   9.739 -0.0038 -0.1071  0.7042
  115MOL0     H15177   8.236   6.639   9.616 -0.1560 -1.1175  1.0308
  115MOL0     H15178   8.206   6.257   9.478  2.0757 -0.4626 -0.5141
  115MOL0     H15179   8.825   6.669   9.307 -0.8375 -0.7292 -1.7037
  115MOL0     H15180   9.017   6.691   9.179  0.7595 -0.3288 -1.3281
  116MOL0     O15181   4.866   7.727   0.505 -0.4840  0.1970 -0.0202
  116MOL0     C15182   4.869   7.760   0.382  0.6794  0.2034 -0.1087
  116MOL0     O15183   4.760   7.803   0.313 -0.0938  0.6728 -0.3944
  116MOL0     C15184   4.650   7.858   0.377  0.1636  0.8448  0.1810
  116MOL0     C15185   4.529   7.846   0.304  1.0572 -0.0469  0.0843
  116MOL0     C15186   4.413   7.910   0.366 -0.0438  0.4978 -0.1949
  116MOL0     C15187   4.415   7.983   0.484  0.8689  0.1208 -0.7760
  116MOL0     O15188   4.306   8.057   0.531  0.5252 -0.2164 -0.6415
  116MOL0     C15189   4.177   7.980   0.509  0.0722 -0.0754 -0.2988
  116MOL0     C15190   4.073   8.040   0.607 -0.3001  0.8263  0.1185
  116MOL0     C15191   3.926   7.994   0.586  0.2468 -0.6085 -0.2195
  116MOL0     C15192   3.862   8.039   0.460  1.0220 -0.3697 -0.6794
  116MOL0     C15193   3.709   8.000   0.458  0.5737 -0.2482  0.1228
  116MOL0     C15194   3.644   8.070   0.347  0.3305  0.1487  0.5022
  116MOL0     C15195   3.509   8.011   0.299 -0.3482 -0.3447 -0.3450
  116MOL0     C15196   3.398   8.010   0.403  0.4643  0.3743  0.2988
  116MOL0     N15197   3.280   7.945   0.352  0.2719 -0.1456 -0.2938
  116MOL0     C15198   3.202   7.995   0.251 -0.9823 -0.7342 -0.2681
  116MOL0     C15199   3.104   7.904   0.236  0.3920 -0.4389  0.8476
  116MOL0     C15200   2.987   7.900   0.139 -0.1496 -0.0533 -0.2113
  116MOL0     C15201   2.855   7.914   0.214 -0.9034  0.2782  0.6054
  116MOL0     C15202   2.794   7.784   0.270  0.3625  0.4608 -0.7167
  116MOL0     C15203   2.700   7.797   0.393 -0.4543  0.4125  0.5411
  116MOL0     O15204   2.589   7.880   0.361 -0.7048  0.2668 -0.0393
  116MOL0     C15205   2.483   7.893   0.450 -0.8965 -0.9924 -0.1303
  116MOL0     C15206   2.410   8.005   0.435 -0.7778 -0.5883  0.8418
  116MOL0     C15207   2.316   8.046   0.527 -0.9009  0.6080 -0.6814
  116MOL0     C15208   2.290   7.967   0.641 -0.0296 -0.4825 -0.3352
  116MOL0     C15209   2.177   8.009   0.734 -0.1639 -0.1146 -0.2011
  116MOL0     O15210   2.091   8.105   0.693  0.9301 -0.4729  0.3279
  116MOL0     C15211   1.967   8.116   0.759  0.2820 -0.4601 -0.2082
  116MOL0     C15212   1.929   8.236   0.816 -0.4920 -0.0852  0.6123
  116MOL0     C15213   1.808   8.245   0.883  0.5064  0.7179 -0.6539
  116MOL0     C15214   1.721   8.135   0.884 -0.5219  0.2119 -0.3499
  116MOL0     O15215   1.595   8.158   0.931 -0.2435  0.8616 -0.5668
  116MOL0     C15216   1.501   8.187   0.824  0.0016 -0.6511  0.4648
  116MOL0     C15217   1.429   8.314   0.858  0.9449 -0.8046  0.1858
  116MOL0     C15218   1.344   8.379   0.751  0.1811  0.2358  0.1381
  116MOL0     C15219   1.325   8.532   0.752  0.1570  0.0619 -0.0570
  116MOL0     C15220   1.200   8.583   0.692 -0.4716 -0.0006  0.1029
  116MOL0     C15221   1.199   8.747   0.687  0.6675  0.9411 -1.2476
  116MOL0     C15222   1.163   8.819   0.826 -0.4287 -0.1821 -0.0292
  116MOL0     C15223   1.121   8.964   0.808  0.0514 -0.5455 -0.5253
  116MOL0    Cl15224   1.162   9.041   0.972  0.2498 -0.1264  0.2154
  116MOL0     C15225   1.757   8.017   0.827 -0.0676  1.1511  0.0400
  116MOL0     C15226   1.879   8.003   0.769 -0.5397  0.2625  0.1925
  116MOL0     O15227   2.176   7.947   0.839  0.0188  0.5963  0.6296
  116MOL0     C15228   2.374   7.862   0.666  0.8491  0.1628 -1.1906
  116MOL0     C15229   2.463   7.824   0.566 -0.8583 -0.0684 -0.6944
  116MOL0     N15230   3.119   7.803   0.327  0.1102  0.3812 -0.4880
  116MOL0     N15231   3.222   7.838   0.404 -0.2136  0.3323  0.1645
  116MOL0     C15232   4.537   7.980   0.551  0.0608 -0.4627 -0.3782
  116MOL0     C15233   4.658   7.933   0.489  0.0937 -0.8040 -0.0371
  116MOL0     C15234   4.992   7.757   0.300 -0.0193  0.3220 -0.0350
  116MOL0     C15235   4.998   7.801   0.165 -0.4094  0.6279 -0.2932
  116MOL0     C15236   5.118   7.806   0.101  1.0985  0.3870 -0.3012
  116MOL0     C15237   5.236   7.771   0.162  0.1517  0.0019  0.3470
  116MOL0     O15238   5.358   7.776   0.104 -0.4140 -0.6076 -0.0441
  116MOL0     C15239   5.357   7.785  -0.040 -1.1087 -0.1163 -0.4920
  116MOL0     C15240   5.492   7.770  -0.094 -0.5459  0.3296  0.0282
  116MOL0     C15241   5.494   7.762  -0.247  0.3824  0.2291  0.1660
  116MOL0     C15242   5.629   7.709  -0.302  0.4571 -0.6398  0.0188
  116MOL0     C15243   5.640   7.691  -0.447 -0.0188 -0.1622 -0.5233
  116MOL0     C15244   5.662   7.684  -0.562  0.5360  0.7793 -0.4197
  116MOL0     C15245   5.231   7.724   0.292 -0.0474  0.4298  0.2896
  116MOL0     C15246   5.117   7.719   0.362  0.4448 -0.2585  0.3970
  116MOL0     H15247   4.510   7.785   0.216 -2.1660  0.8048  0.0602
  116MOL0     H15248   4.328   7.906   0.300  2.2475 -1.0470 -3.2913
  116MOL0     H15249   4.193   7.873   0.527  0.3913 -0.0853 -0.6304
  116MOL0     H15250   4.141   7.985   0.406  3.2893  1.0050 -1.5052
  116MOL0     H15251   4.076   8.149   0.600  1.6239  0.7117 -1.7862
  116MOL0     H15252   4.102   8.014   0.710  0.6340 -1.2068 -0.5910
  116MOL0     H15253   3.870   8.042   0.667 -1.4525  0.6971 -2.0487
  116MOL0     H15254   3.919   7.887   0.605  1.5971 -0.5588  0.6856
  116MOL0     H15255   3.878   8.147   0.448  0.8538 -0.0128  1.7843
  116MOL0     H15256   3.910   7.984   0.379 -0.3884 -3.6441  0.5347
  116MOL0     H15257   3.664   8.019   0.556  3.0765  0.5899  1.1973
  116MOL0     H15258   3.715   7.893   0.436  1.8657 -0.1467 -0.0876
  116MOL0     H15259   3.708   8.080   0.259  1.3841 -1.3068  1.0496
  116MOL0     H15260   3.622   8.174   0.372 -0.3010  0.2792 -0.5772
  116MOL0     H15261   3.471   8.080   0.222 -2.3755 -1.0984 -0.0659
  116MOL0     H15262   3.531   7.914   0.254  0.5002  0.4449 -1.7458
  116MOL0     H15263   3.377   8.106   0.451 -3.7779 -0.1778 -0.0505
  116MOL0     H15264   3.423   7.945   0.488 -1.5795 -0.5329  0.2770
  116MOL0     H15265   3.226   8.076   0.184 -0.0065 -0.1991  0.7056
  116MOL0     H15266   2.985   7.814   0.071  4.1626  2.2152 -3.7906
  116MOL0     H15267   2.990   7.989   0.075  1.8033 -0.2742 -0.5097
  116MOL0     H15268   2.776   7.966   0.160 -2.6399  1.3123  3.8459
  116MOL0     H15269   2.868   7.979   0.302 -3.2634  0.1877  1.0710
  116MOL0     H15270   2.743   7.730   0.189  0.4838  1.5659 -1.5682
  116MOL0     H15271   2.874   7.715   0.298 -0.2936 -0.6483 -1.4953
  116MOL0     H15272   2.761   7.830   0.477  2.9715 -3.0328 -0.3242
  116MOL0     H15273   2.658   7.698   0.411  0.7691  0.1850  2.3950
  116MOL0     H15274   2.431   8.077   0.357 -0.1768 -1.5626  0.0894
  116MOL0     H15275   2.265   8.139   0.504  0.2007  1.3549 -0.2230
  116MOL0     H15276   1.992   8.325   0.811  2.8786 -2.3457 -0.6725
  116MOL0     H15277   1.790   8.344   0.924 -0.4338  0.4344 -0.3505
  116MOL0     H15278   1.422   8.114   0.800 -0.3234  0.2968 -1.5780
  116MOL0     H15279   1.558   8.209   0.733  2.4204  0.8464  2.2353
  116MOL0     H15280   1.512   8.378   0.891 -0.3883 -0.3120  2.9254
  116MOL0     H15281   1.360   8.309   0.943 -0.8031  2.6232 -0.8528
  116MOL0     H15282   1.249   8.328   0.770  0.5779 -1.1085 -1.3337
  116MOL0     H15283   1.381   8.351   0.652 -1.2938  1.8744 -0.9489
  116MOL0     H15284   1.320   8.566   0.856 -0.5943 -0.0549 -0.0490
  116MOL0     H15285   1.415   8.579   0.713  0.4889  0.4912  1.1826
  116MOL0     H15286   1.115   8.551   0.752  1.8693 -1.8667  2.6743
  116MOL0     H15287   1.194   8.550   0.588 -0.7659 -0.6830  0.3341
  116MOL0     H15288   1.116   8.785   0.627 -0.6133  2.2954  1.2326
  116MOL0     H15289   1.290   8.788   0.642  3.3789 -2.8934  0.1956
  116MOL0     H15290   1.077   8.771   0.873  0.1926 -1.6187 -0.3021
  116MOL0     H15291   1.253   8.819   0.887 -1.4627 -1.6411  1.5876
  116MOL0     H15292   1.015   8.969   0.782 -0.7483 -2.4552  1.9977
  116MOL0     H15293   1.185   9.021   0.740 -1.0599  1.4464  0.0204
  116MOL0     H15294   1.697   7.927   0.833  1.7521 -0.1240 -0.0896
  116MOL0     H15295   1.905   7.910   0.718  1.1099  0.3530  0.8207
  116MOL0     H15296   2.360   7.811   0.761 -0.4381  1.9423 -0.3755
  116MOL0     H15297   2.529   7.741   0.591  1.8715  1.7339 -1.5107
  116MOL0     H15298   4.550   8.042   0.639  1.2895 -1.3806  0.1208
  116MOL0     H15299   4.753   7.950   0.540  0.1209 -0.1857 -0.2846
  116MOL0     H15300   4.906   7.836   0.119 -2.2541  0.0838  2.6905
  116MOL0     H15301   5.113   7.848   0.001 -0.6580  1.8396  0.3443
  116MOL0     H15302   5.318   7.880  -0.078 -1.6424 -0.1185  0.0324
  116MOL0     H15303   5.291   7.711  -0.087  0.0803 -0.6521 -1.3593
  116MOL0     H15304   5.560   7.849  -0.062 -2.0372  0.2847  3.8082
  116MOL0     H15305   5.533   7.679  -0.049  1.8479  1.0845 -0.4893
  116MOL0     H15306   5.477   7.860  -0.292 -1.7714  0.4297  1.2434
  116MOL0     H15307   5.418   7.690  -0.278 -0.4440 -0.1835  2.8562
  116MOL0     H15308   5.713   7.778  -0.285 -0.3498  0.3028  0.3206
  116MOL0     H15309   5.656   7.615  -0.254  3.0015 -0.6368 -1.2243
  116MOL0     H15310   5.685   7.695  -0.666  0.9557  0.8595 -0.3188
  116MOL0     H15311   5.321   7.698   0.345  0.6935 -0.2158 -1.2174
  116MOL0     H15312   5.122   7.689   0.466 -0.6147  1.1513  0.8875
  117MOL0     O15313   9.455  10.541   5.906  0.2060  0.2470  0.2941
  117MOL0     C15314   9.458  10.422   5.878 -0.8346  0.2306  0.1631
  117MOL0     O15315   9.355  10.345   5.850  0.2641  0.6235 -0.0143
  117MOL0     C15316   9.234  10.393   5.834  0.9959 -0.1237 -0.0964
  117MOL0     C15317   9.130  10.356   5.925 -0.6178 -1.1815 -0.3877
  117MOL0     C15318   8.999  10.396   5.899 -0.0997  1.2360 -0.1434
  117MOL0     C15319   8.969  10.494   5.802 -0.1528  0.6479 -0.0387
  117MOL0     O15320   8.838  10.527   5.774  0.5133 -0.6682 -0.0329
  117MOL0     C15321   8.725  10.457   5.834 -0.1434 -0.7278 -0.3980
  117MOL0     C15322   8.595  10.530   5.803  0.4291 -0.6138 -0.4678
  117MOL0     C15323   8.601  10.684   5.839 -0.0948  0.8640  0.4328
  117MOL0     C15324   8.471  10.764   5.810 -0.6978  0.8902  0.0459
  117MOL0     C15325   8.487  10.904   5.855  0.7577 -0.0948 -0.6025
  117MOL0     C15326   8.363  10.984   5.802  0.4751  0.5355  0.0220
  117MOL0     C15327   8.385  11.135   5.823 -0.0049 -0.1475  0.0914
  117MOL0     C15328   8.258  11.219   5.807  0.5348 -0.7395  0.1665
  117MOL0     N15329   8.161  11.209   5.917 -0.2907 -0.5802  0.2745
  117MOL0     C15330   8.180  11.191   6.048 -0.9818  0.1229  0.2304
  117MOL0     C15331   8.052  11.183   6.096  0.1764  0.3403 -0.2605
  117MOL0     C15332   8.012  11.132   6.230 -0.1988  0.5068 -0.8124
  117MOL0     C15333   8.055  10.989   6.254  0.4678 -0.2317 -0.0812
  117MOL0     C15334   8.002  10.939   6.383 -0.4908 -0.8584 -0.7944
  117MOL0     C15335   8.051  10.805   6.426  0.3815  0.2427 -0.7230
  117MOL0     O15336   8.018  10.715   6.323  0.6010 -0.1963  0.0537
  117MOL0     C15337   7.881  10.690   6.308  0.2546 -0.8238  0.2027
  117MOL0     C15338   7.819  10.731   6.187  0.1827 -0.7985 -0.4222
  117MOL0     C15339   7.683  10.720   6.165  0.1310 -0.0331 -0.2983
  117MOL0     C15340   7.601  10.658   6.268 -0.0459 -0.6939  0.0657
  117MOL0     C15341   7.458  10.645   6.246  0.5413  0.4385 -0.0700
  117MOL0     O15342   7.412  10.693   6.127 -0.5107 -0.1847 -0.0474
  117MOL0     C15343   7.274  10.703   6.122 -0.4187  0.1595  0.2739
  117MOL0     C15344   7.221  10.817   6.191  0.6274 -0.3263 -0.5866
  117MOL0     C15345   7.085  10.838   6.191  0.6777 -0.2367 -1.2683
  117MOL0     C15346   6.992  10.741   6.139 -0.3912 -0.8326 -0.1854
  117MOL0     O15347   6.853  10.755   6.137 -0.8395  0.2968  0.2275
  117MOL0     C15348   6.807  10.892   6.133  0.7920  0.1730 -0.1067
  117MOL0     C15349   6.659  10.892   6.098  0.2131 -0.1427 -0.3824
  117MOL0     C15350   6.625  10.838   5.951 -0.5268 -0.1045  0.6840
  117MOL0     C15351   6.481  10.837   5.938  0.2957  0.5892  0.1038
  117MOL0     C15352   6.434  10.733   5.837 -0.2750  0.2366  0.4293
  117MOL0     C15353   6.288  10.686   5.860  0.2539 -0.4474 -0.1206
  117MOL0     C15354   6.182  10.796   5.854  0.0384  0.2501 -0.3668
  117MOL0     C15355   6.044  10.747   5.843 -0.1844  0.6928 -0.4568
  117MOL0    Cl15356   5.907  10.863   5.847  0.0742 -0.3581  0.1209
  117MOL0     C15357   7.049  10.626   6.086  0.2819 -1.5008 -0.0367
  117MOL0     C15358   7.186  10.598   6.082  0.0837  0.4191 -0.0680
  117MOL0     O15359   7.387  10.597   6.331 -0.1131 -0.0511  0.2827
  117MOL0     C15360   7.664  10.622   6.387  0.3511 -0.0457  0.8546
  117MOL0     C15361   7.801  10.633   6.409  0.6458 -0.1303  0.0415
  117MOL0     N15362   7.961  11.208   6.002  0.8241 -0.8296  0.1937
  117MOL0     N15363   8.025  11.221   5.892  0.2935 -0.7162  0.6096
  117MOL0     C15364   9.076  10.543   5.722  0.0924 -0.3755 -0.2990
  117MOL0     C15365   9.199  10.479   5.728 -0.3790 -1.1237 -0.0307
  117MOL0     C15366   9.593  10.364   5.878  0.6332 -0.5284 -0.1450
  117MOL0     C15367   9.703  10.445   5.915  0.3037  0.0384 -0.5372
  117MOL0     C15368   9.835  10.393   5.905 -0.9356  0.7153 -0.3385
  117MOL0     C15369   9.852  10.259   5.871 -0.1030 -1.2223  0.3460
  117MOL0     O15370   9.987  10.230   5.874  0.7311 -0.1315  0.1513
  117MOL0     C15371  10.034  10.169   5.750 -0.3364  0.1041 -0.4147
  117MOL0     C15372  10.175  10.220   5.717 -0.0890  0.2498 -0.6664
  117MOL0     C15373  10.277  10.135   5.802  0.5913  0.2869 -0.6134
  117MOL0     C15374  10.421  10.154   5.746  0.3284 -0.3659  0.2114
  117MOL0     C15375  10.459  10.036   5.658  0.3617  0.2266 -0.4684
  117MOL0     C15376  10.509   9.953   5.586 -0.0503  0.0377  0.2399
  117MOL0     C15377   9.742  10.175   5.841 -0.6264 -0.5608  0.5632
  117MOL0     C15378   9.605  10.231   5.842 -0.5520  0.2636 -0.2688
  117MOL0     H15379   9.157  10.286   6.004 -0.8582 -0.0819  0.7022
  117MOL0     H15380   8.928  10.343   5.961  0.8481 -1.8718 -1.4736
  117MOL0     H15381   8.728  10.470   5.943 -0.3127  0.4782 -0.5220
  117MOL0     H15382   8.724  10.352   5.805  0.4358 -0.3025 -2.0499
  117MOL0     H15383   8.513  10.477   5.853  0.2023  2.5597  2.9584
  117MOL0     H15384   8.578  10.532   5.695  2.5069 -0.3852 -0.8329
  117MOL0     H15385   8.681  10.720   5.773 -1.0256 -0.1224 -1.2964
  117MOL0     H15386   8.620  10.681   5.946 -0.0760 -2.1065  0.4199
  117MOL0     H15387   8.454  10.753   5.702  0.4599 -1.9619  0.0897
  117MOL0     H15388   8.397  10.717   5.875 -0.6648 -0.9735 -1.1933
  117MOL0     H15389   8.577  10.954   5.817  2.1472 -0.8840  1.4701
  117MOL0     H15390   8.496  10.907   5.964  0.4640 -1.5161 -0.5276
  117MOL0     H15391   8.283  10.949   5.867  1.1036 -0.4653  0.2746
  117MOL0     H15392   8.343  10.957   5.698 -1.4108  0.3870  0.3914
  117MOL0     H15393   8.431  11.147   5.921 -1.4000  0.6042  0.6697
  117MOL0     H15394   8.453  11.171   5.744  0.5444  1.9856  1.4411
  117MOL0     H15395   8.210  11.192   5.712 -0.5415  1.8091 -0.0827
  117MOL0     H15396   8.288  11.323   5.790  5.3953 -2.2310 -2.1128
  117MOL0     H15397   8.273  11.191   6.104  0.3499  0.9228 -1.8657
  117MOL0     H15398   7.905  11.130   6.253 -0.0344 -3.5300  0.3649
  117MOL0     H15399   8.073  11.201   6.289 -0.6642  1.3391 -1.2941
  117MOL0     H15400   8.164  10.987   6.256  0.4674  0.0734  0.7386
  117MOL0     H15401   8.017  10.943   6.162 -1.1907  2.4524 -0.8373
  117MOL0     H15402   8.035  11.007   6.462  0.5873 -3.5420  1.2110
  117MOL0     H15403   7.893  10.927   6.378 -0.6165 -0.4819  0.6386
  117MOL0     H15404   8.014  10.777   6.525  2.6233 -0.0689  0.0989
  117MOL0     H15405   8.160  10.813   6.435  0.2585  0.9565  0.3449
  117MOL0     H15406   7.882  10.773   6.109 -1.9410 -1.8852 -2.8495
  117MOL0     H15407   7.649  10.752   6.067  0.4481  1.6871  0.1347
  117MOL0     H15408   7.291  10.890   6.229  1.2915  0.1358 -2.5767
  117MOL0     H15409   7.041  10.924   6.242  0.9965  0.3269 -1.9311
  117MOL0     H15410   6.860  10.946   6.054  0.3334 -1.1307 -1.3526
  117MOL0     H15411   6.822  10.932   6.234  3.0975 -0.0355 -0.3186
  117MOL0     H15412   6.621  10.992   6.121 -0.1436  0.0013 -1.5422
  117MOL0     H15413   6.613  10.817   6.163 -1.5430 -0.8867 -2.3654
  117MOL0     H15414   6.672  10.739   5.959 -0.2213 -0.1008 -0.6727
  117MOL0     H15415   6.670  10.898   5.871 -0.9101 -2.1292 -1.1525
  117MOL0     H15416   6.439  10.791   6.028 -2.8393  0.7786 -1.1663
  117MOL0     H15417   6.438  10.935   5.916 -1.0957 -0.4026 -1.8506
  117MOL0     H15418   6.495  10.642   5.840 -1.8055 -0.8430  0.1519
  117MOL0     H15419   6.440  10.776   5.737  3.4411 -0.4913  0.1857
  117MOL0     H15420   6.284  10.644   5.961 -1.1589  0.7816  0.3529
  117MOL0     H15421   6.270  10.619   5.776 -1.4992  2.0235 -1.8321
  117MOL0     H15422   6.184  10.852   5.948 -1.9613 -0.8419  0.3855
  117MOL0     H15423   6.197  10.846   5.758 -2.4238 -2.7754 -2.5277
  117MOL0     H15424   6.040  10.681   5.930  1.6443  3.3574  1.8005
  117MOL0     H15425   6.034  10.695   5.747  1.0154  1.2277 -0.8873
  117MOL0     H15426   6.971  10.551   6.076 -0.5801 -0.7937  1.0917
  117MOL0     H15427   7.236  10.505   6.061 -0.8683 -0.7465  2.4460
  117MOL0     H15428   7.608  10.557   6.454  0.8266  0.2383  1.5448
  117MOL0     H15429   7.854  10.595   6.496  2.5196 -0.7066 -1.2953
  117MOL0     H15430   9.060  10.620   5.647 -3.4114 -1.3275 -0.7323
  117MOL0     H15431   9.278  10.518   5.664 -1.4989 -3.2443 -2.9480
  117MOL0     H15432   9.701  10.550   5.943 -0.4904 -0.3370  0.8813
  117MOL0     H15433   9.926  10.448   5.926 -0.0517  0.4715 -3.1703
  117MOL0     H15434   9.961  10.196   5.673 -0.4221 -2.6406 -1.3873
  117MOL0     H15435  10.029  10.060   5.755 -1.5198  0.0892 -1.3001
  117MOL0     H15436  10.202  10.212   5.611 -1.5083 -1.3909 -0.9495
  117MOL0     H15437  10.183  10.327   5.740 -0.9286  0.3132 -0.6567
  117MOL0     H15438  10.250  10.029   5.802 -0.5010  0.5334  0.5341
  117MOL0     H15439  10.291  10.173   5.904  0.8677  0.1240 -0.5891
  117MOL0     H15440  10.432  10.248   5.690  4.1000 -1.1318 -0.5564
  117MOL0     H15441  10.495  10.172   5.824  3.0321 -3.2005 -1.5110
  117MOL0     H15442  10.540   9.867   5.530 -0.1080 -0.3985  0.8740
  117MOL0     H15443   9.754  10.073   5.808  2.1137 -1.2057  3.1298
  117MOL0     H15444   9.526  10.161   5.819  0.8901 -1.4599 -0.1782
  118MOL0     O15445   3.086   3.691   6.169 -0.3045  0.0915  0.4544
  118MOL0     C15446   3.126   3.655   6.277  0.3062 -0.0523 -0.5663
  118MOL0     O15447   3.064   3.559   6.362  0.6742  0.2949 -0.5292
  118MOL0     C15448   2.935   3.506   6.335 -0.2213 -0.3934 -0.0234
  118MOL0     C15449   2.863   3.520   6.208 -0.1225  0.0255  0.0830
  118MOL0     C15450   2.736   3.464   6.190  0.2501 -0.2966  1.2173
  118MOL0     C15451   2.672   3.402   6.300 -0.4687  0.2958  0.0723
  118MOL0     O15452   2.541   3.382   6.268  0.7637 -0.0477  0.4579
  118MOL0     C15453   2.458   3.373   6.386  0.4351 -0.4903  0.9618
  118MOL0     C15454   2.316   3.357   6.349  0.4175 -0.4668 -0.2853
  118MOL0     C15455   2.243   3.492   6.308 -0.1708  0.2868  0.1239
  118MOL0     C15456   2.098   3.465   6.267  0.6174 -0.0161  0.3570
  118MOL0     C15457   1.993   3.455   6.387  0.1511  0.0958  0.6752
  118MOL0     C15458   1.851   3.410   6.350 -0.0574  0.0347 -0.0364
  118MOL0     C15459   1.767   3.427   6.471  0.2624 -0.2788 -0.9551
  118MOL0     C15460   1.627   3.369   6.445 -1.0287 -1.0142 -0.1573
  118MOL0     N15461   1.555   3.425   6.335 -0.3610 -0.9843 -0.3588
  118MOL0     C15462   1.472   3.532   6.329  0.3202  0.0622  0.4451
  118MOL0     C15463   1.422   3.524   6.201  0.2284 -1.2283 -0.2184
  118MOL0     C15464   1.301   3.608   6.150  0.4697 -0.2658  0.1773
  118MOL0     C15465   1.221   3.555   6.025 -0.6153  0.1244  0.0217
  118MOL0     C15466   1.290   3.570   5.893 -0.1652  0.2590 -0.0611
  118MOL0     C15467   1.214   3.527   5.768  1.1654  1.1318 -0.3757
  118MOL0     O15468   1.111   3.622   5.719 -0.1573  0.8984  0.1256
  118MOL0     C15469   0.978   3.585   5.731 -0.3561 -0.8383  1.1887
  118MOL0     C15470   0.924   3.476   5.803  0.3220  0.0298  0.3827
  118MOL0     C15471   0.784   3.467   5.796 -0.9796 -0.1928 -0.4472
  118MOL0     C15472   0.704   3.566   5.723  0.1351  0.1651  0.2886
  118MOL0     C15473   0.559   3.555   5.716  0.3725  0.7724  0.1124
  118MOL0     O15474   0.507   3.670   5.669  0.1233 -0.2195 -0.4964
  118MOL0     C15475   0.372   3.691   5.633  0.1975 -0.3923 -1.0446
  118MOL0     C15476   0.270   3.645   5.712  0.2967 -0.0224  0.2031
  118MOL0     C15477   0.134   3.682   5.689 -0.0910  0.3267 -0.4407
  118MOL0     C15478   0.099   3.756   5.580 -0.9198  0.2923 -0.3626
  118MOL0     O15479  -0.029   3.799   5.560 -0.8130  1.0873  1.0919
  118MOL0     C15480  -0.107   3.712   5.491 -0.0578  0.8561  0.9188
  118MOL0     C15481  -0.221   3.678   5.579 -0.0235 -0.2352 -0.0215
  118MOL0     C15482  -0.313   3.802   5.620  0.3858  0.1872  0.1091
  118MOL0     C15483  -0.443   3.769   5.688  0.2623  0.8572  0.5143
  118MOL0     C15484  -0.522   3.869   5.766  0.4408 -0.5312 -0.9391
  118MOL0     C15485  -0.540   4.013   5.703 -0.1365  0.8166  0.1780
  118MOL0     C15486  -0.614   4.122   5.791 -0.4074  0.3926  0.6033
  118MOL0     C15487  -0.629   4.247   5.705 -0.6847  0.3186 -0.8921
  118MOL0    Cl15488  -0.775   4.239   5.599  0.0442  0.0763  0.0545
  118MOL0     C15489   0.206   3.813   5.503 -0.4980 -0.0991 -0.4835
  118MOL0     C15490   0.338   3.773   5.528 -0.4744  0.3127 -0.4174
  118MOL0     O15491   0.499   3.455   5.761  0.0367  0.4681 -0.1654
  118MOL0     C15492   0.772   3.667   5.648 -0.1800 -0.6756 -0.2545
  118MOL0     C15493   0.903   3.675   5.651 -0.0633  0.3108  0.9972
  118MOL0     N15494   1.496   3.444   6.124  0.2038 -0.4388  0.6358
  118MOL0     N15495   1.565   3.378   6.206  0.1921  0.2690  0.8276
  118MOL0     C15496   2.743   3.379   6.422  0.4193 -0.2578 -0.2034
  118MOL0     C15497   2.872   3.429   6.439  0.0582 -0.3241 -0.0643
  118MOL0     C15498   3.254   3.719   6.326  0.5504 -0.4932 -0.9655
  118MOL0     C15499   3.288   3.845   6.281 -0.7476 -0.3855  0.5746
  118MOL0     C15500   3.402   3.911   6.325  0.0028  0.2646 -0.7754
  118MOL0     C15501   3.482   3.847   6.431 -0.0572 -1.0908  1.1997
  118MOL0     O15502   3.597   3.903   6.477 -0.4199 -0.3199 -0.5946
  118MOL0     C15503   3.656   4.008   6.403 -0.1869 -1.0492  0.0776
  118MOL0     C15504   3.793   4.043   6.472  0.0260 -0.2639 -0.4131
  118MOL0     C15505   3.879   4.157   6.406  1.2828 -0.2940 -0.3559
  118MOL0     C15506   4.027   4.128   6.445  1.1822  0.2641  0.0705
  118MOL0     C15507   4.131   4.215   6.382 -0.0843 -0.1502  0.1999
  118MOL0     C15508   4.222   4.281   6.334  0.6288 -0.1577  0.3523
  118MOL0     C15509   3.458   3.720   6.472  0.2249  0.7140 -0.1196
  118MOL0     C15510   3.332   3.658   6.425 -0.7046  0.0070 -0.2511
  118MOL0     H15511   2.896   3.585   6.127  0.2260 -1.6522 -1.1836
  118MOL0     H15512   2.685   3.461   6.094  1.0037 -0.9396  0.8308
  118MOL0     H15513   2.481   3.450   6.459  1.9500 -1.0938  1.1671
  118MOL0     H15514   2.474   3.287   6.453  0.5327  0.7472  2.5885
  118MOL0     H15515   2.259   3.321   6.436 -0.5212  0.4013 -0.5139
  118MOL0     H15516   2.300   3.273   6.281  0.4459 -1.4294  0.8629
  118MOL0     H15517   2.300   3.540   6.228 -0.0642  1.7641  1.0543
  118MOL0     H15518   2.245   3.572   6.383 -0.0153  1.2425 -0.8676
  118MOL0     H15519   2.068   3.553   6.209  1.4429 -0.2413 -0.4391
  118MOL0     H15520   2.090   3.373   6.208 -0.6722 -0.1820  0.7574
  118MOL0     H15521   1.989   3.550   6.441  1.5578  0.0273  0.9492
  118MOL0     H15522   2.027   3.393   6.470  2.1722  1.3894  0.9010
  118MOL0     H15523   1.839   3.313   6.301  1.5597 -0.6104  0.7922
  118MOL0     H15524   1.828   3.480   6.268  2.9699 -1.2393 -2.1398
  118MOL0     H15525   1.801   3.368   6.557  0.0955  0.1103 -0.6183
  118MOL0     H15526   1.760   3.530   6.507 -0.4478 -0.6641  0.0485
  118MOL0     H15527   1.567   3.380   6.536  0.0837 -0.2615  0.5060
  118MOL0     H15528   1.637   3.261   6.432 -0.7791 -1.2094  1.4705
  118MOL0     H15529   1.441   3.587   6.417  0.5151 -1.7075  1.6858
  118MOL0     H15530   1.325   3.712   6.127  0.4107 -0.1376  0.6983
  118MOL0     H15531   1.241   3.606   6.241  0.6994 -0.5101  0.3241
  118MOL0     H15532   1.123   3.604   6.031 -0.3130  1.0246 -1.7291
  118MOL0     H15533   1.204   3.448   6.036  1.5515 -0.4868 -1.8765
  118MOL0     H15534   1.326   3.672   5.881  1.1921 -0.2703 -0.6244
  118MOL0     H15535   1.376   3.503   5.884 -0.2285 -0.4254  3.2879
  118MOL0     H15536   1.175   3.425   5.769 -1.6061  2.1044 -0.4684
  118MOL0     H15537   1.286   3.533   5.686 -1.3254 -0.3342 -2.8428
  118MOL0     H15538   0.983   3.416   5.872  2.4052  2.5081  0.9482
  118MOL0     H15539   0.725   3.389   5.842  0.2832 -2.1504 -1.9647
  118MOL0     H15540   0.294   3.574   5.791 -2.7606 -0.4343  0.8674
  118MOL0     H15541   0.063   3.648   5.764  0.7068 -1.2952 -0.3651
  118MOL0     H15542  -0.052   3.623   5.460 -2.1574 -0.5615  1.1034
  118MOL0     H15543  -0.139   3.759   5.397  2.2947 -1.2368 -1.0966
  118MOL0     H15544  -0.187   3.632   5.672 -2.5806 -0.4185  0.9061
  118MOL0     H15545  -0.272   3.601   5.520  1.3468 -1.9458  0.9416
  118MOL0     H15546  -0.321   3.863   5.529 -0.8969  1.7641  1.2207
  118MOL0     H15547  -0.267   3.870   5.692 -0.2593  0.2043  0.5085
  118MOL0     H15548  -0.502   3.715   5.613  2.6504 -0.8169 -0.3002
  118MOL0     H15549  -0.433   3.678   5.748 -2.2638 -0.3828 -0.7948
  118MOL0     H15550  -0.476   3.890   5.863  1.4768 -0.2539 -1.4872
  118MOL0     H15551  -0.623   3.832   5.786  1.4673 -3.3136 -0.4098
  118MOL0     H15552  -0.595   3.991   5.611 -5.8688  0.9821  3.0974
  118MOL0     H15553  -0.439   4.051   5.692 -0.4522  2.1691  1.6184
  118MOL0     H15554  -0.715   4.085   5.812 -0.9921  0.2454 -2.1191
  118MOL0     H15555  -0.546   4.133   5.876  2.7765 -0.1966 -1.7068
  118MOL0     H15556  -0.541   4.276   5.647  0.6110  0.5881  1.0984
  118MOL0     H15557  -0.637   4.320   5.786  2.0723 -1.5975  1.3338
  118MOL0     H15558   0.193   3.881   5.420  3.3638  0.3327 -0.9098
  118MOL0     H15559   0.412   3.808   5.457  2.0356 -2.5830  0.5597
  118MOL0     H15560   0.719   3.739   5.586 -0.4758  1.6725  2.5029
  118MOL0     H15561   0.950   3.752   5.590 -0.5238  0.8981  1.3686
  118MOL0     H15562   2.703   3.319   6.503  2.2571 -3.7702 -1.6593
  118MOL0     H15563   2.925   3.415   6.532  1.1661 -1.2842 -0.8168
  118MOL0     H15564   3.221   3.901   6.218  0.4273 -0.3135 -0.6544
  118MOL0     H15565   3.423   4.009   6.281 -0.6400  0.1881 -1.2741
  118MOL0     H15566   3.585   4.091   6.395 -3.0131 -3.4376 -1.6809
  118MOL0     H15567   3.670   3.980   6.298  2.0538  1.4401 -0.3864
  118MOL0     H15568   3.778   4.050   6.580  0.2559 -1.7775 -0.2645
  118MOL0     H15569   3.857   3.955   6.476  1.0396  0.4169 -1.1374
  118MOL0     H15570   3.855   4.258   6.439  1.8730 -0.5162  0.8015
  118MOL0     H15571   3.872   4.143   6.297  2.6488 -3.5606 -0.1214
  118MOL0     H15572   4.037   4.153   6.551  2.4601  0.4544 -0.0818
  118MOL0     H15573   4.065   4.026   6.433  1.5262  0.2003  1.5388
  118MOL0     H15574   4.285   4.351   6.283 -0.4827  2.5566  2.4409
  118MOL0     H15575   3.529   3.675   6.541  0.7051  0.0051 -1.0482
  118MOL0     H15576   3.315   3.554   6.450  3.8186 -1.3208 -1.7618
  119MOL0     O15577   7.925   6.791   1.601 -0.0650  0.2176  0.0062
  119MOL0     C15578   7.903   6.709   1.505  0.7686 -0.6602  0.2176
  119MOL0     O15579   7.785   6.638   1.485  0.0488 -0.2069 -0.1793
  119MOL0     C15580   7.671   6.657   1.563  0.7567  0.2301 -0.1569
  119MOL0     C15581   7.615   6.784   1.584 -1.0679 -0.1696 -0.0654
  119MOL0     C15582   7.501   6.797   1.662 -0.1836  0.3855  0.1387
  119MOL0     C15583   7.441   6.681   1.725 -0.6956  0.1724  0.8691
  119MOL0     O15584   7.330   6.683   1.813 -0.2867  0.1519 -0.0398
  119MOL0     C15585   7.278   6.806   1.862 -1.1986 -0.7785 -0.5012
  119MOL0     C15586   7.153   6.774   1.949 -0.5178  0.3062  0.0236
  119MOL0     C15587   7.053   6.681   1.867 -0.2399  0.2126 -0.5021
  119MOL0     C15588   6.989   6.775   1.759 -0.4678 -0.0855 -0.3098
  119MOL0     C15589   6.863   6.720   1.694  0.1892  0.0414 -0.1281
  119MOL0     C15590   6.891   6.608   1.586  0.4456 -0.0266  0.1697
  119MOL0     C15591   6.764   6.531   1.543 -0.4137  0.3268 -0.3603
  119MOL0     C15592   6.673   6.636   1.467 -0.1267 -0.2236 -0.0234
  119MOL0     N15593   6.552   6.569   1.414  0.0422  0.0010 -0.2351
  119MOL0     C15594   6.514   6.550   1.281 -0.1112  0.2276  0.7186
  119MOL0     C15595   6.395   6.491   1.293  0.0142 -0.7277  1.0748
  119MOL0     C15596   6.326   6.442   1.168  0.1354  0.8648  0.3108
  119MOL0     C15597   6.308   6.564   1.082 -0.4448  0.3755 -0.0961
  119MOL0     C15598   6.223   6.530   0.953  0.5072 -0.6158 -0.5954
  119MOL0     C15599   6.078   6.494   0.984 -0.3190  0.1590 -0.5998
  119MOL0     O15600   6.011   6.610   1.037 -0.2945 -0.6757 -0.1482
  119MOL0     C15601   5.875   6.580   1.035  0.2703 -0.0695 -0.6065
  119MOL0     C15602   5.787   6.633   0.942  0.4624  0.3482  1.1033
  119MOL0     C15603   5.646   6.617   0.955 -0.6629  0.1815  0.4653
  119MOL0     C15604   5.590   6.566   1.075  0.1634  0.1411  0.6899
  119MOL0     C15605   5.442   6.555   1.095  0.0697  0.5991  0.2802
  119MOL0     O15606   5.360   6.629   1.012  0.4832  0.8756  0.3580
  119MOL0     C15607   5.217   6.624   1.035 -1.2661  0.0967 -0.3240
  119MOL0     C15608   5.140   6.627   0.922  0.2849  0.5044 -0.6821
  119MOL0     C15609   5.004   6.660   0.931  0.0485 -0.3640  0.0926
  119MOL0     C15610   4.941   6.679   1.055 -0.9582  0.6408  0.8489
  119MOL0     O15611   4.814   6.716   1.047 -0.4848 -0.0064  0.5508
  119MOL0     C15612   4.712   6.623   1.084 -0.8534 -0.2688 -0.7890
  119MOL0     C15613   4.626   6.690   1.187 -1.1893  0.0986  0.4579
  119MOL0     C15614   4.479   6.651   1.174  0.1933  0.2532 -0.9268
  119MOL0     C15615   4.455   6.491   1.177  0.6518 -0.1038  0.2886
  119MOL0     C15616   4.488   6.424   1.312  0.2857  0.6497 -0.0065
  119MOL0     C15617   4.451   6.282   1.312  0.8891  0.3267  0.3474
  119MOL0     C15618   4.474   6.215   1.450 -1.2961  0.6922  0.1013
  119MOL0     C15619   4.345   6.156   1.508 -0.0905  0.2331 -0.4799
  119MOL0    Cl15620   4.390   6.085   1.668  0.6474 -0.3138  0.3125
  119MOL0     C15621   5.021   6.662   1.174 -0.1470  0.3549 -0.3731
  119MOL0     C15622   5.158   6.637   1.159  0.0682  0.9417  0.3814
  119MOL0     O15623   5.406   6.498   1.195 -0.5858  1.0768  0.0084
  119MOL0     C15624   5.679   6.519   1.174  0.7576 -0.3659 -0.6289
  119MOL0     C15625   5.815   6.520   1.147  0.0647  0.2962  0.3942
  119MOL0     N15626   6.358   6.462   1.424 -0.6323  0.3688  0.3948
  119MOL0     N15627   6.458   6.515   1.490  0.5024  0.6370  0.0017
  119MOL0     C15628   7.501   6.553   1.706  0.5664 -0.2477 -0.2373
  119MOL0     C15629   7.614   6.545   1.625 -0.3981  0.4157  0.2261
  119MOL0     C15630   8.014   6.695   1.401  0.2307  0.9680 -0.4637
  119MOL0     C15631   8.109   6.801   1.388  0.1057  0.0727  0.1368
  119MOL0     C15632   8.199   6.801   1.280 -0.1626 -0.6141 -0.0674
  119MOL0     C15633   8.194   6.694   1.181  0.4096  0.1148  0.3653
  119MOL0     O15634   8.269   6.677   1.067  0.3047  0.2867  0.5057
  119MOL0     C15635   8.389   6.761   1.065  0.3513 -0.1539 -1.1714
  119MOL0     C15636   8.493   6.720   0.955  0.2996 -0.4051 -0.2036
  119MOL0     C15637   8.603   6.831   0.950  0.6177  0.3527 -0.2122
  119MOL0     C15638   8.677   6.823   0.823 -0.0374  0.0011  0.3467
  119MOL0     C15639   8.785   6.926   0.812 -0.5652  0.7669  0.3797
  119MOL0     C15640   8.881   6.990   0.770  0.3595 -0.6365 -0.2321
  119MOL0     C15641   8.107   6.590   1.206 -0.8331  0.0775 -0.1663
  119MOL0     C15642   8.014   6.586   1.312  0.5001  0.3683  0.6560
  119MOL0     H15643   7.658   6.871   1.535 -0.8591 -0.9918 -1.3920
  119MOL0     H15644   7.461   6.898   1.657 -0.0071  0.3909 -2.2592
  119MOL0     H15645   7.250   6.877   1.784  0.7482 -2.4783 -2.9184
  119MOL0     H15646   7.355   6.860   1.917  1.1627 -0.7744 -3.5512
  119MOL0     H15647   7.099   6.863   1.981 -2.6272 -1.1360  0.6946
  119MOL0     H15648   7.182   6.719   2.039  0.3720 -1.4375 -1.2837
  119MOL0     H15649   6.965   6.646   1.923 -0.5130 -1.8252 -2.0768
  119MOL0     H15650   7.094   6.592   1.818 -0.8333  1.5695 -3.7265
  119MOL0     H15651   6.962   6.874   1.797  3.1873  1.8338 -2.1592
  119MOL0     H15652   7.067   6.794   1.685 -1.0107  0.2904 -0.7957
  119MOL0     H15653   6.811   6.802   1.645 -1.8883 -0.0124  1.8519
  119MOL0     H15654   6.797   6.686   1.774  0.3212  1.8793  0.8149
  119MOL0     H15655   6.957   6.529   1.623  0.8458  0.3133  0.1839
  119MOL0     H15656   6.936   6.648   1.494 -0.5739 -3.0793 -1.8182
  119MOL0     H15657   6.794   6.457   1.468 -2.1381 -0.2523 -0.5107
  119MOL0     H15658   6.723   6.488   1.635 -3.0469  1.8743 -0.7054
  119MOL0     H15659   6.721   6.682   1.380 -1.1432 -0.4070 -0.6957
  119MOL0     H15660   6.634   6.712   1.535  1.1535  0.2987  0.1557
  119MOL0     H15661   6.577   6.556   1.193 -0.0357  0.3204  0.7793
  119MOL0     H15662   6.233   6.389   1.191  1.8221 -2.2187  0.5317
  119MOL0     H15663   6.384   6.363   1.120 -2.2954 -0.2223 -0.9962
  119MOL0     H15664   6.404   6.598   1.041 -0.9692  0.9768 -0.8607
  119MOL0     H15665   6.256   6.642   1.139  0.5384 -0.0969  1.5172
  119MOL0     H15666   6.230   6.615   0.885  0.4168 -0.0742  0.0551
  119MOL0     H15667   6.270   6.444   0.904  1.1447 -0.4311 -0.3152
  119MOL0     H15668   6.068   6.405   1.046  1.4432 -0.7242 -1.5153
  119MOL0     H15669   6.029   6.471   0.889  0.0067  1.6898 -1.1759
  119MOL0     H15670   5.832   6.683   0.857  0.4777 -2.9357 -0.9970
  119MOL0     H15671   5.590   6.654   0.870  3.8864 -0.3066 -3.0927
  119MOL0     H15672   5.202   6.612   0.834 -0.5910  0.3615 -1.2930
  119MOL0     H15673   4.941   6.670   0.843 -0.1019 -0.8967  0.1406
  119MOL0     H15674   4.764   6.533   1.119 -1.5029  0.5907  2.7872
  119MOL0     H15675   4.644   6.610   1.000 -1.8180  1.5670 -0.3302
  119MOL0     H15676   4.634   6.799   1.182 -0.6249  0.0604  0.4721
  119MOL0     H15677   4.657   6.661   1.288  1.6228  2.9250  0.5715
  119MOL0     H15678   4.445   6.689   1.077  4.5082  3.2003 -1.6073
  119MOL0     H15679   4.412   6.697   1.248 -0.3902  1.5094 -2.1823
  119MOL0     H15680   4.348   6.491   1.158  0.3974 -0.6011  1.6205
  119MOL0     H15681   4.511   6.442   1.096  1.0080  1.9779 -0.7785
  119MOL0     H15682   4.430   6.488   1.379 -0.7237  1.5470 -1.6810
  119MOL0     H15683   4.594   6.431   1.340  0.1338  1.4872  0.3968
  119MOL0     H15684   4.505   6.223   1.238 -0.1774 -3.0838  2.0387
  119MOL0     H15685   4.344   6.287   1.293  1.2062  1.7332 -1.3383
  119MOL0     H15686   4.542   6.133   1.426 -5.3348 -2.7037 -0.9487
  119MOL0     H15687   4.529   6.265   1.530 -2.1989 -3.0393  3.4123
  119MOL0     H15688   4.301   6.075   1.449 -0.7047  1.8822 -2.3863
  119MOL0     H15689   4.276   6.240   1.524  1.4457  1.1198  2.1494
  119MOL0     H15690   4.970   6.677   1.268  0.8999  0.0178  0.2611
  119MOL0     H15691   5.216   6.650   1.249  1.0258 -3.0667  0.5421
  119MOL0     H15692   5.635   6.488   1.268 -0.9736  1.9199 -0.6010
  119MOL0     H15693   5.878   6.474   1.222 -0.8122 -0.8927  0.4318
  119MOL0     H15694   7.465   6.464   1.757  2.2227 -0.5884  0.4191
  119MOL0     H15695   7.656   6.447   1.607 -1.8633  0.1676 -2.2719
  119MOL0     H15696   8.119   6.881   1.460 -2.3742  1.0470 -0.5126
  119MOL0     H15697   8.261   6.888   1.261 -1.9582 -0.0139 -4.1209
  119MOL0     H15698   8.429   6.751   1.166  0.1159 -0.4426 -1.1071
  119MOL0     H15699   8.358   6.866   1.053 -1.9782 -0.4911  1.0272
  119MOL0     H15700   8.537   6.624   0.984 -0.7187 -0.5220  1.0645
  119MOL0     H15701   8.444   6.710   0.858  1.7808  1.7957 -1.2487
  119MOL0     H15702   8.666   6.808   1.035  0.2149 -0.6754 -0.1785
  119MOL0     H15703   8.565   6.934   0.951 -0.7613 -0.0720  3.2386
  119MOL0     H15704   8.715   6.721   0.809  2.1342  0.5545  1.8427
  119MOL0     H15705   8.608   6.843   0.740  1.2618 -1.0762 -1.0649
  119MOL0     H15706   8.956   7.043   0.713 -2.3469  0.5658 -2.9543
  119MOL0     H15707   8.110   6.504   1.139  2.1247 -1.3934  1.6631
  119MOL0     H15708   7.937   6.510   1.318  1.8439 -1.0398  0.7944
  120MOL0     O15709   5.842   1.875   7.269  0.0073 -0.0295  0.1491
  120MOL0     C15710   5.868   1.852   7.382 -0.0490 -0.0407  0.4894
  120MOL0     O15711   5.784   1.844   7.489  0.9896 -0.1520 -0.7997
  120MOL0     C15712   5.655   1.885   7.473 -0.0790 -0.9871 -0.4972
  120MOL0     C15713   5.610   1.969   7.566 -0.4494 -0.6989 -0.5248
  120MOL0     C15714   5.476   2.011   7.565 -0.2058 -0.1243  0.9064
  120MOL0     C15715   5.381   1.946   7.482  1.1156 -0.3218  0.7040
  120MOL0     O15716   5.246   1.969   7.497  0.6424  0.0960  0.0377
  120MOL0     C15717   5.161   1.972   7.378 -0.6574 -0.4299 -0.5786
  120MOL0     C15718   5.017   1.997   7.407  0.1721  0.5577 -0.5677
  120MOL0     C15719   4.940   2.008   7.284 -0.0423  0.3160  0.1322
  120MOL0     C15720   4.797   2.057   7.317 -0.1145  0.6668  0.4546
  120MOL0     C15721   4.717   1.944   7.376 -0.6466 -0.5433  0.7433
  120MOL0     C15722   4.586   1.983   7.432 -0.5886  0.0888  0.2351
  120MOL0     C15723   4.507   2.076   7.343  0.3091  0.3568  0.1863
  120MOL0     C15724   4.366   2.095   7.392 -0.3638 -0.3193  0.1502
  120MOL0     N15725   4.284   2.193   7.320  0.3921  0.3408 -0.2756
  120MOL0     C15726   4.332   2.305   7.252  0.6970 -0.3613 -0.4656
  120MOL0     C15727   4.228   2.358   7.179 -0.6773 -0.2349 -0.2744
  120MOL0     C15728   4.232   2.467   7.070  0.6532 -0.2064  0.1297
  120MOL0     C15729   4.101   2.540   7.066  0.2504  0.6948 -0.1951
  120MOL0     C15730   4.087   2.641   6.954 -0.5388  0.3778  0.7051
  120MOL0     C15731   3.966   2.721   6.949 -0.1213  0.3900 -0.1633
  120MOL0     O15732   3.980   2.823   7.042  0.1563 -0.8076 -0.0249
  120MOL0     C15733   3.872   2.896   7.064 -0.5395  1.1881 -0.6205
  120MOL0     C15734   3.890   2.985   7.174  0.7725 -0.2016 -0.2135
  120MOL0     C15735   3.774   3.073   7.202  1.1132  0.3524 -0.9473
  120MOL0     C15736   3.662   3.074   7.119 -0.0888  0.4343 -0.7927
  120MOL0     C15737   3.562   3.189   7.138 -0.5021 -0.1875 -0.6569
  120MOL0     O15738   3.612   3.305   7.193  0.4374  0.3160 -0.4864
  120MOL0     C15739   3.529   3.414   7.222  0.1590  0.7737  0.3397
  120MOL0     C15740   3.398   3.410   7.233  0.3925  1.2576 -0.8455
  120MOL0     C15741   3.324   3.530   7.271  0.3397  0.4569 -0.3323
  120MOL0     C15742   3.393   3.653   7.302 -0.1170 -0.0499 -0.2891
  120MOL0     O15743   3.321   3.763   7.336  0.7152  0.2275 -0.3665
  120MOL0     C15744   3.390   3.838   7.429  0.0300 -0.5757  0.0627
  120MOL0     C15745   3.286   3.920   7.509  0.4086  0.2939 -0.0914
  120MOL0     C15746   3.224   3.848   7.635 -0.5112 -0.4923  0.2157
  120MOL0     C15747   3.129   3.936   7.717 -0.7737 -0.1680 -0.0054
  120MOL0     C15748   3.066   3.841   7.817 -0.4708 -0.3494 -0.2672
  120MOL0     C15749   2.929   3.890   7.865  0.5103 -0.8785  1.6009
  120MOL0     C15750   2.951   3.999   7.976 -1.1262 -0.1569  0.3956
  120MOL0     C15751   2.819   4.061   8.024  0.2976 -0.1980 -0.1023
  120MOL0    Cl15752   2.697   3.937   8.080 -0.5302 -0.0435 -0.5719
  120MOL0     C15753   3.540   3.650   7.286  0.0609  0.8932 -0.8811
  120MOL0     C15754   3.603   3.534   7.240 -0.9715 -0.0956 -0.6067
  120MOL0     O15755   3.453   3.176   7.087 -0.1576  0.4032 -0.1099
  120MOL0     C15756   3.641   2.972   7.026 -0.1308 -0.1445 -0.6422
  120MOL0     C15757   3.752   2.884   6.995  1.0408 -0.2059 -0.3470
  120MOL0     N15758   4.122   2.278   7.208  0.0236  0.7737  0.1022
  120MOL0     N15759   4.151   2.174   7.279  0.6026  0.0902 -0.5464
  120MOL0     C15760   5.428   1.850   7.392  0.2333  0.3669  0.0441
  120MOL0     C15761   5.568   1.822   7.393  0.9773  0.3277  1.2148
  120MOL0     C15762   6.013   1.831   7.410 -0.2706 -0.2026  0.9008
  120MOL0     C15763   6.108   1.838   7.300 -0.0513  0.2935 -0.6072
  120MOL0     C15764   6.251   1.820   7.328  0.6816 -0.1855 -0.0353
  120MOL0     C15765   6.290   1.797   7.458  0.5470  0.6012 -0.0664
  120MOL0     O15766   6.425   1.788   7.476  0.3473 -0.5417 -0.1574
  120MOL0     C15767   6.473   1.822   7.609  0.5962 -0.0621 -0.3470
  120MOL0     C15768   6.599   1.906   7.607  0.1361 -0.4312 -0.1172
  120MOL0     C15769   6.706   1.839   7.537 -1.5271  0.0734  0.3918
  120MOL0     C15770   6.825   1.927   7.501  1.0284  0.1976 -0.7144
  120MOL0     C15771   6.952   1.851   7.480  0.6065  0.0774  0.9691
  120MOL0     C15772   7.057   1.799   7.459 -0.0958  0.1361  0.1277
  120MOL0     C15773   6.196   1.786   7.559 -0.5924 -1.1708 -0.2434
  120MOL0     C15774   6.058   1.790   7.533 -0.6614 -1.2039  0.6956
  120MOL0     H15775   5.689   2.002   7.633  2.3955 -0.6710 -3.6247
  120MOL0     H15776   5.434   2.072   7.644  0.7487  4.1274 -1.5937
  120MOL0     H15777   5.178   1.878   7.325 -0.6885 -0.6588 -0.1836
  120MOL0     H15778   5.207   2.060   7.331  1.3386 -0.4406  1.2196
  120MOL0     H15779   5.012   2.093   7.461  1.5538  0.9714 -1.1365
  120MOL0     H15780   4.994   1.909   7.467  1.9775 -1.4429 -2.6709
  120MOL0     H15781   4.946   1.916   7.226  1.0431  0.0495  0.6437
  120MOL0     H15782   4.995   2.083   7.226  0.7907  1.7432  2.5937
  120MOL0     H15783   4.812   2.129   7.398 -1.4190 -1.7321  3.0003
  120MOL0     H15784   4.740   2.104   7.236 -1.4868  1.9869  2.1148
  120MOL0     H15785   4.773   1.891   7.453 -0.9003  1.8440  2.6761
  120MOL0     H15786   4.691   1.867   7.302 -2.9948 -1.7188  2.6191
  120MOL0     H15787   4.583   2.034   7.528 -0.7287 -0.7996  0.7064
  120MOL0     H15788   4.540   1.887   7.454  0.5953  0.2564  4.1777
  120MOL0     H15789   4.560   2.171   7.331 -2.5253  1.8375 -1.6481
  120MOL0     H15790   4.496   2.031   7.244 -1.4209  0.9185  0.1000
  120MOL0     H15791   4.389   2.144   7.487 -0.1841  0.5005 -0.3052
  120MOL0     H15792   4.319   1.999   7.415  1.0937 -1.2535 -0.5982
  120MOL0     H15793   4.438   2.329   7.245  1.6994 -4.1599 -0.6355
  120MOL0     H15794   4.243   2.441   6.965 -0.3669  1.5736 -0.4618
  120MOL0     H15795   4.312   2.537   7.096  2.9128 -2.5888 -0.0132
  120MOL0     H15796   4.086   2.587   7.164 -3.0697  1.1780 -0.8145
  120MOL0     H15797   4.016   2.471   7.059 -0.3717  1.2643  1.1987
  120MOL0     H15798   4.182   2.697   6.957  1.0163 -2.1611  1.9102
  120MOL0     H15799   4.085   2.580   6.864 -1.1402  0.6717  0.5128
  120MOL0     H15800   3.875   2.663   6.966  0.4067 -0.7490 -1.0809
  120MOL0     H15801   3.957   2.767   6.850  2.3985  1.6084  0.0854
  120MOL0     H15802   3.975   2.969   7.240  1.8511 -1.4322 -1.8217
  120MOL0     H15803   3.787   3.137   7.288 -0.9010 -0.0223 -0.3088
  120MOL0     H15804   3.339   3.319   7.229  2.3702 -0.8260  5.2731
  120MOL0     H15805   3.216   3.523   7.279  0.4892 -1.9200  0.2895
  120MOL0     H15806   3.460   3.914   7.393 -3.0103  1.3665 -2.1961
  120MOL0     H15807   3.443   3.770   7.497 -1.1345 -2.1090 -0.5286
  120MOL0     H15808   3.195   3.949   7.454 -0.3220 -0.1516  0.8664
  120MOL0     H15809   3.330   4.016   7.538  1.8270 -0.7077  1.1390
  120MOL0     H15810   3.299   3.799   7.697 -0.5307 -1.5443 -0.5508
  120MOL0     H15811   3.167   3.763   7.597  0.0114 -1.4155  1.4536
  120MOL0     H15812   3.181   4.018   7.767  1.0417  0.8413 -3.2782
  120MOL0     H15813   3.064   3.976   7.639 -1.1423 -2.2870 -0.8702
  120MOL0     H15814   3.139   3.833   7.897 -0.4158  2.0868  0.0144
  120MOL0     H15815   3.054   3.746   7.764 -0.8617 -0.7979  0.6034
  120MOL0     H15816   2.864   3.806   7.892 -1.4435  0.7261  2.1308
  120MOL0     H15817   2.880   3.946   7.786  0.1125 -1.8303  1.1550
  120MOL0     H15818   2.996   3.950   8.062 -2.8849 -1.8575  0.4055
  120MOL0     H15819   3.020   4.075   7.937  3.3288 -2.3011  3.2914
  120MOL0     H15820   2.774   4.120   7.945 -2.3036 -1.1695  0.5499
  120MOL0     H15821   2.835   4.138   8.100  1.9850 -0.5961 -0.0050
  120MOL0     H15822   3.602   3.737   7.306  2.7836 -1.2210  0.5360
  120MOL0     H15823   3.709   3.528   7.218 -1.0421  3.2448 -2.6556
  120MOL0     H15824   3.545   2.962   6.977 -0.1047  2.3729 -1.3636
  120MOL0     H15825   3.724   2.809   6.922 -2.4183 -0.3691  0.9693
  120MOL0     H15826   5.367   1.789   7.326  0.8914 -0.1045 -0.1308
  120MOL0     H15827   5.606   1.755   7.317  2.6560  1.9233  0.5682
  120MOL0     H15828   6.081   1.866   7.199 -2.1831  1.8886  0.3465
  120MOL0     H15829   6.331   1.831   7.256  1.1283  0.1687  0.5121
  120MOL0     H15830   6.486   1.731   7.669 -3.1802 -0.6180 -0.1017
  120MOL0     H15831   6.403   1.885   7.665  0.3163 -0.2729 -0.4537
  120MOL0     H15832   6.577   2.002   7.559 -3.1399 -1.7601 -1.5229
  120MOL0     H15833   6.629   1.919   7.712 -1.1633 -0.3249  0.2580
  120MOL0     H15834   6.684   1.789   7.442  0.2442 -0.5769  0.2799
  120MOL0     H15835   6.741   1.762   7.607 -0.6864 -2.0092 -2.1459
  120MOL0     H15836   6.793   1.980   7.412 -1.8720  0.5343  0.4322
  120MOL0     H15837   6.833   2.009   7.573  2.9899 -0.6212  0.0667
  120MOL0     H15838   7.152   1.764   7.423  0.0120  2.3680 -2.0417
  120MOL0     H15839   6.227   1.760   7.660  0.8664 -4.1119 -1.3132
  120MOL0     H15840   5.995   1.767   7.618 -0.9660  0.6270  1.0104
  121MOL0     O15841  11.077   9.507  10.920 -0.2251  0.1468  0.3922
  121MOL0     C15842  11.087   9.588  10.826 -0.4825 -0.9918 -0.1057
  121MOL0     O15843  10.981   9.644  10.753 -0.1707 -0.3383 -0.0548
  121MOL0     C15844  10.863   9.668  10.819 -0.1432 -0.2479  0.0889
  121MOL0     C15845  10.871   9.716  10.948  0.1157 -0.6237 -0.0915
  121MOL0     C15846  10.751   9.744  11.013  1.1363  0.1847 -0.6929
  121MOL0     C15847  10.626   9.731  10.956 -0.5862  0.3544 -0.6894
  121MOL0     O15848  10.516   9.744  11.040 -0.7917 -0.1497 -0.0892
  121MOL0     C15849  10.391   9.674  11.016  0.1389 -0.1782  0.3477
  121MOL0     C15850  10.316   9.732  10.909  0.1848 -0.0253  0.8388
  121MOL0     C15851  10.251   9.633  10.797  0.3517  0.6821  0.4966
  121MOL0     C15852  10.143   9.554  10.870  0.1944 -0.0994 -0.6246
  121MOL0     C15853  10.083   9.448  10.780 -0.7471  0.4848  0.4268
  121MOL0     C15854   9.950   9.408  10.841  0.7890  0.0004 -0.0134
  121MOL0     C15855   9.828   9.498  10.804  0.3708 -0.0153  0.2969
  121MOL0     C15856   9.789   9.497  10.657  0.2438 -0.2352  0.5949
  121MOL0     N15857   9.641   9.485  10.637 -0.2965  0.1774  0.5855
  121MOL0     C15858   9.557   9.581  10.574 -0.9813 -0.1787  0.5475
  121MOL0     C15859   9.449   9.505  10.550  0.7774  0.0088 -0.0394
  121MOL0     C15860   9.321   9.549  10.484 -0.0540 -0.4107  0.6953
  121MOL0     C15861   9.229   9.628  10.570  0.6476  0.0413 -1.0002
  121MOL0     C15862   9.125   9.703  10.499  0.6267  0.5561  0.9740
  121MOL0     C15863   9.008   9.736  10.598 -0.7226  0.1884  0.3046
  121MOL0     O15864   8.893   9.806  10.544 -0.5024  0.0363  0.3896
  121MOL0     C15865   8.793   9.730  10.489 -0.2910  0.7724 -0.2559
  121MOL0     C15866   8.676   9.802  10.472  1.9124 -0.6990  0.8269
  121MOL0     C15867   8.565   9.730  10.418 -0.8204 -0.1965 -1.0748
  121MOL0     C15868   8.569   9.592  10.379  0.2705 -0.4691 -0.0663
  121MOL0     C15869   8.460   9.518  10.333 -0.3883 -0.5852 -0.0327
  121MOL0     O15870   8.344   9.571  10.373 -0.2917  0.3935 -0.1846
  121MOL0     C15871   8.231   9.524  10.319 -0.0856  0.9534  0.1634
  121MOL0     C15872   8.160   9.424  10.389 -0.2108 -0.0044 -0.0774
  121MOL0     C15873   8.038   9.384  10.339 -0.1402 -0.7967 -0.3952
  121MOL0     C15874   7.971   9.447  10.224  0.2406  0.4199 -0.1125
  121MOL0     O15875   7.844   9.437  10.179  0.3667 -0.5275 -0.3550
  121MOL0     C15876   7.763   9.340  10.248  1.5084  0.3076 -0.4875
  121MOL0     C15877   7.632   9.322  10.175  0.9122  0.0371 -0.5510
  121MOL0     C15878   7.543   9.208  10.239  0.0857  0.7406 -0.3969
  121MOL0     C15879   7.440   9.167  10.135 -0.5712 -0.5189 -0.6191
  121MOL0     C15880   7.325   9.086  10.177 -0.8604 -0.1583  0.1582
  121MOL0     C15881   7.225   9.157  10.275 -0.0057 -0.6524 -0.1053
  121MOL0     C15882   7.082   9.100  10.276  0.5970 -0.2005 -0.2138
  121MOL0     C15883   6.984   9.198  10.340 -0.1066 -0.3051 -1.2217
  121MOL0    Cl15884   7.014   9.234  10.517  0.1836  0.3692  0.2576
  121MOL0     C15885   8.043   9.547  10.163  0.3308 -0.1364 -0.0581
  121MOL0     C15886   8.167   9.586  10.212 -0.0779  0.2796 -0.5492
  121MOL0     O15887   8.466   9.407  10.281  0.6468 -0.3250 -0.6956
  121MOL0     C15888   8.688   9.530  10.400 -0.5524  0.4523 -1.3535
  121MOL0     C15889   8.801   9.591  10.455 -0.1796 -0.9802 -0.3562
  121MOL0     N15890   9.462   9.378  10.601  0.1721  0.6409  0.0188
  121MOL0     N15891   9.579   9.364  10.654  1.0324  0.1010 -0.4767
  121MOL0     C15892  10.620   9.679  10.824  0.7280 -0.4024  0.4506
  121MOL0     C15893  10.740   9.646  10.758  0.9244 -0.3696 -0.0698
  121MOL0     C15894  11.225   9.616  10.770  0.0449  0.3918 -0.6100
  121MOL0     C15895  11.246   9.716  10.670  0.7939  0.6916  0.8303
  121MOL0     C15896  11.369   9.745  10.616 -1.5139 -1.3449  1.0464
  121MOL0     C15897  11.483   9.688  10.667  0.3361  0.7950  0.3016
  121MOL0     O15898  11.602   9.729  10.621 -0.5098 -0.3450 -0.1454
  121MOL0     C15899  11.732   9.679  10.658  0.4136 -0.1519 -0.0418
  121MOL0     C15900  11.830   9.783  10.595 -0.0736  1.0405 -0.2867
  121MOL0     C15901  11.976   9.767  10.664  0.2258 -0.5074  0.8607
  121MOL0     C15902  12.009   9.883  10.746 -0.0032  0.6585  0.2825
  121MOL0     C15903  12.145   9.879  10.793  0.3676 -0.2481 -0.1829
  121MOL0     C15904  12.259   9.880  10.838 -0.2321  0.3497 -0.1620
  121MOL0     C15905  11.476   9.592  10.769  0.0558 -0.4997  0.2512
  121MOL0     C15906  11.344   9.559  10.817  1.0023  0.5547  0.9823
  121MOL0     H15907  10.967   9.730  10.997  0.2015  3.4396 -1.0586
  121MOL0     H15908  10.757   9.796  11.108 -0.4543 -1.8183  0.5945
  121MOL0     H15909  10.335   9.679  11.109  2.5505 -0.6846  1.9367
  121MOL0     H15910  10.398   9.568  10.988 -3.1381  0.4920 -4.0761
  121MOL0     H15911  10.372   9.809  10.855  0.6820 -0.5926  0.5375
  121MOL0     H15912  10.235   9.789  10.955  1.4904  1.0767  1.8690
  121MOL0     H15913  10.332   9.571  10.757 -1.3075  0.0419 -2.1138
  121MOL0     H15914  10.209   9.677  10.706 -0.8293  0.5135  0.9384
  121MOL0     H15915  10.180   9.511  10.964 -0.7185  3.2225  1.4366
  121MOL0     H15916  10.075   9.625  10.917  0.6709 -0.2480  0.3106
  121MOL0     H15917  10.148   9.360  10.776 -2.4846 -0.8995  1.5532
  121MOL0     H15918  10.067   9.482  10.677 -0.2427 -2.7907 -0.8567
  121MOL0     H15919   9.965   9.410  10.949 -1.8763 -2.7887  0.5165
  121MOL0     H15920   9.931   9.307  10.806  0.3653 -0.1660  0.6959
  121MOL0     H15921   9.741   9.456  10.854 -0.2580 -0.9784 -1.4953
  121MOL0     H15922   9.839   9.600  10.841  0.3859  0.7000 -1.5369
  121MOL0     H15923   9.839   9.413  10.608 -2.2061 -0.1238 -2.3814
  121MOL0     H15924   9.831   9.586  10.610 -2.9132  1.8957  1.4730
  121MOL0     H15925   9.586   9.676  10.530  2.5852 -1.4182 -0.1105
  121MOL0     H15926   9.268   9.460  10.450  0.3399 -0.2852 -0.2799
  121MOL0     H15927   9.344   9.604  10.392 -1.0711  0.4433  0.9334
  121MOL0     H15928   9.282   9.694  10.639 -0.6711 -0.3785  0.4559
  121MOL0     H15929   9.196   9.551  10.640 -0.7588 -0.1670 -1.8695
  121MOL0     H15930   9.159   9.791  10.444  0.5784 -0.8160 -1.4031
  121MOL0     H15931   9.074   9.638  10.427 -2.3762  2.0395  1.6127
  121MOL0     H15932   9.058   9.800  10.672  0.7699  3.0035 -2.8616
  121MOL0     H15933   8.976   9.646  10.651 -3.2061  1.1109  0.4752
  121MOL0     H15934   8.670   9.904  10.510  2.6497 -0.7180  1.0110
  121MOL0     H15935   8.472   9.784  10.411  0.3191  1.9770 -0.2198
  121MOL0     H15936   8.197   9.389  10.484  2.4776 -0.8354 -1.3383
  121MOL0     H15937   7.972   9.316  10.392  0.2076 -1.7291 -1.1260
  121MOL0     H15938   7.748   9.376  10.350  0.5516 -1.5933  0.0779
  121MOL0     H15939   7.803   9.239  10.257 -1.2929 -0.7763  1.2134
  121MOL0     H15940   7.647   9.303  10.068 -0.4666  3.0617 -1.3999
  121MOL0     H15941   7.573   9.414  10.184 -1.4677 -1.5982  3.2616
  121MOL0     H15942   7.495   9.243  10.331  0.8526 -0.2696  0.4091
  121MOL0     H15943   7.600   9.121  10.274 -2.8410 -0.0120  3.1755
  121MOL0     H15944   7.407   9.262  10.092 -0.9039 -1.9269 -3.7582
  121MOL0     H15945   7.487   9.103  10.059 -0.3594 -1.6968  0.4633
  121MOL0     H15946   7.362   8.988  10.207  0.8345  0.0519 -1.1140
  121MOL0     H15947   7.281   9.052  10.083  0.9224 -0.3422 -0.6641
  121MOL0     H15948   7.218   9.262  10.246 -0.2633 -1.4399 -3.2680
  121MOL0     H15949   7.250   9.156  10.381  0.0190 -3.1854 -0.0656
  121MOL0     H15950   7.057   9.091  10.170 -1.0967  1.0165  0.0339
  121MOL0     H15951   7.081   8.999  10.318 -6.4968 -1.4473 -2.0658
  121MOL0     H15952   6.883   9.158  10.332 -0.6064  1.2111 -3.4668
  121MOL0     H15953   6.992   9.290  10.281  2.4688 -0.1997 -0.8241
  121MOL0     H15954   7.999   9.589  10.074 -2.7427 -2.4790  0.1980
  121MOL0     H15955   8.219   9.665  10.159  0.3573 -0.1325 -0.7394
  121MOL0     H15956   8.704   9.424  10.386 -3.0141 -0.1431 -0.1049
  121MOL0     H15957   8.889   9.529  10.467 -0.8922 -2.0580 -0.6080
  121MOL0     H15958  10.525   9.656  10.775  1.1150 -2.0210  0.3986
  121MOL0     H15959  10.743   9.605  10.658 -0.7482  2.6801 -1.4832
  121MOL0     H15960  11.157   9.759  10.625 -0.0781  0.9746  2.6956
  121MOL0     H15961  11.365   9.820  10.538  0.6831 -0.2028  1.9601
  121MOL0     H15962  11.748   9.578  10.618  2.2083 -0.1100  0.4799
  121MOL0     H15963  11.751   9.685  10.765  3.0747 -0.1555 -0.4493
  121MOL0     H15964  11.825   9.760  10.488 -2.0571 -0.1296 -0.0028
  121MOL0     H15965  11.780   9.878  10.613 -0.4167  1.1614 -1.7831
  121MOL0     H15966  12.046   9.768  10.579 -0.5205 -1.3431  0.2237
  121MOL0     H15967  11.987   9.676  10.723 -1.1601 -2.1014 -1.1815
  121MOL0     H15968  11.992   9.970  10.682 -0.5850 -0.2951 -0.8843
  121MOL0     H15969  11.942   9.882  10.833  1.2414 -2.9334  1.3805
  121MOL0     H15970  12.354   9.890  10.886 -0.6793 -0.5762  0.9542
  121MOL0     H15971  11.569   9.547  10.800 -0.6447 -3.1589 -1.1963
  121MOL0     H15972  11.321   9.489  10.896 -0.7989 -0.3469 -0.2852
  122MOL0     O15973   9.253   3.833   9.125 -0.3900  0.2889  1.0223
  122MOL0     C15974   9.239   3.920   9.042  0.7682 -0.1792  0.7089
  122MOL0     O15975   9.335   4.006   8.989 -0.2453  0.1134  0.3482
  122MOL0     C15976   9.470   3.980   9.013  0.9381  0.0104  0.3255
  122MOL0     C15977   9.562   4.076   9.009 -0.1004 -1.1350  0.4443
  122MOL0     C15978   9.701   4.042   8.998 -0.0276 -0.4605  0.2805
  122MOL0     C15979   9.752   3.914   9.009 -0.4689 -0.8348  0.0616
  122MOL0     O15980   9.890   3.878   9.001  0.5784 -0.6319  0.0001
  122MOL0     C15981   9.986   3.954   8.924  0.1232 -0.2989  0.9914
  122MOL0     C15982  10.106   3.877   8.876 -0.3104 -0.3256 -0.7050
  122MOL0     C15983  10.162   3.912   8.741  0.2839 -1.1456 -0.5619
  122MOL0     C15984  10.305   3.875   8.715 -0.3584 -0.5936 -0.6308
  122MOL0     C15985  10.334   3.730   8.686 -0.4124 -0.0364 -0.0486
  122MOL0     C15986  10.472   3.711   8.655 -0.0437  0.9628  0.0654
  122MOL0     C15987  10.499   3.557   8.635 -0.3378  0.0719  0.7907
  122MOL0     C15988  10.638   3.540   8.586  0.1116 -0.6807 -0.3953
  122MOL0     N15989  10.639   3.563   8.443  0.2022 -0.1316  0.2317
  122MOL0     C15990  10.600   3.464   8.358  0.3108 -0.0593 -0.3050
  122MOL0     C15991  10.626   3.507   8.229 -0.0606 -0.0813 -0.6911
  122MOL0     C15992  10.599   3.422   8.107  0.6322  0.1019 -0.2269
  122MOL0     C15993  10.451   3.397   8.103 -0.0221  0.1112 -0.9299
  122MOL0     C15994  10.353   3.515   8.107 -0.1887  0.5731 -0.8550
  122MOL0     C15995  10.220   3.497   8.023  0.1986  0.3125 -0.0236
  122MOL0     O15996  10.119   3.410   8.085 -0.0125  0.4257 -0.3463
  122MOL0     C15997   9.986   3.423   8.050 -0.2791  0.9404  0.5167
  122MOL0     C15998   9.944   3.478   7.927  0.1389  0.4400  0.4342
  122MOL0     C15999   9.813   3.464   7.877 -0.1223 -0.5520  0.7202
  122MOL0     C16000   9.718   3.411   7.962 -0.5071  0.0996  0.0194
  122MOL0     C16001   9.587   3.383   7.910  0.0478 -0.3600 -0.0166
  122MOL0     O16002   9.518   3.274   7.966  0.2356  0.6249 -0.0288
  122MOL0     C16003   9.385   3.280   7.944 -0.6704 -0.1207 -0.3234
  122MOL0     C16004   9.313   3.179   7.869 -0.8049 -0.1759 -0.0268
  122MOL0     C16005   9.182   3.175   7.857  0.3288 -0.0113  0.4559
  122MOL0     C16006   9.098   3.272   7.905  0.1120 -0.6386 -0.0834
  122MOL0     O16007   8.970   3.297   7.863  0.0795 -0.6331 -0.1719
  122MOL0     C16008   8.964   3.311   7.724 -0.3981 -0.0100  0.8416
  122MOL0     C16009   8.837   3.402   7.684 -1.0299  0.4162  0.1518
  122MOL0     C16010   8.811   3.388   7.528  0.1940  0.2154 -0.2823
  122MOL0     C16011   8.926   3.422   7.443  0.1455  0.2056 -0.6130
  122MOL0     C16012   8.899   3.460   7.297 -0.1759 -0.2609 -0.0491
  122MOL0     C16013   9.025   3.453   7.203  0.6546 -0.2219 -0.3424
  122MOL0     C16014   9.144   3.522   7.270 -0.2636 -0.3074  0.2072
  122MOL0     C16015   9.255   3.525   7.171 -0.2546  0.1137  0.2978
  122MOL0    Cl16016   9.397   3.592   7.251  0.3442 -0.3741 -0.0090
  122MOL0     C16017   9.170   3.376   7.977 -0.1265 -0.3322 -0.2410
  122MOL0     C16018   9.308   3.380   8.004  0.4186 -0.2428 -0.1241
  122MOL0     O16019   9.547   3.440   7.811 -1.1073  0.2675  0.1465
  122MOL0     C16020   9.753   3.367   8.093 -0.5614  0.0005 -0.4291
  122MOL0     C16021   9.884   3.373   8.130 -0.8001  0.4391 -0.2072
  122MOL0     N16022  10.688   3.625   8.237  0.5880 -0.0741  0.0282
  122MOL0     N16023  10.700   3.656   8.366  0.3886 -0.0096  0.6453
  122MOL0     C16024   9.657   3.815   9.014  0.0244 -0.4575  0.5826
  122MOL0     C16025   9.516   3.842   9.014 -0.4009  0.0723  0.8441
  122MOL0     C16026   9.104   3.925   8.971 -0.3684  0.1840 -1.2843
  122MOL0     C16027   9.058   4.038   8.910  0.6928 -0.5722 -0.2150
  122MOL0     C16028   8.948   4.039   8.822 -0.0104 -0.4359 -0.9676
  122MOL0     C16029   8.861   3.926   8.819 -0.1117  0.1055  0.2895
  122MOL0     O16030   8.751   3.927   8.729  0.6751  0.1251 -0.7144
  122MOL0     C16031   8.652   3.822   8.746 -0.0861 -0.2419  0.3231
  122MOL0     C16032   8.526   3.877   8.686 -0.7393 -0.0888  0.4160
  122MOL0     C16033   8.413   3.782   8.704 -0.0468 -0.0954  0.8973
  122MOL0     C16034   8.315   3.788   8.588 -0.5367  0.2439 -1.0321
  122MOL0     C16035   8.191   3.715   8.602  0.0113  0.3908 -0.0182
  122MOL0     C16036   8.078   3.678   8.613 -0.4341  0.1854  0.4759
  122MOL0     C16037   8.903   3.811   8.887 -0.4783 -0.8826  0.0627
  122MOL0     C16038   9.025   3.815   8.959  0.4244 -0.4336  0.5533
  122MOL0     H16039   9.539   4.181   8.995  3.1039 -0.5027 -1.0232
  122MOL0     H16040   9.766   4.127   8.981 -1.7818  0.6075 -1.5886
  122MOL0     H16041  10.028   4.045   8.970  0.5387 -1.1148  2.2691
  122MOL0     H16042   9.941   3.973   8.826  0.2197  0.8029  1.1474
  122MOL0     H16043  10.077   3.771   8.884  1.0529 -0.5774  3.2508
  122MOL0     H16044  10.188   3.893   8.947 -0.0612 -0.7170 -0.9006
  122MOL0     H16045  10.157   4.019   8.722  0.4568 -1.1724 -0.7587
  122MOL0     H16046  10.097   3.859   8.671 -0.4373 -2.4805  1.0404
  122MOL0     H16047  10.327   3.926   8.621 -1.7619  2.1543  0.4101
  122MOL0     H16048  10.366   3.915   8.796 -2.2892 -1.4441  1.3589
  122MOL0     H16049  10.262   3.699   8.610 -1.8250  2.6442  0.0806
  122MOL0     H16050  10.303   3.675   8.775 -3.1839  2.0086  0.3871
  122MOL0     H16051  10.529   3.759   8.735 -1.1952  1.1900  0.7709
  122MOL0     H16052  10.501   3.765   8.564  1.0327 -1.8889 -1.4178
  122MOL0     H16053  10.484   3.516   8.736 -0.6312 -0.5199  0.5113
  122MOL0     H16054  10.426   3.513   8.567 -1.3971  3.1329 -0.2288
  122MOL0     H16055  10.672   3.440   8.615  1.0613 -0.4739 -0.7618
  122MOL0     H16056  10.705   3.614   8.631  0.6079 -1.8528  0.8499
  122MOL0     H16057  10.553   3.369   8.383 -3.1059  1.4236 -0.6228
  122MOL0     H16058  10.658   3.330   8.097  0.5693  0.1285 -0.8834
  122MOL0     H16059  10.615   3.470   8.010 -2.0251  1.6022 -0.0005
  122MOL0     H16060  10.428   3.340   8.193 -1.7745  0.6725 -1.0036
  122MOL0     H16061  10.435   3.338   8.012  3.3960 -0.4685 -1.3174
  122MOL0     H16062  10.329   3.529   8.213  1.4886 -1.2694 -0.1711
  122MOL0     H16063  10.398   3.608   8.072 -1.5265  1.2407 -0.8966
  122MOL0     H16064  10.238   3.455   7.924 -0.6841  2.5729 -1.2305
  122MOL0     H16065  10.181   3.599   8.016 -0.4952  0.1327  1.0351
  122MOL0     H16066  10.014   3.527   7.859 -0.9286 -2.5408 -3.1798
  122MOL0     H16067   9.800   3.499   7.775 -0.9319 -1.8757  0.3395
  122MOL0     H16068   9.376   3.102   7.826 -2.7680 -0.9805 -1.6117
  122MOL0     H16069   9.138   3.093   7.802  0.2374 -0.2629  0.8965
  122MOL0     H16070   8.962   3.208   7.687 -1.8980  0.4600 -0.4440
  122MOL0     H16071   9.048   3.374   7.691 -1.8162  1.5087 -0.0308
  122MOL0     H16072   8.859   3.507   7.704  0.5360 -0.1265  1.5253
  122MOL0     H16073   8.745   3.374   7.735 -1.6371 -0.4622 -1.3476
  122MOL0     H16074   8.725   3.446   7.493  1.6592  3.0617  0.5471
  122MOL0     H16075   8.779   3.284   7.514  0.8521 -0.2596  1.4638
  122MOL0     H16076   9.000   3.491   7.485  2.2648 -2.0098 -0.4752
  122MOL0     H16077   8.982   3.328   7.454 -2.0104 -0.9759  1.0094
  122MOL0     H16078   8.848   3.556   7.293  1.9604  1.1228  2.6202
  122MOL0     H16079   8.829   3.389   7.252  1.1533 -2.8171  1.6668
  122MOL0     H16080   8.995   3.503   7.110  3.4000  3.4493  0.5157
  122MOL0     H16081   9.062   3.352   7.186 -1.3873 -0.9015 -1.1057
  122MOL0     H16082   9.127   3.626   7.298  2.1670  0.0619  0.5775
  122MOL0     H16083   9.175   3.465   7.358 -0.0949 -1.5399 -0.6240
  122MOL0     H16084   9.236   3.592   7.087  2.3322 -0.4341 -0.8236
  122MOL0     H16085   9.277   3.422   7.138 -1.4851 -0.2762  0.6477
  122MOL0     H16086   9.099   3.447   8.019 -0.7190 -1.0791  0.0424
  122MOL0     H16087   9.360   3.458   8.058  0.6814 -0.9634  0.6886
  122MOL0     H16088   9.674   3.340   8.163  0.2354 -0.4559  0.3147
  122MOL0     H16089   9.917   3.338   8.227 -0.6119  0.2066 -0.3539
  122MOL0     H16090   9.690   3.712   9.025 -1.1926 -0.7056  2.3230
  122MOL0     H16091   9.450   3.756   9.013 -0.5051  0.1601  0.2732
  122MOL0     H16092   9.115   4.130   8.916 -1.2215  0.7630 -1.5706
  122MOL0     H16093   8.938   4.129   8.763 -2.9970  0.3779  0.5841
  122MOL0     H16094   8.618   3.791   8.845 -1.0462  0.2457  0.1576
  122MOL0     H16095   8.682   3.729   8.696 -3.8842 -2.5954  1.9970
  122MOL0     H16096   8.504   3.969   8.741 -1.0101  0.8131 -1.1367
  122MOL0     H16097   8.532   3.893   8.578 -1.3764 -1.7735  0.1004
  122MOL0     H16098   8.355   3.801   8.795 -1.2139  0.3737  0.0698
  122MOL0     H16099   8.456   3.683   8.720 -2.9996 -1.1813  2.8214
  122MOL0     H16100   8.298   3.894   8.571  0.9580  0.3499 -2.0633
  122MOL0     H16101   8.355   3.744   8.496 -2.0429 -1.8245 -0.7890
  122MOL0     H16102   7.978   3.640   8.624 -0.8797  0.7208 -1.3134
  122MOL0     H16103   8.848   3.719   8.876 -0.4993 -0.8200 -0.3606
  122MOL0     H16104   9.053   3.718   8.999  0.7493 -1.1856 -1.3609
  123MOL0     O16105   1.564  10.828  10.503  0.2901  0.2026 -0.3846
  123MOL0     C16106   1.605  10.723  10.555  0.3453 -0.5431 -0.2876
  123MOL0     O16107   1.531  10.613  10.600  0.2712 -0.6040  0.8339
  123MOL0     C16108   1.402  10.595  10.548  0.5488 -0.0882 -0.5097
  123MOL0     C16109   1.321  10.518  10.633  0.5931  0.3123 -0.4033
  123MOL0     C16110   1.180  10.501  10.604  0.4597 -0.0236  0.3861
  123MOL0     C16111   1.136  10.540  10.476  0.1681  0.0002 -0.9599
  123MOL0     O16112   1.014  10.505  10.445 -0.1887  0.0362  0.3451
  123MOL0     C16113   0.993  10.440  10.321  0.1165 -0.0885  0.0613
  123MOL0     C16114   0.996  10.292  10.331  0.4904  0.4226  0.3717
  123MOL0     C16115   0.866  10.242  10.387 -0.6655  0.5241 -0.4222
  123MOL0     C16116   0.848  10.091  10.368 -0.1938  0.2035  0.7360
  123MOL0     C16117   0.719  10.049  10.293 -0.1603  0.0975  0.4528
  123MOL0     C16118   0.582  10.045  10.357 -0.7369  0.0363 -0.0965
  123MOL0     C16119   0.535  10.190  10.403 -0.0036  0.6311 -0.8296
  123MOL0     C16120   0.399  10.198  10.483  0.9765  0.2397  1.4426
  123MOL0     N16121   0.293  10.176  10.382 -0.3763 -0.4666 -0.3655
  123MOL0     C16122   0.252  10.061  10.327  0.9106  0.1222  0.4396
  123MOL0     C16123   0.137  10.092  10.261 -0.0382  0.3960 -0.4946
  123MOL0     C16124   0.043   9.991  10.200 -0.5530 -0.5393 -0.3024
  123MOL0     C16125  -0.088  10.059  10.161  0.1872  0.3722 -0.2155
  123MOL0     C16126  -0.187  10.091  10.273  0.6137  0.0412  0.0556
  123MOL0     C16127  -0.315  10.162  10.226 -0.1834  0.4377  0.1274
  123MOL0     O16128  -0.400  10.056  10.160  0.6729  0.3217  0.8616
  123MOL0     C16129  -0.522  10.097  10.109  0.1839  0.8474 -0.4544
  123MOL0     C16130  -0.591  10.001  10.026 -0.0156  0.2124  0.3390
  123MOL0     C16131  -0.713  10.042   9.962 -0.4059 -0.1464  0.0010
  123MOL0     C16132  -0.762  10.177   9.980 -0.1277  0.8676  0.1978
  123MOL0     C16133  -0.884  10.221   9.912 -0.2436  0.3807 -0.8339
  123MOL0     O16134  -0.938  10.135   9.825  0.1510 -0.6314  0.2736
  123MOL0     C16135  -1.036  10.180   9.738  0.5274 -0.0372 -1.5107
  123MOL0     C16136  -1.044  10.304   9.673  0.0285 -0.0279  0.2395
  123MOL0     C16137  -1.139  10.333   9.579  0.0123 -0.2204  0.0607
  123MOL0     C16138  -1.241  10.239   9.549  0.4477 -0.6091  0.5186
  123MOL0     O16139  -1.355  10.278   9.479 -0.1288 -0.2818 -0.3226
  123MOL0     C16140  -1.361  10.396   9.414 -0.8222 -0.0815  0.0003
  123MOL0     C16141  -1.457  10.383   9.294  1.1113  0.5017  0.8698
  123MOL0     C16142  -1.407  10.285   9.190 -0.3342  0.7162 -0.1251
  123MOL0     C16143  -1.514  10.263   9.074 -0.7456  0.2398 -0.4995
  123MOL0     C16144  -1.642  10.204   9.115  0.6783 -0.8036  0.0915
  123MOL0     C16145  -1.625  10.060   9.177 -0.4540 -0.0669 -0.7359
  123MOL0     C16146  -1.748   9.984   9.159  0.3645  0.3206  0.3261
  123MOL0     C16147  -1.873  10.053   9.200  0.4344  0.0924 -0.3569
  123MOL0    Cl16148  -1.876  10.118   9.360 -0.1783 -0.0912  0.4223
  123MOL0     C16149  -1.231  10.112   9.613  0.2800 -0.6942 -0.4576
  123MOL0     C16150  -1.125  10.087   9.701  0.3129 -0.2136 -0.6127
  123MOL0     O16151  -0.926  10.332   9.939 -0.1209 -0.7451  0.9718
  123MOL0     C16152  -0.686  10.262  10.067 -0.1523 -0.3104  0.2080
  123MOL0     C16153  -0.568  10.228  10.131  0.4478 -0.0416  0.3870
  123MOL0     N16154   0.115  10.235  10.273 -0.6747 -0.3278  0.6078
  123MOL0     N16155   0.211  10.280  10.350  0.7749  0.4923 -0.4825
  123MOL0     C16156   1.220  10.620  10.391  0.2386 -0.0521  0.2205
  123MOL0     C16157   1.348  10.643  10.429  0.0222 -0.3959  0.2536
  123MOL0     C16158   1.741  10.713  10.585 -0.6449 -0.4801 -1.2233
  123MOL0     C16159   1.834  10.815  10.548 -0.3501 -0.2892  0.3655
  123MOL0     C16160   1.966  10.802  10.592 -0.4383  0.9158 -0.4239
  123MOL0     C16161   2.008  10.681  10.660 -0.8466 -0.1129  0.1408
  123MOL0     O16162   2.143  10.660  10.690  0.5940 -0.6426 -0.2568
  123MOL0     C16163   2.225  10.775  10.688  0.3034  0.3233 -0.1101
  123MOL0     C16164   2.353  10.750  10.770  0.0801 -0.0859  0.5989
  123MOL0     C16165   2.449  10.861  10.731  0.4356  0.4922 -0.5455
  123MOL0     C16166   2.559  10.864  10.832  0.1698  0.0740  0.5999
  123MOL0     C16167   2.663  10.975  10.817  0.2844 -0.1037  0.3951
  123MOL0     C16168   2.746  11.062  10.794 -0.5279 -0.2897  0.6511
  123MOL0     C16169   1.917  10.590  10.705  0.0111 -0.3165  0.1527
  123MOL0     C16170   1.781  10.604  10.670  0.2502 -0.1558 -0.3325
  123MOL0     H16171   1.345  10.467  10.726  1.1003  0.1596 -0.6132
  123MOL0     H16172   1.102  10.478  10.676 -1.2059 -2.0673 -1.9049
  123MOL0     H16173   1.068  10.472  10.248  0.8609 -2.7856 -0.4775
  123MOL0     H16174   0.902  10.474  10.271  1.4833 -2.2370 -4.3653
  123MOL0     H16175   1.078  10.240  10.382  1.3617  0.3474 -1.0426
  123MOL0     H16176   1.001  10.252  10.229  0.4566  1.2248  0.0444
  123MOL0     H16177   0.787  10.299  10.338 -1.9015  1.2632  2.2630
  123MOL0     H16178   0.861  10.259  10.495 -0.7281  2.1464 -0.6515
  123MOL0     H16179   0.930  10.048  10.309  0.4312 -0.6260  2.1452
  123MOL0     H16180   0.873  10.035  10.459  3.3236 -1.1332 -0.8886
  123MOL0     H16181   0.727   9.946  10.255 -2.8071 -1.1693  2.9048
  123MOL0     H16182   0.721  10.109  10.203 -0.9673  1.3728  1.2600
  123MOL0     H16183   0.575   9.971  10.437 -0.6459 -1.0828 -1.0991
  123MOL0     H16184   0.520  10.014  10.273 -3.4103 -0.5050  1.9228
  123MOL0     H16185   0.612  10.218  10.476 -1.6487  1.8392  0.5193
  123MOL0     H16186   0.540  10.272  10.331  1.3929  1.6283  0.3377
  123MOL0     H16187   0.398  10.302  10.515  2.9927  0.1022  2.0978
  123MOL0     H16188   0.391  10.133  10.570 -2.0847  0.1546  1.2221
  123MOL0     H16189   0.290   9.960  10.339 -3.4557 -1.5163  2.4775
  123MOL0     H16190   0.017   9.909  10.269  1.5809 -0.0427  1.1869
  123MOL0     H16191   0.105   9.950  10.120 -1.9865  0.1841 -1.8471
  123MOL0     H16192  -0.144   9.985  10.103 -0.7656  1.5848 -0.8881
  123MOL0     H16193  -0.076  10.138  10.087  0.1702 -0.1724 -0.8025
  123MOL0     H16194  -0.214   9.994  10.315 -0.7088  0.8095  1.0638
  123MOL0     H16195  -0.154  10.161  10.350 -1.5842  1.4272 -0.1504
  123MOL0     H16196  -0.296  10.240  10.152  1.6102  0.7618  0.8966
  123MOL0     H16197  -0.362  10.211  10.312  0.0591  4.8548 -1.9877
  123MOL0     H16198  -0.541   9.905  10.017  2.1930  1.4949 -3.1344
  123MOL0     H16199  -0.757   9.969   9.895  2.1438 -2.1148  0.3129
  123MOL0     H16200  -0.976  10.384   9.702 -2.7822  2.0500  1.6785
  123MOL0     H16201  -1.121  10.433   9.540  0.6991 -0.5762 -0.5526
  123MOL0     H16202  -1.265  10.436   9.381 -1.0685 -0.2613 -0.9594
  123MOL0     H16203  -1.399  10.467   9.489  1.2716 -0.9287  1.9627
  123MOL0     H16204  -1.482  10.473   9.238 -2.7679  1.9627  4.3713
  123MOL0     H16205  -1.551  10.344   9.335  0.1044  0.8694 -0.9908
  123MOL0     H16206  -1.370  10.188   9.224  0.8260  1.0846 -0.2988
  123MOL0     H16207  -1.311  10.324   9.155  0.9259 -2.5864 -0.7453
  123MOL0     H16208  -1.534  10.355   9.019  3.5385  2.1376  0.7022
  123MOL0     H16209  -1.465  10.199   9.000 -0.6879 -1.0322  0.5976
  123MOL0     H16210  -1.696  10.202   9.020  2.1269  0.0967 -0.7906
  123MOL0     H16211  -1.702  10.272   9.177 -1.8443 -1.2408 -1.7106
  123MOL0     H16212  -1.601  10.075   9.283 -0.2034 -0.6929 -0.6988
  123MOL0     H16213  -1.542  10.003   9.134  0.3321  0.4732  0.0400
  123MOL0     H16214  -1.757   9.966   9.052  0.0133 -0.3399  0.4638
  123MOL0     H16215  -1.741   9.891   9.216 -1.5154  1.1863  2.1229
  123MOL0     H16216  -1.941   9.967   9.198  3.0760 -2.1669 -1.8721
  123MOL0     H16217  -1.905  10.121   9.121 -0.4003  0.7818  0.5575
  123MOL0     H16218  -1.312  10.047   9.581 -2.3138  2.0114  0.0948
  123MOL0     H16219  -1.095   9.993   9.747 -0.4055 -0.9928 -1.6960
  123MOL0     H16220  -0.712  10.365  10.091  1.5791  0.0432  0.6759
  123MOL0     H16221  -0.517  10.299  10.195  2.2786  3.2835 -4.1963
  123MOL0     H16222   1.192  10.653  10.292 -0.4462  3.0198  1.3045
  123MOL0     H16223   1.416  10.700  10.366  0.6550 -0.6000  0.7379
  123MOL0     H16224   1.800  10.908  10.503 -1.3166 -0.3608  0.9277
  123MOL0     H16225   2.040  10.874  10.560  1.3501 -0.7642 -0.2428
  123MOL0     H16226   2.171  10.858  10.735 -1.4687  1.0047 -3.1274
  123MOL0     H16227   2.250  10.799  10.585 -0.8211 -1.0236 -0.7311
  123MOL0     H16228   2.327  10.760  10.876  0.7573 -1.3585  0.9062
  123MOL0     H16229   2.400  10.652  10.760 -0.4186 -0.2049 -0.8250
  123MOL0     H16230   2.387  10.951  10.728 -1.9297 -1.0314 -0.5564
  123MOL0     H16231   2.494  10.856  10.632 -2.4320  1.3251 -1.9966
  123MOL0     H16232   2.513  10.868  10.931 -1.0609  0.1475  0.0431
  123MOL0     H16233   2.602  10.765  10.815  1.2013  0.5906  0.0809
  123MOL0     H16234   2.814  11.137  10.759  2.3473 -2.8645  0.2430
  123MOL0     H16235   1.946  10.507  10.769  1.6015  0.8624  1.0404
  123MOL0     H16236   1.727  10.518  10.709  0.3684  0.6072  1.6111
  124MOL0     O16237   3.938   2.232   0.902 -0.1646 -0.6432 -0.3015
  124MOL0     C16238   3.984   2.165   0.989 -0.4906  0.4900  0.8837
  124MOL0     O16239   3.908   2.104   1.084 -0.0383 -0.3843 -0.6885
  124MOL0     C16240   3.770   2.099   1.070  0.4333 -0.1709 -0.0985
  124MOL0     C16241   3.700   1.990   1.026  0.0216  1.1078  0.1232
  124MOL0     C16242   3.564   1.996   1.012 -0.5464  0.2543  0.8181
  124MOL0     C16243   3.492   2.109   1.011  0.7116  0.3589  0.5659
  124MOL0     O16244   3.351   2.111   1.010 -0.7385 -0.1634  1.0574
  124MOL0     C16245   3.292   2.234   1.037 -0.1671  0.3906 -0.0597
  124MOL0     C16246   3.143   2.199   1.030  0.3506 -0.4050 -0.2224
  124MOL0     C16247   3.047   2.311   1.076 -0.5341 -0.2360 -0.6464
  124MOL0     C16248   3.059   2.439   0.986 -0.2133 -0.1254  0.4722
  124MOL0     C16249   2.947   2.546   1.000 -0.2780 -0.0499 -0.0145
  124MOL0     C16250   2.959   2.617   1.133  0.5060  0.0399 -0.2685
  124MOL0     C16251   2.850   2.730   1.125 -0.6205  0.0672 -0.2226
  124MOL0     C16252   2.820   2.773   1.272  0.5805 -0.4824  0.1425
  124MOL0     N16253   2.710   2.872   1.282  0.0680  0.1310  0.0233
  124MOL0     C16254   2.706   2.991   1.216 -1.9005 -0.5636  0.3825
  124MOL0     C16255   2.594   3.056   1.252 -0.9817  0.9558  0.3101
  124MOL0     C16256   2.534   3.172   1.177 -0.7943  0.3591 -0.2275
  124MOL0     C16257   2.393   3.213   1.222  0.5101  0.0461 -0.1124
  124MOL0     C16258   2.293   3.110   1.167  0.0467 -0.4363  0.0964
  124MOL0     C16259   2.147   3.144   1.212  0.2323 -0.1114 -0.1467
  124MOL0     O16260   2.077   3.048   1.123 -0.2190 -0.3793 -0.5366
  124MOL0     C16261   1.945   3.074   1.102 -0.0474  0.9513  0.7308
  124MOL0     C16262   1.880   3.007   0.998  0.5168 -0.3414 -0.7682
  124MOL0     C16263   1.743   3.020   0.986  0.2926 -0.4989  0.3867
  124MOL0     C16264   1.666   3.086   1.074  1.1508 -0.2621 -0.4730
  124MOL0     C16265   1.524   3.098   1.048 -0.1726 -0.5171 -0.0471
  124MOL0     O16266   1.472   3.032   0.946 -0.2085 -0.0061 -0.2536
  124MOL0     C16267   1.334   3.028   0.940 -0.8662  0.4695 -0.7252
  124MOL0     C16268   1.278   2.921   1.006 -0.3397  0.2899  0.3060
  124MOL0     C16269   1.132   2.917   0.997 -0.3437  0.2286  0.6793
  124MOL0     C16270   1.059   3.003   0.912 -0.8350  0.1719  0.6420
  124MOL0     O16271   0.923   3.003   0.899  0.8791  0.2814  0.2577
  124MOL0     C16272   0.872   2.896   0.816 -0.1032  0.1744 -0.3977
  124MOL0     C16273   0.718   2.897   0.819  0.3946  0.3414 -0.1511
  124MOL0     C16274   0.659   2.909   0.965 -0.0219 -0.2283 -0.7648
  124MOL0     C16275   0.508   2.892   0.976 -0.8634 -0.1764  0.6066
  124MOL0     C16276   0.436   2.988   0.884  0.6291 -0.9454 -0.0315
  124MOL0     C16277   0.285   2.978   0.912 -0.3450 -1.0671  0.4165
  124MOL0     C16278   0.215   3.044   0.791 -0.0941 -0.1965  0.3140
  124MOL0     C16279   0.064   3.003   0.786 -1.0174  0.0958  0.7216
  124MOL0    Cl16280   0.046   2.824   0.766  0.1774  0.2407 -0.3358
  124MOL0     C16281   1.134   3.102   0.847  0.7012 -1.1880  0.4522
  124MOL0     C16282   1.267   3.108   0.854 -0.9777  0.2377  0.1694
  124MOL0     O16283   1.457   3.168   1.124  0.7434 -0.5747  0.6718
  124MOL0     C16284   1.736   3.165   1.160 -0.0131 -0.1186 -0.3189
  124MOL0     C16285   1.877   3.158   1.181  0.6682  0.0077  0.2769
  124MOL0     N16286   2.533   2.987   1.355 -0.5423 -0.3130 -0.0878
  124MOL0     N16287   2.609   2.881   1.375  0.5172 -1.0147  0.2627
  124MOL0     C16288   3.563   2.226   1.039  0.1299 -0.8062 -0.5881
  124MOL0     C16289   3.706   2.223   1.071 -0.5694 -0.2168 -0.0401
  124MOL0     C16290   4.130   2.156   0.994 -0.3861  0.2615  0.1807
  124MOL0     C16291   4.196   2.056   1.071 -0.4575 -0.5773  0.2765
  124MOL0     C16292   4.332   2.040   1.062  0.9004  0.4623 -0.2395
  124MOL0     C16293   4.412   2.114   0.973 -0.4243 -0.5977 -0.4571
  124MOL0     O16294   4.552   2.100   0.985  0.7662  0.0646  0.5430
  124MOL0     C16295   4.634   2.201   0.929 -0.2815 -0.9826  0.1271
  124MOL0     C16296   4.783   2.158   0.950  0.1477 -0.8316  0.6696
  124MOL0     C16297   4.891   2.204   0.840  1.0141 -0.6493  0.2803
  124MOL0     C16298   5.015   2.114   0.805  0.1435 -0.0444  0.1831
  124MOL0     C16299   5.104   2.092   0.922  0.1299 -0.5440 -0.1955
  124MOL0     C16300   5.176   2.066   1.016  0.1230 -1.3893 -0.4861
  124MOL0     C16301   4.349   2.209   0.894 -0.1226 -1.0558 -0.2516
  124MOL0     C16302   4.214   2.229   0.905  0.0807  0.0775 -0.6445
  124MOL0     H16303   3.751   1.894   1.028  2.0334  2.1168  1.9230
  124MOL0     H16304   3.504   1.908   0.991 -1.1062  0.5179  1.2930
  124MOL0     H16305   3.295   2.304   0.952 -3.7317  1.9653  0.9169
  124MOL0     H16306   3.317   2.287   1.129 -0.7313  1.8643 -0.7126
  124MOL0     H16307   3.135   2.114   1.099  2.7761 -0.1861  0.4431
  124MOL0     H16308   3.127   2.162   0.929  1.6624 -2.3125  0.2046
  124MOL0     H16309   3.050   2.324   1.184  1.1821  3.9230 -0.9905
  124MOL0     H16310   2.949   2.266   1.063 -0.3638 -0.4776 -1.1271
  124MOL0     H16311   3.149   2.497   1.010  0.7319 -0.4003 -2.0757
  124MOL0     H16312   3.075   2.402   0.885  2.2130  1.9346  0.0007
  124MOL0     H16313   2.854   2.493   0.976  0.8111 -2.4267  0.7860
  124MOL0     H16314   2.953   2.621   0.920 -1.3321  0.9944  0.8513
  124MOL0     H16315   3.060   2.654   1.154  1.0538 -0.4384 -1.9006
  124MOL0     H16316   2.924   2.556   1.217 -0.1284 -0.6859 -1.0358
  124MOL0     H16317   2.888   2.815   1.067 -2.0879  0.6334 -0.3997
  124MOL0     H16318   2.759   2.682   1.086 -0.4989  1.3344 -2.2480
  124MOL0     H16319   2.914   2.820   1.303 -0.0275  0.0606  1.1890
  124MOL0     H16320   2.799   2.685   1.333 -1.7110 -2.0423 -2.6689
  124MOL0     H16321   2.770   3.008   1.130 -4.6580  0.3657 -1.6158
  124MOL0     H16322   2.535   3.136   1.074 -0.2500  0.4362 -0.2496
  124MOL0     H16323   2.591   3.265   1.169 -1.2386  0.6145 -0.4981
  124MOL0     H16324   2.380   3.314   1.182  0.7578 -0.8362 -2.5528
  124MOL0     H16325   2.384   3.208   1.331  1.3962 -3.5410 -0.0664
  124MOL0     H16326   2.299   3.097   1.059 -1.8642  1.7335 -0.3289
  124MOL0     H16327   2.312   3.014   1.217 -0.0072  0.8180  2.6863
  124MOL0     H16328   2.125   3.248   1.185 -0.9451 -0.8192 -2.0678
  124MOL0     H16329   2.126   3.135   1.319 -0.0832  1.1540 -0.0802
  124MOL0     H16330   1.937   2.937   0.939  1.3654  0.1370 -0.5269
  124MOL0     H16331   1.690   2.954   0.918 -4.0531  0.6853  2.2274
  124MOL0     H16332   1.338   2.855   1.069  0.6015  0.5838 -0.2486
  124MOL0     H16333   1.084   2.844   1.062 -0.4288  2.2044  3.0101
  124MOL0     H16334   0.903   2.799   0.856  1.2725  0.8311  0.1806
  124MOL0     H16335   0.918   2.899   0.717  3.1219 -2.0919  0.8317
  124MOL0     H16336   0.695   2.797   0.782 -0.8746  1.1610 -1.6518
  124MOL0     H16337   0.666   2.971   0.757 -2.9916 -1.1359  0.6940
  124MOL0     H16338   0.681   3.008   1.005  0.4552 -0.9814  0.9364
  124MOL0     H16339   0.702   2.833   1.031 -2.2622 -1.3049 -0.4318
  124MOL0     H16340   0.478   2.788   0.960 -0.2581 -0.1636 -0.7846
  124MOL0     H16341   0.483   2.915   1.079 -0.6078 -0.6878  0.7842
  124MOL0     H16342   0.457   2.964   0.779  1.2704 -0.9939  0.1034
  124MOL0     H16343   0.478   3.087   0.905 -0.5169 -0.8060  1.7616
  124MOL0     H16344   0.247   3.036   0.996  0.6531 -0.1347  0.2457
  124MOL0     H16345   0.247   2.875   0.921 -0.1626 -1.6381 -3.4631
  124MOL0     H16346   0.239   3.150   0.787  0.2792 -0.3077 -0.4955
  124MOL0     H16347   0.265   3.003   0.703  4.0151  0.9164  1.8741
  124MOL0     H16348   0.018   3.057   0.703 -0.2132  0.4435  0.4900
  124MOL0     H16349   0.003   3.028   0.873 -2.8410  2.0053 -0.9731
  124MOL0     H16350   1.086   3.166   0.774  2.1800  0.0759  0.5564
  124MOL0     H16351   1.325   3.170   0.785  1.9393 -3.6384 -1.2404
  124MOL0     H16352   1.668   3.226   1.220 -0.2813 -0.1787 -0.5585
  124MOL0     H16353   1.922   3.231   1.247  0.6479  2.0226 -1.7645
  124MOL0     H16354   3.518   2.325   1.043  1.7519  0.0036 -1.1061
  124MOL0     H16355   3.766   2.304   1.112  0.5042 -0.5064 -0.9725
  124MOL0     H16356   4.127   1.995   1.128 -2.0880  0.0881 -0.9136
  124MOL0     H16357   4.373   1.966   1.130  0.6094  0.9570  0.5022
  124MOL0     H16358   4.604   2.298   0.972  1.2449 -0.5015  0.1457
  124MOL0     H16359   4.628   2.205   0.820  2.3334 -2.1798 -0.1172
  124MOL0     H16360   4.809   2.207   1.044  0.4532  1.4377 -0.5278
  124MOL0     H16361   4.789   2.049   0.962 -0.5749 -0.8776  0.6987
  124MOL0     H16362   4.932   2.302   0.866  1.1888 -0.4075 -0.8759
  124MOL0     H16363   4.844   2.227   0.744  0.0656 -2.5358  0.2425
  124MOL0     H16364   4.973   2.013   0.797 -1.8384  0.3374  3.6404
  124MOL0     H16365   5.068   2.144   0.715  0.4868 -0.7024  0.1589
  124MOL0     H16366   5.245   2.056   1.097 -2.2701 -0.3535  1.8327
  124MOL0     H16367   4.405   2.273   0.827 -2.6298 -0.2788 -1.7290
  124MOL0     H16368   4.174   2.308   0.843 -0.4387  0.5460  0.2704
  125MOL0     O16369   9.557   1.512   2.898 -0.1681  0.4459 -0.3619
  125MOL0     C16370   9.523   1.399   2.933  1.3287 -0.3958 -0.3069
  125MOL0     O16371   9.395   1.361   2.952  0.0854  0.4204  0.1220
  125MOL0     C16372   9.278   1.431   2.920  0.7165 -0.2084  0.2675
  125MOL0     C16373   9.160   1.369   2.947 -0.4845  0.0518 -0.6532
  125MOL0     C16374   9.035   1.430   2.928  0.3279 -0.2989  0.7201
  125MOL0     C16375   9.028   1.556   2.875 -0.4600 -0.2059  0.4671
  125MOL0     O16376   8.903   1.610   2.837 -0.4607  1.1553  0.1375
  125MOL0     C16377   8.897   1.692   2.720  0.4651 -0.1504  0.0002
  125MOL0     C16378   8.756   1.692   2.663 -0.6768 -0.3804  0.9120
  125MOL0     C16379   8.783   1.760   2.526  0.8747  0.6012 -0.5572
  125MOL0     C16380   8.652   1.744   2.452  0.5599  0.4883  0.3238
  125MOL0     C16381   8.661   1.767   2.301 -0.2719  1.1211 -0.6712
  125MOL0     C16382   8.526   1.730   2.239 -0.9639  0.3403 -0.0806
  125MOL0     C16383   8.488   1.807   2.115  0.1653 -0.5205  0.7079
  125MOL0     C16384   8.380   1.746   2.022 -0.3082  0.0281 -0.3651
  125MOL0     N16385   8.366   1.827   1.905  0.9958 -1.0667 -0.2133
  125MOL0     C16386   8.254   1.910   1.875  0.7274 -0.0123  0.7174
  125MOL0     C16387   8.290   2.004   1.783 -0.3412  0.8350  0.7692
  125MOL0     C16388   8.202   2.102   1.709  0.4722  0.5252  0.2861
  125MOL0     C16389   8.167   2.220   1.799  0.7328 -0.0397  0.4003
  125MOL0     C16390   8.088   2.340   1.741  0.2406 -0.2881  0.1080
  125MOL0     C16391   7.941   2.326   1.766  0.1643 -0.1169  1.5902
  125MOL0     O16392   7.895   2.205   1.711 -0.3713  0.2013  0.0976
  125MOL0     C16393   7.760   2.191   1.715 -0.9165 -0.8164 -0.0250
  125MOL0     C16394   7.672   2.238   1.809 -0.1818  0.2542  0.1989
  125MOL0     C16395   7.531   2.216   1.796 -0.0821 -0.8748  0.3098
  125MOL0     C16396   7.483   2.141   1.685  0.6273 -0.7073 -0.0602
  125MOL0     C16397   7.339   2.137   1.663 -0.0968 -0.6549 -0.4468
  125MOL0     O16398   7.269   2.228   1.737  0.5765  0.2340  0.1517
  125MOL0     C16399   7.161   2.284   1.693 -0.0688 -0.7164  0.4973
  125MOL0     C16400   7.036   2.265   1.756  0.4755 -0.9537  0.4060
  125MOL0     C16401   6.918   2.325   1.702 -0.0507  0.6999  0.2411
  125MOL0     C16402   6.922   2.406   1.588  0.1145 -0.1404  0.2076
  125MOL0     O16403   6.796   2.435   1.536 -0.3321  0.9943 -0.5766
  125MOL0     C16404   6.787   2.504   1.414  0.2346  0.3404 -0.1188
  125MOL0     C16405   6.788   2.405   1.303 -0.7356  0.0008  0.5880
  125MOL0     C16406   6.670   2.318   1.297  1.4428  1.2251 -0.5365
  125MOL0     C16407   6.687   2.201   1.214 -0.5191  0.5490 -0.1841
  125MOL0     C16408   6.549   2.147   1.161 -0.5093 -0.1727 -0.6423
  125MOL0     C16409   6.460   2.094   1.271  0.0538  0.8441 -0.7325
  125MOL0     C16410   6.488   1.942   1.294  0.0133  0.2856 -1.0757
  125MOL0     C16411   6.421   1.835   1.208  0.4302  0.8476 -0.1114
  125MOL0    Cl16412   6.247   1.822   1.255  0.1663 -0.3984 -0.1204
  125MOL0     C16413   7.053   2.436   1.536  0.1114 -0.6449  0.1678
  125MOL0     C16414   7.168   2.365   1.579 -0.4130 -0.6502 -0.4215
  125MOL0     O16415   7.302   2.074   1.561  0.3410  0.1256  0.1503
  125MOL0     C16416   7.571   2.075   1.601  0.3917  0.4650 -0.1145
  125MOL0     C16417   7.705   2.102   1.622 -0.2036  0.7708 -0.8587
  125MOL0     N16418   8.420   1.973   1.749 -0.3173  0.3615  0.4356
  125MOL0     N16419   8.467   1.872   1.828 -1.1142 -0.0265 -0.3278
  125MOL0     C16420   9.147   1.628   2.861  0.1107  0.5587 -0.3023
  125MOL0     C16421   9.270   1.565   2.888 -0.0109 -0.3884 -0.0242
  125MOL0     C16422   9.620   1.290   2.956 -0.6036  0.2142  0.7029
  125MOL0     C16423   9.764   1.326   2.954  0.5445 -0.2425 -0.3177
  125MOL0     C16424   9.853   1.221   2.973 -0.4239 -0.4754  0.7676
  125MOL0     C16425   9.817   1.088   3.007  0.8483  0.6235  0.3167
  125MOL0     O16426   9.907   0.984   3.014  0.5227  0.7097  0.6226
  125MOL0     C16427  10.029   1.003   2.934 -0.3435 -0.1460 -0.3484
  125MOL0     C16428  10.090   0.863   2.921 -0.8791 -0.1759  0.1261
  125MOL0     C16429  10.229   0.854   2.865 -1.4174 -0.1098 -0.2571
  125MOL0     C16430  10.259   0.721   2.803  0.6824  0.2381  0.2067
  125MOL0     C16431  10.388   0.703   2.737 -0.1338 -0.4325 -0.5169
  125MOL0     C16432  10.502   0.698   2.692  1.0125 -0.7164 -0.2092
  125MOL0     C16433   9.683   1.055   3.000  0.7552  0.1053 -1.3327
  125MOL0     C16434   9.589   1.163   2.984  0.2329  0.3195 -0.8871
  125MOL0     H16435   9.166   1.266   2.979 -1.3168  0.2495  0.1963
  125MOL0     H16436   8.943   1.381   2.957  0.1247  0.5618  1.5819
  125MOL0     H16437   8.963   1.659   2.639 -1.0580 -1.3382 -0.8164
  125MOL0     H16438   8.923   1.794   2.747 -2.5149  0.4265  1.0419
  125MOL0     H16439   8.684   1.753   2.719 -1.4681  0.1864 -0.6675
  125MOL0     H16440   8.721   1.591   2.640  0.6505 -0.4167 -1.1694
  125MOL0     H16441   8.858   1.712   2.462  1.4994  1.4969 -0.5325
  125MOL0     H16442   8.797   1.868   2.540 -3.6751  1.8170 -3.2108
  125MOL0     H16443   8.626   1.638   2.462 -0.8580  0.8224  0.4055
  125MOL0     H16444   8.569   1.796   2.502 -0.2085  0.8762 -1.2668
  125MOL0     H16445   8.728   1.695   2.253 -3.4184 -1.5260 -1.4778
  125MOL0     H16446   8.689   1.868   2.270  0.3855  0.6910 -1.5434
  125MOL0     H16447   8.448   1.756   2.312  0.9483  0.6601  1.9385
  125MOL0     H16448   8.529   1.623   2.219  0.7178  0.1712  0.8892
  125MOL0     H16449   8.471   1.913   2.136  1.9555  0.3040 -1.5517
  125MOL0     H16450   8.580   1.814   2.056  0.8147 -0.0240  1.7700
  125MOL0     H16451   8.286   1.732   2.075 -1.6406 -0.9915 -2.8438
  125MOL0     H16452   8.416   1.647   1.992 -0.2759 -0.0581 -0.0475
  125MOL0     H16453   8.157   1.908   1.922  0.8679 -2.8604  1.0374
  125MOL0     H16454   8.107   2.051   1.690  0.8355 -0.6523  1.5303
  125MOL0     H16455   8.246   2.143   1.617 -2.6313  1.8196 -0.7497
  125MOL0     H16456   8.265   2.263   1.821  0.7232  1.3755 -1.9498
  125MOL0     H16457   8.119   2.189   1.892 -0.3418  0.2310 -0.0435
  125MOL0     H16458   8.108   2.430   1.800  1.2953 -1.5808  1.8084
  125MOL0     H16459   8.106   2.351   1.633  0.5786 -1.2763  0.0533
  125MOL0     H16460   7.898   2.418   1.725  0.4563  0.3753  2.3570
  125MOL0     H16461   7.931   2.326   1.875 -0.9428  0.4618  1.5045
  125MOL0     H16462   7.702   2.309   1.885 -1.1285  0.5702  0.2951
  125MOL0     H16463   7.458   2.264   1.860 -2.6629 -0.3363 -2.7498
  125MOL0     H16464   7.032   2.210   1.850 -0.9996 -1.4868  0.0680
  125MOL0     H16465   6.828   2.319   1.764 -0.1968  1.0853  0.0740
  125MOL0     H16466   6.873   2.571   1.401  2.4481 -1.8792  2.0488
  125MOL0     H16467   6.699   2.569   1.411  1.3271  1.8617 -3.0819
  125MOL0     H16468   6.880   2.348   1.310  1.1170  2.9444  2.2634
  125MOL0     H16469   6.798   2.458   1.208  2.8135  0.0394  0.8812
  125MOL0     H16470   6.578   2.371   1.270 -0.4245 -1.0310  0.9920
  125MOL0     H16471   6.647   2.282   1.398  2.4657  0.0768 -0.6941
  125MOL0     H16472   6.757   2.223   1.132  0.6205 -1.3194  0.2243
  125MOL0     H16473   6.729   2.124   1.279 -0.5169 -0.1358 -0.9797
  125MOL0     H16474   6.571   2.059   1.101 -0.1760 -1.4257  1.2503
  125MOL0     H16475   6.497   2.218   1.096 -2.8448  1.1815  2.4138
  125MOL0     H16476   6.362   2.106   1.224  0.2635  1.2742 -1.0707
  125MOL0     H16477   6.438   2.156   1.358 -1.8188  3.4756 -2.9071
  125MOL0     H16478   6.592   1.926   1.267  0.0768  0.0379 -0.6940
  125MOL0     H16479   6.464   1.917   1.398  0.6798  2.4737 -0.3592
  125MOL0     H16480   6.464   1.736   1.228 -0.1614  0.3669 -1.1251
  125MOL0     H16481   6.429   1.854   1.101  0.5563  2.1972  0.1305
  125MOL0     H16482   7.058   2.501   1.450 -1.0791  0.2129  0.7287
  125MOL0     H16483   7.268   2.381   1.540 -0.5441  0.8641 -0.2065
  125MOL0     H16484   7.528   2.002   1.533 -0.6508 -0.4332  1.4371
  125MOL0     H16485   7.783   2.047   1.571 -0.0885 -1.6125  1.6898
  125MOL0     H16486   9.136   1.729   2.824 -3.6703  1.0025  1.5489
  125MOL0     H16487   9.357   1.629   2.876  0.3142 -0.5190  1.4485
  125MOL0     H16488   9.790   1.424   2.916 -3.0529  1.9100  2.1999
  125MOL0     H16489   9.955   1.251   2.953 -1.8224  4.6030 -0.1808
  125MOL0     H16490  10.093   1.078   2.980  0.6689  0.1688 -2.1561
  125MOL0     H16491   9.993   1.048   2.840 -1.2622 -1.0116 -0.4298
  125MOL0     H16492  10.086   0.823   3.023 -1.0264 -1.7328 -0.4574
  125MOL0     H16493  10.021   0.806   2.857  0.8940 -0.2731 -1.8067
  125MOL0     H16494  10.300   0.868   2.946 -3.0738  2.5470  0.8782
  125MOL0     H16495  10.237   0.930   2.786 -0.9517  1.6876  1.4455
  125MOL0     H16496  10.246   0.647   2.882  1.3532 -0.2578 -0.1371
  125MOL0     H16497  10.188   0.690   2.725  0.4961 -1.3340  0.9620
  125MOL0     H16498  10.599   0.684   2.648 -0.3382 -4.3849 -2.4445
  125MOL0     H16499   9.645   0.953   3.003  0.9792  0.0466  1.1844
  125MOL0     H16500   9.487   1.129   2.966  0.5511 -0.1417 -1.8931
  126MOL0     O16501   9.734   4.214   2.888 -0.5102 -0.0188 -0.4607
  126MOL0     C16502   9.797   4.220   2.782  0.7316 -0.4805 -0.5763
  126MOL0     O16503   9.752   4.274   2.665 -0.0874  0.4019  0.4722
  126MOL0     C16504   9.627   4.317   2.666  0.0886 -0.6115  0.1290
  126MOL0     C16505   9.591   4.433   2.736 -0.1712  0.4749 -0.4920
  126MOL0     C16506   9.457   4.460   2.739  0.6244  0.5843 -0.4023
  126MOL0     C16507   9.364   4.372   2.683 -0.4572 -0.3660  1.0299
  126MOL0     O16508   9.235   4.394   2.672  0.3012 -0.2689 -0.7869
  126MOL0     C16509   9.162   4.499   2.740 -0.1628 -0.5583  0.8787
  126MOL0     C16510   9.121   4.618   2.653 -0.9313  0.3550  0.6607
  126MOL0     C16511   9.049   4.717   2.741  0.1099 -0.8453 -0.6029
  126MOL0     C16512   8.953   4.808   2.667 -0.2390  0.9905  0.4786
  126MOL0     C16513   8.894   4.912   2.762  0.0982 -0.0155 -0.5056
  126MOL0     C16514   8.753   4.974   2.712  0.5300  0.4123  0.7268
  126MOL0     C16515   8.710   5.091   2.806 -0.4311 -0.3090  0.6684
  126MOL0     C16516   8.775   5.235   2.781  0.5052  0.0834  0.8268
  126MOL0     N16517   8.710   5.335   2.868  0.6543 -0.2933 -0.2588
  126MOL0     C16518   8.687   5.469   2.835 -0.0547  0.1363 -0.2676
  126MOL0     C16519   8.662   5.527   2.954 -0.1859 -0.7627  0.2920
  126MOL0     C16520   8.643   5.674   2.962  0.4219 -0.0348 -0.4691
  126MOL0     C16521   8.490   5.702   2.952 -0.3606  0.2663  0.7587
  126MOL0     C16522   8.433   5.703   2.806  0.4767 -0.0827  0.3478
  126MOL0     C16523   8.471   5.823   2.721  0.2296  0.3385  0.0883
  126MOL0     O16524   8.451   5.947   2.784  0.4131 -0.1365 -0.9276
  126MOL0     C16525   8.315   5.969   2.807 -0.6322  0.2536 -0.0341
  126MOL0     C16526   8.202   5.931   2.736 -0.4449  0.1323  0.5644
  126MOL0     C16527   8.074   5.986   2.750 -1.1460 -0.4331  0.4773
  126MOL0     C16528   8.058   6.089   2.841 -0.5981  0.0654 -0.2364
  126MOL0     C16529   7.929   6.150   2.867 -0.3026 -1.2321 -0.3788
  126MOL0     O16530   7.923   6.255   2.953  0.0494 -0.0860  0.1550
  126MOL0     C16531   7.797   6.291   2.994  0.3397 -0.3015  0.0536
  126MOL0     C16532   7.725   6.202   3.068  0.1376 -0.3586 -0.4839
  126MOL0     C16533   7.593   6.231   3.114 -0.2484  0.1171  0.0369
  126MOL0     C16534   7.542   6.362   3.094 -1.1170 -0.4024 -0.2702
  126MOL0     O16535   7.420   6.390   3.149 -0.1116 -0.2592 -0.3436
  126MOL0     C16536   7.338   6.508   3.114 -0.2978  0.9719  0.4764
  126MOL0     C16537   7.278   6.496   2.971 -0.6123 -0.6242 -0.3794
  126MOL0     C16538   7.172   6.379   2.961  0.4623  0.1519  0.2286
  126MOL0     C16539   7.132   6.326   2.822 -0.3455  0.5497  0.5320
  126MOL0     C16540   7.256   6.301   2.735 -1.0934 -0.4118 -0.0325
  126MOL0     C16541   7.357   6.205   2.806  0.1540 -0.8835 -0.0660
  126MOL0     C16542   7.473   6.176   2.705  0.6585  0.1497  0.1055
  126MOL0     C16543   7.560   6.305   2.687 -0.1840  0.6895 -0.4549
  126MOL0    Cl16544   7.525   6.371   2.539  0.2575  0.0337 -0.1023
  126MOL0     C16545   7.617   6.460   3.018  0.0409  0.6829 -0.6157
  126MOL0     C16546   7.746   6.419   2.962 -0.5036  0.7324 -0.3862
  126MOL0     O16547   7.837   6.100   2.804  0.0838 -0.4351  0.4482
  126MOL0     C16548   8.169   6.131   2.914  1.2686  0.5115  0.4149
  126MOL0     C16549   8.295   6.069   2.898  0.2081 -0.1046 -0.0004
  126MOL0     N16550   8.652   5.440   3.058  0.0772 -0.3518  0.6977
  126MOL0     N16551   8.676   5.323   2.999 -0.7552  0.1034 -0.5371
  126MOL0     C16552   9.410   4.272   2.601  0.4442  0.4832 -0.3286
  126MOL0     C16553   9.546   4.243   2.587  0.0249  0.1454  0.3498
  126MOL0     C16554   9.948   4.191   2.775 -0.2933  0.0544 -0.4355
  126MOL0     C16555  10.031   4.210   2.673 -0.8125 -0.2765  0.5807
  126MOL0     C16556  10.172   4.189   2.679  0.5909 -0.1406  0.0564
  126MOL0     C16557  10.234   4.153   2.799  0.7855  1.4086  0.0524
  126MOL0     O16558  10.373   4.144   2.796 -0.1227 -0.1053 -0.0063
  126MOL0     C16559  10.461   4.129   2.913 -0.2575 -0.2908 -0.0546
  126MOL0     C16560  10.603   4.153   2.866  0.1892  0.8863  0.3116
  126MOL0     C16561  10.701   4.122   2.977 -0.6248  0.2078  0.2712
  126MOL0     C16562  10.845   4.137   2.930 -0.4589 -0.2073  0.2537
  126MOL0     C16563  10.881   4.274   2.898 -0.7590  0.0016  0.7487
  126MOL0     C16564  10.884   4.392   2.862  0.4642 -0.4006  0.3456
  126MOL0     C16565  10.151   4.132   2.912  0.2097  0.7392 -0.3758
  126MOL0     C16566  10.008   4.151   2.896 -0.6479  0.3154 -0.7206
  126MOL0     H16567   9.660   4.492   2.796  2.9611 -0.7199 -2.6566
  126MOL0     H16568   9.432   4.552   2.790  1.1074 -0.5515  2.0274
  126MOL0     H16569   9.231   4.539   2.815  1.0345 -2.4735  0.8444
  126MOL0     H16570   9.083   4.457   2.803  1.3591 -3.4267  1.0382
  126MOL0     H16571   9.062   4.578   2.570  0.4579  0.3731 -0.3740
  126MOL0     H16572   9.202   4.666   2.596  0.8487 -3.1357 -0.0177
  126MOL0     H16573   9.122   4.777   2.797 -0.0056  0.7611 -2.1012
  126MOL0     H16574   8.996   4.664   2.821  1.2501  0.4823  1.0956
  126MOL0     H16575   9.014   4.850   2.586  0.8441 -3.0891 -1.0383
  126MOL0     H16576   8.873   4.758   2.612  2.8557 -1.8193 -1.8355
  126MOL0     H16577   8.974   4.981   2.790  2.5718 -2.0788 -1.9999
  126MOL0     H16578   8.883   4.869   2.861  1.3587  1.6065  0.4078
  126MOL0     H16579   8.674   4.899   2.713  1.5994 -0.7624  0.8022
  126MOL0     H16580   8.771   5.008   2.610  0.5043 -0.9999  0.2246
  126MOL0     H16581   8.602   5.103   2.802 -0.3933  0.0147  0.5826
  126MOL0     H16582   8.718   5.050   2.907 -3.4157 -3.1159 -0.0774
  126MOL0     H16583   8.762   5.262   2.676 -0.1376 -0.9786  0.6126
  126MOL0     H16584   8.883   5.231   2.799  0.8780 -2.4978 -1.3223
  126MOL0     H16585   8.707   5.520   2.741  1.7989 -0.4939 -0.2660
  126MOL0     H16586   8.710   5.722   2.890  2.5264 -0.9724  0.7413
  126MOL0     H16587   8.678   5.704   3.061 -1.3158  2.7136 -0.5942
  126MOL0     H16588   8.460   5.789   3.012 -3.0567 -0.0094 -0.0417
  126MOL0     H16589   8.446   5.617   3.006 -0.7399 -1.3331 -1.9204
  126MOL0     H16590   8.452   5.608   2.755  1.0710  0.2700 -0.1195
  126MOL0     H16591   8.326   5.711   2.825  0.8737 -0.0861  2.9031
  126MOL0     H16592   8.412   5.818   2.629 -1.1518 -1.4022  1.0081
  126MOL0     H16593   8.578   5.819   2.703  0.4172 -0.6606  1.2674
  126MOL0     H16594   8.207   5.852   2.662  2.6057  0.7061  0.0297
  126MOL0     H16595   7.986   5.940   2.705 -0.2394 -1.6042 -0.1498
  126MOL0     H16596   7.768   6.111   3.109 -0.8728  0.4361  2.5992
  126MOL0     H16597   7.537   6.156   3.170  4.6092 -3.2088  1.0970
  126MOL0     H16598   7.394   6.600   3.135  0.6700  0.9833 -1.8690
  126MOL0     H16599   7.249   6.499   3.177 -0.1113  1.0118  0.7423
  126MOL0     H16600   7.367   6.479   2.910  0.0380 -0.1474  0.4079
  126MOL0     H16601   7.233   6.591   2.940 -1.7720 -1.4782 -1.4147
  126MOL0     H16602   7.098   6.409   3.035  2.4031  1.3106  1.8029
  126MOL0     H16603   7.210   6.291   3.015 -0.5296 -0.4620 -0.0533
  126MOL0     H16604   7.077   6.233   2.835 -0.7649  0.6610 -0.3223
  126MOL0     H16605   7.063   6.395   2.772 -0.6247 -0.6053 -0.7540
  126MOL0     H16606   7.308   6.390   2.699  1.0270 -2.7526 -3.2543
  126MOL0     H16607   7.223   6.261   2.639  0.3858 -1.2553 -0.2173
  126MOL0     H16608   7.323   6.102   2.822 -0.3452 -0.9957 -1.6199
  126MOL0     H16609   7.393   6.251   2.898  0.9931  0.7503 -1.1470
  126MOL0     H16610   7.538   6.117   2.770 -1.0094 -0.9197  0.8743
  126MOL0     H16611   7.449   6.121   2.614  2.7057 -1.2129  0.3363
  126MOL0     H16612   7.666   6.280   2.695 -0.0874  1.7282  3.6061
  126MOL0     H16613   7.530   6.375   2.765  1.8341  1.3194 -0.2100
  126MOL0     H16614   7.576   6.560   3.009  0.9412  1.5153  2.9483
  126MOL0     H16615   7.800   6.496   2.909  0.3577 -0.0029 -0.5962
  126MOL0     H16616   8.158   6.215   2.982  0.1346  1.4846 -0.9086
  126MOL0     H16617   8.382   6.102   2.953  0.1662 -2.0523  1.3456
  126MOL0     H16618   9.339   4.221   2.536 -0.4325  3.0600 -1.5194
  126MOL0     H16619   9.582   4.168   2.517 -1.7649  2.7626 -3.7435
  126MOL0     H16620   9.983   4.247   2.583 -1.7055 -2.3269  0.1410
  126MOL0     H16621  10.235   4.206   2.592  1.4636 -2.0067  0.2694
  126MOL0     H16622  10.452   4.030   2.959 -0.4623 -0.7305 -1.0184
  126MOL0     H16623  10.425   4.202   2.986  0.8233 -0.9344  1.1748
  126MOL0     H16624  10.634   4.094   2.779 -2.5289 -0.7885  0.3548
  126MOL0     H16625  10.609   4.257   2.832 -0.9418  0.9161  0.1759
  126MOL0     H16626  10.686   4.017   3.005 -1.0689  0.3178  0.4532
  126MOL0     H16627  10.680   4.187   3.062  0.3360 -1.4163  1.8213
  126MOL0     H16628  10.910   4.114   3.016 -2.4000  1.0353  2.1469
  126MOL0     H16629  10.881   4.079   2.844 -2.2429 -0.3176 -0.4590
  126MOL0     H16630  10.872   4.495   2.838 -1.0520 -0.5858  0.2005
  126MOL0     H16631  10.184   4.092   3.007 -0.3881 -1.3040 -0.9794
  126MOL0     H16632   9.947   4.132   2.985  1.2474  0.8464  0.7562
  127MOL0     O16633  11.072  11.245   4.743 -0.4624  0.5691  0.2319
  127MOL0     C16634  11.091  11.148   4.671 -0.2594 -0.6330  1.6154
  127MOL0     O16635  11.060  11.143   4.540  0.0906 -0.0938  0.1142
  127MOL0     C16636  11.010  11.251   4.472 -0.9430 -0.2374 -0.4092
  127MOL0     C16637  11.086  11.358   4.410  0.2798 -0.1223  0.7092
  127MOL0     C16638  11.016  11.458   4.346 -0.2057  0.4783  0.3941
  127MOL0     C16639  10.878  11.453   4.350 -0.1377 -0.4413  0.0070
  127MOL0     O16640  10.819  11.562   4.285  0.0839 -0.4490 -0.1747
  127MOL0     C16641  10.687  11.596   4.316 -0.2011  0.1005 -0.2996
  127MOL0     C16642  10.670  11.639   4.470  0.8700  0.1849  0.5492
  127MOL0     C16643  10.521  11.667   4.488  1.2524  1.1348 -1.1775
  127MOL0     C16644  10.488  11.700   4.637 -1.3143 -0.1456  0.6612
  127MOL0     C16645  10.341  11.676   4.653 -0.8882 -0.3008 -1.3312
  127MOL0     C16646  10.287  11.724   4.792  0.0739 -0.5401 -0.0396
  127MOL0     C16647  10.153  11.675   4.811  0.0941  0.4901  0.0436
  127MOL0     C16648  10.134  11.542   4.879  0.4716 -0.0517 -0.3681
  127MOL0     N16649   9.988  11.511   4.888 -0.4052 -0.6279  0.4663
  127MOL0     C16650   9.922  11.475   5.005  0.1045 -0.1068 -0.3374
  127MOL0     C16651   9.794  11.449   4.965  0.0984 -0.4741 -0.9074
  127MOL0     C16652   9.685  11.398   5.056  0.1737 -0.3674 -0.2905
  127MOL0     C16653   9.586  11.295   4.989 -0.4508  0.3441  0.1967
  127MOL0     C16654   9.463  11.274   5.084 -0.1419 -0.0067  0.9920
  127MOL0     C16655   9.334  11.217   5.025  0.3002  0.0617  0.4367
  127MOL0     O16656   9.233  11.221   5.120  0.3336  0.2443  0.1671
  127MOL0     C16657   9.098  11.189   5.097  0.2610 -0.2476 -0.6215
  127MOL0     C16658   9.047  11.146   4.966  0.4936  0.1655 -0.5028
  127MOL0     C16659   8.920  11.114   4.944 -0.0977  0.1147  0.4533
  127MOL0     C16660   8.829  11.110   5.059  1.1189 -0.2858  0.6844
  127MOL0     C16661   8.700  11.052   5.038  0.3436  0.2158  0.1299
  127MOL0     O16662   8.676  10.967   4.932 -0.2703  0.3150  0.1633
  127MOL0     C16663   8.553  10.906   4.913  0.5027  0.7510  0.2695
  127MOL0     C16664   8.546  10.767   4.889 -0.0910  0.7535 -0.4321
  127MOL0     C16665   8.418  10.718   4.859 -0.7759 -0.8031 -0.3782
  127MOL0     C16666   8.301  10.794   4.864  1.5569 -0.1863  0.1913
  127MOL0     O16667   8.179  10.722   4.860 -0.2277 -0.0137  0.3785
  127MOL0     C16668   8.062  10.785   4.809  1.2653  0.4597  0.0107
  127MOL0     C16669   7.973  10.842   4.916  0.3298  0.4267 -0.5799
  127MOL0     C16670   7.835  10.791   4.925 -0.3078 -0.3872 -0.2136
  127MOL0     C16671   7.831  10.645   4.970  0.8557 -0.1927 -0.0693
  127MOL0     C16672   7.694  10.596   5.016 -0.1776 -0.4566 -0.3354
  127MOL0     C16673   7.682  10.445   5.026  0.8426  0.8513 -0.2060
  127MOL0     C16674   7.534  10.403   5.065 -0.1196  0.8512  1.2192
  127MOL0     C16675   7.506  10.261   5.002  1.7339 -0.1864  0.2432
  127MOL0    Cl16676   7.602  10.140   5.102  0.5449  0.2313  0.6764
  127MOL0     C16677   8.312  10.934   4.876  0.1965  0.1774 -1.0542
  127MOL0     C16678   8.439  10.987   4.910  0.5378 -0.2976 -0.3291
  127MOL0     O16679   8.619  11.091   5.123  1.2429 -0.4622 -0.6233
  127MOL0     C16680   8.868  11.171   5.182  0.3265 -0.8977 -0.3287
  127MOL0     C16681   9.003  11.209   5.195  0.8437  0.3700  0.0394
  127MOL0     N16682   9.786  11.466   4.827 -0.4930 -0.5638  0.6451
  127MOL0     N16683   9.901  11.502   4.787  0.1453 -0.3492 -0.3568
  127MOL0     C16684  10.811  11.355   4.406  1.1235  0.4348 -0.4464
  127MOL0     C16685  10.878  11.254   4.473 -0.2112  0.1417 -0.0741
  127MOL0     C16686  11.170  11.038   4.720  0.6785  0.2583 -0.7303
  127MOL0     C16687  11.182  10.925   4.639  0.3010  0.0357  0.5674
  127MOL0     C16688  11.253  10.815   4.680  0.3847 -0.4318 -0.1455
  127MOL0     C16689  11.316  10.812   4.807  0.1492 -0.6867 -0.6391
  127MOL0     O16690  11.389  10.702   4.821 -0.4787 -0.0900 -0.1407
  127MOL0     C16691  11.477  10.700   4.934 -0.9417 -0.0192 -0.8024
  127MOL0     C16692  11.559  10.569   4.943 -1.3177  0.3922  0.5853
  127MOL0     C16693  11.637  10.566   5.081  0.0736  0.7732 -0.0413
  127MOL0     C16694  11.775  10.639   5.068 -0.5941 -0.3337 -0.3604
  127MOL0     C16695  11.880  10.549   5.018 -0.5676 -0.2392 -0.0206
  127MOL0     C16696  11.981  10.473   4.997  0.8881 -0.8050 -0.4123
  127MOL0     C16697  11.285  10.920   4.900 -0.4563 -0.0772  0.2552
  127MOL0     C16698  11.226  11.033   4.858 -0.4457  0.6188  0.2075
  127MOL0     H16699  11.193  11.369   4.415  0.2686  1.5389 -1.5838
  127MOL0     H16700  11.063  11.536   4.286 -0.4612  0.8726  0.7031
  127MOL0     H16701  10.632  11.504   4.296  2.0949 -1.5090  0.4363
  127MOL0     H16702  10.650  11.674   4.249  1.3337 -0.4800 -1.9008
  127MOL0     H16703  10.730  11.729   4.484 -0.7108  1.2283  0.8424
  127MOL0     H16704  10.705  11.553   4.529  0.6846  0.7754  1.5322
  127MOL0     H16705  10.460  11.583   4.453 -1.8284  3.4585 -1.7690
  127MOL0     H16706  10.482  11.749   4.428 -2.3717 -0.1635 -0.8771
  127MOL0     H16707  10.544  11.638   4.707  0.5792 -0.2491 -0.8493
  127MOL0     H16708  10.511  11.804   4.662  2.1198 -0.0079 -2.2316
  127MOL0     H16709  10.317  11.573   4.625 -2.4136  0.3498 -2.5693
  127MOL0     H16710  10.282  11.734   4.582 -2.2088  0.4662  0.2993
  127MOL0     H16711  10.291  11.834   4.792  3.3980 -0.5078 -2.5479
  127MOL0     H16712  10.342  11.694   4.882 -1.2772  0.3619  1.1399
  127MOL0     H16713  10.105  11.753   4.871 -0.8366 -0.8971  1.1707
  127MOL0     H16714  10.108  11.665   4.712 -2.7222 -4.3852  1.4636
  127MOL0     H16715  10.181  11.539   4.977 -0.9555 -2.3406  0.3283
  127MOL0     H16716  10.173  11.456   4.823  2.6582 -0.4265  1.5713
  127MOL0     H16717   9.950  11.469   5.110  1.7213 -0.9445 -0.7979
  127MOL0     H16718   9.631  11.486   5.093  3.1498  1.6441 -0.4129
  127MOL0     H16719   9.718  11.340   5.143 -1.4920 -1.6831 -0.4639
  127MOL0     H16720   9.635  11.200   4.968 -1.1383 -0.5714  2.4818
  127MOL0     H16721   9.561  11.340   4.892  1.7360  3.3467  0.8838
  127MOL0     H16722   9.495  11.206   5.163 -2.2682 -0.5244  1.4913
  127MOL0     H16723   9.435  11.365   5.137  1.7786 -0.5585  3.0790
  127MOL0     H16724   9.360  11.113   5.000 -0.2643  0.0604 -0.1613
  127MOL0     H16725   9.291  11.268   4.938 -0.3714 -0.4317  0.4655
  127MOL0     H16726   9.119  11.126   4.887  0.6565  0.0983 -0.3397
  127MOL0     H16727   8.884  11.082   4.847 -1.4422  2.5814  0.0630
  127MOL0     H16728   8.631  10.700   4.898 -0.3612  0.6707  1.9910
  127MOL0     H16729   8.403  10.611   4.848  0.0410 -1.1127  1.1696
  127MOL0     H16730   8.010  10.705   4.755  2.9522 -1.0947  0.5591
  127MOL0     H16731   8.083  10.860   4.733  1.6578  0.4009  0.0561
  127MOL0     H16732   7.969  10.951   4.904 -0.9854  0.9176  2.9691
  127MOL0     H16733   8.021  10.820   5.012 -2.2768  0.4634  0.8128
  127MOL0     H16734   7.786  10.799   4.827 -1.6018 -1.5748  0.3141
  127MOL0     H16735   7.780  10.856   4.992  1.6513  1.1937 -0.0325
  127MOL0     H16736   7.865  10.582   4.887 -1.6139  1.5715 -2.6111
  127MOL0     H16737   7.902  10.627   5.050  3.7666  2.1892 -1.9093
  127MOL0     H16738   7.611  10.633   4.955 -0.5027 -3.8848 -2.2054
  127MOL0     H16739   7.675  10.638   5.115  1.8364 -0.3069  0.0213
  127MOL0     H16740   7.755  10.408   5.098  0.5013  2.3000  0.9259
  127MOL0     H16741   7.712  10.401   4.930  2.5060  1.4987 -0.0003
  127MOL0     H16742   7.527  10.393   5.174  1.8828 -4.3906  1.1650
  127MOL0     H16743   7.455  10.468   5.028 -0.0490  2.4013  3.5959
  127MOL0     H16744   7.541  10.259   4.898  0.8618  0.4064 -0.0743
  127MOL0     H16745   7.400  10.237   5.008  1.5349 -1.6131 -4.4642
  127MOL0     H16746   8.221  10.994   4.881 -0.7694 -1.2803 -0.3379
  127MOL0     H16747   8.443  11.094   4.931  2.2607  0.1426 -2.6054
  127MOL0     H16748   8.796  11.177   5.263  0.9002 -0.6311  0.1671
  127MOL0     H16749   9.043  11.232   5.294  1.7777 -0.0774 -0.2245
  127MOL0     H16750  10.703  11.368   4.403  1.1094  0.5852  0.4663
  127MOL0     H16751  10.820  11.189   4.539  2.1409  0.1162  2.1432
  127MOL0     H16752  11.138  10.927   4.540  0.2173  2.9323  0.5761
  127MOL0     H16753  11.264  10.729   4.614 -1.2179 -1.2258  0.5324
  127MOL0     H16754  11.431  10.714   5.032  0.3200 -1.9149  0.1194
  127MOL0     H16755  11.543  10.787   4.922 -1.3722  0.3406 -0.6036
  127MOL0     H16756  11.490  10.483   4.945  1.7401 -2.2700  0.0701
  127MOL0     H16757  11.630  10.571   4.859 -3.8463 -2.1118 -1.8478
  127MOL0     H16758  11.646  10.464   5.118  0.2811  1.4288  1.8447
  127MOL0     H16759  11.579  10.608   5.164  1.0944 -1.9197  2.1800
  127MOL0     H16760  11.773  10.732   5.010  1.2656 -0.0366 -0.0143
  127MOL0     H16761  11.810  10.658   5.171 -0.5699  0.2113 -0.4656
  127MOL0     H16762  12.065  10.409   4.976 -1.1625 -2.9931 -2.5960
  127MOL0     H16763  11.321  10.913   5.002 -2.1032 -3.9276  0.7457
  127MOL0     H16764  11.196  11.104   4.935  1.6844  0.6939  1.0174
  128MOL0     O16765   6.661   6.586   5.008 -0.5751 -0.6047  0.2534
  128MOL0     C16766   6.695   6.564   4.891 -0.3661 -0.1195  0.3892
  128MOL0     O16767   6.621   6.511   4.790  0.2449 -0.5812  0.1446
  128MOL0     C16768   6.496   6.464   4.836  0.0177 -1.2344 -0.0082
  128MOL0     C16769   6.491   6.336   4.891 -0.7116 -0.9184 -0.8794
  128MOL0     C16770   6.372   6.287   4.942 -0.5085 -0.6159 -0.6808
  128MOL0     C16771   6.250   6.361   4.927 -0.4654  0.1466  0.2074
  128MOL0     O16772   6.132   6.324   4.986 -0.0309  0.1133 -0.3882
  128MOL0     C16773   6.100   6.380   5.108 -0.0146 -0.2710 -0.5217
  128MOL0     C16774   5.994   6.305   5.189 -0.6812 -0.3380  0.3760
  128MOL0     C16775   6.036   6.155   5.225 -0.0589 -0.0582 -0.0515
  128MOL0     C16776   5.966   6.096   5.354 -0.0369  0.5229  0.2854
  128MOL0     C16777   5.807   6.103   5.336 -0.3206 -0.0107  0.6506
  128MOL0     C16778   5.753   6.046   5.201  1.3320  0.9823  0.4888
  128MOL0     C16779   5.611   5.982   5.212 -0.1990  0.6897  0.0074
  128MOL0     C16780   5.508   6.083   5.270 -0.5512 -1.0567 -0.4252
  128MOL0     N16781   5.373   6.053   5.246 -0.7364 -0.0706 -0.0455
  128MOL0     C16782   5.271   6.055   5.339  0.0373 -0.5773  0.0979
  128MOL0     C16783   5.164   6.006   5.272 -0.2374  0.1778  0.4449
  128MOL0     C16784   5.032   5.985   5.346 -0.1151 -0.5263  0.1759
  128MOL0     C16785   4.935   5.933   5.242 -0.6008  0.1930 -1.2861
  128MOL0     C16786   4.797   5.904   5.302  0.2033  0.9902  0.1181
  128MOL0     C16787   4.717   5.810   5.220  0.9867  0.3386  0.2161
  128MOL0     O16788   4.581   5.817   5.272 -0.2912  0.1922 -0.0835
  128MOL0     C16789   4.495   5.720   5.219  0.6905 -1.2404 -0.3319
  128MOL0     C16790   4.376   5.717   5.289  0.0326 -1.2288 -0.0841
  128MOL0     C16791   4.275   5.640   5.244  0.4464  0.9420 -0.4429
  128MOL0     C16792   4.273   5.560   5.115 -1.1601 -0.3318  0.1065
  128MOL0     C16793   4.161   5.482   5.069 -0.2535 -0.2986  0.0526
  128MOL0     O16794   4.155   5.451   4.934 -0.0324 -0.4389 -0.1133
  128MOL0     C16795   4.032   5.407   4.887  0.1980  0.3694 -0.1392
  128MOL0     C16796   3.918   5.490   4.901  0.5621  1.3524  0.3046
  128MOL0     C16797   3.788   5.449   4.861 -0.3046  0.0327  0.1790
  128MOL0     C16798   3.772   5.321   4.806  0.4546 -0.8645 -1.1742
  128MOL0     O16799   3.647   5.275   4.772 -0.1808  0.0463 -0.6331
  128MOL0     C16800   3.534   5.359   4.765  0.1414  0.1035 -0.8536
  128MOL0     C16801   3.429   5.283   4.691  0.5201  0.0808 -1.0956
  128MOL0     C16802   3.306   5.365   4.690  1.4354 -0.4870  0.3546
  128MOL0     C16803   3.190   5.317   4.601  0.4713 -0.2108  0.0023
  128MOL0     C16804   3.069   5.412   4.612 -0.1759 -0.2213 -0.5744
  128MOL0     C16805   2.947   5.352   4.553 -0.4002  0.0246 -0.3129
  128MOL0     C16806   2.813   5.411   4.599  0.0661 -0.3611 -0.4765
  128MOL0     C16807   2.806   5.558   4.576  1.0186  0.2254 -0.3512
  128MOL0    Cl16808   2.633   5.615   4.619  0.3853  0.6569  0.2406
  128MOL0     C16809   3.880   5.237   4.787 -0.2613  0.3460 -0.1058
  128MOL0     C16810   4.011   5.277   4.827 -0.7169 -0.3366 -0.0606
  128MOL0     O16811   4.064   5.466   5.145 -0.1861  0.1950  0.2168
  128MOL0     C16812   4.391   5.587   5.038 -0.5794  0.6441  0.1037
  128MOL0     C16813   4.502   5.662   5.090 -0.2447 -0.1081 -0.0084
  128MOL0     N16814   5.200   5.974   5.133 -0.5498 -0.0341 -0.5925
  128MOL0     N16815   5.326   6.015   5.124  0.5769  0.0737  0.5962
  128MOL0     C16816   6.253   6.493   4.861  0.3166  0.0706 -0.9277
  128MOL0     C16817   6.374   6.533   4.813  0.1479 -0.2307  0.2736
  128MOL0     C16818   6.837   6.615   4.860 -0.8315  0.3841  0.8595
  128MOL0     C16819   6.897   6.604   4.722 -0.1960  0.5688 -0.8316
  128MOL0     C16820   7.010   6.680   4.690  0.2028  0.5130 -0.1046
  128MOL0     C16821   7.077   6.762   4.790  0.4323 -0.2304  0.2651
  128MOL0     O16822   7.184   6.838   4.750 -0.6794 -0.4800  0.1141
  128MOL0     C16823   7.291   6.765   4.689 -0.2915 -0.2462 -0.1381
  128MOL0     C16824   7.414   6.841   4.707  0.4912  0.0972 -0.7529
  128MOL0     C16825   7.526   6.825   4.599  0.1550  0.1273 -0.5023
  128MOL0     C16826   7.638   6.903   4.648  0.3502 -0.5904 -0.0938
  128MOL0     C16827   7.762   6.897   4.566  0.0663 -1.1059  0.0384
  128MOL0     C16828   7.855   6.900   4.493  0.1525 -0.0557  0.1581
  128MOL0     C16829   7.031   6.767   4.927  0.2955  0.1762  0.2180
  128MOL0     C16830   6.920   6.689   4.960  0.1526 -0.2836  0.2689
  128MOL0     H16831   6.570   6.263   4.903 -0.0424 -0.5811 -2.9078
  128MOL0     H16832   6.374   6.191   4.991  1.6091 -0.3988 -0.2586
  128MOL0     H16833   6.050   6.474   5.081 -1.0756 -0.6192  0.1610
  128MOL0     H16834   6.192   6.390   5.165  0.2166 -0.1741 -0.9051
  128MOL0     H16835   5.906   6.311   5.125  1.4950  2.1632 -2.7555
  128MOL0     H16836   5.963   6.349   5.284 -2.2990 -0.3578 -0.1223
  128MOL0     H16837   6.143   6.136   5.235 -0.1311 -1.7681 -1.8298
  128MOL0     H16838   6.002   6.091   5.142  0.3519 -0.4375  0.0690
  128MOL0     H16839   5.999   5.992   5.357 -2.0308 -0.2213 -0.8734
  128MOL0     H16840   6.005   6.143   5.445 -0.5763  0.6779  0.4422
  128MOL0     H16841   5.768   6.205   5.341 -2.4279 -0.5788 -2.0448
  128MOL0     H16842   5.758   6.047   5.416 -3.3756  0.4459 -0.7559
  128MOL0     H16843   5.811   5.959   5.169  0.4566  0.1229  1.1727
  128MOL0     H16844   5.754   6.118   5.119 -1.0016  0.2988 -0.2308
  128MOL0     H16845   5.575   5.934   5.121  0.2800  2.0752 -0.9476
  128MOL0     H16846   5.621   5.902   5.286  0.0878 -1.6651 -2.4244
  128MOL0     H16847   5.524   6.180   5.223 -1.3199 -0.0088  1.3893
  128MOL0     H16848   5.530   6.094   5.376 -2.2236 -2.6183  0.1471
  128MOL0     H16849   5.273   6.070   5.447  0.9366  1.2510 -0.1254
  128MOL0     H16850   5.006   6.085   5.384  3.0506  0.6207 -0.3626
  128MOL0     H16851   5.045   5.914   5.428  1.7246 -1.6528 -1.0353
  128MOL0     H16852   4.966   5.835   5.203 -1.3541 -0.4054 -0.4340
  128MOL0     H16853   4.932   6.006   5.160 -0.6823  2.2902  0.5063
  128MOL0     H16854   4.810   5.853   5.398  0.5252  2.0638  0.6601
  128MOL0     H16855   4.735   5.993   5.315 -1.5130  0.1890 -2.0463
  128MOL0     H16856   4.746   5.705   5.230  0.1247  0.2184  1.7657
  128MOL0     H16857   4.716   5.841   5.115  0.1252  1.6072  0.5829
  128MOL0     H16858   4.374   5.773   5.382  1.2704 -0.4390 -0.5092
  128MOL0     H16859   4.193   5.627   5.315 -0.4904 -0.3653 -1.7001
  128MOL0     H16860   3.928   5.587   4.949 -0.9821  0.4823  2.5747
  128MOL0     H16861   3.713   5.523   4.887  3.6913  3.3833  3.7605
  128MOL0     H16862   3.558   5.453   4.715  1.3514  2.0599  3.0312
  128MOL0     H16863   3.497   5.383   4.865  2.3975  2.8032 -0.5465
  128MOL0     H16864   3.405   5.188   4.740 -1.0281 -0.1168 -2.1624
  128MOL0     H16865   3.462   5.268   4.588 -0.4027  0.7213 -1.5064
  128MOL0     H16866   3.341   5.460   4.649 -0.8933 -0.7850 -2.6206
  128MOL0     H16867   3.263   5.380   4.790 -0.5870  0.7316 -0.6154
  128MOL0     H16868   3.214   5.322   4.495 -0.5781 -0.6989 -0.2712
  128MOL0     H16869   3.155   5.216   4.624 -1.1182  0.5683  1.2094
  128MOL0     H16870   3.080   5.509   4.564  0.4183 -0.7323 -1.5095
  128MOL0     H16871   3.054   5.420   4.720  1.8785 -1.3963 -0.1554
  128MOL0     H16872   2.925   5.249   4.581 -2.7247  0.7209  0.6926
  128MOL0     H16873   2.964   5.352   4.445 -0.3915  3.4946 -0.4408
  128MOL0     H16874   2.735   5.358   4.542 -1.8071  2.0416 -0.3152
  128MOL0     H16875   2.793   5.401   4.706 -1.0154  2.3494 -0.3452
  128MOL0     H16876   2.833   5.590   4.475  0.4841  2.7595  0.2386
  128MOL0     H16877   2.875   5.615   4.640 -0.5047  1.5656  0.1879
  128MOL0     H16878   3.878   5.138   4.744 -0.1348  0.0276  0.6131
  128MOL0     H16879   4.097   5.218   4.795  0.5009  1.3604 -0.0376
  128MOL0     H16880   4.396   5.545   4.938 -0.6997  1.3942 -0.2220
  128MOL0     H16881   4.590   5.679   5.029 -0.7652  1.3864 -0.3826
  128MOL0     H16882   6.167   6.558   4.850  0.6560  0.7547  0.3258
  128MOL0     H16883   6.379   6.635   4.775 -0.7452  0.6822  2.4591
  128MOL0     H16884   6.844   6.545   4.649 -2.8243 -0.7372  1.8855
  128MOL0     H16885   7.039   6.668   4.586  1.1709  1.4289  0.0384
  128MOL0     H16886   7.278   6.758   4.580  0.3992  0.9562 -0.3282
  128MOL0     H16887   7.310   6.663   4.723  1.7665  0.2315  0.3197
  128MOL0     H16888   7.391   6.947   4.720  0.2758  0.1882 -1.7789
  128MOL0     H16889   7.437   6.797   4.805 -0.0626 -0.4301 -0.8530
  128MOL0     H16890   7.487   6.861   4.504 -0.4742 -0.0251 -0.3081
  128MOL0     H16891   7.552   6.719   4.590  0.6314 -0.2585  3.6034
  128MOL0     H16892   7.610   7.007   4.666  1.3614 -0.6699  2.2431
  128MOL0     H16893   7.676   6.874   4.746 -0.7568  1.3860  0.9684
  128MOL0     H16894   7.939   6.875   4.430 -0.1338 -2.3723  0.6355
  128MOL0     H16895   7.080   6.827   5.003  0.4855  0.2645  0.0283
  128MOL0     H16896   6.889   6.712   5.061 -0.0954  0.0317  0.1208
  129MOL0     O16897   6.611  10.724   0.595  0.7602 -0.4236  0.5199
  129MOL0     C16898   6.659  10.798   0.510  0.3323  0.4616  0.3170
  129MOL0     O16899   6.589  10.891   0.434  0.0567  0.2101 -0.5978
  129MOL0     C16900   6.454  10.915   0.453 -0.0458  0.1521  0.6404
  129MOL0     C16901   6.409  11.048   0.452  0.1178 -0.8418  0.1937
  129MOL0     C16902   6.270  11.081   0.462  0.3850  0.8901 -0.0387
  129MOL0     C16903   6.181  10.975   0.507 -0.0262  0.2189 -0.9533
  129MOL0     O16904   6.043  10.993   0.529  0.6062  0.1857 -0.8112
  129MOL0     C16905   5.973  11.080   0.446  0.4713 -0.8849 -0.6125
  129MOL0     C16906   5.948  11.213   0.511  0.6393 -0.6622 -0.3581
  129MOL0     C16907   5.889  11.314   0.415  0.3107 -0.3810  0.4520
  129MOL0     C16908   5.775  11.268   0.328 -0.1257  0.8779  0.6246
  129MOL0     C16909   5.713  11.380   0.250  0.5826  0.2090  0.7594
  129MOL0     C16910   5.591  11.315   0.173  0.4735  1.4034 -0.4084
  129MOL0     C16911   5.482  11.254   0.266 -0.9618 -0.3645 -0.1674
  129MOL0     C16912   5.352  11.219   0.190 -0.5803  0.6707  0.4129
  129MOL0     N16913   5.264  11.142   0.271  1.2945 -0.6179 -0.1464
  129MOL0     C16914   5.244  11.010   0.252 -0.1486 -0.0061 -0.3181
  129MOL0     C16915   5.165  10.986   0.363 -0.3925  0.2901 -0.9912
  129MOL0     C16916   5.128  10.853   0.413 -0.5861 -0.3548  0.1866
  129MOL0     C16917   5.239  10.811   0.507  0.1741  0.0634 -0.2315
  129MOL0     C16918   5.193  10.690   0.602 -0.7161 -1.1283 -0.5838
  129MOL0     C16919   5.295  10.687   0.719  0.2576  0.5022  0.5774
  129MOL0     O16920   5.265  10.787   0.808 -0.4080 -0.5041 -0.2470
  129MOL0     C16921   5.139  10.796   0.866  0.0669  0.4067 -0.1451
  129MOL0     C16922   5.065  10.681   0.899 -0.1297  0.0619  0.6453
  129MOL0     C16923   4.930  10.697   0.932  0.3967  0.1551 -0.4577
  129MOL0     C16924   4.865  10.818   0.939 -0.1241  0.3875  0.0245
  129MOL0     C16925   4.723  10.841   0.968 -0.1622  0.1844 -0.8540
  129MOL0     O16926   4.686  10.974   1.008  0.0718 -0.2915 -0.0826
  129MOL0     C16927   4.550  10.995   0.996 -0.5715 -0.3326 -0.4583
  129MOL0     C16928   4.506  11.062   0.884 -0.4698  0.9901 -0.4504
  129MOL0     C16929   4.375  11.088   0.872 -0.1792  0.1314  0.3258
  129MOL0     C16930   4.274  11.055   0.968 -0.8112  0.7001 -0.1636
  129MOL0     O16931   4.139  11.081   0.944 -0.3683  0.9743 -0.6964
  129MOL0     C16932   4.044  11.043   1.044  0.1613 -0.0545  0.8490
  129MOL0     C16933   3.911  11.113   1.018  0.1514 -0.6995  0.1450
  129MOL0     C16934   3.811  11.095   1.129 -0.1435 -0.4232  0.4470
  129MOL0     C16935   3.703  11.205   1.121 -0.9512 -0.6175  0.6391
  129MOL0     C16936   3.633  11.204   1.257 -0.2679 -0.3695  0.6057
  129MOL0     C16937   3.513  11.304   1.263  0.4913 -0.4982 -0.7842
  129MOL0     C16938   3.473  11.312   1.410 -0.2388 -0.2307 -0.3459
  129MOL0     C16939   3.346  11.381   1.442 -0.6941  0.4699 -0.0819
  129MOL0    Cl16940   3.359  11.554   1.404  0.4204  0.0251  0.4425
  129MOL0     C16941   4.325  11.004   1.096  0.2780 -0.4624  0.8762
  129MOL0     C16942   4.460  10.963   1.101  0.1857 -0.6786 -0.8786
  129MOL0     O16943   4.651  10.744   0.974 -0.0968  0.5765 -0.3965
  129MOL0     C16944   4.949  10.932   0.905  0.9358 -0.3467 -0.4263
  129MOL0     C16945   5.083  10.921   0.877 -0.6860  0.5604 -0.2411
  129MOL0     N16946   5.132  11.105   0.437  0.1316  0.4469 -0.1324
  129MOL0     N16947   5.198  11.197   0.379 -0.4202  0.6735  0.0919
  129MOL0     C16948   6.229  10.847   0.524 -0.4008  0.2275 -0.4770
  129MOL0     C16949   6.364  10.816   0.495 -0.4031  0.2859 -0.7974
  129MOL0     C16950   6.811  10.780   0.485  0.1989 -0.6372  0.4632
  129MOL0     C16951   6.886  10.676   0.552  0.7430 -0.1524 -0.6828
  129MOL0     C16952   7.023  10.670   0.519  0.6397  0.0161 -0.2653
  129MOL0     C16953   7.087  10.749   0.433  0.0371 -0.4083 -0.4369
  129MOL0     O16954   7.223  10.722   0.428  0.5418  0.0284  0.0371
  129MOL0     C16955   7.315  10.829   0.404  0.2340  0.5365 -0.4235
  129MOL0     C16956   7.426  10.803   0.306 -0.2862  0.2874  0.2773
  129MOL0     C16957   7.359  10.788   0.163 -0.4866 -0.2474 -0.8421
  129MOL0     C16958   7.461  10.797   0.061 -0.2495 -0.6669 -0.3852
  129MOL0     C16959   7.412  10.769  -0.077  1.3410  0.3598 -0.1460
  129MOL0     C16960   7.360  10.767  -0.187  0.5515 -0.1480  0.3568
  129MOL0     C16961   7.023  10.844   0.356  0.1596 -0.0709  0.4189
  129MOL0     C16962   6.881  10.863   0.385  0.2267 -0.2074  0.5266
  129MOL0     H16963   6.489  11.119   0.436 -0.0365  0.0199  2.7122
  129MOL0     H16964   6.243  11.186   0.451  1.1830  1.3237  1.7026
  129MOL0     H16965   5.879  11.052   0.398 -0.9145  2.3237 -0.0163
  129MOL0     H16966   6.039  11.086   0.358  2.7163 -2.7411  0.8199
  129MOL0     H16967   6.040  11.256   0.552  0.6856 -1.3868  0.3328
  129MOL0     H16968   5.877  11.194   0.592 -1.4765 -0.3894 -2.0704
  129MOL0     H16969   5.971  11.354   0.355  1.1241 -0.5798  1.3997
  129MOL0     H16970   5.847  11.394   0.476  0.3500  0.6169 -0.8096
  129MOL0     H16971   5.813  11.193   0.258 -5.2072 -1.9010  0.3350
  129MOL0     H16972   5.703  11.215   0.391  2.5714 -1.3080  2.1033
  129MOL0     H16973   5.772  11.427   0.170 -1.4804 -0.5483 -1.2972
  129MOL0     H16974   5.674  11.450   0.324  0.8973 -1.4656  2.5984
  129MOL0     H16975   5.611  11.245   0.091 -1.4027  0.2626  0.0277
  129MOL0     H16976   5.550  11.410   0.135  0.2938  1.5406  0.1239
  129MOL0     H16977   5.530  11.164   0.305  2.1661  1.9249  1.7519
  129MOL0     H16978   5.461  11.318   0.352 -2.0486  1.2862 -1.5790
  129MOL0     H16979   5.386  11.155   0.108  0.4420 -0.7450  1.8739
  129MOL0     H16980   5.299  11.309   0.158 -3.3799 -1.7432 -2.4267
  129MOL0     H16981   5.276  10.946   0.170 -2.4593 -1.0863 -0.4706
  129MOL0     H16982   5.106  10.779   0.336 -1.3907  2.4229 -2.4424
  129MOL0     H16983   5.040  10.867   0.476  0.2887 -0.2604  1.4378
  129MOL0     H16984   5.261  10.894   0.575 -3.4608 -1.1562  2.7783
  129MOL0     H16985   5.330  10.779   0.456 -0.1030  0.2010 -0.8141
  129MOL0     H16986   5.089  10.696   0.632 -1.7098 -1.8544 -3.5135
  129MOL0     H16987   5.207  10.597   0.546 -3.4426 -1.5819 -0.6094
  129MOL0     H16988   5.389  10.704   0.666 -0.8503 -1.3113 -2.2178
  129MOL0     H16989   5.297  10.588   0.766  1.4961 -0.4949 -1.4324
  129MOL0     H16990   5.092  10.576   0.897  1.6729  0.3394  3.4960
  129MOL0     H16991   4.865  10.613   0.951 -2.2070  1.5573 -2.4477
  129MOL0     H16992   4.587  11.084   0.815  1.5195 -0.0735  1.3872
  129MOL0     H16993   4.351  11.128   0.774  1.7264  2.1054  0.5904
  129MOL0     H16994   4.075  11.068   1.146 -0.5565  0.9674  0.8274
  129MOL0     H16995   4.026  10.935   1.037 -0.1441 -0.0135  0.9861
  129MOL0     H16996   3.872  11.082   0.921  1.4498  2.6440 -1.6034
  129MOL0     H16997   3.939  11.218   1.005  1.5095 -0.9648  0.6525
  129MOL0     H16998   3.848  11.102   1.232  2.2370 -0.9316 -0.3246
  129MOL0     H16999   3.758  10.999   1.132  2.7974 -2.1588  2.6656
  129MOL0     H17000   3.750  11.300   1.096  0.2543 -1.7191 -1.6179
  129MOL0     H17001   3.631  11.180   1.042  0.1630  0.5065 -0.7774
  129MOL0     H17002   3.708  11.235   1.331 -0.4863 -1.6876  1.4035
  129MOL0     H17003   3.600  11.105   1.287  0.3882 -1.7639 -2.8566
  129MOL0     H17004   3.437  11.255   1.202 -0.8220  1.2515 -0.6262
  129MOL0     H17005   3.545  11.400   1.221  1.6867  0.0181  1.1950
  129MOL0     H17006   3.477  11.211   1.451 -0.2192 -0.5996 -1.2247
  129MOL0     H17007   3.552  11.365   1.464 -3.1685  1.1026  3.0272
  129MOL0     H17008   3.321  11.371   1.548  0.0429 -0.3515  0.0373
  129MOL0     H17009   3.267  11.338   1.380  1.8777  1.6686 -4.7042
  129MOL0     H17010   4.258  10.971   1.175 -0.6334  1.0589  0.7701
  129MOL0     H17011   4.491  10.910   1.191 -0.3067 -2.1441 -1.5364
  129MOL0     H17012   4.892  11.024   0.903 -0.7581 -1.3506 -0.9266
  129MOL0     H17013   5.143  11.003   0.841  1.9046 -1.6482 -1.3076
  129MOL0     H17014   6.163  10.762   0.539 -1.3650  0.8490 -1.0849
  129MOL0     H17015   6.404  10.715   0.493 -1.6361 -0.2121 -1.2449
  129MOL0     H17016   6.844  10.609   0.626  1.5951 -0.1357 -0.1640
  129MOL0     H17017   7.083  10.595   0.571  1.3079 -0.1597 -1.2658
  129MOL0     H17018   7.371  10.835   0.498  0.9408  5.1283 -0.9146
  129MOL0     H17019   7.266  10.923   0.376  0.3702  0.0244 -2.5936
  129MOL0     H17020   7.492  10.891   0.305 -0.5486  0.7672 -4.8308
  129MOL0     H17021   7.484  10.718   0.343  0.5260  1.8559  2.9032
  129MOL0     H17022   7.283  10.864   0.142 -1.1552 -0.1797  1.5602
  129MOL0     H17023   7.313  10.689   0.162  0.2462 -0.7464  2.5564
  129MOL0     H17024   7.509  10.895   0.068 -0.3884 -0.5590 -0.9079
  129MOL0     H17025   7.534  10.718   0.080  1.4642  0.9904  0.3127
  129MOL0     H17026   7.303  10.760  -0.278  2.1942 -2.0920 -0.6282
  129MOL0     H17027   7.051  10.909   0.274 -2.5731  2.9790  1.6498
  129MOL0     H17028   6.821  10.932   0.328 -0.4123 -2.6721 -2.0136
  130MOL0     O17029   2.169   2.040   9.896 -0.1201  0.3405 -0.2244
  130MOL0     C17030   2.142   1.927   9.930 -0.3549  0.3134 -0.2359
  130MOL0     O17031   2.021   1.867   9.928 -0.2586  0.0052  0.4594
  130MOL0     C17032   1.909   1.916   9.871 -0.0811  0.0029  0.1388
  130MOL0     C17033   1.809   1.966   9.951  0.3211  0.7935  0.2103
  130MOL0     C17034   1.694   2.023   9.909  0.3484 -0.0800 -0.6984
  130MOL0     C17035   1.669   2.031   9.765 -0.8868 -0.7690 -0.2036
  130MOL0     O17036   1.553   2.081   9.721  0.1692  0.2704 -0.1718
  130MOL0     C17037   1.542   2.136   9.589 -0.8839 -0.1538  0.6241
  130MOL0     C17038   1.429   2.232   9.585 -0.1162 -0.1523 -0.1506
  130MOL0     C17039   1.393   2.268   9.445 -0.1143  0.3542  0.1434
  130MOL0     C17040   1.294   2.388   9.444  0.4165 -0.1315  0.0675
  130MOL0     C17041   1.213   2.395   9.311  0.2056 -0.4072  0.0048
  130MOL0     C17042   1.085   2.318   9.325 -0.4570 -0.1706 -0.6566
  130MOL0     C17043   0.978   2.368   9.224  0.9379  0.1992  0.2602
  130MOL0     C17044   0.850   2.281   9.227 -0.6579 -0.0215  0.0190
  130MOL0     N17045   0.733   2.324   9.140 -0.0860  0.5212 -0.5344
  130MOL0     C17046   0.715   2.277   9.017 -0.8076 -0.1758  0.2388
  130MOL0     C17047   0.626   2.363   8.961 -0.4068 -0.1863  0.3269
  130MOL0     C17048   0.600   2.342   8.809 -1.4371 -0.6405  0.8758
  130MOL0     C17049   0.454   2.348   8.787  0.7792 -0.1722 -0.6759
  130MOL0     C17050   0.388   2.488   8.792  0.0547 -1.2481  0.8379
  130MOL0     C17051   0.236   2.496   8.782  0.1252  0.1226 -0.5210
  130MOL0     O17052   0.193   2.402   8.689 -0.2365  0.3336 -0.0434
  130MOL0     C17053   0.059   2.369   8.677 -0.0108  0.6187 -0.0275
  130MOL0     C17054   0.022   2.244   8.614 -0.6938 -0.6085  0.7921
  130MOL0     C17055  -0.112   2.220   8.585  0.2418  1.4073 -0.4699
  130MOL0     C17056  -0.218   2.311   8.634 -0.4526 -0.4955  0.4569
  130MOL0     C17057  -0.361   2.285   8.609  0.5631  0.3637 -0.3385
  130MOL0     O17058  -0.461   2.356   8.672 -1.1852  0.0338 -1.0030
  130MOL0     C17059  -0.589   2.306   8.643 -0.2209 -1.3083  0.9345
  130MOL0     C17060  -0.655   2.310   8.522  0.3160  0.0655  0.0721
  130MOL0     C17061  -0.787   2.275   8.503  0.1675 -0.9635 -0.3985
  130MOL0     C17062  -0.865   2.230   8.619 -0.9555  0.7256 -0.9817
  130MOL0     O17063  -1.001   2.206   8.634 -0.6724 -0.0017 -1.0030
  130MOL0     C17064  -1.062   2.208   8.508 -0.3519  0.2673  0.3898
  130MOL0     C17065  -1.212   2.179   8.514 -0.2278  0.4733 -0.6629
  130MOL0     C17066  -1.291   2.283   8.580 -0.6338  0.0367 -0.2427
  130MOL0     C17067  -1.435   2.232   8.601  0.9005  0.3211 -0.2154
  130MOL0     C17068  -1.528   2.349   8.620  0.5598 -0.2465 -0.6486
  130MOL0     C17069  -1.674   2.296   8.633  0.3440 -0.0941 -0.0058
  130MOL0     C17070  -1.756   2.409   8.700 -0.4216  0.3425 -0.0144
  130MOL0     C17071  -1.911   2.404   8.676  0.1761  0.2090  0.0556
  130MOL0    Cl17072  -1.987   2.538   8.779  0.5316  0.3650 -0.0544
  130MOL0     C17073  -0.789   2.213   8.740  0.4200  0.1985  0.0856
  130MOL0     C17074  -0.660   2.255   8.749 -0.7144  0.7058  0.7861
  130MOL0     O17075  -0.381   2.199   8.525 -0.0368  0.6668  0.3278
  130MOL0     C17076  -0.178   2.426   8.700 -0.1840 -0.3640 -0.9318
  130MOL0     C17077  -0.040   2.447   8.725  0.1621  0.7146  0.0371
  130MOL0     N17078   0.590   2.459   9.056  0.0550 -0.2239 -0.7716
  130MOL0     N17079   0.666   2.443   9.152 -0.0512  0.5786  0.4340
  130MOL0     C17080   1.775   1.975   9.678  0.1134 -0.6853 -0.2236
  130MOL0     C17081   1.895   1.926   9.730  0.3943  0.5080 -0.1750
  130MOL0     C17082   2.253   1.840   9.978 -0.2395 -0.6848  0.3758
  130MOL0     C17083   2.230   1.740  10.073 -0.2488  0.2328  0.4525
  130MOL0     C17084   2.335   1.656  10.116  0.5047 -0.1287  0.5858
  130MOL0     C17085   2.458   1.662  10.056 -0.5322 -0.3711  0.6205
  130MOL0     O17086   2.553   1.563  10.077  0.4056 -0.6704  0.4123
  130MOL0     C17087   2.648   1.612  10.172  1.0122  0.4968 -0.0154
  130MOL0     C17088   2.776   1.524  10.172  0.4457 -0.0513  0.1306
  130MOL0     C17089   2.863   1.569  10.054  0.2353  0.2326 -0.7612
  130MOL0     C17090   2.997   1.499  10.066 -0.3028  0.2215 -0.4274
  130MOL0     C17091   3.063   1.546  10.189 -0.3174 -0.5720 -0.6999
  130MOL0     C17092   3.120   1.591  10.292  0.7212 -0.3392 -1.0920
  130MOL0     C17093   2.484   1.767   9.964  0.5661 -0.0248 -0.3525
  130MOL0     C17094   2.383   1.855   9.926  0.9128  0.0978  0.4571
  130MOL0     H17095   1.837   1.970  10.056 -1.6364  3.6559  0.7621
  130MOL0     H17096   1.626   2.063   9.983  0.2116  1.9236 -1.8333
  130MOL0     H17097   1.523   2.059   9.515  4.9080  0.6165 -2.2284
  130MOL0     H17098   1.633   2.191   9.562 -1.1893 -0.2867 -0.7378
  130MOL0     H17099   1.443   2.317   9.653  0.3339 -0.8332  0.6152
  130MOL0     H17100   1.341   2.179   9.623  0.3536 -0.4997  0.4631
  130MOL0     H17101   1.343   2.182   9.399 -0.1847  0.8570 -0.7457
  130MOL0     H17102   1.482   2.286   9.384 -1.7189 -3.4408 -3.8417
  130MOL0     H17103   1.230   2.378   9.532 -1.5369  4.4360 -0.5378
  130MOL0     H17104   1.345   2.484   9.440 -1.8126  1.0936 -3.1181
  130MOL0     H17105   1.265   2.344   9.229  1.3348  0.4146  0.1822
  130MOL0     H17106   1.197   2.501   9.287 -0.4102 -0.2907  0.8803
  130MOL0     H17107   1.054   2.328   9.429 -1.5603  2.9015 -1.1739
  130MOL0     H17108   1.103   2.214   9.298 -2.3466 -0.5329 -0.6655
  130MOL0     H17109   0.943   2.470   9.246  0.1284  0.0969 -0.4940
  130MOL0     H17110   1.022   2.374   9.124 -1.0798 -1.0355 -0.7798
  130MOL0     H17111   0.813   2.276   9.330  0.5242 -0.0796  0.4583
  130MOL0     H17112   0.885   2.181   9.200  1.3906  0.6323  0.0120
  130MOL0     H17113   0.751   2.182   8.978  1.7814  0.6178  0.5001
  130MOL0     H17114   0.631   2.242   8.779  0.2830  0.1053 -0.0223
  130MOL0     H17115   0.653   2.424   8.758  2.1689 -1.5880  2.7831
  130MOL0     H17116   0.406   2.292   8.869 -1.7263  2.1380 -0.4470
  130MOL0     H17117   0.433   2.289   8.698  0.3016 -1.2991  0.1506
  130MOL0     H17118   0.424   2.544   8.879  1.4380 -4.5244  2.5720
  130MOL0     H17119   0.419   2.538   8.700  0.3073 -1.0385  1.0353
  130MOL0     H17120   0.202   2.592   8.741 -0.7886 -0.3605 -0.9265
  130MOL0     H17121   0.198   2.471   8.881  3.6149  0.6388  1.0823
  130MOL0     H17122   0.092   2.181   8.561 -0.2316  2.3471 -2.5067
  130MOL0     H17123  -0.152   2.139   8.526 -2.9400  0.8635  2.0954
  130MOL0     H17124  -0.601   2.356   8.439  1.4083 -2.2031 -0.5797
  130MOL0     H17125  -0.833   2.288   8.406 -1.6759  3.0534  0.7832
  130MOL0     H17126  -1.023   2.126   8.447 -0.6210  0.9845 -0.7843
  130MOL0     H17127  -1.043   2.304   8.459  4.5756 -1.7488 -2.3667
  130MOL0     H17128  -1.232   2.080   8.555 -1.3077  0.1055 -1.9797
  130MOL0     H17129  -1.244   2.170   8.410 -0.7465  0.4533 -0.5041
  130MOL0     H17130  -1.302   2.376   8.523 -1.6608 -0.3965 -0.7691
  130MOL0     H17131  -1.259   2.298   8.684 -1.3573 -0.1714  0.0185
  130MOL0     H17132  -1.467   2.158   8.526  1.7013 -0.0971 -0.1555
  130MOL0     H17133  -1.431   2.176   8.695 -0.8215  2.2989  1.1295
  130MOL0     H17134  -1.529   2.425   8.542 -0.1160 -0.1583 -0.5591
  130MOL0     H17135  -1.500   2.400   8.713  0.0555  1.2667 -1.2993
  130MOL0     H17136  -1.669   2.209   8.700  2.0319 -0.0202  0.0142
  130MOL0     H17137  -1.704   2.267   8.532  3.2923 -0.1304 -0.9793
  130MOL0     H17138  -1.735   2.398   8.807 -2.5612  0.1312  0.4256
  130MOL0     H17139  -1.731   2.510   8.665 -0.4939  1.0426  1.8362
  130MOL0     H17140  -1.944   2.306   8.711 -0.2743  0.1037 -0.6538
  130MOL0     H17141  -1.936   2.416   8.570  0.5633 -1.5164 -0.2598
  130MOL0     H17142  -0.841   2.176   8.828 -0.3458  2.0005  0.4365
  130MOL0     H17143  -0.612   2.250   8.846 -0.9126 -0.0688  0.8480
  130MOL0     H17144  -0.253   2.497   8.734  1.7571 -0.2075  3.9992
  130MOL0     H17145  -0.010   2.535   8.781  0.1985  1.1147 -0.5971
  130MOL0     H17146   1.758   1.986   9.572  2.7525 -1.6135 -0.8003
  130MOL0     H17147   1.983   1.899   9.673  0.2106 -2.9334  0.9461
  130MOL0     H17148   2.131   1.723  10.115 -2.1599  2.6764 -2.6056
  130MOL0     H17149   2.315   1.583  10.193 -0.7825 -0.6485 -0.2183
  130MOL0     H17150   2.602   1.606  10.270 -2.4779  0.1657 -1.5238
  130MOL0     H17151   2.668   1.719  10.162 -3.3876  1.6358  1.1075
  130MOL0     H17152   2.820   1.537  10.272  4.0659 -2.1491 -0.9970
  130MOL0     H17153   2.754   1.418  10.162 -1.0333  0.2566 -0.0546
  130MOL0     H17154   2.866   1.679  10.055 -0.6825  0.3193  2.1423
  130MOL0     H17155   2.826   1.544   9.954 -0.7925 -2.8099  0.2607
  130MOL0     H17156   2.988   1.391  10.060 -0.3014  0.2553 -1.0397
  130MOL0     H17157   3.058   1.526   9.979 -1.3923 -0.9236 -1.5836
  130MOL0     H17158   3.171   1.613  10.384 -1.1299  0.1541 -0.1302
  130MOL0     H17159   2.575   1.774   9.905 -0.0041  0.7242 -1.1706
  130MOL0     H17160   2.394   1.934   9.851  0.4925  3.1512  3.3608
  131MOL0     O17161   4.758   6.857   2.405  0.1062  0.8558 -0.4941
  131MOL0     C17162   4.690   6.927   2.329  0.6195 -0.5467  0.8067
  131MOL0     O17163   4.736   7.012   2.230  0.4810 -0.0877  0.1584
  131MOL0     C17164   4.867   6.999   2.191  0.6699  0.0788 -0.6191
  131MOL0     C17165   4.910   6.901   2.094  0.4652  0.1391 -0.0679
  131MOL0     C17166   5.042   6.898   2.052 -0.1022 -0.5318  0.9426
  131MOL0     C17167   5.144   6.965   2.117  0.1205 -0.2053  0.4961
  131MOL0     O17168   5.272   6.944   2.072  0.1565 -0.4959  0.0143
  131MOL0     C17169   5.373   7.034   2.123 -0.1591  0.0792 -0.1232
  131MOL0     C17170   5.516   6.998   2.084 -0.2594  1.0719  0.1385
  131MOL0     C17171   5.617   7.060   2.170  0.1413 -0.0731 -0.4766
  131MOL0     C17172   5.768   7.012   2.141  0.1296 -0.1160 -0.4076
  131MOL0     C17173   5.813   7.018   1.991 -0.0520 -0.5136 -0.1278
  131MOL0     C17174   5.793   7.155   1.929 -0.4582 -0.1209  0.6770
  131MOL0     C17175   5.879   7.158   1.805 -1.1449 -0.4838  0.5539
  131MOL0     C17176   5.849   7.067   1.687  0.0470  0.0189 -0.1098
  131MOL0     N17177   5.737   7.119   1.609 -0.9466  0.4543  0.6693
  131MOL0     C17178   5.601   7.094   1.624 -0.8262  0.0113 -0.2042
  131MOL0     C17179   5.535   7.166   1.532 -0.1265 -0.8394  0.1189
  131MOL0     C17180   5.386   7.175   1.498 -0.2733  0.4622 -0.1001
  131MOL0     C17181   5.347   7.317   1.521 -0.2212  0.0734 -0.1132
  131MOL0     C17182   5.195   7.353   1.504 -0.6055  0.2103 -0.3770
  131MOL0     C17183   5.111   7.286   1.612 -0.1805 -0.7189  0.9837
  131MOL0     O17184   4.980   7.329   1.567  0.8461 -0.6497  0.4972
  131MOL0     C17185   4.868   7.269   1.623  0.2089 -0.9616 -0.5412
  131MOL0     C17186   4.868   7.202   1.748  0.1008 -0.3862 -0.1236
  131MOL0     C17187   4.746   7.176   1.808 -0.7547 -0.8035  1.0032
  131MOL0     C17188   4.622   7.228   1.753 -0.8368 -0.0937 -0.0408
  131MOL0     C17189   4.496   7.202   1.815  0.9200 -0.1863 -0.5095
  131MOL0     O17190   4.378   7.252   1.767 -0.1087  0.0296  0.0576
  131MOL0     C17191   4.280   7.292   1.853 -0.1706 -0.5639  0.1468
  131MOL0     C17192   4.300   7.357   1.975  0.4815 -0.8405 -0.2083
  131MOL0     C17193   4.182   7.391   2.050 -0.8344 -0.5490 -0.6918
  131MOL0     C17194   4.049   7.367   2.013 -0.2698 -0.2120 -0.7173
  131MOL0     O17195   3.934   7.421   2.077 -0.1389 -0.0173 -0.0203
  131MOL0     C17196   3.955   7.516   2.192 -0.1535 -0.4464  1.1628
  131MOL0     C17197   3.968   7.448   2.327 -0.6732 -0.8455 -0.0659
  131MOL0     C17198   3.862   7.347   2.354 -0.2495  0.7330  0.4998
  131MOL0     C17199   3.724   7.408   2.386  0.5732  0.1606 -0.1584
  131MOL0     C17200   3.611   7.308   2.395 -0.2790  0.5750 -0.7401
  131MOL0     C17201   3.503   7.330   2.286  0.7334  0.2435  0.1430
  131MOL0     C17202   3.548   7.321   2.136  0.6053  0.1778 -0.7982
  131MOL0     C17203   3.529   7.455   2.064 -0.2418  0.6596  0.4448
  131MOL0    Cl17204   3.347   7.493   2.069  0.3528 -0.2885 -0.0401
  131MOL0     C17205   4.036   7.301   1.893  0.4252 -0.3751  0.1863
  131MOL0     C17206   4.148   7.272   1.807  0.0657  0.1318 -0.2697
  131MOL0     O17207   4.498   7.148   1.924 -0.1493 -0.3571 -0.0777
  131MOL0     C17208   4.629   7.284   1.628  0.7161  0.9526 -0.5021
  131MOL0     C17209   4.748   7.303   1.566  0.7784  0.1326  0.0810
  131MOL0     N17210   5.633   7.247   1.468 -0.7008  0.0133 -0.5696
  131MOL0     N17211   5.754   7.211   1.506 -0.1870  0.5439  0.2638
  131MOL0     C17212   5.105   7.064   2.207 -1.0429 -0.3834  0.0941
  131MOL0     C17213   4.968   7.083   2.246  0.2634  0.9020  0.3833
  131MOL0     C17214   4.537   6.916   2.336  0.1280  0.2456  0.0030
  131MOL0     C17215   4.457   6.975   2.236 -0.1840  0.2223 -0.3728
  131MOL0     C17216   4.321   6.972   2.230  0.9702 -0.6052 -0.6819
  131MOL0     C17217   4.239   6.889   2.307 -0.6852 -0.5621  0.4877
  131MOL0     O17218   4.101   6.880   2.308 -0.1500 -0.2296  0.0171
  131MOL0     C17219   4.022   6.799   2.399 -0.4761  0.7478 -0.0721
  131MOL0     C17220   3.880   6.848   2.403 -1.2770  0.1691  0.3307
  131MOL0     C17221   3.822   6.787   2.536  0.3655  0.0349  0.6246
  131MOL0     C17222   3.674   6.785   2.535 -0.5457  0.3987 -0.4486
  131MOL0     C17223   3.616   6.908   2.586  0.3985 -0.3749 -0.1465
  131MOL0     C17224   3.579   7.012   2.645 -0.4316  0.2931  0.5075
  131MOL0     C17225   4.313   6.826   2.406 -0.1518  0.6220 -0.1897
  131MOL0     C17226   4.458   6.840   2.424  0.4553  0.2427 -0.3710
  131MOL0     H17227   4.841   6.827   2.055 -0.0593  1.7108 -2.3029
  131MOL0     H17228   5.076   6.825   1.978  1.7289  0.2278  0.9884
  131MOL0     H17229   5.375   7.030   2.233  2.4825 -0.3218 -0.1178
  131MOL0     H17230   5.355   7.138   2.093  0.3248 -0.1148 -1.1052
  131MOL0     H17231   5.536   7.031   1.981 -1.0665 -0.3845 -0.5100
  131MOL0     H17232   5.528   6.890   2.078 -0.0816  1.1583 -3.3943
  131MOL0     H17233   5.591   7.034   2.273 -0.2745 -0.5027 -0.6851
  131MOL0     H17234   5.600   7.168   2.166  0.0672 -0.0690 -0.0719
  131MOL0     H17235   5.843   7.069   2.197  2.6571 -1.5001 -2.1979
  131MOL0     H17236   5.777   6.907   2.169 -2.6165 -0.5811 -0.9713
  131MOL0     H17237   5.750   6.945   1.939  2.5424 -2.2340 -1.0310
  131MOL0     H17238   5.911   6.970   1.987  1.0377  1.5489  0.7376
  131MOL0     H17239   5.828   7.228   2.002 -1.0679 -0.5192  1.3944
  131MOL0     H17240   5.696   7.180   1.885  0.5327 -0.1776 -1.6358
  131MOL0     H17241   5.878   7.262   1.769 -0.1153  0.0498  1.9736
  131MOL0     H17242   5.984   7.138   1.825 -0.5773  1.3520 -0.2967
  131MOL0     H17243   5.821   6.967   1.720 -1.7669  0.4060 -0.3872
  131MOL0     H17244   5.946   7.070   1.636  1.0826  2.0313  1.7828
  131MOL0     H17245   5.559   7.023   1.695 -1.6463  0.1097 -0.5757
  131MOL0     H17246   5.333   7.110   1.568 -0.6767  1.5221  0.6169
  131MOL0     H17247   5.368   7.141   1.396 -1.9704 -1.2038  0.6927
  131MOL0     H17248   5.406   7.381   1.455  0.1205  2.0363  1.9702
  131MOL0     H17249   5.370   7.334   1.626 -3.0495 -0.5391  0.7050
  131MOL0     H17250   5.187   7.462   1.509 -0.6563  0.1767  0.3177
  131MOL0     H17251   5.169   7.323   1.402  0.2697  0.5397 -0.7107
  131MOL0     H17252   5.138   7.311   1.715 -1.7957 -2.1740  1.8195
  131MOL0     H17253   5.123   7.178   1.607  0.9633 -0.6041  0.8884
  131MOL0     H17254   4.941   7.158   1.814 -1.1900 -2.4984 -0.0066
  131MOL0     H17255   4.740   7.122   1.901 -1.3064  1.3700  2.3005
  131MOL0     H17256   4.395   7.382   2.021  0.7584  0.3090 -1.3540
  131MOL0     H17257   4.202   7.429   2.150 -1.0108 -1.7770 -0.1830
  131MOL0     H17258   3.874   7.588   2.204 -1.2489 -1.7287  1.7380
  131MOL0     H17259   4.046   7.575   2.176 -2.1563  2.2356 -1.4521
  131MOL0     H17260   3.972   7.519   2.411 -1.4664  1.1916 -1.6531
  131MOL0     H17261   4.060   7.388   2.327 -0.6114 -0.7835  1.4945
  131MOL0     H17262   3.889   7.277   2.433  0.6484  0.5619  0.0516
  131MOL0     H17263   3.844   7.278   2.270 -1.0137 -1.4240  2.3344
  131MOL0     H17264   3.745   7.466   2.477 -0.3060 -0.7479  0.6574
  131MOL0     H17265   3.694   7.478   2.307  0.2154  3.0450  2.3249
  131MOL0     H17266   3.559   7.322   2.490 -0.1632  1.3492 -0.7839
  131MOL0     H17267   3.651   7.207   2.379 -2.7524 -0.2848 -1.9043
  131MOL0     H17268   3.448   7.422   2.306  0.2178  0.8119 -3.3049
  131MOL0     H17269   3.428   7.251   2.298 -2.2142  2.9183  0.4392
  131MOL0     H17270   3.652   7.290   2.128  0.4012 -0.5037 -0.8835
  131MOL0     H17271   3.490   7.241   2.088 -0.7812  1.3805 -1.2078
  131MOL0     H17272   3.561   7.443   1.960  1.1366 -0.2667  0.9606
  131MOL0     H17273   3.578   7.544   2.104  2.1062  0.3694 -1.5659
  131MOL0     H17274   3.937   7.283   1.853 -0.6389  0.5305  2.2290
  131MOL0     H17275   4.107   7.259   1.707 -0.2148 -2.5658  0.1331
  131MOL0     H17276   4.544   7.304   1.564 -0.6008 -2.4275 -0.0247
  131MOL0     H17277   4.750   7.354   1.470 -1.5517 -0.5674 -0.4100
  131MOL0     H17278   5.173   7.131   2.258 -0.7779 -2.0433  2.0005
  131MOL0     H17279   4.953   7.148   2.331 -0.3350 -1.3085  2.0612
  131MOL0     H17280   4.503   7.031   2.156 -1.4335  0.5997 -0.8441
  131MOL0     H17281   4.272   7.033   2.154 -1.1820 -2.5116 -0.9243
  131MOL0     H17282   4.058   6.811   2.502 -1.6782  0.5779  0.3824
  131MOL0     H17283   4.032   6.691   2.381 -2.3374  0.5859 -0.3831
  131MOL0     H17284   3.875   6.958   2.405 -0.3840  0.2279  0.0299
  131MOL0     H17285   3.833   6.806   2.314  1.4258 -0.9150 -0.6876
  131MOL0     H17286   3.864   6.839   2.623  1.9845 -0.1625  0.0007
  131MOL0     H17287   3.850   6.681   2.544 -4.6434 -1.4056  3.4193
  131MOL0     H17288   3.641   6.767   2.432  2.0901  2.0071 -1.6643
  131MOL0     H17289   3.646   6.691   2.585 -2.8222 -0.1276 -2.4936
  131MOL0     H17290   3.552   7.108   2.685  2.7520  2.4476 -1.9455
  131MOL0     H17291   4.278   6.763   2.487  1.2969  0.3680  0.2822
  131MOL0     H17292   4.503   6.776   2.499  1.4278  0.9490 -0.3330
  132MOL0     O17293   9.051   1.105   4.063  0.0881 -0.9410  0.1252
  132MOL0     C17294   9.100   1.190   4.139 -0.6302  0.7975  0.0594
  132MOL0     O17295   9.038   1.270   4.229 -0.0177  0.4521  0.3624
  132MOL0     C17296   8.902   1.297   4.219  0.1111  0.9900  1.8923
  132MOL0     C17297   8.825   1.292   4.097 -0.2740  0.0500 -0.0264
  132MOL0     C17298   8.683   1.299   4.094 -1.3070 -0.0299  0.3715
  132MOL0     C17299   8.622   1.294   4.216  0.8613 -0.6080 -0.1587
  132MOL0     O17300   8.486   1.320   4.230 -0.3846  0.1427  0.2393
  132MOL0     C17301   8.398   1.223   4.167  0.4265  0.1403  0.6334
  132MOL0     C17302   8.304   1.150   4.261  0.7006 -0.6184 -0.1837
  132MOL0     C17303   8.156   1.194   4.260 -0.0028  0.0760  0.6717
  132MOL0     C17304   8.085   1.131   4.377  0.8109  0.5646 -0.1819
  132MOL0     C17305   7.953   1.195   4.405  0.2685 -0.0546  0.7651
  132MOL0     C17306   7.869   1.203   4.282  0.3580 -0.1704 -0.7657
  132MOL0     C17307   7.715   1.221   4.308 -0.3862 -0.8086 -0.1566
  132MOL0     C17308   7.626   1.210   4.180 -0.1128 -0.4650  0.0480
  132MOL0     N17309   7.505   1.136   4.195  1.0778  0.3241 -0.6117
  132MOL0     C17310   7.496   0.997   4.203  0.4343 -0.5815 -0.2211
  132MOL0     C17311   7.362   0.968   4.202  0.2080  0.1668  0.2556
  132MOL0     C17312   7.312   0.832   4.222 -0.5542  0.2183 -1.2274
  132MOL0     C17313   7.306   0.798   4.370 -0.2834 -0.0267 -0.0503
  132MOL0     C17314   7.183   0.868   4.443  0.5178 -0.2214 -0.0218
  132MOL0     C17315   7.176   0.852   4.592 -0.1209 -0.2326 -0.2336
  132MOL0     O17316   7.126   0.728   4.631  0.2643  0.0896 -0.1232
  132MOL0     C17317   6.989   0.707   4.638 -0.3259  0.2213  0.1940
  132MOL0     C17318   6.889   0.796   4.589 -0.2380  0.0157 -0.9558
  132MOL0     C17319   6.757   0.760   4.602 -0.3806  1.3847  0.3510
  132MOL0     C17320   6.722   0.634   4.676 -0.0737 -0.3152 -0.4455
  132MOL0     C17321   6.582   0.601   4.707  0.2115  0.0048  0.2366
  132MOL0     O17322   6.487   0.661   4.634 -0.2753 -0.2273 -0.2952
  132MOL0     C17323   6.364   0.706   4.696 -0.0751  0.4153 -0.3183
  132MOL0     C17324   6.337   0.729   4.832 -0.7616  0.1020 -0.1381
  132MOL0     C17325   6.210   0.758   4.877  0.6000 -0.0045  0.0842
  132MOL0     C17326   6.100   0.780   4.788 -0.2912  0.2018  0.4032
  132MOL0     O17327   5.969   0.806   4.822  0.3220  0.0299  0.3436
  132MOL0     C17328   5.941   0.760   4.959 -0.2801 -0.6192 -0.3777
  132MOL0     C17329   5.793   0.784   4.998  0.0657 -0.1149  1.1786
  132MOL0     C17330   5.696   0.702   4.900  0.2217 -0.9117 -0.0324
  132MOL0     C17331   5.556   0.743   4.939  0.4361 -0.6670 -0.3202
  132MOL0     C17332   5.456   0.681   4.851  0.1476  0.0023  0.2208
  132MOL0     C17333   5.303   0.711   4.890 -0.3817 -0.3030  0.5012
  132MOL0     C17334   5.269   0.862   4.904 -0.3385  0.8023 -0.3388
  132MOL0     C17335   5.118   0.895   4.897  1.1327 -0.2084 -0.2398
  132MOL0    Cl17336   5.011   0.774   4.984  0.4266  0.0687 -0.0309
  132MOL0     C17337   6.129   0.771   4.656  0.3107 -0.0369 -0.3312
  132MOL0     C17338   6.257   0.737   4.612 -0.1973  0.7565  0.1674
  132MOL0     O17339   6.561   0.530   4.802  0.2730 -0.2302 -0.2689
  132MOL0     C17340   6.822   0.549   4.721  0.1269  0.0946 -0.1443
  132MOL0     C17341   6.951   0.589   4.697 -0.5609 -0.3975  0.5576
  132MOL0     N17342   7.291   1.080   4.207 -0.1705 -0.0016  0.0393
  132MOL0     N17343   7.376   1.183   4.199 -0.0688 -0.7296  0.5982
  132MOL0     C17344   8.696   1.304   4.333 -0.7905  1.2822 -0.3466
  132MOL0     C17345   8.836   1.312   4.335  0.6637  0.3135 -0.2688
  132MOL0     C17346   9.248   1.187   4.135 -0.1657  0.5647 -0.9977
  132MOL0     C17347   9.316   1.116   4.023  0.6796 -0.3073 -0.6215
  132MOL0     C17348   9.452   1.099   4.031 -0.1587 -0.0485  0.0087
  132MOL0     C17349   9.528   1.147   4.140  0.4000 -0.3483  0.6095
  132MOL0     O17350   9.657   1.118   4.128  0.1310  0.2023 -0.1434
  132MOL0     C17351   9.743   1.163   4.232 -1.4649  0.0531  0.5514
  132MOL0     C17352   9.899   1.132   4.209 -0.5600 -0.1761  0.2582
  132MOL0     C17353   9.983   1.149   4.339 -0.2625  0.5561  0.2936
  132MOL0     C17354  10.133   1.134   4.318  0.7696  0.0019 -1.3085
  132MOL0     C17355  10.200   1.213   4.217 -0.5102 -0.0309 -0.0223
  132MOL0     C17356  10.259   1.270   4.126 -0.3672  0.0862 -0.0999
  132MOL0     C17357   9.468   1.225   4.232 -0.3593 -0.0824  0.4410
  132MOL0     C17358   9.333   1.241   4.235 -0.3761  0.7524 -0.4845
  132MOL0     H17359   8.876   1.281   4.002  0.5467 -0.5521  0.4718
  132MOL0     H17360   8.626   1.312   4.003 -2.9326  0.1766  1.3898
  132MOL0     H17361   8.449   1.148   4.106  0.4873  0.2549  0.5435
  132MOL0     H17362   8.329   1.270   4.096  0.3172 -2.4482 -1.0846
  132MOL0     H17363   8.338   1.166   4.364  0.5171  1.7248 -0.4334
  132MOL0     H17364   8.323   1.043   4.253  3.4905 -0.1734 -0.7281
  132MOL0     H17365   8.105   1.159   4.170 -0.9811 -0.9559  1.6044
  132MOL0     H17366   8.148   1.302   4.278 -0.9756  0.0819  0.2685
  132MOL0     H17367   8.058   1.030   4.344  0.7116  0.9156 -1.2178
  132MOL0     H17368   8.142   1.127   4.470  1.1221 -0.4204 -0.4022
  132MOL0     H17369   7.965   1.295   4.448 -1.7724 -1.0330  4.0104
  132MOL0     H17370   7.906   1.138   4.486 -2.6871  1.8529  0.5225
  132MOL0     H17371   7.880   1.106   4.233 -3.0183 -1.6706  1.0892
  132MOL0     H17372   7.902   1.284   4.216 -2.9624  1.1807 -0.9699
  132MOL0     H17373   7.682   1.156   4.389 -2.1420  1.9201  1.4468
  132MOL0     H17374   7.699   1.318   4.354  1.4946 -0.2560 -0.5543
  132MOL0     H17375   7.688   1.151   4.112 -0.2971 -0.1817 -0.3741
  132MOL0     H17376   7.600   1.304   4.130 -2.2703 -0.6396  0.7315
  132MOL0     H17377   7.587   0.939   4.186  1.7982  1.7836 -1.5978
  132MOL0     H17378   7.376   0.755   4.178 -1.2133 -0.3129 -1.2716
  132MOL0     H17379   7.217   0.817   4.171  0.0438 -1.6140 -1.9065
  132MOL0     H17380   7.399   0.835   4.416  0.6446  0.7629 -2.4078
  132MOL0     H17381   7.305   0.690   4.383  0.6267 -0.1675 -1.0465
  132MOL0     H17382   7.201   0.974   4.427  0.1413 -0.2136 -0.4276
  132MOL0     H17383   7.082   0.857   4.401 -1.4798  0.9863  3.9401
  132MOL0     H17384   7.114   0.927   4.641 -2.0109 -4.2368  4.2860
  132MOL0     H17385   7.277   0.847   4.634 -0.0451  2.9926  0.2237
  132MOL0     H17386   6.915   0.896   4.557 -0.7423 -0.0273 -1.5180
  132MOL0     H17387   6.672   0.813   4.560 -1.7794  0.4954  1.9111
  132MOL0     H17388   6.427   0.751   4.887  1.2833  0.8232 -3.4870
  132MOL0     H17389   6.205   0.779   4.984  3.0469  0.2209  0.1934
  132MOL0     H17390   6.005   0.811   5.032 -1.3549  0.5056 -0.1807
  132MOL0     H17391   5.963   0.654   4.971  2.7018 -0.1141 -0.6948
  132MOL0     H17392   5.767   0.891   4.998  1.2904  0.2204 -0.5119
  132MOL0     H17393   5.780   0.753   5.102  2.3850  0.5835  1.7366
  132MOL0     H17394   5.721   0.596   4.916  0.2934 -0.9370 -0.3021
  132MOL0     H17395   5.724   0.718   4.795 -1.6478 -2.5850 -0.8645
  132MOL0     H17396   5.537   0.729   5.046  0.6393 -0.3847 -0.2460
  132MOL0     H17397   5.542   0.851   4.929 -1.7442 -0.7782  0.7509
  132MOL0     H17398   5.462   0.572   4.851 -0.3856 -0.0445  1.8025
  132MOL0     H17399   5.464   0.719   4.748 -1.8187  1.7872  0.6742
  132MOL0     H17400   5.278   0.658   4.982  2.0394 -0.9215  0.8545
  132MOL0     H17401   5.236   0.682   4.808  0.7749 -0.4978 -0.4119
  132MOL0     H17402   5.304   0.903   5.000  0.7079 -2.2350  0.6805
  132MOL0     H17403   5.331   0.911   4.827 -0.5980 -1.4341 -2.0668
  132MOL0     H17404   5.077   0.897   4.795 -0.9746  2.3713  0.5298
  132MOL0     H17405   5.090   0.994   4.934 -0.0755 -0.3765 -0.6409
  132MOL0     H17406   6.054   0.786   4.579 -1.6355  1.1225  1.6611
  132MOL0     H17407   6.264   0.733   4.504 -4.3415  2.7480 -0.3403
  132MOL0     H17408   6.788   0.463   4.777 -1.1890  0.1062 -0.8953
  132MOL0     H17409   7.043   0.531   4.707  0.6455  0.7661 -2.4726
  132MOL0     H17410   8.639   1.311   4.425  0.9763 -1.6606  1.1258
  132MOL0     H17411   8.895   1.311   4.426  0.1864  1.9423  0.0764
  132MOL0     H17412   9.252   1.074   3.947 -1.6444 -1.2086  1.7157
  132MOL0     H17413   9.500   1.039   3.954  2.3974  2.0213 -0.1484
  132MOL0     H17414   9.718   1.112   4.325  2.8054 -0.2560  1.7260
  132MOL0     H17415   9.734   1.270   4.249 -3.4099  0.3767 -1.8827
  132MOL0     H17416   9.898   1.026   4.181 -1.7056  0.1754 -1.1554
  132MOL0     H17417   9.932   1.189   4.122 -0.2371  0.3153  0.6936
  132MOL0     H17418   9.943   1.073   4.407 -1.5015 -0.4155 -1.4682
  132MOL0     H17419   9.963   1.248   4.380 -3.4034  0.8514 -1.7094
  132MOL0     H17420  10.181   1.157   4.414 -0.9657 -0.1660 -0.3648
  132MOL0     H17421  10.157   1.028   4.303  2.0229  0.0505  0.1157
  132MOL0     H17422  10.313   1.325   4.051 -0.5623 -1.3830 -1.3772
  132MOL0     H17423   9.518   1.275   4.314 -1.8630  2.1104  0.1109
  132MOL0     H17424   9.292   1.297   4.318  0.3537 -1.7395  1.6972
  133MOL0     O17425   8.266   8.138   3.084  0.6172  0.2556 -0.0263
  133MOL0     C17426   8.235   8.197   2.980 -0.2242 -0.8440 -0.6523
  133MOL0     O17427   8.324   8.281   2.908  0.0474  0.4241  0.3342
  133MOL0     C17428   8.445   8.313   2.954 -0.6786 -0.2971 -0.2912
  133MOL0     C17429   8.529   8.217   3.016  0.1652  0.2719  0.5632
  133MOL0     C17430   8.651   8.263   3.053 -0.5098 -0.6805  0.5141
  133MOL0     C17431   8.695   8.392   3.028 -0.7453 -0.4092  0.1316
  133MOL0     O17432   8.819   8.435   3.073 -0.1120  0.4428 -0.0751
  133MOL0     C17433   8.861   8.571   3.059  0.1958  0.3254  0.4362
  133MOL0     C17434   8.990   8.594   3.145  0.3355 -0.9236 -0.2841
  133MOL0     C17435   9.100   8.494   3.111 -0.0951 -1.1341  0.4549
  133MOL0     C17436   9.211   8.534   3.203 -0.0176  0.7673  0.3030
  133MOL0     C17437   9.327   8.439   3.179 -0.2200  0.3117  0.5638
  133MOL0     C17438   9.429   8.437   3.294  0.2077 -0.2948  0.1476
  133MOL0     C17439   9.573   8.387   3.257 -0.2590 -0.6206 -0.1106
  133MOL0     C17440   9.661   8.393   3.377  0.2727 -0.5311 -0.5285
  133MOL0     N17441   9.640   8.277   3.465  0.1391 -0.1308 -0.8267
  133MOL0     C17442   9.555   8.249   3.567 -0.3092 -0.5504  0.0249
  133MOL0     C17443   9.548   8.113   3.583 -1.3760 -0.2782  1.3809
  133MOL0     C17444   9.462   8.041   3.683  0.3345  0.1537  0.1074
  133MOL0     C17445   9.510   8.049   3.834  0.0778 -0.3082  0.4479
  133MOL0     C17446   9.476   8.169   3.926  0.1265 -0.3071 -0.0853
  133MOL0     C17447   9.329   8.181   3.959  0.0048 -0.3504  0.9777
  133MOL0     O17448   9.256   8.248   3.860 -0.2132 -0.2916 -0.6458
  133MOL0     C17449   9.131   8.277   3.894 -0.2415 -0.1413 -0.2886
  133MOL0     C17450   9.091   8.407   3.943  0.7445  0.4194 -0.2953
  133MOL0     C17451   8.951   8.431   3.973 -0.3801  0.4753 -0.3676
  133MOL0     C17452   8.859   8.336   3.953 -0.2870  0.3589  1.1983
  133MOL0     C17453   8.725   8.352   4.012 -0.2925 -0.0927 -0.0534
  133MOL0     O17454   8.663   8.235   4.039  0.0870 -0.1876  0.1868
  133MOL0     C17455   8.556   8.239   4.131  0.3277 -0.0968  0.1428
  133MOL0     C17456   8.428   8.273   4.086 -0.2894  0.7605 -0.4974
  133MOL0     C17457   8.316   8.263   4.176 -0.5902 -0.2941 -0.0749
  133MOL0     C17458   8.331   8.188   4.299 -0.3901 -0.3517 -0.5670
  133MOL0     O17459   8.233   8.140   4.385 -1.1325 -0.5290 -0.3053
  133MOL0     C17460   8.104   8.206   4.370  0.1472 -0.0650 -0.1846
  133MOL0     C17461   8.029   8.210   4.505 -0.8431  1.3155  0.5440
  133MOL0     C17462   7.879   8.248   4.502 -0.3560 -0.6013 -0.3957
  133MOL0     C17463   7.807   8.237   4.640  0.2671 -0.1637  0.1624
  133MOL0     C17464   7.813   8.093   4.701 -0.3996 -0.6851 -0.3609
  133MOL0     C17465   7.717   8.086   4.823  0.3212 -0.2039  0.4582
  133MOL0     C17466   7.726   7.942   4.882  0.5621  0.3253 -0.5372
  133MOL0     C17467   7.653   7.938   5.014 -0.0377  0.6805  0.5738
  133MOL0    Cl17468   7.699   7.765   5.072  0.2097  0.1495 -0.1060
  133MOL0     C17469   8.461   8.142   4.329  0.0364 -0.9594 -0.3724
  133MOL0     C17470   8.565   8.175   4.252 -0.1761  0.0233 -0.5723
  133MOL0     O17471   8.670   8.458   4.019  0.4414 -0.3644  0.0929
  133MOL0     C17472   8.904   8.214   3.895  0.0928  0.1051 -0.3205
  133MOL0     C17473   9.032   8.188   3.859  0.4751  0.5338 -0.0877
  133MOL0     N17474   9.642   8.052   3.497 -0.0330  0.5596  0.4726
  133MOL0     N17475   9.689   8.155   3.436 -0.4539  0.1553 -0.6880
  133MOL0     C17476   8.620   8.482   2.951  0.0909 -0.2367 -0.1281
  133MOL0     C17477   8.493   8.435   2.904  0.9759 -0.3280  1.4767
  133MOL0     C17478   8.089   8.176   2.930 -0.7048  0.0837  0.1084
  133MOL0     C17479   7.991   8.112   3.005  0.1800  0.3626 -0.3152
  133MOL0     C17480   7.863   8.088   2.956 -0.0305  0.3594 -0.9938
  133MOL0     C17481   7.835   8.117   2.822  0.2311 -0.1820  0.4309
  133MOL0     O17482   7.703   8.090   2.778  0.6110  0.1429  0.6799
  133MOL0     C17483   7.656   8.171   2.663 -0.2865 -0.6545  0.4975
  133MOL0     C17484   7.508   8.161   2.654 -0.2456 -0.0317  0.3475
  133MOL0     C17485   7.467   8.030   2.577 -0.2537 -0.4593  0.8212
  133MOL0     C17486   7.419   7.922   2.666  0.0368  0.5089 -0.1227
  133MOL0     C17487   7.366   7.793   2.610 -0.5663 -1.1191  0.8591
  133MOL0     C17488   7.330   7.684   2.573 -0.9130  0.0619  0.2607
  133MOL0     C17489   7.937   8.178   2.739  0.1636  0.1593  0.9836
  133MOL0     C17490   8.057   8.205   2.800  0.1991  0.2485  0.2797
  133MOL0     H17491   8.505   8.112   3.024  1.9156 -0.1028  1.4240
  133MOL0     H17492   8.726   8.196   3.095 -2.3847 -2.5553  1.0220
  133MOL0     H17493   8.775   8.632   3.088 -0.6426 -0.0925 -1.0672
  133MOL0     H17494   8.888   8.601   2.957  0.8646 -3.3193 -0.6026
  133MOL0     H17495   8.958   8.580   3.248 -2.4902  0.5872 -0.8811
  133MOL0     H17496   9.009   8.700   3.130 -1.6129 -0.3997  0.7257
  133MOL0     H17497   9.135   8.508   3.008 -2.6338  0.2998 -0.2873
  133MOL0     H17498   9.075   8.388   3.107  0.0949 -1.1707  0.2553
  133MOL0     H17499   9.256   8.633   3.194 -0.5049  1.0780  1.1742
  133MOL0     H17500   9.180   8.522   3.307  1.7165  1.6128  0.9541
  133MOL0     H17501   9.370   8.458   3.080 -1.4045 -4.1180 -1.0631
  133MOL0     H17502   9.294   8.335   3.166  3.1855 -0.4941 -4.6318
  133MOL0     H17503   9.386   8.371   3.371 -0.1748  0.0159  0.2067
  133MOL0     H17504   9.434   8.539   3.332  0.7436  0.1019 -0.9571
  133MOL0     H17505   9.563   8.284   3.224 -1.6946 -0.9719  1.3241
  133MOL0     H17506   9.608   8.442   3.169 -1.9369 -1.3969 -1.2971
  133MOL0     H17507   9.634   8.491   3.417 -1.0064 -0.0046 -2.5296
  133MOL0     H17508   9.768   8.403   3.356  0.3876 -0.1680  0.2074
  133MOL0     H17509   9.507   8.324   3.629  0.4626 -0.5322  0.6273
  133MOL0     H17510   9.464   7.937   3.649  0.2424  0.2044 -0.0566
  133MOL0     H17511   9.363   8.083   3.663  0.5317 -0.8481 -3.9274
  133MOL0     H17512   9.619   8.043   3.826  0.1088  1.0200 -0.4733
  133MOL0     H17513   9.471   7.967   3.895  1.5738  1.1713  3.6226
  133MOL0     H17514   9.528   8.169   4.022 -1.2990  3.2265  0.8698
  133MOL0     H17515   9.496   8.267   3.881  2.0094 -0.0323  1.2234
  133MOL0     H17516   9.321   8.242   4.049  2.5564  0.7576  0.5226
  133MOL0     H17517   9.285   8.080   3.968  0.3801 -0.8569 -1.9365
  133MOL0     H17518   9.164   8.485   3.964  0.7404  0.3530 -0.0296
  133MOL0     H17519   8.929   8.522   4.028  1.6522 -0.0510  1.4439
  133MOL0     H17520   8.424   8.316   3.987  2.6930 -0.0161 -1.0418
  133MOL0     H17521   8.226   8.306   4.135  0.9144  1.4367 -1.7154
  133MOL0     H17522   8.036   8.160   4.298  0.0798  2.9318 -2.2084
  133MOL0     H17523   8.121   8.309   4.337 -0.5178  0.8971  2.2486
  133MOL0     H17524   8.079   8.286   4.566  0.2816 -1.5750  3.5690
  133MOL0     H17525   8.031   8.107   4.544 -0.8177  0.7810 -0.8072
  133MOL0     H17526   7.831   8.188   4.425 -0.8839 -0.3630 -0.2520
  133MOL0     H17527   7.867   8.351   4.467 -4.4550  0.4917  3.3553
  133MOL0     H17528   7.825   8.316   4.713 -2.9294 -0.7154  1.7333
  133MOL0     H17529   7.701   8.253   4.617  0.2019 -0.4626  0.2587
  133MOL0     H17530   7.912   8.089   4.747 -0.2807  4.6882  0.4910
  133MOL0     H17531   7.792   8.022   4.621 -3.4655  2.1787 -2.3646
  133MOL0     H17532   7.614   8.106   4.790 -0.5788 -0.9018  2.7221
  133MOL0     H17533   7.743   8.165   4.894 -2.4532  2.9906 -1.7627
  133MOL0     H17534   7.673   7.871   4.819  0.2743  0.6452 -0.6580
  133MOL0     H17535   7.830   7.907   4.883  1.6750  3.3354  0.3400
  133MOL0     H17536   7.547   7.956   4.996 -0.4185  0.2294  2.1575
  133MOL0     H17537   7.707   8.016   5.069  0.0330  0.2678  1.0997
  133MOL0     H17538   8.466   8.090   4.424  0.7674 -2.9297 -1.4262
  133MOL0     H17539   8.654   8.131   4.296 -2.4053 -1.5385  2.8168
  133MOL0     H17540   8.830   8.135   3.889  1.8931 -1.8123  1.3623
  133MOL0     H17541   9.062   8.095   3.810 -4.3201  0.0579 -2.7016
  133MOL0     H17542   8.649   8.583   2.922 -1.4810  0.5518  0.8670
  133MOL0     H17543   8.436   8.487   2.827  1.4336 -2.0840 -0.1165
  133MOL0     H17544   8.012   8.090   3.109  0.7604 -1.3260 -0.7570
  133MOL0     H17545   7.787   8.027   3.003  2.2365 -2.5602 -0.8159
  133MOL0     H17546   7.713   8.132   2.579  0.0219 -2.0622  1.3338
  133MOL0     H17547   7.689   8.275   2.677 -1.8097 -0.2251  1.1197
  133MOL0     H17548   7.461   8.167   2.753 -3.3709  1.7234 -1.0979
  133MOL0     H17549   7.465   8.246   2.600 -0.9291  0.2566  1.3128
  133MOL0     H17550   7.537   7.994   2.502 -3.6798 -1.6324 -2.0826
  133MOL0     H17551   7.379   8.062   2.521  0.1499  0.0750  0.4834
  133MOL0     H17552   7.492   7.901   2.745 -1.2165 -1.6467  0.5272
  133MOL0     H17553   7.331   7.965   2.714 -0.1708 -0.8434  0.7789
  133MOL0     H17554   7.278   7.592   2.550 -0.2819  0.0677 -1.3886
  133MOL0     H17555   7.937   8.187   2.631  0.2077  2.1743  1.1065
  133MOL0     H17556   8.129   8.259   2.740 -0.1479  0.6536  0.2228
  134MOL0     O17557   4.367   4.584   5.890  0.1313  0.3453  0.2205
  134MOL0     C17558   4.369   4.495   5.811 -0.0827  0.6841 -0.2821
  134MOL0     O17559   4.266   4.405   5.796  0.5232  0.8199 -0.1280
  134MOL0     C17560   4.143   4.423   5.859 -0.3612  1.4030 -0.1085
  134MOL0     C17561   4.027   4.391   5.784  0.0480  0.1502 -0.5064
  134MOL0     C17562   3.896   4.402   5.844  0.4051 -0.8703  0.6802
  134MOL0     C17563   3.886   4.419   5.985  0.3060 -0.0490 -0.1252
  134MOL0     O17564   3.760   4.415   6.053 -0.4062 -0.7338  0.6361
  134MOL0     C17565   3.644   4.401   5.974  0.6399  0.4703 -0.6605
  134MOL0     C17566   3.516   4.376   6.070  0.2230 -0.6055  0.1860
  134MOL0     C17567   3.514   4.498   6.169  0.5327  0.0799 -0.0817
  134MOL0     C17568   3.494   4.633   6.102  0.6169  0.2636  0.2937
  134MOL0     C17569   3.521   4.744   6.200 -1.4996 -0.5115  0.2648
  134MOL0     C17570   3.412   4.756   6.310  0.2958 -0.0198  0.5890
  134MOL0     C17571   3.455   4.871   6.400 -0.6361 -0.6896  0.5713
  134MOL0     C17572   3.379   4.874   6.531 -0.5436 -0.0238  0.2639
  134MOL0     N17573   3.236   4.890   6.513  0.4669 -0.0375  0.7104
  134MOL0     C17574   3.170   5.017   6.491 -0.0324  0.1085  0.1037
  134MOL0     C17575   3.045   4.973   6.476  0.1294  0.0380 -0.0524
  134MOL0     C17576   2.929   5.061   6.456  0.5414 -0.1932  0.2674
  134MOL0     C17577   2.933   5.196   6.520  0.1086  0.2241  0.2218
  134MOL0     C17578   2.825   5.289   6.472 -0.4317  0.7462  0.3260
  134MOL0     C17579   2.690   5.222   6.480 -0.6522 -0.0639 -0.3859
  134MOL0     O17580   2.580   5.312   6.478 -0.5062 -0.6162  0.3973
  134MOL0     C17581   2.451   5.270   6.479 -0.3651  0.4303 -1.1257
  134MOL0     C17582   2.388   5.206   6.597 -0.9437 -0.9753  0.9214
  134MOL0     C17583   2.258   5.159   6.586  0.9631 -0.0583 -0.6751
  134MOL0     C17584   2.180   5.173   6.469  0.7687 -1.0818  0.6870
  134MOL0     C17585   2.040   5.133   6.463  0.0799  0.0818  0.3237
  134MOL0     O17586   1.981   5.125   6.585 -0.2816 -0.6584  0.3077
  134MOL0     C17587   1.843   5.094   6.571 -0.4746  0.2055  0.3018
  134MOL0     C17588   1.785   4.973   6.526  0.0362 -0.1721 -0.7378
  134MOL0     C17589   1.649   4.965   6.509 -0.2770 -0.1861  0.0263
  134MOL0     C17590   1.568   5.067   6.553  0.3219 -0.7733 -0.7897
  134MOL0     O17591   1.436   5.051   6.517  1.0479 -0.0005  0.6329
  134MOL0     C17592   1.349   5.125   6.598 -0.5934 -0.4039  0.2429
  134MOL0     C17593   1.205   5.079   6.591  1.1022  0.3513 -0.4305
  134MOL0     C17594   1.119   5.160   6.698 -0.4914  0.7902  0.1190
  134MOL0     C17595   0.978   5.103   6.706 -0.0278  0.5515  0.6973
  134MOL0     C17596   0.896   5.171   6.587 -0.2633  0.4272 -0.2953
  134MOL0     C17597   0.766   5.082   6.567 -0.3164 -0.8251  0.0376
  134MOL0     C17598   0.689   5.134   6.435 -0.1347  0.1886 -0.6627
  134MOL0     C17599   0.550   5.076   6.413 -0.6547  0.2260  0.5211
  134MOL0    Cl17600   0.468   5.067   6.566  0.4547 -0.0331  0.2300
  134MOL0     C17601   1.622   5.193   6.594  0.9477  0.4539 -0.2455
  134MOL0     C17602   1.757   5.195   6.608 -0.1807 -0.1533 -0.0261
  134MOL0     O17603   1.991   5.101   6.356  0.0711 -0.1973  0.1628
  134MOL0     C17604   2.238   5.237   6.365  0.1036  0.1424 -0.3541
  134MOL0     C17605   2.365   5.288   6.372 -0.5888  0.3638  1.1542
  134MOL0     N17606   3.026   4.835   6.478 -0.1681  0.2246 -0.1485
  134MOL0     N17607   3.146   4.791   6.499  0.4869  0.2647 -0.5517
  134MOL0     C17608   4.002   4.446   6.061  0.2750 -0.7173  0.1477
  134MOL0     C17609   4.124   4.458   5.994 -0.5831  0.8854 -0.1368
  134MOL0     C17610   4.490   4.462   5.737  1.0599  1.2222 -0.8293
  134MOL0     C17611   4.487   4.346   5.651 -0.5330  0.5153 -0.1735
  134MOL0     C17612   4.603   4.310   5.585 -0.3285  0.2930  0.3092
  134MOL0     C17613   4.717   4.387   5.600  0.6326 -0.3029  0.0803
  134MOL0     O17614   4.825   4.336   5.533  0.2241 -0.4398  0.3446
  134MOL0     C17615   4.956   4.389   5.551  0.0974  0.1787 -0.1319
  134MOL0     C17616   5.035   4.337   5.427 -0.0885 -0.4341 -0.0482
  134MOL0     C17617   5.178   4.382   5.435  0.5198 -0.9550  0.6001
  134MOL0     C17618   5.248   4.355   5.303 -0.0346 -0.7261  0.6839
  134MOL0     C17619   5.377   4.425   5.290  0.3453 -0.3222 -0.4831
  134MOL0     C17620   5.491   4.462   5.285 -0.2555 -0.3892 -0.1779
  134MOL0     C17621   4.732   4.497   5.689 -0.1648 -0.1032  0.0568
  134MOL0     C17622   4.609   4.531   5.756 -0.2044  0.9801 -0.2217
  134MOL0     H17623   4.041   4.367   5.679 -1.1249  1.5173 -1.0073
  134MOL0     H17624   3.807   4.368   5.790  2.5612 -2.4485 -2.1903
  134MOL0     H17625   3.654   4.302   5.930  2.8605 -1.2017  3.1292
  134MOL0     H17626   3.623   4.469   5.891  2.0151 -1.3307 -2.6093
  134MOL0     H17627   3.531   4.280   6.120  0.8756 -0.4983  0.2108
  134MOL0     H17628   3.420   4.368   6.019 -0.1837 -1.7812  1.0991
  134MOL0     H17629   3.606   4.505   6.228 -0.6427 -3.6123  2.5883
  134MOL0     H17630   3.440   4.477   6.246  2.8007  1.0040  2.5444
  134MOL0     H17631   3.567   4.644   6.021 -0.4956 -0.2785 -0.8353
  134MOL0     H17632   3.398   4.637   6.050  1.8530  1.8285 -2.0439
  134MOL0     H17633   3.538   4.837   6.144 -0.5654 -1.1909 -0.6252
  134MOL0     H17634   3.615   4.707   6.243 -1.7522 -3.6932 -1.5684
  134MOL0     H17635   3.404   4.665   6.370 -0.4149 -0.7818 -0.6105
  134MOL0     H17636   3.309   4.748   6.275  0.6260 -1.6948 -0.1467
  134MOL0     H17637   3.560   4.856   6.427 -0.3910  2.8570  2.1362
  134MOL0     H17638   3.455   4.971   6.354 -3.0444 -0.5979  0.6363
  134MOL0     H17639   3.431   4.954   6.586 -0.1956 -0.8356  1.1575
  134MOL0     H17640   3.394   4.778   6.582  0.5497 -1.9213 -3.2695
  134MOL0     H17641   3.208   5.119   6.489  1.3847 -0.3764  1.0953
  134MOL0     H17642   2.837   5.012   6.488 -0.3185 -1.2800 -3.3656
  134MOL0     H17643   2.903   5.075   6.350 -0.8508  2.0271  0.8267
  134MOL0     H17644   3.031   5.235   6.491  1.3623 -3.4660 -1.1350
  134MOL0     H17645   2.939   5.182   6.628  2.1090 -1.8430 -0.0805
  134MOL0     H17646   2.835   5.382   6.528 -0.6540  0.7091  0.4266
  134MOL0     H17647   2.843   5.311   6.366 -2.4605 -3.8518 -1.2410
  134MOL0     H17648   2.677   5.148   6.559  2.0607 -1.6492 -1.2767
  134MOL0     H17649   2.689   5.158   6.391 -1.2563 -0.7051  0.0676
  134MOL0     H17650   2.441   5.206   6.692 -1.1156  1.5506  1.0951
  134MOL0     H17651   2.219   5.096   6.665  1.3977  0.6553  0.1261
  134MOL0     H17652   1.829   4.875   6.510 -0.3390 -0.5643  0.5718
  134MOL0     H17653   1.599   4.874   6.477 -2.5622 -0.5877  4.1391
  134MOL0     H17654   1.348   5.230   6.569  2.5051 -0.5053 -0.5619
  134MOL0     H17655   1.380   5.111   6.702 -2.3119 -1.1481  0.6987
  134MOL0     H17656   1.196   4.970   6.601  2.6475  0.1725 -0.7907
  134MOL0     H17657   1.163   5.100   6.492 -1.0378  0.7207  0.4805
  134MOL0     H17658   1.123   5.265   6.671 -0.3526  0.9241  0.6391
  134MOL0     H17659   1.160   5.148   6.799  0.1727  1.7349 -0.0191
  134MOL0     H17660   0.978   4.994   6.704  2.7211  0.4806 -0.0795
  134MOL0     H17661   0.930   5.127   6.802 -2.5486  2.6261 -0.9386
  134MOL0     H17662   0.957   5.167   6.496  0.3642 -2.5034  0.1534
  134MOL0     H17663   0.872   5.277   6.602  1.5905  0.7930  0.3872
  134MOL0     H17664   0.713   5.081   6.662  1.7580 -1.3825  1.2450
  134MOL0     H17665   0.803   4.983   6.540 -2.1978 -0.9560 -2.4649
  134MOL0     H17666   0.674   5.242   6.431  2.5514  0.7973  2.2302
  134MOL0     H17667   0.747   5.115   6.344  1.0050  0.6366 -0.0462
  134MOL0     H17668   0.557   4.980   6.361  1.1278  0.4132  0.3532
  134MOL0     H17669   0.495   5.129   6.334 -3.0486 -1.1118  1.1748
  134MOL0     H17670   1.556   5.274   6.624  0.4072  1.0767 -2.8235
  134MOL0     H17671   1.807   5.279   6.653  0.5094 -1.5835  2.0032
  134MOL0     H17672   2.178   5.255   6.276 -0.0798 -1.0663 -0.4902
  134MOL0     H17673   2.387   5.350   6.285 -4.3647  1.2173  0.6285
  134MOL0     H17674   3.984   4.449   6.168  0.3823  3.5866  0.2216
  134MOL0     H17675   4.210   4.486   6.055 -0.3414  2.1267 -1.0049
  134MOL0     H17676   4.399   4.284   5.639  0.0067 -0.0533 -1.3190
  134MOL0     H17677   4.597   4.237   5.505  1.4602  1.3755 -0.9016
  134MOL0     H17678   5.007   4.344   5.637  2.5494 -1.4450 -2.2753
  134MOL0     H17679   4.957   4.498   5.555 -1.7808  0.2063  0.8507
  134MOL0     H17680   5.026   4.229   5.414  0.3371 -0.3547 -1.1373
  134MOL0     H17681   4.982   4.381   5.342 -3.0229  1.9524  2.7355
  134MOL0     H17682   5.221   4.316   5.511  0.7909 -2.2987 -0.6694
  134MOL0     H17683   5.185   4.487   5.464 -1.8118 -0.0797 -1.6675
  134MOL0     H17684   5.247   4.247   5.286 -1.2625 -0.7632  0.9052
  134MOL0     H17685   5.184   4.392   5.222  0.1175 -1.3116  0.2943
  134MOL0     H17686   5.595   4.486   5.294 -0.4209 -0.1551  1.3276
  134MOL0     H17687   4.822   4.556   5.699 -0.2683  0.0054  0.3654
  134MOL0     H17688   4.604   4.618   5.821  1.7663  0.0740  1.2600
  135MOL0     O17689  11.090   2.731  10.438 -0.5652 -0.6397  0.0751
  135MOL0     C17690  11.106   2.736  10.314  0.2408 -0.3614  0.1944
  135MOL0     O17691  11.007   2.744  10.224  0.9855  0.0815 -0.4407
  135MOL0     C17692  10.879   2.780  10.264 -0.4136 -0.5495  0.5474
  135MOL0     C17693  10.862   2.875  10.368  0.1834  0.1374  0.3808
  135MOL0     C17694  10.743   2.933  10.404  1.2835  0.4006  0.7232
  135MOL0     C17695  10.623   2.880  10.343  0.4431  0.2704 -0.1798
  135MOL0     O17696  10.504   2.937  10.376  0.9794 -0.1922 -0.5177
  135MOL0     C17697  10.391   2.890  10.306  0.2303  0.7059  0.2975
  135MOL0     C17698  10.284   2.995  10.321  0.1212 -0.3248 -0.3802
  135MOL0     C17699  10.288   3.104  10.218 -0.0368 -0.1583  0.9170
  135MOL0     C17700  10.143   3.152  10.188  0.4190 -0.4479 -0.2424
  135MOL0     C17701  10.142   3.257  10.077 -0.1838  0.4026  0.3506
  135MOL0     C17702   9.999   3.283  10.024 -0.4927 -0.9293 -0.7808
  135MOL0     C17703  10.009   3.402   9.920  0.3316  0.2001  0.0040
  135MOL0     C17704   9.887   3.410   9.829 -1.0600 -0.6110 -0.2457
  135MOL0     N17705   9.758   3.402   9.910  0.1936 -0.2509  0.2894
  135MOL0     C17706   9.676   3.292   9.923  0.1271 -1.0530  0.5966
  135MOL0     C17707   9.580   3.320  10.019  0.5115 -0.2747 -0.2341
  135MOL0     C17708   9.475   3.218  10.074  0.6794 -0.7593 -0.1624
  135MOL0     C17709   9.375   3.182   9.969  0.7757  0.7912 -0.3147
  135MOL0     C17710   9.283   3.299   9.928  0.1556 -0.0413  0.3254
  135MOL0     C17711   9.160   3.240   9.862  0.2430 -0.0409  0.0658
  135MOL0     O17712   9.068   3.218   9.962  0.6284 -0.2786 -0.3872
  135MOL0     C17713   8.944   3.170   9.928  0.7076  0.0729  1.0023
  135MOL0     C17714   8.903   3.153   9.794  0.3415  0.8249 -0.3042
  135MOL0     C17715   8.768   3.105   9.770  0.1859  1.3246  0.6063
  135MOL0     C17716   8.677   3.079   9.875 -0.0962 -0.3007 -0.5498
  135MOL0     C17717   8.526   3.049   9.852 -0.2511  0.5221  0.1863
  135MOL0     O17718   8.454   3.052   9.966 -0.2231  0.0406 -0.7984
  135MOL0     C17719   8.318   3.018   9.966 -0.0141  0.1463  0.5678
  135MOL0     C17720   8.243   3.075   9.866  0.4453  0.6844  0.8813
  135MOL0     C17721   8.106   3.045   9.860  0.0845  0.9665  0.0240
  135MOL0     C17722   8.044   2.966   9.959 -0.4439 -0.1626  0.3704
  135MOL0     O17723   7.907   2.953   9.982  0.0351  0.1115  0.3324
  135MOL0     C17724   7.817   2.997   9.883  0.6526  0.6489 -0.1635
  135MOL0     C17725   7.663   2.981   9.927  0.0279 -0.5049 -0.2240
  135MOL0     C17726   7.581   3.065   9.830 -0.2666  0.6479 -0.7045
  135MOL0     C17727   7.434   3.044   9.864  0.0142  0.2854 -1.0380
  135MOL0     C17728   7.352   3.089   9.751  0.2683  0.1658 -0.0857
  135MOL0     C17729   7.212   3.031   9.750  0.1976  0.5143  0.9858
  135MOL0     C17730   7.134   3.105   9.864  0.7196  0.6464  0.5464
  135MOL0     C17731   6.984   3.119   9.851  0.1280  0.5824  0.0780
  135MOL0    Cl17732   6.903   2.984   9.931 -0.4323  0.3449  0.3150
  135MOL0     C17733   8.114   2.907  10.058  0.2289 -0.1549  0.7650
  135MOL0     C17734   8.251   2.942  10.060  0.5988  0.0938 -1.0636
  135MOL0     O17735   8.494   2.996   9.744  0.5825 -0.0966  0.1412
  135MOL0     C17736   8.727   3.100  10.009 -1.1969  0.1080 -0.0543
  135MOL0     C17737   8.859   3.140  10.027 -0.5092  0.2705 -0.5261
  135MOL0     N17738   9.606   3.448  10.062  0.0480  0.5132 -0.4716
  135MOL0     N17739   9.711   3.490   9.995  0.2881  0.0899  0.0922
  135MOL0     C17740  10.639   2.778  10.247 -0.1558 -0.2102 -0.2621
  135MOL0     C17741  10.765   2.737  10.204  0.0502  0.7493 -0.6435
  135MOL0     C17742  11.245   2.731  10.265  0.0611  0.5470  0.7330
  135MOL0     C17743  11.345   2.778  10.351 -0.1976  0.1170  0.2358
  135MOL0     C17744  11.482   2.786  10.310  0.1031  0.1263  0.0208
  135MOL0     C17745  11.514   2.748  10.174 -0.7604  0.6469 -0.7636
  135MOL0     O17746  11.642   2.764  10.152 -1.0124  0.3405  0.3165
  135MOL0     C17747  11.684   2.736  10.016 -0.0310  0.1208  0.4196
  135MOL0     C17748  11.833   2.777  10.001 -0.3182 -0.8801 -1.0757
  135MOL0     C17749  11.895   2.760   9.868  0.4857 -0.2860 -0.5666
  135MOL0     C17750  12.025   2.837   9.843  0.9959  0.3620 -1.0401
  135MOL0     C17751  12.121   2.770   9.763  0.0241  0.1694  0.9983
  135MOL0     C17752  12.212   2.721   9.694  0.2279 -0.4854 -0.3992
  135MOL0     C17753  11.413   2.701  10.086  0.6780  0.2964 -0.2051
  135MOL0     C17754  11.281   2.701  10.132  0.1336 -0.1475 -0.3177
  135MOL0     H17755  10.944   2.916  10.428  1.8393 -3.1520  0.6035
  135MOL0     H17756  10.725   3.015  10.472 -0.0018  1.8790 -1.2552
  135MOL0     H17757  10.363   2.792  10.344  1.2457 -0.4240 -1.7128
  135MOL0     H17758  10.405   2.883  10.197 -0.6339  1.3632  0.1309
  135MOL0     H17759  10.284   3.044  10.419 -3.6614 -0.8626  0.0440
  135MOL0     H17760  10.193   2.935  10.311  0.4149 -0.8361 -0.0410
  135MOL0     H17761  10.341   3.068  10.130  3.7540  2.2254  1.9918
  135MOL0     H17762  10.344   3.192  10.252 -2.3954  2.6431 -1.7337
  135MOL0     H17763  10.089   3.066  10.148 -1.7349  0.4124  0.6949
  135MOL0     H17764  10.101   3.192  10.281  2.6420 -1.0896  1.1226
  135MOL0     H17765  10.206   3.237   9.991  2.4663  2.6006  1.6737
  135MOL0     H17766  10.175   3.353  10.118 -3.2501  2.2327 -1.0549
  135MOL0     H17767   9.943   3.300  10.116  0.5373 -0.5676 -0.1985
  135MOL0     H17768   9.973   3.191   9.972  0.2884 -3.0767  2.3457
  135MOL0     H17769  10.006   3.490   9.984  0.2357  1.0807 -1.1719
  135MOL0     H17770  10.098   3.378   9.860 -0.0269 -2.4201  0.4162
  135MOL0     H17771   9.895   3.330   9.755 -0.8555 -1.9490  1.1739
  135MOL0     H17772   9.890   3.501   9.767  2.0351 -0.9296 -0.7392
  135MOL0     H17773   9.702   3.203   9.867  2.4393 -1.0347  1.5166
  135MOL0     H17774   9.425   3.273  10.155 -0.1608 -1.1840 -0.3829
  135MOL0     H17775   9.515   3.130  10.126 -0.1300 -0.6309  0.7132
  135MOL0     H17776   9.322   3.096  10.008  0.7182  0.7939 -0.3851
  135MOL0     H17777   9.428   3.156   9.876 -1.7036  1.9385 -2.1756
  135MOL0     H17778   9.254   3.369  10.008 -0.7321 -0.8538  0.7356
  135MOL0     H17779   9.326   3.361   9.848 -2.2546  2.5585  0.8833
  135MOL0     H17780   9.190   3.148   9.812  4.4416  2.3781 -2.4483
  135MOL0     H17781   9.126   3.309   9.784  2.8502 -1.9141 -2.9891
  135MOL0     H17782   8.968   3.164   9.708  0.0629 -1.7337 -0.9374
  135MOL0     H17783   8.747   3.085   9.666  2.5975 -2.3667  0.6073
  135MOL0     H17784   8.291   3.137   9.790  1.3638 -2.5646 -1.3992
  135MOL0     H17785   8.039   3.080   9.782  0.3825  0.2768 -0.5562
  135MOL0     H17786   7.829   2.945   9.787  1.7172  2.4598 -1.0435
  135MOL0     H17787   7.843   3.100   9.858 -0.5443  0.5309 -2.1158
  135MOL0     H17788   7.653   3.017  10.030  1.2270 -1.8662  0.4042
  135MOL0     H17789   7.634   2.875   9.926  0.0253 -0.4973 -1.1424
  135MOL0     H17790   7.605   3.019   9.734  0.5182 -0.4760  0.0004
  135MOL0     H17791   7.612   3.169   9.843  1.7637 -0.2659  4.2014
  135MOL0     H17792   7.431   2.936   9.880  0.6767  0.1986 -1.4801
  135MOL0     H17793   7.413   3.103   9.954  0.6391  1.8323 -1.8682
  135MOL0     H17794   7.402   3.063   9.657  1.0844  3.8300 -0.8111
  135MOL0     H17795   7.352   3.198   9.755  2.6072  0.2085  0.4636
  135MOL0     H17796   7.223   2.924   9.767  1.9078  0.5541  0.3035
  135MOL0     H17797   7.160   3.056   9.657 -2.3484 -2.2508  1.4888
  135MOL0     H17798   7.158   3.054   9.958 -3.3275  0.4451  1.6567
  135MOL0     H17799   7.162   3.211   9.867 -1.7750  1.3712  1.2518
  135MOL0     H17800   6.950   3.128   9.748 -0.7396 -1.7368  0.1117
  135MOL0     H17801   6.949   3.212   9.898 -0.5784  0.5096 -0.2923
  135MOL0     H17802   8.067   2.856  10.141 -2.3034  1.7025  0.5949
  135MOL0     H17803   8.303   2.893  10.142 -1.9903 -1.0748 -0.0057
  135MOL0     H17804   8.680   3.100  10.106  2.1868  2.1873  1.7444
  135MOL0     H17805   8.894   3.144  10.130 -1.6520  0.2494 -0.1229
  135MOL0     H17806  10.550   2.725  10.214 -1.0073  0.8876  0.1855
  135MOL0     H17807  10.749   2.661  10.128  1.4187 -1.3416  1.0631
  135MOL0     H17808  11.324   2.800  10.455 -0.1564 -2.5635  0.8927
  135MOL0     H17809  11.564   2.800  10.380 -1.1300 -0.9750  1.7599
  135MOL0     H17810  11.623   2.803   9.955 -2.1286  0.3639  2.6577
  135MOL0     H17811  11.678   2.633   9.981  1.1825  1.0439 -2.8751
  135MOL0     H17812  11.835   2.883  10.028 -1.7960 -1.2206  0.4810
  135MOL0     H17813  11.888   2.716  10.074  1.7077 -0.2931 -2.0258
  135MOL0     H17814  11.816   2.786   9.796 -1.7295 -0.7337  1.5600
  135MOL0     H17815  11.910   2.652   9.861 -2.2027 -1.2723  4.3455
  135MOL0     H17816  11.993   2.935   9.806  0.7615 -0.0397 -1.9158
  135MOL0     H17817  12.082   2.849   9.935  2.3879  2.1914 -2.0672
  135MOL0     H17818  12.299   2.685   9.642  0.8803 -0.0653  0.3624
  135MOL0     H17819  11.437   2.661   9.988 -2.4406  1.7821 -1.7276
  135MOL0     H17820  11.201   2.680  10.062 -0.7925  1.2615  0.2567
  136MOL0     O17821   6.070  10.651   0.909  0.1985  0.5744 -0.2834
  136MOL0     C17822   6.107  10.555   0.972  0.1072  0.0046 -0.5997
  136MOL0     O17823   6.043  10.487   1.071  0.5934  0.7161 -0.1083
  136MOL0     C17824   5.911  10.521   1.090 -0.0205  0.5044 -0.0427
  136MOL0     C17825   5.862  10.652   1.082 -0.3002 -0.6574  0.2109
  136MOL0     C17826   5.721  10.688   1.087  0.8631 -1.2905  0.1502
  136MOL0     C17827   5.636  10.576   1.123  0.6671  0.0861  0.8246
  136MOL0     O17828   5.496  10.575   1.113 -0.5467  0.2136  0.0408
  136MOL0     C17829   5.425  10.689   1.082  0.5932  0.2139  0.5160
  136MOL0     C17830   5.404  10.784   1.202 -0.6400  0.4106 -0.7947
  136MOL0     C17831   5.302  10.723   1.304  0.4452 -0.7645 -0.1807
  136MOL0     C17832   5.160  10.738   1.261  0.6353  0.0675 -0.2022
  136MOL0     C17833   5.065  10.683   1.366 -0.1769  0.0104  0.2442
  136MOL0     C17834   4.925  10.745   1.355  0.1597 -0.6808  0.0733
  136MOL0     C17835   4.816  10.655   1.414  0.1786  0.3813 -0.2003
  136MOL0     C17836   4.675  10.708   1.390 -0.0137 -0.8976  0.9170
  136MOL0     N17837   4.647  10.848   1.447  0.0919 -0.3897 -0.8888
  136MOL0     C17838   4.598  10.874   1.572 -0.0596  0.1230 -0.0349
  136MOL0     C17839   4.552  11.001   1.569  0.5889  0.0174 -0.5807
  136MOL0     C17840   4.469  11.053   1.684 -0.4706 -0.4077 -0.7192
  136MOL0     C17841   4.326  11.046   1.647 -0.3466  0.0429  0.4790
  136MOL0     C17842   4.247  11.154   1.730 -1.1454  0.9226  0.2961
  136MOL0     C17843   4.102  11.135   1.691 -0.7487 -0.9282  0.2300
  136MOL0     O17844   4.022  11.195   1.793 -0.0595 -0.3313 -0.4884
  136MOL0     C17845   3.882  11.203   1.792  0.1458  0.2752  0.0246
  136MOL0     C17846   3.798  11.143   1.698 -0.5363  0.7174  0.0498
  136MOL0     C17847   3.660  11.154   1.724  0.2922  0.2856 -0.0039
  136MOL0     C17848   3.609  11.198   1.843 -0.3856  0.3656  0.2450
  136MOL0     C17849   3.456  11.183   1.863  0.0378  0.5300  0.3002
  136MOL0     O17850   3.385  11.149   1.757 -0.6446 -0.3898 -0.1776
  136MOL0     C17851   3.251  11.172   1.744 -0.1494 -0.3577 -0.4308
  136MOL0     C17852   3.174  11.240   1.840  0.6236 -1.1129 -0.2325
  136MOL0     C17853   3.036  11.265   1.811 -0.1375 -0.2488 -0.5486
  136MOL0     C17854   2.980  11.215   1.698 -0.1265  0.2170  0.8617
  136MOL0     O17855   2.851  11.248   1.668 -0.7132 -0.6089  0.5493
  136MOL0     C17856   2.751  11.218   1.757  0.6079  1.0928 -0.7060
  136MOL0     C17857   2.619  11.215   1.674 -0.0958  0.0878 -0.0977
  136MOL0     C17858   2.498  11.194   1.757  0.5464  0.1786 -0.1610
  136MOL0     C17859   2.373  11.247   1.694  0.8351 -0.6799 -0.1867
  136MOL0     C17860   2.237  11.186   1.753 -0.4384 -0.6008  0.5122
  136MOL0     C17861   2.115  11.233   1.677  0.9962 -0.7029  0.0026
  136MOL0     C17862   1.981  11.175   1.742  0.6617  0.6200 -0.4185
  136MOL0     C17863   1.850  11.227   1.672 -0.1967 -0.8501 -0.1900
  136MOL0    Cl17864   1.866  11.159   1.502  0.2972 -0.1903 -0.4811
  136MOL0     C17865   3.054  11.154   1.607 -1.4989 -0.2273  0.3955
  136MOL0     C17866   3.192  11.133   1.621  1.2111  0.9807  0.0607
  136MOL0     O17867   3.426  11.179   1.977 -0.7208 -0.4266 -0.4144
  136MOL0     C17868   3.689  11.269   1.929  0.5997  1.3362  0.6612
  136MOL0     C17869   3.825  11.274   1.903 -0.3125 -0.2669 -0.3029
  136MOL0     N17870   4.581  11.065   1.454 -0.5967 -0.0287 -0.2658
  136MOL0     N17871   4.643  10.971   1.378 -0.3638 -0.2521 -0.1499
  136MOL0     C17872   5.687  10.449   1.143 -0.9672  0.4473 -0.4962
  136MOL0     C17873   5.821  10.421   1.128 -0.7677  0.2087 -0.4247
  136MOL0     C17874   6.236  10.491   0.924  0.9816 -0.6588  0.3863
  136MOL0     C17875   6.291  10.375   0.987  0.8213  0.3837 -0.1897
  136MOL0     C17876   6.399  10.306   0.927  0.5223  0.3554 -0.6727
  136MOL0     C17877   6.473  10.373   0.830  0.6561  0.5275 -0.9168
  136MOL0     O17878   6.589  10.314   0.792 -0.2738 -0.0628 -0.0804
  136MOL0     C17879   6.603  10.278   0.651 -0.0818  0.7289 -0.1232
  136MOL0     C17880   6.703  10.155   0.638 -0.0056 -0.3453  0.9204
  136MOL0     C17881   6.850  10.174   0.685  1.3911 -1.0413  0.4374
  136MOL0     C17882   6.929  10.269   0.594  0.1665  0.2046 -0.0677
  136MOL0     C17883   7.066  10.270   0.651 -0.0701  1.0698 -0.3507
  136MOL0     C17884   7.174  10.238   0.691 -0.1151 -0.0562  0.0161
  136MOL0     C17885   6.424  10.490   0.771  0.2369  0.1059  0.2599
  136MOL0     C17886   6.306  10.544   0.810 -0.0106 -1.1023 -0.0301
  136MOL0     H17887   5.924  10.741   1.073  0.8452 -1.3593  0.9727
  136MOL0     H17888   5.688  10.790   1.074  0.7375 -1.4928 -1.2951
  136MOL0     H17889   5.329  10.659   1.038  0.4201 -0.0747  1.0820
  136MOL0     H17890   5.470  10.747   1.001 -0.3435 -0.1596 -0.3041
  136MOL0     H17891   5.382  10.886   1.170 -0.6228  0.4055 -0.8223
  136MOL0     H17892   5.501  10.792   1.252 -1.2972  0.4141  0.5372
  136MOL0     H17893   5.310  10.775   1.401 -2.8017  0.6720 -0.5464
  136MOL0     H17894   5.324  10.616   1.307  1.2892 -0.5963 -0.1830
  136MOL0     H17895   5.139  10.845   1.253  0.2103 -0.0229 -0.3542
  136MOL0     H17896   5.154  10.688   1.164  1.0835  0.9694 -0.7094
  136MOL0     H17897   5.102  10.695   1.468 -1.4870  2.5628  0.5148
  136MOL0     H17898   5.060  10.577   1.339 -1.6657 -0.0969  0.8328
  136MOL0     H17899   4.891  10.762   1.252 -0.7430  0.1257  0.4818
  136MOL0     H17900   4.915  10.836   1.415 -2.5642  0.6530 -2.1375
  136MOL0     H17901   4.826  10.555   1.370  0.0380 -0.1922  1.0363
  136MOL0     H17902   4.824  10.646   1.523 -2.0172  3.1151  0.3290
  136MOL0     H17903   4.606  10.630   1.425 -0.6155  0.2120  2.3094
  136MOL0     H17904   4.651  10.722   1.284 -0.3681  0.3454  1.1512
  136MOL0     H17905   4.579  10.809   1.657  1.2323  0.8932  0.8704
  136MOL0     H17906   4.502  11.154   1.710  0.6069 -1.0461  0.5296
  136MOL0     H17907   4.487  11.000   1.779 -0.5744 -1.6156 -1.3526
  136MOL0     H17908   4.297  10.942   1.666  0.3433 -0.4196 -0.8827
  136MOL0     H17909   4.315  11.069   1.541  0.5261  2.3914  0.8397
  136MOL0     H17910   4.258  11.129   1.836 -0.7763 -2.4495 -0.4347
  136MOL0     H17911   4.286  11.255   1.714  0.3707  0.6506  1.8864
  136MOL0     H17912   4.075  11.033   1.663 -0.9675 -0.5287 -1.0825
  136MOL0     H17913   4.071  11.186   1.600 -0.1468 -2.2466 -0.7397
  136MOL0     H17914   3.842  11.079   1.622 -0.5077  0.2951  0.4188
  136MOL0     H17915   3.603  11.100   1.649  1.6533 -0.7877 -0.3126
  136MOL0     H17916   3.206  11.279   1.935  0.5545  0.3517 -0.7912
  136MOL0     H17917   2.982  11.320   1.888  1.0029  0.1539 -0.0261
  136MOL0     H17918   2.739  11.296   1.832  2.3194 -1.1852  2.1515
  136MOL0     H17919   2.769  11.124   1.810  0.5877  2.1972  1.3658
  136MOL0     H17920   2.631  11.140   1.595 -0.6169 -0.3192  0.1988
  136MOL0     H17921   2.605  11.315   1.630 -0.2548 -0.0654 -0.3990
  136MOL0     H17922   2.518  11.250   1.849  0.6436  0.5710 -0.4167
  136MOL0     H17923   2.491  11.087   1.778 -1.0862 -0.1825 -2.1819
  136MOL0     H17924   2.375  11.354   1.715 -0.2776 -0.6944  0.0894
  136MOL0     H17925   2.385  11.227   1.587  1.8837  0.1634 -0.2416
  136MOL0     H17926   2.234  11.219   1.857 -0.1787  0.3892  0.2088
  136MOL0     H17927   2.238  11.077   1.743  3.4311 -0.5357 -2.6923
  136MOL0     H17928   2.120  11.210   1.570  1.4083  1.6569 -0.5580
  136MOL0     H17929   2.103  11.342   1.680 -0.2457 -0.8114 -0.2309
  136MOL0     H17930   1.984  11.067   1.727 -1.4583  0.4155  0.1831
  136MOL0     H17931   1.986  11.206   1.847 -1.3748 -0.5785  0.0969
  136MOL0     H17932   1.849  11.336   1.678  1.1328 -0.8711  1.0389
  136MOL0     H17933   1.763  11.186   1.725 -0.5037  0.4898  0.3770
  136MOL0     H17934   3.008  11.108   1.521  0.0223 -1.1797  0.0449
  136MOL0     H17935   3.240  11.076   1.542 -3.0985 -1.8937 -0.8529
  136MOL0     H17936   3.639  11.307   2.018  0.7222  1.5087  0.6563
  136MOL0     H17937   3.895  11.327   1.967 -0.8804 -0.3957  0.4443
  136MOL0     H17938   5.614  10.379   1.183 -0.3976 -1.6902 -2.8750
  136MOL0     H17939   5.848  10.316   1.137  1.7230  0.7157 -1.0275
  136MOL0     H17940   6.237  10.326   1.068 -0.5562  1.2607 -0.5626
  136MOL0     H17941   6.427  10.214   0.977 -1.5945  0.1528  0.2466
  136MOL0     H17942   6.642  10.365   0.598 -1.7958  1.0017 -1.0029
  136MOL0     H17943   6.506  10.258   0.604 -0.7746  1.1392  1.1063
  136MOL0     H17944   6.665  10.064   0.685  0.0023 -0.4440  0.7357
  136MOL0     H17945   6.698  10.136   0.530 -0.7281  2.0486  0.4661
  136MOL0     H17946   6.887  10.071   0.682 -0.0298 -1.5701  0.3355
  136MOL0     H17947   6.856  10.216   0.787  1.3928  2.6999 -0.9303
  136MOL0     H17948   6.938  10.233   0.491  2.1750 -1.0028  0.4696
  136MOL0     H17949   6.890  10.371   0.607 -1.2156 -0.2033 -0.8221
  136MOL0     H17950   7.273  10.204   0.713  0.2644 -0.2994 -1.9357
  136MOL0     H17951   6.476  10.539   0.689  1.4561 -2.1445 -0.4044
  136MOL0     H17952   6.284  10.638   0.760 -1.0868 -1.9736 -1.2570
  137MOL0     O17953   0.466   5.971   6.222 -0.0627 -0.2918  1.0591
  137MOL0     C17954   0.475   5.850   6.231 -0.8053 -0.4502  0.7156
  137MOL0     O17955   0.417   5.773   6.325  0.2596  0.3861  0.1087
  137MOL0     C17956   0.328   5.823   6.412  0.9466 -0.0148  0.1203
  137MOL0     C17957   0.366   5.912   6.515  0.7056 -0.3505  0.3903
  137MOL0     C17958   0.269   5.951   6.600  0.2599 -0.3134  0.0789
  137MOL0     C17959   0.141   5.904   6.597  0.6912 -0.6215 -0.2341
  137MOL0     O17960   0.050   5.951   6.684 -0.0385  0.3185 -0.0276
  137MOL0     C17961  -0.066   5.880   6.715 -0.1783 -0.2755  0.6128
  137MOL0     C17962  -0.034   5.739   6.771 -0.1039  0.8355 -0.0906
  137MOL0     C17963  -0.136   5.688   6.869 -0.1868  0.3299  0.5249
  137MOL0     C17964  -0.284   5.705   6.813 -0.7402  0.1414  0.1701
  137MOL0     C17965  -0.388   5.676   6.921 -1.0475  0.0505 -0.0457
  137MOL0     C17966  -0.531   5.702   6.868 -0.5134 -0.5672  0.1104
  137MOL0     C17967  -0.639   5.692   6.975 -0.9703  0.6797  0.0016
  137MOL0     C17968  -0.631   5.546   7.032 -0.9820 -0.2577  0.1081
  137MOL0     N17969  -0.737   5.508   7.122 -0.1715 -0.4735 -1.3090
  137MOL0     C17970  -0.858   5.451   7.092  0.6613  0.4911  0.3167
  137MOL0     C17971  -0.925   5.443   7.213  0.8194  0.3225 -0.1177
  137MOL0     C17972  -1.055   5.393   7.256  1.0916  0.0585 -0.6273
  137MOL0     C17973  -1.168   5.400   7.143  0.1827 -0.7081  0.7104
  137MOL0     C17974  -1.303   5.323   7.158  0.2510  0.4442 -0.4079
  137MOL0     C17975  -1.391   5.383   7.261  0.0518 -1.1767  0.9183
  137MOL0     O17976  -1.518   5.317   7.269  0.3940  0.3379 -0.2807
  137MOL0     C17977  -1.637   5.378   7.312 -1.1182  0.3791 -0.2529
  137MOL0     C17978  -1.633   5.500   7.390  1.0510  0.1296 -0.0667
  137MOL0     C17979  -1.748   5.574   7.402 -0.1956 -1.0625  0.9467
  137MOL0     C17980  -1.874   5.515   7.373  0.2358 -0.4226 -0.5756
  137MOL0     C17981  -1.997   5.586   7.416  0.1060  0.9344  0.7490
  137MOL0     O17982  -2.117   5.529   7.388 -0.0074  0.3882  0.0571
  137MOL0     C17983  -2.227   5.583   7.454  0.0725  0.1955  0.0558
  137MOL0     C17984  -2.292   5.700   7.415  0.1771 -0.7464  1.1875
  137MOL0     C17985  -2.414   5.740   7.466 -0.4825 -0.7510  0.3088
  137MOL0     C17986  -2.479   5.670   7.565  0.3544 -1.7289  0.3276
  137MOL0     O17987  -2.607   5.705   7.604 -0.4789 -0.0494 -0.6892
  137MOL0     C17988  -2.601   5.763   7.734  0.0514  0.5970  0.4512
  137MOL0     C17989  -2.707   5.872   7.731  0.1846 -0.3326 -0.6698
  137MOL0     C17990  -2.849   5.815   7.720  0.1834 -0.5384  0.6024
  137MOL0     C17991  -2.874   5.742   7.844  0.3955  0.4618 -0.2303
  137MOL0     C17992  -3.010   5.764   7.914  0.0448 -0.6995 -0.1697
  137MOL0     C17993  -3.121   5.723   7.825  0.0189 -0.1581  0.2198
  137MOL0     C17994  -3.248   5.725   7.915  0.7718 -0.3223  0.1614
  137MOL0     C17995  -3.376   5.717   7.839  0.0193  0.5415  0.2210
  137MOL0    Cl17996  -3.510   5.747   7.966  0.1940 -0.2465  0.3028
  137MOL0     C17997  -2.415   5.558   7.603 -0.5149  0.3489  0.4652
  137MOL0     C17998  -2.293   5.508   7.550  0.5408 -0.3600 -0.7760
  137MOL0     O17999  -1.985   5.696   7.468 -0.5789  0.3306  0.3682
  137MOL0     C18000  -1.880   5.384   7.313  0.4053 -0.5869  0.1650
  137MOL0     C18001  -1.760   5.328   7.274 -0.0220 -0.8190 -0.0959
  137MOL0     N18002  -0.845   5.508   7.310 -0.3059  0.3286  0.0841
  137MOL0     N18003  -0.737   5.552   7.251  0.3927 -0.3722  1.1725
  137MOL0     C18004   0.105   5.834   6.480 -0.1164  0.1019  0.6334
  137MOL0     C18005   0.191   5.797   6.386 -1.3486  0.6305 -0.4299
  137MOL0     C18006   0.548   5.777   6.127  0.5957 -0.6886  0.2285
  137MOL0     C18007   0.514   5.643   6.096  0.1207  0.2554 -0.1978
  137MOL0     C18008   0.589   5.576   5.999  0.0711 -0.1321  1.1246
  137MOL0     C18009   0.702   5.635   5.924 -0.0991  0.6260 -0.7920
  137MOL0     O18010   0.760   5.567   5.825 -0.2614 -0.5026 -0.1353
  137MOL0     C18011   0.755   5.426   5.825 -0.0097  0.9095 -0.8754
  137MOL0     C18012   0.871   5.375   5.728  0.4464 -0.1129  0.8285
  137MOL0     C18013   0.994   5.422   5.789  0.1048  0.7281 -0.4887
  137MOL0     C18014   1.111   5.330   5.765  1.1196  0.7519  0.5589
  137MOL0     C18015   1.116   5.225   5.872  0.5346 -0.2254 -0.7892
  137MOL0     C18016   1.110   5.147   5.960 -0.3031  0.9050  0.5334
  137MOL0     C18017   0.739   5.763   5.971 -0.9456 -0.0141  0.1076
  137MOL0     C18018   0.668   5.839   6.078  0.7734  0.6153 -0.0571
  137MOL0     H18019   0.470   5.944   6.525 -0.3093  2.5519  3.1247
  137MOL0     H18020   0.298   6.011   6.686 -0.5885 -1.2972  1.0819
  137MOL0     H18021  -0.129   5.878   6.626 -3.7905  2.0312  2.8297
  137MOL0     H18022  -0.120   5.939   6.791  0.8355  2.6408 -0.7607
  137MOL0     H18023   0.056   5.736   6.833 -0.3392 -0.4726  0.2076
  137MOL0     H18024  -0.035   5.668   6.688 -1.5958 -0.3648  0.9087
  137MOL0     H18025  -0.124   5.745   6.961  0.3911 -2.0098  1.9843
  137MOL0     H18026  -0.101   5.595   6.916  6.1793  1.9211 -0.2749
  137MOL0     H18027  -0.300   5.810   6.786  0.3745  0.1102 -0.7042
  137MOL0     H18028  -0.298   5.640   6.725 -2.0327 -1.4764  1.4957
  137MOL0     H18029  -0.362   5.736   7.009 -0.0361  3.0154 -2.2016
  137MOL0     H18030  -0.372   5.572   6.948 -0.3669  0.2403  0.3138
  137MOL0     H18031  -0.553   5.644   6.778 -0.1460  0.0752 -0.4068
  137MOL0     H18032  -0.526   5.809   6.843  3.1599  0.0708  2.6446
  137MOL0     H18033  -0.616   5.773   7.045  4.1851 -1.3108  1.0948
  137MOL0     H18034  -0.736   5.710   6.929  0.5365  2.3668 -2.7928
  137MOL0     H18035  -0.540   5.538   7.091 -1.3363 -1.9664  0.4904
  137MOL0     H18036  -0.621   5.472   6.952 -2.8277 -2.0933  1.4627
  137MOL0     H18037  -0.875   5.421   6.989  1.4072  3.0350 -0.5993
  137MOL0     H18038  -1.091   5.456   7.338 -2.1014 -1.7496 -0.5147
  137MOL0     H18039  -1.030   5.291   7.287  1.6507  0.2395 -0.4578
  137MOL0     H18040  -1.119   5.368   7.050 -1.7486 -1.6280 -0.0556
  137MOL0     H18041  -1.198   5.503   7.125  2.7095 -0.1316 -0.6516
  137MOL0     H18042  -1.352   5.314   7.061  0.3285 -1.8738 -0.2883
  137MOL0     H18043  -1.281   5.220   7.189  1.5117 -0.4959 -3.9221
  137MOL0     H18044  -1.410   5.487   7.233 -0.1157 -1.3773  0.2894
  137MOL0     H18045  -1.344   5.390   7.360 -1.2187 -2.1949  1.6317
  137MOL0     H18046  -1.538   5.534   7.429  2.6590 -2.1539 -1.6824
  137MOL0     H18047  -1.740   5.674   7.441 -1.2206 -0.9816  0.9805
  137MOL0     H18048  -2.256   5.758   7.331 -4.0531  0.1451 -0.2894
  137MOL0     H18049  -2.468   5.825   7.426  1.8016  2.0441  2.7185
  137MOL0     H18050  -2.503   5.810   7.751 -0.4507  2.6753 -1.7388
  137MOL0     H18051  -2.621   5.696   7.818 -2.4000 -0.7189 -1.0692
  137MOL0     H18052  -2.694   5.944   7.650  0.4083 -2.7982 -2.9975
  137MOL0     H18053  -2.713   5.931   7.822 -0.7728  0.1479 -1.0254
  137MOL0     H18054  -2.864   5.754   7.630 -1.6161 -0.0776  0.5451
  137MOL0     H18055  -2.919   5.898   7.704  0.3845 -0.7490 -1.7631
  137MOL0     H18056  -2.869   5.634   7.826 -2.0142 -0.0138  1.3880
  137MOL0     H18057  -2.794   5.757   7.917  2.1118 -1.3728 -1.6084
  137MOL0     H18058  -3.019   5.870   7.938  3.5515 -0.3286  0.0597
  137MOL0     H18059  -3.003   5.714   8.011  3.5191  0.9987  0.6361
  137MOL0     H18060  -3.106   5.620   7.790 -1.1747 -0.4796  0.5932
  137MOL0     H18061  -3.113   5.784   7.735  0.4645  2.7970  2.1278
  137MOL0     H18062  -3.246   5.651   7.996  0.8048 -1.7357 -1.0929
  137MOL0     H18063  -3.244   5.826   7.957  0.6259  0.6031 -1.9062
  137MOL0     H18064  -3.382   5.614   7.803 -2.1894  0.1067  1.6074
  137MOL0     H18065  -3.380   5.797   7.765  0.8268  2.2031  1.8943
  137MOL0     H18066  -2.459   5.485   7.670 -1.1465  0.6869  0.4284
  137MOL0     H18067  -2.243   5.420   7.590  1.7131  0.0313 -1.3279
  137MOL0     H18068  -1.967   5.321   7.305  1.4701 -2.0909  0.0323
  137MOL0     H18069  -1.772   5.239   7.213  0.0262 -0.8581 -0.0483
  137MOL0     H18070   0.006   5.794   6.460 -0.4318  0.0307  2.2146
  137MOL0     H18071   0.161   5.733   6.303  1.0668 -0.3745 -0.6153
  137MOL0     H18072   0.432   5.585   6.137  1.0361 -0.1674  1.0858
  137MOL0     H18073   0.571   5.475   5.962  0.7478  0.0169  0.3629
  137MOL0     H18074   0.654   5.391   5.802 -0.4919  2.0357 -0.5187
  137MOL0     H18075   0.782   5.386   5.923 -1.2200 -0.3427 -1.0157
  137MOL0     H18076   0.878   5.267   5.718  0.4405 -0.4537  3.6034
  137MOL0     H18077   0.864   5.417   5.628 -0.9154 -1.1369  0.4696
  137MOL0     H18078   0.991   5.443   5.897 -1.6003 -0.9208 -0.1642
  137MOL0     H18079   1.039   5.508   5.738 -1.7775  0.1856 -3.2922
  137MOL0     H18080   1.089   5.280   5.670  4.7564  1.0197 -0.5657
  137MOL0     H18081   1.206   5.384   5.764  2.2857 -1.1706 -1.6227
  137MOL0     H18082   1.093   5.075   6.037  0.6529  0.4159  0.3020
  137MOL0     H18083   0.825   5.815   5.930 -0.0727  0.5015  2.4523
  137MOL0     H18084   0.702   5.940   6.100 -1.0848  0.6635  3.3394
  138MOL0     O18085   2.379   7.080   2.259  0.4706  0.2460 -0.3229
  138MOL0     C18086   2.445   6.972   2.252  0.0010 -0.7599  0.7449
  138MOL0     O18087   2.387   6.852   2.238 -0.8199  0.6397  0.0350
  138MOL0     C18088   2.261   6.833   2.210 -0.4691  0.7678  0.3430
  138MOL0     C18089   2.168   6.793   2.305 -0.6034  0.1150 -0.6200
  138MOL0     C18090   2.026   6.770   2.275  0.0367  0.1241  0.8559
  138MOL0     C18091   1.986   6.814   2.153  0.5171 -0.0230  0.4785
  138MOL0     O18092   1.858   6.824   2.098  0.7842  0.9204 -0.7615
  138MOL0     C18093   1.748   6.801   2.178 -0.9932  0.1442 -0.5816
  138MOL0     C18094   1.614   6.821   2.101 -0.2475 -0.0498  0.3343
  138MOL0     C18095   1.507   6.802   2.196  0.9440  0.8550 -0.5643
  138MOL0     C18096   1.371   6.756   2.128 -0.4053  0.0335  0.3921
  138MOL0     C18097   1.264   6.745   2.238 -0.2972  0.0178 -0.4558
  138MOL0     C18098   1.126   6.698   2.186  0.1197  0.0944 -0.2036
  138MOL0     C18099   1.004   6.737   2.273  0.2146 -0.4890 -0.8923
  138MOL0     C18100   0.882   6.670   2.210  0.8058 -1.3325  0.2366
  138MOL0     N18101   0.768   6.726   2.286  0.4611  0.0747 -0.3354
  138MOL0     C18102   0.752   6.681   2.418 -0.6920 -0.1862 -0.1297
  138MOL0     C18103   0.660   6.754   2.474 -0.7862 -0.2099 -0.2494
  138MOL0     C18104   0.608   6.727   2.607  0.5345  0.3071  0.0483
  138MOL0     C18105   0.454   6.741   2.630  0.0595  0.7866  0.5032
  138MOL0     C18106   0.378   6.636   2.539  1.0816 -0.0087  0.0224
  138MOL0     C18107   0.236   6.656   2.588 -0.1497 -0.6343 -0.2166
  138MOL0     O18108   0.151   6.579   2.504  0.1358  0.0531 -0.1405
  138MOL0     C18109   0.020   6.626   2.505 -0.3134  0.0860  0.1166
  138MOL0     C18110  -0.043   6.626   2.385 -0.6540  0.0931  0.3574
  138MOL0     C18111  -0.167   6.678   2.366  0.5449 -0.7390  1.1038
  138MOL0     C18112  -0.246   6.720   2.476  0.1423  0.5907 -0.8444
  138MOL0     C18113  -0.386   6.764   2.446 -0.9628  0.0141  0.5161
  138MOL0     O18114  -0.446   6.841   2.537  0.3717 -0.0216  0.6821
  138MOL0     C18115  -0.576   6.886   2.542 -0.2397  0.2585 -0.3972
  138MOL0     C18116  -0.613   6.948   2.664 -0.8544  0.1179  0.5088
  138MOL0     C18117  -0.748   6.979   2.681 -0.5375 -0.1004  0.2285
  138MOL0     C18118  -0.834   6.976   2.576 -0.1842 -0.4900 -0.2613
  138MOL0     O18119  -0.964   7.014   2.610 -0.3230  0.6051 -0.2651
  138MOL0     C18120  -1.070   6.983   2.521 -0.2858  0.4369 -0.0527
  138MOL0     C18121  -1.194   7.070   2.550  0.3441 -0.5367 -1.0794
  138MOL0     C18122  -1.309   7.051   2.450  0.2423 -0.6235 -0.4445
  138MOL0     C18123  -1.426   7.127   2.520 -0.1197  0.0022 -0.6356
  138MOL0     C18124  -1.547   7.108   2.434 -0.4909 -0.3020  0.1703
  138MOL0     C18125  -1.668   7.167   2.505 -0.8324 -0.5397  0.3261
  138MOL0     C18126  -1.805   7.151   2.449 -0.5153  0.6870 -0.1450
  138MOL0     C18127  -1.914   7.138   2.558  0.2283 -0.3933  0.0210
  138MOL0    Cl18128  -1.950   7.303   2.609  0.1086  0.3060  0.0310
  138MOL0     C18129  -0.795   6.927   2.451  0.3358 -0.2499 -0.1460
  138MOL0     C18130  -0.663   6.881   2.436  0.1331 -0.2003 -0.0112
  138MOL0     O18131  -0.437   6.719   2.348  0.3940  0.2299 -0.0851
  138MOL0     C18132  -0.190   6.711   2.599  0.7059 -0.0820 -0.5890
  138MOL0     C18133  -0.058   6.673   2.622  0.3327 -0.2142  0.2325
  138MOL0     N18134   0.623   6.846   2.378 -0.1708  0.6200 -0.2460
  138MOL0     N18135   0.687   6.833   2.265  0.4620 -0.3647  0.7658
  138MOL0     C18136   2.076   6.845   2.052 -0.5170  0.7658  0.7320
  138MOL0     C18137   2.214   6.858   2.084  0.2062 -0.2301  0.1798
  138MOL0     C18138   2.586   6.979   2.234  0.0407  0.1897 -0.1207
  138MOL0     C18139   2.661   6.872   2.195 -0.1852  0.6606  0.4011
  138MOL0     C18140   2.799   6.879   2.182  0.5183 -0.7837 -0.3145
  138MOL0     C18141   2.869   7.002   2.196 -0.6778  0.2859 -0.3018
  138MOL0     O18142   3.003   7.033   2.188 -0.0569 -0.3548  0.0803
  138MOL0     C18143   3.094   6.928   2.163 -0.4434  0.4375  0.2868
  138MOL0     C18144   3.232   6.971   2.177 -0.6104  0.7303 -0.8677
  138MOL0     C18145   3.332   6.852   2.159 -0.3337  0.7490  0.3242
  138MOL0     C18146   3.479   6.883   2.192  1.1046 -0.6955 -1.0239
  138MOL0     C18147   3.547   6.938   2.080  0.1217 -0.0677  0.5695
  138MOL0     C18148   3.624   6.987   1.994 -0.3077  0.4175 -0.4679
  138MOL0     C18149   2.792   7.118   2.225  0.4791  0.6192  0.4809
  138MOL0     C18150   2.657   7.101   2.245 -0.0928 -0.3211 -0.2901
  138MOL0     H18151   2.217   6.773   2.399  0.2362 -0.3892 -1.1511
  138MOL0     H18152   1.949   6.729   2.340 -2.6233  2.0437 -0.8986
  138MOL0     H18153   1.757   6.875   2.257  2.3020 -0.3823 -0.3353
  138MOL0     H18154   1.760   6.703   2.225  2.4878  1.0643  0.7285
  138MOL0     H18155   1.616   6.753   2.016 -1.2837  0.5814 -0.2212
  138MOL0     H18156   1.614   6.920   2.055 -1.0553 -0.2542 -0.1219
  138MOL0     H18157   1.491   6.897   2.248 -1.1514  1.2191 -1.7262
  138MOL0     H18158   1.536   6.727   2.269  1.2435  0.1869 -1.3536
  138MOL0     H18159   1.348   6.844   2.068 -0.7351  1.1937  2.1349
  138MOL0     H18160   1.375   6.658   2.080 -0.7410 -0.0919  0.6149
  138MOL0     H18161   1.247   6.846   2.277  0.3969  0.1289 -0.4284
  138MOL0     H18162   1.296   6.683   2.322 -0.0418  1.3571  0.4717
  138MOL0     H18163   1.140   6.592   2.162 -0.1039 -0.0217  0.1842
  138MOL0     H18164   1.103   6.744   2.089  1.1188  0.8402 -0.1028
  138MOL0     H18165   1.022   6.704   2.376  2.4560  0.7346 -0.8399
  138MOL0     H18166   0.992   6.846   2.275  1.4301 -0.2662 -2.8056
  138MOL0     H18167   0.891   6.561   2.219 -0.5243 -1.4528  0.2549
  138MOL0     H18168   0.881   6.697   2.104 -1.3831 -2.8499 -0.1945
  138MOL0     H18169   0.813   6.606   2.468  2.4540  2.5455  0.4854
  138MOL0     H18170   0.662   6.794   2.674  2.6487 -1.0595 -0.1770
  138MOL0     H18171   0.631   6.623   2.634 -0.3909  0.0161 -0.2623
  138MOL0     H18172   0.423   6.844   2.607  0.7173  1.0935  0.9897
  138MOL0     H18173   0.424   6.726   2.734 -2.2377 -1.5502 -0.3808
  138MOL0     H18174   0.376   6.656   2.432 -0.6383 -0.3510 -0.0369
  138MOL0     H18175   0.410   6.532   2.545  0.9623  0.0301  1.8482
  138MOL0     H18176   0.212   6.762   2.574  1.1310  0.1090  2.4542
  138MOL0     H18177   0.224   6.643   2.696  0.0693 -0.0612 -0.1194
  138MOL0     H18178   0.003   6.591   2.294  0.1552  1.1751  0.3427
  138MOL0     H18179  -0.196   6.683   2.262  1.9171 -0.3534  0.7248
  138MOL0     H18180  -0.551   6.965   2.751  0.1032  3.7665 -0.6786
  138MOL0     H18181  -0.783   7.027   2.772 -1.2184  2.9836 -1.5134
  138MOL0     H18182  -1.098   6.878   2.526  0.7094  0.1712  0.0779
  138MOL0     H18183  -1.032   7.012   2.423  2.0151 -1.0896  0.3373
  138MOL0     H18184  -1.153   7.171   2.549  4.1669 -1.8437 -4.6286
  138MOL0     H18185  -1.222   7.050   2.654  0.1594  0.1844 -0.9901
  138MOL0     H18186  -1.333   6.952   2.411  0.5727 -0.0177 -2.2727
  138MOL0     H18187  -1.283   7.116   2.366 -1.8439  3.2080  1.5825
  138MOL0     H18188  -1.450   7.095   2.621  0.9658  1.8392  0.2643
  138MOL0     H18189  -1.398   7.233   2.529  1.5694 -0.5283  1.1068
  138MOL0     H18190  -1.574   7.007   2.400 -0.2197  0.2583 -1.7956
  138MOL0     H18191  -1.527   7.161   2.341  1.1143 -0.6459  0.3031
  138MOL0     H18192  -1.648   7.273   2.524  2.1942 -0.8964 -0.2766
  138MOL0     H18193  -1.675   7.107   2.596 -1.3039  0.8616  1.2424
  138MOL0     H18194  -1.821   7.234   2.381  1.4323  0.2244 -1.2313
  138MOL0     H18195  -1.809   7.058   2.392 -5.5673  1.1419 -0.9584
  138MOL0     H18196  -1.887   7.079   2.646 -2.9726  0.3013  1.6173
  138MOL0     H18197  -2.001   7.093   2.509  1.1116 -1.1652 -0.8743
  138MOL0     H18198  -0.860   6.913   2.365 -0.6921  0.7205  0.4500
  138MOL0     H18199  -0.628   6.842   2.341  1.4513 -0.0706  0.4076
  138MOL0     H18200  -0.248   6.731   2.689  1.5897  1.3686 -0.3071
  138MOL0     H18201  -0.019   6.663   2.722 -1.2375 -0.7118  0.8202
  138MOL0     H18202   2.049   6.877   1.952  2.0587  3.9252  0.8567
  138MOL0     H18203   2.280   6.886   2.002 -2.3784  2.1174 -1.2852
  138MOL0     H18204   2.628   6.769   2.184  1.2712  0.3922 -2.4613
  138MOL0     H18205   2.851   6.789   2.152  0.0810 -0.6682 -1.5068
  138MOL0     H18206   3.083   6.887   2.062 -2.0513  1.0958  0.1615
  138MOL0     H18207   3.075   6.840   2.224 -0.1527  0.4002  0.3243
  138MOL0     H18208   3.261   7.053   2.111  4.8499  0.7974  1.1629
  138MOL0     H18209   3.243   7.017   2.276  1.0264  0.1763 -0.7739
  138MOL0     H18210   3.321   6.813   2.057 -3.7053 -2.6852  1.7117
  138MOL0     H18211   3.310   6.771   2.230 -0.2152  1.7561  1.5348
  138MOL0     H18212   3.483   6.942   2.283 -0.3970 -0.3791 -1.1395
  138MOL0     H18213   3.526   6.785   2.204  0.7642 -1.0345 -2.3276
  138MOL0     H18214   3.687   7.022   1.915  0.7514  1.3640  0.7529
  138MOL0     H18215   2.839   7.216   2.232 -1.7739  2.0547 -2.2731
  138MOL0     H18216   2.599   7.186   2.279 -0.8077 -0.5457 -0.9166
  139MOL0     O18217   5.966   0.235   6.767  0.2387  0.1162 -0.3448
  139MOL0     C18218   6.022   0.161   6.683  0.3826 -0.1934 -1.3216
  139MOL0     O18219   5.981   0.039   6.632  0.0887 -0.6464 -0.2192
  139MOL0     C18220   5.858  -0.016   6.677 -0.1943 -0.5763 -0.0770
  139MOL0     C18221   5.742  -0.011   6.602 -0.3906  0.0095 -0.6454
  139MOL0     C18222   5.618  -0.063   6.638 -0.0154  0.1952  0.5371
  139MOL0     C18223   5.606  -0.117   6.767  0.0546 -1.0661 -0.2434
  139MOL0     O18224   5.489  -0.180   6.792  0.1744 -0.3701  0.3802
  139MOL0     C18225   5.450  -0.215   6.924  0.2567  0.9720 -0.0311
  139MOL0     C18226   5.292  -0.241   6.916  0.5966 -0.3158 -0.4559
  139MOL0     C18227   5.236  -0.311   7.051 -0.3370 -0.2249  0.2975
  139MOL0     C18228   5.086  -0.341   7.044 -0.2512 -0.1726  0.0662
  139MOL0     C18229   5.050  -0.458   7.138  0.0425 -0.0905  0.3201
  139MOL0     C18230   4.918  -0.520   7.086 -0.8290 -0.5952 -0.2698
  139MOL0     C18231   4.804  -0.424   7.080  0.7494  1.3135 -0.7406
  139MOL0     C18232   4.679  -0.519   7.078 -0.0293  0.4678 -0.1829
  139MOL0     N18233   4.557  -0.445   7.118 -0.8070  0.3269  1.2511
  139MOL0     C18234   4.528  -0.411   7.242 -0.4663  1.3532  0.1727
  139MOL0     C18235   4.394  -0.380   7.231  0.4070 -0.2730 -0.2773
  139MOL0     C18236   4.304  -0.339   7.344  0.5180  0.7007 -0.4409
  139MOL0     C18237   4.345  -0.197   7.375 -0.3259  0.2599  0.6986
  139MOL0     C18238   4.350  -0.086   7.267 -0.3240 -0.1214 -0.0743
  139MOL0     C18239   4.216  -0.063   7.211 -0.1835  1.2857  0.4210
  139MOL0     O18240   4.113  -0.015   7.305  0.5549  0.2193 -0.4206
  139MOL0     C18241   3.982  -0.026   7.274  0.5577 -0.4105 -0.0747
  139MOL0     C18242   3.901  -0.085   7.366  0.5771  0.2885  0.0273
  139MOL0     C18243   3.763  -0.091   7.344  0.6002 -0.1547 -1.4331
  139MOL0     C18244   3.702  -0.026   7.234  0.8851  0.1856 -0.7737
  139MOL0     C18245   3.557  -0.017   7.209  0.8510  0.6222 -0.0752
  139MOL0     O18246   3.514   0.063   7.108 -0.4293 -0.6071  0.8853
  139MOL0     C18247   3.378   0.067   7.080 -0.0277 -1.0731 -0.1602
  139MOL0     C18248   3.339   0.070   6.943  1.2921  0.0711 -0.7322
  139MOL0     C18249   3.209   0.097   6.906 -0.1753 -0.5003 -0.1965
  139MOL0     C18250   3.108   0.106   7.005  0.5270 -0.9030  0.0476
  139MOL0     O18251   2.980   0.111   6.958  0.1668  0.2189 -0.0183
  139MOL0     C18252   2.888   0.015   7.009  0.0619  0.2847  0.5044
  139MOL0     C18253   2.751   0.039   6.966  0.6159 -0.6439  0.9053
  139MOL0     C18254   2.738   0.031   6.815  0.0715 -0.7664  0.3794
  139MOL0     C18255   2.595   0.039   6.773  0.3981 -0.1611 -0.2253
  139MOL0     C18256   2.586   0.039   6.620 -1.0447  0.6979 -0.2057
  139MOL0     C18257   2.437   0.047   6.568 -0.1252  0.7441 -0.4263
  139MOL0     C18258   2.365   0.171   6.624 -0.1823  0.8533 -0.0538
  139MOL0     C18259   2.242   0.210   6.535 -0.3191 -0.4306  0.5065
  139MOL0    Cl18260   2.250   0.185   6.356 -0.3615 -0.3455 -0.2946
  139MOL0     C18261   3.143   0.112   7.145 -0.2585  0.4567  1.0323
  139MOL0     C18262   3.272   0.087   7.173 -0.5841 -0.2611  0.0011
  139MOL0     O18263   3.485  -0.080   7.286 -0.7566  0.3865 -0.0098
  139MOL0     C18264   3.786   0.042   7.140  0.1242  0.0529  0.7123
  139MOL0     C18265   3.928   0.036   7.159  0.2603  0.6816  0.0226
  139MOL0     N18266   4.343  -0.404   7.108 -0.1006 -0.9658 -0.7890
  139MOL0     N18267   4.441  -0.446   7.047 -0.5944  0.8825  0.2828
  139MOL0     C18268   5.721  -0.106   6.852 -0.0325 -0.2204  0.2712
  139MOL0     C18269   5.843  -0.057   6.805 -0.2008 -0.0073 -0.6033
  139MOL0     C18270   6.161   0.205   6.644  0.4491 -0.4381 -0.0578
  139MOL0     C18271   6.216   0.323   6.700 -0.0514  0.8711  0.2300
  139MOL0     C18272   6.348   0.362   6.658 -0.0944  0.6878 -0.0105
  139MOL0     C18273   6.422   0.284   6.559 -0.0510 -0.0058 -0.6085
  139MOL0     O18274   6.544   0.338   6.541 -0.6778  0.2039 -0.0231
  139MOL0     C18275   6.631   0.296   6.432  0.2535 -0.3634  0.6174
  139MOL0     C18276   6.714   0.407   6.374 -0.3420 -1.0904 -0.2961
  139MOL0     C18277   6.861   0.371   6.390 -0.0856 -0.4002  0.9629
  139MOL0     C18278   6.968   0.447   6.300  0.4813  0.2308  0.1377
  139MOL0     C18279   6.937   0.587   6.288  0.3221 -0.0652 -0.2908
  139MOL0     C18280   6.928   0.704   6.274  1.0036  0.3735  0.1647
  139MOL0     C18281   6.370   0.169   6.508  0.0825  0.5120  0.1016
  139MOL0     C18282   6.237   0.130   6.550  0.4527  1.1837 -0.2671
  139MOL0     H18283   5.753   0.039   6.506 -1.5064  2.2766  0.3181
  139MOL0     H18284   5.548  -0.067   6.555  1.1844  0.7799 -0.5418
  139MOL0     H18285   5.482  -0.144   7.000  1.7561 -0.6458  0.9296
  139MOL0     H18286   5.494  -0.308   6.960 -4.0005  0.0668  3.7018
  139MOL0     H18287   5.262  -0.295   6.826 -3.1326  1.1188 -0.2549
  139MOL0     H18288   5.247  -0.142   6.921 -1.7269 -1.3166  0.1746
  139MOL0     H18289   5.255  -0.262   7.147  0.9556  1.4280 -0.7591
  139MOL0     H18290   5.280  -0.411   7.052  0.0741 -0.0612 -0.6917
  139MOL0     H18291   5.026  -0.252   7.063  1.3163  0.7505  0.9485
  139MOL0     H18292   5.056  -0.373   6.944  0.2122 -1.3200  0.2797
  139MOL0     H18293   5.044  -0.427   7.243  1.9741 -0.4347  0.5687
  139MOL0     H18294   5.126  -0.536   7.143 -1.8355 -2.1445 -1.0897
  139MOL0     H18295   4.893  -0.603   7.153 -0.6451  0.4628  1.1508
  139MOL0     H18296   4.922  -0.560   6.984 -1.7388 -1.4459  0.0106
  139MOL0     H18297   4.802  -0.359   7.168 -1.4349 -1.2383  1.2580
  139MOL0     H18298   4.825  -0.368   6.988  0.8602 -2.5048 -3.2678
  139MOL0     H18299   4.690  -0.602   7.148 -3.3084  0.8728  0.9880
  139MOL0     H18300   4.672  -0.557   6.975 -2.5281  1.6371 -0.5280
  139MOL0     H18301   4.592  -0.426   7.328  0.7292  0.3857 -0.8474
  139MOL0     H18302   4.324  -0.415   7.419 -1.4417 -1.1477 -1.6928
  139MOL0     H18303   4.203  -0.354   7.306  0.4580 -0.2830  0.0683
  139MOL0     H18304   4.444  -0.201   7.422 -0.5471  1.3633  1.3019
  139MOL0     H18305   4.277  -0.159   7.453 -0.3415  1.1543  0.2590
  139MOL0     H18306   4.386   0.004   7.317 -1.2378  0.4419 -0.4044
  139MOL0     H18307   4.420  -0.117   7.189 -1.2047  1.7809 -1.6871
  139MOL0     H18308   4.173  -0.151   7.163  2.0547  0.5887 -0.4548
  139MOL0     H18309   4.208   0.004   7.125 -2.8974 -2.3220 -2.4514
  139MOL0     H18310   3.947  -0.121   7.457  0.3255  0.2098  0.1226
  139MOL0     H18311   3.707  -0.149   7.417  1.4648 -0.5162 -1.0432
  139MOL0     H18312   3.416   0.055   6.868  2.3817 -1.6756  0.6590
  139MOL0     H18313   3.191   0.091   6.800  2.2394 -0.9568 -0.6426
  139MOL0     H18314   2.896   0.019   7.118  2.4398  1.8627  0.3282
  139MOL0     H18315   2.914  -0.083   6.967  0.8803  1.2361 -1.3204
  139MOL0     H18316   2.724   0.140   6.997  0.3027 -0.1829 -0.7534
  139MOL0     H18317   2.681  -0.034   7.008 -0.2651 -0.5474 -0.3299
  139MOL0     H18318   2.780  -0.066   6.786 -0.9248 -1.0644 -0.1026
  139MOL0     H18319   2.800   0.114   6.781  0.2627 -1.1459 -0.2233
  139MOL0     H18320   2.543  -0.047   6.817  0.1824  0.8891  1.6879
  139MOL0     H18321   2.548   0.128   6.816  0.0499 -0.1538 -0.6153
  139MOL0     H18322   2.630  -0.049   6.572 -0.4609  1.1081 -0.4436
  139MOL0     H18323   2.648   0.120   6.581 -0.3358  0.2533 -0.0421
  139MOL0     H18324   2.385  -0.043   6.603 -0.6159  1.7046  1.4693
  139MOL0     H18325   2.447   0.034   6.460 -0.8654 -0.4468 -0.3733
  139MOL0     H18326   2.341   0.159   6.730  4.0290 -3.0945  0.7946
  139MOL0     H18327   2.440   0.251   6.617  1.7258 -0.7365  1.0029
  139MOL0     H18328   2.212   0.310   6.567 -0.8606 -0.9384  1.6634
  139MOL0     H18329   2.163   0.147   6.577  0.7974 -0.6527  2.3800
  139MOL0     H18330   3.064   0.132   7.217 -1.4106  0.8456 -0.3010
  139MOL0     H18331   3.298   0.114   7.274  0.7600 -2.9471  0.4541
  139MOL0     H18332   3.742   0.101   7.060 -1.0815 -2.1480 -0.3694
  139MOL0     H18333   3.988   0.083   7.082 -0.7135 -0.7735 -1.6827
  139MOL0     H18334   5.726  -0.134   6.957 -0.5730  1.1115  0.6819
  139MOL0     H18335   5.930  -0.062   6.870  0.5081 -1.9742 -1.6316
  139MOL0     H18336   6.188   0.363   6.796  0.0695 -1.1869  1.1719
  139MOL0     H18337   6.391   0.445   6.712  1.8654  0.7619 -1.5637
  139MOL0     H18338   6.560   0.272   6.353  1.5705  1.0303 -1.0849
  139MOL0     H18339   6.694   0.218   6.476  0.8138  0.3567  1.1229
  139MOL0     H18340   6.701   0.435   6.269  3.4062  0.0121 -0.6292
  139MOL0     H18341   6.688   0.497   6.431 -0.4774 -2.6933  2.3717
  139MOL0     H18342   6.878   0.269   6.354  2.3253 -0.5220  2.2099
  139MOL0     H18343   6.898   0.374   6.493  1.3396  0.3023  0.4617
  139MOL0     H18344   7.072   0.434   6.333  1.4703 -0.2364 -2.9057
  139MOL0     H18345   6.964   0.399   6.202  1.4681 -0.0268  0.2174
  139MOL0     H18346   6.915   0.808   6.254 -2.6049 -0.1704 -1.0900
  139MOL0     H18347   6.426   0.105   6.442 -1.0330 -0.5812  0.1706
  139MOL0     H18348   6.183   0.048   6.506  1.8304 -1.7596  3.0251
  140MOL0     O18349   4.650   1.201   9.982 -0.0513  0.5308 -0.0215
  140MOL0     C18350   4.761   1.205   9.933  0.0629 -0.0707  0.4689
  140MOL0     O18351   4.861   1.120   9.962 -0.0213  0.1760  0.8839
  140MOL0     C18352   4.833   1.015  10.048  0.1947  0.6268 -0.2531
  140MOL0     C18353   4.866   0.887  10.003 -0.1147 -0.5306 -0.4043
  140MOL0     C18354   4.834   0.771  10.078  0.0153 -0.6074  0.3874
  140MOL0     C18355   4.775   0.778  10.206  0.2185 -0.3731  0.6052
  140MOL0     O18356   4.730   0.662  10.266 -0.5101 -0.3955 -0.0492
  140MOL0     C18357   4.720   0.657  10.402 -0.5010 -0.7084  0.5381
  140MOL0     C18358   4.577   0.706  10.420  0.4755  0.1581 -0.1183
  140MOL0     C18359   4.553   0.752  10.567 -0.0840 -0.4471 -0.1645
  140MOL0     C18360   4.414   0.777  10.614 -1.0219 -0.4303 -0.5774
  140MOL0     C18361   4.423   0.851  10.749 -0.0722  0.0168 -0.6391
  140MOL0     C18362   4.287   0.831  10.807 -0.1221  0.3395  0.2961
  140MOL0     C18363   4.277   0.882  10.951 -0.5126 -0.5587 -0.2017
  140MOL0     C18364   4.138   0.854  11.026  0.1272 -0.2583 -0.5589
  140MOL0     N18365   4.022   0.915  10.978  0.2405  0.1340  0.6809
  140MOL0     C18366   3.940   0.872  10.873 -0.1123  0.5733 -0.1998
  140MOL0     C18367   3.826   0.939  10.886 -0.2271  0.9199 -0.2368
  140MOL0     C18368   3.712   0.950  10.781  0.4888  0.3066  0.1542
  140MOL0     C18369   3.575   1.001  10.831 -0.3839  0.3981  0.5712
  140MOL0     C18370   3.468   0.920  10.759 -0.2970 -0.4454  0.2472
  140MOL0     C18371   3.330   0.958  10.823 -0.6669  0.4961  0.3237
  140MOL0     O18372   3.234   0.872  10.762  0.7956  0.7337 -0.0470
  140MOL0     C18373   3.102   0.921  10.780 -1.3072 -0.7899 -0.0721
  140MOL0     C18374   3.003   0.865  10.695 -0.0666 -0.3872  0.6272
  140MOL0     C18375   2.871   0.906  10.711 -0.6258 -0.0834  0.0406
  140MOL0     C18376   2.829   0.995  10.807  0.4760 -0.5478  0.4084
  140MOL0     C18377   2.685   1.043  10.812  0.0345 -0.0299  0.4179
  140MOL0     O18378   2.652   1.152  10.887  1.2267  0.6912  0.3453
  140MOL0     C18379   2.522   1.190  10.900 -0.4069 -0.0524 -0.4115
  140MOL0     C18380   2.427   1.186  10.791 -0.4919 -1.1237  0.2017
  140MOL0     C18381   2.286   1.200  10.817 -0.2634  0.1534  0.3943
  140MOL0     C18382   2.239   1.233  10.945  0.3807  0.4284 -0.0851
  140MOL0     O18383   2.106   1.259  10.957 -0.0363  0.4329  0.3806
  140MOL0     C18384   2.046   1.284  11.075  0.6062 -0.0415  0.2135
  140MOL0     C18385   1.896   1.304  11.061 -0.1425  0.3390  0.1852
  140MOL0     C18386   1.840   1.355  11.196  0.0801 -1.0359 -0.1308
  140MOL0     C18387   1.691   1.354  11.187 -0.1777  0.0941 -0.1106
  140MOL0     C18388   1.629   1.406  11.321 -0.6497  1.0043  0.7972
  140MOL0     C18389   1.489   1.469  11.286 -1.1009 -0.4833 -1.2005
  140MOL0     C18390   1.500   1.622  11.229 -1.0070 -0.5174 -0.2818
  140MOL0     C18391   1.370   1.705  11.218  1.1573 -0.0862 -0.9315
  140MOL0    Cl18392   1.401   1.874  11.196  0.3915  0.3880 -0.2022
  140MOL0     C18393   2.331   1.230  11.054  1.0046 -0.6705  0.2029
  140MOL0     C18394   2.468   1.222  11.025  0.2354 -0.0361 -0.7320
  140MOL0     O18395   2.611   0.970  10.747  0.1918 -0.4358 -0.3281
  140MOL0     C18396   2.922   1.056  10.884  0.2538 -0.5487  0.0408
  140MOL0     C18397   3.057   1.013  10.880  1.1843  0.4719  0.9160
  140MOL0     N18398   3.842   1.034  10.987  0.1220  0.0569  0.1437
  140MOL0     N18399   3.952   1.014  11.047  0.0064  0.4096 -0.1307
  140MOL0     C18400   4.748   0.910  10.247 -0.8052  0.6849 -1.0254
  140MOL0     C18401   4.769   1.029  10.169  0.1456  0.0362 -0.4927
  140MOL0     C18402   4.783   1.304   9.821  0.1829  0.4178 -0.7923
  140MOL0     C18403   4.908   1.311   9.752 -0.2292  0.0042 -0.1393
  140MOL0     C18404   4.928   1.406   9.655  0.1070 -0.0788 -0.9370
  140MOL0     C18405   4.824   1.494   9.613  0.5583  0.3381 -0.6349
  140MOL0     O18406   4.849   1.591   9.527 -0.5648  0.0776  0.3970
  140MOL0     C18407   4.967   1.674   9.556 -0.0838 -0.5508 -0.7878
  140MOL0     C18408   4.943   1.774   9.678 -0.5845  0.5133 -0.2083
  140MOL0     C18409   4.829   1.872   9.652 -0.5312  0.6942  0.2718
  140MOL0     C18410   4.783   1.917   9.793  0.1624 -0.1327 -0.8031
  140MOL0     C18411   4.893   1.952   9.876  0.9899  0.7788  0.7957
  140MOL0     C18412   4.976   1.986   9.951  0.6204 -0.0518  0.1566
  140MOL0     C18413   4.698   1.479   9.669  0.2303  0.0340 -0.2370
  140MOL0     C18414   4.678   1.391   9.777 -0.5844 -0.5209  0.1407
  140MOL0     H18415   4.911   0.876   9.905  0.3003 -1.6945 -0.1016
  140MOL0     H18416   4.837   0.675  10.027  0.4245 -1.0745  1.2671
  140MOL0     H18417   4.782   0.730  10.454  1.7273 -1.0573 -1.4607
  140MOL0     H18418   4.752   0.558  10.436 -0.6417 -1.2622 -0.8918
  140MOL0     H18419   4.524   0.611  10.412  0.5101  0.3309 -4.3058
  140MOL0     H18420   4.542   0.774  10.342  0.5271 -1.9218 -2.0657
  140MOL0     H18421   4.606   0.847  10.571 -2.1342  0.8328 -1.3745
  140MOL0     H18422   4.592   0.673  10.632 -0.1229  0.7028  1.2882
  140MOL0     H18423   4.350   0.840  10.551 -0.8322 -0.9435 -1.3012
  140MOL0     H18424   4.363   0.682  10.635 -0.4143 -1.0286 -1.7094
  140MOL0     H18425   4.437   0.957  10.726 -3.1005  1.0392  1.4254
  140MOL0     H18426   4.499   0.812  10.817  0.5459  2.4098  0.1446
  140MOL0     H18427   4.279   0.723  10.818  0.0843  0.3851  0.9572
  140MOL0     H18428   4.209   0.871  10.742  2.0001  2.6225 -1.0164
  140MOL0     H18429   4.363   0.851  11.011  0.7717  3.6523  0.4107
  140MOL0     H18430   4.279   0.990  10.939 -3.0013 -0.5550 -1.0514
  140MOL0     H18431   4.146   0.884  11.131  1.4384 -2.0833 -0.0916
  140MOL0     H18432   4.116   0.747  11.021  1.5740 -0.6548  0.8099
  140MOL0     H18433   3.963   0.814  10.784  2.0312  0.2081  0.5260
  140MOL0     H18434   3.709   0.849  10.740 -0.9583 -0.5904  2.3287
  140MOL0     H18435   3.747   1.021  10.705  0.3360 -1.1570 -1.3487
  140MOL0     H18436   3.571   1.108  10.810  1.0141  0.6501  1.4366
  140MOL0     H18437   3.574   1.001  10.940  0.8127  0.4850  0.6020
  140MOL0     H18438   3.471   0.940  10.652  1.5678  3.4480  0.8350
  140MOL0     H18439   3.493   0.815  10.774  2.5384  0.4624  3.1361
  140MOL0     H18440   3.310   1.064  10.803 -1.2719  0.4182  0.5091
  140MOL0     H18441   3.329   0.940  10.931  1.7061  2.6720  0.8073
  140MOL0     H18442   3.041   0.800  10.617  2.4134  0.0979  1.3349
  140MOL0     H18443   2.801   0.851  10.648 -3.5087  1.9696  1.2709
  140MOL0     H18444   2.461   1.170  10.689  2.5265 -0.8907  1.0752
  140MOL0     H18445   2.224   1.182  10.729  0.4327 -2.2097  0.3204
  140MOL0     H18446   2.090   1.374  11.119  0.4470  0.0395  0.2067
  140MOL0     H18447   2.067   1.197  11.139  1.2477 -0.1071 -0.0714
  140MOL0     H18448   1.851   1.207  11.038 -3.6536  1.8317  0.1065
  140MOL0     H18449   1.862   1.368  10.978 -2.3316  0.4499  1.0959
  140MOL0     H18450   1.869   1.459  11.214 -0.7597 -0.7667 -0.2984
  140MOL0     H18451   1.879   1.290  11.275  2.2114  0.9250  0.5456
  140MOL0     H18452   1.659   1.419  11.105 -0.8127  0.5170  0.4721
  140MOL0     H18453   1.647   1.255  11.170 -0.3135 -0.1131  1.3449
  140MOL0     H18454   1.692   1.483  11.366 -0.2180  1.6950 -0.8887
  140MOL0     H18455   1.609   1.325  11.392 -0.5775 -0.7222 -1.0483
  140MOL0     H18456   1.426   1.469  11.376  1.4210 -0.9864  0.6645
  140MOL0     H18457   1.437   1.405  11.214 -1.7592 -0.3303 -0.8709
  140MOL0     H18458   1.565   1.680  11.296  1.2847  1.6883 -4.0809
  140MOL0     H18459   1.543   1.606  11.130  1.2001 -2.6382  0.9028
  140MOL0     H18460   1.303   1.700  11.304 -2.5007  0.8102 -3.4686
  140MOL0     H18461   1.300   1.664  11.145 -1.4756  1.8218  0.3816
  140MOL0     H18462   2.287   1.247  11.152 -1.3401  0.9004 -1.0443
  140MOL0     H18463   2.534   1.216  11.111  1.3519 -1.6035 -1.6482
  140MOL0     H18464   2.895   1.134  10.954 -0.0242 -2.6524  2.4453
  140MOL0     H18465   3.134   1.048  10.948  0.3012  2.7471  0.8279
  140MOL0     H18466   4.703   0.907  10.346 -0.5659  0.5920 -0.9186
  140MOL0     H18467   4.731   1.127  10.199 -0.0211 -0.3649  0.6644
  140MOL0     H18468   4.989   1.246   9.784  0.0402  1.5959  2.6638
  140MOL0     H18469   5.025   1.408   9.605  0.0545  1.3749 -1.0450
  140MOL0     H18470   5.005   1.745   9.481 -1.2235  1.2678  0.2844
  140MOL0     H18471   5.057   1.614   9.572 -0.0605 -0.5125 -0.7720
  140MOL0     H18472   4.911   1.709   9.760  0.0221  0.9245  0.3677
  140MOL0     H18473   5.031   1.829   9.710 -1.5980  2.1656 -0.1278
  140MOL0     H18474   4.738   1.830   9.608 -0.5383 -2.2258  2.7366
  140MOL0     H18475   4.861   1.959   9.594  1.3300  0.2347  0.5383
  140MOL0     H18476   4.719   2.005   9.779  0.3658  0.2807  0.7594
  140MOL0     H18477   4.731   1.830   9.835 -0.0793 -0.6285 -2.0651
  140MOL0     H18478   5.065   2.030   9.990  0.9679 -0.6442  0.0373
  140MOL0     H18479   4.626   1.551   9.632  1.3854  1.4137  0.1156
  140MOL0     H18480   4.588   1.388   9.838  1.0311  0.2467  2.7105
  141MOL0     O18481   5.530   5.118   2.754  0.9780 -1.0741  0.0065
  141MOL0     C18482   5.491   5.110   2.868  0.2831  0.9449  0.1897
  141MOL0     O18483   5.358   5.101   2.906 -0.3854  0.1666 -0.1746
  141MOL0     C18484   5.260   5.091   2.808 -0.2521  0.5533 -0.0319
  141MOL0     C18485   5.160   5.182   2.807  0.4762 -0.2209 -0.3040
  141MOL0     C18486   5.048   5.176   2.726 -0.3963 -0.0970  0.3347
  141MOL0     C18487   5.040   5.066   2.637  0.4270 -0.1431  0.2409
  141MOL0     O18488   4.919   5.045   2.573  0.3878 -0.1428 -0.1582
  141MOL0     C18489   4.803   4.986   2.631  0.0323  0.4425 -0.1734
  141MOL0     C18490   4.681   5.032   2.550 -0.6714 -0.3061  0.9078
  141MOL0     C18491   4.686   5.176   2.516 -0.3270 -0.4807  0.1067
  141MOL0     C18492   4.556   5.224   2.460  0.6897 -0.4359  0.1727
  141MOL0     C18493   4.549   5.379   2.467  0.1201 -0.5251  0.3635
  141MOL0     C18494   4.401   5.426   2.463 -0.6965  0.0812  0.2988
  141MOL0     C18495   4.371   5.567   2.414  0.1297 -0.6386 -0.0023
  141MOL0     C18496   4.447   5.678   2.486 -0.1916  0.0012  0.6660
  141MOL0     N18497   4.392   5.728   2.613  0.3451  0.0113  0.0251
  141MOL0     C18498   4.354   5.851   2.653  1.3919  0.2951  0.1369
  141MOL0     C18499   4.312   5.835   2.783  0.0974  0.4432  0.1256
  141MOL0     C18500   4.241   5.944   2.865 -0.5965 -0.3042 -0.0066
  141MOL0     C18501   4.089   5.939   2.841 -0.1489 -0.3770  1.3236
  141MOL0     C18502   4.023   6.050   2.926 -0.0977  0.1800  0.1513
  141MOL0     C18503   3.875   6.057   2.904  0.4361  0.2337 -0.0946
  141MOL0     O18504   3.853   6.086   2.769  0.4042 -0.2359  0.6781
  141MOL0     C18505   3.721   6.068   2.745  0.1498  0.1411  0.0767
  141MOL0     C18506   3.683   5.954   2.682 -0.6835 -0.0456 -0.1972
  141MOL0     C18507   3.550   5.926   2.649 -0.5508 -0.3311  0.4160
  141MOL0     C18508   3.450   6.020   2.682  0.3516 -0.7300  0.5136
  141MOL0     C18509   3.304   6.000   2.661 -0.3577  0.5387  0.5883
  141MOL0     O18510   3.217   6.106   2.686 -0.4015  0.1244 -0.2162
  141MOL0     C18511   3.085   6.079   2.698  0.6288 -0.2617 -0.3265
  141MOL0     C18512   3.007   6.087   2.584  0.5275 -0.2910  0.6023
  141MOL0     C18513   2.866   6.077   2.601 -0.0808  0.8959  0.2098
  141MOL0     C18514   2.807   6.037   2.728 -0.5424  0.7107 -0.3632
  141MOL0     O18515   2.667   6.028   2.743  0.2746 -0.3324  0.5560
  141MOL0     C18516   2.589   6.020   2.623 -0.6974  0.4343 -0.4904
  141MOL0     C18517   2.465   5.950   2.664  0.7020 -0.5714  0.0553
  141MOL0     C18518   2.368   6.012   2.769  0.8585 -0.3282 -0.5088
  141MOL0     C18519   2.255   5.904   2.784  0.3184 -0.7497  0.0719
  141MOL0     C18520   2.151   5.965   2.879 -0.0556 -0.2338  0.0433
  141MOL0     C18521   2.036   5.863   2.887  0.0409  0.9973  0.1739
  141MOL0     C18522   1.939   5.909   2.992 -0.2156 -0.6114  0.9784
  141MOL0     C18523   1.799   5.914   2.934 -0.8429 -0.3124  0.0256
  141MOL0    Cl18524   1.786   6.053   2.814 -0.4854  0.0802  0.4618
  141MOL0     C18525   2.894   6.001   2.831 -0.0576 -0.4953 -1.0398
  141MOL0     C18526   3.033   6.021   2.812 -0.0148 -0.2939 -0.6047
  141MOL0     O18527   3.275   5.889   2.618 -0.3793  0.3510 -0.9891
  141MOL0     C18528   3.483   6.142   2.750  0.6110  0.4103 -0.1058
  141MOL0     C18529   3.623   6.159   2.776  0.1405  0.3009  0.1134
  141MOL0     N18530   4.333   5.711   2.827 -0.3862  0.6111  0.1045
  141MOL0     N18531   4.380   5.645   2.731 -0.3473 -0.7634  0.5996
  141MOL0     C18532   5.136   4.968   2.632 -0.1792  0.3448  0.6273
  141MOL0     C18533   5.252   4.983   2.718  0.5433 -0.1014  0.3559
  141MOL0     C18534   5.593   5.104   2.969 -0.2352  0.9835  0.7203
  141MOL0     C18535   5.731   5.122   2.944  1.1079 -0.1260 -0.1782
  141MOL0     C18536   5.817   5.128   3.049 -0.2994  0.2086  0.4310
  141MOL0     C18537   5.781   5.089   3.176  0.1501 -0.4584 -0.3830
  141MOL0     O18538   5.888   5.077   3.257  0.5611 -0.3794  0.2423
  141MOL0     C18539   5.862   5.024   3.387  0.7605  0.3597  0.1229
  141MOL0     C18540   5.955   5.094   3.488  0.5748  0.1909 -0.1065
  141MOL0     C18541   5.942   5.244   3.482 -0.0477  0.0289 -0.7382
  141MOL0     C18542   5.805   5.307   3.469 -0.5096 -0.3460  0.0072
  141MOL0     C18543   5.809   5.454   3.445 -0.6913 -0.7113  0.3262
  141MOL0     C18544   5.817   5.571   3.395  0.0068 -0.0038 -0.2376
  141MOL0     C18545   5.649   5.060   3.197 -0.7880  0.7383 -0.2373
  141MOL0     C18546   5.554   5.085   3.102 -0.1864  0.2716 -0.9766
  141MOL0     H18547   5.168   5.275   2.862 -0.2604 -1.9162  2.9542
  141MOL0     H18548   4.978   5.258   2.720  2.0749  2.0369 -1.4631
  141MOL0     H18549   4.779   5.042   2.723 -0.6140  1.3594 -0.8794
  141MOL0     H18550   4.809   4.878   2.645 -2.1894  0.5496  2.3786
  141MOL0     H18551   4.592   5.021   2.612 -0.4259  2.1617  1.8005
  141MOL0     H18552   4.678   4.970   2.460 -0.1711 -0.3943  0.9448
  141MOL0     H18553   4.766   5.201   2.446  0.1035 -0.4921  0.5863
  141MOL0     H18554   4.712   5.230   2.608 -2.0700 -0.6603  0.7311
  141MOL0     H18555   4.548   5.186   2.357 -0.8924 -0.6426  0.3475
  141MOL0     H18556   4.477   5.177   2.519  0.3854  0.9377  0.9011
  141MOL0     H18557   4.607   5.425   2.387 -1.6259  0.0883 -0.6092
  141MOL0     H18558   4.594   5.417   2.559 -1.4704  2.4925  0.0184
  141MOL0     H18559   4.365   5.414   2.566  0.4761  0.7080  0.8018
  141MOL0     H18560   4.344   5.361   2.397  0.5105  1.0739 -1.8040
  141MOL0     H18561   4.392   5.574   2.306  0.4225  2.5447  0.1695
  141MOL0     H18562   4.264   5.580   2.430  0.2270 -0.1681  0.2767
  141MOL0     H18563   4.455   5.765   2.421  2.7913 -1.1706 -0.7145
  141MOL0     H18564   4.550   5.645   2.497  0.1935  0.6632 -0.7312
  141MOL0     H18565   4.352   5.932   2.580 -1.5122  0.2310  0.0290
  141MOL0     H18566   4.285   6.038   2.831  1.8235  0.6560  4.8459
  141MOL0     H18567   4.275   5.921   2.967 -1.1136  0.5195  0.3592
  141MOL0     H18568   4.050   5.840   2.870 -0.5084 -0.4816  0.5253
  141MOL0     H18569   4.067   5.948   2.734 -0.1629 -0.6540  1.3015
  141MOL0     H18570   4.043   6.054   3.034 -0.4510  2.9239  0.1883
  141MOL0     H18571   4.062   6.151   2.906 -0.9630  0.6703  0.8493
  141MOL0     H18572   3.832   6.132   2.971  0.7302 -0.6464  1.1091
  141MOL0     H18573   3.826   5.962   2.928 -2.6455  1.3584 -1.3479
  141MOL0     H18574   3.753   5.876   2.653  3.1336  2.5594  1.1412
  141MOL0     H18575   3.542   5.826   2.608  0.1709  0.8535 -2.9611
  141MOL0     H18576   3.052   6.117   2.490  1.6669  0.4473  1.3495
  141MOL0     H18577   2.792   6.098   2.525  0.7945 -3.0599 -2.0309
  141MOL0     H18578   2.632   5.951   2.550  2.7531  0.4165  1.3404
  141MOL0     H18579   2.573   6.118   2.577 -2.0171 -0.6771 -2.5383
  141MOL0     H18580   2.484   5.848   2.699 -1.9844 -1.6836 -1.4034
  141MOL0     H18581   2.407   5.946   2.571 -0.8589  2.8298  0.7210
  141MOL0     H18582   2.323   6.105   2.732  0.2021 -1.5337 -2.9679
  141MOL0     H18583   2.415   6.038   2.864 -0.9703  1.1256  0.0688
  141MOL0     H18584   2.211   5.888   2.685  3.4074 -1.4352 -1.2983
  141MOL0     H18585   2.290   5.809   2.826  1.5946 -1.6260 -2.6992
  141MOL0     H18586   2.120   6.063   2.841 -1.6053  0.9688  3.8961
  141MOL0     H18587   2.191   5.990   2.977  0.4974  0.0753 -0.2571
  141MOL0     H18588   2.070   5.761   2.911  0.6473  0.6544 -1.9446
  141MOL0     H18589   1.985   5.839   2.793  1.6389 -2.6589  0.0313
  141MOL0     H18590   1.946   5.853   3.086  3.1551  0.9473  1.7835
  141MOL0     H18591   1.955   6.012   3.023  0.2718  0.2735 -1.9168
  141MOL0     H18592   1.720   5.935   3.007 -1.6503 -1.1972 -0.5704
  141MOL0     H18593   1.772   5.819   2.888 -2.1917 -0.5406  1.2076
  141MOL0     H18594   2.871   5.973   2.933  1.9929 -0.5969 -0.5619
  141MOL0     H18595   3.103   6.007   2.895  0.5449  2.3122 -0.5496
  141MOL0     H18596   3.413   6.220   2.776  1.1126  0.7144  0.3501
  141MOL0     H18597   3.656   6.253   2.819 -2.9173  0.9429  1.4055
  141MOL0     H18598   5.122   4.877   2.574  2.3699 -1.8398  3.1136
  141MOL0     H18599   5.312   4.892   2.724 -0.5137 -0.9641 -1.5968
  141MOL0     H18600   5.771   5.136   2.844 -0.5096  2.8345 -0.5341
  141MOL0     H18601   5.922   5.144   3.025 -0.6979  0.3188 -1.4135
  141MOL0     H18602   5.894   4.920   3.394  1.0612  0.4247 -0.3121
  141MOL0     H18603   5.758   5.031   3.421  0.7134  1.0918 -0.1535
  141MOL0     H18604   5.931   5.054   3.587 -2.1371  1.5278 -0.1038
  141MOL0     H18605   6.052   5.056   3.457  1.0066  0.7590  0.5175
  141MOL0     H18606   6.002   5.283   3.400  1.8798  0.7318  0.9430
  141MOL0     H18607   5.990   5.266   3.577 -2.3329 -0.6380  0.6498
  141MOL0     H18608   5.760   5.264   3.379  0.1562  0.6499 -0.8302
  141MOL0     H18609   5.750   5.280   3.559  1.4097 -1.1691  0.9890
  141MOL0     H18610   5.838   5.669   3.358 -0.2297  1.1169  2.3465
  141MOL0     H18611   5.609   5.028   3.293 -0.1554  0.4292 -0.0748
  141MOL0     H18612   5.448   5.079   3.127 -0.4405  1.1882 -1.7346
  142MOL0     O18613   9.501   2.897   5.102 -0.1906  0.9423 -0.6966
  142MOL0     C18614   9.610   2.868   5.159  0.3958  0.0059 -0.8501
  142MOL0     O18615   9.624   2.845   5.289 -0.4577 -0.8335  0.1056
  142MOL0     C18616   9.513   2.809   5.368  0.4805  0.3153 -0.1620
  142MOL0     C18617   9.424   2.712   5.341  0.2058  0.0625  0.3278
  142MOL0     C18618   9.322   2.680   5.427  0.0247 -0.1147 -0.1795
  142MOL0     C18619   9.304   2.764   5.550 -0.1560 -0.3754  1.0573
  142MOL0     O18620   9.193   2.741   5.626  0.0792  0.4248  0.2516
  142MOL0     C18621   9.126   2.859   5.676  0.5429 -0.0490  0.4198
  142MOL0     C18622   8.971   2.838   5.698  0.9546 -0.8418 -0.2948
  142MOL0     C18623   8.899   2.800   5.561 -0.4308  1.0556  0.0664
  142MOL0     C18624   8.745   2.773   5.569 -0.0676  1.2317 -0.3309
  142MOL0     C18625   8.709   2.707   5.449  0.0346  0.3968  1.0223
  142MOL0     C18626   8.564   2.684   5.445  1.2795  0.3650  0.3155
  142MOL0     C18627   8.520   2.590   5.331 -0.2299  0.3564  0.9911
  142MOL0     C18628   8.383   2.529   5.356  0.1469 -0.4136  0.1888
  142MOL0     N18629   8.271   2.621   5.387  0.4464 -1.4815  0.9564
  142MOL0     C18630   8.205   2.708   5.294 -0.6704 -0.7907  0.3164
  142MOL0     C18631   8.108   2.773   5.367 -1.3443 -0.1341  0.0492
  142MOL0     C18632   8.000   2.851   5.307 -0.0009 -0.5518 -0.2620
  142MOL0     C18633   7.896   2.765   5.229  0.0497  0.0953 -0.2589
  142MOL0     C18634   7.754   2.833   5.218 -0.4359  0.0670 -0.7014
  142MOL0     C18635   7.748   2.992   5.208  0.5041  1.0641 -0.2733
  142MOL0     O18636   7.785   3.033   5.080 -0.4892 -0.6932 -0.0390
  142MOL0     C18637   7.693   3.056   4.974 -0.0444  0.8989 -0.4367
  142MOL0     C18638   7.566   3.017   4.993 -0.1679 -0.2426  0.9361
  142MOL0     C18639   7.469   3.061   4.905  0.3510 -0.0528  0.2273
  142MOL0     C18640   7.501   3.141   4.794  0.4785 -0.0725 -0.1847
  142MOL0     C18641   7.400   3.180   4.687  0.2310  0.6204 -0.1005
  142MOL0     O18642   7.306   3.082   4.676 -0.8011  0.2726  0.1727
  142MOL0     C18643   7.206   3.087   4.582 -0.1747 -0.1264 -0.4819
  142MOL0     C18644   7.187   2.977   4.500 -0.8080  0.4094 -0.6602
  142MOL0     C18645   7.081   2.965   4.406  0.3248 -0.3711  0.5196
  142MOL0     C18646   6.988   3.069   4.384 -0.0883  0.8828  0.3521
  142MOL0     O18647   6.890   3.053   4.283 -0.4265  0.1856 -0.3473
  142MOL0     C18648   6.798   3.151   4.243  0.2349  0.6282  0.0746
  142MOL0     C18649   6.679   3.077   4.182  0.4293  1.3076  0.3249
  142MOL0     C18650   6.578   3.181   4.146 -0.0672  0.4883  0.5158
  142MOL0     C18651   6.443   3.122   4.091 -0.4993 -0.0917  0.0148
  142MOL0     C18652   6.362   3.059   4.202  0.3685 -0.0244 -0.4838
  142MOL0     C18653   6.212   3.043   4.164  0.4260 -0.3780 -1.2335
  142MOL0     C18654   6.152   2.987   4.301  0.3760 -0.1242 -0.6878
  142MOL0     C18655   6.006   2.943   4.290 -0.0160  0.0387 -0.0710
  142MOL0    Cl18656   5.938   2.888   4.450  0.1263  0.1448 -0.2825
  142MOL0     C18657   7.004   3.176   4.466 -0.1674 -0.4847 -0.1887
  142MOL0     C18658   7.112   3.191   4.562  0.1210  0.2070 -0.2667
  142MOL0     O18659   7.412   3.277   4.621 -0.2979 -0.5427  0.1444
  142MOL0     C18660   7.636   3.182   4.781 -0.4311 -0.1104 -0.1643
  142MOL0     C18661   7.734   3.145   4.871 -0.0227 -0.2402  1.1016
  142MOL0     N18662   8.129   2.740   5.498  0.6947  0.2024 -0.1381
  142MOL0     N18663   8.212   2.645   5.506 -0.2568 -0.0869  0.7311
  142MOL0     C18664   9.405   2.855   5.578  0.4131  0.0123 -0.7414
  142MOL0     C18665   9.506   2.881   5.487 -0.1670 -0.6099 -0.8635
  142MOL0     C18666   9.726   2.881   5.084  0.0212  0.1570  0.5832
  142MOL0     C18667   9.849   2.895   5.150  0.4987  0.1652 -0.2405
  142MOL0     C18668   9.976   2.889   5.081  0.0611  0.1647  0.0487
  142MOL0     C18669   9.979   2.878   4.945  0.5015 -0.1332  0.6757
  142MOL0     O18670  10.099   2.887   4.881 -0.3977 -0.4436  0.4147
  142MOL0     C18671  10.098   2.889   4.739  1.3888 -0.0937 -1.0251
  142MOL0     C18672  10.231   2.915   4.687 -0.1371 -0.1446  0.6178
  142MOL0     C18673  10.290   3.052   4.733  0.0750  0.0556  0.0570
  142MOL0     C18674  10.431   3.067   4.680 -0.0206  0.2999 -0.7991
  142MOL0     C18675  10.440   3.057   4.532  0.1322  0.4164  0.1758
  142MOL0     C18676  10.450   3.048   4.409  1.1917  0.5806  0.2976
  142MOL0     C18677   9.857   2.867   4.873 -0.9864  0.6743  0.2190
  142MOL0     C18678   9.730   2.871   4.943 -0.1541  0.7191  0.4213
  142MOL0     H18679   9.442   2.654   5.251  0.3413 -2.2849  1.7732
  142MOL0     H18680   9.247   2.613   5.388 -1.5339  1.6530 -0.3302
  142MOL0     H18681   9.129   2.939   5.601  1.4905  1.2552  1.8028
  142MOL0     H18682   9.173   2.890   5.769 -1.4702  2.4799  0.6899
  142MOL0     H18683   8.928   2.931   5.734 -0.0549 -1.8225  1.1353
  142MOL0     H18684   8.950   2.766   5.778  1.0285 -0.8021 -0.2399
  142MOL0     H18685   8.953   2.706   5.546  2.0580  2.4037 -0.0165
  142MOL0     H18686   8.924   2.869   5.480  1.2510  0.5688  0.1271
  142MOL0     H18687   8.725   2.708   5.654 -2.6093 -3.5748 -4.0571
  142MOL0     H18688   8.695   2.868   5.589  0.1468  1.2928 -0.0877
  142MOL0     H18689   8.761   2.611   5.447 -1.0094 -0.1734 -0.6840
  142MOL0     H18690   8.739   2.751   5.354 -2.6252 -2.0452 -1.1535
  142MOL0     H18691   8.527   2.785   5.428  0.8319 -0.2306 -2.6810
  142MOL0     H18692   8.522   2.629   5.530 -0.7885 -0.4014 -1.1220
  142MOL0     H18693   8.519   2.638   5.233 -1.5737  0.9462  1.2596
  142MOL0     H18694   8.581   2.500   5.327  1.5320  1.5246  0.4542
  142MOL0     H18695   8.390   2.452   5.434 -0.1869  0.4284  1.0679
  142MOL0     H18696   8.362   2.460   5.274  3.1646 -1.1255 -0.0656
  142MOL0     H18697   8.221   2.709   5.187  0.1028 -1.7043  0.4085
  142MOL0     H18698   8.040   2.919   5.231 -0.6911 -0.7993 -0.8646
  142MOL0     H18699   7.946   2.894   5.391  2.5637 -0.0767  1.2511
  142MOL0     H18700   7.872   2.668   5.273  1.2698 -0.1779 -0.1607
  142MOL0     H18701   7.934   2.732   5.133  1.1829  2.0198 -0.5383
  142MOL0     H18702   7.710   2.796   5.125  2.0331 -0.5277 -1.7062
  142MOL0     H18703   7.691   2.799   5.301  1.8619 -1.5917  0.4940
  142MOL0     H18704   7.819   3.028   5.283  1.1400  1.4436 -1.0548
  142MOL0     H18705   7.646   3.007   5.246  1.1066 -1.1689  2.6602
  142MOL0     H18706   7.542   2.953   5.078  0.1499  1.7271  2.6021
  142MOL0     H18707   7.366   3.032   4.923  0.0419  0.2891 -0.9080
  142MOL0     H18708   7.248   2.890   4.525 -1.7853 -1.3827 -4.0046
  142MOL0     H18709   7.062   2.874   4.350 -0.5647  0.6552 -0.9369
  142MOL0     H18710   6.837   3.220   4.167  1.5196 -0.1847 -0.0424
  142MOL0     H18711   6.763   3.212   4.327  1.0372  0.6020  0.4416
  142MOL0     H18712   6.632   3.003   4.247  0.5809  0.4507 -0.5187
  142MOL0     H18713   6.700   3.025   4.088 -3.1894 -0.2496  0.2211
  142MOL0     H18714   6.618   3.257   4.079  1.1314 -1.8685 -1.6429
  142MOL0     H18715   6.558   3.234   4.239  2.3383 -2.2922  2.8166
  142MOL0     H18716   6.395   3.208   4.043 -0.4187 -1.1023 -1.9721
  142MOL0     H18717   6.462   3.044   4.017 -2.9308 -1.0992  0.3459
  142MOL0     H18718   6.366   3.116   4.295 -0.1412 -2.9157  1.4433
  142MOL0     H18719   6.402   2.959   4.222 -1.1660 -0.8466 -1.3656
  142MOL0     H18720   6.199   2.970   4.084 -0.5135  1.4440 -2.8166
  142MOL0     H18721   6.172   3.142   4.139 -0.1717  0.0318  1.1141
  142MOL0     H18722   6.207   2.902   4.342 -0.5454 -2.1259 -3.3456
  142MOL0     H18723   6.152   3.074   4.368 -1.7816 -0.1182 -0.6147
  142MOL0     H18724   6.002   2.855   4.225 -0.6440 -0.8213  1.0855
  142MOL0     H18725   5.939   3.012   4.238  1.3474 -0.1670 -2.2181
  142MOL0     H18726   6.921   3.246   4.463  0.5812  0.4335  0.4137
  142MOL0     H18727   7.107   3.284   4.618 -3.0660  2.5449 -3.9567
  142MOL0     H18728   7.666   3.253   4.705  1.3819 -1.0159 -0.3454
  142MOL0     H18729   7.834   3.186   4.871 -0.5183  1.2471 -1.9833
  142MOL0     H18730   9.392   2.919   5.664  1.9870  0.9600 -1.1626
  142MOL0     H18731   9.589   2.950   5.500  1.8610 -3.0789  0.1132
  142MOL0     H18732   9.847   2.913   5.257 -0.1655  1.5283 -0.4516
  142MOL0     H18733  10.070   2.903   5.134 -0.6537 -2.3246  2.1572
  142MOL0     H18734  10.028   2.969   4.713  0.4430 -0.0245  1.4208
  142MOL0     H18735  10.060   2.790   4.712  0.9410 -0.1743 -0.1415
  142MOL0     H18736  10.294   2.832   4.719 -0.5216 -1.0132 -0.8146
  142MOL0     H18737  10.219   2.918   4.579 -2.5906  1.3004  0.8624
  142MOL0     H18738  10.295   3.066   4.842 -1.2259 -1.8802  0.4170
  142MOL0     H18739  10.236   3.139   4.695 -1.4770 -1.2216 -0.7503
  142MOL0     H18740  10.471   3.166   4.703 -2.5884  1.2452 -0.1381
  142MOL0     H18741  10.499   2.993   4.725 -1.0451  1.1170  2.3556
  142MOL0     H18742  10.458   3.036   4.303  0.0283  0.1217  0.2415
  142MOL0     H18743   9.859   2.850   4.766 -0.9225 -0.1541  0.3402
  142MOL0     H18744   9.638   2.852   4.888 -0.3157  0.4779  0.7687
  143MOL0     O18745   0.394   5.629   8.415  1.0247  0.2748 -0.3671
  143MOL0     C18746   0.397   5.751   8.394 -0.8386 -0.2112 -0.2066
  143MOL0     O18747   0.507   5.825   8.384  0.4201 -0.1509  0.5554
  143MOL0     C18748   0.629   5.766   8.382 -0.9820 -0.2665  0.2292
  143MOL0     C18749   0.728   5.827   8.302  0.5040 -0.3935  0.7648
  143MOL0     C18750   0.866   5.792   8.299 -0.6778  0.4797  0.5780
  143MOL0     C18751   0.905   5.690   8.387 -0.4420  0.3087 -0.0773
  143MOL0     O18752   1.027   5.637   8.391  0.1365 -0.7311  1.2442
  143MOL0     C18753   1.141   5.690   8.307  0.0206  0.3934 -0.4465
  143MOL0     C18754   1.222   5.575   8.256 -0.9812 -0.3223  0.3541
  143MOL0     C18755   1.274   5.466   8.351  0.0446  0.6706  0.4833
  143MOL0     C18756   1.389   5.393   8.287  0.0941 -0.3647 -0.6985
  143MOL0     C18757   1.435   5.280   8.375  0.5691  0.5270 -0.4437
  143MOL0     C18758   1.543   5.196   8.330 -0.0240  0.1635  0.1824
  143MOL0     C18759   1.539   5.040   8.351  0.0749 -0.8488  0.3489
  143MOL0     C18760   1.539   5.008   8.498  0.2792  0.0189 -0.6133
  143MOL0     N18761   1.672   5.029   8.565 -0.4080  0.5637  0.4618
  143MOL0     C18762   1.774   4.938   8.567 -0.6129 -0.1813  0.3255
  143MOL0     C18763   1.860   4.990   8.666  0.2396  0.2276  0.2542
  143MOL0     C18764   1.998   4.925   8.694 -0.2425 -0.8539 -0.1172
  143MOL0     C18765   1.989   4.793   8.760 -0.2073  0.6489 -0.1751
  143MOL0     C18766   2.115   4.704   8.754  0.4295 -0.7928  0.0278
  143MOL0     C18767   2.099   4.589   8.844  0.0329 -0.2821  0.0474
  143MOL0     O18768   2.018   4.477   8.802  0.1863  0.6344  0.0765
  143MOL0     C18769   2.060   4.405   8.696  0.2030 -0.1280  0.2407
  143MOL0     C18770   1.977   4.313   8.650 -0.1216  1.2232 -0.0645
  143MOL0     C18771   2.015   4.215   8.550  0.2694  0.7908  0.0140
  143MOL0     C18772   2.140   4.210   8.492  0.0287 -0.3738 -0.1943
  143MOL0     C18773   2.167   4.125   8.380  0.1732  0.0309  0.6330
  143MOL0     O18774   2.296   4.097   8.356 -0.1822  0.0091  0.3164
  143MOL0     C18775   2.325   4.001   8.260  0.4524 -0.2651 -0.6730
  143MOL0     C18776   2.347   3.868   8.293  0.0219 -1.0685 -0.7146
  143MOL0     C18777   2.372   3.781   8.199  0.2573  1.0827  0.1607
  143MOL0     C18778   2.350   3.808   8.057  0.3187  0.6098 -0.0361
  143MOL0     O18779   2.347   3.717   7.962 -0.3349  1.5517 -0.3433
  143MOL0     C18780   2.449   3.626   7.967 -0.2771  0.4722 -0.5933
  143MOL0     C18781   2.434   3.528   7.855 -0.0529  0.4357 -0.2736
  143MOL0     C18782   2.446   3.595   7.710  0.4074 -0.2149 -0.1355
  143MOL0     C18783   2.586   3.646   7.665  0.1906 -0.8476  0.2022
  143MOL0     C18784   2.697   3.540   7.669  0.7214 -0.6182  1.0244
  143MOL0     C18785   2.809   3.579   7.579 -0.6332  0.3075  0.0433
  143MOL0     C18786   2.903   3.457   7.578 -0.5106 -0.3245 -0.1104
  143MOL0     C18787   3.039   3.490   7.510 -0.7135  0.3435  0.6709
  143MOL0    Cl18788   3.112   3.334   7.452  0.0864  0.0622 -0.2821
  143MOL0     C18789   2.323   3.940   8.022 -0.4971  0.5635 -0.8997
  143MOL0     C18790   2.317   4.035   8.126 -1.1258 -0.3239  0.7086
  143MOL0     O18791   2.065   4.081   8.315 -0.6021 -0.0507 -1.0693
  143MOL0     C18792   2.231   4.309   8.546  0.1482  0.4602  0.5042
  143MOL0     C18793   2.192   4.407   8.641 -0.2252  0.0695 -0.4051
  143MOL0     N18794   1.807   5.097   8.729  0.3082 -0.9061 -0.8950
  143MOL0     N18795   1.696   5.116   8.670 -0.0906  0.5753  1.0970
  143MOL0     C18796   0.804   5.618   8.465 -0.1524  0.2850 -0.3618
  143MOL0     C18797   0.666   5.652   8.452 -0.6511 -0.4673 -1.0196
  143MOL0     C18798   0.272   5.827   8.398  0.2946 -0.2248 -1.0916
  143MOL0     C18799   0.141   5.768   8.445 -1.2627  0.6640 -0.4151
  143MOL0     C18800   0.018   5.836   8.429 -0.2676 -0.6197  0.3735
  143MOL0     C18801   0.010   5.954   8.362 -0.0591 -0.1210  0.1955
  143MOL0     O18802  -0.111   6.020   8.354 -0.2724 -0.2502  0.4251
  143MOL0     C18803  -0.132   6.158   8.381 -0.4940 -0.6244  0.1006
  143MOL0     C18804  -0.256   6.183   8.444  0.0225 -0.0784  0.5172
  143MOL0     C18805  -0.359   6.244   8.355 -0.2705 -0.3188  0.2630
  143MOL0     C18806  -0.439   6.150   8.267  0.2561 -0.9984  0.0505
  143MOL0     C18807  -0.567   6.095   8.309 -0.5444 -0.7327  0.2745
  143MOL0     C18808  -0.664   6.047   8.355  0.9810 -0.6599 -0.7864
  143MOL0     C18809   0.129   6.005   8.295  0.3702 -0.4786 -0.3536
  143MOL0     C18810   0.252   5.949   8.326  0.1819 -0.6957  0.1155
  143MOL0     H18811   0.697   5.905   8.233  1.3740 -1.5170 -0.9403
  143MOL0     H18812   0.922   5.846   8.223 -1.3331  0.5172  0.1170
  143MOL0     H18813   1.209   5.748   8.371  1.1973 -1.4376  0.0313
  143MOL0     H18814   1.111   5.743   8.216 -0.3376 -0.2850 -0.7303
  143MOL0     H18815   1.303   5.624   8.200  0.2957 -4.2401 -1.5841
  143MOL0     H18816   1.159   5.522   8.183  1.8327 -0.1886 -2.3957
  143MOL0     H18817   1.185   5.408   8.377  0.5305 -0.9099 -1.1656
  143MOL0     H18818   1.321   5.502   8.443  2.6939 -2.5382  0.5765
  143MOL0     H18819   1.358   5.352   8.190  1.5529 -0.0193 -1.3334
  143MOL0     H18820   1.469   5.466   8.270  1.3781 -1.1301  1.6128
  143MOL0     H18821   1.360   5.207   8.406  2.7402 -0.3809  3.3431
  143MOL0     H18822   1.445   5.325   8.475 -4.5992 -0.6592  0.8889
  143MOL0     H18823   1.631   5.232   8.384 -0.3643 -0.2177  1.0053
  143MOL0     H18824   1.566   5.204   8.223  0.4014 -1.5009  0.1228
  143MOL0     H18825   1.443   5.006   8.310 -0.6911  0.8060  0.6597
  143MOL0     H18826   1.626   4.997   8.301 -0.0240 -0.2361 -0.3706
  143MOL0     H18827   1.501   4.910   8.529  1.0672  0.2527  1.2151
  143MOL0     H18828   1.472   5.080   8.547  0.5971  0.1747 -0.4084
  143MOL0     H18829   1.784   4.852   8.501 -1.1474  0.3203 -0.4289
  143MOL0     H18830   2.046   4.989   8.768 -2.2316 -0.7694  1.1550
  143MOL0     H18831   2.062   4.921   8.605  1.7449 -0.0841  1.1924
  143MOL0     H18832   1.897   4.738   8.737 -0.2954  0.0008  1.5656
  143MOL0     H18833   1.971   4.811   8.867 -2.6630 -1.9674 -0.0228
  143MOL0     H18834   2.137   4.668   8.653  0.7569  2.0416 -1.0208
  143MOL0     H18835   2.209   4.752   8.784  0.7188 -1.6621  0.5512
  143MOL0     H18836   2.062   4.634   8.937 -2.7840  2.4690 -2.1767
  143MOL0     H18837   2.196   4.549   8.875 -0.5662 -0.6971  1.5161
  143MOL0     H18838   1.880   4.319   8.697  0.0472  4.7427  0.0893
  143MOL0     H18839   1.940   4.148   8.510  0.6428  0.2937  0.1384
  143MOL0     H18840   2.353   3.852   8.400 -0.3078  1.7008 -0.1964
  143MOL0     H18841   2.385   3.676   8.225  0.3129  1.3558  1.2822
  143MOL0     H18842   2.445   3.560   8.054 -4.0140  2.1769  0.7800
  143MOL0     H18843   2.543   3.682   7.961 -0.6261  1.0759 -0.5719
  143MOL0     H18844   2.336   3.478   7.863  0.6512 -1.9884 -4.0639
  143MOL0     H18845   2.497   3.440   7.873  0.4721  0.8474 -0.0975
  143MOL0     H18846   2.381   3.683   7.702 -0.7224 -0.7763  2.0246
  143MOL0     H18847   2.412   3.530   7.628  0.0047 -0.9944  0.6390
  143MOL0     H18848   2.570   3.686   7.564 -0.3268 -0.2998  0.4969
  143MOL0     H18849   2.607   3.735   7.724  0.5855 -1.1510  0.5234
  143MOL0     H18850   2.656   3.445   7.632 -3.1283  0.7999  1.2450
  143MOL0     H18851   2.731   3.535   7.773 -1.3399 -0.4622  1.7420
  143MOL0     H18852   2.854   3.661   7.635  2.1633 -2.3979  2.0671
  143MOL0     H18853   2.754   3.610   7.489 -4.0157  2.0652  2.4759
  143MOL0     H18854   2.919   3.429   7.682 -2.4357 -1.0514  0.0423
  143MOL0     H18855   2.860   3.375   7.520 -2.4481  1.4802 -1.4180
  143MOL0     H18856   3.103   3.528   7.590 -1.5070 -0.4876  1.7232
  143MOL0     H18857   3.016   3.564   7.434 -1.5561 -0.2445  0.3367
  143MOL0     H18858   2.313   3.963   7.917 -1.3072 -1.7543 -1.3958
  143MOL0     H18859   2.294   4.135   8.092  0.8013 -0.6229 -1.8106
  143MOL0     H18860   2.332   4.302   8.507 -0.2224  0.8131 -0.5662
  143MOL0     H18861   2.259   4.484   8.677 -4.7544  4.3104  0.0503
  143MOL0     H18862   0.829   5.533   8.527  1.9697  0.9994 -0.1413
  143MOL0     H18863   0.598   5.583   8.502  1.2511 -2.5248 -1.1485
  143MOL0     H18864   0.142   5.669   8.489 -0.9879  0.2843 -1.2451
  143MOL0     H18865  -0.058   5.783   8.484  0.3014 -3.4343 -1.3695
  143MOL0     H18866  -0.112   6.224   8.296  0.6954 -0.7506  0.2688
  143MOL0     H18867  -0.056   6.185   8.454 -0.9846  3.4790 -0.6670
  143MOL0     H18868  -0.295   6.090   8.486 -1.4443  0.6326  0.7848
  143MOL0     H18869  -0.240   6.254   8.525  2.9952 -1.3611  1.1818
  143MOL0     H18870  -0.323   6.321   8.286 -0.9813 -0.1517  0.0699
  143MOL0     H18871  -0.439   6.283   8.418 -4.0049 -3.1550 -2.3010
  143MOL0     H18872  -0.453   6.208   8.175  5.1031 -4.5009 -3.3970
  143MOL0     H18873  -0.375   6.068   8.231 -0.1756 -1.5312  0.4977
  143MOL0     H18874  -0.730   5.994   8.420 -0.0908  1.7572  0.2325
  143MOL0     H18875   0.135   6.096   8.237  0.9675  0.6505  1.3856
  143MOL0     H18876   0.340   5.994   8.281 -0.3253 -2.0293 -2.4665
  144MOL0     O18877   2.922   7.879   9.910  0.2653 -0.0508  0.7136
  144MOL0     C18878   2.988   7.978   9.887 -0.5525  0.9020 -0.2872
  144MOL0     O18879   2.949   8.089   9.819 -0.1850  0.6780  0.8549
  144MOL0     C18880   2.817   8.115   9.791  0.3145  0.5364 -0.0537
  144MOL0     C18881   2.706   8.056   9.854  1.3787 -0.3326 -0.3608
  144MOL0     C18882   2.579   8.088   9.812 -0.1361  0.1147  0.1333
  144MOL0     C18883   2.558   8.189   9.721  0.3335 -0.1336  0.4044
  144MOL0     O18884   2.421   8.212   9.685 -0.7667 -0.5629  0.0971
  144MOL0     C18885   2.386   8.244   9.548  1.4845  0.5948 -0.5039
  144MOL0     C18886   2.259   8.327   9.549 -0.1080  0.3143  0.3155
  144MOL0     C18887   2.140   8.251   9.607 -0.2914  0.3346  0.2087
  144MOL0     C18888   2.094   8.132   9.517 -1.0208 -0.5807 -0.1926
  144MOL0     C18889   1.950   8.089   9.555  0.4868  0.8311 -0.4516
  144MOL0     C18890   1.905   7.988   9.460 -0.1268  0.5238  0.4767
  144MOL0     C18891   1.756   7.934   9.455  0.2463 -0.7285 -0.2587
  144MOL0     C18892   1.644   8.043   9.419 -0.3474  0.3037 -0.8547
  144MOL0     N18893   1.693   8.107   9.295  0.4297  0.2734  0.2301
  144MOL0     C18894   1.732   8.240   9.286  0.2679  1.1936  0.6375
  144MOL0     C18895   1.777   8.254   9.158  0.0500  0.5638  0.2020
  144MOL0     C18896   1.861   8.377   9.113  0.3716  0.0067 -0.1434
  144MOL0     C18897   2.012   8.353   9.143 -0.0455 -0.3943 -0.9329
  144MOL0     C18898   2.095   8.410   9.031 -0.8272  0.2698  1.1961
  144MOL0     C18899   2.244   8.385   9.037 -0.6515 -0.1212  0.1515
  144MOL0     O18900   2.294   8.443   9.155  0.4707 -0.6671  0.6492
  144MOL0     C18901   2.431   8.421   9.170 -0.6489 -0.2331 -0.1438
  144MOL0     C18902   2.487   8.466   9.295 -0.4087 -0.2219  0.6612
  144MOL0     C18903   2.619   8.450   9.323 -0.4077  0.9274 -0.0042
  144MOL0     C18904   2.706   8.388   9.222 -0.0016 -0.8141 -0.1896
  144MOL0     C18905   2.842   8.352   9.266  0.1038 -0.4076 -0.1577
  144MOL0     O18906   2.884   8.378   9.392  0.2159 -0.2875 -0.2138
  144MOL0     C18907   3.018   8.358   9.427 -0.0024 -0.2361  0.3393
  144MOL0     C18908   3.101   8.468   9.459  0.2946 -0.8084 -0.8341
  144MOL0     C18909   3.232   8.448   9.487 -0.1353  0.8574 -0.8522
  144MOL0     C18910   3.290   8.318   9.492 -0.0006  0.2143  0.0068
  144MOL0     O18911   3.427   8.303   9.511  0.7490  0.0037 -0.5120
  144MOL0     C18912   3.481   8.173   9.515 -0.1775 -0.3309 -0.7086
  144MOL0     C18913   3.633   8.183   9.464  0.5283 -0.2102  0.2596
  144MOL0     C18914   3.731   8.208   9.580 -0.3599  0.8305 -0.1843
  144MOL0     C18915   3.868   8.187   9.522 -0.4222 -0.5730  0.2148
  144MOL0     C18916   3.972   8.191   9.636 -0.1967  0.9817 -0.6345
  144MOL0     C18917   4.120   8.188   9.589 -0.1055  0.5870  0.1398
  144MOL0     C18918   4.144   8.087   9.479  0.0219  0.9275  0.3625
  144MOL0     C18919   4.304   8.056   9.454  0.1904  0.4065 -0.2901
  144MOL0    Cl18920   4.370   7.918   9.561 -0.2385  0.3330 -0.1148
  144MOL0     C18921   3.203   8.210   9.472  0.0124 -0.0454  0.1478
  144MOL0     C18922   3.070   8.229   9.432 -0.2342 -0.3506  0.2201
  144MOL0     O18923   2.905   8.282   9.187  0.2459  0.6776 -0.2265
  144MOL0     C18924   2.651   8.340   9.102 -0.8454 -0.5478  0.2141
  144MOL0     C18925   2.517   8.353   9.074  0.0333 -0.4779 -1.3522
  144MOL0     N18926   1.759   8.140   9.089  0.3141  0.4894  0.3936
  144MOL0     N18927   1.708   8.059   9.168 -0.0711  0.4100  0.0870
  144MOL0     C18928   2.671   8.249   9.659  0.4689 -1.0568  0.0806
  144MOL0     C18929   2.802   8.212   9.685  0.1395 -0.2687 -0.3345
  144MOL0     C18930   3.125   7.953   9.909 -0.7443 -0.4935 -0.1651
  144MOL0     C18931   3.168   7.847   9.988 -0.6598  0.2175 -0.6125
  144MOL0     C18932   3.304   7.827  10.011  0.0339  0.1507  0.0040
  144MOL0     C18933   3.400   7.919   9.967  0.0879  0.3113 -0.3309
  144MOL0     O18934   3.528   7.916  10.001 -1.1176 -1.1879 -0.2808
  144MOL0     C18935   3.587   7.785   9.996 -0.1038  0.2842  0.3266
  144MOL0     C18936   3.734   7.801   9.989 -0.1879  0.4798  0.3662
  144MOL0     C18937   3.809   7.672   9.962 -0.6552  0.4318  0.4835
  144MOL0     C18938   3.756   7.546  10.026  0.0772 -0.3815 -0.3563
  144MOL0     C18939   3.783   7.564  10.171 -0.0732  0.0019  1.0279
  144MOL0     C18940   3.808   7.578  10.284  0.7490  0.4080 -0.4809
  144MOL0     C18941   3.353   8.033   9.904  0.0974  0.4097 -0.0207
  144MOL0     C18942   3.220   8.048   9.866  0.1570  0.3513 -0.0489
  144MOL0     H18943   2.719   7.979   9.929 -0.1082 -0.5087 -0.2620
  144MOL0     H18944   2.491   8.036   9.851 -0.1383  0.4899  0.6398
  144MOL0     H18945   2.365   8.148   9.499 -0.7696 -1.1670  3.3721
  144MOL0     H18946   2.467   8.294   9.496  0.8494  1.0260 -1.0923
  144MOL0     H18947   2.235   8.359   9.448 -1.2094  0.2155  0.5236
  144MOL0     H18948   2.285   8.419   9.603  3.6437  1.5422 -3.1298
  144MOL0     H18949   2.054   8.317   9.623 -3.2508 -3.5080  2.0267
  144MOL0     H18950   2.161   8.216   9.709 -0.9596  2.4308  1.1178
  144MOL0     H18951   2.093   8.158   9.411  1.4013 -0.2166 -0.1825
  144MOL0     H18952   2.165   8.051   9.536 -0.1700  0.0955 -0.4484
  144MOL0     H18953   1.875   8.167   9.542 -2.8570 -1.9263  0.7832
  144MOL0     H18954   1.927   8.046   9.653 -0.2587 -2.6240 -2.0067
  144MOL0     H18955   1.958   7.895   9.486 -3.1161 -1.2817  0.6336
  144MOL0     H18956   1.935   8.012   9.358  1.5378  1.8361  1.2228
  144MOL0     H18957   1.733   7.854   9.383 -2.1303 -1.6133  1.3272
  144MOL0     H18958   1.747   7.891   9.556  1.2187 -1.0509 -0.2964
  144MOL0     H18959   1.631   8.115   9.500 -3.0940 -2.4314  1.3607
  144MOL0     H18960   1.540   8.011   9.405 -0.6942  0.0891  1.7970
  144MOL0     H18961   1.747   8.301   9.375  2.5608 -0.9747  1.8882
  144MOL0     H18962   1.824   8.461   9.172  2.4640 -1.3455  3.4041
  144MOL0     H18963   1.852   8.404   9.007  2.3118 -0.9422 -0.5984
  144MOL0     H18964   2.033   8.249   9.171  2.4062  0.2961  0.1279
  144MOL0     H18965   2.043   8.412   9.230 -2.8241  0.2564 -0.2739
  144MOL0     H18966   2.063   8.371   8.934  1.6712  2.1072 -0.4894
  144MOL0     H18967   2.081   8.518   9.021 -0.6228  0.0570 -3.1665
  144MOL0     H18968   2.289   8.434   8.950  1.0634  2.1512  2.1976
  144MOL0     H18969   2.274   8.280   9.031 -0.8986 -0.1448 -0.9370
  144MOL0     H18970   2.433   8.515   9.375  0.7509  1.4415  0.4805
  144MOL0     H18971   2.650   8.488   9.420  0.5149  2.7912 -0.9766
  144MOL0     H18972   3.057   8.568   9.460  0.2901 -0.8125 -0.3663
  144MOL0     H18973   3.299   8.531   9.508  3.9798 -2.6676  1.7086
  144MOL0     H18974   3.436   8.111   9.437  0.6398 -1.7427 -0.0980
  144MOL0     H18975   3.477   8.126   9.614  0.9018  1.1421  0.0641
  144MOL0     H18976   3.650   8.258   9.386 -1.1022 -0.1951 -0.1236
  144MOL0     H18977   3.646   8.083   9.423 -2.9855 -1.0894  0.9334
  144MOL0     H18978   3.715   8.146   9.669 -4.6311  2.0503  0.1524
  144MOL0     H18979   3.714   8.308   9.622  1.9272  1.3108 -0.2868
  144MOL0     H18980   3.870   8.089   9.472  0.1090 -0.3673 -0.1663
  144MOL0     H18981   3.885   8.262   9.445 -2.0547 -0.8727 -0.4795
  144MOL0     H18982   3.963   8.104   9.701 -1.1023  1.8186  0.4101
  144MOL0     H18983   3.951   8.276   9.701 -1.1522 -1.4402  2.4283
  144MOL0     H18984   4.185   8.160   9.672 -0.0067  0.6511  0.0853
  144MOL0     H18985   4.151   8.285   9.547  2.3725  0.2352  1.0266
  144MOL0     H18986   4.101   7.988   9.498 -0.5845  0.5310 -2.6252
  144MOL0     H18987   4.092   8.127   9.393  1.2650  0.9279 -0.4193
  144MOL0     H18988   4.355   8.151   9.471 -0.9763  0.8856  0.6986
  144MOL0     H18989   4.322   8.031   9.349  2.7607 -0.3902  0.2663
  144MOL0     H18990   3.236   8.106   9.475  3.3252  0.9026  0.9795
  144MOL0     H18991   3.002   8.147   9.411  2.5010 -3.3340  2.1454
  144MOL0     H18992   2.707   8.281   9.031 -0.3795 -2.9339  2.4257
  144MOL0     H18993   2.470   8.296   8.994  2.0174 -2.5272 -1.1423
  144MOL0     H18994   2.663   8.329   9.586  1.2836  1.7316  2.8441
  144MOL0     H18995   2.887   8.259   9.636  2.1840  0.3887  3.4720
  144MOL0     H18996   3.102   7.772  10.031  1.1111 -0.7554  0.5639
  144MOL0     H18997   3.322   7.733  10.062  0.6367  1.5886  2.6366
  144MOL0     H18998   3.559   7.738   9.901  3.2945 -0.3617 -0.4932
  144MOL0     H18999   3.564   7.730  10.087 -0.7125  0.1401  0.0900
  144MOL0     H19000   3.775   7.878   9.922 -0.5819  0.0737 -0.3515
  144MOL0     H19001   3.765   7.830  10.089  1.4518 -0.7564  0.2577
  144MOL0     H19002   3.913   7.687   9.993  0.4424 -0.1543 -2.5205
  144MOL0     H19003   3.807   7.656   9.853 -1.2231 -4.1322  0.9617
  144MOL0     H19004   3.653   7.526   9.996 -0.0582 -1.7382  0.8963
  144MOL0     H19005   3.821   7.463   9.997  1.7966  1.1472 -1.0394
  144MOL0     H19006   3.815   7.588  10.390 -0.8351  3.3414 -0.5710
  144MOL0     H19007   3.419   8.119   9.900 -0.0306  0.4984 -0.2680
  144MOL0     H19008   3.187   8.139   9.817 -2.0420 -0.3663  0.0105
  145MOL0     O19009   1.323   1.802   2.218 -0.2928  0.1005 -0.9613
  145MOL0     C19010   1.377   1.702   2.165 -0.1094  0.3554  0.3334
  145MOL0     O19011   1.310   1.590   2.111  0.3104 -0.0126 -0.8819
  145MOL0     C19012   1.175   1.572   2.128 -0.4041  0.1581 -1.3970
  145MOL0     C19013   1.094   1.544   2.028  0.4991  0.0538  1.1987
  145MOL0     C19014   0.953   1.517   2.046  0.0179 -0.0247 -0.0600
  145MOL0     C19015   0.901   1.531   2.177 -0.5925 -0.0693  0.6158
  145MOL0     O19016   0.766   1.511   2.211  0.1557 -0.3023  0.0256
  145MOL0     C19017   0.657   1.498   2.120  0.2522 -1.1197 -0.0088
  145MOL0     C19018   0.522   1.497   2.187  1.0282 -0.0996  0.8953
  145MOL0     C19019   0.480   1.623   2.271 -0.2324  0.2315 -0.1230
  145MOL0     C19020   0.324   1.644   2.282 -0.2073 -0.1200 -0.0984
  145MOL0     C19021   0.282   1.775   2.336  0.7872 -0.2446 -0.7391
  145MOL0     C19022   0.129   1.790   2.326  0.6688  0.4707 -0.2634
  145MOL0     C19023   0.082   1.939   2.344 -0.6503 -0.1631  0.9626
  145MOL0     C19024  -0.070   1.933   2.350  0.7056 -0.7132 -0.5565
  145MOL0     N19025  -0.132   2.072   2.366  0.9013  0.1666 -1.0831
  145MOL0     C19026  -0.125   2.173   2.271 -0.7164 -0.1614 -0.1240
  145MOL0     C19027  -0.185   2.277   2.330  0.1519  0.0286 -0.4236
  145MOL0     C19028  -0.209   2.413   2.261  0.3241  0.3950 -0.5961
  145MOL0     C19029  -0.187   2.536   2.365 -0.5243 -0.1815  0.7902
  145MOL0     C19030  -0.233   2.676   2.316  1.2944 -0.2306 -0.2757
  145MOL0     C19031  -0.379   2.688   2.269 -0.5158  0.3081  0.2914
  145MOL0     O19032  -0.478   2.671   2.374 -0.0864  0.2141  0.2435
  145MOL0     C19033  -0.609   2.711   2.349  0.1382 -0.2925 -0.0725
  145MOL0     C19034  -0.662   2.774   2.236  0.6558  0.0563 -0.3839
  145MOL0     C19035  -0.800   2.802   2.234 -0.0313  0.6748  0.4424
  145MOL0     C19036  -0.880   2.769   2.344  0.1579 -0.1417  0.6674
  145MOL0     C19037  -1.025   2.788   2.341 -0.1707 -0.4743 -0.1242
  145MOL0     O19038  -1.095   2.777   2.460 -0.6891 -0.1672 -0.8176
  145MOL0     C19039  -1.224   2.824   2.472  0.1535  0.3838 -0.8527
  145MOL0     C19040  -1.282   2.939   2.414 -1.2974 -0.0011 -0.6422
  145MOL0     C19041  -1.416   2.964   2.427 -0.0828  0.1770 -0.8426
  145MOL0     C19042  -1.505   2.878   2.501  0.4778  0.3948  0.5639
  145MOL0     O19043  -1.641   2.908   2.504 -0.5633  0.4785 -0.5228
  145MOL0     C19044  -1.724   2.785   2.514 -0.0768  0.0447 -0.1370
  145MOL0     C19045  -1.857   2.816   2.448  0.0138 -0.1014  0.6856
  145MOL0     C19046  -1.945   2.682   2.436  0.6255 -0.4233 -0.0099
  145MOL0     C19047  -2.068   2.711   2.331 -0.3090  0.1300 -0.0975
  145MOL0     C19048  -2.162   2.587   2.309 -1.0545 -0.8277  0.1750
  145MOL0     C19049  -2.273   2.615   2.209  0.1657 -1.4888  0.9025
  145MOL0     C19050  -2.225   2.620   2.064  0.8653  0.5228  0.3881
  145MOL0     C19051  -2.327   2.549   1.967 -0.1212 -0.9904 -0.3468
  145MOL0    Cl19052  -2.251   2.462   1.833  0.4455  0.0611 -0.1046
  145MOL0     C19053  -1.442   2.762   2.561 -0.5746 -0.0014  0.5856
  145MOL0     C19054  -1.305   2.738   2.550  0.2780 -0.0444  0.0245
  145MOL0     O19055  -1.075   2.817   2.233  0.4825 -0.7878  0.3991
  145MOL0     C19056  -0.821   2.710   2.455  0.7021 -0.7450  0.0509
  145MOL0     C19057  -0.690   2.684   2.453  0.4823  0.0383  0.3036
  145MOL0     N19058  -0.240   2.239   2.451 -0.1256 -0.4006 -0.5910
  145MOL0     N19059  -0.211   2.105   2.471  0.3895  0.7326  0.3158
  145MOL0     C19060   0.980   1.566   2.282 -0.7659  0.3060  0.2820
  145MOL0     C19061   1.116   1.584   2.260 -0.1240 -0.2203 -0.4887
  145MOL0     C19062   1.521   1.710   2.153 -0.0551 -0.8590 -0.1595
  145MOL0     C19063   1.593   1.664   2.041  0.0907 -0.4546  0.4961
  145MOL0     C19064   1.734   1.658   2.051 -0.6800  0.2896  0.5054
  145MOL0     C19065   1.816   1.714   2.154  0.3700 -0.7412  0.2377
  145MOL0     O19066   1.950   1.704   2.144  0.1204  0.7810 -0.4675
  145MOL0     C19067   2.036   1.745   2.258 -0.3850 -0.8980 -0.4830
  145MOL0     C19068   2.175   1.693   2.237  0.2086 -0.1404  0.2429
  145MOL0     C19069   2.297   1.753   2.304  0.0029 -0.8060  0.0384
  145MOL0     C19070   2.316   1.749   2.454 -0.0629 -1.4952 -0.5835
  145MOL0     C19071   2.448   1.793   2.500  0.0314  0.4923  0.0459
  145MOL0     C19072   2.559   1.827   2.533  0.1648 -0.1341  0.4031
  145MOL0     C19073   1.739   1.755   2.262 -0.5071  0.1059 -0.2891
  145MOL0     C19074   1.597   1.756   2.263 -0.7316 -0.6582 -0.7521
  145MOL0     H19075   1.127   1.548   1.924 -0.7073 -1.4793  0.7077
  145MOL0     H19076   0.882   1.493   1.967  0.2532 -0.4642 -0.1387
  145MOL0     H19077   0.681   1.426   2.042 -0.9947 -0.4113 -1.0908
  145MOL0     H19078   0.669   1.595   2.072  1.5517 -1.6432 -0.7979
  145MOL0     H19079   0.517   1.413   2.257  1.9421 -0.5697  0.4031
  145MOL0     H19080   0.452   1.488   2.103  1.5740  2.7913  0.0207
  145MOL0     H19081   0.527   1.710   2.226  0.0566  0.7131  1.0617
  145MOL0     H19082   0.528   1.602   2.367  1.3894  1.6815 -0.5711
  145MOL0     H19083   0.274   1.620   2.187 -0.1387  1.7913 -0.6582
  145MOL0     H19084   0.288   1.563   2.345  4.4180  0.4282  3.8856
  145MOL0     H19085   0.325   1.860   2.283 -4.5135  1.3339 -3.1907
  145MOL0     H19086   0.324   1.779   2.437 -0.3136  0.1579 -0.2745
  145MOL0     H19087   0.079   1.737   2.408 -0.5019  1.2752 -0.4328
  145MOL0     H19088   0.097   1.744   2.232  0.7085 -3.2282  1.3401
  145MOL0     H19089   0.122   1.980   2.437  1.4192  1.9219 -0.7345
  145MOL0     H19090   0.123   1.996   2.261  2.1851 -1.2685  1.4617
  145MOL0     H19091  -0.105   1.877   2.437 -1.2681  0.3054 -0.6423
  145MOL0     H19092  -0.100   1.895   2.252 -0.7472  0.0238 -0.4373
  145MOL0     H19093  -0.079   2.175   2.173 -2.7807 -1.2182 -1.1715
  145MOL0     H19094  -0.314   2.416   2.231  0.2278 -1.0502 -0.4503
  145MOL0     H19095  -0.139   2.418   2.177  2.5584 -2.0012  0.9760
  145MOL0     H19096  -0.081   2.555   2.386 -0.0307  0.1740 -1.7259
  145MOL0     H19097  -0.226   2.501   2.461 -1.6051 -1.8434 -0.1964
  145MOL0     H19098  -0.216   2.746   2.398 -1.0402  2.1308 -1.6365
  145MOL0     H19099  -0.169   2.723   2.241  0.1968  2.2858  0.2853
  145MOL0     H19100  -0.395   2.603   2.201  1.0309 -1.3545  1.9019
  145MOL0     H19101  -0.396   2.780   2.213  1.4871  0.8274  0.4582
  145MOL0     H19102  -0.599   2.792   2.149  1.3896  0.1400  0.1495
  145MOL0     H19103  -0.839   2.841   2.141  0.5867 -0.4797 -0.3289
  145MOL0     H19104  -1.212   3.011   2.372  0.6197  0.1309  2.4638
  145MOL0     H19105  -1.475   3.050   2.397  0.0421  1.5199  2.3754
  145MOL0     H19106  -1.731   2.754   2.619  2.9467  1.9083  0.7288
  145MOL0     H19107  -1.674   2.702   2.463 -0.2483  1.0082 -1.9282
  145MOL0     H19108  -1.815   2.844   2.351  0.1220  0.0132  0.7643
  145MOL0     H19109  -1.902   2.906   2.490  2.3581  0.6727  1.6637
  145MOL0     H19110  -1.994   2.651   2.529  1.1885 -2.3503 -0.3049
  145MOL0     H19111  -1.880   2.598   2.408  1.4627  0.3758 -0.5258
  145MOL0     H19112  -2.121   2.804   2.354  1.0143  1.0137 -0.5073
  145MOL0     H19113  -2.024   2.727   2.233  1.4418 -0.1822  0.6015
  145MOL0     H19114  -2.191   2.548   2.407  1.2775 -2.0975  0.4552
  145MOL0     H19115  -2.095   2.508   2.275 -0.3498 -0.9789  1.8350
  145MOL0     H19116  -2.326   2.709   2.227  0.0677 -1.1336 -1.0790
  145MOL0     H19117  -2.340   2.530   2.220 -1.3634 -1.2365 -4.1566
  145MOL0     H19118  -2.203   2.718   2.022  0.5370 -0.5779 -2.6005
  145MOL0     H19119  -2.133   2.562   2.050  1.6312  1.3627  1.7411
  145MOL0     H19120  -2.392   2.631   1.935  1.5307  0.3476 -0.3608
  145MOL0     H19121  -2.401   2.485   2.018 -1.4687  0.6651 -0.1261
  145MOL0     H19122  -1.498   2.688   2.618  0.1236 -0.6589  0.4358
  145MOL0     H19123  -1.251   2.654   2.593  1.5017  0.2360 -0.9321
  145MOL0     H19124  -0.874   2.689   2.548 -3.1861  2.4209 -1.1449
  145MOL0     H19125  -0.643   2.632   2.536 -1.2547 -1.6061  0.3367
  145MOL0     H19126   0.939   1.568   2.383  2.3173  1.3556  1.6535
  145MOL0     H19127   1.183   1.616   2.339  0.1907  1.4733 -1.3898
  145MOL0     H19128   1.542   1.639   1.949  0.7765  0.8694 -0.2737
  145MOL0     H19129   1.778   1.621   1.959  2.0486  3.0862  0.5057
  145MOL0     H19130   1.994   1.697   2.346  0.9670 -2.5649 -0.6853
  145MOL0     H19131   2.040   1.852   2.284  1.7719 -0.4816 -2.2244
  145MOL0     H19132   2.163   1.591   2.276  0.2741 -0.0847  0.4051
  145MOL0     H19133   2.188   1.696   2.128 -0.5831  1.0903  0.1647
  145MOL0     H19134   2.295   1.859   2.278  2.2297 -1.0654 -1.4590
  145MOL0     H19135   2.385   1.706   2.259  0.9764  1.3853 -0.5006
  145MOL0     H19136   2.233   1.813   2.488  0.1173 -1.1274 -0.8295
  145MOL0     H19137   2.288   1.653   2.498 -1.8902  0.1696  2.3004
  145MOL0     H19138   2.661   1.851   2.558  0.6231  0.6940 -1.9783
  145MOL0     H19139   1.794   1.793   2.348  0.1598 -0.3762 -0.4932
  145MOL0     H19140   1.556   1.790   2.358 -2.6451  0.2030 -1.8351
  146MOL0     O19141  10.983   1.349   5.788 -0.9630  0.3979  0.4864
  146MOL0     C19142  11.087   1.371   5.722 -0.4119  0.1993 -0.1706
  146MOL0     O19143  11.096   1.367   5.585  0.3529 -0.2930 -0.7007
  146MOL0     C19144  10.987   1.344   5.500 -0.5458  0.5051 -0.7477
  146MOL0     C19145  10.878   1.256   5.516 -0.9618 -0.0115 -0.5771
  146MOL0     C19146  10.789   1.241   5.408  0.3274 -0.5617  0.9514
  146MOL0     C19147  10.808   1.315   5.288 -0.0194  0.4849 -0.8119
  146MOL0     O19148  10.730   1.301   5.174 -0.4185 -1.0092  0.0897
  146MOL0     C19149  10.600   1.255   5.195  0.7777  0.4600  0.8217
  146MOL0     C19150  10.536   1.247   5.061  1.0286  0.0878 -0.6445
  146MOL0     C19151  10.387   1.200   5.080 -0.0756 -0.0019 -0.1403
  146MOL0     C19152  10.289   1.198   4.955 -0.0050  0.8820 -0.4501
  146MOL0     C19153  10.329   1.081   4.866 -0.0734 -0.9109  0.2175
  146MOL0     C19154  10.206   1.024   4.794  0.2770 -0.4892  0.6163
  146MOL0     C19155  10.124   0.945   4.896 -0.6192 -0.0053  0.4446
  146MOL0     C19156   9.978   0.975   4.899  0.1698 -0.8006  0.3101
  146MOL0     N19157   9.896   0.946   4.782  0.1242 -0.3316 -0.2833
  146MOL0     C19158   9.781   0.873   4.791  0.5977 -0.4968  0.3573
  146MOL0     C19159   9.708   0.911   4.684  0.0148  0.8868 -0.0635
  146MOL0     C19160   9.586   0.844   4.634 -0.2406 -0.6212  0.0360
  146MOL0     C19161   9.582   0.841   4.478  0.3649  0.1668 -0.1981
  146MOL0     C19162   9.695   0.751   4.421 -0.1626 -0.0113  0.2288
  146MOL0     C19163   9.676   0.723   4.264  0.2214  0.1143  0.3310
  146MOL0     O19164   9.585   0.614   4.240 -0.8183 -0.7212 -0.0050
  146MOL0     C19165   9.456   0.655   4.241 -0.0233  0.3993 -0.3338
  146MOL0     C19166   9.368   0.590   4.327 -0.1536  0.8192 -0.2040
  146MOL0     C19167   9.230   0.613   4.315 -0.0643  0.7830  0.5345
  146MOL0     C19168   9.179   0.706   4.221 -0.1185 -0.2368  0.3608
  146MOL0     C19169   9.034   0.725   4.206 -0.0403  0.5657 -0.0855
  146MOL0     O19170   9.002   0.763   4.082 -0.0046  0.2105 -0.2156
  146MOL0     C19171   8.861   0.775   4.069 -0.2843  0.3032 -1.0242
  146MOL0     C19172   8.799   0.894   4.107  0.4272  0.2614  0.0052
  146MOL0     C19173   8.657   0.888   4.111  0.4726  0.1770  0.0673
  146MOL0     C19174   8.588   0.777   4.080 -0.5016 -0.0796  0.3492
  146MOL0     O19175   8.452   0.796   4.100 -0.3998  0.3011 -0.3101
  146MOL0     C19176   8.348   0.728   4.029 -0.9455 -0.0879 -0.1750
  146MOL0     C19177   8.226   0.809   4.054 -0.6703  0.7716 -0.3699
  146MOL0     C19178   8.104   0.763   3.987  1.1094 -0.0046  0.9137
  146MOL0     C19179   8.003   0.867   3.961 -0.3823 -0.1003  0.1810
  146MOL0     C19180   7.877   0.801   3.911  0.2603 -0.8598  0.4053
  146MOL0     C19181   7.793   0.915   3.843 -0.3271 -0.2421 -0.1536
  146MOL0     C19182   7.662   0.851   3.790  0.5983 -0.9174  0.6052
  146MOL0     C19183   7.573   0.957   3.718  0.1159 -0.2098 -0.1875
  146MOL0    Cl19184   7.498   1.068   3.838  0.3029  0.2511  0.0990
  146MOL0     C19185   8.652   0.667   4.032 -0.9141  0.5572 -0.6283
  146MOL0     C19186   8.791   0.660   4.027 -0.1319  0.3628 -0.4631
  146MOL0     O19187   8.949   0.692   4.289  0.8254  0.1658  0.4990
  146MOL0     C19188   9.273   0.774   4.143 -0.2722  0.1917 -0.5670
  146MOL0     C19189   9.410   0.748   4.142 -0.1990  0.9396  0.0441
  146MOL0     N19190   9.772   1.014   4.622 -0.1560 -0.5432  0.2539
  146MOL0     N19191   9.883   1.027   4.670  0.3040 -0.6305 -0.3037
  146MOL0     C19192  10.915   1.404   5.272  0.2529  0.2437 -0.0608
  146MOL0     C19193  10.999   1.419   5.383  0.2162 -0.9714  0.7188
  146MOL0     C19194  11.186   1.428   5.796 -0.2646  0.1992 -0.1828
  146MOL0     C19195  11.270   1.516   5.730  0.0466  0.3640  0.0522
  146MOL0     C19196  11.356   1.593   5.808  0.0226 -0.0151 -0.1643
  146MOL0     C19197  11.372   1.589   5.950  0.1031 -0.2410  0.2683
  146MOL0     O19198  11.465   1.647   6.039  0.5851 -0.4597  0.0009
  146MOL0     C19199  11.552   1.756   5.996  0.2546 -0.5138 -0.4311
  146MOL0     C19200  11.548   1.858   6.114 -0.4209  0.6431  0.1658
  146MOL0     C19201  11.655   1.963   6.104 -0.1098  0.3258 -0.0135
  146MOL0     C19202  11.657   2.054   6.230  0.1165 -0.7491 -0.9488
  146MOL0     C19203  11.722   2.190   6.208 -0.2846  0.2862 -0.3652
  146MOL0     C19204  11.764   2.307   6.209 -0.4257  0.6631  0.3219
  146MOL0     C19205  11.286   1.497   6.011 -0.6281 -0.3695  0.5693
  146MOL0     C19206  11.198   1.418   5.933  0.2738 -0.5535 -0.2961
  146MOL0     H19207  10.872   1.206   5.611 -0.5190  0.7725 -0.1237
  146MOL0     H19208  10.708   1.170   5.418  0.7456 -0.7952  3.3690
  146MOL0     H19209  10.538   1.324   5.255 -0.9261  0.6520 -1.0442
  146MOL0     H19210  10.597   1.157   5.243 -0.9839 -0.2522 -0.6257
  146MOL0     H19211  10.593   1.176   5.000 -1.0471 -1.9752 -0.3283
  146MOL0     H19212  10.537   1.343   5.008  0.9701  0.0108 -0.7853
  146MOL0     H19213  10.347   1.262   5.161  2.1087  0.7175  0.4721
  146MOL0     H19214  10.385   1.099   5.121  0.2784 -0.8307 -2.0980
  146MOL0     H19215  10.185   1.189   4.987 -0.9462  3.8235 -2.2756
  146MOL0     H19216  10.297   1.298   4.912 -0.2391  2.1660  2.2880
  146MOL0     H19217  10.381   0.999   4.915 -0.1666 -1.3594 -0.4244
  146MOL0     H19218  10.387   1.128   4.786 -0.9220 -0.3098 -0.0597
  146MOL0     H19219  10.229   0.964   4.705 -0.7158 -0.1595  0.1325
  146MOL0     H19220  10.147   1.105   4.751  0.8724 -1.1501 -1.5529
  146MOL0     H19221  10.135   0.839   4.870 -0.7993 -0.3627  1.7644
  146MOL0     H19222  10.170   0.943   4.995 -1.4007  1.7629  0.8791
  146MOL0     H19223   9.985   1.079   4.933  3.4060 -1.3659  1.7949
  146MOL0     H19224   9.936   0.910   4.977 -0.5343  0.3858  0.9649
  146MOL0     H19225   9.745   0.819   4.878  1.6667 -1.5272  0.1843
  146MOL0     H19226   9.508   0.911   4.673  0.8058  0.4969  0.2946
  146MOL0     H19227   9.569   0.746   4.680 -0.7958  0.7209  2.9583
  146MOL0     H19228   9.595   0.939   4.431 -1.0100  0.1914 -0.5726
  146MOL0     H19229   9.484   0.801   4.451  1.3418 -3.1113  0.6787
  146MOL0     H19230   9.792   0.800   4.427 -0.5033  0.9435 -1.3789
  146MOL0     H19231   9.699   0.664   4.487 -1.1345  0.7739  1.3809
  146MOL0     H19232   9.768   0.717   4.206 -0.3912  3.6064 -1.2461
  146MOL0     H19233   9.643   0.821   4.230 -1.5557 -0.3090  0.7323
  146MOL0     H19234   9.404   0.534   4.412  0.6803  4.2012  1.8479
  146MOL0     H19235   9.167   0.546   4.372  1.8221 -1.0344  0.6099
  146MOL0     H19236   8.858   0.981   4.134 -2.0765  2.4660 -1.1738
  146MOL0     H19237   8.597   0.968   4.151 -1.4679 -0.9595 -0.4043
  146MOL0     H19238   8.342   0.628   4.073 -0.4986 -0.0016  0.0803
  146MOL0     H19239   8.372   0.716   3.923  1.9619 -1.9349  0.5905
  146MOL0     H19240   8.245   0.914   4.029  0.0798  0.4609 -1.1367
  146MOL0     H19241   8.206   0.821   4.161  0.6540  0.5486 -0.0787
  146MOL0     H19242   8.054   0.683   4.043  0.2967  0.8146  1.3673
  146MOL0     H19243   8.135   0.719   3.891 -1.5560  0.6030 -0.3258
  146MOL0     H19244   7.977   0.918   4.054  1.3994 -1.5104  1.5419
  146MOL0     H19245   8.046   0.938   3.890  2.1805 -2.0724 -0.4435
  146MOL0     H19246   7.815   0.764   3.993 -0.1125  1.2984  1.1787
  146MOL0     H19247   7.894   0.721   3.839  0.3929 -0.3472 -0.1472
  146MOL0     H19248   7.852   0.963   3.764 -1.4592  0.6732 -0.4581
  146MOL0     H19249   7.776   0.992   3.918 -2.5963 -0.3918 -0.4420
  146MOL0     H19250   7.711   0.778   3.725  2.0208  1.9446 -1.7897
  146MOL0     H19251   7.598   0.810   3.868 -1.6202 -0.8459 -1.0828
  146MOL0     H19252   7.486   0.909   3.671  0.0760 -2.1611  1.7246
  146MOL0     H19253   7.630   1.009   3.641  1.6610 -2.1540 -0.4438
  146MOL0     H19254   8.589   0.585   4.000  0.0383 -1.0324  1.3220
  146MOL0     H19255   8.833   0.569   3.984  0.2744 -0.7589  2.1397
  146MOL0     H19256   9.234   0.837   4.063 -1.9096  0.5612  0.4828
  146MOL0     H19257   9.471   0.803   4.072 -0.3100 -0.3198 -1.0880
  146MOL0     H19258  10.923   1.454   5.176 -0.0446  0.4413  0.0146
  146MOL0     H19259  11.082   1.489   5.370 -1.0309  0.4037 -0.2506
  146MOL0     H19260  11.272   1.539   5.624  2.7585  2.8683  0.5260
  146MOL0     H19261  11.420   1.656   5.747 -0.6358 -1.5964 -2.6271
  146MOL0     H19262  11.514   1.803   5.904  1.4868  1.5970  0.0488
  146MOL0     H19263  11.652   1.715   5.980  0.1427 -0.0807 -2.5528
  146MOL0     H19264  11.449   1.905   6.119 -1.0073  0.1570 -3.6803
  146MOL0     H19265  11.566   1.790   6.198 -2.4940 -0.6917 -0.3845
  146MOL0     H19266  11.645   2.023   6.013  2.5722 -0.2865 -0.8289
  146MOL0     H19267  11.747   1.904   6.106 -2.4621 -3.7948 -0.5286
  146MOL0     H19268  11.552   2.079   6.250  1.1222  1.6810  1.8198
  146MOL0     H19269  11.700   2.012   6.321 -3.1010 -1.5580  0.3384
  146MOL0     H19270  11.780   2.411   6.189 -1.5963  0.5357 -1.5525
  146MOL0     H19271  11.280   1.477   6.118  2.9116  2.9523  1.6493
  146MOL0     H19272  11.137   1.341   5.980  1.2332 -2.1923 -1.6242
  147MOL0     O19273   1.870  10.316   1.008 -0.4255 -0.4037 -0.0457
  147MOL0     C19274   1.962  10.387   1.049  0.4855 -0.0205  0.1522
  147MOL0     O19275   1.960  10.515   1.071 -0.1236 -0.8586 -0.5187
  147MOL0     C19276   1.842  10.583   1.073  0.0535  0.0125 -0.0831
  147MOL0     C19277   1.802  10.687   0.987  0.7576 -0.4082 -0.3372
  147MOL0     C19278   1.672  10.734   0.992  0.8440 -0.3293  0.3009
  147MOL0     C19279   1.584  10.693   1.093  0.5528 -0.4477  1.0453
  147MOL0     O19280   1.452  10.736   1.092  0.5578 -0.3126  0.0875
  147MOL0     C19281   1.419  10.822   1.197  0.3752  0.7373 -0.8090
  147MOL0     C19282   1.338  10.742   1.306  0.1534  0.8009  0.8008
  147MOL0     C19283   1.253  10.842   1.379 -0.2976 -0.6976 -0.1361
  147MOL0     C19284   1.155  10.788   1.482  0.2509 -0.3852  0.2069
  147MOL0     C19285   1.088  10.649   1.457 -0.0521 -0.1387 -0.0671
  147MOL0     C19286   0.976  10.609   1.563  0.0236  0.3783 -0.2288
  147MOL0     C19287   0.964  10.457   1.578  1.3865 -0.5030 -0.8087
  147MOL0     C19288   0.902  10.430   1.717  0.2490 -0.0008  0.0905
  147MOL0     N19289   0.775  10.492   1.758 -0.0505 -0.6276  0.3915
  147MOL0     C19290   0.650  10.467   1.713  0.4252  0.1681 -0.9316
  147MOL0     C19291   0.565  10.537   1.789 -0.8580 -0.1045  0.0254
  147MOL0     C19292   0.412  10.536   1.787  0.6844 -0.4718 -1.2705
  147MOL0     C19293   0.337  10.404   1.826 -0.3858  0.5138 -0.4034
  147MOL0     C19294   0.196  10.405   1.771  0.2300 -0.4657  0.7050
  147MOL0     C19295   0.120  10.271   1.794  0.2266 -0.0003 -0.1025
  147MOL0     O19296  -0.005  10.281   1.732 -0.4699  0.3162  0.1187
  147MOL0     C19297  -0.113  10.223   1.788  0.2158 -0.5971 -0.1395
  147MOL0     C19298  -0.234  10.283   1.747 -0.5868  0.0910 -0.0245
  147MOL0     C19299  -0.353  10.230   1.791  0.3046 -0.3046  0.2067
  147MOL0     C19300  -0.348  10.125   1.881  0.3997 -0.4706 -0.1381
  147MOL0     C19301  -0.477  10.060   1.930  0.2258  0.0022 -0.3235
  147MOL0     O19302  -0.597  10.111   1.883 -0.1858 -0.2366 -0.1316
  147MOL0     C19303  -0.700  10.034   1.935  0.2611  0.4275  1.1127
  147MOL0     C19304  -0.760  10.074   2.057 -0.7377 -0.4146  0.0129
  147MOL0     C19305  -0.873   9.993   2.099  0.5783 -0.2401 -0.6907
  147MOL0     C19306  -0.928   9.889   2.030 -0.0283  0.3775 -0.7079
  147MOL0     O19307  -1.037   9.821   2.071  0.2723 -0.3176  0.0393
  147MOL0     C19308  -1.104   9.861   2.191  0.5487  0.4769 -0.1819
  147MOL0     C19309  -1.230   9.780   2.201  1.4091 -0.2411 -0.5006
  147MOL0     C19310  -1.303   9.816   2.339  0.1339 -0.2385 -0.1063
  147MOL0     C19311  -1.466   9.804   2.329  0.1200  0.7895  0.0823
  147MOL0     C19312  -1.509   9.661   2.345 -0.7163 -0.5140 -0.9769
  147MOL0     C19313  -1.652   9.644   2.374  0.9166  0.6743 -0.2927
  147MOL0     C19314  -1.743   9.708   2.265  0.3476  0.4752 -0.3211
  147MOL0     C19315  -1.883   9.662   2.284 -0.4634 -0.2877 -0.3242
  147MOL0    Cl19316  -1.915   9.478   2.258  0.3915 -0.3181  0.0711
  147MOL0     C19317  -0.868   9.849   1.916  0.6462  0.0213  0.1936
  147MOL0     C19318  -0.754   9.919   1.867 -0.3637  0.1248  0.4927
  147MOL0     O19319  -0.463   9.959   1.997 -0.1225  0.1926 -1.0479
  147MOL0     C19320  -0.225  10.073   1.923 -0.5736 -0.1994 -0.9831
  147MOL0     C19321  -0.107  10.116   1.872  0.2930 -0.1691 -0.6715
  147MOL0     N19322   0.645  10.620   1.870  0.5931 -0.2304  0.2215
  147MOL0     N19323   0.766  10.579   1.859 -0.0188  0.3145 -0.1501
  147MOL0     C19324   1.626  10.604   1.195  0.4333 -0.2012 -0.3052
  147MOL0     C19325   1.757  10.549   1.182  0.4884  0.4239  0.2120
  147MOL0     C19326   2.088  10.312   1.051 -0.4925 -0.2821 -0.6382
  147MOL0     C19327   2.101  10.166   1.061  0.3520 -0.6798 -0.3524
  147MOL0     C19328   2.222  10.107   1.048 -1.5008  0.3617  0.0634
  147MOL0     C19329   2.346  10.177   1.041 -0.6381 -0.4286 -1.1443
  147MOL0     O19330   2.460  10.110   1.071  0.3800 -0.7510  0.8771
  147MOL0     C19331   2.584  10.172   1.049  0.8223  0.7765 -0.0490
  147MOL0     C19332   2.692  10.067   1.046  0.2670  0.1863  0.4256
  147MOL0     C19333   2.834  10.106   0.998 -0.3256 -0.1642 -0.0792
  147MOL0     C19334   2.903   9.977   0.962  0.6172  0.4567  0.2177
  147MOL0     C19335   3.043   9.986   0.936 -0.0659  0.2340 -0.2441
  147MOL0     C19336   3.163   9.977   0.918  0.5146 -0.6519 -1.1490
  147MOL0     C19337   2.334  10.322   1.045  0.4241  0.5603  0.0051
  147MOL0     C19338   2.207  10.381   1.044 -0.3091 -0.4729 -0.1071
  147MOL0     H19339   1.871  10.720   0.911 -1.7762  2.0176 -1.7743
  147MOL0     H19340   1.654  10.801   0.908  2.0542  0.9033  0.9786
  147MOL0     H19341   1.368  10.907   1.150  1.0097  0.3368 -2.2609
  147MOL0     H19342   1.504  10.866   1.251 -1.0245 -1.0296  3.2577
  147MOL0     H19343   1.404  10.695   1.380  0.2917 -0.1366  0.1076
  147MOL0     H19344   1.281  10.664   1.256  0.4859  1.4478 -0.6240
  147MOL0     H19345   1.188  10.886   1.303 -1.2094 -0.2043  0.8984
  147MOL0     H19346   1.314  10.913   1.435 -2.6568 -1.0821  3.2348
  147MOL0     H19347   1.217  10.779   1.571  4.6119 -0.7210 -2.5452
  147MOL0     H19348   1.079  10.867   1.490  1.1201  0.7126 -1.6229
  147MOL0     H19349   1.173  10.581   1.468 -0.0121  0.2642  2.9152
  147MOL0     H19350   1.055  10.641   1.353 -0.1887  1.6727 -0.1854
  147MOL0     H19351   0.886  10.655   1.521  0.4771 -0.9995 -2.9724
  147MOL0     H19352   1.003  10.642   1.663 -0.4361  0.9807 -0.2977
  147MOL0     H19353   0.896  10.408   1.508 -0.6412  0.3235  0.4797
  147MOL0     H19354   1.062  10.409   1.586  3.1595  3.0472  2.8324
  147MOL0     H19355   0.981  10.450   1.790 -0.6218 -0.8784  1.2937
  147MOL0     H19356   0.895  10.322   1.710 -2.5583  0.1191 -0.0485
  147MOL0     H19357   0.620  10.394   1.639 -2.7729  0.6416 -0.2532
  147MOL0     H19358   0.381  10.573   1.689 -0.8613  1.0268 -0.2578
  147MOL0     H19359   0.379  10.606   1.863 -1.3580 -0.3141 -2.2410
  147MOL0     H19360   0.324  10.391   1.934 -0.9595  1.3040 -0.3665
  147MOL0     H19361   0.374  10.314   1.775 -2.3564 -0.3864 -0.3492
  147MOL0     H19362   0.146  10.478   1.835 -0.1962 -0.0061 -0.1306
  147MOL0     H19363   0.181  10.427   1.665 -0.2141  1.1466  1.0784
  147MOL0     H19364   0.114  10.244   1.899 -0.7473 -1.7127 -0.5551
  147MOL0     H19365   0.168  10.186   1.745  0.3580 -0.0661  0.1386
  147MOL0     H19366  -0.235  10.363   1.673 -0.8605 -2.9453 -3.5990
  147MOL0     H19367  -0.442  10.278   1.752  0.5785  2.4550  2.6082
  147MOL0     H19368  -0.726  10.158   2.116 -3.6266  0.8724  0.0123
  147MOL0     H19369  -0.905  10.026   2.198  2.7899  1.0139 -0.3228
  147MOL0     H19370  -1.118   9.969   2.184  4.9924  1.2159 -0.0969
  147MOL0     H19371  -1.046   9.849   2.283  0.1475 -1.1971 -0.1135
  147MOL0     H19372  -1.220   9.672   2.196 -1.2236 -0.5213 -1.0579
  147MOL0     H19373  -1.287   9.797   2.109  1.6696  3.9168 -0.1172
  147MOL0     H19374  -1.279   9.921   2.361 -0.7029  0.2602 -1.4419
  147MOL0     H19375  -1.266   9.744   2.412  2.4930  0.8360 -0.1603
  147MOL0     H19376  -1.515   9.862   2.407  0.2872  0.2780  0.5787
  147MOL0     H19377  -1.495   9.828   2.227  1.0751 -0.7333 -0.5899
  147MOL0     H19378  -1.455   9.609   2.425 -2.3201  0.8196  1.1053
  147MOL0     H19379  -1.488   9.606   2.253 -1.4717 -2.0826 -0.2473
  147MOL0     H19380  -1.676   9.683   2.473  2.6751  2.4138 -0.4923
  147MOL0     H19381  -1.669   9.536   2.383 -0.5338  0.9450  0.5999
  147MOL0     H19382  -1.734   9.817   2.272 -1.7969  0.6048  1.4255
  147MOL0     H19383  -1.718   9.683   2.161 -1.1084  1.9692 -1.0955
  147MOL0     H19384  -1.955   9.722   2.227 -2.0382  0.9747  2.7445
  147MOL0     H19385  -1.908   9.687   2.387  1.4036  2.2826 -0.3924
  147MOL0     H19386  -0.905   9.761   1.863  0.5981 -0.3327  0.8077
  147MOL0     H19387  -0.701   9.892   1.776  1.6351 -0.1284  1.6766
  147MOL0     H19388  -0.213   9.993   1.995 -1.8244  0.0938 -0.4216
  147MOL0     H19389  -0.013  10.068   1.897 -1.7801 -3.4570  1.4354
  147MOL0     H19390   1.549  10.564   1.261  1.2789 -0.9094  0.2654
  147MOL0     H19391   1.803  10.490   1.261  0.4839  0.2001  0.0476
  147MOL0     H19392   2.010  10.107   1.053  0.1663 -0.3611 -0.6117
  147MOL0     H19393   2.210   9.999   1.047 -0.3156  0.2170 -0.4571
  147MOL0     H19394   2.600  10.245   1.128 -0.1923  2.7962 -1.6226
  147MOL0     H19395   2.580  10.236   0.960  0.4094  1.7633  0.6652
  147MOL0     H19396   2.714  10.036   1.148  0.1516  2.5218  1.2262
  147MOL0     H19397   2.645   9.991   0.983 -2.5416  3.0241 -1.2027
  147MOL0     H19398   2.893  10.165   1.069  1.0030 -1.7048  0.1431
  147MOL0     H19399   2.835  10.164   0.905  3.7991  2.1163  1.1658
  147MOL0     H19400   2.897   9.918   1.054 -3.4749 -1.7787 -1.1785
  147MOL0     H19401   2.861   9.931   0.872  0.7097  3.1811 -1.2927
  147MOL0     H19402   3.268   9.969   0.899  1.7550  2.8575  2.6269
  147MOL0     H19403   2.420  10.387   1.051  1.5575 -0.8376 -0.4441
  147MOL0     H19404   2.204  10.490   1.042  2.8667 -0.1125  3.5472
  148MOL0     O19405   8.021   6.322  10.824 -0.8891  0.5983 -0.0787
  148MOL0     C19406   8.019   6.205  10.869  0.3330 -0.7794 -0.9529
  148MOL0     O19407   7.948   6.104  10.815  0.0480 -0.1163 -0.3624
  148MOL0     C19408   7.858   6.132  10.716  0.9653  0.9753 -0.5074
  148MOL0     C19409   7.748   6.216  10.740 -0.4612  0.4602 -0.2961
  148MOL0     C19410   7.657   6.226  10.634  0.4902  0.2914 -0.1757
  148MOL0     C19411   7.664   6.142  10.519  1.6733  0.9098  0.4421
  148MOL0     O19412   7.566   6.161  10.419  0.0778 -0.9537  0.3902
  148MOL0     C19413   7.461   6.062  10.432 -0.4459 -1.3546 -0.2963
  148MOL0     C19414   7.374   6.062  10.305 -1.0086 -1.5431 -0.0319
  148MOL0     C19415   7.267   5.953  10.303  0.1370 -0.3707  0.5637
  148MOL0     C19416   7.197   5.982  10.168 -0.1809 -1.6213  0.5415
  148MOL0     C19417   7.099   5.870  10.126 -0.2326  0.4273  0.0561
  148MOL0     C19418   6.994   5.839  10.229 -0.5754  0.2758 -0.1519
  148MOL0     C19419   6.866   5.766  10.173  0.1773  0.3931  0.0034
  148MOL0     C19420   6.894   5.633  10.117 -0.0222 -0.5556 -0.5044
  148MOL0     N19421   6.765   5.567  10.080 -0.0794  0.2721  0.4936
  148MOL0     C19422   6.680   5.597   9.973  0.1383  0.0805  0.1300
  148MOL0     C19423   6.565   5.527  10.004  0.8502  0.1926 -1.0252
  148MOL0     C19424   6.439   5.550   9.923 -0.0936  0.7660  0.5801
  148MOL0     C19425   6.346   5.647   9.997  0.5090 -0.5817 -0.4588
  148MOL0     C19426   6.262   5.577  10.102  0.3522  0.4334  0.1604
  148MOL0     C19427   6.180   5.676  10.179 -0.8607 -0.3176 -0.1360
  148MOL0     O19428   6.071   5.736  10.101 -0.2786  0.3728 -0.3089
  148MOL0     C19429   5.969   5.787  10.173  0.2537 -0.6230 -0.0056
  148MOL0     C19430   5.839   5.782  10.115 -0.1969 -0.0153  0.0874
  148MOL0     C19431   5.730   5.825  10.188 -0.2644 -0.0171  0.6688
  148MOL0     C19432   5.743   5.905  10.304 -0.7229 -0.9780 -0.0501
  148MOL0     C19433   5.625   5.967  10.372  0.1780 -0.1913  1.0236
  148MOL0     O19434   5.507   5.957  10.302 -0.0712  0.6172 -0.3816
  148MOL0     C19435   5.401   6.032  10.339  0.4803 -1.0065  0.2253
  148MOL0     C19436   5.306   5.990  10.430 -0.2757  0.1526 -0.4076
  148MOL0     C19437   5.195   6.063  10.468 -0.4566 -0.3122  0.1056
  148MOL0     C19438   5.175   6.189  10.413  0.4399 -0.7470 -0.0335
  148MOL0     O19439   5.053   6.248  10.453  0.2781  0.1686 -1.0529
  148MOL0     C19440   5.000   6.354  10.378  0.0486  0.4039  1.0954
  148MOL0     C19441   4.845   6.353  10.378 -0.0735  0.1900 -0.4421
  148MOL0     C19442   4.792   6.377  10.515  0.7668  0.0145 -0.0832
  148MOL0     C19443   4.646   6.328  10.525 -0.1803 -0.5207  0.4419
  148MOL0     C19444   4.599   6.343  10.672  0.5682  0.8291  0.6626
  148MOL0     C19445   4.453   6.295  10.676  1.0192 -0.7487 -0.3237
  148MOL0     C19446   4.353   6.406  10.629 -0.3173 -0.8077 -0.3638
  148MOL0     C19447   4.211   6.351  10.611 -0.0388  0.6414 -0.4343
  148MOL0    Cl19448   4.198   6.210  10.486 -0.2737  0.0058  0.1886
  148MOL0     C19449   5.271   6.241  10.321 -0.0055  0.0835 -0.9862
  148MOL0     C19450   5.381   6.162  10.288 -0.6304 -0.5271  0.2081
  148MOL0     O19451   5.640   6.030  10.478 -0.3837 -0.1617  0.5483
  148MOL0     C19452   5.870   5.917  10.359 -0.2310  0.3310  0.0056
  148MOL0     C19453   5.981   5.867  10.291 -0.1644 -0.1307  0.0131
  148MOL0     N19454   6.596   5.442  10.113 -0.1799  0.9733  0.0521
  148MOL0     N19455   6.720   5.470  10.156  0.2680 -0.4360  0.1959
  148MOL0     C19456   7.773   6.055  10.501 -0.5241  0.2545  0.6106
  148MOL0     C19457   7.868   6.048  10.597 -1.3386 -0.4843 -0.2534
  148MOL0     C19458   8.099   6.176  10.991 -0.3650 -0.2274 -0.4352
  148MOL0     C19459   8.139   6.284  11.073 -0.4762 -0.6506 -0.3621
  148MOL0     C19460   8.227   6.252  11.185 -0.8459 -0.0051  0.9445
  148MOL0     C19461   8.279   6.124  11.218 -0.1002  0.2892  0.5158
  148MOL0     O19462   8.351   6.097  11.336  0.4079 -0.3534  0.8595
  148MOL0     C19463   8.453   6.178  11.377 -0.5378  0.6399 -0.4525
  148MOL0     C19464   8.478   6.123  11.528 -0.3771 -1.2859 -0.2889
  148MOL0     C19465   8.599   6.206  11.592  0.2966 -0.3869  0.6328
  148MOL0     C19466   8.732   6.197  11.519 -0.2056  1.0787 -0.2464
  148MOL0     C19467   8.840   6.236  11.608  0.0529 -0.5950  0.4433
  148MOL0     C19468   8.930   6.261  11.690 -1.1209 -0.6899  0.5712
  148MOL0     C19469   8.208   6.018  11.146  0.0560 -0.0949 -0.3643
  148MOL0     C19470   8.127   6.041  11.038 -0.7195  0.7547  0.5868
  148MOL0     H19471   7.733   6.274  10.831  1.2057 -0.4547  0.5985
  148MOL0     H19472   7.579   6.301  10.649  0.6004  0.0120  2.1063
  148MOL0     H19473   7.386   6.095  10.505 -2.0948 -0.8772 -2.1341
  148MOL0     H19474   7.497   5.961  10.452  1.9000 -0.0930  2.8755
  148MOL0     H19475   7.441   6.029  10.225 -0.1320 -2.0384  0.8805
  148MOL0     H19476   7.337   6.164  10.291  2.6502 -0.0768 -0.2416
  148MOL0     H19477   7.203   5.948  10.391  0.0888 -2.1681  0.4488
  148MOL0     H19478   7.318   5.858  10.284  1.0841  0.3814 -0.8973
  148MOL0     H19479   7.139   6.075  10.172 -3.0913 -2.9833 -3.3190
  148MOL0     H19480   7.273   5.984  10.088 -3.2614 -2.2620 -2.6706
  148MOL0     H19481   7.155   5.778  10.106  0.9163  0.3629  3.1567
  148MOL0     H19482   7.048   5.906  10.036 -0.1804  0.0798 -0.1159
  148MOL0     H19483   6.966   5.938  10.266 -0.6722  0.5273 -0.8825
  148MOL0     H19484   7.032   5.773  10.307 -1.5200  0.5817  0.5769
  148MOL0     H19485   6.795   5.762  10.256  2.3133  1.4529  2.0100
  148MOL0     H19486   6.828   5.835  10.098  0.0959 -1.3674 -1.6547
  148MOL0     H19487   6.954   5.575  10.187 -0.5023  1.0652  1.3544
  148MOL0     H19488   6.944   5.654  10.022 -0.1586  0.5664 -0.3437
  148MOL0     H19489   6.690   5.672   9.895 -1.5322 -1.1062 -1.3057
  148MOL0     H19490   6.385   5.459   9.895 -2.0576  2.6877 -2.4249
  148MOL0     H19491   6.466   5.595   9.828  0.9437  0.5525  0.7566
  148MOL0     H19492   6.276   5.695   9.927  0.4143  1.9952  1.2793
  148MOL0     H19493   6.409   5.725  10.041  0.0536 -1.3855  1.7572
  148MOL0     H19494   6.200   5.501  10.053 -0.1189 -0.7875  2.5057
  148MOL0     H19495   6.330   5.521  10.167  0.6674  0.4599 -0.1459
  148MOL0     H19496   6.234   5.762  10.218  1.8301 -1.0464 -1.9567
  148MOL0     H19497   6.148   5.620  10.267  0.4866  0.1563  0.6815
  148MOL0     H19498   5.825   5.724  10.025  0.3754 -0.5495  0.3347
  148MOL0     H19499   5.641   5.821  10.127  0.2180  1.0002 -0.1501
  148MOL0     H19500   5.331   5.895  10.477 -3.4551  0.6784  2.7202
  148MOL0     H19501   5.146   6.021  10.555 -0.0670 -0.5174  0.2294
  148MOL0     H19502   5.035   6.352  10.275  0.1508 -2.4563  1.1280
  148MOL0     H19503   5.038   6.448  10.419  0.6054  1.4020 -1.5254
  148MOL0     H19504   4.810   6.257  10.339  2.6259 -1.4115  0.7559
  148MOL0     H19505   4.811   6.434  10.312  4.4520  0.7502 -2.4944
  148MOL0     H19506   4.792   6.483  10.544 -2.2664  0.1325 -0.2000
  148MOL0     H19507   4.853   6.322  10.587 -1.0157 -0.9407  0.7715
  148MOL0     H19508   4.590   6.395  10.458 -3.2092 -1.6484  1.6369
  148MOL0     H19509   4.651   6.222  10.495  2.0392 -1.1052  2.5607
  148MOL0     H19510   4.613   6.441  10.718 -2.2885  0.4261  2.6502
  148MOL0     H19511   4.665   6.275  10.726  1.6943 -0.2746 -1.9410
  148MOL0     H19512   4.431   6.280  10.782 -0.0701 -2.4079 -0.7476
  148MOL0     H19513   4.444   6.199  10.624  0.9525  0.0212 -1.7887
  148MOL0     H19514   4.361   6.490  10.700 -1.9674 -1.2639  0.4110
  148MOL0     H19515   4.373   6.450  10.531 -3.2171  1.5700 -0.0408
  148MOL0     H19516   4.147   6.429  10.569 -1.0029  0.5951  0.8610
  148MOL0     H19517   4.182   6.309  10.708  0.4365 -2.4210 -1.4894
  148MOL0     H19518   5.263   6.344  10.287  0.1234  0.0102 -1.2337
  148MOL0     H19519   5.452   6.201  10.215  2.3110 -3.0093  1.5610
  148MOL0     H19520   5.895   5.969  10.451 -1.9465  0.0563  0.6600
  148MOL0     H19521   6.082   5.876  10.331 -0.5155  4.0521  0.4640
  148MOL0     H19522   7.769   5.995  10.410  1.4979  1.4137 -0.3118
  148MOL0     H19523   7.961   5.991  10.598 -1.9241 -1.4748 -0.8201
  148MOL0     H19524   8.104   6.386  11.060 -1.4696 -0.8008  0.8613
  148MOL0     H19525   8.249   6.343  11.239  2.1313 -0.5228  0.7765
  148MOL0     H19526   8.413   6.280  11.384 -3.1728 -0.3836  1.1261
  148MOL0     H19527   8.526   6.155  11.300 -0.0796 -1.4571  0.5232
  148MOL0     H19528   8.384   6.128  11.584  0.3183 -2.4075  1.0256
  148MOL0     H19529   8.507   6.018  11.532 -0.5993 -1.3057  3.1279
  148MOL0     H19530   8.627   6.168  11.691  0.0433  3.4109  2.3154
  148MOL0     H19531   8.568   6.310  11.605 -2.7348 -0.7973 -1.9731
  148MOL0     H19532   8.747   6.093  11.489  4.3110  1.2271  0.7988
  148MOL0     H19533   8.728   6.254  11.426 -2.2222 -0.5600 -1.2411
  148MOL0     H19534   9.006   6.292  11.758  1.3408  0.6460 -2.5499
  148MOL0     H19535   8.237   5.923  11.191 -0.6851 -0.2818 -0.2767
  148MOL0     H19536   8.094   5.957  10.977  0.3648  1.4267 -0.9824
  149MOL0     O19537   6.605   5.513   7.720 -0.2744  0.4761 -0.7247
  149MOL0     C19538   6.704   5.488   7.780  0.4311  0.2322  0.1087
  149MOL0     O19539   6.707   5.418   7.893  0.4696  0.1312 -0.2641
  149MOL0     C19540   6.595   5.368   7.958 -0.3997  0.2355  0.2007
  149MOL0     C19541   6.593   5.363   8.098 -0.2164  0.9040  0.6904
  149MOL0     C19542   6.493   5.308   8.173  0.0070 -0.0186 -0.5443
  149MOL0     C19543   6.371   5.272   8.102 -1.5313 -0.6175 -0.6359
  149MOL0     O19544   6.279   5.204   8.179  0.7319 -0.5436 -0.3138
  149MOL0     C19545   6.143   5.255   8.171 -0.2707 -0.2023  0.3651
  149MOL0     C19546   6.053   5.209   8.287  0.5731 -0.0241  0.6166
  149MOL0     C19547   5.918   5.278   8.287  0.5027 -0.3986  0.2809
  149MOL0     C19548   5.835   5.249   8.409  0.1543  0.3004 -0.3276
  149MOL0     C19549   5.695   5.320   8.409  0.1198 -0.6818  0.3476
  149MOL0     C19550   5.613   5.294   8.286 -0.1356 -0.1696  0.1758
  149MOL0     C19551   5.550   5.155   8.297 -0.5918  0.1864 -0.3070
  149MOL0     C19552   5.632   5.049   8.207  0.2136 -0.4448 -0.0762
  149MOL0     N19553   5.548   4.931   8.174  0.5191  0.2574 -0.4637
  149MOL0     C19554   5.591   4.798   8.189 -0.2304 -0.2166 -0.1921
  149MOL0     C19555   5.494   4.723   8.126  0.4008  0.3465 -0.6886
  149MOL0     C19556   5.500   4.573   8.093  0.0080 -0.1364 -0.1726
  149MOL0     C19557   5.462   4.529   7.951 -0.8922  0.3968 -0.6717
  149MOL0     C19558   5.554   4.584   7.846 -0.4113  0.4641  0.2926
  149MOL0     C19559   5.701   4.589   7.881 -0.1683  0.3378 -0.3551
  149MOL0     O19560   5.758   4.465   7.891 -0.0608  0.0986 -0.2419
  149MOL0     C19561   5.900   4.462   7.903 -0.7827 -0.3589 -0.0000
  149MOL0     C19562   5.949   4.329   7.898  0.4733  0.5129 -1.4180
  149MOL0     C19563   6.091   4.311   7.900  0.4047  0.2317 -0.0460
  149MOL0     C19564   6.183   4.418   7.895  0.0340  0.1443  0.6258
  149MOL0     C19565   6.335   4.399   7.890  1.1113 -0.8241  0.5534
  149MOL0     O19566   6.415   4.520   7.864 -0.3913 -0.8988  0.1562
  149MOL0     C19567   6.547   4.517   7.827 -0.1016 -0.2553  0.6460
  149MOL0     C19568   6.619   4.626   7.860 -1.2547 -0.2959 -0.1557
  149MOL0     C19569   6.756   4.615   7.850 -0.5788 -0.0158  1.0515
  149MOL0     C19570   6.830   4.514   7.773  0.1318 -0.3324  0.2329
  149MOL0     O19571   6.966   4.527   7.757  0.1265  0.1237  0.4075
  149MOL0     C19572   7.044   4.408   7.737  0.0492  0.1093 -0.5960
  149MOL0     C19573   7.185   4.426   7.803  0.3181  0.2019 -0.9591
  149MOL0     C19574   7.280   4.335   7.727  0.2814 -0.3367 -0.0088
  149MOL0     C19575   7.420   4.318   7.794  0.4136  0.2765 -0.3586
  149MOL0     C19576   7.512   4.245   7.697  0.6185 -0.0587  0.2182
  149MOL0     C19577   7.470   4.099   7.670 -0.6289  0.1814  0.0945
  149MOL0     C19578   7.586   4.024   7.593  0.5496  0.7296 -0.0333
  149MOL0     C19579   7.546   3.897   7.526 -0.5958  0.3651  0.1072
  149MOL0    Cl19580   7.665   3.767   7.576  0.3814  0.6988  0.2581
  149MOL0     C19581   6.745   4.407   7.733  0.1403  0.1860  0.1218
  149MOL0     C19582   6.609   4.403   7.765 -0.1847  0.4055  0.8540
  149MOL0     O19583   6.371   4.289   7.871 -0.0363  0.4660 -0.2448
  149MOL0     C19584   6.131   4.549   7.907  0.6561  0.7559  0.2113
  149MOL0     C19585   5.994   4.572   7.902  0.3738 -0.8231 -0.6786
  149MOL0     N19586   5.397   4.812   8.078 -0.6078 -0.2852  0.2001
  149MOL0     N19587   5.430   4.936   8.111  0.1345  0.2810 -0.5654
  149MOL0     C19588   6.376   5.271   7.961  0.5203 -0.2109 -0.4118
  149MOL0     C19589   6.484   5.316   7.886  0.5076 -0.1283  0.2369
  149MOL0     C19590   6.823   5.548   7.729 -0.6671  0.1219 -0.3070
  149MOL0     C19591   6.910   5.603   7.830  0.3212  0.1240  0.2783
  149MOL0     C19592   7.031   5.655   7.787 -0.5815 -0.5765 -0.4546
  149MOL0     C19593   7.070   5.655   7.652  0.2922  0.7063 -0.0367
  149MOL0     O19594   7.198   5.694   7.622 -0.4903  0.7770 -0.5027
  149MOL0     C19595   7.275   5.628   7.514 -0.0836  0.0891  0.4871
  149MOL0     C19596   7.426   5.657   7.534  1.0216  0.3697  0.7196
  149MOL0     C19597   7.472   5.638   7.687 -0.4272 -0.2094 -0.0855
  149MOL0     C19598   7.421   5.504   7.741 -0.1142  0.9737 -0.2196
  149MOL0     C19599   7.472   5.485   7.878 -0.2097  0.2688  0.7042
  149MOL0     C19600   7.516   5.500   7.986  0.0036  0.3029 -0.7187
  149MOL0     C19601   6.978   5.610   7.555 -0.1823 -0.5982  0.1236
  149MOL0     C19602   6.856   5.558   7.594  0.0263 -0.0830 -0.3231
  149MOL0     H19603   6.671   5.411   8.157 -3.6351  4.5667  2.7249
  149MOL0     H19604   6.510   5.306   8.280  2.5283  0.6830 -0.8523
  149MOL0     H19605   6.099   5.238   8.072  0.7512  2.0600 -0.5471
  149MOL0     H19606   6.146   5.363   8.183  0.8481 -0.0769 -0.7970
  149MOL0     H19607   6.113   5.211   8.379  2.3093 -0.4439 -0.4499
  149MOL0     H19608   6.030   5.103   8.274 -0.6129  0.5584 -2.9475
  149MOL0     H19609   5.865   5.238   8.200  2.2021  2.5695 -2.3094
  149MOL0     H19610   5.931   5.386   8.285  2.2805 -0.5346 -3.3014
  149MOL0     H19611   5.818   5.142   8.417 -0.4854  0.3675 -0.6594
  149MOL0     H19612   5.884   5.284   8.501  1.5320 -0.8484 -0.5935
  149MOL0     H19613   5.726   5.425   8.414  0.5552 -0.6358 -2.2172
  149MOL0     H19614   5.636   5.292   8.497  0.0765  0.4700  0.6995
  149MOL0     H19615   5.665   5.311   8.192  1.8057 -1.2329  1.0104
  149MOL0     H19616   5.535   5.371   8.278 -0.6631 -0.7454 -0.3766
  149MOL0     H19617   5.561   5.123   8.401  0.3638  0.7313 -0.2278
  149MOL0     H19618   5.443   5.161   8.276 -0.6998 -1.8499 -0.4491
  149MOL0     H19619   5.724   5.022   8.259  0.2574 -0.8052 -0.3411
  149MOL0     H19620   5.649   5.106   8.115 -2.9939 -0.2515 -0.6524
  149MOL0     H19621   5.675   4.750   8.238  1.2815  0.1558 -2.2621
  149MOL0     H19622   5.420   4.523   8.148  0.4664 -2.3569 -1.4102
  149MOL0     H19623   5.596   4.530   8.124 -0.7338 -3.1267 -1.6686
  149MOL0     H19624   5.362   4.567   7.931 -0.4861  2.0278  0.2674
  149MOL0     H19625   5.464   4.420   7.951 -3.3375  0.2820  0.1881
  149MOL0     H19626   5.538   4.513   7.765  2.4185  1.9576 -1.7527
  149MOL0     H19627   5.504   4.676   7.813 -0.2976  0.5933  0.4783
  149MOL0     H19628   5.726   4.660   7.960 -0.1192  0.0182 -0.0807
  149MOL0     H19629   5.740   4.656   7.803  2.8610  0.2008  0.8881
  149MOL0     H19630   5.869   4.256   7.889  0.9143 -0.1611 -0.2195
  149MOL0     H19631   6.132   4.212   7.891  1.1400  0.2181  2.5538
  149MOL0     H19632   6.562   4.709   7.898 -0.3512  0.3460 -0.1750
  149MOL0     H19633   6.825   4.684   7.899  0.8675  0.1932 -1.1240
  149MOL0     H19634   7.049   4.391   7.629 -0.9224 -0.5656 -0.5490
  149MOL0     H19635   6.994   4.317   7.770  1.0767 -0.1990  0.1679
  149MOL0     H19636   7.179   4.386   7.904  1.8520  0.2157 -0.8450
  149MOL0     H19637   7.217   4.531   7.809  1.3643 -0.2030  1.4042
  149MOL0     H19638   7.280   4.372   7.624  0.5731 -1.5915 -0.4727
  149MOL0     H19639   7.221   4.244   7.720 -3.8490  2.1258 -0.6251
  149MOL0     H19640   7.447   4.423   7.808 -1.3694  0.7295 -0.1018
  149MOL0     H19641   7.403   4.276   7.894  1.2222 -0.6188 -0.5784
  149MOL0     H19642   7.613   4.245   7.739  0.5835  1.9907  0.4085
  149MOL0     H19643   7.516   4.303   7.604  1.8453  0.0960  0.3537
  149MOL0     H19644   7.377   4.104   7.612  0.0288  2.7664 -0.8676
  149MOL0     H19645   7.450   4.055   7.768  2.2445 -1.6353 -0.0271
  149MOL0     H19646   7.626   4.096   7.521  2.3791 -1.1451 -0.9769
  149MOL0     H19647   7.667   4.011   7.666  2.5052 -2.0851 -2.4724
  149MOL0     H19648   7.544   3.909   7.417 -2.5411 -1.8107 -0.1820
  149MOL0     H19649   7.444   3.865   7.552 -2.0424  1.5778 -3.4044
  149MOL0     H19650   6.786   4.316   7.691 -0.1824 -0.6407  1.5188
  149MOL0     H19651   6.566   4.309   7.730  2.6907 -1.1891  1.2908
  149MOL0     H19652   6.196   4.635   7.899  1.4852  0.1346  0.1818
  149MOL0     H19653   5.964   4.677   7.906  1.8300 -0.3598 -1.1733
  149MOL0     H19654   6.285   5.236   7.913 -0.1892  2.0642 -0.8297
  149MOL0     H19655   6.467   5.318   7.779 -4.0045  2.2962  0.7338
  149MOL0     H19656   6.891   5.599   7.937 -1.8370 -0.9586 -0.1078
  149MOL0     H19657   7.105   5.695   7.855  1.4642  1.4803 -3.6431
  149MOL0     H19658   7.235   5.669   7.421  0.9440 -2.2996 -1.1206
  149MOL0     H19659   7.263   5.519   7.508 -4.0371  0.3827  0.8923
  149MOL0     H19660   7.491   5.600   7.466  3.1069  0.0701  2.8004
  149MOL0     H19661   7.429   5.761   7.500  2.4144 -1.2007 -5.1676
  149MOL0     H19662   7.454   5.726   7.749  1.8861 -0.2867  0.7993
  149MOL0     H19663   7.581   5.639   7.676 -0.2570 -2.0136  1.0334
  149MOL0     H19664   7.312   5.493   7.735 -0.3114  2.8832 -0.7358
  149MOL0     H19665   7.452   5.422   7.676 -1.2037 -1.0135  1.6306
  149MOL0     H19666   7.562   5.520   8.080  0.8996 -1.6947 -0.6901
  149MOL0     H19667   7.013   5.619   7.453  2.8647  2.4338  1.2118
  149MOL0     H19668   6.778   5.518   7.530  0.2286 -0.5664 -0.2670
  150MOL0     O19669   2.838  10.849   8.464  0.0921 -0.1451 -0.8335
  150MOL0     C19670   2.949  10.796   8.489 -0.1365 -0.2091 -0.1042
  150MOL0     O19671   2.967  10.663   8.506 -0.4385  0.0391  0.1478
  150MOL0     C19672   2.870  10.589   8.440 -1.4315  0.5357  0.2951
  150MOL0     C19673   2.820  10.618   8.300  0.2233  1.1587 -0.2353
  150MOL0     C19674   2.716  10.540   8.257  0.5124  0.2483  0.1381
  150MOL0     C19675   2.668  10.428   8.333 -0.3420  0.6953 -0.3964
  150MOL0     O19676   2.570  10.348   8.280 -0.2226  0.9893  0.7497
  150MOL0     C19677   2.453  10.322   8.359  0.6391  0.0886  0.0653
  150MOL0     C19678   2.345  10.237   8.294  0.5065 -0.3366 -0.0580
  150MOL0     C19679   2.245  10.185   8.397 -0.0738  0.1021  0.0469
  150MOL0     C19680   2.156  10.298   8.460 -0.3551  0.4129 -0.0850
  150MOL0     C19681   2.041  10.245   8.541 -0.8016 -1.1403  0.2946
  150MOL0     C19682   1.983  10.105   8.511 -0.7084  0.1134  0.2962
  150MOL0     C19683   1.851  10.070   8.578 -0.5808  0.4468 -0.2754
  150MOL0     C19684   1.735  10.089   8.476 -0.5141 -0.1055  0.2364
  150MOL0     N19685   1.604  10.066   8.538 -0.7909  0.5450  0.2370
  150MOL0     C19686   1.509  10.023   8.449 -0.3216 -0.0073 -1.0175
  150MOL0     C19687   1.396  10.025   8.521 -0.1822  0.1519 -0.3059
  150MOL0     C19688   1.274   9.969   8.460  1.2875 -0.1477 -0.2395
  150MOL0     C19689   1.177  10.085   8.441  0.3479  0.1255 -0.7827
  150MOL0     C19690   1.052  10.040   8.361  0.1501  0.9617 -0.4899
  150MOL0     C19691   0.953   9.955   8.441 -0.6961  0.0067  0.3074
  150MOL0     O19692   0.891  10.045   8.540  0.3228 -0.0159 -0.3408
  150MOL0     C19693   0.759  10.076   8.512 -0.0037 -0.0537  0.7243
  150MOL0     C19694   0.718  10.141   8.389  0.0221  0.2214  0.1111
  150MOL0     C19695   0.583  10.165   8.353 -0.3344 -0.1485 -0.4338
  150MOL0     C19696   0.480  10.122   8.443  0.3148 -0.1876  0.8534
  150MOL0     C19697   0.341  10.122   8.401  0.2186  0.0107 -0.4069
  150MOL0     O19698   0.272  10.037   8.481  0.0459 -0.4794  0.5475
  150MOL0     C19699   0.159   9.982   8.425 -0.3496 -1.0315  0.1003
  150MOL0     C19700   0.029  10.043   8.444  0.1396  0.0429  0.4674
  150MOL0     C19701  -0.084   9.973   8.396  0.1017  0.0112  0.8284
  150MOL0     C19702  -0.080   9.846   8.353 -0.4116 -0.1911 -0.0171
  150MOL0     O19703  -0.189   9.788   8.297  0.4828 -0.5595  0.1811
  150MOL0     C19704  -0.226   9.669   8.374 -0.4877  0.4953  0.3425
  150MOL0     C19705  -0.369   9.685   8.401  0.4416 -0.0327  0.8566
  150MOL0     C19706  -0.467   9.615   8.305  0.3328  0.6667 -0.0852
  150MOL0     C19707  -0.607   9.642   8.352  0.1805  0.2402  0.9447
  150MOL0     C19708  -0.711   9.590   8.260 -0.0616  0.1358  0.1318
  150MOL0     C19709  -0.691   9.440   8.216 -0.0134 -0.5312 -0.2362
  150MOL0     C19710  -0.823   9.374   8.174 -0.5880 -0.4896  0.6857
  150MOL0     C19711  -0.796   9.235   8.133 -0.2022  1.0197  0.2198
  150MOL0    Cl19712  -0.740   9.141   8.276  0.2635 -0.0838 -0.3654
  150MOL0     C19713   0.043   9.791   8.329 -0.1868  0.2801  0.1364
  150MOL0     C19714   0.164   9.855   8.361  0.4398 -0.8403  0.9803
  150MOL0     O19715   0.310  10.159   8.291  0.5253  0.5360  0.6015
  150MOL0     C19716   0.520  10.055   8.560  0.8701 -0.5669  0.4754
  150MOL0     C19717   0.654  10.033   8.588 -0.7105 -0.5080 -0.1891
  150MOL0     N19718   1.427  10.077   8.653 -0.5338  0.2593  0.3637
  150MOL0     N19719   1.557  10.102   8.662  0.0822  0.0701 -0.3034
  150MOL0     C19720   2.726  10.401   8.455 -0.1914  1.0794 -0.0602
  150MOL0     C19721   2.827  10.485   8.515  0.1980  0.2632  0.1186
  150MOL0     C19722   3.062  10.879   8.547  0.0089 -1.1057  0.1943
  150MOL0     C19723   3.035  11.013   8.587 -0.3044  0.5035  0.6188
  150MOL0     C19724   3.140  11.084   8.645  0.0794  0.6111 -0.1035
  150MOL0     C19725   3.265  11.033   8.673  0.0683 -0.1761 -0.1142
  150MOL0     O19726   3.361  11.104   8.736 -0.0844 -0.4455 -0.4169
  150MOL0     C19727   3.421  11.199   8.644 -0.8175  0.2444  0.3226
  150MOL0     C19728   3.555  11.139   8.591 -0.1988  0.3206  0.5344
  150MOL0     C19729   3.677  11.115   8.688  0.7204  0.3082 -0.2011
  150MOL0     C19730   3.809  11.098   8.620 -0.5656  0.9865 -0.4400
  150MOL0     C19731   3.844  11.226   8.553  0.1201  0.6060  0.2664
  150MOL0     C19732   3.861  11.325   8.489  0.6797  0.0639  0.4187
  150MOL0     C19733   3.292  10.898   8.651  0.2883  0.2822 -0.3390
  150MOL0     C19734   3.185  10.821   8.594 -0.3269 -0.4457 -0.5751
  150MOL0     H19735   2.869  10.696   8.244  0.0047  1.7938  0.4328
  150MOL0     H19736   2.672  10.561   8.161 -1.6020  3.5092  1.6541
  150MOL0     H19737   2.410  10.418   8.388  1.6724  0.3169  0.9178
  150MOL0     H19738   2.490  10.277   8.452  1.4707 -1.3192 -0.9096
  150MOL0     H19739   2.375  10.150   8.234 -2.6838  1.1575 -4.2762
  150MOL0     H19740   2.293  10.301   8.223 -0.0725  0.4617  1.0496
  150MOL0     H19741   2.295  10.133   8.480  0.5504 -0.7842 -0.8512
  150MOL0     H19742   2.187  10.117   8.334  0.0662 -2.6265  2.6543
  150MOL0     H19743   2.228  10.359   8.515  3.8651 -1.4421 -3.0040
  150MOL0     H19744   2.107  10.358   8.383 -2.4529  1.0475  1.6304
  150MOL0     H19745   1.961  10.319   8.525  1.5143  0.8897 -3.4577
  150MOL0     H19746   2.067  10.246   8.647  1.3843 -1.8953 -0.1811
  150MOL0     H19747   2.059  10.030   8.537  1.3544 -0.6811 -6.0804
  150MOL0     H19748   1.983  10.076   8.405 -0.5511 -2.3041  0.8873
  150MOL0     H19749   1.855   9.965   8.609  0.8349 -0.0962 -2.1112
  150MOL0     H19750   1.836  10.135   8.665 -2.0708 -2.9587  2.2631
  150MOL0     H19751   1.748  10.020   8.393 -1.5480  1.6086 -1.4427
  150MOL0     H19752   1.727  10.193   8.443 -1.1572 -0.0666  0.5019
  150MOL0     H19753   1.511   9.995   8.344 -2.6089 -0.0962 -1.0849
  150MOL0     H19754   1.231   9.900   8.534 -0.8866  2.1346  0.7949
  150MOL0     H19755   1.304   9.917   8.368  0.2119  0.0906 -0.7425
  150MOL0     H19756   1.221  10.164   8.380 -0.0859  2.8344  2.1092
  150MOL0     H19757   1.147  10.128   8.538 -2.8381 -1.2443 -1.0109
  150MOL0     H19758   1.004  10.128   8.317  0.2887 -0.0881 -2.9029
  150MOL0     H19759   1.079   9.980   8.274 -3.9831 -1.6451 -0.2509
  150MOL0     H19760   1.002   9.868   8.486 -2.5844 -1.1476  0.2482
  150MOL0     H19761   0.882   9.916   8.367  0.0541  1.4470 -1.2200
  150MOL0     H19762   0.786  10.148   8.305 -0.7246 -1.3676 -0.6862
  150MOL0     H19763   0.555  10.206   8.256 -2.3822 -2.0932 -0.7575
  150MOL0     H19764   0.006  10.132   8.502 -2.7129  1.8613 -2.9819
  150MOL0     H19765  -0.182  10.021   8.394 -1.3402 -2.5894 -3.4945
  150MOL0     H19766  -0.155   9.650   8.455  0.6085 -0.9254 -0.8840
  150MOL0     H19767  -0.208   9.585   8.306 -2.1855 -1.0067  1.6614
  150MOL0     H19768  -0.405   9.788   8.410 -0.8216 -0.5254  1.7462
  150MOL0     H19769  -0.387   9.639   8.499  0.2483 -0.2500  0.7214
  150MOL0     H19770  -0.448   9.510   8.285 -1.2047  0.9215 -3.5671
  150MOL0     H19771  -0.468   9.657   8.204 -0.5165 -1.3102 -0.9501
  150MOL0     H19772  -0.619   9.594   8.449  1.2643 -0.3584  0.8001
  150MOL0     H19773  -0.619   9.749   8.366  0.1358  0.5843 -1.3817
  150MOL0     H19774  -0.710   9.654   8.171  3.5206 -0.9407 -0.8011
  150MOL0     H19775  -0.806   9.594   8.314 -0.8892 -2.0878 -1.0251
  150MOL0     H19776  -0.643   9.384   8.296 -0.0191 -0.7754 -0.4026
  150MOL0     H19777  -0.618   9.438   8.134 -1.1284  2.2411 -1.4493
  150MOL0     H19778  -0.888   9.363   8.262 -3.2818  0.1729 -1.1078
  150MOL0     H19779  -0.870   9.429   8.092  2.1742  1.6455  0.3981
  150MOL0     H19780  -0.717   9.230   8.057  2.8572 -3.0152  3.2239
  150MOL0     H19781  -0.880   9.181   8.088  0.9499 -2.2686  1.7118
  150MOL0     H19782   0.060   9.689   8.295  0.9313  0.5160 -0.0644
  150MOL0     H19783   0.260   9.806   8.347  0.5901 -0.1111 -0.7816
  150MOL0     H19784   0.446  10.011   8.626 -0.9759 -0.5091 -1.4449
  150MOL0     H19785   0.678   9.976   8.678 -1.3888  0.3816  0.5713
  150MOL0     H19786   2.697  10.310   8.507 -1.2874  0.4154 -1.7484
  150MOL0     H19787   2.874  10.456   8.608  1.1429 -1.4955 -0.8544
  150MOL0     H19788   2.939  11.061   8.575 -1.2368 -1.5393 -0.6255
  150MOL0     H19789   3.121  11.186   8.676  0.1504  0.3777  0.7267
  150MOL0     H19790   3.438  11.298   8.686  2.7560  0.1094 -0.5055
  150MOL0     H19791   3.360  11.219   8.555 -0.4984  2.0256  0.4697
  150MOL0     H19792   3.550  11.058   8.519  1.0358  0.7141 -0.0230
  150MOL0     H19793   3.576  11.221   8.522  0.3414 -0.6285 -0.4459
  150MOL0     H19794   3.654  11.025   8.746  2.2692 -0.1375 -0.2332
  150MOL0     H19795   3.686  11.201   8.754  3.0543 -1.0524  1.4035
  150MOL0     H19796   3.886  11.068   8.691  0.2950  0.8156 -1.4202
  150MOL0     H19797   3.814  11.017   8.547  0.2008  0.0550  0.6086
  150MOL0     H19798   3.873  11.419   8.439 -1.1020 -0.3166 -0.8169
  150MOL0     H19799   3.375  10.851   8.703  1.2042 -1.3858 -3.0895
  150MOL0     H19800   3.189  10.713   8.593 -1.0172 -0.4813 -0.0808
  151MOL0     O19801   7.656   6.314   8.654  0.3149 -0.2355 -0.6148
  151MOL0     C19802   7.754   6.381   8.661  0.5485  1.0625  0.0862
  151MOL0     O19803   7.757   6.513   8.686  0.0290  0.2218  0.2513
  151MOL0     C19804   7.639   6.579   8.651  0.8730  0.1937  0.9673
  151MOL0     C19805   7.542   6.612   8.746 -0.4847 -0.0071  0.0350
  151MOL0     C19806   7.427   6.687   8.719  0.1490  0.0048 -0.0187
  151MOL0     C19807   7.395   6.718   8.584  0.0122 -0.6576  0.2111
  151MOL0     O19808   7.285   6.792   8.543  0.0563 -0.2811  0.5335
  151MOL0     C19809   7.227   6.888   8.632  0.2927  0.2319 -0.3091
  151MOL0     C19810   7.071   6.870   8.671 -0.4652  0.0080  0.1395
  151MOL0     C19811   6.967   6.905   8.561  0.0229  0.4387 -0.2667
  151MOL0     C19812   6.822   6.879   8.612  0.3707 -0.4615 -0.2393
  151MOL0     C19813   6.745   6.875   8.488  0.0974  0.0401 -0.6589
  151MOL0     C19814   6.598   6.845   8.521  1.1286 -0.4811  0.9478
  151MOL0     C19815   6.511   6.971   8.568 -0.0944 -0.5402  0.2112
  151MOL0     C19816   6.470   7.071   8.453 -0.6040  0.7607 -0.3918
  151MOL0     N19817   6.344   7.138   8.475 -0.1239 -0.5216 -0.4179
  151MOL0     C19818   6.224   7.072   8.482  0.5405 -0.0474 -0.0503
  151MOL0     C19819   6.131   7.176   8.475 -1.1552  0.4433  0.2378
  151MOL0     C19820   5.983   7.141   8.479  0.5690  0.9743  0.2517
  151MOL0     C19821   5.909   7.245   8.573 -0.2563 -0.3727  0.2445
  151MOL0     C19822   5.767   7.225   8.566 -0.0425 -0.2387 -0.0469
  151MOL0     C19823   5.674   7.316   8.653  0.4920 -0.1039  0.1666
  151MOL0     O19824   5.554   7.310   8.582 -0.6882  0.5909 -1.4021
  151MOL0     C19825   5.433   7.344   8.637  1.0684 -0.1023 -0.2398
  151MOL0     C19826   5.317   7.298   8.579  0.1917  1.4090 -0.2150
  151MOL0     C19827   5.185   7.319   8.631 -0.1570 -0.8293  0.2543
  151MOL0     C19828   5.174   7.393   8.747  0.1196  0.2561  0.4812
  151MOL0     C19829   5.042   7.416   8.792 -0.2033 -0.4491  0.3742
  151MOL0     O19830   4.942   7.402   8.703 -0.5526 -0.8090  0.0031
  151MOL0     C19831   4.805   7.405   8.738  0.4049  1.2648  0.0836
  151MOL0     C19832   4.717   7.328   8.660  0.0558  0.2515 -0.2272
  151MOL0     C19833   4.584   7.312   8.689 -0.5949  0.0930  0.4068
  151MOL0     C19834   4.520   7.389   8.787 -0.0244  0.2664 -0.3283
  151MOL0     O19835   4.387   7.398   8.811 -0.2039  0.6386  0.0645
  151MOL0     C19836   4.291   7.348   8.716  0.2178 -0.6783  0.3131
  151MOL0     C19837   4.153   7.405   8.740 -0.9734  0.0936 -0.2863
  151MOL0     C19838   4.049   7.326   8.668  0.6178 -0.3013  0.6809
  151MOL0     C19839   3.914   7.377   8.689 -0.4912 -0.2884  0.2552
  151MOL0     C19840   3.813   7.310   8.589 -0.1541 -0.2079 -0.2099
  151MOL0     C19841   3.675   7.372   8.612 -0.0409  0.6271  0.4988
  151MOL0     C19842   3.559   7.300   8.535  0.9504  0.5776  1.0234
  151MOL0     C19843   3.430   7.376   8.554  0.0005 -0.3126 -0.7230
  151MOL0    Cl19844   3.287   7.283   8.525  0.3084  0.4407  0.4874
  151MOL0     C19845   4.605   7.455   8.876 -0.4165  0.1103  0.0089
  151MOL0     C19846   4.746   7.457   8.850  0.4997 -0.3615  0.0218
  151MOL0     O19847   5.035   7.431   8.915 -0.8169  0.3387 -0.1354
  151MOL0     C19848   5.287   7.424   8.822 -0.3576  0.0030 -0.2015
  151MOL0     C19849   5.415   7.411   8.757  0.3511 -0.3932  0.9766
  151MOL0     N19850   6.203   7.296   8.457  0.1022  0.1265 -0.2441
  151MOL0     N19851   6.326   7.272   8.454 -1.2892 -0.3917  0.5973
  151MOL0     C19852   7.494   6.683   8.482 -0.7166 -0.0790 -0.9248
  151MOL0     C19853   7.607   6.605   8.517 -0.5467 -0.5312 -0.0073
  151MOL0     C19854   7.885   6.313   8.669  0.2648 -0.2906  1.2529
  151MOL0     C19855   7.901   6.170   8.682  0.1105 -1.0759  0.3062
  151MOL0     C19856   8.026   6.114   8.698 -0.6117 -0.3854  0.4100
  151MOL0     C19857   8.139   6.198   8.675  0.9770  0.4608 -0.6310
  151MOL0     O19858   8.268   6.159   8.700 -0.0700 -1.1543  0.6207
  151MOL0     C19859   8.321   6.031   8.690  1.0830 -0.0112  0.6907
  151MOL0     C19860   8.470   6.038   8.703  0.3282 -0.3959  0.1607
  151MOL0     C19861   8.535   5.903   8.728 -0.1101 -0.0775  0.7092
  151MOL0     C19862   8.687   5.902   8.768  0.5069  0.8037 -0.7134
  151MOL0     C19863   8.778   5.946   8.661 -0.8804  0.3087 -0.4261
  151MOL0     C19864   8.859   5.976   8.575  0.4411  0.2675 -0.7132
  151MOL0     C19865   8.121   6.333   8.657 -0.3379  0.0853 -0.2991
  151MOL0     C19866   8.002   6.395   8.659 -0.0297 -0.2704 -0.7825
  151MOL0     H19867   7.571   6.591   8.849  2.7983 -0.1528 -0.7922
  151MOL0     H19868   7.364   6.705   8.806 -1.5066  1.0284 -1.3730
  151MOL0     H19869   7.240   6.988   8.590  1.7850 -0.7717 -2.4248
  151MOL0     H19870   7.277   6.890   8.729 -3.0378  0.3894  1.5749
  151MOL0     H19871   7.065   6.939   8.755  1.4848  0.2111  0.1629
  151MOL0     H19872   7.057   6.767   8.706  0.1117  0.5948  2.2555
  151MOL0     H19873   6.994   6.830   8.487 -0.6538  0.5592 -0.6376
  151MOL0     H19874   6.976   7.004   8.516 -0.3557  0.7606  0.3554
  151MOL0     H19875   6.825   6.782   8.662 -0.9747 -0.3027  0.1821
  151MOL0     H19876   6.789   6.958   8.681 -0.1807 -0.1487 -0.8506
  151MOL0     H19877   6.786   6.809   8.411  1.0413  0.6014 -0.6501
  151MOL0     H19878   6.750   6.978   8.452  2.7525 -0.0757 -0.7865
  151MOL0     H19879   6.588   6.772   8.603 -1.4002  1.9970  3.0387
  151MOL0     H19880   6.556   6.797   8.432  1.8842  0.7091 -0.0814
  151MOL0     H19881   6.421   6.938   8.620 -1.9959 -0.4788 -2.8179
  151MOL0     H19882   6.564   7.026   8.647 -2.2801  0.2173  1.2397
  151MOL0     H19883   6.468   7.021   8.356  1.0355 -3.3321  1.4168
  151MOL0     H19884   6.546   7.150   8.446 -1.2939  1.5477  0.7373
  151MOL0     H19885   6.212   6.966   8.502  0.4052 -0.1796 -0.7968
  151MOL0     H19886   5.980   7.038   8.514  3.2635 -0.0669 -2.2101
  151MOL0     H19887   5.935   7.152   8.382 -0.4153  0.1230  0.6274
  151MOL0     H19888   5.936   7.343   8.532 -2.6897  0.8579  1.3744
  151MOL0     H19889   5.945   7.233   8.676  2.6668 -0.6905 -0.7234
  151MOL0     H19890   5.746   7.258   8.464 -1.5334  2.1759  0.9296
  151MOL0     H19891   5.739   7.121   8.585 -0.0260 -0.4458 -1.0857
  151MOL0     H19892   5.717   7.416   8.658  0.2505 -0.0593  1.9492
  151MOL0     H19893   5.675   7.278   8.756 -1.9565  0.6642  0.5299
  151MOL0     H19894   5.327   7.233   8.492  2.0678  2.4056 -0.8025
  151MOL0     H19895   5.093   7.275   8.594 -1.3734  1.2039  0.7383
  151MOL0     H19896   4.751   7.273   8.573  1.7327  0.2875  0.3627
  151MOL0     H19897   4.528   7.272   8.605 -1.8762  0.8280  0.8712
  151MOL0     H19898   4.274   7.240   8.727 -2.6507 -0.4254 -0.8521
  151MOL0     H19899   4.314   7.364   8.610  0.4658 -2.0464  0.1346
  151MOL0     H19900   4.144   7.509   8.707  0.3240  0.7850  1.3759
  151MOL0     H19901   4.139   7.400   8.848  0.4782 -0.2183 -0.0980
  151MOL0     H19902   4.049   7.219   8.691  0.5576 -0.9320 -1.9876
  151MOL0     H19903   4.069   7.339   8.562 -1.0839 -0.1638  0.3420
  151MOL0     H19904   3.886   7.356   8.793  2.9291 -0.6691  1.2382
  151MOL0     H19905   3.913   7.486   8.677  1.2999 -0.3642 -1.0016
  151MOL0     H19906   3.817   7.202   8.609 -0.6760 -0.3206 -0.6828
  151MOL0     H19907   3.842   7.322   8.485  1.4305 -0.9942  0.1167
  151MOL0     H19908   3.661   7.479   8.591  0.6734  0.7689  0.7104
  151MOL0     H19909   3.664   7.360   8.720  2.4242  1.8980  0.9823
  151MOL0     H19910   3.589   7.294   8.430  0.6431 -1.3859  1.0009
  151MOL0     H19911   3.542   7.200   8.576 -0.0126  0.9617  1.6094
  151MOL0     H19912   3.448   7.459   8.484  0.6705  1.7318  1.7275
  151MOL0     H19913   3.410   7.417   8.653  0.3391  1.2093 -1.2438
  151MOL0     H19914   4.569   7.502   8.967 -0.1787  0.9587 -0.3217
  151MOL0     H19915   4.813   7.514   8.914  2.4554 -2.6626  0.1853
  151MOL0     H19916   5.278   7.485   8.912  1.7542  2.7783 -1.7214
  151MOL0     H19917   5.505   7.442   8.809 -0.0150  0.3052  1.2165
  151MOL0     H19918   7.485   6.719   8.380  0.7121  3.5206  0.0453
  151MOL0     H19919   7.669   6.574   8.433  1.4899 -1.5745  1.7919
  151MOL0     H19920   7.810   6.111   8.691 -1.5133  0.8989 -1.8941
  151MOL0     H19921   8.035   6.006   8.705  1.0685 -0.5141 -2.3244
  151MOL0     H19922   8.291   5.992   8.592 -1.8185  0.5934  1.2458
  151MOL0     H19923   8.276   5.961   8.761  1.1554 -0.8344 -0.0581
  151MOL0     H19924   8.511   6.079   8.610 -1.1740 -0.6501 -0.6578
  151MOL0     H19925   8.499   6.107   8.783 -0.1169  2.5941 -2.0956
  151MOL0     H19926   8.519   5.845   8.636  1.1047 -2.0101  1.6614
  151MOL0     H19927   8.471   5.860   8.806 -1.7536  0.1500 -0.4600
  151MOL0     H19928   8.693   5.970   8.852 -2.5856  1.1887 -0.7022
  151MOL0     H19929   8.726   5.807   8.807  3.9506  1.1642 -2.8327
  151MOL0     H19930   8.931   6.008   8.502  1.8208 -2.9563 -0.9465
  151MOL0     H19931   8.217   6.384   8.651  1.8158 -2.4799  5.1721
  151MOL0     H19932   7.993   6.502   8.649  0.7915 -0.3040 -2.0645
  152MOL0     O19933   1.933  11.137   4.259  0.1246  0.5239  0.3165
  152MOL0     C19934   1.902  11.097   4.140 -0.2540 -0.1849 -0.9946
  152MOL0     O19935   1.783  11.057   4.099 -0.2687 -0.6162  0.1756
  152MOL0     C19936   1.682  11.049   4.187  0.3944  0.3389 -0.4067
  152MOL0     C19937   1.640  10.928   4.233  0.2124 -0.2732  0.2683
  152MOL0     C19938   1.523  10.931   4.309  0.3940 -0.3348  1.1102
  152MOL0     C19939   1.442  11.047   4.329 -0.0581  0.3070 -0.5519
  152MOL0     O19940   1.329  11.058   4.411  0.2171  0.7256 -0.4468
  152MOL0     C19941   1.207  11.006   4.346 -0.3032 -0.5717  0.4238
  152MOL0     C19942   1.086  11.035   4.434 -0.1111  0.6016 -0.0031
  152MOL0     C19943   1.056  11.192   4.428  0.2042  0.7804 -0.8703
  152MOL0     C19944   0.944  11.232   4.526 -0.4279 -0.0818  0.1992
  152MOL0     C19945   0.895  11.376   4.486 -0.5096  0.3560 -0.6289
  152MOL0     C19946   0.792  11.425   4.591 -0.6212 -0.4190 -0.2778
  152MOL0     C19947   0.734  11.554   4.540  0.5355  0.2951 -0.4348
  152MOL0     C19948   0.585  11.566   4.581  0.2866 -0.1375  1.3362
  152MOL0     N19949   0.523  11.686   4.526  0.2728  0.0471 -0.0582
  152MOL0     C19950   0.461  11.696   4.407 -0.4281 -1.1537 -0.3233
  152MOL0     C19951   0.397  11.811   4.400  0.2187  0.0417  0.2050
  152MOL0     C19952   0.318  11.871   4.287 -0.4263  0.7873 -0.1193
  152MOL0     C19953   0.176  11.832   4.301  0.6597  0.0033 -0.3011
  152MOL0     C19954   0.090  11.872   4.186 -0.4524  1.1357  0.4715
  152MOL0     C19955  -0.063  11.863   4.209  0.6161  0.7521 -0.9509
  152MOL0     O19956  -0.126  11.840   4.077 -1.2513  0.0866  0.8327
  152MOL0     C19957  -0.256  11.846   4.050  0.6901 -0.7019 -0.2315
  152MOL0     C19958  -0.289  11.872   3.915 -0.4150  0.0179  0.2819
  152MOL0     C19959  -0.419  11.888   3.868  0.1310 -0.2815 -0.0049
  152MOL0     C19960  -0.524  11.886   3.959  0.6421 -0.3191  0.3142
  152MOL0     C19961  -0.654  11.928   3.906 -0.2336  0.3236  0.1241
  152MOL0     O19962  -0.763  11.883   3.969 -0.3428  0.1452 -0.2003
  152MOL0     C19963  -0.882  11.930   3.925  0.5225  0.0915 -0.1154
  152MOL0     C19964  -0.949  11.884   3.809  0.0442  0.7586 -0.2859
  152MOL0     C19965  -1.076  11.922   3.784 -0.1313 -0.0397  1.0118
  152MOL0     C19966  -1.136  12.032   3.857  0.4713 -0.2162  0.2123
  152MOL0     O19967  -1.267  12.056   3.811 -0.5821 -0.4249 -0.4211
  152MOL0     C19968  -1.315  12.192   3.815 -0.5403  1.4921  0.1274
  152MOL0     C19969  -1.458  12.181   3.756  0.3261 -0.2218 -0.5622
  152MOL0     C19970  -1.546  12.105   3.854 -0.0427 -0.3680  0.5728
  152MOL0     C19971  -1.681  12.058   3.788 -0.0267  0.0281 -0.0346
  152MOL0     C19972  -1.666  11.939   3.696 -1.1783  0.1735 -0.4250
  152MOL0     C19973  -1.603  11.811   3.764 -0.1151  0.0275  0.0181
  152MOL0     C19974  -1.673  11.754   3.884  0.4355  0.3291  1.0930
  152MOL0     C19975  -1.798  11.696   3.829  0.4411  0.0347 -0.1213
  152MOL0    Cl19976  -1.892  11.603   3.953  0.5164 -0.5189  0.1683
  152MOL0     C19977  -1.069  12.087   3.972  0.5544  0.3809 -0.1594
  152MOL0     C19978  -0.944  12.025   4.008  0.0133 -0.3483  0.3014
  152MOL0     O19979  -0.661  12.012   3.816 -0.3764  0.4814 -0.2693
  152MOL0     C19980  -0.492  11.839   4.092  0.0508  0.4310  0.2370
  152MOL0     C19981  -0.362  11.826   4.142 -0.2261  0.3822  0.5678
  152MOL0     N19982   0.430  11.876   4.518 -0.6370  0.6704  0.5630
  152MOL0     N19983   0.504  11.801   4.598 -0.7090  0.8775  0.6828
  152MOL0     C19984   1.480  11.161   4.264  0.5448  0.4811 -0.5269
  152MOL0     C19985   1.602  11.166   4.199 -0.0502  0.8756 -0.3222
  152MOL0     C19986   2.010  11.103   4.037 -1.3926 -0.9226  0.5143
  152MOL0     C19987   2.151  11.087   4.056  0.3292 -0.3264 -0.7137
  152MOL0     C19988   2.252  11.105   3.960 -0.6569 -0.2224  0.7989
  152MOL0     C19989   2.206  11.139   3.821 -0.1056  0.5153 -0.9992
  152MOL0     O19990   2.285  11.163   3.710  0.1783 -0.3789  0.5769
  152MOL0     C19991   2.422  11.183   3.748  0.2423  0.2485  0.4214
  152MOL0     C19992   2.492  11.235   3.630 -1.0763 -0.7968  0.2845
  152MOL0     C19993   2.649  11.252   3.639  0.8057 -0.5123 -0.1363
  152MOL0     C19994   2.702  11.320   3.511 -0.4314 -0.2133 -0.2303
  152MOL0     C19995   2.836  11.378   3.518 -0.4186  1.0469  1.2135
  152MOL0     C19996   2.947  11.417   3.512 -0.2703 -0.0280 -0.0036
  152MOL0     C19997   2.064  11.152   3.805  0.7963  0.6990  0.9325
  152MOL0     C19998   1.966  11.137   3.906 -1.0541  0.5460  0.0519
  152MOL0     H19999   1.683  10.831   4.209  1.0643  0.2011 -0.1654
  152MOL0     H20000   1.496  10.837   4.357 -0.6421 -1.5527 -1.6307
  152MOL0     H20001   1.222  10.899   4.326  1.4419 -0.2678 -0.1077
  152MOL0     H20002   1.196  11.053   4.248 -0.9097 -0.7823  0.3890
  152MOL0     H20003   1.119  11.008   4.534  1.1070  1.1315 -0.2449
  152MOL0     H20004   0.993  10.987   4.403 -0.2722 -0.3106  1.7931
  152MOL0     H20005   1.027  11.228   4.329  1.9164  0.6109 -1.4748
  152MOL0     H20006   1.149  11.245   4.451  0.4963  0.2980 -0.9312
  152MOL0     H20007   0.852  11.172   4.533 -0.5722 -0.1997 -1.9713
  152MOL0     H20008   0.989  11.235   4.626  2.1520 -0.7634 -0.8634
  152MOL0     H20009   0.852  11.358   4.387 -1.6717 -0.3744 -0.0182
  152MOL0     H20010   0.976  11.448   4.472  0.6605 -0.1077  2.8091
  152MOL0     H20011   0.838  11.427   4.690 -0.1545  0.1843 -0.4975
  152MOL0     H20012   0.711  11.352   4.586  0.2227 -1.3299 -1.0823
  152MOL0     H20013   0.784  11.639   4.587 -1.7617  0.3369  2.2240
  152MOL0     H20014   0.731  11.566   4.432  0.9634 -3.6326 -1.0101
  152MOL0     H20015   0.587  11.567   4.690  4.0740 -0.1051  1.3906
  152MOL0     H20016   0.542  11.471   4.548  0.9849  0.3540 -1.2773
  152MOL0     H20017   0.464  11.622   4.328 -1.9933 -2.1942  0.5484
  152MOL0     H20018   0.367  11.833   4.197 -0.4816 -0.1233  0.2230
  152MOL0     H20019   0.309  11.979   4.301 -0.4772  0.4443  3.9657
  152MOL0     H20020   0.133  11.873   4.393  4.7975  2.6897  0.7106
  152MOL0     H20021   0.169  11.725   4.323  0.4680  0.6398  3.4693
  152MOL0     H20022   0.120  11.973   4.158 -1.3884  0.7814 -2.0910
  152MOL0     H20023   0.104  11.811   4.096 -1.3625 -1.2595  1.8663
  152MOL0     H20024  -0.110  11.955   4.243 -2.6473 -1.6063  1.5363
  152MOL0     H20025  -0.083  11.786   4.284  0.6317  0.0932 -1.6021
  152MOL0     H20026  -0.210  11.882   3.842  0.6500 -1.4586  1.1769
  152MOL0     H20027  -0.446  11.916   3.766  1.8683 -3.4120 -1.4764
  152MOL0     H20028  -0.896  11.808   3.752 -1.1788 -0.6925  0.4452
  152MOL0     H20029  -1.132  11.885   3.699 -1.6545 -1.7668  2.6651
  152MOL0     H20030  -1.265  12.275   3.764 -0.6927  2.0168  0.8262
  152MOL0     H20031  -1.317  12.244   3.911  1.8423  1.4524  0.2620
  152MOL0     H20032  -1.441  12.121   3.666  1.4226  1.6629 -1.6520
  152MOL0     H20033  -1.506  12.278   3.744  0.4146 -0.0668  0.2539
  152MOL0     H20034  -1.566  12.177   3.934 -1.0249 -0.8087  0.7418
  152MOL0     H20035  -1.490  12.022   3.898 -0.4124 -0.7883  0.2607
  152MOL0     H20036  -1.755  12.030   3.863  0.7268  0.2558  0.8100
  152MOL0     H20037  -1.726  12.138   3.728 -3.8727 -2.0794 -0.2790
  152MOL0     H20038  -1.595  11.974   3.619 -1.4895  2.5518  0.2947
  152MOL0     H20039  -1.759  11.918   3.643 -0.4191  0.8656 -2.1055
  152MOL0     H20040  -1.498  11.833   3.782  0.6511 -0.6891 -3.0633
  152MOL0     H20041  -1.588  11.736   3.687 -1.0775 -0.1702  0.0101
  152MOL0     H20042  -1.620  11.668   3.927 -0.9155 -1.0757  0.0262
  152MOL0     H20043  -1.711  11.836   3.946  0.1104  3.0421 -2.4216
  152MOL0     H20044  -1.793  11.635   3.739 -1.0356  0.5211 -0.5613
  152MOL0     H20045  -1.860  11.779   3.797  0.3862  0.9469  2.1282
  152MOL0     H20046  -1.108  12.158   4.044 -0.0280 -2.0211  2.0503
  152MOL0     H20047  -0.899  12.041   4.106  2.7446 -3.7922 -0.2007
  152MOL0     H20048  -0.576  11.827   4.160  0.3461 -0.1354  0.5094
  152MOL0     H20049  -0.346  11.805   4.247  0.0435 -1.0615  0.2571
  152MOL0     H20050   1.425  11.254   4.258  1.5757  1.0602 -1.5504
  152MOL0     H20051   1.635  11.260   4.155 -2.4480  2.7444  1.6054
  152MOL0     H20052   2.170  11.070   4.162  0.9759 -1.6054 -1.0259
  152MOL0     H20053   2.357  11.114   3.982  0.4299 -0.9938 -3.2257
  152MOL0     H20054   2.471  11.085   3.746  2.3440  1.2499 -0.2377
  152MOL0     H20055   2.439  11.229   3.846 -2.7079  0.4395  0.9309
  152MOL0     H20056   2.471  11.165   3.549  0.9414 -2.3300  0.9852
  152MOL0     H20057   2.463  11.334   3.593  1.2841 -0.2457 -0.2829
  152MOL0     H20058   2.691  11.155   3.668  0.0384 -0.1988  2.2488
  152MOL0     H20059   2.674  11.319   3.722 -0.6200 -0.6762  0.4528
  152MOL0     H20060   2.707  11.255   3.423 -0.3363  2.3794 -2.2465
  152MOL0     H20061   2.631  11.399   3.484 -0.9576 -0.5668  0.0806
  152MOL0     H20062   3.041  11.466   3.527 -0.8768  1.5225 -1.0824
  152MOL0     H20063   2.031  11.175   3.704 -3.0964  1.2305  2.1574
  152MOL0     H20064   1.861  11.150   3.886 -1.1466  0.2169  0.3167
  153MOL0     O20065   2.940   9.140   9.588  0.9593 -0.3999  0.4483
  153MOL0     C20066   2.960   9.057   9.672  0.0282  0.1934  0.2702
  153MOL0     O20067   2.877   9.021   9.769 -0.5487  0.3258 -0.1413
  153MOL0     C20068   2.754   9.078   9.795 -0.2623 -0.3592  0.0195
  153MOL0     C20069   2.656   8.995   9.850 -0.5346 -0.4530 -0.7708
  153MOL0     C20070   2.530   9.052   9.877  0.4609 -0.3216  1.1981
  153MOL0     C20071   2.504   9.185   9.854  0.1242  0.2617 -0.7060
  153MOL0     O20072   2.375   9.234   9.867  0.1037  0.6218  0.1614
  153MOL0     C20073   2.354   9.304   9.987  0.4394 -1.2937 -0.4531
  153MOL0     C20074   2.202   9.319   9.998 -0.1902  0.3749 -0.3061
  153MOL0     C20075   2.132   9.179  10.024 -0.4680  0.1276  0.0325
  153MOL0     C20076   1.991   9.206  10.060  0.3905  0.2014  0.8056
  153MOL0     C20077   1.927   9.067  10.054  0.9877  1.1521  0.2657
  153MOL0     C20078   1.782   9.086  10.081 -0.1756  0.6201 -0.2265
  153MOL0     C20079   1.722   8.948  10.070  0.2688 -1.1656  0.7134
  153MOL0     C20080   1.589   8.929  10.137 -0.5629 -1.3907 -0.6369
  153MOL0     N20081   1.507   8.838  10.051 -0.2965 -0.4823 -0.6089
  153MOL0     C20082   1.502   8.700  10.062 -0.0847 -0.5643  0.0417
  153MOL0     C20083   1.416   8.656   9.977  0.1439 -0.2686  0.5515
  153MOL0     C20084   1.391   8.521   9.936  0.3449  0.4506  0.2936
  153MOL0     C20085   1.284   8.456  10.020 -0.1217 -0.2661  0.4929
  153MOL0     C20086   1.346   8.396  10.145 -0.0502 -1.1763 -0.7385
  153MOL0     C20087   1.268   8.299  10.228  0.9901  0.0360  0.2818
  153MOL0     O20088   1.161   8.366  10.287 -0.1956  0.5354 -0.3424
  153MOL0     C20089   1.072   8.295  10.355 -0.4646 -0.3650  0.0400
  153MOL0     C20090   1.102   8.169  10.419  0.3203  0.0027  0.4595
  153MOL0     C20091   1.003   8.099  10.486 -0.5604 -0.7281  0.0562
  153MOL0     C20092   0.868   8.152  10.490 -0.2846  0.1433  0.3818
  153MOL0     C20093   0.758   8.080  10.559  1.3453 -0.3824  0.2886
  153MOL0     O20094   0.633   8.128  10.536 -0.3691  0.0204 -0.1986
  153MOL0     C20095   0.528   8.043  10.495 -0.0465  1.0656  0.2910
  153MOL0     C20096   0.397   8.076  10.521  0.0436  0.0341  0.2777
  153MOL0     C20097   0.296   7.987  10.497 -0.2741  0.1181  0.3734
  153MOL0     C20098   0.323   7.867  10.414 -0.2288 -0.8398 -0.1797
  153MOL0     O20099   0.210   7.801  10.370 -0.6286  0.7607 -0.7529
  153MOL0     C20100   0.201   7.759  10.231 -1.1896 -0.0638  0.3296
  153MOL0     C20101   0.059   7.698  10.209 -0.0325 -0.0073  0.9696
  153MOL0     C20102  -0.051   7.802  10.190  0.6199 -0.2845 -0.0712
  153MOL0     C20103  -0.195   7.732  10.180 -0.3702  1.1538 -0.2172
  153MOL0     C20104  -0.312   7.835  10.191 -0.1579  0.1882  0.2719
  153MOL0     C20105  -0.446   7.776  10.137 -0.4848 -0.0329 -0.0370
  153MOL0     C20106  -0.519   7.703  10.246  0.5506  0.1557 -0.2354
  153MOL0     C20107  -0.666   7.673  10.191  0.3278 -0.1903 -0.2184
  153MOL0    Cl20108  -0.761   7.827  10.175  0.3550  0.3911 -0.3098
  153MOL0     C20109   0.452   7.834  10.389 -0.0299 -0.7378  0.2766
  153MOL0     C20110   0.549   7.920  10.438 -0.5800  0.0011  0.1399
  153MOL0     O20111   0.777   7.974  10.621 -0.7373 -0.3322  0.0258
  153MOL0     C20112   0.847   8.271  10.418  0.6320  0.6910  0.2113
  153MOL0     C20113   0.944   8.344  10.361 -0.6984 -0.7092 -0.8796
  153MOL0     N20114   1.359   8.772   9.921  0.1516  0.5937  0.6263
  153MOL0     N20115   1.417   8.875   9.956 -0.2872  0.3820 -0.3157
  153MOL0     C20116   2.603   9.271   9.803  0.1783  0.8172 -0.0310
  153MOL0     C20117   2.730   9.218   9.780 -0.9197  0.2262 -0.5591
  153MOL0     C20118   3.090   8.978   9.654 -0.0534 -0.2417  0.3462
  153MOL0     C20119   3.186   8.997   9.548 -0.7992  0.0813  0.0812
  153MOL0     C20120   3.293   8.917   9.533  0.1086  0.6662 -1.2118
  153MOL0     C20121   3.311   8.801   9.617  0.3419 -1.4103  0.2058
  153MOL0     O20122   3.415   8.723   9.598 -0.5441  0.0144 -0.5001
  153MOL0     C20123   3.519   8.749   9.695  0.0142 -0.1757  0.8673
  153MOL0     C20124   3.647   8.688   9.639 -0.1721 -0.9775  0.0652
  153MOL0     C20125   3.778   8.733   9.712 -0.9288  0.0895 -0.5738
  153MOL0     C20126   3.902   8.652   9.641  0.7369 -0.5034 -0.4182
  153MOL0     C20127   4.018   8.653   9.730  0.0374 -0.1809 -0.4251
  153MOL0     C20128   4.121   8.639   9.790  0.3936  0.2516  0.0447
  153MOL0     C20129   3.210   8.777   9.708 -1.1126  0.1604 -0.7630
  153MOL0     C20130   3.103   8.871   9.734 -0.1716 -0.9625  0.3579
  153MOL0     H20131   2.681   8.890   9.865  1.3738  0.4223  3.9873
  153MOL0     H20132   2.449   8.989   9.912 -1.8766  1.1711 -1.1253
  153MOL0     H20133   2.402   9.401   9.975 -4.0953  1.0576 -2.1530
  153MOL0     H20134   2.401   9.246  10.067  2.0935 -2.0189 -1.8976
  153MOL0     H20135   2.157   9.371   9.913  0.5863 -1.3397 -1.8341
  153MOL0     H20136   2.174   9.372  10.090 -2.6116  1.8258 -1.7764
  153MOL0     H20137   2.185   9.121  10.099 -0.1976 -0.1939 -0.3990
  153MOL0     H20138   2.136   9.124   9.929  0.3499  1.1086 -0.5257
  153MOL0     H20139   1.992   9.254  10.158  1.7906  0.4466  0.6943
  153MOL0     H20140   1.935   9.266   9.986 -0.3776  0.1784  1.3612
  153MOL0     H20141   1.973   9.000  10.127 -0.5371  0.1835  0.3891
  153MOL0     H20142   1.939   9.036   9.951  1.4239  1.5315  0.1990
  153MOL0     H20143   1.730   9.157  10.016 -2.3520  0.3463  1.0901
  153MOL0     H20144   1.769   9.112  10.187 -1.0939 -2.9452  0.6707
  153MOL0     H20145   1.709   8.931   9.962  0.5512 -1.9244  0.7911
  153MOL0     H20146   1.781   8.867  10.115  0.1695 -1.8133 -0.2877
  153MOL0     H20147   1.544   9.026  10.159  1.0274 -0.9928  1.0689
  153MOL0     H20148   1.626   8.886  10.230 -1.4930  2.2718  1.6580
  153MOL0     H20149   1.584   8.645  10.108  1.8108  2.6654  0.8785
  153MOL0     H20150   1.488   8.469   9.937 -0.0002 -0.3131  3.1547
  153MOL0     H20151   1.334   8.519   9.843 -3.1639 -0.7769  2.2944
  153MOL0     H20152   1.234   8.375   9.965 -1.7792  1.8285 -1.2661
  153MOL0     H20153   1.203   8.527  10.036  0.7381  1.0588 -0.8304
  153MOL0     H20154   1.437   8.349  10.109  0.2788 -0.0129 -1.5160
  153MOL0     H20155   1.371   8.482  10.208 -1.4358 -1.7778  0.6888
  153MOL0     H20156   1.332   8.254  10.305  1.5380  0.2403 -0.0482
  153MOL0     H20157   1.234   8.217  10.165 -3.1740  1.3281  0.5428
  153MOL0     H20158   1.195   8.114  10.414  0.4669  0.3713 -1.3736
  153MOL0     H20159   1.028   8.009  10.541  0.2275 -0.3694  0.2940
  153MOL0     H20160   0.374   8.172  10.567  0.6936  0.4847 -0.3043
  153MOL0     H20161   0.192   8.007  10.522 -0.6942 -0.0696 -1.0994
  153MOL0     H20162   0.283   7.686  10.226  0.4061  1.6977 -0.1075
  153MOL0     H20163   0.220   7.836  10.156  0.2363 -0.3986  0.3281
  153MOL0     H20164   0.041   7.635  10.296 -1.7804  0.6731  1.1349
  153MOL0     H20165   0.066   7.627  10.126 -0.7686  1.6585 -0.5963
  153MOL0     H20166  -0.027   7.874  10.110  0.0019 -1.8979 -1.7895
  153MOL0     H20167  -0.056   7.861  10.282 -1.3335  1.3019 -1.1281
  153MOL0     H20168  -0.201   7.672  10.089 -2.8926  0.7521  0.1287
  153MOL0     H20169  -0.203   7.655  10.257 -0.2900 -1.1973 -2.4446
  153MOL0     H20170  -0.293   7.929  10.138 -1.5685  1.3219  1.6913
  153MOL0     H20171  -0.327   7.858  10.297 -2.3445  3.7269 -0.6120
  153MOL0     H20172  -0.437   7.694  10.065  1.2850  1.1477 -1.2387
  153MOL0     H20173  -0.498   7.862  10.095  2.4730  3.4468  2.7537
  153MOL0     H20174  -0.459   7.620  10.284  1.4888  0.4839 -0.9572
  153MOL0     H20175  -0.543   7.778  10.322 -0.0825  0.1012 -0.3794
  153MOL0     H20176  -0.720   7.605  10.258 -2.0406  2.6912  1.0152
  153MOL0     H20177  -0.662   7.623  10.094 -0.1507 -0.3570 -0.1545
  153MOL0     H20178   0.463   7.743  10.331 -1.1171 -1.2591  0.8722
  153MOL0     H20179   0.651   7.885  10.442  0.2634  2.0522  5.2951
  153MOL0     H20180   0.744   8.301  10.404  0.7970  0.5869 -1.4433
  153MOL0     H20181   0.910   8.422  10.293  0.7837 -0.3452 -1.2312
  153MOL0     H20182   2.592   9.378   9.814 -1.5419  0.4807  2.2582
  153MOL0     H20183   2.812   9.278   9.744  0.0444 -1.2398 -0.8650
  153MOL0     H20184   3.188   9.084   9.482 -0.2054 -0.5848 -0.7921
  153MOL0     H20185   3.372   8.956   9.469  2.2402 -1.3804 -0.0257
  153MOL0     H20186   3.498   8.695   9.788  0.1966  0.2960  1.1848
  153MOL0     H20187   3.531   8.856   9.710 -0.6023  0.3812 -2.1143
  153MOL0     H20188   3.643   8.580   9.628 -1.1788 -0.8024 -1.8732
  153MOL0     H20189   3.662   8.729   9.538 -0.1335  1.5335  1.0129
  153MOL0     H20190   3.790   8.702   9.816  0.7753  2.1956 -0.0710
  153MOL0     H20191   3.787   8.841   9.699 -2.0200  0.5121  1.7021
  153MOL0     H20192   3.879   8.547   9.620  1.0937 -0.2128 -2.4952
  153MOL0     H20193   3.914   8.696   9.541 -0.2015  1.0229  0.1110
  153MOL0     H20194   4.218   8.633   9.835  1.0358  3.2944 -0.6918
  153MOL0     H20195   3.224   8.693   9.776  0.9050  0.5783 -0.6028
  153MOL0     H20196   3.037   8.856   9.818  1.0554 -3.0162  1.0308
  154MOL0     O20197   8.867   3.128   6.871  0.9072  1.5356 -0.0518
  154MOL0     C20198   8.863   3.245   6.898  0.2398  0.1303  0.8419
  154MOL0     O20199   8.756   3.328   6.910 -0.3895 -0.8715 -0.8043
  154MOL0     C20200   8.639   3.250   6.910  0.1148  0.1793  0.8624
  154MOL0     C20201   8.542   3.256   6.804 -0.5092 -0.3448  0.1159
  154MOL0     C20202   8.416   3.203   6.825 -0.7093  0.2964 -0.1196
  154MOL0     C20203   8.378   3.133   6.946 -0.1871 -0.3115  0.1444
  154MOL0     O20204   8.245   3.104   6.960 -0.4822 -1.1976 -0.7723
  154MOL0     C20205   8.193   3.075   7.094 -0.3244  0.5261  0.4437
  154MOL0     C20206   8.038   3.064   7.093  0.3078  0.3378 -0.1646
  154MOL0     C20207   7.973   3.203   7.052 -0.2000  0.4507 -0.8966
  154MOL0     C20208   7.828   3.186   7.020  0.1202  0.5521 -0.7770
  154MOL0     C20209   7.758   3.316   6.998 -0.0169  0.1924  1.2518
  154MOL0     C20210   7.617   3.293   6.937 -0.7454 -0.3530  0.0312
  154MOL0     C20211   7.560   3.409   6.856  0.0311  0.0893  0.2721
  154MOL0     C20212   7.403   3.406   6.867 -0.6276  0.2769  0.0648
  154MOL0     N20213   7.317   3.478   6.769 -0.8427  0.0524  0.7851
  154MOL0     C20214   7.181   3.462   6.751  0.4355  1.0706  0.1162
  154MOL0     C20215   7.140   3.537   6.648  0.3642  1.2834  0.6739
  154MOL0     C20216   7.001   3.541   6.595  0.1259 -0.0142 -0.9152
  154MOL0     C20217   6.932   3.660   6.675  0.6608 -0.5748 -0.3026
  154MOL0     C20218   6.783   3.661   6.629  0.1400 -0.0938 -0.1555
  154MOL0     C20219   6.719   3.801   6.655 -0.2333  0.4749 -0.8834
  154MOL0     O20220   6.592   3.817   6.586  0.2013 -0.1619  0.5929
  154MOL0     C20221   6.466   3.796   6.635 -0.4219 -0.0667 -0.8786
  154MOL0     C20222   6.360   3.812   6.556  0.7785  0.2660 -0.5024
  154MOL0     C20223   6.230   3.806   6.606  0.1200 -0.6546 -0.5218
  154MOL0     C20224   6.207   3.797   6.749  0.8209 -0.3828  0.3381
  154MOL0     C20225   6.074   3.839   6.808  0.3396  0.2762 -0.0442
  154MOL0     O20226   6.015   3.947   6.754  0.6441 -0.1199  0.7624
  154MOL0     C20227   5.904   3.993   6.813  0.7878 -0.7414 -0.8057
  154MOL0     C20228   5.790   4.011   6.738  0.5151 -0.2414  0.3162
  154MOL0     C20229   5.671   4.044   6.800  0.7582 -0.3255  0.7002
  154MOL0     C20230   5.661   4.067   6.935  0.4519 -0.2128  0.2702
  154MOL0     O20231   5.546   4.125   6.991  0.4215 -0.0554  0.0915
  154MOL0     C20232   5.512   4.076   7.125 -1.0731 -0.8903  0.0800
  154MOL0     C20233   5.360   4.054   7.134 -0.2221 -1.1017  0.3226
  154MOL0     C20234   5.313   4.003   7.274  0.1623 -0.2942  0.0996
  154MOL0     C20235   5.202   4.096   7.331  0.2463 -0.6298 -0.4697
  154MOL0     C20236   5.177   4.030   7.473  0.6112  0.3206  0.8467
  154MOL0     C20237   5.061   4.095   7.560 -0.0208  0.2929 -0.6337
  154MOL0     C20238   5.051   4.250   7.545  0.7057 -0.0538 -0.0929
  154MOL0     C20239   5.180   4.328   7.592  0.4523  0.4193  0.5355
  154MOL0    Cl20240   5.154   4.503   7.552  0.1790  0.1641  0.3176
  154MOL0     C20241   5.779   4.066   7.007 -0.6726 -0.2215  0.4021
  154MOL0     C20242   5.900   4.028   6.944  0.1552 -0.8281  0.5564
  154MOL0     O20243   6.044   3.789   6.914 -0.1167 -0.0798  0.3916
  154MOL0     C20244   6.318   3.779   6.828 -0.7020 -1.0742 -0.0835
  154MOL0     C20245   6.447   3.771   6.774 -0.5199 -0.4235  0.4862
  154MOL0     N20246   7.255   3.603   6.600 -0.1202  0.0297 -0.6686
  154MOL0     N20247   7.359   3.553   6.663 -0.4516  0.3468 -0.1145
  154MOL0     C20248   8.476   3.129   7.047 -0.0509  0.1442  0.7593
  154MOL0     C20249   8.604   3.186   7.026 -0.6924 -1.2006 -0.4449
  154MOL0     C20250   8.999   3.309   6.890  0.0700 -0.1804 -0.0130
  154MOL0     C20251   9.117   3.230   6.890  1.0469 -0.1441  0.8612
  154MOL0     C20252   9.249   3.272   6.890 -0.9189 -1.2933 -0.5272
  154MOL0     C20253   9.263   3.408   6.861 -0.4024 -0.6499 -0.3226
  154MOL0     O20254   9.379   3.468   6.828 -0.2542  0.4259  0.3467
  154MOL0     C20255   9.498   3.392   6.813  0.4195 -1.0536 -0.6100
  154MOL0     C20256   9.574   3.383   6.951  0.3843 -0.3677  0.8157
  154MOL0     C20257   9.719   3.352   6.941  0.8850  0.4049 -0.0998
  154MOL0     C20258   9.810   3.475   6.958  0.4491 -0.5837 -0.5665
  154MOL0     C20259   9.948   3.444   6.999  0.0375  0.1594 -0.6202
  154MOL0     C20260  10.065   3.430   7.027  0.4649 -0.1866  0.7831
  154MOL0     C20261   9.146   3.495   6.868  0.3966  0.7634  0.9549
  154MOL0     C20262   9.015   3.446   6.877  0.8437 -0.0929  0.5437
  154MOL0     H20263   8.567   3.300   6.708  1.5640 -0.1118  0.7021
  154MOL0     H20264   8.347   3.211   6.742  1.2454  0.0366 -1.8607
  154MOL0     H20265   8.226   3.147   7.170  2.0006 -0.1362  0.1344
  154MOL0     H20266   8.232   2.981   7.133 -1.0363  0.0506  0.0319
  154MOL0     H20267   8.011   3.032   7.194  1.9472  1.5918  0.7268
  154MOL0     H20268   7.990   2.992   7.026 -2.6725 -0.6682  2.7280
  154MOL0     H20269   8.010   3.246   6.959  0.4228  2.3069  0.1554
  154MOL0     H20270   7.989   3.283   7.125  1.0998 -0.1706 -0.4736
  154MOL0     H20271   7.820   3.123   6.931  3.9079  0.9394 -1.5409
  154MOL0     H20272   7.772   3.128   7.095 -1.3582 -0.0137 -2.2572
  154MOL0     H20273   7.812   3.371   6.920 -1.0763 -0.6945 -0.1671
  154MOL0     H20274   7.762   3.386   7.082  3.9392 -0.1185  1.4837
  154MOL0     H20275   7.551   3.263   7.019  1.9460 -1.2273  1.9917
  154MOL0     H20276   7.615   3.216   6.859 -1.2174 -0.6995  0.3771
  154MOL0     H20277   7.583   3.501   6.911  0.3300 -0.4382  1.0396
  154MOL0     H20278   7.590   3.417   6.752  0.5155  1.4295  0.4959
  154MOL0     H20279   7.386   3.436   6.971  4.2778 -0.5314  1.3642
  154MOL0     H20280   7.373   3.302   6.854 -3.0020  1.1368 -1.8682
  154MOL0     H20281   7.124   3.394   6.814  0.7219  2.4581  1.9625
  154MOL0     H20282   6.940   3.451   6.608 -0.5736  0.4431 -0.9853
  154MOL0     H20283   7.010   3.570   6.490 -0.1301 -0.7977 -1.1574
  154MOL0     H20284   6.982   3.753   6.647  0.7762 -0.7187 -0.5774
  154MOL0     H20285   6.938   3.644   6.783 -0.1477 -1.7380 -0.4110
  154MOL0     H20286   6.767   3.627   6.527 -3.4719 -0.6819  0.4646
  154MOL0     H20287   6.747   3.577   6.690  0.3722  0.5005  0.8326
  154MOL0     H20288   6.785   3.878   6.614 -0.7278  1.2125 -0.3237
  154MOL0     H20289   6.712   3.831   6.760  3.3841 -1.6982  0.1457
  154MOL0     H20290   6.386   3.842   6.455  1.1569 -0.2593 -0.5644
  154MOL0     H20291   6.142   3.809   6.542  0.6516 -2.3086 -1.3793
  154MOL0     H20292   5.780   3.994   6.631  2.1747 -1.2568  0.2734
  154MOL0     H20293   5.583   4.058   6.736 -0.1680 -0.5737  1.8887
  154MOL0     H20294   5.543   4.151   7.198 -1.9686  2.7848 -3.0276
  154MOL0     H20295   5.565   3.981   7.136  2.5410  0.7051 -2.1189
  154MOL0     H20296   5.324   4.000   7.046 -0.3144  1.5987 -1.4244
  154MOL0     H20297   5.323   4.157   7.129  2.2676 -0.1407 -3.2744
  154MOL0     H20298   5.400   3.994   7.340  1.5637  0.1526 -1.6156
  154MOL0     H20299   5.271   3.903   7.257  1.1321 -0.6546 -0.2330
  154MOL0     H20300   5.244   4.197   7.339  1.4294 -1.1787  0.5236
  154MOL0     H20301   5.121   4.084   7.259  0.0347 -0.5627 -0.2431
  154MOL0     H20302   5.267   4.024   7.535 -0.3414  0.5539  2.3038
  154MOL0     H20303   5.163   3.924   7.450  2.7009  0.4778 -1.6788
  154MOL0     H20304   5.075   4.074   7.667  1.6096  1.2466 -0.6338
  154MOL0     H20305   4.966   4.050   7.530  0.4589 -0.8261 -0.4940
  154MOL0     H20306   5.043   4.265   7.437 -1.9285  2.7086  0.3564
  154MOL0     H20307   4.959   4.298   7.579  1.3840  3.0196 -2.1784
  154MOL0     H20308   5.272   4.281   7.555 -0.5680 -0.6730 -0.7053
  154MOL0     H20309   5.172   4.307   7.699  0.3389 -0.6456  0.3270
  154MOL0     H20310   5.778   4.095   7.111  0.1417 -0.5741  0.5108
  154MOL0     H20311   5.990   4.016   7.004 -0.7940 -2.9829  1.7031
  154MOL0     H20312   6.299   3.791   6.935 -1.1795 -4.2580  0.2794
  154MOL0     H20313   6.530   3.751   6.842  0.1482  2.0887  0.5019
  154MOL0     H20314   8.463   3.095   7.149  0.2446  2.3451  1.5811
  154MOL0     H20315   8.670   3.181   7.112 -2.1068 -1.5985  0.6503
  154MOL0     H20316   9.104   3.123   6.902 -2.3030  0.2769  2.1673
  154MOL0     H20317   9.322   3.193   6.903  0.8108  0.5757  2.1179
  154MOL0     H20318   9.561   3.435   6.734 -0.3215 -0.0127 -0.6524
  154MOL0     H20319   9.477   3.286   6.795  1.1345 -1.6580  1.7453
  154MOL0     H20320   9.568   3.476   7.010 -1.4487 -0.3529  0.6544
  154MOL0     H20321   9.528   3.300   7.005  0.2121 -2.3888 -2.2104
  154MOL0     H20322   9.747   3.293   6.853  0.4836  0.0399  0.0140
  154MOL0     H20323   9.751   3.279   7.016  0.6109  0.0434 -0.3307
  154MOL0     H20324   9.816   3.530   6.864  0.1538  1.9450  0.8144
  154MOL0     H20325   9.768   3.534   7.040  0.5436 -0.2580 -0.7531
  154MOL0     H20326  10.172   3.426   7.029  0.4843 -1.4247 -0.8837
  154MOL0     H20327   9.154   3.602   6.849  1.4464  0.3797 -1.0442
  154MOL0     H20328   8.922   3.503   6.884  1.6330  1.2360  0.5838
  155MOL0     O20329   2.606   2.535   0.523  0.2396 -0.1018  0.3244
  155MOL0     C20330   2.644   2.482   0.418 -0.0178 -0.0747 -0.2965
  155MOL0     O20331   2.577   2.479   0.298 -0.2868  0.0451  0.0710
  155MOL0     C20332   2.442   2.490   0.276  0.0083 -0.2984 -0.2825
  155MOL0     C20333   2.400   2.514   0.141  0.8724 -0.5275  0.0465
  155MOL0     C20334   2.262   2.523   0.109 -0.4364 -0.6504  0.2615
  155MOL0     C20335   2.171   2.505   0.216 -0.1646  0.0699  0.0075
  155MOL0     O20336   2.035   2.505   0.208 -0.5484  1.1333  0.2322
  155MOL0     C20337   1.973   2.552   0.088  0.0090  0.6443 -0.8894
  155MOL0     C20338   1.842   2.620   0.149  0.3499  0.2139  0.3621
  155MOL0     C20339   1.799   2.757   0.073 -0.0520  0.3721 -0.1583
  155MOL0     C20340   1.653   2.804   0.117 -0.3426 -0.1198 -0.6626
  155MOL0     C20341   1.552   2.734   0.034  0.4676 -0.3430 -0.3019
  155MOL0     C20342   1.416   2.792   0.059 -0.3360  1.3681 -0.4934
  155MOL0     C20343   1.365   2.738   0.195 -0.0182 -0.2518 -0.3047
  155MOL0     C20344   1.211   2.749   0.205  0.4988 -0.7423 -0.9151
  155MOL0     N20345   1.142   2.861   0.149  0.3427 -0.2356  0.1486
  155MOL0     C20346   1.179   2.995   0.181 -0.2444  0.3210  0.7884
  155MOL0     C20347   1.136   3.067   0.074 -0.0427  0.4627  0.3617
  155MOL0     C20348   1.136   3.211   0.050 -0.8012  1.1265 -0.1251
  155MOL0     C20349   1.280   3.263   0.030 -0.7074  0.2794  0.5053
  155MOL0     C20350   1.273   3.417   0.025  0.0823  0.1499 -0.1668
  155MOL0     C20351   1.413   3.476   0.004 -0.4340  1.3633  0.4638
  155MOL0     O20352   1.472   3.516   0.134  0.4212  0.1663 -0.3184
  155MOL0     C20353   1.601   3.552   0.137  0.1887  0.2484 -0.3328
  155MOL0     C20354   1.657   3.570   0.260 -0.2273  0.2736 -0.7521
  155MOL0     C20355   1.789   3.617   0.277 -0.2843 -0.3329 -0.5076
  155MOL0     C20356   1.867   3.653   0.167  0.5328 -0.3293 -0.6096
  155MOL0     C20357   2.015   3.687   0.170  1.1083  0.4041  0.7319
  155MOL0     O20358   2.070   3.688   0.300 -0.2491 -0.9371  0.8265
  155MOL0     C20359   2.197   3.724   0.321 -0.4482 -0.6762  0.4705
  155MOL0     C20360   2.273   3.633   0.396  0.3112 -0.0957 -0.3202
  155MOL0     C20361   2.409   3.663   0.433  0.3061  0.4946  0.4340
  155MOL0     C20362   2.473   3.777   0.379 -0.5606  0.0172 -1.0008
  155MOL0     O20363   2.607   3.817   0.408  0.1739 -0.3128 -0.0557
  155MOL0     C20364   2.693   3.741   0.496 -0.0531 -0.2006  0.3072
  155MOL0     C20365   2.783   3.641   0.415 -0.4569 -0.5276  0.4873
  155MOL0     C20366   2.874   3.712   0.309  0.4345 -0.4497 -0.3225
  155MOL0     C20367   2.939   3.844   0.350 -0.1499  0.2313  0.3653
  155MOL0     C20368   3.082   3.821   0.413 -0.2340 -0.0609 -0.0365
  155MOL0     C20369   3.075   3.780   0.555 -0.1708  0.4085  0.3178
  155MOL0     C20370   3.207   3.780   0.633 -0.2685 -0.2652 -0.1704
  155MOL0     C20371   3.308   3.688   0.568 -0.3084  0.9003 -0.6192
  155MOL0    Cl20372   3.423   3.778   0.465  0.1384 -0.5108 -0.2369
  155MOL0     C20373   2.396   3.873   0.307 -0.3013  0.5882 -0.9349
  155MOL0     C20374   2.260   3.838   0.271 -0.6531 -1.0481 -0.0266
  155MOL0     O20375   2.081   3.700   0.065 -0.7120 -0.0794  0.0182
  155MOL0     C20376   1.797   3.648   0.044 -0.0179 -0.4190  0.3857
  155MOL0     C20377   1.675   3.595   0.027  0.1299  0.4414 -0.3352
  155MOL0     N20378   1.066   2.978  -0.015  0.4179 -0.4040 -0.3210
  155MOL0     N20379   1.076   2.855   0.035  0.5251 -0.1894  1.1317
  155MOL0     C20380   2.214   2.477   0.345  0.0004 -0.4208  0.0079
  155MOL0     C20381   2.347   2.486   0.382  0.7693  1.3499  0.0162
  155MOL0     C20382   2.776   2.414   0.416  0.7649 -0.3533 -0.0851
  155MOL0     C20383   2.834   2.363   0.296  0.2265 -0.3155  0.7363
  155MOL0     C20384   2.960   2.314   0.298 -0.6371  0.2399 -0.2521
  155MOL0     C20385   3.035   2.314   0.417 -1.0270  0.8398 -0.8486
  155MOL0     O20386   3.161   2.269   0.425 -0.1370  0.4247  0.0720
  155MOL0     C20387   3.230   2.225   0.308 -0.6062 -0.3524 -1.2474
  155MOL0     C20388   3.385   2.246   0.330  0.1741  0.0616 -0.0326
  155MOL0     C20389   3.469   2.177   0.219  0.2511 -0.1531 -0.1237
  155MOL0     C20390   3.614   2.156   0.263  1.1762  1.2948 -0.1134
  155MOL0     C20391   3.682   2.275   0.323  0.4098 -0.2789 -0.7570
  155MOL0     C20392   3.752   2.362   0.368 -0.1934 -0.7353 -0.4828
  155MOL0     C20393   2.981   2.359   0.532 -0.9973 -0.3304 -0.2123
  155MOL0     C20394   2.850   2.397   0.535  0.1991  0.5299 -0.1474
  155MOL0     H20395   2.475   2.536   0.066 -0.5736  3.2509 -0.4976
  155MOL0     H20396   2.227   2.553   0.010  5.2629  1.1180 -1.6059
  155MOL0     H20397   1.950   2.470   0.020  1.2608 -0.1208 -0.4236
  155MOL0     H20398   2.032   2.631   0.040  0.5468 -0.6194 -2.3597
  155MOL0     H20399   1.857   2.643   0.255  0.3683 -0.2035  0.4499
  155MOL0     H20400   1.766   2.544   0.130  0.3448  0.3947 -0.3648
  155MOL0     H20401   1.803   2.744  -0.036 -1.0701  0.0389 -0.1649
  155MOL0     H20402   1.865   2.838   0.105 -0.7775  0.7015  0.5277
  155MOL0     H20403   1.640   2.786   0.225 -0.5519  2.4251 -0.2066
  155MOL0     H20404   1.655   2.912   0.105 -2.9034 -0.0012 -0.5002
  155MOL0     H20405   1.550   2.629   0.064  0.5576 -0.1497  0.4211
  155MOL0     H20406   1.584   2.744  -0.070 -0.7652  2.2922 -0.5163
  155MOL0     H20407   1.352   2.749  -0.019 -0.4625  0.6835 -0.0243
  155MOL0     H20408   1.405   2.900   0.045  1.2007  1.3988 -1.6354
  155MOL0     H20409   1.388   2.632   0.207 -0.4162 -0.6405 -2.4887
  155MOL0     H20410   1.409   2.805   0.269 -3.9665  0.7708  1.4080
  155MOL0     H20411   1.187   2.750   0.311  1.7152  0.6478 -0.6129
  155MOL0     H20412   1.167   2.662   0.156  0.5067 -1.5834  0.5160
  155MOL0     H20413   1.226   3.035   0.270 -0.2296  0.3428  0.7710
  155MOL0     H20414   1.090   3.250   0.141 -2.1960  2.4685 -1.3542
  155MOL0     H20415   1.077   3.247  -0.035  1.5424  1.6271 -1.6340
  155MOL0     H20416   1.322   3.220  -0.062 -1.5840  0.0904  0.1728
  155MOL0     H20417   1.345   3.246   0.116  0.6441  2.5831  0.0163
  155MOL0     H20418   1.208   3.445  -0.060  1.6114 -2.0225 -2.1706
  155MOL0     H20419   1.238   3.439   0.126 -3.1340 -0.4437 -1.0263
  155MOL0     H20420   1.405   3.561  -0.064  3.0666  3.0843  1.9340
  155MOL0     H20421   1.476   3.403  -0.048 -0.0738  1.3534  0.9099
  155MOL0     H20422   1.604   3.542   0.350  0.6347  2.4801  0.5210
  155MOL0     H20423   1.841   3.615   0.372  1.5490 -0.7223 -1.4695
  155MOL0     H20424   2.221   3.541   0.419 -1.2960  0.1730 -2.5279
  155MOL0     H20425   2.474   3.596   0.489  1.1048  2.3356  1.8542
  155MOL0     H20426   2.626   3.688   0.565 -2.2263 -1.1323 -2.3238
  155MOL0     H20427   2.756   3.809   0.553 -0.7605  1.6825 -1.0741
  155MOL0     H20428   2.723   3.566   0.363  0.4574 -2.3394  1.9274
  155MOL0     H20429   2.855   3.591   0.481 -1.5719  0.2734  2.3955
  155MOL0     H20430   2.804   3.728   0.226 -1.3691 -0.6638  1.1125
  155MOL0     H20431   2.946   3.634   0.280  1.2308  0.3707 -0.5839
  155MOL0     H20432   2.969   3.890   0.255  0.2331 -2.4691 -0.9128
  155MOL0     H20433   2.891   3.922   0.409  0.1602  0.2412  0.6053
  155MOL0     H20434   3.136   3.916   0.409  0.1441 -0.3113 -0.9239
  155MOL0     H20435   3.133   3.747   0.352  1.4400  1.5861 -0.7425
  155MOL0     H20436   3.027   3.682   0.559 -2.8635  1.4780 -1.8724
  155MOL0     H20437   3.006   3.851   0.601  0.6812  0.9793  0.7405
  155MOL0     H20438   3.243   3.882   0.650  1.4140 -0.4983 -2.0397
  155MOL0     H20439   3.184   3.747   0.735  1.3353  1.1982  0.7119
  155MOL0     H20440   3.267   3.603   0.514 -1.7881 -0.2336  2.0694
  155MOL0     H20441   3.354   3.625   0.646 -1.9542 -3.5631 -2.9260
  155MOL0     H20442   2.452   3.959   0.274  2.1949 -1.3445 -2.0573
  155MOL0     H20443   2.203   3.908   0.212 -0.7091 -0.6259  0.5181
  155MOL0     H20444   1.840   3.695  -0.044 -2.1361  0.6675 -0.1285
  155MOL0     H20445   1.629   3.579  -0.070  1.7363 -0.0078 -1.0582
  155MOL0     H20446   2.135   2.464   0.418  0.5755 -0.0598  0.7103
  155MOL0     H20447   2.367   2.455   0.485 -0.8631 -2.4063 -0.6427
  155MOL0     H20448   2.774   2.361   0.205  0.8040 -3.6181  0.3254
  155MOL0     H20449   2.985   2.272   0.201 -2.8139  0.1644 -0.8542
  155MOL0     H20450   3.202   2.279   0.217 -0.7980 -1.2930 -1.7633
  155MOL0     H20451   3.205   2.119   0.294 -1.1440 -0.5915  1.0900
  155MOL0     H20452   3.413   2.352   0.335 -1.5587  0.5565 -0.2853
  155MOL0     H20453   3.404   2.205   0.429 -0.5097  1.0907  0.5354
  155MOL0     H20454   3.471   2.228   0.122  0.4354 -2.2019 -1.2612
  155MOL0     H20455   3.419   2.082   0.198 -1.2086  1.1630 -3.3794
  155MOL0     H20456   3.610   2.085   0.346 -1.6199 -1.0316 -2.0305
  155MOL0     H20457   3.673   2.109   0.183 -1.7011 -0.3346 -1.4344
  155MOL0     H20458   3.831   2.426   0.400 -2.8274  0.5925  4.2100
  155MOL0     H20459   3.032   2.342   0.626 -2.0392 -1.6963  0.1403
  155MOL0     H20460   2.805   2.415   0.632  1.0416  0.3362  0.2906
  156MOL0     O20461  10.995   1.874   4.902  0.3750 -0.9906 -0.3233
  156MOL0     C20462  11.007   1.990   4.858  0.0128  0.7051 -0.0783
  156MOL0     O20463  10.911   2.089   4.874 -0.0065  0.1076 -0.0457
  156MOL0     C20464  10.779   2.054   4.880  0.0738  0.3515 -0.1557
  156MOL0     C20465  10.700   2.140   4.955 -0.8768  0.4564 -0.2489
  156MOL0     C20466  10.570   2.118   4.970 -0.0766 -0.3689 -0.5313
  156MOL0     C20467  10.506   2.007   4.908 -0.5410  0.0211 -0.7762
  156MOL0     O20468  10.372   1.972   4.921 -0.1301  0.2708  0.1233
  156MOL0     C20469  10.283   2.068   4.871 -0.7653  0.4790 -0.1880
  156MOL0     C20470  10.148   2.014   4.844  0.1253  0.2771  0.4569
  156MOL0     C20471  10.080   1.961   4.975  0.0442 -0.2678  0.3255
  156MOL0     C20472   9.975   1.855   4.952 -0.0263 -0.3424  0.3380
  156MOL0     C20473   9.849   1.912   4.883 -0.2985  0.2743  0.0520
  156MOL0     C20474   9.735   1.809   4.871  0.2355  0.4032  0.0330
  156MOL0     C20475   9.694   1.746   5.005  0.6788 -0.0520  0.0476
  156MOL0     C20476   9.560   1.663   5.003 -0.2786 -0.2815  0.9388
  156MOL0     N20477   9.454   1.753   4.962  0.3069  0.2101  0.7629
  156MOL0     C20478   9.394   1.852   5.045  1.0136 -0.8782  0.5933
  156MOL0     C20479   9.290   1.899   4.967  0.1840  0.1182  0.4978
  156MOL0     C20480   9.177   1.998   4.994  0.5770  0.0716 -0.7100
  156MOL0     C20481   9.055   1.923   5.058 -0.2832 -0.8860  0.6993
  156MOL0     C20482   8.959   1.854   4.953  0.2607 -1.8879 -0.1281
  156MOL0     C20483   8.903   1.945   4.839 -0.5078 -0.0079 -0.0003
  156MOL0     O20484   8.799   2.036   4.882 -0.4021 -0.0529 -0.6828
  156MOL0     C20485   8.666   1.997   4.884 -0.0901 -0.3070  0.1337
  156MOL0     C20486   8.619   1.861   4.864 -0.1367 -0.4438  0.9028
  156MOL0     C20487   8.487   1.830   4.837 -0.7004  0.1306 -0.2003
  156MOL0     C20488   8.390   1.925   4.867 -0.0923 -0.1718 -0.4648
  156MOL0     C20489   8.243   1.891   4.855 -0.3659 -0.3195  0.1732
  156MOL0     O20490   8.151   1.991   4.869 -0.5684  0.8836  0.2539
  156MOL0     C20491   8.015   1.952   4.843  0.6258  0.4310  0.1764
  156MOL0     C20492   7.948   1.966   4.715  1.1079  0.0047  0.1087
  156MOL0     C20493   7.817   1.903   4.702 -0.6706  0.3041  0.4664
  156MOL0     C20494   7.741   1.867   4.811  0.4632  1.4810 -0.6187
  156MOL0     O20495   7.610   1.814   4.797  0.5534 -0.4997  0.0894
  156MOL0     C20496   7.511   1.920   4.805 -0.4066 -0.2499 -0.5716
  156MOL0     C20497   7.444   1.917   4.951  0.0634  0.2165  0.2911
  156MOL0     C20498   7.320   2.008   4.954  0.0494 -0.1199 -0.3960
  156MOL0     C20499   7.194   1.973   4.876  0.1542 -0.0411 -0.5322
  156MOL0     C20500   7.069   2.048   4.914 -0.1604  0.6911  0.6088
  156MOL0     C20501   7.084   2.203   4.928  0.6442 -0.1215 -0.2158
  156MOL0     C20502   6.953   2.270   4.979  0.8455 -0.2627  0.1572
  156MOL0     C20503   6.960   2.422   4.979  1.0270  1.7389 -0.2832
  156MOL0    Cl20504   6.792   2.493   5.002 -0.4517 -0.0024 -0.5072
  156MOL0     C20505   7.795   1.868   4.933  0.2128  0.0370 -0.3983
  156MOL0     C20506   7.934   1.903   4.949  0.9795  0.7487  0.0225
  156MOL0     O20507   8.221   1.774   4.833  0.3055 -0.4640  0.4868
  156MOL0     C20508   8.425   2.054   4.897 -0.6542 -0.7171 -0.3078
  156MOL0     C20509   8.560   2.092   4.900  0.2754  0.2681  0.4497
  156MOL0     N20510   9.284   1.829   4.846  0.5351  0.6826 -0.6864
  156MOL0     N20511   9.380   1.742   4.847 -0.4358 -1.3961  0.4707
  156MOL0     C20512  10.578   1.925   4.826 -0.5170  0.2502 -0.3511
  156MOL0     C20513  10.721   1.944   4.813 -1.1969 -0.0284 -0.1589
  156MOL0     C20514  11.135   2.027   4.806  0.0777 -0.5005  0.0630
  156MOL0     C20515  11.233   1.934   4.776  0.8274  0.9669  0.0810
  156MOL0     C20516  11.347   1.962   4.710  0.9001  0.2089  0.6469
  156MOL0     C20517  11.377   2.088   4.664  0.2557 -0.4118  0.0756
  156MOL0     O20518  11.490   2.129   4.610 -0.3079  0.0769  0.2492
  156MOL0     C20519  11.559   2.031   4.518  0.6817 -0.2876 -0.5546
  156MOL0     C20520  11.696   1.970   4.573 -0.3127 -1.2005 -0.6089
  156MOL0     C20521  11.805   2.072   4.559  0.1568 -0.0338 -0.8040
  156MOL0     C20522  11.929   2.004   4.618 -0.2396 -0.4820  0.3201
  156MOL0     C20523  12.056   2.074   4.592  0.4562 -0.0410 -0.4681
  156MOL0     C20524  12.160   2.127   4.565 -0.3406 -0.7305  0.5389
  156MOL0     C20525  11.284   2.192   4.698  0.7852  0.1992  0.1768
  156MOL0     C20526  11.162   2.161   4.768  0.4467 -0.6050 -0.2551
  156MOL0     H20527  10.756   2.220   5.002  0.7828  0.3510 -1.8925
  156MOL0     H20528  10.509   2.174   5.041 -0.0101 -1.3829  0.3489
  156MOL0     H20529  10.311   2.103   4.771 -1.4113 -0.9888 -0.9148
  156MOL0     H20530  10.279   2.152   4.940  1.5036 -0.1687  0.8363
  156MOL0     H20531  10.137   1.945   4.759  0.1265  2.0705 -1.0654
  156MOL0     H20532  10.077   2.092   4.813  0.6075  0.0458 -1.3183
  156MOL0     H20533  10.037   2.046   5.028 -2.2276 -0.8593 -0.4372
  156MOL0     H20534  10.152   1.915   5.043 -1.3294 -1.9788  0.7106
  156MOL0     H20535  10.028   1.777   4.897 -0.1318  0.3846 -0.8354
  156MOL0     H20536   9.940   1.819   5.049 -5.6553 -3.0329 -2.1965
  156MOL0     H20537   9.881   1.941   4.783 -0.1149  2.1624  0.6248
  156MOL0     H20538   9.819   2.003   4.936 -2.2140 -0.5603  0.5004
  156MOL0     H20539   9.762   1.728   4.802 -0.9777 -0.0188  0.0224
  156MOL0     H20540   9.648   1.857   4.825  0.8851 -0.4298 -2.1687
  156MOL0     H20541   9.767   1.675   5.046 -1.9466 -2.0351  1.6912
  156MOL0     H20542   9.688   1.827   5.078 -0.4492 -0.9623  1.0285
  156MOL0     H20543   9.540   1.614   5.099 -0.5454 -1.5421  0.2636
  156MOL0     H20544   9.567   1.584   4.928  2.1898  0.3375  0.4397
  156MOL0     H20545   9.431   1.892   5.139  2.4384 -0.3773 -0.1414
  156MOL0     H20546   9.162   2.059   4.905  2.5252  1.9345  0.1382
  156MOL0     H20547   9.198   2.070   5.074  0.5878  0.0819 -0.7219
  156MOL0     H20548   8.996   1.998   5.111 -0.1386  0.9834 -1.6521
  156MOL0     H20549   9.093   1.847   5.127  2.0018 -0.2553  0.2172
  156MOL0     H20550   9.012   1.771   4.907  0.2989 -0.9084 -1.9353
  156MOL0     H20551   8.878   1.815   5.016 -1.5368 -1.0655 -1.8025
  156MOL0     H20552   8.880   1.876   4.757  1.6645  0.5791 -1.1657
  156MOL0     H20553   8.980   2.013   4.803 -0.4582 -0.7579 -1.3737
  156MOL0     H20554   8.683   1.774   4.851 -0.1798 -0.6211  1.7638
  156MOL0     H20555   8.461   1.733   4.795  2.4065 -0.4793 -0.9689
  156MOL0     H20556   8.004   1.982   4.624  0.6838  0.8829 -0.0063
  156MOL0     H20557   7.789   1.884   4.599  0.2842  0.7876  0.1047
  156MOL0     H20558   7.434   1.885   4.737 -0.1612 -1.8022 -0.1014
  156MOL0     H20559   7.538   2.022   4.780  2.5694 -1.0742 -1.0946
  156MOL0     H20560   7.518   1.950   5.025  0.9937 -0.2397 -0.4193
  156MOL0     H20561   7.409   1.815   4.969 -1.0860  0.7825  1.3657
  156MOL0     H20562   7.356   2.108   4.927 -1.1578  0.0220 -1.6120
  156MOL0     H20563   7.289   2.025   5.057 -1.7006  2.8020 -1.2890
  156MOL0     H20564   7.222   2.005   4.776 -3.6947  2.4899 -1.0269
  156MOL0     H20565   7.177   1.864   4.880 -1.0569  0.0382 -2.4495
  156MOL0     H20566   7.027   2.018   5.011 -1.3910  2.2596  0.6019
  156MOL0     H20567   6.992   2.045   4.837  1.1456  1.1160 -0.7544
  156MOL0     H20568   7.108   2.245   4.830 -1.2654  1.2491 -0.1504
  156MOL0     H20569   7.158   2.224   5.006  1.0029 -0.0434 -0.5712
  156MOL0     H20570   6.870   2.236   4.917 -0.5677  1.1297  1.1992
  156MOL0     H20571   6.948   2.232   5.082 -1.3939 -1.6318 -0.3899
  156MOL0     H20572   6.997   2.451   4.880  1.5312  0.2297 -0.5502
  156MOL0     H20573   7.034   2.455   5.053  1.5816  3.0422 -1.3656
  156MOL0     H20574   7.736   1.823   5.012  1.2846  0.6460  0.7827
  156MOL0     H20575   7.984   1.903   5.044 -0.7836  0.2485  1.0011
  156MOL0     H20576   8.343   2.125   4.907 -2.4562 -2.4586 -1.8058
  156MOL0     H20577   8.600   2.190   4.924  1.8733 -0.6726  1.9309
  156MOL0     H20578  10.537   1.832   4.787  2.1311 -0.3664 -1.9195
  156MOL0     H20579  10.780   1.864   4.770 -2.6274 -1.2307  0.0595
  156MOL0     H20580  11.209   1.830   4.796 -2.0238  1.0512 -2.1733
  156MOL0     H20581  11.417   1.889   4.672 -0.2107 -0.8153  0.5105
  156MOL0     H20582  11.586   2.096   4.434  1.0431  2.1354  1.3077
  156MOL0     H20583  11.490   1.953   4.484  0.4398  1.1528 -3.7273
  156MOL0     H20584  11.693   1.945   4.679 -1.0499 -1.8066 -0.7605
  156MOL0     H20585  11.718   1.873   4.528 -1.4557 -0.8833 -1.9607
  156MOL0     H20586  11.760   2.157   4.612  0.6245 -1.2226  1.6331
  156MOL0     H20587  11.829   2.103   4.457 -0.2461  4.0807  0.1536
  156MOL0     H20588  11.916   2.013   4.727  2.4215 -0.8315  0.7527
  156MOL0     H20589  11.939   1.898   4.592  0.6807 -0.3186 -0.0406
  156MOL0     H20590  12.248   2.181   4.537  0.1770 -1.5160  0.6272
  156MOL0     H20591  11.294   2.292   4.655  0.0632  0.4742  0.6311
  156MOL0     H20592  11.089   2.237   4.792  2.4458  0.5345  2.6009
  157MOL0     O20593   7.392   3.087   1.105  0.4092  0.6004  0.2431
  157MOL0     C20594   7.458   3.005   1.167 -0.2227  0.3318 -0.2339
  157MOL0     O20595   7.412   2.881   1.224  0.5309 -0.1820 -0.6874
  157MOL0     C20596   7.276   2.867   1.233 -0.0139  0.2019 -0.0091
  157MOL0     C20597   7.215   2.754   1.177 -0.1867  1.1276 -0.2808
  157MOL0     C20598   7.070   2.748   1.187 -0.1891  1.2357  0.0517
  157MOL0     C20599   7.002   2.841   1.264  0.2403 -1.3051 -0.7948
  157MOL0     O20600   6.866   2.810   1.282  0.0223 -0.1713  0.5531
  157MOL0     C20601   6.781   2.919   1.303 -0.1234  0.4576  0.0807
  157MOL0     C20602   6.641   2.859   1.295  0.2920  0.1915  0.0003
  157MOL0     C20603   6.591   2.805   1.158 -0.7582  0.2680 -0.6238
  157MOL0     C20604   6.446   2.732   1.172  0.0094 -0.8559 -0.3630
  157MOL0     C20605   6.428   2.655   1.034  0.0968  1.1463 -0.2385
  157MOL0     C20606   6.306   2.567   1.031 -0.0539  0.4096  0.1979
  157MOL0     C20607   6.170   2.626   1.083  0.0218 -0.8663 -0.3452
  157MOL0     C20608   6.052   2.533   1.044 -0.3107  0.9235  0.1066
  157MOL0     N20609   5.935   2.601   1.103 -0.5440  0.4173  0.4767
  157MOL0     C20610   5.895   2.588   1.236 -0.1918 -0.5575  0.5431
  157MOL0     C20611   5.792   2.674   1.254 -0.4207 -0.6378 -0.8183
  157MOL0     C20612   5.706   2.682   1.389 -0.3733 -0.5544  0.2960
  157MOL0     C20613   5.575   2.621   1.354  0.3508 -0.9783 -0.3635
  157MOL0     C20614   5.515   2.596   1.501  0.0902  0.0646 -0.5358
  157MOL0     C20615   5.366   2.586   1.500  0.0259  0.1917 -0.1110
  157MOL0     O20616   5.320   2.474   1.427 -0.5053 -0.4468 -0.3874
  157MOL0     C20617   5.187   2.443   1.440  0.5066 -0.1667 -0.0358
  157MOL0     C20618   5.082   2.514   1.510  0.3323 -0.2185  0.1120
  157MOL0     C20619   4.948   2.478   1.484 -0.2101  0.2637 -0.4768
  157MOL0     C20620   4.916   2.362   1.410  0.9672 -0.9107  0.2976
  157MOL0     C20621   4.769   2.327   1.389  0.1763  0.3829  0.6231
  157MOL0     O20622   4.692   2.376   1.491 -0.3661  0.0296 -0.6696
  157MOL0     C20623   4.565   2.419   1.482 -0.1640 -0.5131  0.6032
  157MOL0     C20624   4.504   2.449   1.363 -0.1394  0.2579 -0.3245
  157MOL0     C20625   4.370   2.477   1.346  1.2170  0.2610 -0.0613
  157MOL0     C20626   4.295   2.499   1.464 -0.1835 -0.8688 -0.0272
  157MOL0     O20627   4.167   2.534   1.463  0.6238  0.1719 -0.5484
  157MOL0     C20628   4.089   2.587   1.351 -0.8620  0.6397  0.5471
  157MOL0     C20629   3.950   2.607   1.404  0.5920 -0.3605  0.2875
  157MOL0     C20630   3.851   2.648   1.295  0.2794  0.0525 -0.2332
  157MOL0     C20631   3.718   2.690   1.354 -1.2061  0.5120 -0.0222
  157MOL0     C20632   3.597   2.685   1.260 -0.5257 -0.4705  0.1798
  157MOL0     C20633   3.469   2.708   1.337  0.2422 -0.1492 -0.2728
  157MOL0     C20634   3.349   2.725   1.244  1.5701  0.3163  0.3579
  157MOL0     C20635   3.369   2.830   1.134 -0.1648  0.0273 -0.2932
  157MOL0    Cl20636   3.224   2.839   1.032 -0.2782  0.4210 -0.4408
  157MOL0     C20637   4.351   2.466   1.586 -0.2197 -0.6270  0.0412
  157MOL0     C20638   4.491   2.439   1.600  0.4569 -0.2484 -0.0101
  157MOL0     O20639   4.725   2.274   1.280 -0.5951  0.4555 -0.0932
  157MOL0     C20640   5.010   2.303   1.339 -0.9461  0.1103 -1.2961
  157MOL0     C20641   5.146   2.340   1.356  0.4629  0.4189 -0.0617
  157MOL0     N20642   5.777   2.738   1.129  0.5495 -0.3610  1.0386
  157MOL0     N20643   5.866   2.699   1.043  0.0330  0.4010  0.0020
  157MOL0     C20644   7.065   2.953   1.313  0.7914 -0.2750  0.8778
  157MOL0     C20645   7.198   2.968   1.298  0.0301  0.4539 -0.4890
  157MOL0     C20646   7.604   3.020   1.179 -0.3487 -0.3970 -0.2987
  157MOL0     C20647   7.685   3.090   1.096  0.1040 -0.1014 -0.1674
  157MOL0     C20648   7.823   3.091   1.104 -0.3078 -0.1746 -0.4256
  157MOL0     C20649   7.893   3.020   1.205  0.4989 -0.0856  0.1440
  157MOL0     O20650   8.027   3.032   1.215 -0.3888  0.4310 -0.6307
  157MOL0     C20651   8.103   3.013   1.100 -0.3821  0.2707 -1.0138
  157MOL0     C20652   8.228   3.099   1.100 -0.5319  0.2303  0.4094
  157MOL0     C20653   8.325   3.077   1.221  0.0182  0.1404  0.6509
  157MOL0     C20654   8.428   2.973   1.198 -0.1513 -0.1949  1.1897
  157MOL0     C20655   8.529   3.018   1.101  0.5573  0.7744  0.3925
  157MOL0     C20656   8.612   3.069   1.038 -0.4622 -0.3962  0.0939
  157MOL0     C20657   7.812   2.942   1.293  0.0297  0.0117 -0.3843
  157MOL0     C20658   7.669   2.946   1.284  0.1557 -0.8210 -1.2935
  157MOL0     H20659   7.278   2.681   1.128 -1.2826  2.1985 -3.5266
  157MOL0     H20660   7.022   2.659   1.148  1.0061  0.3512  0.5476
  157MOL0     H20661   6.789   3.002   1.231  2.4099  0.4873  0.2844
  157MOL0     H20662   6.798   2.962   1.402 -1.0793  0.0320  0.4332
  157MOL0     H20663   6.574   2.931   1.344  2.0748  0.8504  1.5701
  157MOL0     H20664   6.642   2.771   1.360  0.7599  1.4525  1.7623
  157MOL0     H20665   6.671   2.743   1.116  0.9585  1.1590  1.1681
  157MOL0     H20666   6.571   2.890   1.092  1.9504  0.7554 -0.9525
  157MOL0     H20667   6.451   2.660   1.255  3.7285  0.7902  1.0653
  157MOL0     H20668   6.360   2.796   1.192 -0.4942 -1.0839 -1.6975
  157MOL0     H20669   6.519   2.596   1.020  0.9127  1.4309  2.9693
  157MOL0     H20670   6.428   2.722   0.948  1.4760  0.0155 -1.1581
  157MOL0     H20671   6.333   2.471   1.076  0.2275 -1.8167 -4.2292
  157MOL0     H20672   6.289   2.542   0.926  0.0596 -0.5464  0.3973
  157MOL0     H20673   6.172   2.644   1.190 -1.7691 -1.2689 -0.2080
  157MOL0     H20674   6.158   2.725   1.038  0.5979  0.2581  1.8675
  157MOL0     H20675   6.049   2.430   1.080 -1.3554  0.7054 -0.5534
  157MOL0     H20676   6.057   2.523   0.935 -0.4156 -2.8213  0.2918
  157MOL0     H20677   5.944   2.528   1.313  1.0130 -3.2154 -2.0928
  157MOL0     H20678   5.704   2.782   1.434 -1.7807  0.8105 -2.4617
  157MOL0     H20679   5.752   2.620   1.465 -0.7158 -2.0789 -0.7037
  157MOL0     H20680   5.575   2.530   1.293  0.1609  0.0389 -1.9330
  157MOL0     H20681   5.510   2.699   1.311 -0.1023 -0.0421  1.9065
  157MOL0     H20682   5.548   2.496   1.529 -2.1900 -1.2594 -2.3165
  157MOL0     H20683   5.557   2.666   1.575  1.6468 -0.7885 -0.5577
  157MOL0     H20684   5.330   2.671   1.441  2.3345  1.1037 -0.3304
  157MOL0     H20685   5.324   2.593   1.601  0.6021  2.5738  0.0316
  157MOL0     H20686   5.090   2.607   1.566  2.2903  0.2810 -0.8935
  157MOL0     H20687   4.865   2.539   1.518 -0.1337  0.1454 -0.0715
  157MOL0     H20688   4.552   2.439   1.267 -1.6563 -1.6512 -0.9673
  157MOL0     H20689   4.325   2.496   1.249  0.1212  1.2482  0.6149
  157MOL0     H20690   4.090   2.510   1.274  0.1655 -0.8594  1.9890
  157MOL0     H20691   4.136   2.676   1.308  1.1950 -0.9626 -0.7038
  157MOL0     H20692   3.953   2.688   1.477 -2.5002  1.0595 -0.9801
  157MOL0     H20693   3.922   2.514   1.455  1.6634  0.4299  2.4462
  157MOL0     H20694   3.833   2.564   1.227  0.2318  1.2810 -1.7985
  157MOL0     H20695   3.891   2.736   1.244  0.6400 -0.7920 -1.4540
  157MOL0     H20696   3.701   2.617   1.434  0.6492 -1.0200 -0.9373
  157MOL0     H20697   3.736   2.782   1.409  1.1961 -0.1532  0.4057
  157MOL0     H20698   3.595   2.588   1.210  0.5623 -0.6809  0.5187
  157MOL0     H20699   3.608   2.769   1.190 -1.1850 -0.2327  0.3512
  157MOL0     H20700   3.477   2.804   1.389 -0.9250 -0.2468  0.1172
  157MOL0     H20701   3.445   2.627   1.407 -0.7319 -0.5994 -1.1053
  157MOL0     H20702   3.328   2.628   1.198  1.7420  0.1808  0.5625
  157MOL0     H20703   3.261   2.755   1.302 -0.4056  0.3639 -2.4170
  157MOL0     H20704   3.450   2.785   1.075  0.2991 -1.4514  1.3844
  157MOL0     H20705   3.388   2.932   1.168  1.3850 -0.3997  0.2014
  157MOL0     H20706   4.285   2.465   1.672  0.4321  2.0993  0.6550
  157MOL0     H20707   4.540   2.422   1.696 -5.6570 -1.2460  3.4602
  157MOL0     H20708   4.994   2.217   1.275 -3.9134 -1.2899  1.1087
  157MOL0     H20709   5.225   2.289   1.302 -0.2901 -1.0943  0.2127
  157MOL0     H20710   7.017   3.032   1.369  1.3925  1.0789 -0.4379
  157MOL0     H20711   7.240   3.056   1.346 -0.3633 -1.7376  4.6018
  157MOL0     H20712   7.631   3.144   1.019 -2.1001  2.2045  2.7568
  157MOL0     H20713   7.880   3.152   1.034 -0.7652  1.2991  0.4604
  157MOL0     H20714   8.042   3.026   1.010  1.2542  2.5455 -1.8795
  157MOL0     H20715   8.133   2.907   1.100 -2.1446 -0.3181 -3.6786
  157MOL0     H20716   8.270   3.071   1.003 -2.6580 -3.6513  0.4325
  157MOL0     H20717   8.194   3.203   1.094 -2.4348 -0.3841 -4.8733
  157MOL0     H20718   8.266   3.049   1.309  2.5601 -1.5887  1.9102
  157MOL0     H20719   8.376   3.172   1.236  2.0991 -0.8909  0.4429
  157MOL0     H20720   8.486   2.951   1.288  1.5797  1.2275  0.4850
  157MOL0     H20721   8.388   2.878   1.161  1.5671  0.2761 -2.3249
  157MOL0     H20722   8.687   3.123   0.984 -0.1045 -2.0165 -1.0878
  157MOL0     H20723   7.857   2.885   1.373 -2.8713  0.4458  1.7085
  157MOL0     H20724   7.613   2.889   1.357  1.8907  1.3359  1.9759
  158MOL0     O20725  10.366   6.320   0.174  0.2042 -0.2853 -0.1355
  158MOL0     C20726  10.380   6.437   0.211 -0.7463 -0.6360 -0.3570
  158MOL0     O20727  10.286   6.543   0.203 -0.0913  0.8118 -0.0914
  158MOL0     C20728  10.171   6.536   0.128  0.0513 -0.0597  0.0828
  158MOL0     C20729  10.064   6.612   0.168  0.6190 -0.4356 -0.4690
  158MOL0     C20730   9.945   6.620   0.098 -0.2893  0.2966  0.4275
  158MOL0     C20731   9.936   6.545  -0.022  0.3012  0.0950 -0.2495
  158MOL0     O20732   9.813   6.557  -0.081  0.4208  0.4543  0.2758
  158MOL0     C20733   9.787   6.471  -0.191 -0.5098 -0.5538 -0.9361
  158MOL0     C20734   9.632   6.446  -0.212 -0.1517 -0.2246 -0.3371
  158MOL0     C20735   9.606   6.336  -0.319  0.5655  0.2258 -0.1571
  158MOL0     C20736   9.461   6.316  -0.360 -0.0993 -0.8788 -0.6208
  158MOL0     C20737   9.441   6.193  -0.452  0.0968  0.1834 -0.0414
  158MOL0     C20738   9.307   6.175  -0.522  0.2293 -0.2900 -0.2608
  158MOL0     C20739   9.305   6.055  -0.613 -0.1267 -0.3543 -0.9693
  158MOL0     C20740   9.168   6.003  -0.649 -0.1630 -0.0546 -0.6932
  158MOL0     N20741   9.169   5.904  -0.756  0.2250  0.1295  0.1219
  158MOL0     C20742   9.234   5.782  -0.739 -0.3108  0.2203  0.1432
  158MOL0     C20743   9.206   5.707  -0.845  0.4249  0.9947 -0.6994
  158MOL0     C20744   9.248   5.563  -0.871  0.2293  0.0530 -0.5811
  158MOL0     C20745   9.391   5.562  -0.886 -0.8593 -0.0545  0.8078
  158MOL0     C20746   9.431   5.637  -1.014 -0.7052  0.3061 -0.0050
  158MOL0     C20747   9.571   5.624  -1.065  0.5143  0.6834 -0.6446
  158MOL0     O20748   9.644   5.697  -0.982  0.1541 -0.4621 -0.5019
  158MOL0     C20749   9.772   5.721  -1.010 -0.3853 -0.6219 -0.3730
  158MOL0     C20750   9.843   5.798  -0.909  0.1499  0.6285 -1.2505
  158MOL0     C20751   9.981   5.805  -0.913 -1.1910  0.4438  0.4297
  158MOL0     C20752  10.050   5.752  -1.029  0.6478  0.2751  0.2569
  158MOL0     C20753  10.199   5.786  -1.038  0.4796  0.0713  0.0856
  158MOL0     O20754  10.269   5.732  -1.140 -0.4123  0.2047  0.1905
  158MOL0     C20755  10.402   5.757  -1.145  0.0541  0.0393 -0.3668
  158MOL0     C20756  10.466   5.815  -1.254  0.2833 -0.9859 -0.0187
  158MOL0     C20757  10.603   5.836  -1.257  0.0403  0.5244 -0.7432
  158MOL0     C20758  10.680   5.799  -1.150 -0.5305 -0.3217 -0.0377
  158MOL0     O20759  10.812   5.820  -1.162  0.9279  0.0942 -0.0187
  158MOL0     C20760  10.879   5.724  -1.236 -0.1975 -0.4271  0.3392
  158MOL0     C20761  11.027   5.724  -1.177 -0.5201  0.1751  0.0601
  158MOL0     C20762  11.122   5.650  -1.279 -0.2023 -0.0857  0.0322
  158MOL0     C20763  11.259   5.701  -1.270 -0.3907  0.3031  0.1186
  158MOL0     C20764  11.343   5.641  -1.378  0.8139  0.4912  0.2764
  158MOL0     C20765  11.487   5.691  -1.345  0.0893  0.3053 -0.5305
  158MOL0     C20766  11.588   5.605  -1.413  0.5350  0.5770  0.1152
  158MOL0     C20767  11.720   5.644  -1.367 -0.6229 -0.2576  0.6414
  158MOL0    Cl20768  11.846   5.574  -1.477 -0.2793  0.0225 -0.1984
  158MOL0     C20769  10.621   5.740  -1.040 -0.5955 -0.3399 -0.4412
  158MOL0     C20770  10.484   5.718  -1.034  0.6556 -0.2591  0.4626
  158MOL0     O20771  10.250   5.832  -0.936  0.0736 -0.2228 -0.7178
  158MOL0     C20772   9.983   5.672  -1.124 -0.1050 -0.6243  0.1593
  158MOL0     C20773   9.843   5.668  -1.126  0.4008  0.0596 -0.0635
  158MOL0     N20774   9.128   5.781  -0.924 -0.3451 -0.5733  1.2062
  158MOL0     N20775   9.099   5.901  -0.877 -0.9778  0.5453 -0.7331
  158MOL0     C20776  10.044   6.469  -0.070 -0.6440 -0.0050  0.2359
  158MOL0     C20777  10.162   6.458   0.009  0.1874 -0.7813 -0.0597
  158MOL0     C20778  10.515   6.474   0.267  0.0616 -1.2075 -0.8962
  158MOL0     C20779  10.529   6.563   0.370 -0.2546  0.4931 -0.1386
  158MOL0     C20780  10.647   6.591   0.438  0.3907  0.0428  0.6302
  158MOL0     C20781  10.763   6.523   0.390  0.2479  0.7766 -0.0720
  158MOL0     O20782  10.892   6.560   0.448  1.2515  0.1762 -0.1049
  158MOL0     C20783  10.977   6.599   0.346 -0.3088 -0.3897  0.0392
  158MOL0     C20784  11.090   6.683   0.404  0.2712 -0.4263  0.1223
  158MOL0     C20785  11.036   6.799   0.491 -0.1496  0.5559 -0.4209
  158MOL0     C20786  11.133   6.922   0.497 -0.5664 -0.6817  0.0170
  158MOL0     C20787  11.072   7.029   0.569  0.0338 -0.5852 -0.1821
  158MOL0     C20788  11.004   7.098   0.638  0.1961 -0.0628  0.7070
  158MOL0     C20789  10.747   6.433   0.287 -0.8640 -0.6590 -0.3940
  158MOL0     C20790  10.626   6.401   0.233 -0.1558  0.0253 -0.0635
  158MOL0     H20791  10.056   6.662   0.264 -0.7499 -2.0223  0.2992
  158MOL0     H20792   9.856   6.671   0.133 -2.1007 -2.1024 -0.4724
  158MOL0     H20793   9.825   6.373  -0.162 -0.9842 -0.3318  0.5406
  158MOL0     H20794   9.843   6.506  -0.277 -1.2716  3.9339  0.1520
  158MOL0     H20795   9.582   6.537  -0.248  0.1534 -0.6409 -1.8976
  158MOL0     H20796   9.581   6.421  -0.118  1.5567  2.6442  1.4983
  158MOL0     H20797   9.641   6.240  -0.279 -1.0633  0.6285  2.5311
  158MOL0     H20798   9.673   6.361  -0.401  0.6628 -1.1095 -0.5029
  158MOL0     H20799   9.403   6.298  -0.269  2.1283  1.6143  1.4631
  158MOL0     H20800   9.432   6.409  -0.410  3.6209  1.2532  0.8106
  158MOL0     H20801   9.456   6.102  -0.394 -1.3820  0.9747  1.6574
  158MOL0     H20802   9.527   6.197  -0.519  2.6517 -0.9528  2.9183
  158MOL0     H20803   9.280   6.266  -0.577  1.9688 -1.3966 -3.1889
  158MOL0     H20804   9.228   6.153  -0.449 -0.0415 -0.3319 -0.5646
  158MOL0     H20805   9.354   6.080  -0.707  0.8573  0.4344 -0.2627
  158MOL0     H20806   9.357   5.971  -0.566 -3.1857 -1.4727  0.7303
  158MOL0     H20807   9.113   6.093  -0.678 -2.0556 -1.3381 -1.2087
  158MOL0     H20808   9.112   5.962  -0.564  4.2456 -1.4550  1.8857
  158MOL0     H20809   9.298   5.758  -0.655 -0.7394  3.2706  1.4643
  158MOL0     H20810   9.205   5.512  -0.958 -0.9493  0.2903 -0.1481
  158MOL0     H20811   9.229   5.492  -0.790 -1.4721  0.0387 -0.9554
  158MOL0     H20812   9.417   5.455  -0.889 -0.7992 -0.0664  1.5901
  158MOL0     H20813   9.448   5.605  -0.803 -0.4029  0.6445  0.1382
  158MOL0     H20814   9.367   5.599  -1.094  0.4667  1.5923 -1.6302
  158MOL0     H20815   9.408   5.742  -0.989 -0.7477  0.6404 -1.3880
  158MOL0     H20816   9.566   5.669  -1.165 -2.2474  1.0140 -0.4497
  158MOL0     H20817   9.602   5.519  -1.064  0.8711  0.7718 -1.5468
  158MOL0     H20818   9.793   5.841  -0.823  0.4035  0.5643 -1.0698
  158MOL0     H20819  10.038   5.869  -0.846  1.2084 -1.7096  0.5970
  158MOL0     H20820  10.410   5.837  -1.344  1.6470 -4.0582 -1.7678
  158MOL0     H20821  10.661   5.879  -1.338  4.6541  0.2312  2.0363
  158MOL0     H20822  10.876   5.732  -1.345  0.1869 -2.0344  0.1957
  158MOL0     H20823  10.832   5.627  -1.223  1.0332 -1.0242  0.4386
  158MOL0     H20824  11.038   5.686  -1.076  0.7830  3.2859  1.2155
  158MOL0     H20825  11.055   5.830  -1.181 -1.1945  0.4315  1.5429
  158MOL0     H20826  11.095   5.670  -1.383  0.9565 -0.8000 -0.4388
  158MOL0     H20827  11.110   5.543  -1.258  0.9084 -0.0933  0.7422
  158MOL0     H20828  11.252   5.810  -1.282  2.2681  0.5871  0.4581
  158MOL0     H20829  11.309   5.685  -1.174  2.8794  2.6160 -1.0047
  158MOL0     H20830  11.325   5.691  -1.474  2.1090  1.0577  0.2996
  158MOL0     H20831  11.332   5.533  -1.385  2.7900  0.3550 -2.5260
  158MOL0     H20832  11.509   5.696  -1.238  0.5481  1.8134 -0.6671
  158MOL0     H20833  11.493   5.794  -1.383 -1.1643 -0.2517 -2.4047
  158MOL0     H20834  11.561   5.500  -1.408  0.5477  0.6252  2.7197
  158MOL0     H20835  11.573   5.633  -1.518  0.6640  2.3690  0.5377
  158MOL0     H20836  11.751   5.616  -1.266  2.5040 -2.1079 -0.6750
  158MOL0     H20837  11.723   5.753  -1.364 -1.8014 -0.2221  0.9140
  158MOL0     H20838  10.695   5.704  -0.968 -0.7166  0.0982 -0.0896
  158MOL0     H20839  10.433   5.646  -0.971 -2.1788  1.3550  0.1721
  158MOL0     H20840  10.033   5.616  -1.202 -0.6081  0.9653 -1.3774
  158MOL0     H20841   9.790   5.618  -1.206  3.9189 -0.7545 -2.0578
  158MOL0     H20842  10.027   6.440  -0.173  0.4453  0.6793 -0.1543
  158MOL0     H20843  10.253   6.413  -0.029  0.3480 -0.0218 -0.5931
  158MOL0     H20844  10.441   6.614   0.407  0.7087  1.2129  1.2339
  158MOL0     H20845  10.648   6.663   0.519  0.4071 -1.7224  2.2766
  158MOL0     H20846  10.924   6.661   0.273  1.0509  1.1098  0.2631
  158MOL0     H20847  11.008   6.514   0.285  1.0181 -0.1814  0.3991
  158MOL0     H20848  11.165   6.622   0.456  2.2444  1.1185 -0.7492
  158MOL0     H20849  11.148   6.729   0.323  1.0626  0.1603  1.0085
  158MOL0     H20850  11.023   6.761   0.593 -3.5903  2.5361  0.0726
  158MOL0     H20851  10.939   6.825   0.447  0.3397  0.9584 -1.2964
  158MOL0     H20852  11.230   6.886   0.532  0.1770  1.2931  0.1355
  158MOL0     H20853  11.147   6.963   0.396  1.6557  2.9331  1.5701
  158MOL0     H20854  10.930   7.140   0.703 -1.3311 -2.7410  0.8323
  158MOL0     H20855  10.829   6.383   0.236 -0.7284  0.2719 -1.1128
  158MOL0     H20856  10.627   6.324   0.157  3.4827 -3.1066  2.7800
  159MOL0     O20857   4.597   4.451   1.099  0.6645  0.2554  0.1814
  159MOL0     C20858   4.577   4.561   1.143  0.3405  0.3904  0.3424
  159MOL0     O20859   4.451   4.624   1.157  0.2129 -0.0079 -0.7108
  159MOL0     C20860   4.329   4.563   1.117 -0.8588  0.3472 -0.7290
  159MOL0     C20861   4.293   4.438   1.164  0.1059 -0.0485  0.4448
  159MOL0     C20862   4.167   4.382   1.128  0.8037  0.1561 -0.1599
  159MOL0     C20863   4.094   4.436   1.027 -0.4475  0.4059 -0.4568
  159MOL0     O20864   3.973   4.382   0.970 -0.1943 -0.1046 -0.2580
  159MOL0     C20865   3.932   4.249   1.008 -0.0813 -0.0716  0.2134
  159MOL0     C20866   3.788   4.226   0.967  0.1068 -0.3329  0.0685
  159MOL0     C20867   3.696   4.326   1.029 -0.0731 -0.4023  0.4766
  159MOL0     C20868   3.549   4.320   0.998 -0.3913 -0.8228 -0.3128
  159MOL0     C20869   3.474   4.437   1.064 -0.0477 -1.0027  0.8583
  159MOL0     C20870   3.324   4.441   1.028  0.8084  0.1160 -0.5964
  159MOL0     C20871   3.240   4.334   1.110 -0.0346  0.2916 -0.3221
  159MOL0     C20872   3.183   4.398   1.243 -0.0142  0.0435 -0.4689
  159MOL0     N20873   3.119   4.307   1.337 -0.4857 -0.3208  0.4831
  159MOL0     C20874   3.020   4.219   1.306  0.0158  0.9809 -0.7845
  159MOL0     C20875   3.009   4.153   1.420 -0.3731 -0.8754 -0.0337
  159MOL0     C20876   2.911   4.047   1.463  0.1746  1.0674  0.2659
  159MOL0     C20877   2.768   4.093   1.467 -0.5400 -0.4826 -0.5419
  159MOL0     C20878   2.677   4.010   1.557  0.6632  0.2343  0.9251
  159MOL0     C20879   2.536   4.082   1.559 -0.5448 -0.1481 -0.0045
  159MOL0     O20880   2.433   3.992   1.592  0.4489 -0.1910  0.0549
  159MOL0     C20881   2.298   4.023   1.590 -0.5652 -0.0428 -0.5865
  159MOL0     C20882   2.212   3.912   1.586 -0.1829 -0.4442  0.0724
  159MOL0     C20883   2.071   3.935   1.599 -0.8626 -0.6451  0.5866
  159MOL0     C20884   2.021   4.067   1.607 -0.2454 -1.5777  0.7027
  159MOL0     C20885   1.876   4.079   1.594  0.4918  0.3615  0.3741
  159MOL0     O20886   1.819   4.194   1.647  0.2720 -0.1694  0.0169
  159MOL0     C20887   1.684   4.201   1.644 -0.0627  0.8056 -0.6504
  159MOL0     C20888   1.622   4.221   1.522 -0.6970  0.9170  0.0038
  159MOL0     C20889   1.488   4.242   1.507 -0.1510  0.0739 -0.6662
  159MOL0     C20890   1.411   4.228   1.628  0.0730  0.2735 -0.1119
  159MOL0     O20891   1.271   4.231   1.639  0.4348  0.6668 -0.0345
  159MOL0     C20892   1.193   4.287   1.535  0.0353 -0.4957 -0.0045
  159MOL0     C20893   1.054   4.280   1.597 -0.2063 -0.5907 -0.9439
  159MOL0     C20894   0.922   4.320   1.520 -0.5606  0.4060 -0.2831
  159MOL0     C20895   0.867   4.201   1.451 -0.1962  0.0458  0.3934
  159MOL0     C20896   0.850   4.071   1.532 -0.2495 -0.3504  0.1316
  159MOL0     C20897   0.753   4.077   1.656  0.3304 -0.4583  0.0193
  159MOL0     C20898   0.746   3.944   1.725  0.7147 -0.0197 -0.0511
  159MOL0     C20899   0.695   3.963   1.867 -0.6963 -0.1884 -0.2183
  159MOL0    Cl20900   0.546   4.068   1.889  0.0665 -0.2929 -0.1617
  159MOL0     C20901   1.473   4.207   1.748 -0.1534  0.8428 -0.3954
  159MOL0     C20902   1.615   4.182   1.760  1.0389 -1.0523  0.2392
  159MOL0     O20903   1.808   3.979   1.565 -0.1497 -0.4270 -0.2723
  159MOL0     C20904   2.110   4.181   1.608  0.2962 -0.1758  0.6846
  159MOL0     C20905   2.249   4.151   1.610  0.2613 -0.4229  0.2342
  159MOL0     N20906   3.114   4.183   1.497  0.1781  0.4907 -0.1206
  159MOL0     N20907   3.185   4.274   1.443 -0.4244  0.3562 -0.0637
  159MOL0     C20908   4.143   4.554   0.965 -0.5385 -0.9793  0.4058
  159MOL0     C20909   4.259   4.616   1.016  0.4991  0.3316  0.5201
  159MOL0     C20910   4.698   4.646   1.174  1.1123 -0.1986 -0.3891
  159MOL0     C20911   4.694   4.786   1.174  0.2733 -0.2521 -0.6124
  159MOL0     C20912   4.806   4.860   1.204  0.5524  0.4147  0.1390
  159MOL0     C20913   4.927   4.804   1.233 -0.5361  0.0044  0.3534
  159MOL0     O20914   5.051   4.880   1.247  0.1643 -0.0344 -0.3515
  159MOL0     C20915   5.068   4.965   1.363  0.5822 -0.2087 -0.1005
  159MOL0     C20916   5.111   5.117   1.327 -0.6013  0.4709  0.8198
  159MOL0     C20917   5.058   5.178   1.200  1.1697 -0.8261  0.3149
  159MOL0     C20918   4.912   5.232   1.234  0.5686 -0.3827  0.2067
  159MOL0     C20919   4.912   5.342   1.337 -0.7099  0.4278  0.2937
  159MOL0     C20920   4.892   5.420   1.426  0.1212 -0.5416  0.4647
  159MOL0     C20921   4.935   4.666   1.226  0.2164  0.0560  0.2660
  159MOL0     C20922   4.816   4.588   1.213 -0.5287  0.2918 -0.7365
  159MOL0     H20923   4.348   4.393   1.246  1.4599  1.3502  0.3495
  159MOL0     H20924   4.130   4.297   1.184 -0.6208  0.2594 -0.8879
  159MOL0     H20925   3.940   4.238   1.117  2.3256  1.3296  0.2660
  159MOL0     H20926   3.986   4.168   0.958  0.9497  0.2179  0.8294
  159MOL0     H20927   3.747   4.129   0.994  0.2779 -0.3652  0.2168
  159MOL0     H20928   3.778   4.239   0.859  0.1060 -1.4348 -0.0721
  159MOL0     H20929   3.717   4.430   1.002 -0.1353 -1.2559 -3.3530
  159MOL0     H20930   3.716   4.313   1.136  0.2398 -0.1311  0.4538
  159MOL0     H20931   3.537   4.316   0.889  4.9183 -1.9609 -1.0966
  159MOL0     H20932   3.515   4.228   1.047 -1.0762 -1.2353 -1.5126
  159MOL0     H20933   3.518   4.534   1.036  0.9819 -1.4820  0.7577
  159MOL0     H20934   3.480   4.439   1.174 -0.7391  1.7397  0.9204
  159MOL0     H20935   3.316   4.397   0.928  1.2249 -0.7791 -0.2427
  159MOL0     H20936   3.282   4.541   1.042  0.3376 -0.3439  1.5482
  159MOL0     H20937   3.160   4.287   1.053 -0.6187  0.2819  0.5031
  159MOL0     H20938   3.303   4.249   1.139 -1.6320 -0.1842  1.9767
  159MOL0     H20939   3.114   4.479   1.217  0.0683  0.4871  0.6578
  159MOL0     H20940   3.271   4.443   1.290 -0.9803  0.0742  1.4043
  159MOL0     H20941   2.952   4.220   1.222  0.4776 -1.1090 -1.2508
  159MOL0     H20942   2.938   4.013   1.563 -1.0767  0.7909  0.5257
  159MOL0     H20943   2.934   3.964   1.395 -2.1550  1.4600 -1.1145
  159MOL0     H20944   2.729   4.096   1.364 -0.2270 -2.1297 -0.7269
  159MOL0     H20945   2.777   4.194   1.508  1.0337 -1.2138  1.0070
  159MOL0     H20946   2.659   3.909   1.520  1.2558  0.2013  0.7204
  159MOL0     H20947   2.718   4.013   1.659 -0.5322  0.5999  1.4142
  159MOL0     H20948   2.508   4.127   1.463  0.6603  2.9929  0.9794
  159MOL0     H20949   2.546   4.174   1.618 -0.3057 -0.6686  0.7730
  159MOL0     H20950   2.254   3.812   1.585 -0.7445 -0.6797 -0.4242
  159MOL0     H20951   2.005   3.849   1.601 -2.0154  0.0478 -2.2964
  159MOL0     H20952   1.676   4.215   1.428 -0.0779  1.6782  0.3074
  159MOL0     H20953   1.450   4.261   1.407  0.5629 -1.4593 -1.2425
  159MOL0     H20954   1.204   4.229   1.442  0.2934 -0.7869  0.2078
  159MOL0     H20955   1.228   4.387   1.512  0.5081 -0.4626  0.8324
  159MOL0     H20956   1.078   4.353   1.675  1.9204 -2.3448  0.1916
  159MOL0     H20957   1.027   4.194   1.659 -4.0182  1.2286  0.1797
  159MOL0     H20958   0.944   4.401   1.451 -1.6307  1.0412  0.1021
  159MOL0     H20959   0.838   4.349   1.584  0.7893  0.0202  1.7579
  159MOL0     H20960   0.773   4.239   1.408  0.4263  2.0628  0.7156
  159MOL0     H20961   0.931   4.178   1.366 -0.1568 -0.0053  0.4373
  159MOL0     H20962   0.948   4.046   1.574  1.4593  2.4656 -1.7614
  159MOL0     H20963   0.805   4.005   1.458 -0.5520  0.2498 -0.2277
  159MOL0     H20964   0.651   4.104   1.629  0.6900  0.0797 -0.8414
  159MOL0     H20965   0.790   4.154   1.723  1.9223 -1.0491 -0.1324
  159MOL0     H20966   0.680   3.884   1.662 -0.5469 -1.3673  2.4225
  159MOL0     H20967   0.849   3.906   1.725  0.9408  0.4691  2.2626
  159MOL0     H20968   0.763   4.016   1.934 -0.0213 -0.4478 -0.6877
  159MOL0     H20969   0.668   3.865   1.909 -0.8761  0.0434  0.2113
  159MOL0     H20970   1.418   4.213   1.841  1.5330  5.7869  0.6140
  159MOL0     H20971   1.653   4.142   1.853 -1.9052 -1.1490  1.5295
  159MOL0     H20972   2.066   4.280   1.615  1.3118  0.3336  0.0457
  159MOL0     H20973   2.319   4.234   1.614  0.5980 -0.7203  0.5939
  159MOL0     H20974   4.074   4.596   0.892 -1.7692  0.2456  2.1822
  159MOL0     H20975   4.294   4.708   0.970  4.4599 -0.7404  1.0111
  159MOL0     H20976   4.616   4.855   1.148  0.8224  2.4332  3.8672
  159MOL0     H20977   4.795   4.968   1.200 -2.3665  0.3991  2.9951
  159MOL0     H20978   5.140   4.914   1.428 -1.9443 -1.1987  2.1052
  159MOL0     H20979   4.968   4.974   1.406  0.6560  0.1739 -0.0076
  159MOL0     H20980   5.077   5.178   1.411 -0.4180  0.1502  1.1291
  159MOL0     H20981   5.220   5.123   1.332 -0.2319 -0.7297 -2.8095
  159MOL0     H20982   5.051   5.101   1.123  0.0434 -1.4052  0.9703
  159MOL0     H20983   5.120   5.262   1.167 -3.9534  3.0713 -0.7498
  159MOL0     H20984   4.868   5.268   1.140 -1.8139 -0.4258  1.2337
  159MOL0     H20985   4.854   5.145   1.266  0.3197  0.2755  1.6198
  159MOL0     H20986   4.874   5.495   1.501 -0.9952 -0.7345  0.4143
  159MOL0     H20987   5.030   4.621   1.254 -0.7475 -1.9273  0.4967
  159MOL0     H20988   4.833   4.480   1.215 -3.6699 -0.3131 -1.5179
  160MOL0     O20989   8.470   4.003   1.565  0.4631  0.2589 -0.0352
  160MOL0     C20990   8.430   4.046   1.456 -0.1634 -0.3704  0.8101
  160MOL0     O20991   8.321   4.006   1.388  0.1318 -0.2350 -0.6264
  160MOL0     C20992   8.233   3.915   1.441  0.0531 -0.0920 -0.2687
  160MOL0     C20993   8.101   3.949   1.438  0.5848  0.9814 -0.1573
  160MOL0     C20994   8.004   3.847   1.475 -1.3323 -0.2923  0.0059
  160MOL0     C20995   8.045   3.725   1.526 -0.3001 -0.5183  0.0198
  160MOL0     O20996   7.959   3.624   1.554  0.8355  0.2672  0.5824
  160MOL0     C20997   7.817   3.656   1.545 -0.5570  0.2945 -0.2463
  160MOL0     C20998   7.767   3.722   1.674 -0.0676 -0.2279 -0.1207
  160MOL0     C20999   7.619   3.733   1.685 -0.2805  0.2061 -0.9134
  160MOL0     C21000   7.557   3.845   1.612 -1.2129  0.1678  0.0537
  160MOL0     C21001   7.415   3.834   1.621 -0.7113  0.4537 -0.2022
  160MOL0     C21002   7.343   3.936   1.534  0.4439  0.8660 -0.0218
  160MOL0     C21003   7.194   3.943   1.578 -0.3759 -0.6409 -0.1578
  160MOL0     C21004   7.117   4.037   1.482  1.2974  0.0374 -0.3338
  160MOL0     N21005   6.983   4.064   1.531 -0.1329  0.0031 -0.0972
  160MOL0     C21006   6.943   4.132   1.642 -0.2002 -0.8561  0.3190
  160MOL0     C21007   6.812   4.091   1.662  0.4018 -1.1475  0.5496
  160MOL0     C21008   6.724   4.143   1.770 -0.1309  0.5069  0.5827
  160MOL0     C21009   6.615   4.248   1.728  0.0371 -0.3359 -0.5638
  160MOL0     C21010   6.483   4.172   1.706 -0.1151 -0.0442  0.2478
  160MOL0     C21011   6.362   4.253   1.660 -0.6296  0.3401  0.4297
  160MOL0     O21012   6.311   4.332   1.763  0.6640 -0.0783 -0.3960
  160MOL0     C21013   6.174   4.375   1.745 -0.4147 -0.6484 -0.5966
  160MOL0     C21014   6.118   4.405   1.625  0.2259  1.1842  0.1036
  160MOL0     C21015   5.980   4.427   1.611  0.3207 -0.4261 -0.8417
  160MOL0     C21016   5.906   4.414   1.730 -0.4637  0.1263 -0.2878
  160MOL0     C21017   5.767   4.429   1.723 -0.3067 -0.3702  0.6280
  160MOL0     O21018   5.726   4.486   1.606  0.7066 -0.1155 -0.1897
  160MOL0     C21019   5.589   4.458   1.572 -0.3228 -0.1221 -0.0873
  160MOL0     C21020   5.523   4.559   1.509 -0.3210 -0.3840  1.0089
  160MOL0     C21021   5.402   4.546   1.444 -0.3270 -0.2855 -0.0269
  160MOL0     C21022   5.333   4.424   1.436 -1.3838  0.0672 -0.5224
  160MOL0     O21023   5.221   4.415   1.365  0.1574  0.0646 -0.4926
  160MOL0     C21024   5.239   4.341   1.249 -0.5145 -0.0699  0.1442
  160MOL0     C21025   5.115   4.311   1.162  0.1288  0.0456 -0.9879
  160MOL0     C21026   4.990   4.259   1.231  0.4998 -0.0436  1.2896
  160MOL0     C21027   5.027   4.132   1.317  0.9856 -0.5063  0.5040
  160MOL0     C21028   4.891   4.059   1.362  0.0025 -0.7691  0.7165
  160MOL0     C21029   4.929   3.929   1.429  1.2941  0.6114  0.7358
  160MOL0     C21030   4.801   3.842   1.445  0.4541 -0.2177 -0.3792
  160MOL0     C21031   4.698   3.913   1.545 -0.1856 -0.1895 -0.1677
  160MOL0    Cl21032   4.564   3.806   1.593  0.0167 -0.0735  0.0359
  160MOL0     C21033   5.407   4.315   1.490 -0.5840 -0.7989  0.1375
  160MOL0     C21034   5.525   4.335   1.560 -0.0476 -0.4665  1.4666
  160MOL0     O21035   5.692   4.398   1.816 -0.2937  0.1275  0.7841
  160MOL0     C21036   5.969   4.375   1.850 -0.4174 -0.3403  0.1377
  160MOL0     C21037   6.102   4.370   1.865  0.4908  0.7339  0.0400
  160MOL0     N21038   6.781   4.013   1.550  0.3285 -0.5628  0.2520
  160MOL0     N21039   6.884   4.003   1.472 -0.0911  0.4406 -0.2681
  160MOL0     C21040   8.182   3.697   1.525  0.4036  0.4217 -0.2692
  160MOL0     C21041   8.280   3.791   1.484 -0.0147 -0.3102 -0.0034
  160MOL0     C21042   8.513   4.151   1.382 -0.6588  0.5161  0.1377
  160MOL0     C21043   8.491   4.186   1.251  0.3999 -1.6977  0.3238
  160MOL0     C21044   8.584   4.269   1.185 -0.3770  0.4359 -0.2203
  160MOL0     C21045   8.700   4.319   1.254 -1.0144 -0.0922  0.3320
  160MOL0     O21046   8.799   4.387   1.175 -0.2880  0.4537 -0.1779
  160MOL0     C21047   8.924   4.419   1.229 -0.0338 -0.6607 -0.3792
  160MOL0     C21048   8.929   4.571   1.269  1.1879 -0.6329  0.0598
  160MOL0     C21049   9.072   4.614   1.317  0.4467 -0.0592  0.1256
  160MOL0     C21050   9.157   4.655   1.197 -0.2136 -0.0524 -0.7629
  160MOL0     C21051   9.302   4.660   1.229  0.4222  0.1300 -0.4267
  160MOL0     C21052   9.417   4.664   1.271  0.3335 -1.0160 -0.8870
  160MOL0     C21053   8.709   4.305   1.393  0.1586  0.6054  0.9284
  160MOL0     C21054   8.619   4.212   1.456 -0.4209 -0.8382 -0.8394
  160MOL0     H21055   8.069   4.047   1.403 -3.4037 -0.2136 -0.4214
  160MOL0     H21056   7.901   3.876   1.455 -0.8943  1.0271 -0.4983
  160MOL0     H21057   7.759   3.563   1.546 -1.0990  0.6071 -0.9226
  160MOL0     H21058   7.785   3.698   1.449 -1.4984 -0.4889 -0.2925
  160MOL0     H21059   7.818   3.819   1.683  2.6532 -1.6137  0.4042
  160MOL0     H21060   7.801   3.662   1.758 -1.3971  0.8832  1.2747
  160MOL0     H21061   7.592   3.752   1.790 -2.0834 -2.7910 -0.7131
  160MOL0     H21062   7.569   3.637   1.669  0.2816 -0.4764  1.1127
  160MOL0     H21063   7.590   3.948   1.633  0.8748 -0.2122 -1.1007
  160MOL0     H21064   7.580   3.835   1.506 -2.5296 -0.7858 -0.1571
  160MOL0     H21065   7.386   3.850   1.725  0.8497 -1.3296  0.5846
  160MOL0     H21066   7.384   3.731   1.603  0.9825 -0.8312  3.1705
  160MOL0     H21067   7.346   3.908   1.428 -2.6973  0.6200 -0.1430
  160MOL0     H21068   7.391   4.033   1.548  0.6364  0.6676  0.7255
  160MOL0     H21069   7.135   3.851   1.579  0.0476 -1.0478 -3.1620
  160MOL0     H21070   7.194   3.981   1.681  0.8798  1.4701 -0.8703
  160MOL0     H21071   7.119   3.995   1.381  0.3945 -3.7450  1.0486
  160MOL0     H21072   7.169   4.133   1.490 -1.1413  1.2883  3.7669
  160MOL0     H21073   7.009   4.184   1.712  1.0051 -1.3090 -0.4668
  160MOL0     H21074   6.785   4.181   1.853  0.6141 -1.1401  0.8416
  160MOL0     H21075   6.673   4.058   1.817  0.5352 -0.1412  0.1392
  160MOL0     H21076   6.639   4.311   1.642 -1.0067 -1.1211 -1.4550
  160MOL0     H21077   6.597   4.297   1.824  0.6547 -2.3271  0.6449
  160MOL0     H21078   6.513   4.104   1.626  0.5253  2.3482 -1.6781
  160MOL0     H21079   6.458   4.106   1.789  0.3235  0.6200  0.9220
  160MOL0     H21080   6.295   4.180   1.613  1.1663 -1.4952  0.5959
  160MOL0     H21081   6.383   4.314   1.571 -0.1244 -0.3098  0.0988
  160MOL0     H21082   6.183   4.408   1.538 -1.3266  0.9282 -1.1121
  160MOL0     H21083   5.939   4.451   1.513 -0.1423  1.9497 -0.1332
  160MOL0     H21084   5.563   4.659   1.502  0.8032 -0.8263  0.9175
  160MOL0     H21085   5.360   4.627   1.387 -0.1836 -1.2603 -1.5795
  160MOL0     H21086   5.268   4.240   1.277 -1.6052  0.0607  1.8855
  160MOL0     H21087   5.308   4.399   1.187 -0.3305  0.2747  0.6649
  160MOL0     H21088   5.137   4.242   1.079  1.4058  0.8302 -1.3353
  160MOL0     H21089   5.079   4.404   1.117  0.1455 -0.2287 -1.5919
  160MOL0     H21090   4.912   4.235   1.158  0.4681  3.5048 -0.0686
  160MOL0     H21091   4.949   4.327   1.306  0.4306  2.0804 -0.5554
  160MOL0     H21092   5.075   4.059   1.251 -0.5065  0.4967 -1.8101
  160MOL0     H21093   5.089   4.147   1.406 -0.2287  0.4992  1.2013
  160MOL0     H21094   4.833   4.030   1.274  1.3817 -0.0041 -0.4914
  160MOL0     H21095   4.838   4.118   1.437  0.8353  0.3754  0.4439
  160MOL0     H21096   4.969   3.960   1.526  0.0940  0.5960  1.2603
  160MOL0     H21097   5.006   3.872   1.377  0.9938 -0.1149  1.0851
  160MOL0     H21098   4.753   3.832   1.347  0.1511 -1.8874 -0.0923
  160MOL0     H21099   4.820   3.739   1.476 -2.5233 -0.6642  0.2625
  160MOL0     H21100   4.664   4.004   1.496  0.1011  0.5094  0.8890
  160MOL0     H21101   4.760   3.939   1.632  1.0943  1.7543 -1.5754
  160MOL0     H21102   5.373   4.212   1.481  0.1400 -0.9858 -0.5730
  160MOL0     H21103   5.566   4.239   1.592  2.0936 -0.1874 -0.2030
  160MOL0     H21104   5.917   4.369   1.945 -0.7232  1.1486  0.0946
  160MOL0     H21105   6.146   4.359   1.963 -1.9367 -2.7148  0.9127
  160MOL0     H21106   8.218   3.604   1.570 -0.5299  1.0164  1.8008
  160MOL0     H21107   8.387   3.771   1.490 -0.1941 -1.1835  0.4431
  160MOL0     H21108   8.412   4.149   1.186  1.0837 -0.9478 -0.9948
  160MOL0     H21109   8.582   4.282   1.077 -0.4228  0.6184 -0.1984
  160MOL0     H21110   8.997   4.394   1.151  3.0886  0.3318  2.0097
  160MOL0     H21111   8.947   4.359   1.317  3.7183  2.2178  0.8985
  160MOL0     H21112   8.902   4.628   1.180  0.0359 -1.4480 -0.1338
  160MOL0     H21113   8.861   4.590   1.352  1.9691 -0.6217  0.7185
  160MOL0     H21114   9.115   4.530   1.372  1.7578  1.5986  1.7944
  160MOL0     H21115   9.067   4.701   1.384  1.5551  2.1833 -2.4919
  160MOL0     H21116   9.140   4.578   1.121 -2.9222 -0.6482  0.3409
  160MOL0     H21117   9.128   4.751   1.152  0.0117  0.8579  0.9396
  160MOL0     H21118   9.518   4.680   1.304 -0.4515 -1.6376  2.1897
  160MOL0     H21119   8.787   4.352   1.451  2.9354 -0.4244 -1.7008
  160MOL0     H21120   8.636   4.189   1.560  2.1346  0.7056 -0.8194
  161MOL0     O21121   7.326   3.649   0.021  0.4040  0.0528  0.0756
  161MOL0     C21122   7.408   3.702   0.096  0.8562  0.0942 -0.2974
  161MOL0     O21123   7.403   3.702   0.230 -0.4878  0.3595  0.9003
  161MOL0     C21124   7.319   3.607   0.286 -0.7452 -0.0835 -0.2247
  161MOL0     C21125   7.361   3.479   0.307  0.7541  0.1498  0.1724
  161MOL0     C21126   7.273   3.383   0.347 -0.7966  0.4407 -0.8716
  161MOL0     C21127   7.148   3.412   0.372  0.0638  0.3690  0.2765
  161MOL0     O21128   7.064   3.312   0.399  0.5711  0.1609  0.3734
  161MOL0     C21129   6.949   3.337   0.489  0.5018  0.5052 -0.5574
  161MOL0     C21130   6.862   3.210   0.487  0.9815  1.1175 -0.3026
  161MOL0     C21131   6.752   3.210   0.594  0.4441 -0.8750  0.2096
  161MOL0     C21132   6.661   3.338   0.587 -0.3773  0.4736  0.1405
  161MOL0     C21133   6.534   3.304   0.667  1.1383 -0.5693 -0.6310
  161MOL0     C21134   6.443   3.428   0.680  0.1946  1.9383 -0.2752
  161MOL0     C21135   6.386   3.482   0.547 -0.0550  0.0607 -0.0711
  161MOL0     C21136   6.286   3.390   0.480  0.2665 -0.3677 -0.4072
  161MOL0     N21137   6.154   3.415   0.547  0.1133 -0.0083  0.1962
  161MOL0     C21138   6.073   3.515   0.513 -0.7484  1.1732  0.6367
  161MOL0     C21139   5.986   3.520   0.616  0.1173  0.0105 -0.1571
  161MOL0     C21140   5.887   3.622   0.665 -0.1398 -0.2260 -0.0368
  161MOL0     C21141   5.729   3.612   0.625 -0.0380 -1.0285 -0.6479
  161MOL0     C21142   5.705   3.489   0.539  0.7526 -0.0876 -0.4709
  161MOL0     C21143   5.560   3.465   0.500  0.2858 -0.3328 -0.2428
  161MOL0     O21144   5.517   3.584   0.427  0.2573 -0.1023 -0.3536
  161MOL0     C21145   5.389   3.590   0.385 -0.8567 -0.5207 -0.1854
  161MOL0     C21146   5.351   3.711   0.331  0.0095  0.4385 -0.7394
  161MOL0     C21147   5.220   3.734   0.285 -0.4841 -0.3715  0.6441
  161MOL0     C21148   5.119   3.631   0.290  0.1686  0.3881  0.2261
  161MOL0     C21149   4.976   3.662   0.243 -0.3525  0.2297  0.3148
  161MOL0     O21150   4.890   3.559   0.243  0.8517 -0.0927  0.0248
  161MOL0     C21151   4.763   3.574   0.195  0.4649  0.0521 -0.1905
  161MOL0     C21152   4.672   3.642   0.266  0.1822 -0.5899 -0.0922
  161MOL0     C21153   4.539   3.664   0.222 -0.6207  0.3751 -0.2282
  161MOL0     C21154   4.488   3.598   0.106  0.1292  0.6783 -0.1216
  161MOL0     O21155   4.354   3.594   0.085  0.3324 -0.7356 -0.1593
  161MOL0     C21156   4.302   3.546  -0.034  0.1980  0.8002  0.5530
  161MOL0     C21157   4.152   3.572  -0.010  0.1868 -0.0898  0.7485
  161MOL0     C21158   4.065   3.509  -0.122 -0.4327  0.3872 -0.1978
  161MOL0     C21159   3.917   3.526  -0.093 -0.3393  0.3193 -1.5382
  161MOL0     C21160   3.828   3.527  -0.215  0.1908  0.1833 -0.1702
  161MOL0     C21161   3.710   3.613  -0.179  0.2972 -0.0558  0.5967
  161MOL0     C21162   3.622   3.621  -0.308  0.1208 -0.1574 -1.1544
  161MOL0     C21163   3.493   3.684  -0.272  0.7797  0.8010  0.0974
  161MOL0    Cl21164   3.396   3.710  -0.427  0.2992  0.3337 -0.1847
  161MOL0     C21165   4.583   3.521   0.035  0.2180  0.2580  0.1767
  161MOL0     C21166   4.722   3.510   0.079  0.2427 -0.2397 -0.4751
  161MOL0     O21167   4.961   3.770   0.185  0.1286  0.0020  1.3325
  161MOL0     C21168   5.169   3.511   0.343 -0.6652 -0.1513  0.6022
  161MOL0     C21169   5.300   3.485   0.382 -0.1083 -0.4400  0.0063
  161MOL0     N21170   6.020   3.424   0.710 -0.4454  0.1323 -0.1150
  161MOL0     N21171   6.121   3.356   0.665  0.0325  0.3635  0.2752
  161MOL0     C21172   7.109   3.549   0.367 -0.0839 -0.3421 -0.6317
  161MOL0     C21173   7.196   3.649   0.326  0.3215  0.6844  0.0210
  161MOL0     C21174   7.518   3.774   0.035 -0.6894  0.1430  0.1768
  161MOL0     C21175   7.547   3.768  -0.101 -0.8340 -0.6215  0.7408
  161MOL0     C21176   7.668   3.821  -0.151  0.4382 -0.5516  0.4732
  161MOL0     C21177   7.749   3.905  -0.077 -0.3629  0.0984  0.9218
  161MOL0     O21178   7.854   3.972  -0.146  0.0717 -0.2099 -0.1500
  161MOL0     C21179   7.902   4.098  -0.093 -0.1156  0.4350 -0.5490
  161MOL0     C21180   8.012   4.168  -0.174 -0.0804 -0.0877  0.3973
  161MOL0     C21181   8.146   4.095  -0.185 -0.1517  0.0419  0.3062
  161MOL0     C21182   8.233   4.179  -0.282 -0.4600  0.8464  0.0678
  161MOL0     C21183   8.281   4.312  -0.230 -0.7236 -0.1610  0.7706
  161MOL0     C21184   8.310   4.420  -0.183 -0.1913 -0.8726 -0.9849
  161MOL0     C21185   7.721   3.922   0.057  0.1732 -0.2981 -0.0499
  161MOL0     C21186   7.608   3.853   0.107  0.8782  0.6693 -0.3789
  161MOL0     H21187   7.466   3.455   0.292  0.4238  0.1765 -2.6331
  161MOL0     H21188   7.312   3.283   0.363  0.6005  1.3170  1.8509
  161MOL0     H21189   6.885   3.425   0.474 -1.4008 -0.6227  0.5014
  161MOL0     H21190   6.985   3.347   0.592 -0.3437  1.4817 -0.3366
  161MOL0     H21191   6.919   3.117   0.491 -0.8723 -0.0711 -0.3129
  161MOL0     H21192   6.823   3.207   0.385  2.4595 -1.0625 -0.8528
  161MOL0     H21193   6.791   3.215   0.696 -0.1587  1.8447  0.3863
  161MOL0     H21194   6.702   3.114   0.577  0.6655 -0.9528  0.0044
  161MOL0     H21195   6.720   3.424   0.619 -0.9315  0.8543  0.1448
  161MOL0     H21196   6.625   3.366   0.488 -3.7128 -0.9356  0.8357
  161MOL0     H21197   6.558   3.263   0.766  1.5465  3.8351  1.3460
  161MOL0     H21198   6.478   3.227   0.613  3.7775 -1.6449 -2.0258
  161MOL0     H21199   6.493   3.510   0.734 -1.4136  2.2419  0.8169
  161MOL0     H21200   6.362   3.400   0.748 -0.7934  0.7940 -1.8683
  161MOL0     H21201   6.335   3.578   0.559  0.6774  0.6903 -1.7025
  161MOL0     H21202   6.468   3.501   0.477  0.7109  3.3199  1.5175
  161MOL0     H21203   6.315   3.284   0.483  0.9436 -0.2899 -2.7905
  161MOL0     H21204   6.273   3.411   0.374 -1.5974 -2.0878 -0.5768
  161MOL0     H21205   6.063   3.588   0.434  3.3302  0.6509 -0.5890
  161MOL0     H21206   5.937   3.714   0.633 -0.6086  0.0174 -0.0766
  161MOL0     H21207   5.882   3.627   0.774  0.3670 -1.3991  0.0541
  161MOL0     H21208   5.690   3.707   0.588  1.6049  1.2438  2.9210
  161MOL0     H21209   5.672   3.599   0.717  1.6867 -0.2592  0.5664
  161MOL0     H21210   5.767   3.499   0.450  0.7154  0.7551 -0.4074
  161MOL0     H21211   5.738   3.398   0.590  1.4773  1.5027  2.0778
  161MOL0     H21212   5.494   3.456   0.586 -0.3254  0.8470 -0.5688
  161MOL0     H21213   5.563   3.371   0.444  0.9991 -0.1530 -0.5269
  161MOL0     H21214   5.418   3.797   0.329  1.1547 -0.3916  0.5912
  161MOL0     H21215   5.196   3.833   0.248  0.1764  0.1221  1.4854
  161MOL0     H21216   4.679   3.687   0.365 -0.2071  0.9979 -0.7543
  161MOL0     H21217   4.465   3.723   0.275 -0.6596 -0.1368  0.3060
  161MOL0     H21218   4.317   3.438  -0.043 -2.0786  0.4592  0.3406
  161MOL0     H21219   4.328   3.592  -0.129  0.4941 -0.7792 -0.1572
  161MOL0     H21220   4.129   3.679  -0.019  1.1822  0.0392 -0.6547
  161MOL0     H21221   4.116   3.529   0.084 -1.1621 -1.0068 -0.1487
  161MOL0     H21222   4.098   3.405  -0.128 -1.1893 -0.1500  3.0024
  161MOL0     H21223   4.077   3.562  -0.217 -0.2948 -0.2026 -0.5133
  161MOL0     H21224   3.887   3.441  -0.031 -0.7716  1.9301  0.5634
  161MOL0     H21225   3.908   3.616  -0.031  3.9011  1.5347 -2.3624
  161MOL0     H21226   3.793   3.429  -0.248  1.8572 -0.9857  1.3033
  161MOL0     H21227   3.891   3.568  -0.294  1.2515  1.2206  1.1454
  161MOL0     H21228   3.749   3.711  -0.153  1.8892 -0.3905 -0.4154
  161MOL0     H21229   3.660   3.574  -0.090 -0.6013  1.1013  0.6214
  161MOL0     H21230   3.674   3.683  -0.381 -0.5240  1.3081 -0.4202
  161MOL0     H21231   3.601   3.520  -0.343  1.6040 -1.4427  1.4153
  161MOL0     H21232   3.507   3.782  -0.225 -0.6682  0.1555  2.0310
  161MOL0     H21233   3.440   3.622  -0.198  0.3073  0.8291 -0.2159
  161MOL0     H21234   4.555   3.469  -0.056  1.4788  0.1889 -0.1864
  161MOL0     H21235   4.793   3.467   0.008 -0.7949  0.9816 -2.3256
  161MOL0     H21236   5.091   3.435   0.343 -2.0661  1.2205  1.6170
  161MOL0     H21237   5.323   3.391   0.431 -1.7191 -0.5775  0.5766
  161MOL0     H21238   7.009   3.590   0.370 -0.0832 -0.3713  1.5442
  161MOL0     H21239   7.150   3.746   0.312 -2.8423  0.0418  4.2538
  161MOL0     H21240   7.494   3.704  -0.171 -0.0241  1.2231 -1.6871
  161MOL0     H21241   7.699   3.787  -0.249  1.2574 -1.8455  1.1573
  161MOL0     H21242   7.938   4.071   0.007 -1.8637  0.4175  0.1250
  161MOL0     H21243   7.823   4.173  -0.086 -0.8278 -0.2779 -0.7061
  161MOL0     H21244   7.981   4.177  -0.279 -2.7165  0.4157  1.1629
  161MOL0     H21245   8.036   4.269  -0.140 -0.6660  0.6171 -1.1643
  161MOL0     H21246   8.138   3.995  -0.230  1.7540 -0.6591  1.3824
  161MOL0     H21247   8.198   4.094  -0.089 -0.2246 -0.5405  0.3433
  161MOL0     H21248   8.329   4.126  -0.289 -0.2502  1.3281 -0.8735
  161MOL0     H21249   8.183   4.182  -0.380 -3.8488 -0.1997  1.6225
  161MOL0     H21250   8.345   4.511  -0.138  1.5227 -1.8397 -0.2893
  161MOL0     H21251   7.778   3.988   0.121  1.0117 -1.1900  0.1535
  161MOL0     H21252   7.582   3.860   0.212 -0.9800 -0.1156 -0.7510
  162MOL0     O21253   4.773   5.736  10.343 -0.0130 -0.0496  0.6208
  162MOL0     C21254   4.762   5.619  10.379  0.4237  0.1539  0.1066
  162MOL0     O21255   4.864   5.541  10.430  0.0006 -0.7569  0.2367
  162MOL0     C21256   4.998   5.584  10.437 -0.2812 -0.6262  0.7212
  162MOL0     C21257   5.070   5.674  10.355  0.6851 -0.3346 -0.7344
  162MOL0     C21258   5.210   5.692  10.362 -0.3653  0.2767  0.2690
  162MOL0     C21259   5.285   5.630  10.457  0.3488 -0.6421  0.9614
  162MOL0     O21260   5.418   5.658  10.464 -0.1153  0.4752 -0.1257
  162MOL0     C21261   5.508   5.564  10.529 -0.1261 -0.9001 -0.0187
  162MOL0     C21262   5.649   5.616  10.487 -0.8349  0.6652 -0.1593
  162MOL0     C21263   5.752   5.519  10.562 -0.4687  0.4300  0.0745
  162MOL0     C21264   5.897   5.567  10.529 -0.4534  0.1077  0.1409
  162MOL0     C21265   5.998   5.466  10.581  0.8224  0.3626 -0.4438
  162MOL0     C21266   6.141   5.532  10.579 -0.0055  0.3663  0.8887
  162MOL0     C21267   6.261   5.447  10.610 -1.0630  0.7998  1.3958
  162MOL0     C21268   6.314   5.369  10.485 -0.2686  0.4889 -0.3476
  162MOL0     N21269   6.432   5.289  10.529 -0.0862  0.3925  0.2416
  162MOL0     C21270   6.564   5.327  10.507 -0.0622  0.1914  0.0962
  162MOL0     C21271   6.634   5.211  10.535  0.0436 -0.5290 -1.2184
  162MOL0     C21272   6.780   5.204  10.529 -0.6532  0.0127  0.2670
  162MOL0     C21273   6.840   5.097  10.442 -0.2083  0.1597  0.0387
  162MOL0     C21274   6.834   5.140  10.297 -0.2528  0.6327 -0.3127
  162MOL0     C21275   6.878   5.033  10.194 -1.0016 -0.0793  0.2589
  162MOL0     O21276   7.019   5.008  10.199  0.2422 -0.2327 -0.5302
  162MOL0     C21277   7.105   5.108  10.154 -0.5893 -0.9237  0.4448
  162MOL0     C21278   7.240   5.077  10.161  0.2999 -0.2183 -1.5339
  162MOL0     C21279   7.344   5.159  10.128  0.5389 -0.6011  0.4180
  162MOL0     C21280   7.304   5.286  10.079 -0.1486 -0.0726 -0.0111
  162MOL0     C21281   7.416   5.381  10.044  0.5895 -0.0945  1.1800
  162MOL0     O21282   7.542   5.327  10.020  0.1206 -0.3728 -0.1086
  162MOL0     C21283   7.638   5.400   9.952  0.2136 -0.5054  0.3296
  162MOL0     C21284   7.624   5.442   9.819 -0.5772  0.0893  0.4355
  162MOL0     C21285   7.732   5.502   9.755  0.2076 -0.7372  1.4826
  162MOL0     C21286   7.855   5.533   9.827 -0.5054 -0.0567  0.2461
  162MOL0     O21287   7.959   5.596   9.767 -0.1467  0.1460 -0.3686
  162MOL0     C21288   7.941   5.697   9.674 -0.9281  0.1625 -0.2693
  162MOL0     C21289   8.088   5.721   9.617 -0.0260 -0.7187  0.1294
  162MOL0     C21290   8.186   5.773   9.727 -0.8290  0.1092  0.7633
  162MOL0     C21291   8.176   5.932   9.757  0.1753  0.1593 -0.0987
  162MOL0     C21292   8.310   5.986   9.810  0.6802 -0.3808  0.6021
  162MOL0     C21293   8.409   5.987   9.692  0.4164  0.2067  0.0611
  162MOL0     C21294   8.535   6.060   9.732  0.7972 -0.0080 -0.1763
  162MOL0     C21295   8.611   6.140   9.637  0.0060 -0.0932  0.8910
  162MOL0    Cl21296   8.767   6.174   9.701 -0.1383 -0.1982 -0.0421
  162MOL0     C21297   7.864   5.491   9.962 -0.6235 -0.3871  0.8910
  162MOL0     C21298   7.753   5.431  10.021  0.6233 -0.5566  0.1551
  162MOL0     O21299   7.390   5.503  10.034 -0.1613 -0.3019  0.3251
  162MOL0     C21300   7.170   5.323  10.078 -0.1366  0.3456 -0.0406
  162MOL0     C21301   7.077   5.240  10.113 -0.1483  0.7191 -1.1790
  162MOL0     N21302   6.551   5.114  10.596 -0.2681 -0.0763  0.2666
  162MOL0     N21303   6.429   5.166  10.582 -0.1253  0.4387 -0.8299
  162MOL0     C21304   5.216   5.533  10.540  0.1132  0.5185 -0.9524
  162MOL0     C21305   5.078   5.505  10.517  0.5574  0.4060 -0.8642
  162MOL0     C21306   4.621   5.562  10.384 -0.7310  0.1007  0.4768
  162MOL0     C21307   4.603   5.430  10.424  0.6752  0.0903  0.0091
  162MOL0     C21308   4.473   5.380  10.430  0.1521 -0.4000  0.5982
  162MOL0     C21309   4.359   5.445  10.383 -0.4860  0.2474  0.3141
  162MOL0     O21310   4.238   5.386  10.388  0.6708 -0.0590 -0.0514
  162MOL0     C21311   4.147   5.481  10.449 -0.6996  0.8638  1.0799
  162MOL0     C21312   4.039   5.412  10.533  0.9044 -0.2096 -0.6768
  162MOL0     C21313   3.966   5.515  10.613  0.3886 -0.4929 -0.9514
  162MOL0     C21314   3.858   5.592  10.532 -0.2687 -0.3434  0.0359
  162MOL0     C21315   3.913   5.715  10.480 -0.9725  0.7114  0.3498
  162MOL0     C21316   3.970   5.817  10.449  0.6953  0.8691 -0.3151
  162MOL0     C21317   4.381   5.577  10.340 -0.1511  0.2924 -0.1856
  162MOL0     C21318   4.508   5.635  10.348 -0.5117  0.7218 -0.1413
  162MOL0     H21319   5.011   5.729  10.283 -1.4211 -0.8022  0.5404
  162MOL0     H21320   5.265   5.751  10.289 -0.2806 -1.0803 -0.7895
  162MOL0     H21321   5.505   5.459  10.498  2.7263 -1.1466  0.3100
  162MOL0     H21322   5.502   5.569  10.638 -0.0646  0.1305 -0.0481
  162MOL0     H21323   5.669   5.720  10.514  2.2412  0.0902  0.2140
  162MOL0     H21324   5.668   5.601  10.380  1.7912  0.0423  0.3057
  162MOL0     H21325   5.741   5.417  10.524 -0.0706 -0.3807  1.9998
  162MOL0     H21326   5.737   5.518  10.671 -1.1408  0.2857 -0.0106
  162MOL0     H21327   5.906   5.568  10.420  2.0885  1.0742  0.2828
  162MOL0     H21328   5.922   5.668  10.561  2.0161 -0.2013 -0.5772
  162MOL0     H21329   5.991   5.367  10.534 -0.2176 -0.6013  1.5527
  162MOL0     H21330   5.979   5.435  10.685 -1.2546  3.1146  0.1036
  162MOL0     H21331   6.145   5.605  10.660 -0.1679 -0.5124  1.7067
  162MOL0     H21332   6.148   5.579  10.481  0.7935  3.3386  2.2730
  162MOL0     H21333   6.343   5.513  10.638  0.1325 -0.6596  1.4610
  162MOL0     H21334   6.244   5.384  10.698  2.9786  2.3690  3.5255
  162MOL0     H21335   6.335   5.442  10.406 -0.2409 -0.4358 -1.2269
  162MOL0     H21336   6.232   5.308  10.445 -1.1556  1.8542 -0.6965
  162MOL0     H21337   6.597   5.422  10.465  1.9995 -1.3617 -2.0756
  162MOL0     H21338   6.817   5.177  10.629 -1.2502 -0.6092  0.3277
  162MOL0     H21339   6.834   5.293  10.494  2.0760 -1.7246 -0.2530
  162MOL0     H21340   6.788   5.001  10.452  0.7908 -0.2937  1.1495
  162MOL0     H21341   6.943   5.073  10.469 -0.5816  0.1837  1.5942
  162MOL0     H21342   6.732   5.175  10.278 -0.7935 -0.4321  0.5178
  162MOL0     H21343   6.906   5.223  10.291  0.1674  0.3231  0.3493
  162MOL0     H21344   6.840   5.056  10.094 -0.8091  5.4808  1.1194
  162MOL0     H21345   6.834   4.936  10.216  2.2791 -1.6122  0.7580
  162MOL0     H21346   7.267   4.977  10.193 -1.5760 -0.2925 -0.0576
  162MOL0     H21347   7.446   5.129  10.147  0.8320  1.0220  1.6212
  162MOL0     H21348   7.544   5.397   9.761  1.4745 -2.5382 -0.6102
  162MOL0     H21349   7.723   5.515   9.647  4.4002 -3.9201  0.4789
  162MOL0     H21350   7.916   5.793   9.720 -0.7202  0.1102 -0.0451
  162MOL0     H21351   7.878   5.661   9.592 -1.2563 -0.0557  0.0778
  162MOL0     H21352   8.091   5.796   9.538  3.8221 -1.6351 -0.7858
  162MOL0     H21353   8.114   5.624   9.573 -1.5123 -0.3021 -1.8110
  162MOL0     H21354   8.287   5.748   9.693 -0.0210 -0.2196  3.2570
  162MOL0     H21355   8.166   5.722   9.821 -4.1895  1.8556  1.1670
  162MOL0     H21356   8.139   5.981   9.667  1.5272 -0.8293 -1.2319
  162MOL0     H21357   8.097   5.945   9.832  0.1486  2.8687 -0.4960
  162MOL0     H21358   8.344   5.930   9.898 -4.1809 -0.1821  2.9290
  162MOL0     H21359   8.296   6.086   9.854  0.5156 -0.6335  1.1280
  162MOL0     H21360   8.362   6.043   9.611 -1.1789  0.3599  1.0513
  162MOL0     H21361   8.419   5.885   9.653 -2.9509  0.3970 -1.6617
  162MOL0     H21362   8.514   6.133   9.811  0.4290 -3.5193  3.2468
  162MOL0     H21363   8.606   5.989   9.776  0.1107  0.0359  1.0477
  162MOL0     H21364   8.552   6.224   9.599  1.1411  1.9514  3.3331
  162MOL0     H21365   8.638   6.071   9.557 -1.7838 -0.6452  0.7106
  162MOL0     H21366   7.953   5.515  10.019 -0.6207 -2.2262  1.7483
  162MOL0     H21367   7.755   5.412  10.128  0.0688 -1.5139  0.0061
  162MOL0     H21368   7.141   5.421  10.039 -0.5484 -0.1454 -1.0076
  162MOL0     H21369   6.975   5.276  10.100 -1.2448 -2.0074 -0.7694
  162MOL0     H21370   5.261   5.467  10.613 -0.3577  1.2695  0.0484
  162MOL0     H21371   5.035   5.422  10.572  0.6449  0.7549 -0.2652
  162MOL0     H21372   4.689   5.381  10.469 -0.0732 -0.8403  0.4679
  162MOL0     H21373   4.466   5.277  10.462 -0.7802  0.2774  2.7717
  162MOL0     H21374   4.093   5.543  10.378 -0.4844  0.7718  0.8359
  162MOL0     H21375   4.196   5.556  10.512 -0.6586  0.3723  1.6546
  162MOL0     H21376   3.976   5.344  10.476  2.2377 -2.0440 -0.0667
  162MOL0     H21377   4.083   5.340  10.603 -0.5118  0.5039  1.0111
  162MOL0     H21378   4.034   5.581  10.666 -0.5406  0.3671 -0.7909
  162MOL0     H21379   3.909   5.469  10.694 -1.4734 -0.0107 -1.9251
  162MOL0     H21380   3.828   5.535  10.443  0.3813  0.9976 -1.0968
  162MOL0     H21381   3.766   5.616  10.585 -1.4601  0.4876 -2.2588
  162MOL0     H21382   4.016   5.905  10.407 -0.4310  0.8080 -1.7584
  162MOL0     H21383   4.297   5.629  10.296  1.4182  1.7615 -1.5569
  162MOL0     H21384   4.517   5.732  10.300  0.3403  0.0454 -1.3909
  163MOL0     O21385   9.010   0.316  10.096 -0.1943 -0.9682  0.1382
  163MOL0     C21386   9.016   0.362  10.209 -0.3122  0.1593 -0.5628
  163MOL0     O21387   8.925   0.329  10.310 -0.5176 -0.7517  0.7056
  163MOL0     C21388   8.805   0.265  10.286  0.2587 -0.4249  0.2008
  163MOL0     C21389   8.718   0.295  10.176  0.4654 -0.6047 -0.2801
  163MOL0     C21390   8.595   0.222  10.158  0.6326 -0.6901 -0.4859
  163MOL0     C21391   8.537   0.149  10.266  0.3710 -0.1131 -0.3187
  163MOL0     O21392   8.414   0.080  10.265  0.0586 -0.5373 -0.3201
  163MOL0     C21393   8.370   0.024  10.140 -0.3487 -1.2018 -0.0854
  163MOL0     C21394   8.226  -0.025  10.163  0.6393  0.6527 -0.6715
  163MOL0     C21395   8.171  -0.097  10.043 -0.0537  0.7346 -0.1860
  163MOL0     C21396   8.246  -0.221   9.987  0.0066  0.8777  0.0086
  163MOL0     C21397   8.199  -0.259   9.842  0.7345  0.3523  0.6253
  163MOL0     C21398   8.049  -0.276   9.819 -0.0192  1.0475  0.2604
  163MOL0     C21399   7.992  -0.394   9.905 -0.2930  1.1896 -0.4695
  163MOL0     C21400   8.009  -0.534   9.848 -1.0046  0.1210  0.2370
  163MOL0     N21401   7.937  -0.561   9.724 -0.0422 -0.0391 -0.3403
  163MOL0     C21402   7.802  -0.568   9.728  0.2166  0.2204 -0.1837
  163MOL0     C21403   7.758  -0.556   9.595 -0.6329 -0.3945 -0.6357
  163MOL0     C21404   7.620  -0.576   9.557  0.8828  0.3342  0.5117
  163MOL0     C21405   7.555  -0.437   9.558 -0.7733  0.5226  0.9788
  163MOL0     C21406   7.421  -0.423   9.480 -0.9341  0.9528 -0.3331
  163MOL0     C21407   7.301  -0.493   9.551  0.3592  0.1755  0.3587
  163MOL0     O21408   7.190  -0.435   9.477 -0.5038  0.7528 -0.5674
  163MOL0     C21409   7.066  -0.486   9.488  0.1997 -0.4381 -0.4605
  163MOL0     C21410   6.991  -0.504   9.373 -0.7326 -0.3975  0.1792
  163MOL0     C21411   6.880  -0.581   9.368 -0.7304  0.9666  0.6512
  163MOL0     C21412   6.828  -0.630   9.485  0.2656  0.2553 -1.4576
  163MOL0     C21413   6.708  -0.725   9.481 -0.9666 -0.0856 -1.2376
  163MOL0     O21414   6.661  -0.752   9.610  0.8697  0.0242  0.0980
  163MOL0     C21415   6.544  -0.820   9.605  0.3835 -0.4555 -0.1962
  163MOL0     C21416   6.544  -0.954   9.592 -0.2886  0.7269 -0.3515
  163MOL0     C21417   6.422  -1.022   9.572 -0.4955  0.3727 -0.9456
  163MOL0     C21418   6.298  -0.955   9.591  0.5677  0.3400  0.1572
  163MOL0     O21419   6.197  -1.041   9.566  0.1076 -0.3694 -0.6026
  163MOL0     C21420   6.067  -0.966   9.572  0.2208  1.1974 -0.2178
  163MOL0     C21421   5.949  -1.076   9.567 -0.9112 -0.4490 -0.2041
  163MOL0     C21422   5.950  -1.145   9.430  0.4700  0.3658  0.9902
  163MOL0     C21423   5.908  -1.050   9.318 -1.1428 -0.1226 -0.2673
  163MOL0     C21424   5.768  -0.995   9.348  0.4307 -0.7017  0.1845
  163MOL0     C21425   5.697  -0.944   9.217 -0.1785 -0.4390 -0.1607
  163MOL0     C21426   5.550  -0.894   9.246 -0.3235 -0.2536 -0.6584
  163MOL0     C21427   5.446  -0.950   9.148 -0.0685  0.6425 -0.0965
  163MOL0    Cl21428   5.285  -0.893   9.199  0.0990 -0.1312  0.9337
  163MOL0     C21429   6.300  -0.821   9.619  0.2260 -0.2663 -0.4332
  163MOL0     C21430   6.425  -0.750   9.623  0.0395  0.6189  0.1640
  163MOL0     O21431   6.650  -0.747   9.373 -0.4392 -0.3552 -0.7629
  163MOL0     C21432   6.891  -0.598   9.610 -1.1155  0.5647  0.1844
  163MOL0     C21433   7.012  -0.526   9.611  0.0884  0.1617 -0.1580
  163MOL0     N21434   7.864  -0.521   9.521  0.2651 -0.3231  0.0327
  163MOL0     N21435   7.967  -0.539   9.591 -0.3936  0.4998  0.1314
  163MOL0     C21436   8.620   0.140  10.383  0.0802 -0.0515 -0.9596
  163MOL0     C21437   8.744   0.195  10.393  0.1385 -0.3409  0.3191
  163MOL0     C21438   9.141   0.435  10.239 -0.2412 -0.3119 -0.0726
  163MOL0     C21439   9.197   0.424  10.372  0.9238 -0.3410  0.1744
  163MOL0     C21440   9.323   0.478  10.396  0.9477 -0.0230  0.0845
  163MOL0     C21441   9.398   0.556  10.295 -0.3412  0.0411 -0.4242
  163MOL0     O21442   9.522   0.612  10.304  0.7165 -0.6094 -0.0013
  163MOL0     C21443   9.598   0.602  10.423  0.2119  0.0555  0.5144
  163MOL0     C21444   9.713   0.702  10.426 -0.1623 -0.2769  0.0739
  163MOL0     C21445   9.821   0.685  10.323 -0.5681  0.3157  0.4464
  163MOL0     C21446   9.927   0.794  10.332 -0.9300  0.5468 -0.0374
  163MOL0     C21447  10.035   0.775  10.435 -0.1052 -0.2939  0.4753
  163MOL0     C21448  10.135   0.774  10.499  0.6787  0.1339 -0.0060
  163MOL0     C21449   9.333   0.566  10.168 -0.6139  0.0043  1.0799
  163MOL0     C21450   9.215   0.499  10.139  0.9664  0.1853 -0.7415
  163MOL0     H21451   8.756   0.339  10.084  0.6962 -2.1597 -0.9660
  163MOL0     H21452   8.534   0.226  10.068 -0.7138 -0.8481  0.3932
  163MOL0     H21453   8.440  -0.041  10.087  0.7621  2.8801 -4.3009
  163MOL0     H21454   8.351   0.108  10.072  2.2492  1.9649  2.7483
  163MOL0     H21455   8.163   0.059  10.193 -0.7913 -0.9427  1.0394
  163MOL0     H21456   8.216  -0.103  10.240 -1.5140 -0.5763 -2.0768
  163MOL0     H21457   8.173  -0.032   9.956 -0.1490  0.2419 -0.5656
  163MOL0     H21458   8.066  -0.115  10.068 -0.1545 -1.7626 -1.9694
  163MOL0     H21459   8.354  -0.205   9.990  0.1736 -0.1035  3.8369
  163MOL0     H21460   8.225  -0.306  10.052  0.0344 -1.5495 -2.9324
  163MOL0     H21461   8.256  -0.350   9.818  1.8228  0.4167  2.7909
  163MOL0     H21462   8.225  -0.181   9.771 -3.3286  0.1823 -1.3412
  163MOL0     H21463   8.015  -0.281   9.715  1.1199  1.5191 -0.1549
  163MOL0     H21464   7.997  -0.190   9.862 -3.1916 -0.9280  0.7164
  163MOL0     H21465   8.038  -0.392  10.004 -0.4497 -0.9019 -0.3173
  163MOL0     H21466   7.885  -0.387   9.930 -0.4350 -0.4609 -0.5012
  163MOL0     H21467   7.983  -0.614   9.917 -2.8289  0.8412  0.4507
  163MOL0     H21468   8.113  -0.553   9.819 -0.5222  2.1395  0.4751
  163MOL0     H21469   7.742  -0.609   9.809  0.9347 -2.5672 -0.9323
  163MOL0     H21470   7.563  -0.636   9.628 -0.9511  3.0034  1.4410
  163MOL0     H21471   7.622  -0.605   9.452 -1.4096  2.5585 -0.2419
  163MOL0     H21472   7.616  -0.368   9.499 -0.4944  0.4604  1.1959
  163MOL0     H21473   7.530  -0.407   9.660  0.0776  2.7073  0.5895
  163MOL0     H21474   7.397  -0.317   9.478 -0.8170  1.0017  0.6467
  163MOL0     H21475   7.436  -0.451   9.375 -3.0743  1.1159 -0.7304
  163MOL0     H21476   7.305  -0.482   9.660  0.1244  1.7546  0.2232
  163MOL0     H21477   7.300  -0.601   9.532 -2.5206  0.0181  0.8759
  163MOL0     H21478   7.034  -0.465   9.281 -0.2137 -0.2569  0.4769
  163MOL0     H21479   6.837  -0.597   9.270 -0.0418  2.6986  0.0343
  163MOL0     H21480   6.631  -1.018   9.593  0.0125  1.1289 -0.6448
  163MOL0     H21481   6.414  -1.130   9.565  1.9794  0.1138 -0.4675
  163MOL0     H21482   6.054  -0.896   9.488 -3.6492  0.7427 -0.1861
  163MOL0     H21483   6.056  -0.920   9.670  0.0906 -1.5777  1.1529
  163MOL0     H21484   5.848  -1.040   9.592  0.5631  1.6334  3.6785
  163MOL0     H21485   5.971  -1.143   9.650 -1.6137  1.7767  1.9231
  163MOL0     H21486   5.872  -1.221   9.422 -0.2114  1.1094  0.3399
  163MOL0     H21487   6.048  -1.189   9.412 -0.6967 -1.8549 -0.3909
  163MOL0     H21488   5.986  -0.973   9.314  1.0097 -2.1341  0.1323
  163MOL0     H21489   5.912  -1.111   9.227 -3.6618  0.7755 -1.0588
  163MOL0     H21490   5.790  -0.913   9.418  1.0635 -0.1604 -0.6247
  163MOL0     H21491   5.695  -1.066   9.388  0.2622 -0.6418 -0.0187
  163MOL0     H21492   5.690  -1.026   9.145 -0.0875  3.1167 -4.6576
  163MOL0     H21493   5.751  -0.864   9.167  0.2183 -1.2989 -1.1346
  163MOL0     H21494   5.520  -0.937   9.341  1.0980 -2.3334 -1.0656
  163MOL0     H21495   5.549  -0.785   9.254 -0.2250 -0.1673 -1.6204
  163MOL0     H21496   5.430  -1.059   9.149 -0.7969  0.7264 -1.4885
  163MOL0     H21497   5.464  -0.918   9.045 -0.7624  0.4766 -0.2756
  163MOL0     H21498   6.207  -0.767   9.632 -0.1864 -1.3771  1.7563
  163MOL0     H21499   6.414  -0.643   9.642  0.9228  0.6088  0.8301
  163MOL0     H21500   6.856  -0.635   9.706  3.0977  1.7606  2.3914
  163MOL0     H21501   7.069  -0.506   9.701  1.2182 -2.5871 -0.1695
  163MOL0     H21502   8.568   0.084  10.461  0.2810  2.4211  1.0944
  163MOL0     H21503   8.792   0.179  10.489  0.5865  1.1221  0.3643
  163MOL0     H21504   9.155   0.355  10.445 -0.4690 -1.4169 -1.5540
  163MOL0     H21505   9.361   0.466  10.497 -1.1591 -1.3040  0.7970
  163MOL0     H21506   9.652   0.508  10.411  2.4241  1.3722 -0.3987
  163MOL0     H21507   9.534   0.607  10.512 -0.0346  2.4993  0.2651
  163MOL0     H21508   9.670   0.803  10.423  0.3190 -0.0418  0.9521
  163MOL0     H21509   9.760   0.683  10.523  1.8245  1.8264 -0.3772
  163MOL0     H21510   9.770   0.681  10.227  2.3856  0.7252 -1.2590
  163MOL0     H21511   9.864   0.585  10.337  1.2904  1.0721  0.5300
  163MOL0     H21512   9.986   0.791  10.240  0.8484  1.1045  1.0215
  163MOL0     H21513   9.881   0.893  10.343 -1.8297 -0.1152  3.4148
  163MOL0     H21514  10.219   0.770  10.565  1.4462  1.2315 -0.8749
  163MOL0     H21515   9.373   0.630  10.090 -1.6899  1.0791  1.3821
  163MOL0     H21516   9.164   0.500  10.043 -0.7367 -0.3271  0.1228
  164MOL0     O21517   6.550   6.408   0.585 -0.5010  0.1238 -0.6670
  164MOL0     C21518   6.559   6.419   0.466 -0.5959  0.0385  0.5611
  164MOL0     O21519   6.462   6.421   0.374  0.4077  0.1080  0.2571
  164MOL0     C21520   6.327   6.443   0.409  0.3990 -0.1634  0.3981
  164MOL0     C21521   6.235   6.438   0.304  0.1585 -0.0756  0.1252
  164MOL0     C21522   6.101   6.451   0.325  0.1788 -0.1719 -0.1463
  164MOL0     C21523   6.044   6.477   0.449 -0.3294 -0.5665 -0.3142
  164MOL0     O21524   5.914   6.496   0.458 -0.3589 -0.0995  0.0624
  164MOL0     C21525   5.850   6.520   0.580  0.3370 -0.3549  0.2036
  164MOL0     C21526   5.705   6.489   0.576 -0.9381  0.7991 -0.7313
  164MOL0     C21527   5.598   6.596   0.564  0.0374 -0.0488  0.1910
  164MOL0     C21528   5.459   6.553   0.613 -0.2121 -0.7507  0.7659
  164MOL0     C21529   5.354   6.656   0.572 -0.4418  0.2117  0.1558
  164MOL0     C21530   5.360   6.787   0.644  0.4182 -0.4409  0.0672
  164MOL0     C21531   5.248   6.873   0.595 -0.4492  0.0508 -0.4629
  164MOL0     C21532   5.265   7.015   0.648  0.3846  0.1330  0.2053
  164MOL0     N21533   5.145   7.090   0.619 -0.0540  0.3667 -0.3492
  164MOL0     C21534   5.113   7.182   0.524 -0.0580  0.6719 -0.1780
  164MOL0     C21535   4.987   7.228   0.548 -0.4356  0.2810  0.0310
  164MOL0     C21536   4.930   7.345   0.475  0.9735 -0.7069  0.8695
  164MOL0     C21537   4.796   7.370   0.528  0.3260  0.4540 -0.2490
  164MOL0     C21538   4.696   7.263   0.492  0.9427  0.2898  1.0690
  164MOL0     C21539   4.552   7.305   0.509 -0.4212 -0.7766  0.2123
  164MOL0     O21540   4.471   7.204   0.457 -0.1250 -0.5647 -0.1073
  164MOL0     C21541   4.339   7.222   0.485 -0.0025  0.5313  0.2896
  164MOL0     C21542   4.265   7.101   0.523 -0.3394 -0.3720 -0.1350
  164MOL0     C21543   4.131   7.105   0.563  0.4992 -0.7023 -0.1119
  164MOL0     C21544   4.059   7.223   0.538  0.5159  0.6617  1.0310
  164MOL0     C21545   3.911   7.233   0.569 -0.2311  0.3850 -0.5304
  164MOL0     O21546   3.856   7.148   0.663 -0.3634  0.4255  0.1778
  164MOL0     C21547   3.722   7.143   0.685 -0.5731  0.4514 -0.0193
  164MOL0     C21548   3.656   7.267   0.707  1.0586  0.3733 -0.1865
  164MOL0     C21549   3.514   7.255   0.728  0.2994 -0.2220  0.0146
  164MOL0     C21550   3.442   7.131   0.725 -0.1314 -0.7678 -0.5695
  164MOL0     O21551   3.311   7.134   0.755  0.1139  0.5961 -0.7573
  164MOL0     C21552   3.234   7.026   0.679 -0.3399 -0.2077  0.0147
  164MOL0     C21553   3.090   7.070   0.661 -0.6228  0.2916 -0.7543
  164MOL0     C21554   3.007   7.098   0.785  0.3780  0.9285 -0.7151
  164MOL0     C21555   2.874   7.164   0.751 -0.5479  0.7563 -0.4534
  164MOL0     C21556   2.800   7.205   0.885  0.3616  0.6047 -0.6436
  164MOL0     C21557   2.653   7.252   0.855 -0.3791  0.1288 -0.8322
  164MOL0     C21558   2.600   7.332   0.976  0.7789  0.0591  0.3169
  164MOL0     C21559   2.658   7.474   0.966 -0.1332  0.5292  0.7713
  164MOL0    Cl21560   2.611   7.560   0.819 -0.3764 -0.1544  0.0446
  164MOL0     C21561   3.516   7.014   0.700 -0.3441 -0.4315 -0.0800
  164MOL0     C21562   3.655   7.022   0.679 -0.6043 -0.7179 -0.4353
  164MOL0     O21563   3.846   7.315   0.500 -0.6744 -0.1223  0.2752
  164MOL0     C21564   4.124   7.342   0.495  0.3594  0.4166 -0.5259
  164MOL0     C21565   4.263   7.343   0.468 -0.4328  0.6423 -0.3248
  164MOL0     N21566   4.944   7.171   0.671  0.0140 -0.1458  0.4902
  164MOL0     N21567   5.047   7.101   0.711  0.0058 -0.3463 -0.2395
  164MOL0     C21568   6.136   6.492   0.551 -0.1071 -0.1271 -0.6264
  164MOL0     C21569   6.275   6.487   0.530 -0.4543  0.1260 -0.9182
  164MOL0     C21570   6.689   6.408   0.416 -0.5292  0.2549  1.2472
  164MOL0     C21571   6.705   6.391   0.273  0.2843  0.0918  0.3615
  164MOL0     C21572   6.838   6.387   0.220  0.6489 -0.3771 -0.3017
  164MOL0     C21573   6.953   6.403   0.300 -0.0739  1.1488  0.3082
  164MOL0     O21574   7.075   6.390   0.245 -0.1045 -0.3939 -0.0715
  164MOL0     C21575   7.203   6.431   0.303 -0.2153 -0.1560  0.7223
  164MOL0     C21576   7.315   6.405   0.213  0.3612 -0.6073  0.1567
  164MOL0     C21577   7.451   6.474   0.254  0.3825 -0.2682 -0.2521
  164MOL0     C21578   7.503   6.413   0.385 -0.2859 -1.1189 -1.1119
  164MOL0     C21579   7.599   6.301   0.364 -0.0492 -0.4488 -0.9284
  164MOL0     C21580   7.689   6.218   0.374  0.2098 -0.4034 -0.7730
  164MOL0     C21581   6.935   6.429   0.430 -0.0900  0.3089 -0.8099
  164MOL0     C21582   6.810   6.434   0.483  0.2641  0.3273  1.0608
  164MOL0     H21583   6.263   6.415   0.201 -0.4930  1.0977 -0.3392
  164MOL0     H21584   6.042   6.440   0.235 -0.9898  2.8792  0.1149
  164MOL0     H21585   5.870   6.623   0.610 -2.4489  0.5890 -0.8609
  164MOL0     H21586   5.881   6.440   0.649 -3.2290 -0.0190  2.4559
  164MOL0     H21587   5.678   6.443   0.671 -1.4697  3.0345  0.2599
  164MOL0     H21588   5.683   6.405   0.509 -0.8347 -3.1333  3.6191
  164MOL0     H21589   5.599   6.617   0.456 -0.3593  0.6817  0.3267
  164MOL0     H21590   5.622   6.688   0.618 -0.1723  1.2270 -1.7523
  164MOL0     H21591   5.440   6.453   0.573 -0.7780 -1.3760  2.5119
  164MOL0     H21592   5.463   6.537   0.721  0.3303  0.6903  0.9839
  164MOL0     H21593   5.255   6.610   0.577  1.0033 -3.2681 -0.1191
  164MOL0     H21594   5.376   6.670   0.466  0.9359 -2.7710 -0.0718
  164MOL0     H21595   5.453   6.843   0.629 -0.1709  0.0981 -1.8575
  164MOL0     H21596   5.341   6.757   0.748 -4.9130 -4.7645 -1.6881
  164MOL0     H21597   5.256   6.881   0.486 -0.7801  1.2366 -0.4167
  164MOL0     H21598   5.150   6.827   0.613 -0.4543  0.5613  0.9511
  164MOL0     H21599   5.349   7.067   0.601 -0.3499  1.1285 -0.0380
  164MOL0     H21600   5.282   7.023   0.756 -0.7666 -0.8844  0.4947
  164MOL0     H21601   5.174   7.217   0.441  0.6848  0.8701  0.4453
  164MOL0     H21602   4.926   7.325   0.368  1.1477  2.7182  0.1105
  164MOL0     H21603   4.991   7.433   0.496 -1.2636  0.6179  2.3143
  164MOL0     H21604   4.768   7.469   0.491  2.6944  1.6095  0.8045
  164MOL0     H21605   4.795   7.379   0.637 -1.3242  3.7984 -0.4074
  164MOL0     H21606   4.704   7.241   0.386  0.8536  2.5891  0.5319
  164MOL0     H21607   4.707   7.172   0.552 -2.5685  0.5601  2.3901
  164MOL0     H21608   4.533   7.393   0.448 -2.1058 -1.6380 -0.5681
  164MOL0     H21609   4.537   7.330   0.614 -1.6541 -0.4692 -0.0227
  164MOL0     H21610   4.314   7.004   0.521  2.8272  1.0908 -0.1747
  164MOL0     H21611   4.072   7.020   0.595  1.5471 -2.0061 -1.4737
  164MOL0     H21612   3.708   7.361   0.715  0.2706  0.8865 -0.9593
  164MOL0     H21613   3.455   7.341   0.756 -0.4334 -1.0885  1.2071
  164MOL0     H21614   3.249   6.930   0.729  1.0045 -1.0416 -1.8592
  164MOL0     H21615   3.274   7.012   0.578 -0.3349  0.6518 -0.1128
  164MOL0     H21616   3.037   6.990   0.608 -3.0376  1.6078 -0.4404
  164MOL0     H21617   3.096   7.160   0.599  2.3382  0.9089  0.2804
  164MOL0     H21618   3.059   7.165   0.854 -0.8341  1.3861 -0.2229
  164MOL0     H21619   2.982   7.005   0.838  0.9446  1.8480  1.2760
  164MOL0     H21620   2.891   7.252   0.690 -0.8881  0.9958 -0.2100
  164MOL0     H21621   2.809   7.092   0.700 -2.1826 -0.2590  2.7537
  164MOL0     H21622   2.864   7.284   0.926  1.5940  0.4844 -2.2370
  164MOL0     H21623   2.793   7.117   0.949  2.6675  1.7055  1.2848
  164MOL0     H21624   2.585   7.167   0.843 -1.3223  0.4277  1.7404
  164MOL0     H21625   2.649   7.322   0.771 -1.1130  2.7006  1.1953
  164MOL0     H21626   2.492   7.343   0.961  0.7384  1.0907  1.2516
  164MOL0     H21627   2.613   7.279   1.071 -1.0380  1.3700  1.3699
  164MOL0     H21628   2.767   7.481   0.977 -0.0760  0.9119 -0.0183
  164MOL0     H21629   2.625   7.526   1.057 -1.1967  0.7985  0.2387
  164MOL0     H21630   3.458   6.923   0.709 -0.6670 -0.3276 -1.0255
  164MOL0     H21631   3.700   6.931   0.640 -3.3366 -2.0146 -0.7585
  164MOL0     H21632   4.070   7.436   0.486  1.8937  1.1513 -3.1760
  164MOL0     H21633   4.313   7.435   0.443 -0.5871  1.3061  1.5986
  164MOL0     H21634   6.101   6.521   0.650  3.2130 -0.2113  0.7022
  164MOL0     H21635   6.346   6.492   0.612  0.1791 -0.9700 -1.3625
  164MOL0     H21636   6.629   6.362   0.202 -0.8462 -3.4764  2.7591
  164MOL0     H21637   6.849   6.362   0.115  0.4660 -1.4420 -0.0779
  164MOL0     H21638   7.224   6.379   0.396  1.1847 -0.7730  0.0862
  164MOL0     H21639   7.192   6.539   0.318 -2.3909 -0.2556  0.1640
  164MOL0     H21640   7.330   6.296   0.213  1.1996 -0.5107  1.5194
  164MOL0     H21641   7.293   6.438   0.111  0.3390 -1.0220  0.0249
  164MOL0     H21642   7.422   6.578   0.269  2.9552  0.8260 -2.1177
  164MOL0     H21643   7.523   6.486   0.172 -1.9044  0.0399 -2.3554
  164MOL0     H21644   7.562   6.488   0.439 -0.0186 -1.5183 -0.8365
  164MOL0     H21645   7.419   6.377   0.446 -0.7076 -1.2118 -1.7388
  164MOL0     H21646   7.763   6.142   0.379  0.0351 -0.5936 -1.0625
  164MOL0     H21647   7.017   6.455   0.496 -0.2774 -0.8067 -0.1103
  164MOL0     H21648   6.817   6.451   0.590  1.3768 -1.9661  1.4109
  165MOL0     O21649   8.703   5.630   9.297 -0.5909 -0.0630 -0.1133
  165MOL0     C21650   8.723   5.738   9.353 -0.0999  0.1661  0.2597
  165MOL0     O21651   8.635   5.844   9.340  1.0931  0.5379  0.5467
  165MOL0     C21652   8.518   5.812   9.282  0.2051  0.2714 -0.7810
  165MOL0     C21653   8.408   5.755   9.352  0.4289  0.7088 -0.4960
  165MOL0     C21654   8.291   5.705   9.299  0.4191 -0.2093 -0.3027
  165MOL0     C21655   8.276   5.715   9.159 -0.5846 -0.4599 -0.4190
  165MOL0     O21656   8.165   5.664   9.099 -0.3594 -0.6275 -0.1146
  165MOL0     C21657   8.146   5.519   9.100  0.5662  0.2129  0.4098
  165MOL0     C21658   8.001   5.481   9.150  0.3925 -0.1152 -0.0920
  165MOL0     C21659   7.975   5.528   9.294  0.6868  0.0141  0.0840
  165MOL0     C21660   7.844   5.468   9.342  0.4847 -0.2327  0.6756
  165MOL0     C21661   7.712   5.531   9.283  0.1922 -0.8427  0.4446
  165MOL0     C21662   7.582   5.470   9.347  0.0091  0.4398  0.5224
  165MOL0     C21663   7.448   5.513   9.286 -0.7301  0.1703  0.5869
  165MOL0     C21664   7.423   5.669   9.290 -0.5845 -0.2056  0.0955
  165MOL0     N21665   7.302   5.693   9.228 -0.1978  0.1838 -0.0729
  165MOL0     C21666   7.270   5.651   9.108  0.4898 -0.0290 -0.0194
  165MOL0     C21667   7.147   5.714   9.074 -0.8127  0.5652 -1.0395
  165MOL0     C21668   7.082   5.692   8.941 -0.2796  0.5959  0.1171
  165MOL0     C21669   6.935   5.736   8.949 -0.4029  0.8090  0.4167
  165MOL0     C21670   6.888   5.880   8.970  0.2617  0.6497  0.4919
  165MOL0     C21671   6.739   5.895   8.966  0.1172 -0.6352 -0.0742
  165MOL0     O21672   6.672   5.838   9.073 -0.0075  0.2368 -0.8222
  165MOL0     C21673   6.533   5.834   9.068  0.8532 -0.2909  0.0442
  165MOL0     C21674   6.438   5.900   8.976 -1.3288 -1.0315 -0.3540
  165MOL0     C21675   6.307   5.875   8.988  1.4308  0.0143  0.2089
  165MOL0     C21676   6.253   5.804   9.093 -0.0499  0.7304 -0.1280
  165MOL0     C21677   6.108   5.787   9.114 -0.5438 -0.8280 -0.0221
  165MOL0     O21678   6.077   5.707   9.222  0.8110  0.8178 -0.1805
  165MOL0     C21679   5.949   5.679   9.259 -0.2591 -0.5161  0.7209
  165MOL0     C21680   5.867   5.779   9.319 -0.8011  0.2056  0.4873
  165MOL0     C21681   5.734   5.751   9.363 -0.1329  0.0051  0.3064
  165MOL0     C21682   5.686   5.623   9.335 -0.7832 -0.7400 -1.1609
  165MOL0     O21683   5.555   5.602   9.370 -1.1701  0.6061  1.1141
  165MOL0     C21684   5.530   5.588   9.513 -0.3213  0.2944 -0.1422
  165MOL0     C21685   5.379   5.570   9.555  0.1437 -0.2077  0.2955
  165MOL0     C21686   5.288   5.515   9.451 -0.2087 -0.4190  0.3996
  165MOL0     C21687   5.156   5.471   9.503 -0.2460  0.6280  0.0792
  165MOL0     C21688   5.045   5.485   9.399 -0.2242 -0.5236  0.5617
  165MOL0     C21689   4.936   5.389   9.423  0.4744  1.1226  0.2204
  165MOL0     C21690   4.821   5.410   9.318  0.1829  0.5550  0.6706
  165MOL0     C21691   4.698   5.364   9.394 -0.0119 -0.3558  0.8688
  165MOL0    Cl21692   4.548   5.413   9.313  0.0536  0.7613 -0.0559
  165MOL0     C21693   5.768   5.525   9.272  0.5966  0.2771 -0.0120
  165MOL0     C21694   5.895   5.552   9.239  0.0269 -1.0237  1.2512
  165MOL0     O21695   6.035   5.855   9.045 -0.3252 -0.5757 -0.0784
  165MOL0     C21696   6.338   5.736   9.184 -0.2735 -0.9003  0.8494
  165MOL0     C21697   6.473   5.746   9.160  0.1182 -0.4429 -0.9087
  165MOL0     N21698   7.105   5.786   9.185 -0.0553  0.0743 -0.8125
  165MOL0     N21699   7.203   5.777   9.271  0.1960  0.7276  0.3992
  165MOL0     C21700   8.375   5.777   9.078  0.5637  0.0405  0.2053
  165MOL0     C21701   8.498   5.817   9.143  0.0144  0.3316 -0.1339
  165MOL0     C21702   8.832   5.755   9.446  0.7025  0.2013  0.5782
  165MOL0     C21703   8.858   5.885   9.490  0.4260 -0.4885 -0.3179
  165MOL0     C21704   8.956   5.903   9.585  0.5897  0.2130 -0.1618
  165MOL0     C21705   9.036   5.800   9.622  0.0667 -0.0130  0.0699
  165MOL0     O21706   9.153   5.813   9.700 -0.3086  0.5082  0.0658
  165MOL0     C21707   9.184   5.938   9.764 -0.4127 -0.7461  0.0070
  165MOL0     C21708   9.308   5.922   9.849  0.8395  0.1736 -0.0745
  165MOL0     C21709   9.407   5.827   9.771 -0.2304 -0.5476 -0.2444
  165MOL0     C21710   9.541   5.839   9.839 -0.5959  0.1866  0.4562
  165MOL0     C21711   9.620   5.715   9.829 -0.4251  0.0074 -0.0356
  165MOL0     C21712   9.670   5.607   9.808  0.2241 -0.1533  0.1675
  165MOL0     C21713   9.015   5.672   9.576 -0.1866 -0.1894 -0.2899
  165MOL0     C21714   8.914   5.653   9.483  0.2624 -0.0502 -0.2939
  165MOL0     H21715   8.421   5.756   9.460  0.7942  2.6407 -0.5144
  165MOL0     H21716   8.219   5.649   9.357 -0.2557  0.0128 -0.9024
  165MOL0     H21717   8.222   5.474   9.165  1.1570  0.4304 -0.1255
  165MOL0     H21718   8.148   5.479   8.998 -0.5014 -0.3803  0.5981
  165MOL0     H21719   7.996   5.372   9.137  0.2485  0.1041 -2.2988
  165MOL0     H21720   7.922   5.510   9.080 -1.7213 -3.7140  0.5405
  165MOL0     H21721   7.974   5.638   9.291 -0.5291  0.0706  1.2436
  165MOL0     H21722   8.046   5.486   9.365 -1.3180  2.6612  4.0391
  165MOL0     H21723   7.848   5.361   9.319 -4.9236 -0.5254 -0.2065
  165MOL0     H21724   7.833   5.477   9.451 -1.5234  1.0839  0.4048
  165MOL0     H21725   7.708   5.527   9.173  2.4865 -1.7819  0.3641
  165MOL0     H21726   7.712   5.640   9.294  3.0624 -0.6281 -0.7851
  165MOL0     H21727   7.578   5.486   9.455  0.6094  1.0925  0.4551
  165MOL0     H21728   7.598   5.364   9.325  0.3198  0.7792 -1.0746
  165MOL0     H21729   7.455   5.481   9.182  3.3344 -1.0660  1.0542
  165MOL0     H21730   7.365   5.465   9.339  0.5806  0.0171  2.6143
  165MOL0     H21731   7.498   5.721   9.229 -0.8112  1.2293  1.0065
  165MOL0     H21732   7.415   5.702   9.394 -0.7444 -2.5927  0.8929
  165MOL0     H21733   7.337   5.590   9.048  1.9689  3.6211 -2.4369
  165MOL0     H21734   7.075   5.584   8.927  1.4319  0.1005  2.4980
  165MOL0     H21735   7.145   5.730   8.861 -1.6458  1.9048 -0.4046
  165MOL0     H21736   6.885   5.678   9.028 -2.4426  1.0856 -0.6013
  165MOL0     H21737   6.894   5.708   8.851  1.9825  1.7933 -0.9367
  165MOL0     H21738   6.921   5.901   9.073 -1.3245  0.8412  0.9881
  165MOL0     H21739   6.935   5.941   8.893 -1.8485 -0.5829 -1.9131
  165MOL0     H21740   6.711   5.838   8.877 -1.1189 -0.2014  0.0249
  165MOL0     H21741   6.707   5.997   8.944  0.9822 -0.5950 -1.2128
  165MOL0     H21742   6.474   5.967   8.898 -0.0513  1.3167  2.0611
  165MOL0     H21743   6.248   5.940   8.924  2.1551  0.0934 -0.3978
  165MOL0     H21744   5.903   5.880   9.334  0.8985 -0.6504  2.5980
  165MOL0     H21745   5.693   5.832   9.422 -0.6491  2.1675 -2.7740
  165MOL0     H21746   5.557   5.677   9.572 -0.4261 -0.3096  0.8354
  165MOL0     H21747   5.586   5.515   9.572  0.0761 -0.0172 -0.9030
  165MOL0     H21748   5.344   5.671   9.579 -0.1104  0.0644 -1.1227
  165MOL0     H21749   5.383   5.501   9.640  1.1392  0.9850  1.2736
  165MOL0     H21750   5.336   5.431   9.400  0.6749  1.0080 -1.2311
  165MOL0     H21751   5.266   5.595   9.380  0.1423 -0.4678  0.2341
  165MOL0     H21752   5.167   5.367   9.537  2.3063  1.7966  3.2398
  165MOL0     H21753   5.128   5.534   9.588 -4.1433  3.1834 -2.7181
  165MOL0     H21754   5.087   5.469   9.299 -2.0704 -0.2653 -0.2904
  165MOL0     H21755   5.017   5.591   9.406 -0.8416 -0.7005  0.8373
  165MOL0     H21756   4.904   5.383   9.527 -2.8332  0.1092 -0.7208
  165MOL0     H21757   4.985   5.293   9.401  0.6142  0.8194  1.7557
  165MOL0     H21758   4.814   5.513   9.282 -1.9130 -0.4663 -2.3348
  165MOL0     H21759   4.839   5.359   9.223  0.4010  1.4016  0.2483
  165MOL0     H21760   4.699   5.405   9.495  1.1036 -3.2274  2.1392
  165MOL0     H21761   4.696   5.257   9.418 -2.4395 -0.3704  0.9333
  165MOL0     H21762   5.728   5.425   9.258  2.2292 -0.5025  0.6824
  165MOL0     H21763   5.949   5.464   9.206  1.4918  0.1510  0.3552
  165MOL0     H21764   6.310   5.675   9.269  1.2633 -0.7294  1.5238
  165MOL0     H21765   6.535   5.704   9.239  0.7782  2.7733  0.4427
  165MOL0     H21766   8.370   5.785   8.970  1.9107 -1.6969 -0.0367
  165MOL0     H21767   8.565   5.868   9.075 -1.9356  0.8566 -1.7312
  165MOL0     H21768   8.800   5.973   9.462  3.4712  0.8267 -3.2266
  165MOL0     H21769   8.974   6.005   9.615 -2.4087 -0.2397  3.9729
  165MOL0     H21770   9.106   5.972   9.834  0.7854  1.9985  0.1191
  165MOL0     H21771   9.202   6.018   9.692  1.9108 -0.5855  0.7109
  165MOL0     H21772   9.352   6.022   9.857  2.1774 -0.4411  0.6919
  165MOL0     H21773   9.281   5.881   9.946  1.6662  2.0275  0.9956
  165MOL0     H21774   9.410   5.847   9.664 -0.7623 -0.6894 -0.2888
  165MOL0     H21775   9.371   5.724   9.780  0.5041 -0.9604 -1.6943
  165MOL0     H21776   9.590   5.924   9.791 -2.5085  1.3849  0.5059
  165MOL0     H21777   9.522   5.867   9.943  0.1466  0.8712  0.4200
  165MOL0     H21778   9.726   5.519   9.783  0.7046  0.1430  0.1826
  165MOL0     H21779   9.074   5.587   9.608  3.5495  1.7026 -1.6253
  165MOL0     H21780   8.892   5.554   9.445 -2.6352  0.1547  0.6377
  166MOL0     O21781   1.691   6.785   2.522 -0.6916 -0.3618  0.2825
  166MOL0     C21782   1.632   6.895   2.538 -0.7857  0.2912 -0.0917
  166MOL0     O21783   1.692   7.010   2.577 -0.7739  0.0937  0.6095
  166MOL0     C21784   1.831   7.009   2.575  0.3566 -0.0967  0.1272
  166MOL0     C21785   1.906   7.061   2.471  0.3585  0.8000  0.3538
  166MOL0     C21786   2.041   7.055   2.475  0.1135  0.1426 -0.6502
  166MOL0     C21787   2.116   7.015   2.579  0.7472 -0.5293 -0.1332
  166MOL0     O21788   2.251   7.020   2.585  0.0024 -0.1977  0.2499
  166MOL0     C21789   2.300   7.128   2.661  0.4091 -0.0371 -0.3369
  166MOL0     C21790   2.421   7.180   2.591  0.3734  0.2734  0.2976
  166MOL0     C21791   2.494   7.281   2.671 -0.2251 -0.3452  1.0865
  166MOL0     C21792   2.624   7.324   2.604 -0.4191  0.0605 -0.6263
  166MOL0     C21793   2.696   7.432   2.681  0.0462 -0.2092 -0.4643
  166MOL0     C21794   2.849   7.426   2.631  0.1690 -0.1289  0.7054
  166MOL0     C21795   2.885   7.434   2.485  0.4800 -0.2538 -0.8124
  166MOL0     C21796   3.043   7.444   2.485 -0.9477 -0.6262  0.0624
  166MOL0     N21797   3.117   7.319   2.501 -0.0220  0.0299  0.1264
  166MOL0     C21798   3.074   7.189   2.503  0.1510 -0.6355  0.6589
  166MOL0     C21799   3.171   7.119   2.555 -0.0929  0.3001 -0.3610
  166MOL0     C21800   3.167   6.970   2.577  1.3667  0.3452 -0.1396
  166MOL0     C21801   3.079   6.930   2.701 -0.4790  0.2734  0.9659
  166MOL0     C21802   2.926   6.935   2.666 -0.0268  0.7179  0.5020
  166MOL0     C21803   2.838   6.934   2.785 -0.3222  0.7849  0.4598
  166MOL0     O21804   2.704   6.946   2.753 -0.0570  0.7233 -0.1699
  166MOL0     C21805   2.614   6.883   2.829  0.4081 -0.8515 -0.2630
  166MOL0     C21806   2.605   6.886   2.973  0.5479  1.0199  0.1619
  166MOL0     C21807   2.483   6.849   3.040 -0.7923 -0.5525  0.8216
  166MOL0     C21808   2.375   6.804   2.968 -0.5517  0.8912  0.3676
  166MOL0     C21809   2.255   6.742   3.043  0.4227  0.0360  0.1570
  166MOL0     O21810   2.165   6.673   2.967 -0.1037  0.1257  0.1585
  166MOL0     C21811   2.054   6.612   3.014  0.7436  0.8496 -0.1068
  166MOL0     C21812   2.031   6.471   3.002 -0.4748  0.1487 -0.2410
  166MOL0     C21813   1.914   6.413   3.057 -0.6900  0.0118 -0.5149
  166MOL0     C21814   1.821   6.494   3.124  0.1010  1.6145  0.5170
  166MOL0     O21815   1.700   6.447   3.170  0.2207 -0.6232  0.7775
  166MOL0     C21816   1.690   6.306   3.194  0.5013 -0.9463  0.3380
  166MOL0     C21817   1.550   6.270   3.258  0.0092 -0.4029 -0.5382
  166MOL0     C21818   1.558   6.141   3.342  0.6377  1.3742 -0.0449
  166MOL0     C21819   1.567   6.014   3.252  0.0868  0.3481 -0.4555
  166MOL0     C21820   1.503   5.897   3.320 -0.0477  0.0495 -0.3741
  166MOL0     C21821   1.581   5.846   3.440 -0.0503 -0.1887 -0.4348
  166MOL0     C21822   1.503   5.750   3.524 -0.0156  0.3180 -0.2674
  166MOL0     C21823   1.372   5.815   3.577  0.2607  0.0870 -0.3349
  166MOL0    Cl21824   1.417   5.983   3.640  0.3690  0.0165  0.1437
  166MOL0     C21825   1.846   6.632   3.135 -1.0547  0.6091  0.7882
  166MOL0     C21826   1.958   6.684   3.082  0.8870 -0.6640 -0.0050
  166MOL0     O21827   2.247   6.761   3.161  0.1707 -0.3557  0.2229
  166MOL0     C21828   2.380   6.806   2.823 -0.6912 -0.4779 -0.2468
  166MOL0     C21829   2.498   6.851   2.752  1.0352 -0.3645  0.5400
  166MOL0     N21830   3.283   7.200   2.559 -0.0715 -0.0229 -1.1081
  166MOL0     N21831   3.245   7.315   2.542  0.6855  0.0945  0.4382
  166MOL0     C21832   2.040   6.960   2.693  0.2485 -0.3004  0.0747
  166MOL0     C21833   1.898   6.949   2.681 -0.2061 -0.2258 -0.8304
  166MOL0     C21834   1.493   6.892   2.555  0.5774 -0.2091  0.1817
  166MOL0     C21835   1.424   7.015   2.564  0.1663 -0.2057  0.2186
  166MOL0     C21836   1.286   7.019   2.588 -0.5426  0.4138 -0.2918
  166MOL0     C21837   1.219   6.897   2.608 -0.0465  0.2273 -0.0293
  166MOL0     O21838   1.091   6.894   2.650  0.2779 -0.2573  0.3369
  166MOL0     C21839   1.031   6.789   2.734 -1.0048  0.0677  0.4024
  166MOL0     C21840   1.082   6.806   2.875 -0.3327  0.0781 -0.2045
  166MOL0     C21841   1.063   6.944   2.941  0.1250 -0.4532 -0.1962
  166MOL0     C21842   0.915   6.991   2.956  0.5027  0.5719 -0.0354
  166MOL0     C21843   0.811   6.889   2.986  0.3516 -0.2408  0.1781
  166MOL0     C21844   0.724   6.806   2.973  0.3831 -0.8708 -0.4223
  166MOL0     C21845   1.287   6.780   2.581 -0.2309 -0.1408 -0.1291
  166MOL0     C21846   1.421   6.773   2.554  0.4683 -0.4102 -0.5399
  166MOL0     H21847   1.856   7.120   2.395 -0.8119  0.0870  0.5517
  166MOL0     H21848   2.092   7.102   2.391  1.9558 -0.2644  0.1945
  166MOL0     H21849   2.322   7.100   2.765  0.1736  1.0647  0.0304
  166MOL0     H21850   2.237   7.218   2.663 -1.0117 -0.9285  3.4924
  166MOL0     H21851   2.383   7.219   2.496 -1.2299  0.1323  0.8569
  166MOL0     H21852   2.492   7.099   2.571 -2.4057 -2.5658  1.1078
  166MOL0     H21853   2.494   7.250   2.776  2.6417 -0.7744  1.0211
  166MOL0     H21854   2.426   7.367   2.660 -3.1027 -2.4645  1.2382
  166MOL0     H21855   2.686   7.235   2.610 -1.1765 -0.4757 -0.5739
  166MOL0     H21856   2.616   7.339   2.496  1.5534  2.2649 -0.5414
  166MOL0     H21857   2.689   7.408   2.788  1.0418  1.3989 -0.0038
  166MOL0     H21858   2.652   7.529   2.657  4.1181  1.7391 -0.8165
  166MOL0     H21859   2.903   7.339   2.669  1.5179  1.6331  3.0949
  166MOL0     H21860   2.894   7.517   2.674  1.0909  2.0696 -4.1871
  166MOL0     H21861   2.846   7.353   2.423  1.9673 -1.3731 -0.3470
  166MOL0     H21862   2.843   7.527   2.445  0.3158  1.7529  3.4048
  166MOL0     H21863   3.074   7.502   2.572 -2.6721  0.6096 -0.1075
  166MOL0     H21864   3.083   7.500   2.400  1.7920 -0.1415  1.5675
  166MOL0     H21865   2.976   7.156   2.472  0.4176 -1.7397  0.9390
  166MOL0     H21866   3.272   6.945   2.593  0.5132 -2.5197  1.8744
  166MOL0     H21867   3.138   6.912   2.489  2.2834  1.2495 -1.0667
  166MOL0     H21868   3.105   6.978   2.796  2.1913 -0.1408  0.5114
  166MOL0     H21869   3.114   6.827   2.716  1.9040  0.4249 -2.4529
  166MOL0     H21870   2.888   7.020   2.607 -3.0237 -1.1529 -0.5197
  166MOL0     H21871   2.903   6.849   2.602  1.1117  2.7342 -2.9046
  166MOL0     H21872   2.866   7.016   2.852  1.0190  1.4158 -0.7990
  166MOL0     H21873   2.853   6.841   2.841  0.3836  1.0289  0.6883
  166MOL0     H21874   2.693   6.920   3.027  3.1057 -1.1755 -2.3048
  166MOL0     H21875   2.467   6.852   3.147 -1.3051  1.8286  0.7492
  166MOL0     H21876   2.105   6.404   2.960 -2.8721 -2.0406 -1.2462
  166MOL0     H21877   1.914   6.305   3.058  1.0994 -0.0718  2.5540
  166MOL0     H21878   1.764   6.269   3.267  0.3909 -3.3101 -0.6391
  166MOL0     H21879   1.703   6.239   3.108  1.5221 -1.2689  0.7302
  166MOL0     H21880   1.471   6.276   3.182 -0.1279 -0.2464 -0.3845
  166MOL0     H21881   1.532   6.351   3.330 -1.7869 -1.1199 -0.1336
  166MOL0     H21882   1.471   6.135   3.409  2.1903 -0.9611  1.9379
  166MOL0     H21883   1.643   6.151   3.410  0.3707  0.4095  0.4545
  166MOL0     H21884   1.504   6.030   3.164  0.7323 -1.0983 -1.2247
  166MOL0     H21885   1.669   5.991   3.220 -0.7981 -3.1235 -1.1816
  166MOL0     H21886   1.502   5.818   3.244  1.1022  0.8223 -1.2253
  166MOL0     H21887   1.397   5.911   3.340 -0.2495 -1.9454  0.2225
  166MOL0     H21888   1.609   5.928   3.506 -2.7194  0.1845  0.3607
  166MOL0     H21889   1.676   5.806   3.404  0.7294 -0.2684  1.5789
  166MOL0     H21890   1.470   5.681   3.446 -0.8679  3.8171 -3.3168
  166MOL0     H21891   1.559   5.702   3.605 -3.1652 -0.3955  1.6289
  166MOL0     H21892   1.324   5.756   3.656  1.3970  3.7642  3.5088
  166MOL0     H21893   1.306   5.835   3.492  0.9547 -1.1029 -1.1845
  166MOL0     H21894   1.775   6.699   3.183 -1.7958 -1.0808  2.1460
  166MOL0     H21895   1.969   6.791   3.091 -2.0716  0.0956 -3.2411
  166MOL0     H21896   2.293   6.770   2.769 -0.6907 -1.6477  0.4912
  166MOL0     H21897   2.501   6.864   2.644  0.6143  0.1658  0.5872
  166MOL0     H21898   2.094   6.953   2.786  1.2136  0.8840 -0.3707
  166MOL0     H21899   1.842   6.921   2.769 -2.0563  1.8815 -1.2179
  166MOL0     H21900   1.489   7.102   2.554  1.9691 -1.4048  1.0566
  166MOL0     H21901   1.244   7.119   2.589  4.6357  2.9355 -1.8505
  166MOL0     H21902   1.044   6.688   2.695 -0.2773  1.3930 -3.1835
  166MOL0     H21903   0.923   6.800   2.742 -1.3704 -1.0737 -2.1350
  166MOL0     H21904   1.041   6.729   2.942  2.0802 -0.5241  0.6971
  166MOL0     H21905   1.189   6.784   2.883 -0.4019 -0.1273  0.2261
  166MOL0     H21906   1.118   7.020   2.884  0.0931 -1.3414 -1.4468
  166MOL0     H21907   1.111   6.923   3.038 -3.8951  1.1439  2.3921
  166MOL0     H21908   0.905   7.074   3.027  0.9477  1.9582 -1.5238
  166MOL0     H21909   0.879   7.029   2.860 -0.0787  0.3615  0.0977
  166MOL0     H21910   0.660   6.725   2.945  2.3448 -3.5139  2.0557
  166MOL0     H21911   1.222   6.695   2.593 -5.1008  3.2744  0.7063
  166MOL0     H21912   1.465   6.681   2.518  2.1910  1.4885 -3.7662
  167MOL0     O21913   7.233   0.727   6.657 -0.3213  0.2877  0.3324
  167MOL0     C21914   7.169   0.729   6.758  1.1385  0.7235  0.0560
  167MOL0     O21915   7.217   0.705   6.887  0.2260 -1.0211  0.5916
  167MOL0     C21916   7.349   0.666   6.923 -0.2976 -0.1154 -0.3620
  167MOL0     C21917   7.402   0.706   7.046 -0.0285 -0.3087 -0.1039
  167MOL0     C21918   7.536   0.690   7.079  0.2043 -0.8761 -0.1045
  167MOL0     C21919   7.613   0.602   6.997 -0.2057  0.1107 -0.2003
  167MOL0     O21920   7.748   0.570   7.019  0.3900 -0.1541  0.2933
  167MOL0     C21921   7.815   0.642   7.125 -0.6916  0.1774  0.7730
  167MOL0     C21922   7.958   0.597   7.120  0.8848  0.6281 -0.6676
  167MOL0     C21923   8.044   0.695   7.037 -0.0105 -0.5308  0.5510
  167MOL0     C21924   8.167   0.619   6.988 -0.8126  0.3038  0.0018
  167MOL0     C21925   8.257   0.722   6.907 -1.1787 -0.1463  0.6772
  167MOL0     C21926   8.377   0.654   6.842  0.7877  0.3829 -0.4955
  167MOL0     C21927   8.452   0.762   6.744  0.0644  0.8596  0.4012
  167MOL0     C21928   8.569   0.695   6.666 -0.2564 -0.2329  0.3635
  167MOL0     N21929   8.635   0.809   6.603  0.5320 -0.1593  0.1537
  167MOL0     C21930   8.579   0.905   6.516 -1.0594 -0.2366 -0.7548
  167MOL0     C21931   8.676   1.007   6.511  0.6937 -0.4946  0.3374
  167MOL0     C21932   8.679   1.107   6.398  0.0163 -0.6256 -1.1266
  167MOL0     C21933   8.560   1.202   6.403  0.3081 -0.6151 -0.3314
  167MOL0     C21934   8.505   1.251   6.261  0.1083  0.2609 -0.3169
  167MOL0     C21935   8.390   1.351   6.252  0.3416  0.2675  0.3557
  167MOL0     O21936   8.281   1.299   6.332 -0.2655 -0.0390 -0.5829
  167MOL0     C21937   8.183   1.211   6.286 -0.0167  0.6594 -0.5719
  167MOL0     C21938   8.065   1.191   6.364 -0.6844 -0.9621  0.4156
  167MOL0     C21939   7.972   1.099   6.325  0.7158  0.1840 -0.2141
  167MOL0     C21940   7.979   1.018   6.213 -0.8249  0.3704  0.8602
  167MOL0     C21941   7.876   0.928   6.169  0.5741 -0.3807  0.5162
  167MOL0     O21942   7.761   0.909   6.235  0.0952 -0.5716  0.4731
  167MOL0     C21943   7.655   0.843   6.183 -0.4722  0.9942  0.4249
  167MOL0     C21944   7.622   0.719   6.227  1.3321  0.0640  0.3624
  167MOL0     C21945   7.502   0.658   6.198  0.2602  0.4176 -0.3064
  167MOL0     C21946   7.411   0.716   6.103 -0.4751 -0.7230  0.7916
  167MOL0     O21947   7.300   0.640   6.074  0.1351  0.8641 -0.0032
  167MOL0     C21948   7.296   0.598   5.941  0.0710 -0.3133  0.5127
  167MOL0     C21949   7.223   0.465   5.936  0.5768  0.3215 -0.0243
  167MOL0     C21950   7.279   0.367   6.037  0.3724  0.0900  0.2018
  167MOL0     C21951   7.429   0.333   6.028 -0.1257 -0.2609  0.6690
  167MOL0     C21952   7.455   0.219   6.113 -0.0246 -0.3098  0.3116
  167MOL0     C21953   7.608   0.181   6.104 -0.4743 -0.4694 -0.2027
  167MOL0     C21954   7.702   0.293   6.150 -0.0565  0.0261 -0.6167
  167MOL0     C21955   7.834   0.248   6.202  0.7485  0.1446 -0.9594
  167MOL0    Cl21956   7.804   0.178   6.368  0.3163  0.1251  0.1964
  167MOL0     C21957   7.443   0.843   6.057  0.2866 -0.1494 -0.4776
  167MOL0     C21958   7.564   0.903   6.102  0.1486  0.2391  0.1553
  167MOL0     O21959   7.899   0.890   6.052 -0.1256  0.6671 -0.5545
  167MOL0     C21960   8.101   1.031   6.143  0.2043  0.3671  0.2318
  167MOL0     C21961   8.199   1.125   6.176  0.6723  0.0322 -0.3829
  167MOL0     N21962   8.771   0.981   6.603  0.2070 -0.4225  0.2258
  167MOL0     N21963   8.752   0.862   6.646  0.3324 -0.2888  0.5083
  167MOL0     C21964   7.559   0.554   6.877  0.1649 -0.2986  0.9632
  167MOL0     C21965   7.428   0.589   6.842 -0.1405  0.5639  0.7044
  167MOL0     C21966   7.025   0.752   6.746  0.9516 -0.6152 -0.3151
  167MOL0     C21967   6.969   0.725   6.620  0.1256 -0.2743 -0.5882
  167MOL0     C21968   6.840   0.762   6.594  0.1043  0.6556  0.2573
  167MOL0     C21969   6.765   0.822   6.695  0.8719  0.3948  0.3389
  167MOL0     O21970   6.634   0.850   6.661 -0.2411 -0.7420  0.9103
  167MOL0     C21971   6.550   0.893   6.762  0.7306  0.3077 -0.0476
  167MOL0     C21972   6.406   0.898   6.698  0.5238  1.1377 -0.1670
  167MOL0     C21973   6.361   0.755   6.666 -0.1022  0.3360 -0.3200
  167MOL0     C21974   6.251   0.757   6.562 -0.1121  0.4639 -0.6517
  167MOL0     C21975   6.120   0.805   6.608  0.3440  0.3086  1.0477
  167MOL0     C21976   6.010   0.843   6.629  0.1470  0.8115 -0.2190
  167MOL0     C21977   6.828   0.847   6.818  0.0632  0.4720  0.3668
  167MOL0     C21978   6.960   0.811   6.851  0.7044 -0.6782  1.1863
  167MOL0     H21979   7.333   0.776   7.093 -1.3569 -0.1091 -2.2429
  167MOL0     H21980   7.573   0.729   7.173 -1.8547 -1.5426  1.0239
  167MOL0     H21981   7.772   0.616   7.223 -1.4266  1.6640  0.8647
  167MOL0     H21982   7.811   0.747   7.098  0.1648 -0.0992 -0.5279
  167MOL0     H21983   7.967   0.497   7.075  1.6143 -0.3522  1.5496
  167MOL0     H21984   7.996   0.583   7.221 -1.6748 -0.4633  0.2445
  167MOL0     H21985   8.076   0.778   7.100 -1.2124  1.7494 -1.6649
  167MOL0     H21986   7.993   0.731   6.947 -0.2829  2.6672  1.8619
  167MOL0     H21987   8.222   0.574   7.071 -1.5401 -1.2648 -0.3219
  167MOL0     H21988   8.141   0.533   6.925 -0.0459  1.0987 -1.4433
  167MOL0     H21989   8.299   0.807   6.963 -0.2316  1.7548 -2.6251
  167MOL0     H21990   8.196   0.765   6.827 -2.0279  0.8571  1.8293
  167MOL0     H21991   8.340   0.568   6.785  1.1768 -0.3006  0.2632
  167MOL0     H21992   8.441   0.622   6.925  0.2203 -0.5718 -0.4103
  167MOL0     H21993   8.367   0.803   6.689 -0.8481  0.0258  1.1353
  167MOL0     H21994   8.501   0.844   6.797  1.2929  1.4061 -1.4796
  167MOL0     H21995   8.528   0.627   6.591  0.8309  0.0525 -0.5173
  167MOL0     H21996   8.640   0.649   6.735  0.6161  0.6452  0.0878
  167MOL0     H21997   8.487   0.883   6.464 -0.0488 -0.4107 -2.5446
  167MOL0     H21998   8.677   1.062   6.299  0.1752  0.5120 -1.6603
  167MOL0     H21999   8.770   1.168   6.412  1.4174 -2.2117 -2.8623
  167MOL0     H22000   8.590   1.290   6.460  1.5458 -0.9218 -0.4737
  167MOL0     H22001   8.473   1.150   6.444 -0.4641  1.1927  0.4059
  167MOL0     H22002   8.587   1.288   6.199 -1.8709  4.8034 -0.6013
  167MOL0     H22003   8.464   1.162   6.211 -3.6808  1.3631  0.4610
  167MOL0     H22004   8.350   1.359   6.151  0.8293 -0.5532  0.0889
  167MOL0     H22005   8.399   1.452   6.294 -1.9215  1.3935 -1.6194
  167MOL0     H22006   8.042   1.252   6.450 -3.3561 -2.5373  0.9449
  167MOL0     H22007   7.885   1.080   6.387  1.9087  1.4682  1.9674
  167MOL0     H22008   7.692   0.665   6.289  0.4924  0.0595  1.3394
  167MOL0     H22009   7.481   0.560   6.239  1.1921  0.1800 -0.3639
  167MOL0     H22010   7.399   0.593   5.905 -0.6801  0.6775 -2.0093
  167MOL0     H22011   7.249   0.671   5.874  2.9227  0.6924 -0.5609
  167MOL0     H22012   7.227   0.423   5.835 -2.8623  1.0118 -0.5857
  167MOL0     H22013   7.119   0.491   5.959  0.9898  0.7537  1.4869
  167MOL0     H22014   7.226   0.271   6.026 -0.8682  0.8555 -0.7649
  167MOL0     H22015   7.244   0.398   6.135 -2.6436  1.8535 -1.2802
  167MOL0     H22016   7.458   0.325   5.923  1.0583  2.7443  0.6526
  167MOL0     H22017   7.486   0.418   6.065 -0.4266  0.4055 -0.3441
  167MOL0     H22018   7.390   0.137   6.081 -2.0340  0.7554  1.4292
  167MOL0     H22019   7.422   0.242   6.215 -0.5876 -1.2145  0.3481
  167MOL0     H22020   7.644   0.144   6.008  0.2956  0.5993 -0.3415
  167MOL0     H22021   7.617   0.093   6.169 -3.5492  0.8134  2.2474
  167MOL0     H22022   7.717   0.366   6.071 -1.8254 -0.6246 -1.6257
  167MOL0     H22023   7.647   0.346   6.228 -1.5539  0.8935 -2.1813
  167MOL0     H22024   7.897   0.337   6.206  1.3794 -0.3341  0.0730
  167MOL0     H22025   7.874   0.181   6.126 -0.5529  0.5277 -2.0299
  167MOL0     H22026   7.375   0.882   5.982 -1.0680 -0.2698  0.6657
  167MOL0     H22027   7.585   0.999   6.055 -1.6427  0.2554 -0.6979
  167MOL0     H22028   8.121   0.959   6.064 -0.2925 -0.9310  1.2467
  167MOL0     H22029   8.283   1.146   6.110 -0.8107  2.0219 -1.7547
  167MOL0     H22030   7.627   0.498   6.814 -1.5540  0.7728 -2.0695
  167MOL0     H22031   7.392   0.552   6.747 -0.5940 -0.0929  1.1302
  167MOL0     H22032   7.030   0.687   6.538 -0.5557 -0.5560 -0.9733
  167MOL0     H22033   6.802   0.749   6.493 -1.8411 -0.1086  1.0284
  167MOL0     H22034   6.584   0.990   6.801  0.7396 -0.6867  2.5913
  167MOL0     H22035   6.558   0.834   6.854  5.7557  0.5032 -0.0602
  167MOL0     H22036   6.337   0.932   6.776 -1.4861  0.8821 -1.7646
  167MOL0     H22037   6.389   0.961   6.611 -3.6188 -0.0716 -0.4680
  167MOL0     H22038   6.333   0.706   6.759  0.0880 -4.7954 -2.6186
  167MOL0     H22039   6.438   0.691   6.621 -1.1446 -0.2256 -1.3683
  167MOL0     H22040   6.281   0.801   6.466  0.9456 -3.0492 -2.0995
  167MOL0     H22041   6.235   0.656   6.524  5.2960 -0.6475 -0.7752
  167MOL0     H22042   5.914   0.888   6.646 -0.2851  0.1264 -0.7531
  167MOL0     H22043   6.778   0.897   6.901 -0.2230 -0.4062  0.7275
  167MOL0     H22044   7.010   0.845   6.940  2.5551  0.9324 -0.3795
  168MOL0     O22045   6.539   0.625   1.338 -0.4352 -0.0270 -0.3567
  168MOL0     C22046   6.554   0.497   1.352  0.5589 -0.1204  0.0868
  168MOL0     O22047   6.449   0.412   1.371  0.4981  0.5377 -0.6253
  168MOL0     C22048   6.320   0.465   1.368  0.9505  0.0962 -0.8853
  168MOL0     C22049   6.228   0.429   1.461  0.6983  0.0087 -0.6550
  168MOL0     C22050   6.091   0.459   1.458 -0.4124 -0.3721 -0.7295
  168MOL0     C22051   6.037   0.517   1.348 -0.4753  0.3823 -0.8057
  168MOL0     O22052   5.904   0.524   1.338 -0.3703  0.3616  0.7806
  168MOL0     C22053   5.853   0.599   1.223 -0.2668  0.3005 -0.2154
  168MOL0     C22054   5.705   0.623   1.225  0.3454 -0.2398 -1.6667
  168MOL0     C22055   5.652   0.645   1.086  1.2770 -0.9654  0.4909
  168MOL0     C22056   5.494   0.652   1.076  0.7398 -0.5570  0.9800
  168MOL0     C22057   5.445   0.684   0.935  1.1530  0.0593  1.2758
  168MOL0     C22058   5.285   0.700   0.928  0.1779 -0.4570 -0.0296
  168MOL0     C22059   5.203   0.576   0.942 -0.0957  0.4340  0.5799
  168MOL0     C22060   5.160   0.512   0.808 -0.4430  0.1167  0.5329
  168MOL0     N22061   5.270   0.461   0.723 -0.5191 -0.9345  0.0423
  168MOL0     C22062   5.349   0.359   0.747  0.6402  0.1132 -0.0913
  168MOL0     C22063   5.444   0.360   0.644 -0.0121  0.5739 -0.1173
  168MOL0     C22064   5.570   0.275   0.648 -0.4715  0.0472 -0.0030
  168MOL0     C22065   5.666   0.327   0.749 -0.6315  0.0964  0.1000
  168MOL0     C22066   5.786   0.235   0.738 -0.0049  0.0139  0.4322
  168MOL0     C22067   5.898   0.284   0.833 -0.0850  0.4154 -0.2672
  168MOL0     O22068   5.997   0.176   0.866  0.0045 -0.4608  0.0022
  168MOL0     C22069   6.126   0.211   0.872  0.3276 -0.7853 -0.5785
  168MOL0     C22070   6.176   0.311   0.946 -0.0790 -0.4697  0.6195
  168MOL0     C22071   6.311   0.334   0.949  0.3076 -0.0757  0.4951
  168MOL0     C22072   6.409   0.246   0.887  0.0685 -0.8788 -0.3950
  168MOL0     C22073   6.559   0.271   0.912  0.6363  0.4129 -0.5463
  168MOL0     O22074   6.653   0.191   0.862  0.6201  0.5885 -0.0251
  168MOL0     C22075   6.790   0.218   0.889  0.9688 -0.6172  0.8772
  168MOL0     C22076   6.866   0.252   0.779 -0.3618  0.7003 -0.6713
  168MOL0     C22077   7.006   0.259   0.791  0.9699 -0.1493 -0.3605
  168MOL0     C22078   7.068   0.239   0.909  0.9232  0.3766  0.7058
  168MOL0     O22079   7.204   0.252   0.919  0.7143  0.2146 -0.1009
  168MOL0     C22080   7.267   0.376   0.881 -0.0844  0.3764 -0.3345
  168MOL0     C22081   7.388   0.418   0.955 -0.8307  1.2344 -0.2231
  168MOL0     C22082   7.507   0.315   0.953  0.3377  1.0185  0.4946
  168MOL0     C22083   7.568   0.300   1.091 -1.1264  0.4964  0.1366
  168MOL0     C22084   7.710   0.251   1.110  0.2630 -0.1371  0.2159
  168MOL0     C22085   7.752   0.276   1.251 -0.5883  0.7151  0.2765
  168MOL0     C22086   7.895   0.239   1.266  0.3494  0.0513 -0.5451
  168MOL0     C22087   7.933   0.232   1.415  0.4037  0.3076 -0.6453
  168MOL0    Cl22088   8.116   0.254   1.430 -0.2339 -0.5742 -0.2602
  168MOL0     C22089   6.997   0.189   1.016 -0.1654 -0.5150  0.2892
  168MOL0     C22090   6.859   0.178   1.008 -0.2963  0.9990  0.3799
  168MOL0     O22091   6.584   0.383   0.967  0.0476 -0.1331  0.2726
  168MOL0     C22092   6.358   0.150   0.799 -0.0899  0.4015 -0.1236
  168MOL0     C22093   6.218   0.137   0.787 -0.2722 -0.1281  0.0167
  168MOL0     N22094   5.416   0.462   0.563 -0.3278  1.1539 -0.1354
  168MOL0     N22095   5.318   0.517   0.606  0.5830 -0.1974 -0.0833
  168MOL0     C22096   6.128   0.555   1.242 -1.4475  0.1449 -0.9733
  168MOL0     C22097   6.264   0.538   1.261 -0.6429 -0.6183 -0.3850
  168MOL0     C22098   6.690   0.436   1.347 -0.2561 -0.3218  0.4310
  168MOL0     C22099   6.797   0.513   1.293  0.8732 -0.3209 -0.2461
  168MOL0     C22100   6.925   0.448   1.291 -0.6343  0.1326  0.5818
  168MOL0     C22101   6.943   0.321   1.353  0.3860  0.2157  0.5492
  168MOL0     O22102   7.053   0.246   1.360  0.7731 -0.9504 -0.2224
  168MOL0     C22103   7.188   0.312   1.349  1.1685  0.6914  0.0348
  168MOL0     C22104   7.296   0.199   1.348 -0.1635 -0.2663  0.4068
  168MOL0     C22105   7.284   0.095   1.463 -0.6977  0.1602  0.0668
  168MOL0     C22106   7.346  -0.041   1.429 -0.6570 -0.0081 -0.4792
  168MOL0     C22107   7.488  -0.042   1.384 -0.1446 -0.8114 -0.7491
  168MOL0     C22108   7.610  -0.036   1.366 -0.2853 -0.2996  0.8098
  168MOL0     C22109   6.835   0.246   1.387  0.6733 -0.4071 -0.6434
  168MOL0     C22110   6.704   0.298   1.381  0.4234 -0.7744  0.2915
  168MOL0     H22111   6.265   0.368   1.542 -0.6130  0.7645  0.5730
  168MOL0     H22112   6.033   0.419   1.541  0.3853  0.3469  0.2067
  168MOL0     H22113   5.876   0.532   1.139  0.6872 -0.9449  0.9871
  168MOL0     H22114   5.903   0.696   1.223  0.5159 -0.0918  0.2047
  168MOL0     H22115   5.686   0.710   1.288  1.5932 -0.8460 -0.3915
  168MOL0     H22116   5.649   0.537   1.259 -0.6871  0.9462 -0.2679
  168MOL0     H22117   5.677   0.566   1.014 -0.5299  0.0149 -1.3205
  168MOL0     H22118   5.699   0.734   1.044 -2.1454 -0.3676 -2.7399
  168MOL0     H22119   5.448   0.562   1.118  0.8676 -1.9092 -1.5908
  168MOL0     H22120   5.454   0.735   1.135 -1.3535 -0.3034 -0.7030
  168MOL0     H22121   5.476   0.602   0.870 -0.5328  1.4810 -1.5082
  168MOL0     H22122   5.488   0.775   0.892 -1.6777  0.8130 -0.2219
  168MOL0     H22123   5.246   0.739   0.833 -0.2556 -0.8985 -0.0410
  168MOL0     H22124   5.253   0.778   0.997  1.5433 -0.3523  0.5154
  168MOL0     H22125   5.263   0.509   1.004  3.1794  1.3229 -1.3868
  168MOL0     H22126   5.108   0.594   0.993 -1.9483  1.9588 -3.0234
  168MOL0     H22127   5.111   0.591   0.749  1.6515  1.2065  0.1402
  168MOL0     H22128   5.090   0.433   0.835 -2.1289  1.9451  1.7441
  168MOL0     H22129   5.342   0.292   0.832  0.8599  4.2041  3.4600
  168MOL0     H22130   5.603   0.286   0.544 -1.0032 -1.1994 -0.3239
  168MOL0     H22131   5.550   0.168   0.662 -0.3512  0.1550  1.1006
  168MOL0     H22132   5.621   0.319   0.848  0.8944  1.4822  0.9418
  168MOL0     H22133   5.684   0.431   0.720 -1.3610 -0.1097 -1.1817
  168MOL0     H22134   5.759   0.130   0.751 -2.2210  0.0304 -2.9108
  168MOL0     H22135   5.830   0.234   0.638  0.2060  0.9562  0.5055
  168MOL0     H22136   5.856   0.302   0.932 -2.0057  0.6255 -1.0625
  168MOL0     H22137   5.950   0.372   0.794 -0.5883  0.5189 -0.7169
  168MOL0     H22138   6.104   0.372   0.999  0.7638  0.0674  1.1688
  168MOL0     H22139   6.349   0.411   1.015 -2.0240 -0.8166  2.8812
  168MOL0     H22140   6.813   0.276   0.687 -0.3809 -3.1345 -1.8533
  168MOL0     H22141   7.065   0.281   0.703  2.4060 -1.2722  0.2760
  168MOL0     H22142   7.184   0.447   0.891 -2.0259 -1.7557 -0.5546
  168MOL0     H22143   7.299   0.366   0.777  3.3249 -0.4676  0.6899
  168MOL0     H22144   7.355   0.414   1.059 -0.6534  1.3425 -0.1624
  168MOL0     H22145   7.419   0.519   0.928 -2.4878  2.3252  1.6622
  168MOL0     H22146   7.586   0.354   0.886  3.4997 -3.5598  1.0972
  168MOL0     H22147   7.480   0.214   0.921 -0.4316  0.0851  3.7458
  168MOL0     H22148   7.571   0.404   1.125 -1.6296 -0.3898  3.1517
  168MOL0     H22149   7.504   0.245   1.161 -2.7386  3.0682  0.8472
  168MOL0     H22150   7.785   0.301   1.048  1.3837  1.4342  2.6835
  168MOL0     H22151   7.708   0.143   1.087 -3.0429  0.5457 -4.1369
  168MOL0     H22152   7.706   0.200   1.314  0.4142 -0.6138 -0.5441
  168MOL0     H22153   7.727   0.375   1.289 -0.0435  1.0416 -0.2010
  168MOL0     H22154   7.923   0.147   1.214 -0.0845  0.2009 -1.0532
  168MOL0     H22155   7.955   0.319   1.222 -0.6043  0.6460 -0.7844
  168MOL0     H22156   7.896   0.147   1.474  0.7465 -0.5150 -1.5935
  168MOL0     H22157   7.886   0.314   1.471  3.4456  0.3789  2.1004
  168MOL0     H22158   7.050   0.165   1.107  1.4272 -0.9053 -0.7003
  168MOL0     H22159   6.801   0.135   1.089  0.6135 -1.5332 -0.2286
  168MOL0     H22160   6.424   0.080   0.749 -0.8282 -1.3389  1.2106
  168MOL0     H22161   6.188   0.068   0.709 -3.7655  0.0790  1.0462
  168MOL0     H22162   6.096   0.616   1.158 -0.7027 -1.4586 -2.4816
  168MOL0     H22163   6.333   0.575   1.186  0.1598 -3.3913 -1.0993
  168MOL0     H22164   6.781   0.612   1.252  1.0603  0.3662  1.2995
  168MOL0     H22165   7.010   0.496   1.245 -2.4519  0.5558 -2.6725
  168MOL0     H22166   7.201   0.381   1.433  0.6430  4.4912 -2.7499
  168MOL0     H22167   7.205   0.367   1.256  2.4858 -0.2459 -0.3045
  168MOL0     H22168   7.314   0.143   1.256  1.0037 -0.1890  0.5610
  168MOL0     H22169   7.391   0.253   1.357 -1.9269  3.7222 -2.0367
  168MOL0     H22170   7.186   0.080   1.509 -0.0414 -0.8703  1.1735
  168MOL0     H22171   7.350   0.130   1.543  1.6123 -2.9965 -0.2795
  168MOL0     H22172   7.353  -0.092   1.526 -3.0332  3.0502  1.4727
  168MOL0     H22173   7.277  -0.095   1.363 -1.6435  0.1962  0.3626
  168MOL0     H22174   7.716  -0.041   1.351 -0.5010 -0.8357 -0.6711
  168MOL0     H22175   6.850   0.140   1.399  0.7892 -0.3216 -0.0301
  168MOL0     H22176   6.617   0.234   1.387  0.0769 -0.7654 -3.0565
  169MOL0     O22177   2.648   6.093   9.640  0.8655 -0.3679  0.3045
  169MOL0     C22178   2.719   6.174   9.702  0.1775  0.1554  0.6647
  169MOL0     O22179   2.671   6.276   9.778 -0.3735  0.2133 -0.3129
  169MOL0     C22180   2.544   6.325   9.761  0.1371 -0.5849 -0.7190
  169MOL0     C22181   2.490   6.385   9.876 -0.4688 -0.0212 -0.1837
  169MOL0     C22182   2.362   6.426   9.881 -0.1920 -0.0435 -0.4127
  169MOL0     C22183   2.281   6.416   9.766  0.5237  0.5998  0.3429
  169MOL0     O22184   2.146   6.449   9.785  0.4203 -0.1837 -0.1175
  169MOL0     C22185   2.059   6.477   9.669  0.7992 -0.8339  0.3225
  169MOL0     C22186   1.919   6.492   9.736  0.2436  0.5250  0.5264
  169MOL0     C22187   1.810   6.464   9.627 -0.0924  0.1955 -0.2502
  169MOL0     C22188   1.665   6.458   9.687  0.5516  0.3796  0.4192
  169MOL0     C22189   1.565   6.458   9.572  0.0014  0.4368 -0.0624
  169MOL0     C22190   1.425   6.443   9.627 -0.5827  0.9207  0.3856
  169MOL0     C22191   1.331   6.417   9.518 -0.8704 -0.4974  0.6622
  169MOL0     C22192   1.274   6.543   9.456 -0.2465 -0.0238 -0.5921
  169MOL0     N22193   1.180   6.599   9.553 -0.2393  0.0591 -0.9052
  169MOL0     C22194   1.115   6.539   9.657 -0.4182  0.5031 -0.2630
  169MOL0     C22195   1.041   6.630   9.710  0.1873  0.0491 -0.2602
  169MOL0     C22196   0.955   6.614   9.826 -0.3638 -0.5339  0.2854
  169MOL0     C22197   0.831   6.534   9.792 -1.2074  0.7022 -1.5788
  169MOL0     C22198   0.744   6.506   9.918 -0.2729 -0.8251  0.4667
  169MOL0     C22199   0.691   6.630   9.991 -0.1342  0.9349  0.3101
  169MOL0     O22200   0.594   6.581  10.077  1.1189  0.3198 -0.7338
  169MOL0     C22201   0.490   6.659  10.127  0.7622  0.1601 -1.1718
  169MOL0     C22202   0.391   6.589  10.203 -0.7725 -0.0324  0.4282
  169MOL0     C22203   0.276   6.656  10.248  0.0948 -0.4469 -0.1075
  169MOL0     C22204   0.258   6.802  10.247 -0.6444  0.9239  0.3747
  169MOL0     C22205   0.129   6.857  10.293  0.1283 -0.3043 -1.7489
  169MOL0     O22206   0.033   6.763  10.345  0.0836 -0.2455  0.5462
  169MOL0     C22207  -0.093   6.809  10.364 -0.2610 -0.0663  0.0190
  169MOL0     C22208  -0.134   6.835  10.492 -1.0887  0.8636 -0.1923
  169MOL0     C22209  -0.271   6.868  10.507 -0.2464  0.3682 -0.0921
  169MOL0     C22210  -0.371   6.874  10.399  0.1178 -0.2633  1.0580
  169MOL0     O22211  -0.495   6.924  10.394  0.1945 -0.1111 -0.0738
  169MOL0     C22212  -0.546   6.982  10.511 -0.0913 -0.2091  0.3754
  169MOL0     C22213  -0.670   7.069  10.493 -0.1368  0.4265 -0.3809
  169MOL0     C22214  -0.699   7.160  10.611 -0.0934 -0.2209 -0.6575
  169MOL0     C22215  -0.856   7.190  10.614  0.6808  0.3747  1.5951
  169MOL0     C22216  -0.913   7.248  10.480 -0.2490 -0.0269  1.0622
  169MOL0     C22217  -1.056   7.229  10.484  0.5727 -0.6619 -0.2815
  169MOL0     C22218  -1.130   7.266  10.350 -0.3422 -0.2255  0.6266
  169MOL0     C22219  -1.115   7.412  10.316 -0.8954 -0.0152  0.3960
  169MOL0    Cl22220  -0.957   7.454  10.225  0.3109  0.1892 -0.2480
  169MOL0     C22221  -0.317   6.835  10.272 -0.2145 -0.2799 -1.3495
  169MOL0     C22222  -0.181   6.810  10.260 -0.4235  0.8595  0.0320
  169MOL0     O22223   0.124   6.978  10.296 -0.4592 -0.0590  0.6070
  169MOL0     C22224   0.371   6.872  10.188 -0.0226  0.9430  0.0381
  169MOL0     C22225   0.478   6.797  10.131 -0.0933 -0.3696 -0.3303
  169MOL0     N22226   1.058   6.748   9.650 -0.3672 -0.1054  0.3739
  169MOL0     N22227   1.126   6.724   9.542 -0.5310 -0.4516 -0.5075
  169MOL0     C22228   2.336   6.367   9.646 -0.2425  0.0561 -0.6603
  169MOL0     C22229   2.468   6.310   9.644  0.2849 -0.2499 -0.0005
  169MOL0     C22230   2.858   6.154   9.696  0.2545  0.0961 -0.3761
  169MOL0     C22231   2.953   6.207   9.788 -0.5302  0.3874 -1.1855
  169MOL0     C22232   3.093   6.195   9.758  0.0393 -0.1070 -0.2594
  169MOL0     C22233   3.149   6.129   9.651 -0.6026  0.3308  0.6985
  169MOL0     O22234   3.285   6.123   9.634  0.4740 -0.0034  0.1244
  169MOL0     C22235   3.330   6.055   9.512 -0.1651 -0.3811 -0.1284
  169MOL0     C22236   3.480   6.044   9.526  0.0163 -0.3007  0.4315
  169MOL0     C22237   3.528   5.909   9.461 -0.2145 -0.2296  0.7323
  169MOL0     C22238   3.684   5.888   9.489 -0.8451 -0.2375 -0.0900
  169MOL0     C22239   3.731   5.928   9.624  0.1377 -0.2490  0.1001
  169MOL0     C22240   3.782   5.956   9.730  0.1623  0.4976 -0.2037
  169MOL0     C22241   3.052   6.078   9.562 -0.1560 -0.0905  0.3826
  169MOL0     C22242   2.914   6.096   9.581 -0.3126  0.5252 -0.4099
  169MOL0     H22243   2.555   6.387   9.963  0.7976 -0.9365 -1.0699
  169MOL0     H22244   2.320   6.468   9.972 -0.2171  1.8055 -1.2239
  169MOL0     H22245   2.067   6.387   9.607 -1.8224 -0.5698 -0.5071
  169MOL0     H22246   2.088   6.562   9.607  0.4863 -0.7026  0.3540
  169MOL0     H22247   1.891   6.587   9.782  0.5434  0.0005  1.8447
  169MOL0     H22248   1.906   6.414   9.812 -0.4440 -1.2830 -1.3683
  169MOL0     H22249   1.834   6.368   9.581 -2.5797 -1.6812  2.0414
  169MOL0     H22250   1.823   6.541   9.550 -1.0177  2.4810  1.7481
  169MOL0     H22251   1.667   6.359   9.733 -1.2858 -1.4409 -3.0470
  169MOL0     H22252   1.649   6.537   9.761 -1.2081  1.9676 -1.5068
  169MOL0     H22253   1.595   6.384   9.497  1.8431  0.9686  0.0955
  169MOL0     H22254   1.564   6.548   9.510  0.8427 -0.5994 -1.6295
  169MOL0     H22255   1.388   6.521   9.695 -3.7312  0.0045 -0.1390
  169MOL0     H22256   1.425   6.349   9.683 -0.7009 -0.4841 -1.8763
  169MOL0     H22257   1.379   6.363   9.435  0.0434  0.6792  0.3898
  169MOL0     H22258   1.256   6.349   9.558 -3.3520  1.6782 -0.0057
  169MOL0     H22259   1.216   6.521   9.366 -1.4426 -0.3234  0.2280
  169MOL0     H22260   1.354   6.616   9.440 -0.6304  0.5773  0.1979
  169MOL0     H22261   1.115   6.435   9.688  3.0350 -0.0212 -1.6131
  169MOL0     H22262   0.922   6.717   9.844  3.1526  0.8517 -0.4761
  169MOL0     H22263   1.009   6.582   9.915  0.0329  0.3575  0.3795
  169MOL0     H22264   0.857   6.437   9.749 -0.3806 -0.3018  0.9783
  169MOL0     H22265   0.775   6.590   9.717 -2.3569 -0.9610 -2.0194
  169MOL0     H22266   0.656   6.447   9.890 -0.1532 -2.2721  2.7939
  169MOL0     H22267   0.805   6.457   9.995  0.9898  0.0969  0.0748
  169MOL0     H22268   0.645   6.699   9.920 -1.6758 -0.8332 -0.4723
  169MOL0     H22269   0.775   6.680  10.041  2.1330 -2.3082  0.0795
  169MOL0     H22270   0.384   6.483  10.221 -3.8731 -0.0464 -0.4321
  169MOL0     H22271   0.193   6.594  10.282 -1.9383  3.1709  2.2307
  169MOL0     H22272  -0.064   6.836  10.576 -0.7186  4.7466 -0.3395
  169MOL0     H22273  -0.305   6.900  10.605  1.5867  3.2244 -0.2742
  169MOL0     H22274  -0.478   7.058  10.550  2.1831 -0.4173 -2.8092
  169MOL0     H22275  -0.566   6.908  10.589 -1.0025 -0.6240 -0.2250
  169MOL0     H22276  -0.752   7.004  10.459  1.3426 -1.9081  0.2635
  169MOL0     H22277  -0.656   7.135  10.407  0.0035  2.1894  0.9457
  169MOL0     H22278  -0.661   7.263  10.610  1.1127 -0.6211  0.3998
  169MOL0     H22279  -0.663   7.113  10.703 -2.0543 -0.4280  0.0410
  169MOL0     H22280  -0.905   7.096  10.640 -0.1595 -0.2393 -1.8290
  169MOL0     H22281  -0.881   7.265  10.690 -0.7444  0.3733  1.1515
  169MOL0     H22282  -0.872   7.213  10.385 -1.2185  0.1301  0.5709
  169MOL0     H22283  -0.886   7.354  10.484  0.5045 -0.0661 -1.4838
  169MOL0     H22284  -1.092   7.285  10.571  2.0687 -1.2201  0.7424
  169MOL0     H22285  -1.078   7.124  10.505  0.4211 -1.1749 -2.7856
  169MOL0     H22286  -1.106   7.198  10.267 -3.2106 -1.1683  0.4568
  169MOL0     H22287  -1.235   7.256  10.376  0.4266 -0.4037  4.0211
  169MOL0     H22288  -1.118   7.469  10.410 -1.1682 -1.0033  1.0091
  169MOL0     H22289  -1.197   7.433  10.247 -1.2060 -2.5702 -0.0998
  169MOL0     H22290  -0.380   6.836  10.183 -0.1702 -2.2526 -1.4310
  169MOL0     H22291  -0.155   6.771  10.162 -2.1019  0.3261 -0.2279
  169MOL0     H22292   0.367   6.981  10.187  0.9799  1.0661  2.4190
  169MOL0     H22293   0.556   6.860  10.088  0.1994 -0.1129  0.5617
  169MOL0     H22294   2.270   6.367   9.560 -2.6729  0.4971  1.1118
  169MOL0     H22295   2.510   6.277   9.550 -0.4235  1.6883 -1.0642
  169MOL0     H22296   2.922   6.247   9.884  0.3834 -1.5866  0.0100
  169MOL0     H22297   3.162   6.224   9.837 -1.0553 -0.0649  0.7019
  169MOL0     H22298   3.303   6.107   9.420  0.2452 -1.1728 -0.7120
  169MOL0     H22299   3.281   5.957   9.516 -0.1752 -0.3518  0.9077
  169MOL0     H22300   3.516   6.131   9.470 -0.6857 -1.3101 -1.6616
  169MOL0     H22301   3.516   6.063   9.628  0.5632 -0.1498  0.2139
  169MOL0     H22302   3.498   5.905   9.356 -1.8530 -0.3248  1.1865
  169MOL0     H22303   3.491   5.825   9.519  1.3139 -0.0578  2.0339
  169MOL0     H22304   3.711   5.783   9.485 -0.4571 -0.0932 -2.0232
  169MOL0     H22305   3.747   5.950   9.425 -0.9630 -0.4494 -0.4130
  169MOL0     H22306   3.831   5.997   9.816  0.5027  1.2558 -0.7477
  169MOL0     H22307   3.076   6.044   9.461  0.2392  3.4639 -0.8500
  169MOL0     H22308   2.857   6.051   9.501  0.8564 -1.5997 -0.1355
  170MOL0     O22309   5.465   1.926   6.618  0.7559 -0.3146  0.4984
  170MOL0     C22310   5.491   1.811   6.587  0.0729 -0.4830 -0.1947
  170MOL0     O22311   5.409   1.701   6.607  0.7252 -0.3944 -0.2257
  170MOL0     C22312   5.273   1.721   6.655 -0.3837  1.3922  0.6064
  170MOL0     C22313   5.233   1.828   6.739 -0.3916  0.3182 -0.0237
  170MOL0     C22314   5.099   1.860   6.777 -0.1819  0.0377 -0.4587
  170MOL0     C22315   4.999   1.774   6.735  0.3379 -0.1907 -0.1052
  170MOL0     O22316   4.866   1.814   6.737  0.1536  0.0012 -0.2820
  170MOL0     C22317   4.829   1.930   6.816  0.7764  0.8728 -0.5070
  170MOL0     C22318   4.675   1.929   6.818  0.2156  1.5043 -1.0422
  170MOL0     C22319   4.623   2.027   6.928 -0.4869  0.3621 -0.0814
  170MOL0     C22320   4.471   2.033   6.931  1.2617  1.0954 -1.5387
  170MOL0     C22321   4.416   2.130   6.826  0.2432 -0.6295 -0.3622
  170MOL0     C22322   4.266   2.103   6.810 -0.3355  0.8318  0.0058
  170MOL0     C22323   4.202   2.165   6.678  0.1524 -1.0604  0.7873
  170MOL0     C22324   4.057   2.129   6.660  0.9725  0.5177 -0.2667
  170MOL0     N22325   3.976   2.202   6.755  0.5884 -0.1756 -0.3181
  170MOL0     C22326   3.932   2.154   6.875 -0.5069 -0.5053  0.2098
  170MOL0     C22327   3.831   2.238   6.914  0.0403  0.3020  0.4912
  170MOL0     C22328   3.750   2.193   7.035  0.8574 -0.4337 -0.3686
  170MOL0     C22329   3.645   2.091   6.995 -0.4375 -0.5666  0.1121
  170MOL0     C22330   3.561   2.062   7.120 -0.1533 -0.2963 -0.3769
  170MOL0     C22331   3.423   2.046   7.080  0.4438  0.0196 -0.1822
  170MOL0     O22332   3.375   2.173   7.035 -0.8034  0.0834 -0.0070
  170MOL0     C22333   3.240   2.206   7.024  0.0612 -0.1182  0.5247
  170MOL0     C22334   3.137   2.104   7.042  1.2288  0.2978 -0.1964
  170MOL0     C22335   2.999   2.134   7.021  0.1954 -0.4794  0.2693
  170MOL0     C22336   2.964   2.264   6.983  0.4619 -0.1551  0.7724
  170MOL0     C22337   2.817   2.303   6.960  0.5914 -1.1334 -0.3392
  170MOL0     O22338   2.720   2.209   6.974 -0.3694  0.7073  0.9324
  170MOL0     C22339   2.585   2.244   6.988 -0.5143  0.5167  0.3676
  170MOL0     C22340   2.528   2.226   7.108  0.2909  0.5156  0.9149
  170MOL0     C22341   2.397   2.261   7.129  1.4478 -0.0945  0.8289
  170MOL0     C22342   2.322   2.322   7.023 -0.1381 -0.4423  0.1041
  170MOL0     O22343   2.189   2.366   7.038 -1.2471  0.0178 -0.1861
  170MOL0     C22344   2.138   2.403   7.167  1.1650 -0.3484 -0.0141
  170MOL0     C22345   1.993   2.460   7.148 -0.1508  0.9481 -0.0682
  170MOL0     C22346   1.889   2.350   7.108 -0.7095 -0.1934  0.5897
  170MOL0     C22347   1.810   2.297   7.227 -0.2782  0.2312  0.1105
  170MOL0     C22348   1.764   2.154   7.193 -0.4551 -0.2082  0.5169
  170MOL0     C22349   1.664   2.108   7.291 -0.3149 -0.6753  1.3638
  170MOL0     C22350   1.624   1.960   7.247 -1.2322 -0.0956  0.4727
  170MOL0     C22351   1.553   1.885   7.351  0.0393 -0.7190  0.3028
  170MOL0    Cl22352   1.414   1.980   7.417 -0.3916  0.3261 -0.3202
  170MOL0     C22353   2.387   2.353   6.908 -0.5040  0.0205 -0.5437
  170MOL0     C22354   2.515   2.300   6.884  0.0466 -0.2124 -0.0429
  170MOL0     O22355   2.798   2.421   6.931  0.1350 -0.1507 -0.4114
  170MOL0     C22356   3.064   2.356   6.952  0.6238 -0.3134 -0.0552
  170MOL0     C22357   3.198   2.328   6.971  0.2489  0.7400 -0.3444
  170MOL0     N22358   3.808   2.338   6.825 -0.6067  0.0665  0.4242
  170MOL0     N22359   3.896   2.307   6.729 -0.3458  0.4054  0.1880
  170MOL0     C22360   5.036   1.663   6.657  0.4495  0.0875  0.5444
  170MOL0     C22361   5.167   1.644   6.613 -0.2578  0.6894 -0.3024
  170MOL0     C22362   5.626   1.782   6.530 -0.9443 -0.2534 -0.0340
  170MOL0     C22363   5.715   1.884   6.487 -1.0527  0.1995 -0.4044
  170MOL0     C22364   5.848   1.849   6.453  0.2621 -0.4396 -0.0312
  170MOL0     C22365   5.889   1.720   6.430 -0.2064  0.8023 -0.3600
  170MOL0     O22366   6.018   1.687   6.388 -0.1769 -0.4047 -0.0402
  170MOL0     C22367   6.040   1.636   6.252 -0.0490 -0.0406  0.5183
  170MOL0     C22368   6.115   1.503   6.247 -0.2503 -0.0108  0.0209
  170MOL0     C22369   6.063   1.430   6.128  0.9718  0.2157  0.1076
  170MOL0     C22370   6.111   1.491   5.999  0.3065  0.3679 -0.2739
  170MOL0     C22371   6.061   1.420   5.883  0.0615 -0.9061 -0.4246
  170MOL0     C22372   6.028   1.355   5.780  0.3940  1.1635 -0.2383
  170MOL0     C22373   5.793   1.617   6.440 -0.2754 -0.6373  0.0001
  170MOL0     C22374   5.665   1.646   6.498 -1.3273 -0.3246  0.5363
  170MOL0     H22375   5.305   1.902   6.775 -0.4905  2.6884 -4.1406
  170MOL0     H22376   5.082   1.941   6.847 -0.3144 -1.5579  1.4514
  170MOL0     H22377   4.863   2.027   6.777 -2.0688  2.3256  0.3364
  170MOL0     H22378   4.869   1.911   6.917 -0.2697  1.4973  0.0410
  170MOL0     H22379   4.654   1.822   6.826 -1.1455  1.7078 -1.4617
  170MOL0     H22380   4.636   1.941   6.716 -1.8763  1.9302 -0.2393
  170MOL0     H22381   4.659   2.129   6.912  2.2299 -0.3906  0.7978
  170MOL0     H22382   4.663   2.006   7.028  1.7853  2.9214 -0.3460
  170MOL0     H22383   4.429   1.933   6.915 -0.8612  1.8961 -1.2670
  170MOL0     H22384   4.446   2.066   7.032 -0.5839 -0.2188 -1.5165
  170MOL0     H22385   4.473   2.121   6.733  0.4902  1.2449 -0.4147
  170MOL0     H22386   4.422   2.236   6.852  1.6805 -0.0858 -2.6452
  170MOL0     H22387   4.221   2.146   6.901  1.1286  3.2576 -0.3285
  170MOL0     H22388   4.250   1.995   6.807  1.7521  0.5142 -0.6391
  170MOL0     H22389   4.214   2.273   6.691  2.0380 -1.1891  0.4131
  170MOL0     H22390   4.259   2.145   6.586 -0.9863  0.3121 -0.2553
  170MOL0     H22391   4.035   2.023   6.675 -0.1903  0.7109 -0.5075
  170MOL0     H22392   4.014   2.145   6.561 -0.3374  4.1941  0.7339
  170MOL0     H22393   3.972   2.060   6.913  2.7338  0.3781 -0.7171
  170MOL0     H22394   3.705   2.287   7.069  1.3978  0.4076 -1.8845
  170MOL0     H22395   3.814   2.160   7.118  1.0041 -0.4834 -0.5007
  170MOL0     H22396   3.698   2.004   6.957 -1.1894  0.7439 -4.5481
  170MOL0     H22397   3.596   2.119   6.901  0.9731 -0.3233 -0.5847
  170MOL0     H22398   3.595   1.970   7.168 -3.6120 -1.3602  0.3201
  170MOL0     H22399   3.569   2.139   7.197 -0.1404 -1.1094  0.4601
  170MOL0     H22400   3.368   2.014   7.168 -1.9519  2.8694 -0.4748
  170MOL0     H22401   3.416   1.966   7.005  0.9688 -0.2638  0.0645
  170MOL0     H22402   3.157   2.009   7.091 -1.6998  0.3365  1.3523
  170MOL0     H22403   2.925   2.054   7.020  0.4317 -0.7129 -1.2137
  170MOL0     H22404   2.592   2.210   7.194  1.2407  2.9468  0.7603
  170MOL0     H22405   2.351   2.253   7.227 -1.1376  2.6685  0.0138
  170MOL0     H22406   2.210   2.479   7.199 -0.2659  2.4184 -2.7652
  170MOL0     H22407   2.142   2.318   7.235  2.0439  0.8113  1.4401
  170MOL0     H22408   1.988   2.529   7.064  0.5948 -2.0532 -2.8070
  170MOL0     H22409   1.968   2.520   7.236 -0.8514 -0.8022  0.9986
  170MOL0     H22410   1.944   2.273   7.053  0.8759  2.0315 -1.1834
  170MOL0     H22411   1.824   2.392   7.031 -0.8037 -1.2586  0.0761
  170MOL0     H22412   1.879   2.287   7.311 -0.8557  0.4811  0.6254
  170MOL0     H22413   1.725   2.354   7.264 -1.2413 -1.8206  1.2609
  170MOL0     H22414   1.858   2.098   7.198 -0.1356  0.2518 -0.0148
  170MOL0     H22415   1.717   2.142   7.095 -0.5378  1.8355  0.2482
  170MOL0     H22416   1.585   2.184   7.301  2.8695  2.9694  1.3198
  170MOL0     H22417   1.702   2.102   7.393 -0.0363  4.5234  1.8423
  170MOL0     H22418   1.555   1.964   7.162 -3.8833 -0.4342  2.4849
  170MOL0     H22419   1.717   1.911   7.219  1.8561  4.5997  1.3661
  170MOL0     H22420   1.621   1.852   7.431  0.1999 -0.4526  0.2768
  170MOL0     H22421   1.505   1.791   7.323 -1.8933 -0.4744  2.5008
  170MOL0     H22422   2.348   2.407   6.822 -0.0475  0.4408 -0.4863
  170MOL0     H22423   2.582   2.324   6.802  0.4578 -0.0768  0.3291
  170MOL0     H22424   3.042   2.460   6.928 -1.0003 -0.6677 -0.2421
  170MOL0     H22425   3.277   2.397   6.942  2.3335 -1.1252  0.5519
  170MOL0     H22426   4.956   1.595   6.627  1.3712 -0.7965  0.0148
  170MOL0     H22427   5.194   1.561   6.547  2.2738  0.3751  1.0082
  170MOL0     H22428   5.703   1.992   6.479  1.2241  0.4579 -0.8301
  170MOL0     H22429   5.914   1.931   6.426  1.5696 -0.6306  2.3423
  170MOL0     H22430   6.111   1.704   6.204 -2.2543  0.6828 -1.9303
  170MOL0     H22431   5.943   1.637   6.202 -1.5724  0.4471  3.3026
  170MOL0     H22432   6.222   1.525   6.235 -0.6012  1.2113 -1.0353
  170MOL0     H22433   6.094   1.437   6.332 -1.0028  1.9311  1.4130
  170MOL0     H22434   5.954   1.431   6.132  0.8913 -1.1158 -1.0836
  170MOL0     H22435   6.098   1.327   6.135 -0.2704 -0.1370  2.1496
  170MOL0     H22436   6.074   1.594   5.993  0.2651  0.3045 -1.4655
  170MOL0     H22437   6.220   1.496   5.996  0.3311  0.2874  0.4683
  170MOL0     H22438   5.987   1.297   5.700 -0.5492  3.2209 -1.3259
  170MOL0     H22439   5.806   1.517   6.400 -0.5486 -0.6260 -0.1222
  170MOL0     H22440   5.590   1.567   6.506  0.8571 -2.3777  1.7918
  171MOL0     O22441   9.379   4.801   4.589  0.2017 -0.1636  1.0644
  171MOL0     C22442   9.467   4.872   4.613 -0.1503 -0.6121 -0.5088
  171MOL0     O22443   9.542   4.941   4.524  0.0732 -0.4169 -0.0721
  171MOL0     C22444   9.514   4.902   4.397  0.1017  0.5269  0.6948
  171MOL0     C22445   9.574   4.794   4.348  0.0335  0.2992  0.2934
  171MOL0     C22446   9.536   4.743   4.221 -0.0676  0.0456 -0.4204
  171MOL0     C22447   9.447   4.813   4.140  0.1920  0.0511 -0.1490
  171MOL0     O22448   9.437   4.778   4.012  0.9437 -0.3238  0.0679
  171MOL0     C22449   9.357   4.663   3.985  0.4656  0.4917  0.6409
  171MOL0     C22450   9.351   4.608   3.840  0.2336  0.1772  0.1650
  171MOL0     C22451   9.304   4.726   3.750 -0.1294  0.4557 -0.1594
  171MOL0     C22452   9.152   4.756   3.764  0.5371  0.4173  0.6201
  171MOL0     C22453   9.097   4.874   3.675 -0.1251 -0.6088  0.1933
  171MOL0     C22454   9.080   5.001   3.767  0.5021 -0.0845  0.2695
  171MOL0     C22455   9.032   5.110   3.681  0.6155  0.3229  0.1245
  171MOL0     C22456   9.014   5.238   3.760  0.2455 -0.3147  0.1005
  171MOL0     N22457   8.982   5.359   3.678  0.5539 -0.0143 -0.5208
  171MOL0     C22458   8.864   5.426   3.689 -0.5585 -0.4719 -0.6046
  171MOL0     C22459   8.899   5.538   3.617 -0.2238 -0.4171  0.7874
  171MOL0     C22460   8.811   5.665   3.601 -0.4022  0.5197  0.7384
  171MOL0     C22461   8.789   5.753   3.722 -0.1394  0.7219  0.1877
  171MOL0     C22462   8.713   5.878   3.680 -0.7152 -0.4021  0.0387
  171MOL0     C22463   8.574   5.851   3.629  0.2923 -0.1066 -0.2159
  171MOL0     O22464   8.500   5.774   3.724 -0.3951  0.7802 -0.1513
  171MOL0     C22465   8.368   5.748   3.707 -0.4731 -0.6163 -0.0146
  171MOL0     C22466   8.298   5.797   3.595  0.3262 -0.3651  0.0541
  171MOL0     C22467   8.165   5.758   3.578 -0.2503  0.0056  0.2264
  171MOL0     C22468   8.096   5.664   3.661  0.3075 -0.5177 -0.0689
  171MOL0     C22469   7.951   5.626   3.651 -0.6912  0.0927 -0.9934
  171MOL0     O22470   7.880   5.722   3.584 -0.9773  0.2327 -0.3823
  171MOL0     C22471   7.751   5.716   3.567  0.4351 -0.6024 -0.4319
  171MOL0     C22472   7.671   5.817   3.628 -0.0884 -0.1239  0.3334
  171MOL0     C22473   7.529   5.812   3.624 -0.6732  0.1924  0.0413
  171MOL0     C22474   7.472   5.702   3.562 -0.3566  0.4996 -0.4619
  171MOL0     O22475   7.336   5.684   3.544  0.8386 -0.1629 -0.2641
  171MOL0     C22476   7.242   5.784   3.586  0.0380  0.3326 -0.3553
  171MOL0     C22477   7.104   5.740   3.541 -0.0656  0.1473 -0.3448
  171MOL0     C22478   7.008   5.866   3.562 -0.7174  0.1082  0.6429
  171MOL0     C22479   6.857   5.822   3.535 -0.5589  0.5643 -0.1952
  171MOL0     C22480   6.771   5.939   3.585  0.5161 -0.7350  0.3027
  171MOL0     C22481   6.622   5.898   3.556  0.3039 -0.8231  0.1682
  171MOL0     C22482   6.556   6.028   3.529 -0.4461 -0.2716  0.2406
  171MOL0     C22483   6.411   6.012   3.518 -0.8417 -0.0087 -0.1841
  171MOL0    Cl22484   6.338   5.978   3.680 -0.0321 -0.2051  0.0162
  171MOL0     C22485   7.556   5.605   3.498 -0.6205  0.2573  0.0228
  171MOL0     C22486   7.694   5.611   3.496 -0.0409  0.1405  0.2676
  171MOL0     O22487   7.909   5.550   3.735  0.0217  0.2725 -0.2206
  171MOL0     C22488   8.165   5.633   3.780 -0.1421  0.6040  0.3518
  171MOL0     C22489   8.298   5.671   3.796 -0.3354  0.5334  0.3947
  171MOL0     N22490   9.033   5.527   3.567  1.5285 -0.2679  0.1933
  171MOL0     N22491   9.076   5.412   3.604  0.3441 -0.5035  0.0324
  171MOL0     C22492   9.388   4.929   4.189  0.6781  0.1948 -1.3460
  171MOL0     C22493   9.423   4.980   4.315  0.1157  0.5309 -0.6425
  171MOL0     C22494   9.491   4.901   4.757  1.0667  0.6516 -0.4218
  171MOL0     C22495   9.420   4.841   4.859 -0.5112  0.3075 -0.0478
  171MOL0     C22496   9.454   4.851   4.986  0.1325 -0.4378 -0.4829
  171MOL0     C22497   9.555   4.950   5.036 -0.6079  0.1650  0.8098
  171MOL0     O22498   9.581   4.970   5.163  0.2700 -0.1967 -0.5316
  171MOL0     C22499   9.496   4.892   5.259 -0.3476 -0.1205  1.0410
  171MOL0     C22500   9.526   4.922   5.410  0.0644  0.0797 -0.0972
  171MOL0     C22501   9.519   5.069   5.439  0.8877 -1.0417 -0.2823
  171MOL0     C22502   9.499   5.091   5.590 -0.5049  0.1504  0.1855
  171MOL0     C22503   9.557   5.221   5.631  0.4750 -0.7972  0.4625
  171MOL0     C22504   9.620   5.324   5.654  0.3472  0.6597  0.3435
  171MOL0     C22505   9.635   5.005   4.936 -0.5941  1.0611 -0.5663
  171MOL0     C22506   9.609   4.975   4.800  0.4905  0.2704 -0.7632
  171MOL0     H22507   9.644   4.735   4.407 -0.7081 -1.2674 -0.3615
  171MOL0     H22508   9.591   4.655   4.189  3.2216  1.8808 -0.2667
  171MOL0     H22509   9.258   4.689   4.022 -0.9194  1.2850 -3.1960
  171MOL0     H22510   9.405   4.582   4.041  3.8045  0.0609 -2.4317
  171MOL0     H22511   9.288   4.518   3.838  1.1151 -0.5571  2.2725
  171MOL0     H22512   9.450   4.568   3.814 -0.0837 -0.0462 -0.7545
  171MOL0     H22513   9.336   4.700   3.648 -1.3705 -0.2255 -0.3976
  171MOL0     H22514   9.348   4.820   3.783 -2.4833  2.2548 -1.7791
  171MOL0     H22515   9.099   4.664   3.737  1.5027 -0.4514  1.5811
  171MOL0     H22516   9.130   4.771   3.870  4.2255  1.6459  1.3637
  171MOL0     H22517   8.998   4.846   3.638 -0.9924  1.1888  1.0682
  171MOL0     H22518   9.156   4.908   3.589 -2.7466  1.8415 -0.7875
  171MOL0     H22519   9.179   5.019   3.811  0.6653 -0.5591  0.1044
  171MOL0     H22520   9.008   4.992   3.849 -0.3814  0.5821 -0.4133
  171MOL0     H22521   9.111   5.139   3.611  2.6822 -0.6310  1.9268
  171MOL0     H22522   8.930   5.091   3.647 -0.8670  2.5966  2.8501
  171MOL0     H22523   9.099   5.262   3.825 -0.6090 -0.8969  1.4983
  171MOL0     H22524   8.929   5.223   3.827  1.9247 -0.5173  2.3039
  171MOL0     H22525   8.773   5.399   3.742 -0.5844  2.9239  1.3435
  171MOL0     H22526   8.717   5.623   3.565 -0.1425 -1.4754  2.2014
  171MOL0     H22527   8.853   5.725   3.520  1.3202 -1.6782 -0.1125
  171MOL0     H22528   8.883   5.780   3.770  1.1426  0.0491 -1.7982
  171MOL0     H22529   8.734   5.696   3.797  2.5144  1.2986  2.7529
  171MOL0     H22530   8.708   5.956   3.758 -0.6070  2.1175 -2.3266
  171MOL0     H22531   8.773   5.923   3.600  0.4235  2.2793  2.2103
  171MOL0     H22532   8.569   5.803   3.531 -1.3162 -0.1053 -0.1558
  171MOL0     H22533   8.520   5.946   3.619 -2.0047 -1.3534 -0.1324
  171MOL0     H22534   8.333   5.858   3.513  0.3490 -1.9617 -1.1807
  171MOL0     H22535   8.113   5.774   3.483 -0.3279  0.4577  0.3444
  171MOL0     H22536   7.712   5.903   3.679  2.4755 -0.8342 -0.3690
  171MOL0     H22537   7.464   5.896   3.641  0.0625  1.0440 -1.1866
  171MOL0     H22538   7.270   5.884   3.551 -0.6431  1.5226  2.2433
  171MOL0     H22539   7.232   5.781   3.695 -0.3056  3.2338 -0.2179
  171MOL0     H22540   7.069   5.654   3.600  1.1289  0.0400  0.2455
  171MOL0     H22541   7.119   5.718   3.435  0.6559  0.5626 -0.3400
  171MOL0     H22542   7.047   5.941   3.492  1.6386 -1.6724 -0.1023
  171MOL0     H22543   7.022   5.898   3.666 -1.1294  0.4872  0.5814
  171MOL0     H22544   6.829   5.804   3.431 -0.4218 -3.2533  0.2658
  171MOL0     H22545   6.832   5.730   3.590 -0.0559  2.9349  4.5198
  171MOL0     H22546   6.798   6.034   3.540 -0.8910  0.2788  1.4917
  171MOL0     H22547   6.773   5.953   3.694 -3.1534  1.7451  0.2318
  171MOL0     H22548   6.582   5.857   3.649  1.6261 -1.9748  0.2557
  171MOL0     H22549   6.614   5.830   3.471  1.3770  3.2050 -3.5170
  171MOL0     H22550   6.583   6.095   3.611  2.0920 -3.0355  1.8829
  171MOL0     H22551   6.596   6.067   3.435 -1.8663  2.7844  0.8051
  171MOL0     H22552   6.397   5.929   3.448 -0.1378  1.3971 -2.0888
  171MOL0     H22553   6.379   6.108   3.476  5.2891  1.5448 -2.3378
  171MOL0     H22554   7.500   5.525   3.450 -3.3174  3.0053 -1.8389
  171MOL0     H22555   7.754   5.537   3.444 -0.4027  0.2211 -0.2764
  171MOL0     H22556   8.112   5.579   3.857  1.4917 -0.3963  0.8452
  171MOL0     H22557   8.343   5.644   3.891 -0.0294 -0.7752 -0.1077
  171MOL0     H22558   9.323   4.993   4.130 -0.5421  0.0697 -0.1860
  171MOL0     H22559   9.378   5.075   4.342 -0.2800  0.7835 -2.1308
  171MOL0     H22560   9.333   4.778   4.847 -1.8052  1.6354  1.8008
  171MOL0     H22561   9.390   4.802   5.059  2.1272 -1.2173  0.8490
  171MOL0     H22562   9.491   4.786   5.234 -0.8193 -0.1334  1.1713
  171MOL0     H22563   9.395   4.932   5.249  0.0825  1.2410  1.8946
  171MOL0     H22564   9.464   4.864   5.478 -0.2222  1.2418  0.6742
  171MOL0     H22565   9.632   4.893   5.410  0.0514 -0.1303 -2.4664
  171MOL0     H22566   9.427   5.103   5.390  2.6969  2.4263 -1.6459
  171MOL0     H22567   9.605   5.121   5.397  0.5167  0.6486  0.9709
  171MOL0     H22568   9.394   5.073   5.614 -1.0762  0.0033 -2.1612
  171MOL0     H22569   9.554   5.012   5.642 -1.3567 -0.1847  0.5854
  171MOL0     H22570   9.660   5.418   5.686 -0.4405  0.8680  0.7686
  171MOL0     H22571   9.717   5.059   4.982 -0.0238  0.5822 -1.0042
  171MOL0     H22572   9.678   5.013   4.725  2.2858 -2.2420 -0.5043
  172MOL0     O22573   5.438   2.571   5.139  0.5225  0.5232  0.6431
  172MOL0     C22574   5.502   2.571   5.241  0.9291 -0.0080 -0.2818
  172MOL0     O22575   5.455   2.594   5.378 -0.4525 -0.0388  0.3855
  172MOL0     C22576   5.318   2.558   5.397 -0.2790 -0.0613  0.1865
  172MOL0     C22577   5.217   2.619   5.309 -0.3186  0.0931  0.1281
  172MOL0     C22578   5.084   2.597   5.330 -0.7950  0.4357 -1.0434
  172MOL0     C22579   5.046   2.519   5.438 -0.7417 -0.3759 -0.6417
  172MOL0     O22580   4.913   2.502   5.459  0.5178  0.6523  0.1160
  172MOL0     C22581   4.867   2.379   5.530 -0.2562 -0.7487  0.0973
  172MOL0     C22582   4.726   2.344   5.488 -0.6627 -0.2754 -0.0448
  172MOL0     C22583   4.613   2.420   5.554 -0.0991 -0.3219  0.1342
  172MOL0     C22584   4.575   2.362   5.689 -0.3863  0.1746  0.3642
  172MOL0     C22585   4.480   2.444   5.780  0.2400 -0.3684  0.6737
  172MOL0     C22586   4.358   2.490   5.706  0.5378 -0.0143 -0.7022
  172MOL0     C22587   4.258   2.544   5.804  0.0466 -0.6736 -0.3891
  172MOL0     C22588   4.141   2.609   5.729 -0.1219  0.1470  0.0192
  172MOL0     N22589   4.040   2.509   5.697  0.3931  0.1698  0.8408
  172MOL0     C22590   3.968   2.444   5.787  0.8597  0.5748 -0.4888
  172MOL0     C22591   3.851   2.412   5.720 -0.2570 -1.3991  0.5641
  172MOL0     C22592   3.741   2.322   5.772 -0.0954  0.5574 -0.8397
  172MOL0     C22593   3.602   2.374   5.738 -0.5340  0.3103  0.2564
  172MOL0     C22594   3.502   2.349   5.839  0.2979 -0.5392 -0.0896
  172MOL0     C22595   3.364   2.381   5.794  0.5279 -0.6018 -0.4622
  172MOL0     O22596   3.315   2.295   5.689 -0.1181  0.0886 -0.1455
  172MOL0     C22597   3.179   2.311   5.662 -1.1628 -0.0751  0.3491
  172MOL0     C22598   3.087   2.396   5.732 -0.5179  0.5324 -0.2216
  172MOL0     C22599   2.949   2.411   5.688  0.2447 -0.2434  0.5146
  172MOL0     C22600   2.899   2.324   5.580  0.0943 -0.7664  0.6581
  172MOL0     C22601   2.761   2.325   5.531  0.1667  0.0861 -0.4123
  172MOL0     O22602   2.675   2.397   5.608  0.2534  0.1073 -0.2579
  172MOL0     C22603   2.541   2.371   5.594  0.4308  0.5028 -0.4227
  172MOL0     C22604   2.464   2.484   5.579 -0.3574 -0.2627  0.5401
  172MOL0     C22605   2.324   2.480   5.562  0.0011 -0.5083  0.1472
  172MOL0     C22606   2.257   2.355   5.546  0.4180  0.6916 -0.0649
  172MOL0     O22607   2.125   2.334   5.518  0.3892 -0.0825 -0.2922
  172MOL0     C22608   2.035   2.442   5.561 -0.0031  0.0339  0.1503
  172MOL0     C22609   1.891   2.397   5.568 -0.1057  0.1639  0.6099
  172MOL0     C22610   1.833   2.346   5.442  0.2602 -0.5642 -0.6671
  172MOL0     C22611   1.685   2.320   5.456  0.1912 -0.2046  0.3237
  172MOL0     C22612   1.631   2.281   5.315  0.4209 -0.7701  0.8221
  172MOL0     C22613   1.481   2.282   5.315  0.0685 -0.0084 -0.5775
  172MOL0     C22614   1.432   2.232   5.178  0.1156 -0.6673 -0.4124
  172MOL0     C22615   1.285   2.196   5.198  0.7986 -0.4642 -0.0320
  172MOL0    Cl22616   1.177   2.342   5.221 -0.2708  0.1388 -0.0788
  172MOL0     C22617   2.347   2.248   5.554 -0.6291  0.2955  1.1565
  172MOL0     C22618   2.482   2.247   5.592  0.5632  1.0605  0.2624
  172MOL0     O22619   2.725   2.254   5.435  0.4831 -0.0915  0.0393
  172MOL0     C22620   2.996   2.242   5.514  0.4178  0.8107  0.4570
  172MOL0     C22621   3.130   2.230   5.562 -0.2597 -1.0572  0.3079
  172MOL0     N22622   3.853   2.454   5.588 -0.3248 -0.2818  0.2272
  172MOL0     N22623   3.975   2.508   5.577 -0.2199  0.4318  0.4370
  172MOL0     C22624   5.141   2.465   5.526 -0.3122 -0.0406 -0.0403
  172MOL0     C22625   5.275   2.490   5.506  0.5184  0.3093 -0.3292
  172MOL0     C22626   5.650   2.548   5.230 -0.1979  0.2229 -0.2810
  172MOL0     C22627   5.729   2.500   5.337 -0.3115  0.7206  0.3177
  172MOL0     C22628   5.866   2.466   5.322 -0.6550 -0.8378  0.5404
  172MOL0     C22629   5.929   2.498   5.199  0.6480  1.2799  0.3988
  172MOL0     O22630   6.064   2.480   5.184 -0.2208 -0.1191 -0.3420
  172MOL0     C22631   6.142   2.562   5.097  0.3517  0.3891  0.2066
  172MOL0     C22632   6.292   2.534   5.140  0.7664 -0.0788 -0.4491
  172MOL0     C22633   6.328   2.384   5.126  0.9705 -0.7261  0.0061
  172MOL0     C22634   6.486   2.358   5.148  0.6520  0.2049  0.8260
  172MOL0     C22635   6.516   2.367   5.291  0.4590 -0.1498  0.0081
  172MOL0     C22636   6.563   2.371   5.405 -1.4585  0.4146  0.1119
  172MOL0     C22637   5.848   2.538   5.096  0.8088 -0.3660  0.5732
  172MOL0     C22638   5.715   2.576   5.115  0.9177  0.0129  0.7672
  172MOL0     H22639   5.241   2.700   5.240 -1.5005 -1.0894 -1.7844
  172MOL0     H22640   5.010   2.654   5.273  0.0127  1.4350 -1.1223
  172MOL0     H22641   4.859   2.405   5.636 -1.5626 -1.6408  0.2365
  172MOL0     H22642   4.926   2.287   5.525 -0.6603 -1.0878  1.3047
  172MOL0     H22643   4.717   2.239   5.519  0.8691 -0.8592 -1.4252
  172MOL0     H22644   4.712   2.336   5.380 -0.9075  1.4681 -0.1674
  172MOL0     H22645   4.526   2.422   5.488  0.1584 -2.0377 -0.3190
  172MOL0     H22646   4.647   2.522   5.572  0.1198 -0.3173 -0.2866
  172MOL0     H22647   4.535   2.263   5.666  0.4800 -0.1088  0.0542
  172MOL0     H22648   4.667   2.339   5.743 -0.1196 -0.3389 -0.3020
  172MOL0     H22649   4.534   2.525   5.828  1.6323 -1.4114  0.9355
  172MOL0     H22650   4.462   2.386   5.871 -2.8285 -2.5510 -1.1277
  172MOL0     H22651   4.313   2.408   5.649 -1.9761  1.7470 -1.3853
  172MOL0     H22652   4.382   2.577   5.645 -0.9751  2.0374  1.4577
  172MOL0     H22653   4.222   2.465   5.870 -0.5296  0.0780  0.2171
  172MOL0     H22654   4.305   2.618   5.871 -0.2325  0.5000 -1.4536
  172MOL0     H22655   4.176   2.648   5.632 -1.1367  2.0014  0.3554
  172MOL0     H22656   4.110   2.705   5.771  0.1713  0.5326 -0.6203
  172MOL0     H22657   4.001   2.431   5.890  1.9287 -0.1933 -0.9204
  172MOL0     H22658   3.751   2.317   5.881 -1.6464  0.3351 -0.6919
  172MOL0     H22659   3.753   2.223   5.729 -1.7323  0.1142 -0.3497
  172MOL0     H22660   3.569   2.332   5.642 -1.6949 -0.7905  1.1026
  172MOL0     H22661   3.597   2.482   5.726 -0.8889  0.8097  3.8853
  172MOL0     H22662   3.502   2.243   5.867 -0.7962 -0.8761 -1.2674
  172MOL0     H22663   3.523   2.401   5.933 -2.6235  0.3067  0.1899
  172MOL0     H22664   3.373   2.486   5.764  4.8804 -1.0295 -1.3290
  172MOL0     H22665   3.314   2.382   5.891  1.7864  1.2841  0.2169
  172MOL0     H22666   3.112   2.447   5.824  2.4696  1.3968 -1.3861
  172MOL0     H22667   2.881   2.474   5.744 -0.5119 -0.7079  0.1388
  172MOL0     H22668   2.524   2.573   5.563 -0.0014 -0.8919 -2.0306
  172MOL0     H22669   2.257   2.563   5.544 -0.0039 -0.6861 -0.6676
  172MOL0     H22670   2.041   2.529   5.494 -1.5388 -2.1327 -3.0509
  172MOL0     H22671   2.071   2.463   5.662 -1.3062  3.0213  0.1140
  172MOL0     H22672   1.835   2.486   5.597 -1.0618 -0.0338 -0.5457
  172MOL0     H22673   1.888   2.319   5.645 -0.2760  0.8421  1.3054
  172MOL0     H22674   1.877   2.250   5.415  2.2670 -0.1835  1.0267
  172MOL0     H22675   1.843   2.428   5.370 -4.7456  0.0549 -1.0308
  172MOL0     H22676   1.656   2.243   5.528 -3.3379 -1.5396 -2.2542
  172MOL0     H22677   1.635   2.414   5.480  0.9737  0.8276 -1.7845
  172MOL0     H22678   1.673   2.182   5.293  1.0039 -0.3021 -0.2459
  172MOL0     H22679   1.662   2.351   5.237  2.1476  2.8409  4.4087
  172MOL0     H22680   1.452   2.386   5.328  2.3010  0.6233 -0.2551
  172MOL0     H22681   1.453   2.215   5.398  1.2065 -1.1441 -1.0752
  172MOL0     H22682   1.451   2.306   5.100 -0.4833  0.1017  0.1471
  172MOL0     H22683   1.483   2.143   5.141 -0.0241 -1.9383  2.2327
  172MOL0     H22684   1.259   2.145   5.291 -2.9014 -2.5988 -2.0160
  172MOL0     H22685   1.248   2.137   5.113  0.8006 -2.3400  1.2249
  172MOL0     H22686   2.303   2.150   5.537  3.1169 -1.2694 -0.7338
  172MOL0     H22687   2.529   2.152   5.615  0.5554  1.4727  2.1937
  172MOL0     H22688   2.970   2.172   5.435 -1.9501  1.2368  0.7747
  172MOL0     H22689   3.209   2.167   5.521 -0.2384  0.2083 -1.7344
  172MOL0     H22690   5.111   2.400   5.607 -0.4202  0.6075  0.4431
  172MOL0     H22691   5.355   2.447   5.565  0.1790 -1.9236 -1.3997
  172MOL0     H22692   5.691   2.481   5.437  1.9064 -0.4952  1.0000
  172MOL0     H22693   5.924   2.434   5.408 -2.1073 -0.2190  1.7904
  172MOL0     H22694   6.119   2.668   5.109  0.4848  0.7048 -2.0103
  172MOL0     H22695   6.132   2.537   4.991  1.8595 -0.2733  0.1799
  172MOL0     H22696   6.360   2.595   5.080  0.0216  0.5077 -0.7138
  172MOL0     H22697   6.304   2.567   5.243  1.2530  0.4334 -0.6632
  172MOL0     H22698   6.306   2.354   5.023  1.2106  0.8608 -0.5377
  172MOL0     H22699   6.280   2.318   5.199 -0.0913 -1.2468 -1.1175
  172MOL0     H22700   6.518   2.256   5.127 -0.2624 -0.5460  2.8325
  172MOL0     H22701   6.538   2.430   5.084 -0.4258  3.5641  3.4293
  172MOL0     H22702   6.610   2.355   5.501  0.6537 -1.7816 -1.1588
  172MOL0     H22703   5.899   2.563   5.004  0.8256 -1.3743  0.2963
  172MOL0     H22704   5.673   2.637   5.036 -0.7956  1.0679  2.3979
  173MOL0     O22705  10.632   0.146   3.096  0.5379  0.4384 -0.3727
  173MOL0     C22706  10.682   0.253   3.106  0.7045 -0.3549  0.1486
  173MOL0     O22707  10.614   0.367   3.117  0.2532 -1.2726 -0.7976
  173MOL0     C22708  10.484   0.365   3.062 -0.0149 -0.4291 -0.4754
  173MOL0     C22709  10.376   0.419   3.124  0.2372  0.1252 -0.5684
  173MOL0     C22710  10.240   0.407   3.068 -0.1821  0.0623 -0.0675
  173MOL0     C22711  10.224   0.341   2.944  0.6423  0.1876  0.5047
  173MOL0     O22712  10.103   0.346   2.871 -0.3184  0.0630 -0.2158
  173MOL0     C22713   9.980   0.334   2.943  0.0046 -0.5946  0.3280
  173MOL0     C22714   9.879   0.387   2.852 -0.0883  0.0874  0.4407
  173MOL0     C22715   9.742   0.355   2.905  0.0999  0.3396 -0.6481
  173MOL0     C22716   9.638   0.441   2.830  0.0920 -0.3773  0.3776
  173MOL0     C22717   9.494   0.407   2.861 -0.4099 -0.0491 -0.2954
  173MOL0     C22718   9.465   0.255   2.843  0.2132 -0.0709 -0.4424
  173MOL0     C22719   9.314   0.236   2.831  1.3153  0.3168 -0.0558
  173MOL0     C22720   9.223   0.278   2.958 -0.0183  0.5868 -1.4912
  173MOL0     N22721   9.089   0.328   2.925  0.5907 -0.0639  0.1975
  173MOL0     C22722   9.066   0.458   2.877 -0.2539  0.4133 -0.2573
  173MOL0     C22723   8.935   0.455   2.847  0.0403 -0.0126  0.0955
  173MOL0     C22724   8.839   0.574   2.825  0.3674 -0.4452  1.0488
  173MOL0     C22725   8.830   0.602   2.672  0.0121  0.3335 -0.8909
  173MOL0     C22726   8.701   0.685   2.644  0.4666  0.4689  0.0715
  173MOL0     C22727   8.581   0.597   2.608 -0.4174  0.4015  0.0378
  173MOL0     O22728   8.475   0.670   2.559  1.1112  0.8394 -0.1086
  173MOL0     C22729   8.375   0.715   2.653 -0.2237  1.6211  0.4269
  173MOL0     C22730   8.251   0.758   2.605 -0.1270 -0.0663 -0.8872
  173MOL0     C22731   8.146   0.794   2.692 -0.2886 -0.1183  0.0376
  173MOL0     C22732   8.168   0.786   2.832  0.8949  0.2012 -0.2148
  173MOL0     C22733   8.056   0.814   2.916  0.2221  0.2446 -0.5137
  173MOL0     O22734   7.930   0.833   2.863  0.2478 -0.5212 -0.5611
  173MOL0     C22735   7.821   0.869   2.941  1.0590 -0.5842  0.1785
  173MOL0     C22736   7.833   0.963   3.043 -0.3584  0.1811  0.7716
  173MOL0     C22737   7.732   0.995   3.129  0.4912  0.5531 -0.3546
  173MOL0     C22738   7.600   0.947   3.097  0.8593  0.0527  0.6703
  173MOL0     O22739   7.499   0.964   3.186  0.8209  0.1486 -0.2768
  173MOL0     C22740   7.374   0.885   3.194 -0.8357 -0.9663 -0.0918
  173MOL0     C22741   7.296   0.925   3.320  0.3699 -0.1296 -1.0287
  173MOL0     C22742   7.174   0.835   3.334  0.9086  0.8388  0.0813
  173MOL0     C22743   7.105   0.876   3.462  0.1472 -0.4065  0.3844
  173MOL0     C22744   7.173   0.810   3.588  1.1490  0.4080  0.0076
  173MOL0     C22745   7.141   0.864   3.730 -0.4694  0.6623 -0.6626
  173MOL0     C22746   7.233   0.807   3.848 -0.4008 -0.2107  0.5023
  173MOL0     C22747   7.172   0.670   3.903  0.4983  0.1789 -0.4793
  173MOL0    Cl22748   7.012   0.705   3.959 -0.1391  0.1985 -0.5449
  173MOL0     C22749   7.584   0.869   2.983  0.4156  0.1290 -0.2089
  173MOL0     C22750   7.690   0.825   2.903 -0.0028  0.9237 -0.0531
  173MOL0     O22751   8.074   0.804   3.037 -0.2934  0.7020  0.7929
  173MOL0     C22752   8.293   0.738   2.876  0.3892  0.1417  0.2737
  173MOL0     C22753   8.398   0.702   2.788 -0.2604 -0.1195 -0.5046
  173MOL0     N22754   8.882   0.327   2.859 -0.1019  0.6608 -0.4887
  173MOL0     N22755   8.971   0.255   2.905  0.1804 -0.2789  0.2360
  173MOL0     C22756  10.343   0.300   2.875 -0.5571  0.2454 -0.6058
  173MOL0     C22757  10.468   0.311   2.933  1.1877 -0.5725  0.4947
  173MOL0     C22758  10.829   0.261   3.123  0.8073  0.0773 -0.0256
  173MOL0     C22759  10.893   0.147   3.164 -0.2245  0.2967  0.9682
  173MOL0     C22760  11.032   0.146   3.180  0.0494  0.0244  1.5267
  173MOL0     C22761  11.109   0.260   3.152  0.0635 -0.2126  1.0979
  173MOL0     O22762  11.245   0.246   3.155  0.0461 -0.3186 -0.9484
  173MOL0     C22763  11.332   0.366   3.177 -0.4127 -0.5830  0.5328
  173MOL0     C22764  11.458   0.321   3.267  0.3797  1.1073  0.3936
  173MOL0     C22765  11.558   0.431   3.261 -0.0268  0.1639  0.3855
  173MOL0     C22766  11.677   0.411   3.362 -0.0268  0.1261 -0.5428
  173MOL0     C22767  11.788   0.504   3.346 -0.2870  0.9309  1.0984
  173MOL0     C22768  11.853   0.606   3.342  0.7414 -0.0877 -0.0047
  173MOL0     C22769  11.038   0.379   3.119 -0.0331 -0.4019  0.0742
  173MOL0     C22770  10.900   0.384   3.110 -0.1641  0.4918 -0.6467
  173MOL0     H22771  10.382   0.466   3.222 -2.0798 -0.1070 -0.2622
  173MOL0     H22772  10.158   0.442   3.129 -0.5145 -1.4750  0.3993
  173MOL0     H22773   9.972   0.387   3.038 -1.4271 -2.4411  1.3131
  173MOL0     H22774   9.955   0.229   2.963  1.4577 -1.2247 -0.9642
  173MOL0     H22775   9.897   0.351   2.750 -2.4887  1.9633 -0.7329
  173MOL0     H22776   9.893   0.495   2.848  3.9841 -0.2703  0.2965
  173MOL0     H22777   9.742   0.381   3.011  0.4479  1.0105 -0.8079
  173MOL0     H22778   9.719   0.248   2.903 -1.9811  0.5587  3.0013
  173MOL0     H22779   9.652   0.546   2.858  0.5945 -0.7756  1.6616
  173MOL0     H22780   9.650   0.427   2.722 -1.2357  0.3440  0.1172
  173MOL0     H22781   9.442   0.465   2.784 -1.7045 -1.2496 -0.3612
  173MOL0     H22782   9.463   0.445   2.958  0.6174  1.6901 -0.6061
  173MOL0     H22783   9.505   0.198   2.928  0.1240 -0.2153 -0.4963
  173MOL0     H22784   9.511   0.210   2.755  1.4904 -1.2986  0.7913
  173MOL0     H22785   9.274   0.261   2.732  1.7662 -1.8679 -0.8360
  173MOL0     H22786   9.298   0.128   2.834 -3.2963  0.8005  0.8033
  173MOL0     H22787   9.277   0.352   3.019 -1.4561  1.3087 -1.0331
  173MOL0     H22788   9.216   0.188   3.020  1.1421 -0.8500 -3.3245
  173MOL0     H22789   9.132   0.541   2.901  1.5916 -0.7587 -1.0013
  173MOL0     H22790   8.869   0.655   2.891  1.2463 -0.2176  0.3878
  173MOL0     H22791   8.739   0.547   2.860  0.8913  1.3447  4.2231
  173MOL0     H22792   8.816   0.510   2.614 -1.2789  1.5867 -2.7046
  173MOL0     H22793   8.916   0.664   2.644 -0.0689  1.0544  0.3641
  173MOL0     H22794   8.669   0.756   2.721 -0.4819  2.1712 -1.7592
  173MOL0     H22795   8.718   0.743   2.552 -1.0234 -0.8728 -1.1107
  173MOL0     H22796   8.553   0.523   2.685  1.6940  0.5697  1.0508
  173MOL0     H22797   8.606   0.529   2.526 -0.3738 -0.3806  0.6781
  173MOL0     H22798   8.246   0.765   2.497 -0.0248 -0.4818 -0.9206
  173MOL0     H22799   8.056   0.839   2.652 -0.2987  0.1554  0.3610
  173MOL0     H22800   7.923   1.018   3.066 -1.5031  2.3496  0.3624
  173MOL0     H22801   7.743   1.050   3.222 -0.4193 -0.1526  0.1863
  173MOL0     H22802   7.400   0.779   3.201  0.3061 -1.0607 -3.7980
  173MOL0     H22803   7.315   0.904   3.104 -1.1711  2.7995  0.7455
  173MOL0     H22804   7.279   1.033   3.315 -0.2050  0.0023  2.1253
  173MOL0     H22805   7.357   0.894   3.405 -1.3940 -2.8291 -0.6554
  173MOL0     H22806   7.202   0.730   3.329 -1.1217  0.2435  0.2576
  173MOL0     H22807   7.113   0.844   3.243  0.5373 -2.8068 -0.1449
  173MOL0     H22808   7.125   0.983   3.468  3.5145 -1.0258  2.9074
  173MOL0     H22809   6.996   0.863   3.455  0.1136 -0.3787  0.8423
  173MOL0     H22810   7.281   0.811   3.567  1.0174 -1.4892 -1.0384
  173MOL0     H22811   7.142   0.705   3.595  1.1081  0.5305  2.4886
  173MOL0     H22812   7.038   0.831   3.745 -0.1913 -0.6527 -1.4767
  173MOL0     H22813   7.147   0.973   3.737 -2.3218  0.8688 -1.6611
  173MOL0     H22814   7.336   0.789   3.816 -0.7374  1.3567 -1.6967
  173MOL0     H22815   7.232   0.885   3.924 -0.9045  3.0997 -2.6448
  173MOL0     H22816   7.231   0.630   3.986 -0.6820 -0.5466  0.0281
  173MOL0     H22817   7.172   0.598   3.822 -2.0973 -1.9188  1.2279
  173MOL0     H22818   7.484   0.840   2.954  0.6417  1.4706 -2.6675
  173MOL0     H22819   7.678   0.752   2.824 -1.3834  0.8993  0.1516
  173MOL0     H22820   8.318   0.734   2.982  1.6343  5.2827  0.4352
  173MOL0     H22821   8.481   0.677   2.853 -1.1273 -0.5964  0.4499
  173MOL0     H22822  10.324   0.270   2.772 -1.5433 -0.0677 -0.3421
  173MOL0     H22823  10.559   0.279   2.883  1.1748 -0.7676  0.5936
  173MOL0     H22824  10.843   0.053   3.182  0.1931 -0.4997 -1.7266
  173MOL0     H22825  11.071   0.047   3.201 -4.3145 -2.4173 -0.5389
  173MOL0     H22826  11.282   0.455   3.217 -2.2599 -1.2845 -0.1224
  173MOL0     H22827  11.364   0.394   3.076  0.3655 -1.1678  0.6115
  173MOL0     H22828  11.423   0.298   3.368 -0.3021 -3.7094 -0.6819
  173MOL0     H22829  11.500   0.228   3.227 -1.6178  0.8785 -1.3523
  173MOL0     H22830  11.507   0.521   3.297 -1.9024 -0.4931 -0.5041
  173MOL0     H22831  11.601   0.436   3.161  0.6368 -0.0515  0.6528
  173MOL0     H22832  11.645   0.433   3.464 -1.9639  1.8360 -1.4440
  173MOL0     H22833  11.718   0.311   3.345 -0.9462 -0.6633  1.5963
  173MOL0     H22834  11.897   0.704   3.344 -1.4789  1.3107 -4.6182
  173MOL0     H22835  11.088   0.474   3.106 -2.1078  1.0514  2.0192
  173MOL0     H22836  10.844   0.476   3.093  0.0631  1.7546  4.1372
  174MOL0     O22837   9.177   1.302   4.555 -0.0662  0.3482  0.2224
  174MOL0     C22838   9.272   1.244   4.587 -0.8915 -0.1872  0.8289
  174MOL0     O22839   9.278   1.112   4.608 -0.4186  1.1356 -0.5208
  174MOL0     C22840   9.158   1.041   4.593 -1.5321 -0.3448 -0.5854
  174MOL0     C22841   9.106   1.003   4.476  0.0797  0.3086  0.8561
  174MOL0     C22842   8.976   0.957   4.465  0.0106 -0.1377 -0.1898
  174MOL0     C22843   8.909   0.928   4.579 -0.0667  0.3483 -0.0526
  174MOL0     O22844   8.778   0.875   4.574 -0.6255  0.1228  0.1620
  174MOL0     C22845   8.684   0.904   4.469  0.9212 -0.0846 -0.5817
  174MOL0     C22846   8.559   0.984   4.507 -0.4545 -1.3449 -1.1302
  174MOL0     C22847   8.489   0.930   4.636 -0.8656  0.6289  0.3460
  174MOL0     C22848   8.348   0.996   4.674  0.0366  0.0979  0.4580
  174MOL0     C22849   8.370   1.143   4.683  0.9015  0.3320 -1.0372
  174MOL0     C22850   8.264   1.215   4.765  0.9353 -0.8388 -0.1982
  174MOL0     C22851   8.284   1.364   4.786 -0.1167 -0.1387  0.4857
  174MOL0     C22852   8.206   1.437   4.898  0.0586  0.0834 -0.3649
  174MOL0     N22853   8.066   1.407   4.898 -0.0574 -0.1276  0.3172
  174MOL0     C22854   7.970   1.460   4.819  0.2413 -0.5400  0.0605
  174MOL0     C22855   7.850   1.418   4.875  0.4281 -0.3028  0.5713
  174MOL0     C22856   7.708   1.441   4.817 -0.0051  0.1798 -0.7775
  174MOL0     C22857   7.615   1.513   4.912  0.1926  1.0330  0.3369
  174MOL0     C22858   7.565   1.420   5.031  0.6019 -0.4148  0.0247
  174MOL0     C22859   7.466   1.499   5.109  0.1944  0.1554 -0.3931
  174MOL0     O22860   7.344   1.523   5.034  0.4290 -0.7803 -0.2314
  174MOL0     C22861   7.247   1.594   5.103  0.3229  1.0648 -0.3755
  174MOL0     C22862   7.130   1.618   5.034  1.0255 -0.2708  0.2042
  174MOL0     C22863   7.023   1.691   5.094 -1.1531  0.0555  0.7265
  174MOL0     C22864   7.030   1.727   5.229 -0.5774  0.1992  0.7023
  174MOL0     C22865   6.915   1.790   5.286  0.2646  0.2015 -0.3001
  174MOL0     O22866   6.810   1.822   5.194  0.1694 -0.7904 -0.0902
  174MOL0     C22867   6.688   1.885   5.215  0.1791 -0.4942  0.4289
  174MOL0     C22868   6.635   1.914   5.340  0.7288 -1.1808  0.3064
  174MOL0     C22869   6.520   1.989   5.356  0.6855 -0.7419  0.1983
  174MOL0     C22870   6.437   2.027   5.252 -0.5249  0.0208  0.6544
  174MOL0     O22871   6.312   2.079   5.259  0.4922  0.0173 -0.3266
  174MOL0     C22872   6.243   2.112   5.379 -0.6361  0.1902 -0.1302
  174MOL0     C22873   6.100   2.159   5.340 -0.6040 -0.4932  0.0877
  174MOL0     C22874   6.033   2.023   5.335  0.3761  0.8669  0.2467
  174MOL0     C22875   5.898   2.043   5.273  0.2967 -0.9126  0.6091
  174MOL0     C22876   5.791   2.086   5.369 -0.8410 -0.3511  0.0396
  174MOL0     C22877   5.650   2.083   5.325 -0.2089 -0.4128  0.8017
  174MOL0     C22878   5.618   2.158   5.197  0.6189  0.2387 -0.2625
  174MOL0     C22879   5.468   2.189   5.189  0.6731 -0.1361 -0.0763
  174MOL0    Cl22880   5.368   2.049   5.231 -0.6333  0.0584 -0.0425
  174MOL0     C22881   6.489   1.995   5.128 -0.4798 -1.2627  0.2900
  174MOL0     C22882   6.606   1.925   5.105  0.1180  1.0287 -0.3196
  174MOL0     O22883   6.921   1.801   5.410 -0.1051 -0.6985  1.0663
  174MOL0     C22884   7.148   1.698   5.302 -0.3379 -0.4813 -0.1143
  174MOL0     C22885   7.256   1.635   5.239 -0.0767 -0.2711  0.8781
  174MOL0     N22886   7.877   1.337   4.981  0.8828  0.5438  0.0247
  174MOL0     N22887   8.007   1.328   4.991 -0.1869 -0.5140 -0.2347
  174MOL0     C22888   8.971   0.936   4.704  0.2709  0.0015  1.0095
  174MOL0     C22889   9.094   1.005   4.714 -0.4807  0.0920  0.4746
  174MOL0     C22890   9.402   1.322   4.586  0.1859 -0.3298  0.6071
  174MOL0     C22891   9.403   1.466   4.598  0.7561  0.1676  1.0292
  174MOL0     C22892   9.523   1.539   4.584  0.7296 -0.5019  0.3663
  174MOL0     C22893   9.646   1.470   4.564 -0.3707 -0.4268  0.0329
  174MOL0     O22894   9.765   1.537   4.550  1.5771  0.2043  0.3054
  174MOL0     C22895   9.888   1.475   4.584  0.2879  0.2680  0.6783
  174MOL0     C22896   9.998   1.591   4.580 -0.1300  0.6142 -0.0786
  174MOL0     C22897  10.037   1.617   4.432 -0.3671 -1.0621  0.1159
  174MOL0     C22898  10.170   1.695   4.441  0.5861  0.4222  0.0442
  174MOL0     C22899  10.287   1.604   4.451  0.1417 -0.7515 -0.2177
  174MOL0     C22900  10.387   1.531   4.454  0.2186 -0.0367  0.8028
  174MOL0     C22901   9.637   1.328   4.563 -0.4244  0.4889  0.2071
  174MOL0     C22902   9.520   1.252   4.573 -0.0992 -0.2309  0.0683
  174MOL0     H22903   9.166   1.040   4.394  1.3834  0.5596  1.8982
  174MOL0     H22904   8.931   0.952   4.366  0.2409  3.0857 -0.5798
  174MOL0     H22905   8.652   0.813   4.417 -1.5916  0.2534  0.2398
  174MOL0     H22906   8.740   0.967   4.400 -1.5288  0.4550 -2.2026
  174MOL0     H22907   8.493   0.969   4.421  1.9965 -2.8148 -2.8685
  174MOL0     H22908   8.593   1.088   4.501 -0.7571 -1.2652 -1.4922
  174MOL0     H22909   8.555   0.930   4.724  0.0877  0.0178 -0.3503
  174MOL0     H22910   8.474   0.824   4.615 -3.1190  0.6583  1.4944
  174MOL0     H22911   8.290   0.989   4.581  1.2027  3.5285 -0.6935
  174MOL0     H22912   8.297   0.949   4.758 -1.8818  4.9724  2.4153
  174MOL0     H22913   8.365   1.183   4.582 -0.5537 -0.8355 -1.4519
  174MOL0     H22914   8.463   1.157   4.740  0.9885  3.4793 -1.7506
  174MOL0     H22915   8.259   1.160   4.860  0.2119 -0.7551 -0.1819
  174MOL0     H22916   8.167   1.187   4.725  0.5062 -3.2452  2.2089
  174MOL0     H22917   8.389   1.367   4.814 -0.2137  1.6123  0.7694
  174MOL0     H22918   8.262   1.409   4.688 -3.4269 -2.8968 -0.2185
  174MOL0     H22919   8.211   1.546   4.882 -0.0889  0.0242 -0.8525
  174MOL0     H22920   8.251   1.410   4.994 -0.5100  0.0954 -0.0881
  174MOL0     H22921   7.982   1.545   4.753 -2.0402  1.8527  2.4762
  174MOL0     H22922   7.669   1.341   4.798 -0.4421  0.5549 -1.9927
  174MOL0     H22923   7.715   1.501   4.725 -0.2917  2.2936  0.4940
  174MOL0     H22924   7.528   1.536   4.850 -0.6821 -0.3151  1.0086
  174MOL0     H22925   7.661   1.603   4.952  1.8375  0.9257 -1.2021
  174MOL0     H22926   7.519   1.329   4.992  1.8274 -0.8580 -0.4562
  174MOL0     H22927   7.651   1.384   5.089  0.8321 -1.9899 -1.2241
  174MOL0     H22928   7.512   1.593   5.141 -0.7444 -0.2404  2.3408
  174MOL0     H22929   7.458   1.439   5.200  0.5188 -0.6956 -0.9104
  174MOL0     H22930   7.134   1.585   4.931  3.1424 -0.4135  0.2849
  174MOL0     H22931   6.934   1.713   5.035 -0.9921 -0.3818  0.3139
  174MOL0     H22932   6.688   1.902   5.434  1.6666 -2.4220 -0.3406
  174MOL0     H22933   6.479   2.015   5.453 -0.6054 -1.0612 -0.2369
  174MOL0     H22934   6.297   2.195   5.427 -1.6420  0.7203  0.1142
  174MOL0     H22935   6.232   2.025   5.445 -3.7404  0.3205 -0.3519
  174MOL0     H22936   6.081   2.223   5.253 -2.8338 -1.3881 -0.1578
  174MOL0     H22937   6.079   2.224   5.425 -2.1606  0.6685 -1.1285
  174MOL0     H22938   6.023   1.982   5.435 -3.9768 -0.2546 -0.4462
  174MOL0     H22939   6.081   1.955   5.264  2.3207  3.2235 -0.8593
  174MOL0     H22940   5.900   2.123   5.199  1.3586 -1.3554  0.1375
  174MOL0     H22941   5.861   1.953   5.222  1.0835 -1.6110  1.2373
  174MOL0     H22942   5.820   2.178   5.420  1.6370 -1.3364  0.5688
  174MOL0     H22943   5.804   2.009   5.446  2.9477  2.5939  2.6764
  174MOL0     H22944   5.594   2.119   5.412  0.1678  0.1657  0.8092
  174MOL0     H22945   5.625   1.978   5.305 -0.4756 -0.2572  0.3105
  174MOL0     H22946   5.675   2.251   5.201  0.3386  0.3825  3.2115
  174MOL0     H22947   5.630   2.102   5.103 -2.8062  0.4737 -1.0005
  174MOL0     H22948   5.432   2.207   5.088 -2.4135  2.4917  1.2863
  174MOL0     H22949   5.438   2.273   5.252 -1.7911 -0.6460 -0.4871
  174MOL0     H22950   6.425   2.029   5.048  0.5170  0.8939  0.3550
  174MOL0     H22951   6.627   1.893   5.004 -1.2483 -1.5311  0.1142
  174MOL0     H22952   7.153   1.737   5.403 -1.7044  0.7394 -0.5000
  174MOL0     H22953   7.344   1.624   5.301  1.5986  2.2450 -0.8194
  174MOL0     H22954   8.923   0.895   4.792  0.5081 -0.0414  1.1222
  174MOL0     H22955   9.144   1.014   4.810  1.1881 -1.2240 -0.2077
  174MOL0     H22956   9.309   1.517   4.619  1.3170  0.9416  1.7011
  174MOL0     H22957   9.512   1.647   4.582 -1.6517 -0.5695 -4.4771
  174MOL0     H22958   9.912   1.389   4.521  0.9756  0.1907  1.0373
  174MOL0     H22959   9.874   1.435   4.685 -0.4715 -1.2987 -0.0215
  174MOL0     H22960   9.965   1.681   4.633 -1.7073 -0.7455  1.3388
  174MOL0     H22961  10.083   1.551   4.635 -0.0385  0.7822 -0.0973
  174MOL0     H22962   9.959   1.675   4.382 -0.5852  0.6079  2.2347
  174MOL0     H22963  10.048   1.520   4.383  0.6420 -1.6140  1.3801
  174MOL0     H22964  10.175   1.743   4.343  1.2036  1.8928  0.7616
  174MOL0     H22965  10.160   1.764   4.525  2.4163  1.7101 -0.7182
  174MOL0     H22966  10.472   1.467   4.448 -0.5116 -0.8879 -1.4514
  174MOL0     H22967   9.719   1.259   4.543 -3.1991 -3.0229  0.1479
  174MOL0     H22968   9.512   1.144   4.566  1.0766 -0.3642  0.6075
  175MOL0     O22969   0.864   3.276   8.444 -0.2361 -0.9892  0.0110
  175MOL0     C22970   0.889   3.209   8.544  0.5704  0.0196  0.7049
  175MOL0     O22971   0.802   3.186   8.644  0.5532  0.2193 -1.0367
  175MOL0     C22972   0.674   3.244   8.651 -0.3905  0.0960 -0.6926
  175MOL0     C22973   0.629   3.283   8.780  1.1509 -0.6845 -0.6122
  175MOL0     C22974   0.496   3.337   8.796 -0.2673  0.5721 -0.0708
  175MOL0     C22975   0.423   3.370   8.680 -0.7653 -0.4108  0.4092
  175MOL0     O22976   0.298   3.431   8.695 -0.1057  0.0155  0.1338
  175MOL0     C22977   0.251   3.464   8.830  0.0058  0.2705 -0.0553
  175MOL0     C22978   0.143   3.560   8.823  0.5510 -0.1201  0.7024
  175MOL0     C22979   0.000   3.506   8.786 -0.2648 -0.0142  0.0102
  175MOL0     C22980  -0.063   3.402   8.884 -0.2698 -0.2536 -0.1679
  175MOL0     C22981  -0.194   3.347   8.827  0.0940 -0.0393 -0.4984
  175MOL0     C22982  -0.259   3.242   8.904  0.4315  0.0465 -1.5707
  175MOL0     C22983  -0.398   3.225   8.879  0.3440  0.2554  0.1529
  175MOL0     C22984  -0.470   3.117   8.966 -0.6576  0.9451 -0.4365
  175MOL0     N22985  -0.616   3.113   8.935  0.2323 -0.6157  0.3279
  175MOL0     C22986  -0.674   3.031   8.840  0.2292 -0.3455  0.0695
  175MOL0     C22987  -0.804   3.078   8.850  0.0896  0.1530 -0.8180
  175MOL0     C22988  -0.911   3.029   8.754 -0.7523  0.4606 -0.2868
  175MOL0     C22989  -0.888   3.091   8.618 -0.7082  0.7358  0.8528
  175MOL0     C22990  -0.964   3.032   8.498 -0.4805  0.3709  0.3804
  175MOL0     C22991  -1.120   3.004   8.509 -0.1617 -0.3352 -0.2976
  175MOL0     O22992  -1.191   3.121   8.565  0.4519  0.5421 -0.1931
  175MOL0     C22993  -1.317   3.090   8.602 -0.5358  0.5130  0.3548
  175MOL0     C22994  -1.336   2.995   8.704  0.5928  0.4971  0.2722
  175MOL0     C22995  -1.467   2.971   8.739  0.5440 -0.2988  0.0683
  175MOL0     C22996  -1.579   3.026   8.679 -0.1845  0.3231 -0.2238
  175MOL0     C22997  -1.718   3.011   8.725 -0.6512  0.2568 -0.7614
  175MOL0     O22998  -1.823   3.081   8.673  0.1428  0.1847 -0.1803
  175MOL0     C22999  -1.951   3.051   8.692 -0.3962 -0.5884  0.7302
  175MOL0     C23000  -2.008   2.935   8.631 -0.4291 -0.4337  0.0864
  175MOL0     C23001  -2.145   2.921   8.651 -0.5974  0.3806 -0.5422
  175MOL0     C23002  -2.228   3.012   8.723 -0.4502  0.5299  0.6412
  175MOL0     O23003  -2.360   2.984   8.738  0.2957 -0.4787 -0.8171
  175MOL0     C23004  -2.435   3.069   8.819  0.1162 -1.0966  0.2228
  175MOL0     C23005  -2.581   3.028   8.819 -0.5096 -0.2495 -0.2758
  175MOL0     C23006  -2.659   3.122   8.904  0.1277  0.6726  0.1957
  175MOL0     C23007  -2.800   3.115   8.848  0.2287  0.1042 -0.1166
  175MOL0     C23008  -2.895   3.197   8.930 -0.0227  0.0041  0.0719
  175MOL0     C23009  -3.034   3.142   8.906  0.0074  0.1378 -0.7426
  175MOL0     C23010  -3.094   3.207   8.784 -0.4080 -1.1659 -0.5800
  175MOL0     C23011  -3.245   3.159   8.778  0.0920 -0.7338 -0.8069
  175MOL0    Cl23012  -3.341   3.250   8.892  0.2508 -0.3162 -0.0411
  175MOL0     C23013  -2.164   3.128   8.775  0.1465  0.3246 -0.8320
  175MOL0     C23014  -2.031   3.148   8.752 -0.3013 -0.3225  0.4603
  175MOL0     O23015  -1.741   2.921   8.804 -0.3912  0.7020  0.2217
  175MOL0     C23016  -1.557   3.115   8.570  0.3028 -0.0946 -0.6616
  175MOL0     C23017  -1.429   3.132   8.533 -0.4248 -0.2070 -0.9015
  175MOL0     N23018  -0.820   3.167   8.954 -0.2302 -0.6962  0.0645
  175MOL0     N23019  -0.707   3.182   9.009 -0.1790 -0.2865 -0.2155
  175MOL0     C23020   0.470   3.331   8.558  0.0011  0.2176  0.5155
  175MOL0     C23021   0.593   3.273   8.539  0.5952 -0.6067 -0.1518
  175MOL0     C23022   1.022   3.149   8.550 -0.3100 -0.2051 -0.0566
  175MOL0     C23023   1.062   3.062   8.647 -1.0108  0.0990 -0.5893
  175MOL0     C23024   1.188   3.002   8.656  0.2429 -0.4463 -0.0320
  175MOL0     C23025   1.290   3.040   8.564 -0.2580 -0.2317  0.3027
  175MOL0     O23026   1.418   2.990   8.549  0.4144  0.0272  0.2971
  175MOL0     C23027   1.475   2.955   8.673  0.4059 -0.3806 -1.1713
  175MOL0     C23028   1.541   2.819   8.660 -0.4767 -0.1739  1.1487
  175MOL0     C23029   1.445   2.721   8.594  0.4950  0.0080 -0.0645
  175MOL0     C23030   1.496   2.576   8.592 -0.2065  0.0026  0.5405
  175MOL0     C23031   1.627   2.551   8.525 -0.4720 -0.9709  0.3276
  175MOL0     C23032   1.724   2.517   8.467  0.1083 -0.5980  0.2952
  175MOL0     C23033   1.254   3.133   8.461 -0.6153 -1.2125 -0.1691
  175MOL0     C23034   1.128   3.193   8.458  0.7786 -0.1284  0.3127
  175MOL0     H23035   0.685   3.255   8.868 -0.5371  1.0035  1.0775
  175MOL0     H23036   0.471   3.348   8.901  1.8835  0.3876  0.5261
  175MOL0     H23037   0.326   3.522   8.885 -0.3828 -0.3361  1.1603
  175MOL0     H23038   0.235   3.378   8.895 -2.0457 -0.3865 -1.3270
  175MOL0     H23039   0.163   3.632   8.744 -0.4735  0.1905  0.7065
  175MOL0     H23040   0.129   3.612   8.918 -2.3287 -3.6234  2.4741
  175MOL0     H23041   0.001   3.452   8.691  0.5452  0.6804 -0.3952
  175MOL0     H23042  -0.063   3.594   8.777 -0.4611 -0.1005  0.4995
  175MOL0     H23043   0.013   3.324   8.894  0.0091  0.0904  0.4463
  175MOL0     H23044  -0.088   3.451   8.978 -0.5443  0.5473 -0.6471
  175MOL0     H23045  -0.172   3.309   8.727  1.0051 -2.7936  0.6298
  175MOL0     H23046  -0.261   3.431   8.808 -0.1241 -0.4101 -1.4370
  175MOL0     H23047  -0.250   3.262   9.011 -4.3634  0.0531 -0.9544
  175MOL0     H23048  -0.211   3.145   8.885 -0.8599 -0.8775 -0.2562
  175MOL0     H23049  -0.450   3.319   8.899 -0.3628  0.6314 -2.9841
  175MOL0     H23050  -0.420   3.194   8.776 -0.9617 -2.9244  1.2376
  175MOL0     H23051  -0.451   3.145   9.069  0.0678 -0.0830 -0.2715
  175MOL0     H23052  -0.432   3.015   8.949 -3.0364  0.2400 -2.1256
  175MOL0     H23053  -0.638   2.964   8.763 -0.7602 -1.2180  0.3416
  175MOL0     H23054  -1.010   3.036   8.800  0.1265  2.8329  1.4798
  175MOL0     H23055  -0.897   2.922   8.738 -3.1041  0.2959 -1.6428
  175MOL0     H23056  -0.786   3.073   8.584 -0.7005 -1.8214  1.9674
  175MOL0     H23057  -0.908   3.199   8.621  1.4261  1.2015  0.3097
  175MOL0     H23058  -0.944   3.106   8.420 -0.8429  2.1922  1.9358
  175MOL0     H23059  -0.922   2.933   8.476 -2.0038 -0.3657  0.6399
  175MOL0     H23060  -1.137   2.921   8.579  0.5324  0.1159  0.4360
  175MOL0     H23061  -1.163   2.981   8.412  3.0893 -0.8292 -1.7701
  175MOL0     H23062  -1.263   2.942   8.764  0.0600 -1.2626 -0.5591
  175MOL0     H23063  -1.490   2.900   8.818 -2.7220 -1.8409 -2.0391
  175MOL0     H23064  -1.955   2.861   8.571  0.8399  0.7387 -0.2787
  175MOL0     H23065  -2.188   2.827   8.619  2.2392 -1.2877  0.1747
  175MOL0     H23066  -2.428   3.170   8.776  0.6365 -0.7098  1.1751
  175MOL0     H23067  -2.397   3.073   8.922  0.1237  1.7424  0.1938
  175MOL0     H23068  -2.581   2.923   8.851 -1.8928 -0.0218  0.5443
  175MOL0     H23069  -2.612   3.031   8.714 -0.4255 -2.7474 -0.4402
  175MOL0     H23070  -2.626   3.225   8.893  0.0200  0.8851  1.6042
  175MOL0     H23071  -2.641   3.105   9.011  0.5809  2.8922  0.5024
  175MOL0     H23072  -2.792   3.162   8.749 -1.7914  3.9831  1.3394
  175MOL0     H23073  -2.829   3.011   8.829 -1.9567  0.4044  1.2367
  175MOL0     H23074  -2.891   3.303   8.903 -0.2580 -0.0219 -0.0746
  175MOL0     H23075  -2.876   3.182   9.037 -1.4812  1.0410  0.5053
  175MOL0     H23076  -3.094   3.187   8.986 -2.8047 -0.8298 -2.1671
  175MOL0     H23077  -3.036   3.033   8.903  3.5901 -0.0559 -0.7796
  175MOL0     H23078  -3.092   3.316   8.797 -0.4918 -1.0937 -1.1533
  175MOL0     H23079  -3.032   3.192   8.695  0.0799  0.9170 -0.6408
  175MOL0     H23080  -3.255   3.054   8.807 -1.2826 -0.7277 -1.1967
  175MOL0     H23081  -3.293   3.184   8.683  0.3952  0.6856 -0.6112
  175MOL0     H23082  -2.213   3.202   8.837 -0.3928  1.7671 -2.8852
  175MOL0     H23083  -1.979   3.230   8.800  0.5306 -2.3611  3.2426
  175MOL0     H23084  -1.647   3.151   8.520 -1.2722 -1.2269  1.2186
  175MOL0     H23085  -1.425   3.195   8.445 -2.1985 -0.7106 -1.3794
  175MOL0     H23086   0.403   3.340   8.473  1.1739 -0.9934 -0.5911
  175MOL0     H23087   0.648   3.251   8.448  3.3154  0.1644  1.1959
  175MOL0     H23088   1.006   3.019   8.729  1.1205 -2.5424 -0.4025
  175MOL0     H23089   1.193   2.930   8.738  0.1876  1.3432  1.6094
  175MOL0     H23090   1.410   2.948   8.760  3.7616  4.0410  2.1550
  175MOL0     H23091   1.547   3.034   8.698  3.0634 -0.9932 -5.7233
  175MOL0     H23092   1.630   2.830   8.598 -0.7062 -0.1374  0.8274
  175MOL0     H23093   1.571   2.786   8.760 -1.4589  1.2134  1.9406
  175MOL0     H23094   1.428   2.762   8.494  0.4547  0.0124 -0.0559
  175MOL0     H23095   1.349   2.716   8.646  0.0914  0.1933 -0.7665
  175MOL0     H23096   1.511   2.570   8.701 -1.7607  3.4729  1.0810
  175MOL0     H23097   1.415   2.511   8.557 -0.8064  1.5744 -1.1822
  175MOL0     H23098   1.817   2.485   8.424 -0.4505 -0.5718 -0.9686
  175MOL0     H23099   1.320   3.153   8.377  1.2300 -0.7767  1.3055
  175MOL0     H23100   1.116   3.258   8.372  2.4471  0.7758  0.7088
  176MOL0     O23101   8.301   2.729   4.275  0.0550 -0.0032  0.6314
  176MOL0     C23102   8.349   2.785   4.175  0.7650  0.1572 -0.1547
  176MOL0     O23103   8.282   2.879   4.100  0.2440 -0.3659  0.4353
  176MOL0     C23104   8.162   2.934   4.144  0.3182 -0.5384 -0.6068
  176MOL0     C23105   8.141   3.077   4.130 -0.4546  0.8054 -1.1287
  176MOL0     C23106   8.018   3.125   4.154 -0.4274 -0.5097 -0.1952
  176MOL0     C23107   7.908   3.048   4.201  0.1730  0.5415 -0.6399
  176MOL0     O23108   7.791   3.115   4.226 -0.2534  0.6110 -0.3577
  176MOL0     C23109   7.693   3.050   4.316 -0.1723 -0.6085 -0.1711
  176MOL0     C23110   7.590   3.149   4.375 -0.6548 -0.8911  1.4005
  176MOL0     C23111   7.473   3.187   4.282  0.0736 -0.0643 -0.0297
  176MOL0     C23112   7.389   3.071   4.209  0.4448  0.3286 -0.6779
  176MOL0     C23113   7.270   3.129   4.129  0.0192 -0.0665  0.4916
  176MOL0     C23114   7.191   3.024   4.050  0.6605 -0.4418  0.1575
  176MOL0     C23115   7.082   3.100   3.968  0.0403  0.2675 -0.1220
  176MOL0     C23116   7.003   2.991   3.905  0.0382 -0.7046 -0.2306
  176MOL0     N23117   6.921   3.056   3.798  0.0993  0.5498  0.0147
  176MOL0     C23118   6.954   3.064   3.662 -0.0352 -0.1066 -0.0133
  176MOL0     C23119   6.851   3.133   3.613 -0.3843 -0.3022  0.3814
  176MOL0     C23120   6.862   3.184   3.469  0.3961  0.3286 -0.2536
  176MOL0     C23121   6.842   3.072   3.378 -0.8492 -0.6036  0.1119
  176MOL0     C23122   6.853   3.119   3.232  0.5227 -0.1319 -0.2155
  176MOL0     C23123   6.729   3.188   3.178 -0.3219  0.2187  0.5455
  176MOL0     O23124   6.625   3.098   3.149  0.0816  0.6443  0.3329
  176MOL0     C23125   6.501   3.156   3.150  0.1671 -0.0364 -0.2627
  176MOL0     C23126   6.426   3.162   3.270  0.1512 -0.3441 -0.1951
  176MOL0     C23127   6.301   3.215   3.276  0.1089  0.7326  0.7210
  176MOL0     C23128   6.237   3.268   3.154 -0.1943  0.4670  0.1412
  176MOL0     C23129   6.100   3.337   3.156 -0.5836  0.2874  0.2661
  176MOL0     O23130   6.030   3.315   3.272  0.2956  0.8567 -0.2059
  176MOL0     C23131   5.899   3.321   3.257 -0.6181  0.1254 -0.1503
  176MOL0     C23132   5.825   3.207   3.232 -0.2817  0.9279 -1.0010
  176MOL0     C23133   5.687   3.213   3.216 -0.0897 -0.3284  0.6086
  176MOL0     C23134   5.618   3.330   3.245 -0.2513 -0.6448 -0.1426
  176MOL0     O23135   5.480   3.327   3.242 -0.5128 -0.6194 -0.7862
  176MOL0     C23136   5.405   3.433   3.301 -0.4907  0.2643  0.9368
  176MOL0     C23137   5.260   3.406   3.271  0.1495 -0.4090  0.0722
  176MOL0     C23138   5.154   3.486   3.360 -0.1114  0.0547  0.2540
  176MOL0     C23139   5.190   3.636   3.364  0.8138 -0.3351 -0.4299
  176MOL0     C23140   5.079   3.715   3.438  0.4567 -0.7930  0.0879
  176MOL0     C23141   4.937   3.700   3.390 -0.2921 -0.0901 -0.8294
  176MOL0     C23142   4.836   3.795   3.455 -0.3206  0.7872  0.1092
  176MOL0     C23143   4.811   3.768   3.605  0.7719  0.8347  0.0529
  176MOL0    Cl23144   4.674   3.885   3.655 -0.0759  0.2796  0.1029
  176MOL0     C23145   5.690   3.434   3.298  0.3789  0.0936  0.1116
  176MOL0     C23146   5.830   3.440   3.304 -0.0733  1.4147  0.4542
  176MOL0     O23147   6.049   3.386   3.056  0.0321  0.8079  0.1954
  176MOL0     C23148   6.314   3.266   3.038 -0.6960 -0.0397 -0.5140
  176MOL0     C23149   6.443   3.207   3.037  0.1530 -0.2387  0.4132
  176MOL0     N23150   6.758   3.167   3.709  0.0295 -0.2193 -0.1326
  176MOL0     N23151   6.803   3.124   3.825 -0.4257 -0.2679  0.2999
  176MOL0     C23152   7.932   2.914   4.219 -0.0714 -0.3646 -0.1876
  176MOL0     C23153   8.057   2.856   4.190 -0.7182 -0.2695 -0.1206
  176MOL0     C23154   8.488   2.750   4.133  0.1320 -0.6579 -1.0628
  176MOL0     C23155   8.569   2.846   4.064 -0.6758 -0.8708  0.0086
  176MOL0     C23156   8.707   2.812   4.031  0.3444 -0.1665 -1.0035
  176MOL0     C23157   8.748   2.678   4.063 -0.4447  0.7954 -0.4035
  176MOL0     O23158   8.878   2.662   4.022  0.1583  0.0452 -0.3525
  176MOL0     C23159   8.906   2.542   3.951  0.2310 -0.8136  0.4165
  176MOL0     C23160   8.821   2.511   3.831 -0.4080  0.2861  0.1127
  176MOL0     C23161   8.819   2.629   3.728 -1.2070  0.5241  0.1769
  176MOL0     C23162   8.949   2.703   3.687  0.7146 -0.3385 -0.0354
  176MOL0     C23163   9.046   2.615   3.640 -0.2466 -0.7312  0.0020
  176MOL0     C23164   9.132   2.536   3.607  0.1149 -0.1545  0.0874
  176MOL0     C23165   8.670   2.578   4.125  0.2664  0.3285 -0.4254
  176MOL0     C23166   8.537   2.614   4.159  0.2981 -0.5146  1.2215
  176MOL0     H23167   8.217   3.143   4.092  0.3190  0.6567  0.1015
  176MOL0     H23168   7.989   3.229   4.142 -1.0224 -0.6922 -0.3894
  176MOL0     H23169   7.743   3.005   4.402  0.9779  1.9880  0.6298
  176MOL0     H23170   7.645   2.977   4.251 -0.1266  0.8878 -1.9836
  176MOL0     H23171   7.635   3.238   4.419 -1.7387  1.0734 -1.2562
  176MOL0     H23172   7.541   3.103   4.462 -0.9103  0.5719  2.0616
  176MOL0     H23173   7.514   3.253   4.206 -0.1364 -0.2627 -0.3175
  176MOL0     H23174   7.401   3.245   4.341 -2.4745 -4.6131  1.8868
  176MOL0     H23175   7.460   3.014   4.147  1.0425 -0.6648  0.8493
  176MOL0     H23176   7.351   2.995   4.278 -1.7215 -0.6722 -2.8398
  176MOL0     H23177   7.311   3.196   4.053  1.4810 -1.6133 -0.1479
  176MOL0     H23178   7.204   3.181   4.199 -0.4741 -0.6371  0.4546
  176MOL0     H23179   7.142   2.961   4.124  1.0953 -1.3439 -0.3163
  176MOL0     H23180   7.258   2.957   3.995 -0.3173 -3.5123  2.4590
  176MOL0     H23181   7.010   3.160   4.024  0.4507 -0.4294  1.1762
  176MOL0     H23182   7.125   3.169   3.895  0.6053 -3.5682 -3.8315
  176MOL0     H23183   6.948   2.937   3.983  2.5669 -4.0112 -0.4870
  176MOL0     H23184   7.070   2.914   3.865  1.0996 -1.2108  2.3256
  176MOL0     H23185   7.047   3.039   3.612 -0.1758  1.9427 -1.4034
  176MOL0     H23186   6.962   3.224   3.450  0.5183  1.0791  1.7197
  176MOL0     H23187   6.799   3.270   3.446  0.5407  0.5762  0.2550
  176MOL0     H23188   6.758   3.005   3.399  1.0097 -2.7227  1.3300
  176MOL0     H23189   6.926   3.005   3.398 -0.1979  0.2409  0.2727
  176MOL0     H23190   6.934   3.193   3.230  0.6551 -0.2940 -1.2793
  176MOL0     H23191   6.878   3.038   3.163  0.0129 -0.2537 -0.2559
  176MOL0     H23192   6.764   3.239   3.088 -2.8740 -1.0670 -1.3152
  176MOL0     H23193   6.703   3.264   3.253  2.5767  0.1409  1.7533
  176MOL0     H23194   6.476   3.123   3.358  0.8993  1.0695  0.0307
  176MOL0     H23195   6.236   3.217   3.362  0.6494  2.2980  1.1157
  176MOL0     H23196   5.878   3.112   3.226 -0.6105  0.8577 -3.6135
  176MOL0     H23197   5.642   3.118   3.193 -1.3475 -0.1933  2.3377
  176MOL0     H23198   5.431   3.526   3.250  2.2603  0.4709  2.5067
  176MOL0     H23199   5.417   3.443   3.409 -1.9943  2.6920  0.9607
  176MOL0     H23200   5.245   3.298   3.268  2.3037 -0.7272 -1.0263
  176MOL0     H23201   5.255   3.438   3.166  2.6823  0.0123  0.0095
  176MOL0     H23202   5.148   3.452   3.463  0.6371  1.3990  0.7688
  176MOL0     H23203   5.055   3.464   3.320  0.0583 -1.4670  0.5931
  176MOL0     H23204   5.280   3.653   3.423 -0.1124  0.6246  0.7395
  176MOL0     H23205   5.188   3.674   3.261 -0.3854  0.3965 -0.1592
  176MOL0     H23206   5.099   3.823   3.434 -0.5891 -0.3891  3.1159
  176MOL0     H23207   5.075   3.673   3.539 -2.7997 -0.0583  0.3830
  176MOL0     H23208   4.914   3.595   3.409  1.8326 -0.7395 -1.5400
  176MOL0     H23209   4.933   3.721   3.282  0.3270  0.3670 -0.7685
  176MOL0     H23210   4.876   3.896   3.438 -0.2100  0.4402 -1.8612
  176MOL0     H23211   4.738   3.802   3.408 -1.0106  1.4187  1.5551
  176MOL0     H23212   4.897   3.790   3.669  1.9064  0.0470 -1.1213
  176MOL0     H23213   4.771   3.667   3.618  0.4893  1.3051  3.7587
  176MOL0     H23214   5.639   3.527   3.324  3.0898  2.1906 -1.4825
  176MOL0     H23215   5.872   3.536   3.330  1.8916  2.1975 -4.6462
  176MOL0     H23216   6.269   3.316   2.952 -1.3334 -0.7926 -0.6273
  176MOL0     H23217   6.506   3.198   2.949  0.4589 -1.2239  0.7250
  176MOL0     H23218   7.852   2.859   4.267 -0.9460  1.5717  0.6435
  176MOL0     H23219   8.070   2.751   4.212  1.7715  0.5629  3.1140
  176MOL0     H23220   8.539   2.950   4.069  0.2934 -0.6202  1.0396
  176MOL0     H23221   8.777   2.888   3.996  0.1872  0.5516  0.1813
  176MOL0     H23222   8.902   2.462   4.025  1.1614  1.3302  2.9088
  176MOL0     H23223   9.003   2.557   3.903 -0.5425  3.1505 -0.2453
  176MOL0     H23224   8.866   2.426   3.779 -0.1877  1.4461 -1.6755
  176MOL0     H23225   8.720   2.486   3.866  0.1962 -2.5651  0.0396
  176MOL0     H23226   8.743   2.698   3.765 -0.5074  1.7942 -0.6906
  176MOL0     H23227   8.795   2.591   3.628  2.1847 -0.3055 -0.4445
  176MOL0     H23228   8.924   2.755   3.594 -4.1417 -2.0290  0.0636
  176MOL0     H23229   8.982   2.774   3.764 -0.3957  3.3793 -2.6611
  176MOL0     H23230   9.198   2.465   3.560 -1.6859  0.2604 -3.3633
  176MOL0     H23231   8.712   2.478   4.138 -1.1459 -0.1097  1.2992
  176MOL0     H23232   8.469   2.531   4.177  1.6806 -2.4970 -1.8267
  177MOL0     O23233   6.559   3.691   8.700 -0.3837 -0.7462 -0.4059
  177MOL0     C23234   6.587   3.664   8.816 -0.6631  0.0266  0.6801
  177MOL0     O23235   6.500   3.655   8.925 -0.9625  0.5633 -0.3172
  177MOL0     C23236   6.364   3.691   8.905  0.3114 -0.8533 -0.5305
  177MOL0     C23237   6.307   3.786   8.819 -0.4880  0.0717  0.0929
  177MOL0     C23238   6.168   3.809   8.815  0.0133 -0.4972 -0.3819
  177MOL0     C23239   6.085   3.740   8.900 -0.5999  0.2320 -0.0741
  177MOL0     O23240   5.956   3.789   8.883  0.0093 -0.2702  0.3443
  177MOL0     C23241   5.865   3.766   8.995  0.1682  0.6244 -0.1108
  177MOL0     C23242   5.911   3.840   9.122  0.9521  0.1622  0.4895
  177MOL0     C23243   5.924   3.989   9.128  0.2551  0.1635 -1.5507
  177MOL0     C23244   5.790   4.057   9.166  0.4931 -0.3239  0.6497
  177MOL0     C23245   5.787   4.209   9.148 -0.6608 -0.4346  0.6053
  177MOL0     C23246   5.681   4.289   9.218  0.5209 -0.5915  0.5176
  177MOL0     C23247   5.712   4.315   9.371 -0.3538 -0.2303  0.7870
  177MOL0     C23248   5.594   4.369   9.441 -0.0750 -0.4322  0.0748
  177MOL0     N23249   5.546   4.495   9.387  0.2840  1.1500  0.0733
  177MOL0     C23250   5.422   4.507   9.321 -1.4667  0.3302 -0.7745
  177MOL0     C23251   5.429   4.636   9.281  0.4675  0.1738 -0.3851
  177MOL0     C23252   5.342   4.690   9.169 -0.1563 -0.8468  0.2731
  177MOL0     C23253   5.328   4.601   9.046  1.1463 -0.2512  0.4369
  177MOL0     C23254   5.252   4.676   8.940 -0.2924 -0.9243 -1.1179
  177MOL0     C23255   5.181   4.594   8.834  0.1419 -0.0683 -0.6748
  177MOL0     O23256   5.092   4.682   8.773 -0.0540 -0.7484  0.1906
  177MOL0     C23257   4.960   4.693   8.814 -0.8061 -0.1202 -0.0052
  177MOL0     C23258   4.907   4.661   8.941 -0.0889 -0.2879 -0.7112
  177MOL0     C23259   4.775   4.673   8.969 -0.8251  0.0198  0.4956
  177MOL0     C23260   4.692   4.733   8.868  0.2424  0.7847  0.0529
  177MOL0     C23261   4.546   4.739   8.897 -0.2864  0.6877  0.4647
  177MOL0     O23262   4.487   4.661   8.989  0.1886  0.7387  0.2317
  177MOL0     C23263   4.360   4.676   8.995  0.2785  0.1700  0.5733
  177MOL0     C23264   4.284   4.560   8.995 -0.1646  0.1223  0.0364
  177MOL0     C23265   4.146   4.559   8.994  0.3202 -0.0071 -0.5481
  177MOL0     C23266   4.070   4.681   8.999 -0.9249  1.0033 -1.1225
  177MOL0     O23267   3.942   4.696   8.968  0.1979  0.7333  0.2812
  177MOL0     C23268   3.854   4.590   8.923 -0.6252  0.3080 -0.7978
  177MOL0     C23269   3.716   4.648   8.886  0.1730 -0.5974 -0.5617
  177MOL0     C23270   3.624   4.620   9.002  0.9985  0.0106  0.4542
  177MOL0     C23271   3.484   4.671   8.966 -0.5673  0.3145 -0.4735
  177MOL0     C23272   3.370   4.646   9.060  0.2210  0.1969 -0.2983
  177MOL0     C23273   3.398   4.729   9.186  1.1920 -0.2350 -0.0550
  177MOL0     C23274   3.284   4.704   9.283  0.3886  0.1339 -0.2517
  177MOL0     C23275   3.315   4.761   9.418 -0.9095 -0.3231  0.7196
  177MOL0    Cl23276   3.281   4.937   9.417 -0.2298  0.0058  0.2921
  177MOL0     C23277   4.143   4.795   9.010 -0.2250  0.3954  0.0717
  177MOL0     C23278   4.281   4.791   9.000 -0.5582 -0.6300  0.1643
  177MOL0     O23279   4.500   4.825   8.828  0.1220 -0.3371  0.7456
  177MOL0     C23280   4.742   4.775   8.739  0.5030 -0.7269 -0.5709
  177MOL0     C23281   4.878   4.757   8.709  0.3355  0.1831 -0.1566
  177MOL0     N23282   5.539   4.696   9.320 -0.2372  0.2756 -0.1163
  177MOL0     N23283   5.618   4.608   9.379 -0.1902  0.1291  0.5348
  177MOL0     C23284   6.142   3.659   8.989  0.9311 -0.4691 -0.0913
  177MOL0     C23285   6.277   3.627   8.991 -0.1263 -0.6778  0.4347
  177MOL0     C23286   6.728   3.648   8.840  0.2805  0.6350  0.0825
  177MOL0     C23287   6.766   3.598   8.967 -0.2302 -0.9418  0.3016
  177MOL0     C23288   6.890   3.558   8.996 -0.0023  0.2539 -0.0585
  177MOL0     C23289   6.990   3.599   8.904  0.9419 -0.2904 -0.5954
  177MOL0     O23290   7.118   3.561   8.914 -0.5901  0.1933 -0.0169
  177MOL0     C23291   7.169   3.453   9.001  0.2884 -0.9099  0.4297
  177MOL0     C23292   7.290   3.391   8.935 -0.3877  0.6142 -0.2068
  177MOL0     C23293   7.403   3.484   8.943 -0.6430  0.0441 -0.8519
  177MOL0     C23294   7.528   3.416   8.884 -0.5601  0.1836 -0.4690
  177MOL0     C23295   7.541   3.422   8.742  0.1278 -0.8789  0.0679
  177MOL0     C23296   7.574   3.420   8.626  0.4262 -0.5565 -0.3811
  177MOL0     C23297   6.958   3.654   8.781 -0.4101 -0.6490 -0.7054
  177MOL0     C23298   6.823   3.692   8.746 -0.3701 -0.5119  0.1270
  177MOL0     H23299   6.373   3.840   8.752  1.0099  1.0014  2.2086
  177MOL0     H23300   6.120   3.873   8.740  0.7903 -1.5563 -1.8259
  177MOL0     H23301   5.847   3.659   9.011  0.1198  0.4593 -1.1814
  177MOL0     H23302   5.773   3.810   8.957  0.2868  0.5726 -0.4673
  177MOL0     H23303   6.004   3.799   9.162  1.0427  0.4090  0.5309
  177MOL0     H23304   5.838   3.801   9.193 -1.1018  1.0505 -1.0139
  177MOL0     H23305   5.943   4.033   9.030 -0.5934  2.2660 -0.8223
  177MOL0     H23306   6.001   4.026   9.196 -2.0724  1.3495  0.6057
  177MOL0     H23307   5.712   4.015   9.101  1.6525  0.0185 -1.0220
  177MOL0     H23308   5.753   4.033   9.267 -3.4617  2.8122  0.2017
  177MOL0     H23309   5.787   4.237   9.043  1.5138  0.3796  0.7666
  177MOL0     H23310   5.878   4.262   9.181 -0.1001 -0.2150 -1.2180
  177MOL0     H23311   5.588   4.234   9.201 -0.6400  2.0317 -2.7321
  177MOL0     H23312   5.681   4.389   9.175 -1.5164  0.9008  3.6468
  177MOL0     H23313   5.754   4.228   9.422  0.0710  0.6201  1.9392
  177MOL0     H23314   5.796   4.384   9.367  0.0815 -0.8057 -1.5617
  177MOL0     H23315   5.636   4.393   9.539  2.9461 -0.3088 -1.1442
  177MOL0     H23316   5.515   4.294   9.454 -0.2329 -0.1140  1.0294
  177MOL0     H23317   5.345   4.436   9.295 -0.0581 -1.0360 -1.4018
  177MOL0     H23318   5.389   4.784   9.138 -2.0657 -0.7761 -2.8902
  177MOL0     H23319   5.242   4.709   9.208 -0.3176  1.1963 -1.0082
  177MOL0     H23320   5.278   4.506   9.066 -0.1837 -0.3201 -2.6373
  177MOL0     H23321   5.423   4.587   8.993 -0.3512  1.6410 -3.1073
  177MOL0     H23322   5.169   4.724   8.992 -0.2931  0.8255 -2.6584
  177MOL0     H23323   5.323   4.746   8.895  1.1716 -0.6847  1.4146
  177MOL0     H23324   5.125   4.509   8.873 -1.8740  1.6841  0.5012
  177MOL0     H23325   5.251   4.562   8.757  2.6749  1.0294  1.0039
  177MOL0     H23326   4.975   4.625   9.018  0.2451  0.5766 -0.5963
  177MOL0     H23327   4.739   4.652   9.069 -1.2418  1.2913  0.6341
  177MOL0     H23328   4.322   4.459   8.983 -1.3398 -0.3390  0.1035
  177MOL0     H23329   4.094   4.467   8.968  4.5338 -2.3949 -1.4642
  177MOL0     H23330   3.850   4.510   8.997 -0.2741 -0.8345 -1.9865
  177MOL0     H23331   3.902   4.560   8.830 -0.3876 -0.5487 -0.4042
  177MOL0     H23332   3.682   4.607   8.791 -0.8571 -1.2433  0.0729
  177MOL0     H23333   3.716   4.757   8.874 -3.0640 -0.3402  0.8413
  177MOL0     H23334   3.668   4.667   9.091  3.2192  1.4098 -1.2997
  177MOL0     H23335   3.616   4.512   9.017  2.3248  0.1078  2.2874
  177MOL0     H23336   3.492   4.780   8.952 -0.7358  0.3381 -0.3938
  177MOL0     H23337   3.456   4.634   8.867 -0.0477  0.9069 -0.8494
  177MOL0     H23338   3.360   4.540   9.085  3.9414  0.1166  1.6109
  177MOL0     H23339   3.275   4.670   9.011 -0.1833  0.8567  0.7888
  177MOL0     H23340   3.401   4.833   9.153  0.0578 -0.4825 -0.9972
  177MOL0     H23341   3.496   4.724   9.234  0.5901  0.4759  1.2928
  177MOL0     H23342   3.193   4.758   9.254 -0.9602 -0.5283  2.4520
  177MOL0     H23343   3.243   4.603   9.280 -3.6278  1.5828 -1.8762
  177MOL0     H23344   3.418   4.744   9.449 -2.1165 -3.2660  3.8062
  177MOL0     H23345   3.252   4.716   9.495 -0.7046  1.4794  2.0023
  177MOL0     H23346   4.093   4.891   9.018  1.6738  1.4768 -0.2646
  177MOL0     H23347   4.327   4.888   8.982  3.0506 -2.5002 -1.9379
  177MOL0     H23348   4.681   4.817   8.660 -0.0076  0.1834  0.2950
  177MOL0     H23349   4.925   4.796   8.620  1.7960  1.3193  1.0528
  177MOL0     H23350   6.072   3.618   9.061 -0.1512  1.3156 -0.0560
  177MOL0     H23351   6.314   3.540   9.044 -0.5419 -0.6403  0.7889
  177MOL0     H23352   6.697   3.573   9.047  1.4184 -2.5400  1.2879
  177MOL0     H23353   6.909   3.521   9.096  1.1871  1.0084  0.0142
  177MOL0     H23354   7.089   3.379   9.015 -1.2671  0.4806 -0.6659
  177MOL0     H23355   7.190   3.502   9.096 -0.8168 -0.1456  0.3001
  177MOL0     H23356   7.332   3.306   8.990 -1.3117  1.1959  1.4648
  177MOL0     H23357   7.282   3.362   8.829 -1.7773  2.1397 -0.5611
  177MOL0     H23358   7.428   3.503   9.047 -1.1664  2.0697 -1.0544
  177MOL0     H23359   7.381   3.577   8.889 -2.3999  0.5799  0.6860
  177MOL0     H23360   7.618   3.454   8.933 -0.5566  1.4971 -1.4215
  177MOL0     H23361   7.529   3.311   8.914 -1.8694  0.1104 -0.6203
  177MOL0     H23362   7.589   3.404   8.521 -1.9263  0.7151 -0.9735
  177MOL0     H23363   7.035   3.678   8.708 -1.7229  1.5155 -1.4615
  177MOL0     H23364   6.801   3.745   8.654 -2.7391  1.2592  1.6009
  178MOL0     O23365   1.515   4.623   8.576 -0.5959  0.0846 -0.5543
  178MOL0     C23366   1.523   4.658   8.464  0.5382  0.3338  0.0141
  178MOL0     O23367   1.423   4.698   8.387  0.4883 -0.0540 -1.3962
  178MOL0     C23368   1.293   4.704   8.438  0.4704 -0.6610 -0.3070
  178MOL0     C23369   1.220   4.829   8.428 -0.5533  0.6504 -0.5335
  178MOL0     C23370   1.084   4.842   8.460  0.6699 -0.0627 -0.2326
  178MOL0     C23371   1.017   4.733   8.509 -0.7336 -0.8171  0.1552
  178MOL0     O23372   0.885   4.761   8.537 -0.5180  0.7815  0.6389
  178MOL0     C23373   0.788   4.664   8.497  0.4311 -0.2362  0.3062
  178MOL0     C23374   0.657   4.681   8.566  0.2623 -0.0413  0.3202
  178MOL0     C23375   0.660   4.637   8.707  0.1452  0.0764 -0.2562
  178MOL0     C23376   0.526   4.600   8.757  0.7552  0.0125 -0.3754
  178MOL0     C23377   0.536   4.563   8.905 -0.7509 -0.1720 -0.0754
  178MOL0     C23378   0.425   4.462   8.929 -0.1192 -0.4888 -0.1106
  178MOL0     C23379   0.410   4.393   9.067  0.3960 -1.1172 -0.2334
  178MOL0     C23380   0.279   4.314   9.087  0.5196 -0.2639  0.0241
  178MOL0     N23381   0.171   4.408   9.109  0.1771 -0.0799  0.5084
  178MOL0     C23382   0.152   4.480   9.227 -0.3105  0.2312  0.0015
  178MOL0     C23383   0.057   4.576   9.196 -0.5124 -0.7000  0.9472
  178MOL0     C23384   0.011   4.686   9.288 -0.0307 -0.1940 -0.8530
  178MOL0     C23385  -0.141   4.683   9.267  0.2037  0.0761 -0.1257
  178MOL0     C23386  -0.189   4.777   9.163 -0.5048 -0.3326 -0.3490
  178MOL0     C23387  -0.344   4.770   9.166 -0.4986 -0.4002  0.8863
  178MOL0     O23388  -0.397   4.770   9.300  0.5159 -0.4644  0.1193
  178MOL0     C23389  -0.535   4.773   9.310 -0.2527 -0.1434  0.1001
  178MOL0     C23390  -0.622   4.848   9.229 -0.1383  0.4630 -0.6533
  178MOL0     C23391  -0.756   4.869   9.263 -0.1896 -0.2993  0.0968
  178MOL0     C23392  -0.815   4.816   9.376  0.3605  0.3534  0.4402
  178MOL0     C23393  -0.965   4.808   9.402  0.1859 -1.0721 -0.1683
  178MOL0     O23394  -1.032   4.915   9.352 -0.7435 -0.0088  0.2077
  178MOL0     C23395  -1.173   4.910   9.345 -0.0889  0.2835  1.0303
  178MOL0     C23396  -1.248   4.824   9.269  0.8126 -0.0983  0.9373
  178MOL0     C23397  -1.391   4.848   9.266  1.0865  0.0242 -0.0604
  178MOL0     C23398  -1.454   4.946   9.348 -0.9919  0.3036 -0.0283
  178MOL0     O23399  -1.582   4.988   9.350  0.1644  0.0341 -0.1044
  178MOL0     C23400  -1.676   4.895   9.290 -0.5716 -0.0782  0.0570
  178MOL0     C23401  -1.817   4.907   9.343 -0.5452  0.1012  0.2793
  178MOL0     C23402  -1.857   4.849   9.483 -0.2119 -0.2582 -0.1657
  178MOL0     C23403  -2.012   4.862   9.514 -0.1458 -0.9782 -0.0068
  178MOL0     C23404  -2.059   4.820   9.656  0.3396 -0.0174 -0.0593
  178MOL0     C23405  -2.195   4.885   9.689 -0.3062  0.3866 -0.4657
  178MOL0     C23406  -2.250   4.855   9.834  0.8112  0.9541  0.2888
  178MOL0     C23407  -2.328   4.723   9.829 -0.1527  0.3753  0.1897
  178MOL0    Cl23408  -2.410   4.715   9.989  0.0020  0.3140  0.0839
  178MOL0     C23409  -1.376   5.014   9.442  0.6827  0.2711 -0.2658
  178MOL0     C23410  -1.235   4.991   9.434  0.3850 -0.5008 -0.1338
  178MOL0     O23411  -1.009   4.712   9.459 -0.3521 -0.4950  0.0601
  178MOL0     C23412  -0.723   4.745   9.461  0.1255 -0.3225 -0.3090
  178MOL0     C23413  -0.588   4.725   9.433 -0.4366  0.0215 -0.0526
  178MOL0     N23414   0.022   4.559   9.067  0.1760  0.5297  0.1405
  178MOL0     N23415   0.092   4.465   9.013  0.0549 -0.0711 -0.1110
  178MOL0     C23416   1.079   4.610   8.517 -0.8886 -0.3547  0.0962
  178MOL0     C23417   1.213   4.598   8.486 -0.4355 -0.3079  0.6542
  178MOL0     C23418   1.659   4.634   8.403  0.2853 -0.5856  0.2426
  178MOL0     C23419   1.767   4.554   8.459  0.3447 -0.5032 -0.3047
  178MOL0     C23420   1.890   4.545   8.394 -0.5903  0.6167 -0.0469
  178MOL0     C23421   1.912   4.614   8.267  0.9844 -0.0334  0.2629
  178MOL0     O23422   2.038   4.600   8.209  0.1340  0.4801 -1.1389
  178MOL0     C23423   2.144   4.531   8.269 -0.2774  0.1591 -0.0245
  178MOL0     C23424   2.268   4.510   8.175  0.3381 -0.1399  0.1195
  178MOL0     C23425   2.234   4.423   8.050  0.9340 -0.5219 -0.0819
  178MOL0     C23426   2.365   4.399   7.971  0.4699  0.2998 -0.5422
  178MOL0     C23427   2.342   4.314   7.858  0.3410 -0.0517  0.7481
  178MOL0     C23428   2.321   4.258   7.748 -0.3937 -0.7279 -0.6822
  178MOL0     C23429   1.810   4.692   8.215  0.1304 -0.3307  0.6192
  178MOL0     C23430   1.686   4.701   8.281  0.3897  0.9080  0.2197
  178MOL0     H23431   1.270   4.921   8.400  3.7807 -0.3458  2.8182
  178MOL0     H23432   1.030   4.936   8.460 -0.4070 -0.6525  0.8777
  178MOL0     H23433   0.824   4.563   8.520  0.1337  0.1509  2.8419
  178MOL0     H23434   0.761   4.669   8.391 -2.3931 -0.3470  0.9160
  178MOL0     H23435   0.579   4.628   8.511  1.1160  0.5033 -1.4693
  178MOL0     H23436   0.614   4.780   8.549 -2.8596 -1.3100  0.2061
  178MOL0     H23437   0.713   4.709   8.770  2.6799 -2.5772  0.8710
  178MOL0     H23438   0.722   4.547   8.711 -1.9226 -1.5176 -1.8663
  178MOL0     H23439   0.454   4.681   8.741  0.2976 -0.8342 -2.9525
  178MOL0     H23440   0.490   4.512   8.702 -0.1386  1.0924 -1.5724
  178MOL0     H23441   0.543   4.647   8.975  3.8934 -2.7601  3.0982
  178MOL0     H23442   0.630   4.508   8.909 -0.1398  0.8119 -0.3297
  178MOL0     H23443   0.433   4.375   8.864 -0.7901 -1.8010  1.4996
  178MOL0     H23444   0.338   4.521   8.897  0.2606  0.7808  1.0763
  178MOL0     H23445   0.492   4.322   9.076  1.3470 -0.4607 -2.9150
  178MOL0     H23446   0.432   4.467   9.145 -2.9001  2.1704 -2.0659
  178MOL0     H23447   0.297   4.233   9.158 -0.4655 -0.6811 -0.1888
  178MOL0     H23448   0.261   4.269   8.989 -1.8556 -0.3818  0.4728
  178MOL0     H23449   0.183   4.455   9.328 -0.7501  2.5678  0.7908
  178MOL0     H23450   0.050   4.783   9.255 -1.4562  0.8433  0.3643
  178MOL0     H23451   0.041   4.666   9.391 -0.9401 -0.8642 -0.7063
  178MOL0     H23452  -0.182   4.704   9.367  3.3857 -2.1066  1.8607
  178MOL0     H23453  -0.170   4.579   9.249 -3.5593  0.9003  0.2421
  178MOL0     H23454  -0.148   4.872   9.198  0.0888 -0.9291  0.6231
  178MOL0     H23455  -0.152   4.742   9.066  0.3089 -0.1404 -0.1111
  178MOL0     H23456  -0.368   4.679   9.110  2.0996 -0.4440 -0.3285
  178MOL0     H23457  -0.383   4.856   9.111  0.5528 -0.2644  0.3236
  178MOL0     H23458  -0.586   4.892   9.136  3.8788 -0.5308  0.2460
  178MOL0     H23459  -0.808   4.938   9.197  0.2979  3.3896  3.2127
  178MOL0     H23460  -1.208   4.748   9.203  1.3718  0.6006  0.4459
  178MOL0     H23461  -1.450   4.788   9.197 -0.3923  1.1137  0.1997
  178MOL0     H23462  -1.649   4.792   9.316 -0.1792  0.3143  1.2597
  178MOL0     H23463  -1.683   4.908   9.181 -2.8889  1.3740  0.3172
  178MOL0     H23464  -1.881   4.848   9.276  0.3413  0.9328 -1.3776
  178MOL0     H23465  -1.840   5.014   9.338 -0.1072  0.2876  1.8588
  178MOL0     H23466  -1.799   4.900   9.561 -1.4430  2.3048 -0.8119
  178MOL0     H23467  -1.834   4.743   9.497  2.3416  0.2220 -0.2257
  178MOL0     H23468  -2.029   4.969   9.501  4.3914 -0.3062 -2.4880
  178MOL0     H23469  -2.070   4.813   9.436 -1.4180  2.0084 -1.0765
  178MOL0     H23470  -1.979   4.850   9.724  0.6136 -1.3314  0.2253
  178MOL0     H23471  -2.076   4.711   9.660  2.0725 -0.5114 -2.9884
  178MOL0     H23472  -2.273   4.848   9.622  0.2581 -1.7687  0.0114
  178MOL0     H23473  -2.183   4.994   9.679 -0.8929  0.4048 -0.9883
  178MOL0     H23474  -2.181   4.845   9.918 -0.2019  0.9301  1.1499
  178MOL0     H23475  -2.334   4.922   9.856 -0.4730 -0.7856  0.9937
  178MOL0     H23476  -2.259   4.641   9.806  1.2193  2.2778 -2.9608
  178MOL0     H23477  -2.409   4.717   9.756 -1.2950  0.7411  1.3823
  178MOL0     H23478  -1.432   5.088   9.498 -2.6160 -2.5637  0.5665
  178MOL0     H23479  -1.180   5.068   9.488 -1.2332  2.1536 -2.0519
  178MOL0     H23480  -0.766   4.684   9.541 -0.5352  0.1564 -0.2912
  178MOL0     H23481  -0.518   4.682   9.504  2.0154  1.3381 -1.5365
  178MOL0     H23482   1.025   4.519   8.539  1.2597 -1.8364 -0.5009
  178MOL0     H23483   1.247   4.495   8.499  1.6340 -0.0163 -1.7959
  178MOL0     H23484   1.756   4.502   8.554 -2.6569 -0.4748 -0.5325
  178MOL0     H23485   1.968   4.493   8.448  0.8604 -0.0635 -2.6192
  178MOL0     H23486   2.122   4.431   8.307 -1.9570  1.6788  3.4619
  178MOL0     H23487   2.178   4.583   8.359 -1.6787 -3.5342  2.9033
  178MOL0     H23488   2.298   4.607   8.132  2.0217  1.1896  3.9065
  178MOL0     H23489   2.352   4.476   8.235  0.9162  3.1268  1.3703
  178MOL0     H23490   2.160   4.481   7.994  1.8996  1.9693  1.0896
  178MOL0     H23491   2.194   4.332   8.096 -2.3129  1.3350  1.1209
  178MOL0     H23492   2.413   4.491   7.936  2.1562 -0.7043 -0.9652
  178MOL0     H23493   2.431   4.348   8.041  0.8401 -0.7659 -1.6411
  178MOL0     H23494   2.301   4.208   7.655 -4.3088  0.5313 -0.6815
  178MOL0     H23495   1.839   4.744   8.124 -2.5705  0.2854  0.0437
  178MOL0     H23496   1.609   4.768   8.243 -0.8187 -0.2987  0.4929
  179MOL0     O23497   7.846   9.951   2.874  0.5572  0.5316  0.2940
  179MOL0     C23498   7.949   9.940   2.931 -0.3188 -0.2449  0.0723
  179MOL0     O23499   7.971   9.846   3.021  0.2980 -0.7279 -0.1231
  179MOL0     C23500   7.853   9.793   3.078 -0.1138  0.0939  0.2016
  179MOL0     C23501   7.805   9.669   3.045 -0.0933  0.6743  0.7514
  179MOL0     C23502   7.704   9.600   3.109  0.2263  0.5885  0.4010
  179MOL0     C23503   7.638   9.668   3.213 -0.6581 -0.0469  1.1559
  179MOL0     O23504   7.541   9.608   3.284  0.1046  0.2633  0.9050
  179MOL0     C23505   7.429   9.551   3.223  0.5453  0.4139  1.0246
  179MOL0     C23506   7.299   9.609   3.276 -0.1676 -0.9505  0.2722
  179MOL0     C23507   7.198   9.638   3.161  0.0391 -0.5866 -0.2294
  179MOL0     C23508   7.147   9.503   3.103  0.0163  0.6101 -1.2681
  179MOL0     C23509   7.032   9.512   3.001 -0.5278  0.5759  0.6897
  179MOL0     C23510   6.982   9.362   2.979  0.3996 -0.5628  0.3765
  179MOL0     C23511   7.072   9.268   2.911  0.1593  0.3503  0.8267
  179MOL0     C23512   7.012   9.135   2.864  0.1001 -0.1061 -0.3866
  179MOL0     N23513   6.878   9.136   2.803 -0.0544  1.0228 -0.4406
  179MOL0     C23514   6.761   9.074   2.858  0.2680  0.2065  0.1545
  179MOL0     C23515   6.660   9.109   2.773 -0.0441  0.0505 -1.1266
  179MOL0     C23516   6.520   9.069   2.782 -0.0125  0.5483  0.1826
  179MOL0     C23517   6.434   9.170   2.857  0.1086 -0.3120 -0.5051
  179MOL0     C23518   6.290   9.171   2.836  0.2021  0.5758  0.1167
  179MOL0     C23519   6.222   9.291   2.889  0.2705 -1.1216  0.6945
  179MOL0     O23520   6.086   9.271   2.923  0.4756  0.4098  0.5124
  179MOL0     C23521   6.016   9.375   2.981  0.4787 -0.3935 -0.2143
  179MOL0     C23522   6.066   9.506   3.010 -0.4565 -0.3800 -0.2615
  179MOL0     C23523   5.982   9.596   3.071 -0.8182  0.2188  0.0913
  179MOL0     C23524   5.845   9.570   3.095  0.2055  0.6142  0.6393
  179MOL0     C23525   5.747   9.671   3.143 -1.5278  0.2319 -0.6090
  179MOL0     O23526   5.638   9.617   3.200  0.3228  0.1165  0.2487
  179MOL0     C23527   5.535   9.695   3.244  0.5925  0.6636  0.0306
  179MOL0     C23528   5.500   9.809   3.177 -0.5143 -0.4375  0.1131
  179MOL0     C23529   5.393   9.885   3.221 -0.0143  0.3856  1.0817
  179MOL0     C23530   5.293   9.830   3.311  1.5230  0.7917 -0.5427
  179MOL0     O23531   5.178   9.886   3.349  0.0579  0.3027 -0.9165
  179MOL0     C23532   5.101   9.934   3.239  0.8316  0.6505 -0.6222
  179MOL0     C23533   5.037   9.818   3.154  0.6960  0.3681  0.2114
  179MOL0     C23534   4.939   9.724   3.230 -0.3148  0.0906 -0.1048
  179MOL0     C23535   4.803   9.795   3.263 -0.8696 -0.7899 -0.5412
  179MOL0     C23536   4.683   9.720   3.313  0.0251 -0.3755 -0.0545
  179MOL0     C23537   4.693   9.670   3.454 -0.6914  0.1970 -0.6555
  179MOL0     C23538   4.721   9.767   3.572 -0.7219 -0.4044  0.6009
  179MOL0     C23539   4.660   9.704   3.703 -0.3979 -0.6984 -0.2636
  179MOL0    Cl23540   4.511   9.788   3.759  0.1470 -0.2268 -0.1605
  179MOL0     C23541   5.330   9.714   3.380  1.7339  0.0098  0.1001
  179MOL0     C23542   5.437   9.647   3.334 -0.2384  0.5394  0.9360
  179MOL0     O23543   5.776   9.785   3.131 -0.1942  0.0129 -0.0926
  179MOL0     C23544   5.800   9.435   3.061  0.5298 -0.4463 -0.6268
  179MOL0     C23545   5.882   9.343   2.997  0.9434 -0.7783 -1.1660
  179MOL0     N23546   6.714   9.194   2.682 -0.0787 -0.3965  0.1101
  179MOL0     N23547   6.840   9.211   2.701  0.1916  1.0130 -0.8232
  179MOL0     C23548   7.691   9.791   3.251  0.9170 -1.4708  0.1054
  179MOL0     C23549   7.797   9.850   3.191  0.0327  0.7347  0.3569
  179MOL0     C23550   8.062  10.015   2.881 -0.5826  0.3752  0.0432
  179MOL0     C23551   8.192   9.972   2.919  0.6911  0.1426 -0.4373
  179MOL0     C23552   8.303  10.041   2.875 -0.0196  0.0318  0.6615
  179MOL0     C23553   8.287  10.147   2.793 -0.4504 -0.7849  1.0265
  179MOL0     O23554   8.401  10.210   2.746  0.3968  0.9313 -0.3458
  179MOL0     C23555   8.453  10.174   2.619 -0.0668  0.4042 -1.3311
  179MOL0     C23556   8.578  10.247   2.587  0.0854  0.0630  0.5235
  179MOL0     C23557   8.701  10.243   2.688  0.1674  0.4435 -0.2416
  179MOL0     C23558   8.839  10.260   2.617  0.7995 -0.2631 -0.1959
  179MOL0     C23559   8.901  10.136   2.580 -1.2452  0.7458  0.4380
  179MOL0     C23560   8.954  10.031   2.533 -0.1666 -0.8366  0.6939
  179MOL0     C23561   8.165  10.187   2.744 -0.5717  0.6382  0.5764
  179MOL0     C23562   8.047  10.122   2.792 -0.3725 -0.2086  0.2235
  179MOL0     H23563   7.851   9.618   2.961 -1.0310  0.3867  0.3944
  179MOL0     H23564   7.692   9.496   3.079  2.0106  0.7268 -1.0514
  179MOL0     H23565   7.421   9.443   3.239 -2.0928  0.5446  0.9380
  179MOL0     H23566   7.436   9.562   3.115 -1.3409 -0.7967  0.7308
  179MOL0     H23567   7.314   9.706   3.325  0.2508 -1.1936  0.6313
  179MOL0     H23568   7.261   9.536   3.349  0.9590 -0.9780  0.8444
  179MOL0     H23569   7.242   9.696   3.079 -3.0963  2.0938 -0.2307
  179MOL0     H23570   7.119   9.705   3.197  0.6467  0.6871 -1.1578
  179MOL0     H23571   7.229   9.443   3.063 -0.0584 -1.9117  1.9246
  179MOL0     H23572   7.120   9.432   3.182 -0.6812  0.5935 -1.5157
  179MOL0     H23573   7.069   9.558   2.909  0.4234 -0.4982  0.5068
  179MOL0     H23574   6.952   9.578   3.035  2.2630  3.0079  3.1806
  179MOL0     H23575   6.890   9.369   2.920  1.4254 -2.7313 -1.6243
  179MOL0     H23576   6.943   9.308   3.066  0.1504 -2.8382 -1.0670
  179MOL0     H23577   7.119   9.318   2.826  1.0917  0.0887  1.1711
  179MOL0     H23578   7.156   9.248   2.979  1.0945 -0.6951 -0.5722
  179MOL0     H23579   7.020   9.055   2.937  0.4960 -3.2042 -3.5682
  179MOL0     H23580   7.085   9.093   2.795 -0.2471 -2.4716  0.6107
  179MOL0     H23581   6.756   9.010   2.946 -0.4712 -0.7048 -0.5209
  179MOL0     H23582   6.519   8.969   2.828  3.1212 -0.9390 -2.6095
  179MOL0     H23583   6.471   9.053   2.686 -3.9581  0.4665  1.9769
  179MOL0     H23584   6.474   9.271   2.841  3.7172 -1.1567  1.8603
  179MOL0     H23585   6.446   9.133   2.959 -3.1140 -0.6045 -0.1461
  179MOL0     H23586   6.268   9.158   2.730 -2.4826  2.1107  0.3979
  179MOL0     H23587   6.246   9.088   2.892 -0.8104  2.6538  2.6126
  179MOL0     H23588   6.213   9.366   2.810 -0.5676 -0.5542  1.3146
  179MOL0     H23589   6.278   9.345   2.966  1.7782  2.2267 -2.4758
  179MOL0     H23590   6.166   9.545   2.990 -0.7965  0.1157 -1.0189
  179MOL0     H23591   6.031   9.690   3.094 -0.7490  1.1692 -3.3797
  179MOL0     H23592   5.554   9.849   3.092 -1.2707 -0.1620 -0.2468
  179MOL0     H23593   5.389   9.982   3.173  3.7494  0.8980  1.4728
  179MOL0     H23594   5.159   9.997   3.171  1.8291 -0.4293 -0.8131
  179MOL0     H23595   5.028  10.004   3.281  0.7360 -0.6643  1.5510
  179MOL0     H23596   5.108   9.759   3.095 -2.8523 -1.2012 -2.9370
  179MOL0     H23597   4.978   9.875   3.081 -0.1454  1.3064  1.5750
  179MOL0     H23598   4.981   9.693   3.326  1.0932  0.1482 -0.6724
  179MOL0     H23599   4.924   9.633   3.171 -1.4182 -0.0359  0.3624
  179MOL0     H23600   4.823   9.876   3.333  2.1588 -0.5289 -1.5763
  179MOL0     H23601   4.771   9.843   3.170  1.1176  0.3857 -0.6692
  179MOL0     H23602   4.665   9.635   3.246 -0.0070 -0.8557  0.5512
  179MOL0     H23603   4.596   9.783   3.292 -0.9581 -1.4374  0.7253
  179MOL0     H23604   4.772   9.595   3.444 -0.5511  0.2651 -0.1238
  179MOL0     H23605   4.607   9.614   3.491  2.1497 -4.2418 -0.0898
  179MOL0     H23606   4.826   9.788   3.590 -1.0058 -0.6114  2.8777
  179MOL0     H23607   4.663   9.858   3.554 -1.1458 -0.7642  0.1136
  179MOL0     H23608   4.725   9.717   3.790 -1.4013  2.9265  0.1129
  179MOL0     H23609   4.641   9.596   3.705  0.0522 -0.7953  2.4514
  179MOL0     H23610   5.266   9.674   3.458  1.4267  1.1081  0.4378
  179MOL0     H23611   5.460   9.546   3.368 -1.0675  0.4271  1.2031
  179MOL0     H23612   5.700   9.402   3.087  1.7905 -4.9431 -0.5884
  179MOL0     H23613   5.841   9.244   2.980 -2.2725  0.5335 -1.7470
  179MOL0     H23614   7.650   9.843   3.337 -1.5230 -1.7890 -0.7865
  179MOL0     H23615   7.838   9.940   3.235 -1.9132  2.3097 -0.9180
  179MOL0     H23616   8.199   9.897   2.997  0.4456  0.3979 -0.1669
  179MOL0     H23617   8.401  10.030   2.922  0.0649  0.8094  0.6866
  179MOL0     H23618   8.372  10.172   2.545 -0.0903 -2.2479 -1.3211
  179MOL0     H23619   8.481  10.069   2.630 -1.5104  0.1981  0.8961
  179MOL0     H23620   8.618  10.199   2.497 -0.7580  0.6146 -0.1573
  179MOL0     H23621   8.555  10.348   2.555  0.9284  0.4433  1.0728
  179MOL0     H23622   8.717  10.150   2.744  1.8347 -0.3224 -1.8935
  179MOL0     H23623   8.693  10.332   2.751 -0.7074 -0.1392  0.4901
  179MOL0     H23624   8.812  10.327   2.535  0.5568  1.2785  1.0989
  179MOL0     H23625   8.905  10.310   2.690 -0.8733 -0.8995  1.8506
  179MOL0     H23626   8.998   9.949   2.480 -0.3884 -0.7780  0.4171
  179MOL0     H23627   8.159  10.281   2.690  0.8208  1.1037  1.2008
  179MOL0     H23628   7.951  10.160   2.760  0.2319  1.4390  0.2947
  180MOL0     O23629  10.963   0.011   5.529  0.0731  0.1984  0.2662
  180MOL0     C23630  10.896   0.094   5.460  0.1013  0.4471 -0.0225
  180MOL0     O23631  10.941   0.167   5.346  0.0851  0.2438 -0.8438
  180MOL0     C23632  11.068   0.149   5.297  0.4581 -0.7267  0.2784
  180MOL0     C23633  11.181   0.145   5.386  0.0333 -0.4219  0.1238
  180MOL0     C23634  11.310   0.137   5.334  0.0730  0.5709 -0.3802
  180MOL0     C23635  11.330   0.138   5.199 -0.4092 -0.4441  0.3582
  180MOL0     O23636  11.453   0.156   5.133  0.4159  0.4732 -0.1802
  180MOL0     C23637  11.568   0.130   5.218 -0.2021  0.2489  0.2499
  180MOL0     C23638  11.693   0.102   5.142 -0.0843 -0.4780  0.0501
  180MOL0     C23639  11.793   0.223   5.148 -1.1217  0.3663 -0.3265
  180MOL0     C23640  11.883   0.223   5.274  1.0682  0.5419 -0.9528
  180MOL0     C23641  11.957   0.358   5.308 -0.0930  0.6760  0.2020
  180MOL0     C23642  12.060   0.339   5.415  0.1977  0.3125 -0.3431
  180MOL0     C23643  12.136   0.469   5.412 -0.2679  0.8060 -0.2335
  180MOL0     C23644  12.263   0.453   5.494 -0.0933  0.5910 -0.5047
  180MOL0     N23645  12.239   0.431   5.637 -0.8712 -0.3265  0.3766
  180MOL0     C23646  12.173   0.517   5.717  0.6310 -0.3004 -0.8568
  180MOL0     C23647  12.180   0.475   5.844 -0.3299 -0.5050 -0.1544
  180MOL0     C23648  12.110   0.553   5.957  0.5996 -0.0264 -0.5147
  180MOL0     C23649  12.086   0.473   6.083  0.0291  0.1491  0.4870
  180MOL0     C23650  11.967   0.373   6.083  0.8102  0.8095 -0.3799
  180MOL0     C23651  11.840   0.446   6.130 -0.3362  0.7678 -0.0250
  180MOL0     O23652  11.736   0.350   6.125  0.6825  0.3070 -0.0050
  180MOL0     C23653  11.610   0.401   6.136  0.4439  0.8902 -0.1898
  180MOL0     C23654  11.514   0.319   6.075 -0.5722 -0.9344 -0.5199
  180MOL0     C23655  11.385   0.365   6.091  0.3732 -0.5793  0.0012
  180MOL0     C23656  11.355   0.484   6.156 -0.5333  0.6900  0.0922
  180MOL0     C23657  11.215   0.524   6.184 -0.1855 -0.3969  0.0591
  180MOL0     O23658  11.109   0.443   6.147  0.0156  0.5093 -0.1903
  180MOL0     C23659  10.982   0.494   6.168 -0.0250  0.3206  0.1273
  180MOL0     C23660  10.945   0.620   6.112 -0.1070  0.3285  0.5435
  180MOL0     C23661  10.822   0.679   6.136 -0.6885 -0.9880  0.5333
  180MOL0     C23662  10.718   0.613   6.207  0.2004  0.1717  0.8002
  180MOL0     O23663  10.596   0.672   6.236  0.6743 -0.4266  1.0622
  180MOL0     C23664  10.570   0.806   6.176  0.1812 -0.5235 -0.4247
  180MOL0     C23665  10.430   0.852   6.213  0.4251  0.2658 -0.0484
  180MOL0     C23666  10.318   0.759   6.160  0.1325 -0.1190  0.6777
  180MOL0     C23667  10.171   0.811   6.184 -1.6750  0.8475  0.2147
  180MOL0     C23668  10.082   0.733   6.087 -1.1274  0.1922 -0.0937
  180MOL0     C23669   9.952   0.804   6.065  0.8041  0.5613 -0.1733
  180MOL0     C23670   9.846   0.716   6.004  0.8613  0.5174 -0.9599
  180MOL0     C23671   9.729   0.794   5.959  0.0300  0.6375  0.4659
  180MOL0    Cl23672   9.641   0.867   6.100 -0.0842  0.0436  0.2607
  180MOL0     C23673  10.761   0.483   6.249  1.2887 -0.9398  0.7647
  180MOL0     C23674  10.887   0.433   6.241  0.1906  0.9047  0.3999
  180MOL0     O23675  11.207   0.641   6.233  0.0828  0.4162 -0.1800
  180MOL0     C23676  11.455   0.564   6.213 -0.5535 -0.0349  0.6822
  180MOL0     C23677  11.590   0.526   6.202 -0.8931 -1.2651 -0.3556
  180MOL0     N23678  12.258   0.359   5.834 -0.0968 -0.5084  0.2560
  180MOL0     N23679  12.300   0.334   5.712 -0.3906  0.1139  0.4830
  180MOL0     C23680  11.222   0.136   5.108  0.6606  0.9005  0.6760
  180MOL0     C23681  11.091   0.138   5.160 -0.3483  0.3939 -0.4574
  180MOL0     C23682  10.753   0.104   5.495 -0.2093 -0.4787 -0.7173
  180MOL0     C23683  10.663   0.162   5.402 -0.5751 -0.0002  0.1404
  180MOL0     C23684  10.529   0.177   5.430 -0.2346  1.2546 -0.0680
  180MOL0     C23685  10.481   0.134   5.562  0.6086  0.1768  0.4407
  180MOL0     O23686  10.352   0.148   5.599  0.1577  0.5785 -0.1459
  180MOL0     C23687  10.244   0.195   5.512 -0.1412 -0.9060 -0.4625
  180MOL0     C23688  10.115   0.104   5.520 -0.1454  0.3813  0.0158
  180MOL0     C23689   9.998   0.188   5.471  0.4738 -0.5826 -0.3720
  180MOL0     C23690   9.894   0.079   5.422  0.4755  0.2979  0.1490
  180MOL0     C23691   9.760   0.123   5.413  0.5160 -0.4529  0.5698
  180MOL0     C23692   9.645   0.166   5.406 -0.1564 -0.6680  0.2015
  180MOL0     C23693  10.568   0.081   5.653 -0.0392 -0.8366 -0.6746
  180MOL0     C23694  10.705   0.073   5.622 -0.8736  0.5106  0.1795
  180MOL0     H23695  11.168   0.157   5.493  0.8462  4.9243 -0.0843
  180MOL0     H23696  11.396   0.127   5.399  0.7340  2.0708 -0.9694
  180MOL0     H23697  11.540   0.046   5.283  1.7627  0.3046  1.2312
  180MOL0     H23698  11.593   0.210   5.288  5.7472 -1.6138  0.8164
  180MOL0     H23699  11.668   0.080   5.038  0.9962 -1.7120  0.0249
  180MOL0     H23700  11.744   0.013   5.180 -1.1715 -1.1704 -0.0771
  180MOL0     H23701  11.731   0.312   5.134 -3.8165 -1.4836 -1.1215
  180MOL0     H23702  11.850   0.219   5.055 -0.8455  2.2359 -0.2700
  180MOL0     H23703  11.818   0.211   5.360  2.7822  2.5002  0.7300
  180MOL0     H23704  11.948   0.135   5.269 -1.4558 -1.3828 -3.5631
  180MOL0     H23705  11.893   0.442   5.335  0.7165  1.1896  0.5750
  180MOL0     H23706  12.000   0.379   5.210  1.5836 -2.7216  0.0566
  180MOL0     H23707  12.115   0.245   5.403 -0.5045 -0.9320  4.3004
  180MOL0     H23708  12.001   0.335   5.507 -1.2900  0.5495 -1.2616
  180MOL0     H23709  12.164   0.485   5.307 -1.7742  0.8761 -0.6551
  180MOL0     H23710  12.071   0.546   5.454 -0.7397 -0.5972  1.7380
  180MOL0     H23711  12.334   0.532   5.468 -0.9794  1.6208  0.1241
  180MOL0     H23712  12.307   0.361   5.453  0.6652  2.2135 -3.6795
  180MOL0     H23713  12.106   0.598   5.689 -1.3987 -1.2194  1.0035
  180MOL0     H23714  12.011   0.587   5.927 -1.8805 -4.0728  2.1757
  180MOL0     H23715  12.173   0.636   5.991  0.2535  0.6225 -1.4150
  180MOL0     H23716  12.068   0.539   6.168  2.4667 -1.3860  2.3284
  180MOL0     H23717  12.170   0.406   6.101  1.1832  0.8871 -1.7480
  180MOL0     H23718  11.947   0.323   5.988  0.4561 -0.6050  0.4199
  180MOL0     H23719  11.977   0.287   6.149  0.2790  1.6812  0.8793
  180MOL0     H23720  11.836   0.530   6.060 -3.8907  2.9631  2.5066
  180MOL0     H23721  11.859   0.471   6.234 -1.3164 -3.5389  1.3926
  180MOL0     H23722  11.533   0.224   6.026 -0.3031 -1.1721  0.0373
  180MOL0     H23723  11.311   0.309   6.034  2.0487  0.3777 -3.3582
  180MOL0     H23724  11.024   0.669   6.057  2.1799 -1.5296  1.9875
  180MOL0     H23725  10.805   0.781   6.105  2.1190 -0.2397  1.1797
  180MOL0     H23726  10.581   0.796   6.067  1.0405 -0.2904 -0.3695
  180MOL0     H23727  10.644   0.871   6.223  0.1777  0.4423 -1.6759
  180MOL0     H23728  10.414   0.954   6.178  3.6889  0.6303 -0.8024
  180MOL0     H23729  10.431   0.850   6.323 -0.9975 -1.1203 -0.0232
  180MOL0     H23730  10.323   0.668   6.220 -0.4748  0.7224  2.0642
  180MOL0     H23731  10.332   0.743   6.053 -0.9989 -1.3221  0.6859
  180MOL0     H23732  10.135   0.788   6.285 -1.3387 -1.2822 -0.0933
  180MOL0     H23733  10.173   0.916   6.155  0.4771  0.6770 -0.4789
  180MOL0     H23734  10.067   0.630   6.121  0.9768 -1.0286 -2.5304
  180MOL0     H23735  10.132   0.733   5.990 -0.1917 -3.3981  0.2360
  180MOL0     H23736   9.969   0.883   5.991 -2.3166 -0.6697 -2.4324
  180MOL0     H23737   9.929   0.856   6.158 -0.2156  1.2922 -0.8126
  180MOL0     H23738   9.871   0.649   5.922 -0.9637 -0.5689 -0.6764
  180MOL0     H23739   9.809   0.644   6.078  1.9909  0.0696 -0.8112
  180MOL0     H23740   9.663   0.730   5.899  0.8724 -0.1976  0.3918
  180MOL0     H23741   9.761   0.880   5.899  2.1921  0.6288  1.5196
  180MOL0     H23742  10.690   0.434   6.315  2.8504 -1.9016  1.7957
  180MOL0     H23743  10.917   0.338   6.284 -1.2745 -0.1940 -0.9031
  180MOL0     H23744  11.438   0.654   6.272 -0.7029  1.3921 -1.4156
  180MOL0     H23745  11.659   0.599   6.243  0.0638 -1.7871 -0.9812
  180MOL0     H23746  11.239   0.152   5.002 -3.5898  0.4263 -0.2594
  180MOL0     H23747  11.008   0.133   5.090 -0.3079  4.4917 -1.0309
  180MOL0     H23748  10.691   0.219   5.313 -0.5148 -1.8145 -1.0408
  180MOL0     H23749  10.470   0.227   5.354  0.5219  1.9499 -0.2163
  180MOL0     H23750  10.254   0.217   5.406 -0.2055  2.8447  0.1958
  180MOL0     H23751  10.220   0.289   5.562  1.0443 -1.6396  1.6064
  180MOL0     H23752  10.136   0.011   5.466 -1.5460 -0.0119  0.1078
  180MOL0     H23753  10.107   0.084   5.627  1.7746  1.6894  0.4538
  180MOL0     H23754  10.029   0.260   5.396  2.1733  0.1609  0.9707
  180MOL0     H23755   9.951   0.257   5.542  0.1392 -1.1795 -0.0008
  180MOL0     H23756   9.930   0.061   5.320 -0.4410 -0.0904 -0.1239
  180MOL0     H23757   9.903  -0.014   5.478 -3.4304 -1.0781 -1.1832
  180MOL0     H23758   9.540   0.188   5.408 -0.1012 -0.4259  0.5416
  180MOL0     H23759  10.520   0.068   5.750  0.7664  2.0815  0.2302
  180MOL0     H23760  10.781   0.036   5.691 -3.2259 -1.3320  1.9436
  181MOL0     O23761   5.583   9.500  10.671  0.1619  0.0347  0.4379
  181MOL0     C23762   5.576   9.617  10.639  0.1371  0.3194 -0.8417
  181MOL0     O23763   5.463   9.687  10.625 -0.2862 -0.1156 -0.1980
  181MOL0     C23764   5.334   9.645  10.639 -0.4181  0.0054  0.1082
  181MOL0     C23765   5.292   9.510  10.653  0.0575  0.3102  0.2539
  181MOL0     C23766   5.160   9.487  10.668  0.7968  0.0745  0.4852
  181MOL0     C23767   5.061   9.586  10.661 -0.0490 -0.4084  0.2347
  181MOL0     O23768   4.927   9.551  10.665 -0.3673  0.5155  0.8511
  181MOL0     C23769   4.897   9.501  10.798 -0.2284 -0.6272 -1.2739
  181MOL0     C23770   4.757   9.448  10.807 -0.6582 -0.0946  0.6819
  181MOL0     C23771   4.648   9.550  10.805 -0.3942 -0.5395  0.4267
  181MOL0     C23772   4.512   9.491  10.798  0.8273  0.6750  0.3651
  181MOL0     C23773   4.399   9.593  10.785 -0.0044 -0.4781 -0.3848
  181MOL0     C23774   4.269   9.539  10.755 -0.2256  1.6534 -0.2462
  181MOL0     C23775   4.161   9.648  10.721 -0.3664 -0.6698 -0.3930
  181MOL0     C23776   4.025   9.586  10.728 -0.7977  0.7057  0.2280
  181MOL0     N23777   4.013   9.464  10.638  0.6992 -0.1968  0.1621
  181MOL0     C23778   3.977   9.469  10.502 -0.0260 -0.3140 -0.2543
  181MOL0     C23779   3.992   9.343  10.449 -0.2241 -0.4214 -0.5200
  181MOL0     C23780   3.982   9.315  10.301 -0.0818 -0.2649 -1.3829
  181MOL0     C23781   3.842   9.275  10.246  0.7830  0.1036 -0.1296
  181MOL0     C23782   3.756   9.404  10.223 -0.1398 -1.0648  0.2712
  181MOL0     C23783   3.616   9.368  10.271  0.3558 -0.2330  0.4051
  181MOL0     O23784   3.613   9.380  10.412  0.5517  0.7510 -0.0254
  181MOL0     C23785   3.523   9.299  10.491 -0.3577 -0.5661 -0.7387
  181MOL0     C23786   3.565   9.283  10.622 -0.0329  1.5156 -0.6443
  181MOL0     C23787   3.494   9.197  10.711 -0.1772 -0.0059  0.2386
  181MOL0     C23788   3.377   9.137  10.671  0.9676  0.2571  0.1191
  181MOL0     C23789   3.298   9.064  10.774 -0.9892  0.3521  0.6440
  181MOL0     O23790   3.167   9.051  10.747 -0.0427  0.6467 -0.0179
  181MOL0     C23791   3.107   8.936  10.799 -0.2251 -0.1417 -0.1646
  181MOL0     C23792   3.026   8.852  10.716  0.1092 -0.3220 -1.2648
  181MOL0     C23793   2.959   8.746  10.774  0.1537 -0.5448  0.5505
  181MOL0     C23794   2.968   8.722  10.914  0.8489 -0.4591  0.4147
  181MOL0     O23795   2.893   8.613  10.966  0.1626 -0.9075 -0.8651
  181MOL0     C23796   2.751   8.642  10.987  0.2013  0.3548 -0.7453
  181MOL0     C23797   2.686   8.515  11.058 -0.3135 -0.5672  0.2923
  181MOL0     C23798   2.765   8.491  11.191 -0.1677 -0.3093 -0.8061
  181MOL0     C23799   2.710   8.365  11.262  0.3257 -0.3913  0.7529
  181MOL0     C23800   2.804   8.315  11.372  0.2107  0.4059 -0.6119
  181MOL0     C23801   2.774   8.393  11.506 -0.2406 -0.1248 -0.1507
  181MOL0     C23802   2.796   8.307  11.628 -0.1539 -0.7043  0.8502
  181MOL0     C23803   2.938   8.254  11.631  0.4007  0.5787 -0.3179
  181MOL0    Cl23804   2.956   8.174  11.791  0.4243 -0.0004  0.2191
  181MOL0     C23805   3.050   8.797  10.987 -0.3380  0.5327 -0.4337
  181MOL0     C23806   3.121   8.901  10.935  0.6222  0.5183  0.5000
  181MOL0     O23807   3.358   9.003  10.868  0.5134 -0.2166 -0.0942
  181MOL0     C23808   3.335   9.162  10.540 -0.3743 -0.2012 -0.7096
  181MOL0     C23809   3.406   9.237  10.444 -0.8897  0.4912  0.4255
  181MOL0     N23810   4.007   9.258  10.556  0.2823 -0.8839 -0.5922
  181MOL0     N23811   4.013   9.332  10.663 -0.4152  0.4117 -0.5184
  181MOL0     C23812   5.100   9.715  10.638 -0.0217 -0.5176  1.5367
  181MOL0     C23813   5.239   9.744  10.630  0.8405 -0.6419  0.7672
  181MOL0     C23814   5.706   9.685  10.613 -0.2123  1.3262  0.1448
  181MOL0     C23815   5.721   9.825  10.601  0.7373  0.0730 -0.8322
  181MOL0     C23816   5.837   9.882  10.549 -0.1436  0.5935  0.0836
  181MOL0     C23817   5.947   9.801  10.512  0.4888  0.4117 -0.1007
  181MOL0     O23818   6.061   9.867  10.465 -0.3221 -0.2438  0.1744
  181MOL0     C23819   6.161   9.798  10.389  1.1578 -0.2415 -0.0232
  181MOL0     C23820   6.261   9.893  10.317  0.2964  0.5299 -0.1612
  181MOL0     C23821   6.336   9.978  10.415  0.4213  0.1475  0.0314
  181MOL0     C23822   6.472  10.039  10.367  0.4853  0.3177  0.8732
  181MOL0     C23823   6.567   9.929  10.347 -0.1304 -0.0350  0.5339
  181MOL0     C23824   6.651   9.841  10.310 -0.0014 -0.6124  0.1622
  181MOL0     C23825   5.935   9.663  10.515 -1.0558  0.7730  0.2236
  181MOL0     C23826   5.816   9.606  10.573  0.0165  0.1072 -0.9772
  181MOL0     H23827   5.357   9.424  10.641  1.6562  1.5975 -0.8266
  181MOL0     H23828   5.139   9.380  10.666  1.8997 -0.3443  3.9299
  181MOL0     H23829   4.901   9.590  10.862 -1.4413  0.0556 -2.1130
  181MOL0     H23830   4.964   9.419  10.824 -1.2774 -1.9323 -2.5976
  181MOL0     H23831   4.736   9.385  10.894 -1.2175 -1.0063 -0.0951
  181MOL0     H23832   4.745   9.378  10.724  1.0854 -0.5769  0.8005
  181MOL0     H23833   4.662   9.617  10.719 -0.2714 -0.0059  0.8611
  181MOL0     H23834   4.655   9.611  10.895 -1.0457 -1.3598  1.0456
  181MOL0     H23835   4.513   9.421  10.714 -2.0033 -1.2956  1.8352
  181MOL0     H23836   4.493   9.421  10.879  0.4357 -0.8828 -1.0131
  181MOL0     H23837   4.420   9.657  10.699  4.0319  1.5470  1.8662
  181MOL0     H23838   4.392   9.661  10.870  0.0310  0.4156 -1.0862
  181MOL0     H23839   4.243   9.469  10.835 -1.9752  0.9058 -1.4130
  181MOL0     H23840   4.295   9.469  10.675  3.2017 -0.6165  2.5602
  181MOL0     H23841   4.171   9.725  10.798  0.8282  2.7669 -3.6643
  181MOL0     H23842   4.177   9.706  10.629 -1.4405  0.3165  0.0218
  181MOL0     H23843   3.943   9.657  10.713  0.4508  1.7078 -2.6155
  181MOL0     H23844   4.018   9.540  10.827  2.1264  1.0521  0.6892
  181MOL0     H23845   3.951   9.557  10.443 -0.5289 -0.7589 -0.7115
  181MOL0     H23846   4.042   9.225  10.282 -0.5346 -0.8049 -0.3257
  181MOL0     H23847   4.021   9.401  10.245  2.0252 -1.0707 -1.2434
  181MOL0     H23848   3.787   9.203  10.307 -1.0208  1.4902 -0.0276
  181MOL0     H23849   3.846   9.218  10.153 -0.3032 -0.4263  0.1316
  181MOL0     H23850   3.796   9.492  10.273 -2.0685  1.4288 -2.2586
  181MOL0     H23851   3.759   9.425  10.115  4.1038 -4.2055 -0.4668
  181MOL0     H23852   3.577   9.273  10.235  1.5062 -1.3622  2.0271
  181MOL0     H23853   3.546   9.437  10.223  0.4187 -1.1100 -1.0142
  181MOL0     H23854   3.658   9.329  10.652  0.7114 -0.3695  0.1061
  181MOL0     H23855   3.527   9.175  10.813  0.0866 -1.5062 -0.1491
  181MOL0     H23856   3.027   8.879  10.611  4.3200  1.3621 -0.9596
  181MOL0     H23857   2.914   8.666  10.716  0.4416 -1.2574  1.2860
  181MOL0     H23858   2.708   8.669  10.890 -2.6169 -2.4146 -0.4507
  181MOL0     H23859   2.742   8.723  11.060 -2.2320 -0.9533  0.5471
  181MOL0     H23860   2.699   8.419  11.007  1.3655 -1.4336  2.2066
  181MOL0     H23861   2.585   8.545  11.087  1.0503  0.5616  4.5475
  181MOL0     H23862   2.767   8.581  11.253 -1.9128 -0.5757 -0.3096
  181MOL0     H23863   2.865   8.459  11.161 -1.1529 -2.9869 -1.5626
  181MOL0     H23864   2.607   8.366  11.298 -1.0719 -0.5093 -2.8008
  181MOL0     H23865   2.706   8.281  11.192 -0.7878  0.7851 -0.6632
  181MOL0     H23866   2.909   8.328  11.346 -0.2150  1.2667 -1.9708
  181MOL0     H23867   2.800   8.206  11.382 -0.6599  0.5611  1.3335
  181MOL0     H23868   2.666   8.410  11.511 -0.1713  0.0696  0.7979
  181MOL0     H23869   2.839   8.481  11.505  2.2160 -1.8454 -1.1041
  181MOL0     H23870   2.777   8.363  11.720  1.2197  0.2061  0.6037
  181MOL0     H23871   2.723   8.226  11.619 -0.1621 -0.8472  2.0212
  181MOL0     H23872   3.015   8.332  11.624  0.9403  0.4119  2.6240
  181MOL0     H23873   2.948   8.172  11.558 -0.4216 -2.6427  2.9141
  181MOL0     H23874   3.062   8.783  11.094 -2.9902  0.5410 -0.0610
  181MOL0     H23875   3.180   8.963  11.001  0.8250  1.2570 -0.3478
  181MOL0     H23876   3.241   9.123  10.502 -0.9522 -1.0413  1.4305
  181MOL0     H23877   3.368   9.233  10.342  1.8538  0.1571 -0.6560
  181MOL0     H23878   5.043   9.805  10.614 -0.7000 -1.0106  1.2452
  181MOL0     H23879   5.270   9.847  10.618 -0.2859 -0.4160 -0.5281
  181MOL0     H23880   5.638   9.893  10.620  1.1714  1.1400 -2.5010
  181MOL0     H23881   5.836   9.991  10.543 -2.8657  0.7859  2.0190
  181MOL0     H23882   6.102   9.757  10.307  0.8914 -1.5331  0.7902
  181MOL0     H23883   6.228   9.729  10.440  1.8157 -0.2025 -0.8175
  181MOL0     H23884   6.324   9.838  10.247 -1.4979  0.2118 -1.6006
  181MOL0     H23885   6.197   9.964  10.263 -1.9860 -2.6934 -2.0636
  181MOL0     H23886   6.345   9.915  10.504  0.9378 -2.5153 -1.7903
  181MOL0     H23887   6.267  10.058  10.440 -0.2787  0.6003 -2.9757
  181MOL0     H23888   6.460  10.103  10.280 -1.3878  0.2089  0.9996
  181MOL0     H23889   6.517  10.108  10.439  4.1786 -0.6792 -0.2512
  181MOL0     H23890   6.722   9.766  10.284 -1.4541 -1.5688 -1.2764
  181MOL0     H23891   6.009   9.589  10.484 -1.7782  0.5567 -1.0111
  181MOL0     H23892   5.801   9.499  10.579  2.0516 -0.1936 -0.2644
  182MOL0     O23893   8.609   8.653   6.376 -0.2073 -0.5239  0.0227
  182MOL0     C23894   8.570   8.745   6.447 -0.2210 -0.1666 -0.1186
  182MOL0     O23895   8.447   8.754   6.506  0.2432  0.3271  0.0462
  182MOL0     C23896   8.368   8.646   6.527  0.0435  0.5806  0.5222
  182MOL0     C23897   8.269   8.648   6.631  0.1556  0.5543 -0.0586
  182MOL0     C23898   8.186   8.538   6.661  0.3848 -0.5319 -0.4483
  182MOL0     C23899   8.194   8.426   6.578  0.1801 -0.2434  0.6725
  182MOL0     O23900   8.101   8.322   6.593  0.0010 -0.2979  0.7520
  182MOL0     C23901   8.151   8.194   6.604 -0.1249  1.1637  0.4613
  182MOL0     C23902   8.027   8.111   6.589  0.0063 -0.0006 -0.6210
  182MOL0     C23903   7.987   8.083   6.442  0.3323 -0.0273  0.3973
  182MOL0     C23904   7.869   7.988   6.444 -0.1436  0.3082  0.4387
  182MOL0     C23905   7.825   7.935   6.310  0.1014 -0.1147  0.9730
  182MOL0     C23906   7.772   8.039   6.212 -0.6256  0.1634  0.3390
  182MOL0     C23907   7.729   7.977   6.072 -0.2992 -1.5799  0.1573
  182MOL0     C23908   7.742   8.088   5.971 -0.8319 -0.4029 -0.1822
  182MOL0     N23909   7.700   8.029   5.845  0.2990 -0.1580  0.5620
  182MOL0     C23910   7.781   7.975   5.748 -0.1392 -0.0766 -0.1672
  182MOL0     C23911   7.693   7.902   5.669  0.5119  0.1779  0.3379
  182MOL0     C23912   7.723   7.813   5.544 -0.2320 -0.5354 -0.4490
  182MOL0     C23913   7.762   7.889   5.413  0.0107  0.0994  0.1732
  182MOL0     C23914   7.879   7.986   5.429  0.1038 -0.6852 -0.3821
  182MOL0     C23915   7.899   8.066   5.296  0.1306 -0.7607  0.2420
  182MOL0     O23916   7.936   7.968   5.199 -0.2193 -0.1766  0.5088
  182MOL0     C23917   8.012   8.007   5.091  0.4773  0.5279  0.0344
  182MOL0     C23918   8.030   8.138   5.046  0.0045  0.3444  0.6798
  182MOL0     C23919   8.130   8.165   4.944  0.1719 -0.3034 -0.3500
  182MOL0     C23920   8.187   8.054   4.875  0.6310  0.2491 -0.0384
  182MOL0     C23921   8.287   8.081   4.764 -0.3065  0.2486 -0.0142
  182MOL0     O23922   8.321   8.210   4.747  0.2995 -0.1787  0.5199
  182MOL0     C23923   8.442   8.246   4.696 -0.8048 -0.7946 -0.5519
  182MOL0     C23924   8.443   8.361   4.614  0.6932 -0.0900 -0.6241
  182MOL0     C23925   8.564   8.404   4.556 -0.1870 -0.0110 -0.3212
  182MOL0     C23926   8.684   8.328   4.578  1.0360 -0.9914 -0.3023
  182MOL0     O23927   8.807   8.370   4.531  0.5550 -0.3720 -0.0569
  182MOL0     C23928   8.826   8.454   4.419 -0.0772 -0.7373 -0.4469
  182MOL0     C23929   8.967   8.433   4.349 -0.5731  0.2311 -0.8568
  182MOL0     C23930   9.082   8.494   4.428 -0.2910  0.1291 -0.2339
  182MOL0     C23931   9.208   8.515   4.345  0.2264 -0.4600 -0.4431
  182MOL0     C23932   9.332   8.519   4.436  0.1540  0.0565 -0.9079
  182MOL0     C23933   9.457   8.512   4.347  0.9118 -0.5362  0.2826
  182MOL0     C23934   9.590   8.532   4.414 -0.8497  0.3224 -0.4271
  182MOL0     C23935   9.590   8.669   4.490 -0.0996  0.3639 -0.7064
  182MOL0    Cl23936   9.754   8.718   4.517 -0.2215  0.0070  0.2037
  182MOL0     C23937   8.682   8.224   4.667  0.4082 -0.0960  0.1909
  182MOL0     C23938   8.563   8.182   4.725 -0.2516 -0.1190  0.2955
  182MOL0     O23939   8.335   7.983   4.713  0.2747 -0.2161  0.4889
  182MOL0     C23940   8.148   7.921   4.905 -0.4041 -0.4592 -0.0531
  182MOL0     C23941   8.067   7.900   5.013 -0.1159  0.5335 -0.4389
  182MOL0     N23942   7.563   7.923   5.718  1.0258 -0.1433  0.4641
  182MOL0     N23943   7.567   8.001   5.815 -0.1670 -0.6312 -0.2902
  182MOL0     C23944   8.285   8.416   6.476 -0.0509 -0.8256 -0.2320
  182MOL0     C23945   8.373   8.524   6.452 -0.5494  1.0889 -0.4088
  182MOL0     C23946   8.669   8.854   6.464  0.9868  0.8000 -0.4336
  182MOL0     C23947   8.648   8.954   6.562  0.2926 -0.1427 -0.4238
  182MOL0     C23948   8.743   9.039   6.608 -0.3175  0.0947  0.4992
  182MOL0     C23949   8.875   9.035   6.561 -0.4144  1.1047 -0.8216
  182MOL0     O23950   8.970   9.118   6.608 -0.0075  0.1178  0.8837
  182MOL0     C23951   9.087   9.141   6.536  0.5979  0.4789 -0.0252
  182MOL0     C23952   9.160   9.269   6.573 -0.2487 -0.2570  1.4502
  182MOL0     C23953   9.232   9.245   6.702  0.2130 -0.7584 -0.5009
  182MOL0     C23954   9.307   9.373   6.759 -0.2661  1.2603 -0.3463
  182MOL0     C23955   9.222   9.484   6.804  0.5039  0.0209  0.2115
  182MOL0     C23956   9.148   9.583   6.822  0.5227  0.0059  0.4319
  182MOL0     C23957   8.901   8.949   6.452  0.5982 -1.1807  0.5253
  182MOL0     C23958   8.796   8.855   6.406 -0.0386  0.1512  0.6753
  182MOL0     H23959   8.256   8.741   6.685 -1.1640 -0.2407  1.0536
  182MOL0     H23960   8.098   8.556   6.722  0.6662  0.8334 -0.4108
  182MOL0     H23961   8.207   8.175   6.697  0.9742 -0.5693 -0.5041
  182MOL0     H23962   8.220   8.172   6.522 -0.1720  0.9664  0.4745
  182MOL0     H23963   7.945   8.149   6.651  0.9490 -1.0090  1.3281
  182MOL0     H23964   8.053   8.010   6.624  2.1290  0.3718 -1.0456
  182MOL0     H23965   8.074   8.038   6.394 -1.9000 -1.3600 -2.7660
  182MOL0     H23966   7.952   8.177   6.399 -0.2876 -0.0038  0.9450
  182MOL0     H23967   7.913   7.904   6.497  1.4845 -1.0416 -2.7423
  182MOL0     H23968   7.786   8.034   6.497 -0.9933 -1.1542  0.4211
  182MOL0     H23969   7.744   7.862   6.319  0.4797 -0.7530 -0.5511
  182MOL0     H23970   7.913   7.891   6.263 -2.7720 -3.0096 -2.2626
  182MOL0     H23971   7.858   8.107   6.200  0.1163 -0.0893  3.5045
  182MOL0     H23972   7.687   8.092   6.255  0.5110  2.7661 -0.3846
  182MOL0     H23973   7.813   7.916   6.038  1.3794  1.5995 -1.8986
  182MOL0     H23974   7.626   7.940   6.070 -1.1192  0.5458  0.3678
  182MOL0     H23975   7.845   8.121   5.957  0.2335 -4.1491 -2.3097
  182MOL0     H23976   7.687   8.180   5.997 -0.0574  0.4091 -1.3130
  182MOL0     H23977   7.889   7.977   5.746 -0.1170 -0.8514 -1.9605
  182MOL0     H23978   7.628   7.764   5.520  0.0848 -2.0609  1.2025
  182MOL0     H23979   7.781   7.727   5.580 -3.5915 -2.7279  0.2086
  182MOL0     H23980   7.680   7.953   5.379  0.5174 -0.6388 -2.7113
  182MOL0     H23981   7.792   7.821   5.333 -1.9965  1.2493 -1.6655
  182MOL0     H23982   7.862   8.053   5.513 -1.0869 -0.3193 -0.8963
  182MOL0     H23983   7.973   7.934   5.450 -0.1473 -1.2200 -0.5560
  182MOL0     H23984   7.981   8.138   5.305 -0.6176 -0.0041  1.3729
  182MOL0     H23985   7.807   8.118   5.269  0.2913 -1.5591 -2.0473
  182MOL0     H23986   7.973   8.223   5.083 -0.3531  0.5853 -0.4044
  182MOL0     H23987   8.162   8.265   4.915  1.2306 -0.2255  0.9919
  182MOL0     H23988   8.353   8.416   4.593  1.1524 -0.1159 -2.8805
  182MOL0     H23989   8.564   8.491   4.491 -1.6967 -0.4379 -0.9266
  182MOL0     H23990   8.817   8.556   4.457  0.0415 -0.1207 -2.0064
  182MOL0     H23991   8.749   8.446   4.342  1.6495 -0.3405 -2.3009
  182MOL0     H23992   8.965   8.490   4.256 -0.9494  0.2733 -0.8228
  182MOL0     H23993   8.990   8.330   4.322 -1.7988 -0.2160 -0.2248
  182MOL0     H23994   9.100   8.425   4.511 -0.1633  0.2073 -0.1955
  182MOL0     H23995   9.031   8.585   4.463 -2.7869  0.3485 -3.8485
  182MOL0     H23996   9.221   8.427   4.281  0.8783 -1.8180  1.4776
  182MOL0     H23997   9.200   8.608   4.288 -4.0837 -1.2000 -1.4362
  182MOL0     H23998   9.339   8.428   4.496  3.5333  0.2796 -0.7313
  182MOL0     H23999   9.339   8.608   4.501 -1.1840 -1.0600  0.8616
  182MOL0     H24000   9.442   8.585   4.266  0.9678 -3.0881 -2.1936
  182MOL0     H24001   9.454   8.414   4.298 -2.2135  0.2835 -1.5036
  182MOL0     H24002   9.609   8.451   4.486  0.0597 -4.0437 -4.9993
  182MOL0     H24003   9.674   8.533   4.344 -0.2061 -0.4680  0.3128
  182MOL0     H24004   9.547   8.660   4.590 -1.3981 -1.4326 -1.3695
  182MOL0     H24005   9.539   8.745   4.429 -2.8133 -1.5480 -0.9733
  182MOL0     H24006   8.767   8.176   4.715 -0.2427 -0.4931  0.9718
  182MOL0     H24007   8.564   8.091   4.784  0.4217 -0.3592 -0.0715
  182MOL0     H24008   8.185   7.836   4.848  2.3213  0.6604 -0.0851
  182MOL0     H24009   8.028   7.802   5.039  1.4038 -0.4453 -1.6862
  182MOL0     H24010   8.294   8.338   6.401  0.5097  1.1167 -2.3394
  182MOL0     H24011   8.446   8.514   6.372  0.2926 -0.2074  0.4837
  182MOL0     H24012   8.553   8.949   6.615  0.9505  3.7467  1.5047
  182MOL0     H24013   8.725   9.098   6.697 -2.9052 -1.0852  0.8625
  182MOL0     H24014   9.072   9.141   6.428  0.4964 -0.5414 -0.0166
  182MOL0     H24015   9.150   9.052   6.542 -0.4118 -0.4026 -1.9787
  182MOL0     H24016   9.221   9.289   6.485 -2.0864 -2.7346 -0.5482
  182MOL0     H24017   9.084   9.347   6.574  0.4546  0.7259 -3.0054
  182MOL0     H24018   9.305   9.165   6.683 -0.0075 -0.0426 -5.6964
  182MOL0     H24019   9.154   9.210   6.770  0.0346 -1.1440 -0.8984
  182MOL0     H24020   9.370   9.344   6.844  1.2500  1.3047 -1.4192
  182MOL0     H24021   9.378   9.415   6.687 -0.5581  2.0343 -0.1964
  182MOL0     H24022   9.090   9.672   6.837 -1.1172 -1.2087  1.6725
  182MOL0     H24023   8.994   8.953   6.396  1.5847  1.2657  2.1778
  182MOL0     H24024   8.814   8.767   6.344 -3.4194  0.6710 -1.3334
  183MOL0     O24025   1.661   4.653   6.817 -0.0329 -1.2921  0.0130
  183MOL0     C24026   1.719   4.764   6.821  0.1331 -0.7184 -0.2760
  183MOL0     O24027   1.672   4.884   6.874 -0.2532 -0.3629  0.1281
  183MOL0     C24028   1.554   4.864   6.927 -0.6676 -0.6221  1.1636
  183MOL0     C24029   1.442   4.859   6.842 -0.1003 -0.6078  0.2440
  183MOL0     C24030   1.318   4.842   6.890  0.0560 -0.0197  0.2026
  183MOL0     C24031   1.309   4.828   7.034 -0.8137  0.5224  0.5415
  183MOL0     O24032   1.193   4.822   7.097 -0.2706  0.4008  0.1571
  183MOL0     C24033   1.076   4.818   7.019 -0.5658 -0.7518  0.1388
  183MOL0     C24034   0.959   4.855   7.114 -0.3103 -0.8547  0.3494
  183MOL0     C24035   0.936   5.015   7.125  0.2842 -0.0820  0.3070
  183MOL0     C24036   0.880   5.047   7.266 -0.5134  0.2693  1.2271
  183MOL0     C24037   0.888   5.194   7.300  0.2347 -0.2208  0.0297
  183MOL0     C24038   0.802   5.236   7.422 -0.0771  0.5730 -0.4363
  183MOL0     C24039   0.791   5.139   7.539 -0.2107 -0.9407 -0.0467
  183MOL0     C24040   0.694   5.193   7.647  0.3079 -0.2716 -0.4396
  183MOL0     N24041   0.547   5.145   7.651  0.1216 -0.0106 -0.7567
  183MOL0     C24042   0.481   5.128   7.763  0.0746 -0.2971 -0.8112
  183MOL0     C24043   0.354   5.094   7.726  0.5489  0.2758  0.2364
  183MOL0     C24044   0.242   5.104   7.818 -0.4090  0.3230 -0.2276
  183MOL0     C24045   0.176   5.249   7.832  0.1024  0.3282  0.0479
  183MOL0     C24046   0.057   5.250   7.747 -0.2611 -0.1541 -0.2148
  183MOL0     C24047  -0.003   5.383   7.745  0.7261 -0.6310  0.1649
  183MOL0     O24048  -0.108   5.377   7.845  1.5738 -0.0512  0.2634
  183MOL0     C24049  -0.218   5.449   7.820 -0.1577 -0.2875 -0.2804
  183MOL0     C24050  -0.341   5.387   7.852 -1.1204 -0.2221 -0.4857
  183MOL0     C24051  -0.464   5.455   7.831  0.2613  0.1075  0.6786
  183MOL0     C24052  -0.468   5.591   7.791 -0.0396  0.1678  0.0109
  183MOL0     C24053  -0.601   5.652   7.776  0.9697  0.0245  0.3067
  183MOL0     O24054  -0.712   5.568   7.776  0.1746  0.4043  0.0198
  183MOL0     C24055  -0.828   5.627   7.736  0.1561  0.0141  0.4924
  183MOL0     C24056  -0.929   5.654   7.828 -0.2120  0.4578 -0.2278
  183MOL0     C24057  -1.051   5.705   7.786  0.2536  0.1222 -0.1364
  183MOL0     C24058  -1.082   5.734   7.653 -0.4990  0.9303 -0.4141
  183MOL0     O24059  -1.203   5.785   7.609  0.0330  0.2044 -0.0825
  183MOL0     C24060  -1.295   5.862   7.690  0.3696  0.2842 -0.0798
  183MOL0     C24061  -1.419   5.899   7.610 -0.7519 -1.0338  0.3512
  183MOL0     C24062  -1.541   5.931   7.699  0.0176  0.0934 -0.3853
  183MOL0     C24063  -1.663   5.958   7.615 -1.0424  0.7233  0.7279
  183MOL0     C24064  -1.789   5.958   7.699 -0.0254 -0.0450  1.1351
  183MOL0     C24065  -1.900   6.012   7.622 -0.4055 -1.0657  0.3920
  183MOL0     C24066  -2.023   6.016   7.711  0.4131  0.3171 -0.3727
  183MOL0     C24067  -2.124   5.898   7.667 -0.0923  0.7517  0.5438
  183MOL0    Cl24068  -2.279   5.899   7.757 -0.1758  0.5855  0.1545
  183MOL0     C24069  -0.979   5.714   7.557 -0.3755 -0.6261 -0.4448
  183MOL0     C24070  -0.857   5.653   7.592 -0.5853 -0.5198  0.1880
  183MOL0     O24071  -0.602   5.770   7.735 -0.1240 -0.2535 -0.8081
  183MOL0     C24072  -0.347   5.656   7.755  0.5617  0.0911 -0.1595
  183MOL0     C24073  -0.224   5.580   7.765  0.3911 -1.1297  0.2343
  183MOL0     N24074   0.357   5.076   7.587  0.2907 -0.3313 -0.2795
  183MOL0     N24075   0.472   5.103   7.543  0.1574  0.2966  0.0268
  183MOL0     C24076   1.419   4.820   7.113  0.7939 -0.5957  0.9249
  183MOL0     C24077   1.546   4.853   7.062  0.5122 -0.2968 -1.0756
  183MOL0     C24078   1.861   4.751   6.780 -1.0223 -0.3291 -0.7409
  183MOL0     C24079   1.923   4.641   6.716  0.2437 -1.5361  0.4207
  183MOL0     C24080   2.056   4.642   6.673  0.0763  0.3187  0.5488
  183MOL0     C24081   2.138   4.754   6.693  0.4090  1.3356 -0.0118
  183MOL0     O24082   2.269   4.772   6.657 -0.1587  0.1344 -0.6849
  183MOL0     C24083   2.348   4.667   6.596  0.2053 -0.4035 -0.6425
  183MOL0     C24084   2.341   4.683   6.446 -0.8343 -1.1824 -0.1936
  183MOL0     C24085   2.354   4.830   6.404 -0.0139 -0.5243  0.8816
  183MOL0     C24086   2.473   4.905   6.455  0.3151  0.0726  0.6309
  183MOL0     C24087   2.595   4.842   6.399 -0.2390  0.3087  0.0683
  183MOL0     C24088   2.699   4.787   6.362 -0.2717  0.0322 -0.5960
  183MOL0     C24089   2.078   4.860   6.763  0.4767  0.3992 -0.1567
  183MOL0     C24090   1.944   4.866   6.795 -0.6073 -0.1694  0.1936
  183MOL0     H24091   1.450   4.862   6.733  0.8742 -0.6703  0.3070
  183MOL0     H24092   1.241   4.837   6.813  0.5903  1.3752 -0.4473
  183MOL0     H24093   1.071   4.715   6.984  1.7147 -0.7635 -0.3394
  183MOL0     H24094   1.075   4.891   6.938 -0.8194  0.1638  0.9419
  183MOL0     H24095   0.975   4.812   7.213  0.2381 -0.4211  0.4499
  183MOL0     H24096   0.866   4.817   7.069 -0.2737 -0.1770 -0.3164
  183MOL0     H24097   0.878   5.056   7.042 -2.2703 -0.6550  1.6907
  183MOL0     H24098   1.036   5.057   7.114  0.0943  0.4505  0.5684
  183MOL0     H24099   0.778   5.008   7.268  0.3028 -2.5059 -1.7396
  183MOL0     H24100   0.945   4.991   7.333  3.2965 -1.3018 -3.2767
  183MOL0     H24101   0.841   5.254   7.221 -0.6817 -0.3248  0.4791
  183MOL0     H24102   0.993   5.218   7.314  0.1950  0.7179 -1.1204
  183MOL0     H24103   0.696   5.243   7.394 -0.2101 -1.8883 -0.8295
  183MOL0     H24104   0.844   5.327   7.466  0.5291 -0.2929  0.8815
  183MOL0     H24105   0.757   5.043   7.499  0.9748 -0.2775 -2.9272
  183MOL0     H24106   0.893   5.133   7.578  1.1184  1.9273 -2.6277
  183MOL0     H24107   0.693   5.302   7.642 -0.1044 -0.3069 -1.3144
  183MOL0     H24108   0.732   5.171   7.747  1.6239 -0.6138 -1.0016
  183MOL0     H24109   0.506   5.169   7.861 -4.4280 -0.4722  0.6627
  183MOL0     H24110   0.265   5.076   7.921 -5.5761 -0.3571  1.0179
  183MOL0     H24111   0.159   5.036   7.796 -0.0599  0.9941 -4.6423
  183MOL0     H24112   0.243   5.333   7.813 -1.6093  1.5678 -0.7792
  183MOL0     H24113   0.133   5.258   7.933  0.4176 -0.4987  0.2637
  183MOL0     H24114   0.097   5.217   7.651 -0.3853 -0.1386 -0.2729
  183MOL0     H24115  -0.011   5.170   7.781  2.2927 -2.4990 -0.2803
  183MOL0     H24116  -0.052   5.410   7.651 -0.2918  3.5542  1.6963
  183MOL0     H24117   0.075   5.459   7.756  1.7947 -0.4986 -5.5145
  183MOL0     H24118  -0.354   5.285   7.886 -0.3416  0.3187  1.6080
  183MOL0     H24119  -0.554   5.397   7.846 -0.3877  0.0597 -2.6516
  183MOL0     H24120  -0.907   5.636   7.933  0.9319 -1.0348 -0.6853
  183MOL0     H24121  -1.128   5.720   7.861  0.2525  0.6678 -0.2472
  183MOL0     H24122  -1.247   5.952   7.730  0.6329 -0.1370  0.5812
  183MOL0     H24123  -1.328   5.804   7.777 -0.7541 -0.5976 -1.0628
  183MOL0     H24124  -1.437   5.813   7.545 -0.0648 -0.6522 -0.3727
  183MOL0     H24125  -1.402   5.981   7.539  0.7155 -1.7220 -0.1254
  183MOL0     H24126  -1.515   6.017   7.761  0.4299  1.4501 -2.3196
  183MOL0     H24127  -1.559   5.843   7.761 -0.5051  0.4407 -0.0385
  183MOL0     H24128  -1.659   6.062   7.582 -1.7359 -0.7616 -5.0988
  183MOL0     H24129  -1.667   5.894   7.527  3.0843 -0.8798  1.5006
  183MOL0     H24130  -1.771   6.018   7.789 -0.4508  0.0982  1.1262
  183MOL0     H24131  -1.812   5.857   7.736 -0.7522 -0.1518  0.4281
  183MOL0     H24132  -1.911   5.962   7.525 -2.7347  3.2598 -1.9024
  183MOL0     H24133  -1.879   6.116   7.594  0.4084 -1.9980 -2.9486
  183MOL0     H24134  -1.992   6.007   7.815  1.1361 -0.7290 -0.6678
  183MOL0     H24135  -2.068   6.115   7.694 -1.8332 -0.7162 -0.8998
  183MOL0     H24136  -2.081   5.801   7.694  1.8966  0.9004 -1.7229
  183MOL0     H24137  -2.139   5.903   7.559  1.7726  2.4105  0.2979
  183MOL0     H24138  -1.013   5.745   7.459 -3.3821  0.2050  0.7470
  183MOL0     H24139  -0.787   5.645   7.510  1.6039 -0.5249  1.9783
  183MOL0     H24140  -0.347   5.755   7.711  0.5664 -0.5934 -1.7946
  183MOL0     H24141  -0.150   5.652   7.732 -3.1040  2.9962  0.6585
  183MOL0     H24142   1.407   4.796   7.218 -2.2795  0.8092  0.9785
  183MOL0     H24143   1.622   4.864   7.138 -0.0892 -3.6010  0.1948
  183MOL0     H24144   1.847   4.566   6.692 -2.0981 -0.8833  4.7339
  183MOL0     H24145   2.083   4.556   6.613  1.7556 -0.4529  2.3088
  183MOL0     H24146   2.310   4.567   6.619 -0.6916  0.4264  1.6952
  183MOL0     H24147   2.456   4.674   6.613  0.3820 -2.6455 -0.4850
  183MOL0     H24148   2.422   4.620   6.407  1.6678  1.1065  0.9904
  183MOL0     H24149   2.245   4.647   6.408 -1.6096 -2.8053  2.9122
  183MOL0     H24150   2.259   4.876   6.429  0.2304  0.6100 -0.1697
  183MOL0     H24151   2.367   4.829   6.295  3.9385  2.6365  1.0998
  183MOL0     H24152   2.463   5.009   6.421 -1.0923  0.4444  2.0439
  183MOL0     H24153   2.473   4.910   6.564 -3.1970 -0.5450  0.7924
  183MOL0     H24154   2.796   4.743   6.345  1.9717  4.0174  0.7079
  183MOL0     H24155   2.128   4.953   6.787 -2.1930  2.4841 -2.0190
  183MOL0     H24156   1.904   4.962   6.825  1.4939  0.3521  1.5757
  184MOL0     O24157   3.965   0.643   0.060  0.0960  0.0028 -0.0276
  184MOL0     C24158   4.071   0.704   0.072  0.1397  1.0127  0.4979
  184MOL0     O24159   4.087   0.808   0.158 -0.2666  0.6206 -0.2190
  184MOL0     C24160   3.970   0.861   0.199  0.0727 -0.3112  0.0419
  184MOL0     C24161   3.874   0.906   0.105 -0.1388  1.1903 -0.6428
  184MOL0     C24162   3.748   0.953   0.162 -0.9677 -0.3006 -0.4404
  184MOL0     C24163   3.723   0.952   0.305 -0.3021 -0.7400 -0.3860
  184MOL0     O24164   3.605   0.999   0.356 -0.2945 -0.0552  0.5852
  184MOL0     C24165   3.526   1.102   0.295  0.5544 -0.4831 -0.1456
  184MOL0     C24166   3.412   1.030   0.226 -0.3667  0.5629 -0.0065
  184MOL0     C24167   3.291   1.000   0.322  0.4267  0.6273 -0.7948
  184MOL0     C24168   3.194   0.906   0.260  0.6239 -0.1294 -0.0699
  184MOL0     C24169   3.087   0.848   0.359  0.1200 -0.0771  0.5230
  184MOL0     C24170   3.024   0.965   0.434  0.7946  0.0432  0.0198
  184MOL0     C24171   2.897   0.918   0.509 -0.7946  0.7768  0.1430
  184MOL0     C24172   2.827   1.032   0.592 -0.1688 -0.3375 -0.2538
  184MOL0     N24173   2.773   1.143   0.508  0.0453 -0.9416  0.1650
  184MOL0     C24174   2.844   1.262   0.475  0.2195  0.3619 -0.2767
  184MOL0     C24175   2.753   1.340   0.420  0.5325  0.2698 -0.3631
  184MOL0     C24176   2.767   1.493   0.400 -0.2826  0.2411 -0.3980
  184MOL0     C24177   2.872   1.550   0.298 -0.6390  0.4339 -1.1614
  184MOL0     C24178   3.009   1.559   0.374  0.8896  0.3141 -0.3262
  184MOL0     C24179   3.113   1.627   0.293 -0.6424 -0.4465  0.6805
  184MOL0     O24180   3.241   1.626   0.359 -0.5715  0.9173 -0.5907
  184MOL0     C24181   3.352   1.685   0.296 -0.6046 -0.1916  0.4494
  184MOL0     C24182   3.341   1.782   0.195  0.3061  0.2016  0.6475
  184MOL0     C24183   3.446   1.822   0.121 -1.3340 -0.3843  0.0840
  184MOL0     C24184   3.581   1.783   0.154 -0.1486  0.0297 -0.1368
  184MOL0     C24185   3.712   1.820   0.089 -0.0210 -0.4386 -0.1589
  184MOL0     O24186   3.829   1.776   0.144  0.1726  0.4064 -0.1745
  184MOL0     C24187   3.943   1.829   0.108  0.2355  1.0086  0.3199
  184MOL0     C24188   4.053   1.742   0.123  0.1085  0.4454  0.5881
  184MOL0     C24189   4.185   1.787   0.094 -0.1601  1.1515  0.1515
  184MOL0     C24190   4.205   1.915   0.056 -0.4057 -0.4014 -0.7850
  184MOL0     O24191   4.332   1.938   0.018 -0.3525 -0.1427 -0.6155
  184MOL0     C24192   4.372   2.069  -0.007 -0.8383 -0.0729  0.5651
  184MOL0     C24193   4.522   2.070  -0.040  0.1722 -0.7298  0.3881
  184MOL0     C24194   4.594   2.103   0.090 -0.2489 -0.2969  0.9398
  184MOL0     C24195   4.743   2.080   0.082  0.6950 -0.3401  0.4615
  184MOL0     C24196   4.811   2.103   0.215 -0.4661 -0.2243 -0.3535
  184MOL0     C24197   4.963   2.091   0.211  0.6234 -0.3674 -0.0767
  184MOL0     C24198   5.029   1.965   0.145  0.3228  1.1753  1.6452
  184MOL0     C24199   5.187   1.961   0.155 -0.0420 -0.4633 -0.4584
  184MOL0    Cl24200   5.259   2.110   0.085 -0.0636 -0.0416 -0.5695
  184MOL0     C24201   4.094   2.007   0.043 -0.0663 -0.0730  0.3070
  184MOL0     C24202   3.966   1.962   0.077  0.1897  0.3660 -0.6259
  184MOL0     O24203   3.707   1.897  -0.014  0.1115  0.1611 -0.3391
  184MOL0     C24204   3.595   1.684   0.262 -0.7016 -0.2144  0.9496
  184MOL0     C24205   3.480   1.632   0.326  0.0524  0.1183 -0.1467
  184MOL0     N24206   2.630   1.277   0.418  0.4284 -0.1807  0.3696
  184MOL0     N24207   2.650   1.161   0.465 -0.0374  0.4304 -0.4823
  184MOL0     C24208   3.815   0.899   0.387 -0.4336  0.0209 -0.2282
  184MOL0     C24209   3.942   0.859   0.334 -0.5306  0.0186  0.3800
  184MOL0     C24210   4.195   0.647   0.003  0.0829  1.3378 -0.2611
  184MOL0     C24211   4.314   0.721   0.004  0.2372 -0.2863  0.0532
  184MOL0     C24212   4.430   0.655  -0.040  0.5008 -0.6168 -0.0265
  184MOL0     C24213   4.437   0.519  -0.070  0.9486 -0.7322  0.9769
  184MOL0     O24214   4.556   0.464  -0.110 -0.1344  0.0022 -0.5922
  184MOL0     C24215   4.622   0.522  -0.226  0.2596 -0.5411  0.3111
  184MOL0     C24216   4.749   0.465  -0.262  0.0529 -0.4209 -0.6000
  184MOL0     C24217   4.747   0.311  -0.267  0.0787  0.3867 -0.2424
  184MOL0     C24218   4.890   0.259  -0.290 -0.1732  0.2931 -0.0053
  184MOL0     C24219   4.969   0.325  -0.389 -0.3800 -1.1092 -0.3596
  184MOL0     C24220   5.039   0.379  -0.478  0.1478 -0.6611  0.2795
  184MOL0     C24221   4.318   0.446  -0.066 -0.4223  0.7625  0.4181
  184MOL0     C24222   4.199   0.510  -0.023 -0.5122 -0.1179  0.0074
  184MOL0     H24223   3.885   0.909  -0.003 -0.1997  5.3744 -0.7003
  184MOL0     H24224   3.676   0.994   0.092 -2.3727 -3.3447 -0.9231
  184MOL0     H24225   3.577   1.168   0.224  1.0518  0.3027  0.9190
  184MOL0     H24226   3.483   1.168   0.371 -0.8256 -1.1259 -0.3411
  184MOL0     H24227   3.437   0.930   0.191 -3.3691 -0.6128  0.9246
  184MOL0     H24228   3.382   1.084   0.136 -0.7624 -0.1056 -0.2787
  184MOL0     H24229   3.240   1.093   0.352  3.2754  2.0125  0.1203
  184MOL0     H24230   3.329   0.959   0.416 -0.9717  0.1989 -0.3878
  184MOL0     H24231   3.136   0.960   0.184 -0.4384  1.5376  1.8187
  184MOL0     H24232   3.241   0.824   0.205 -1.9429 -1.3468 -0.6102
  184MOL0     H24233   3.148   0.786   0.426  0.5221  0.8230  1.0113
  184MOL0     H24234   3.014   0.781   0.314  1.0291 -1.1281  0.5583
  184MOL0     H24235   2.995   1.037   0.357  1.3782 -2.0159 -2.2538
  184MOL0     H24236   3.091   1.009   0.508 -0.0858 -2.7040  2.6380
  184MOL0     H24237   2.820   0.881   0.441  0.7775 -2.7894  0.0902
  184MOL0     H24238   2.916   0.836   0.579  3.6356  1.3132 -0.1538
  184MOL0     H24239   2.890   1.066   0.674 -1.3634 -0.3579  0.7121
  184MOL0     H24240   2.733   0.990   0.631 -0.4162 -0.9405 -1.4507
  184MOL0     H24241   2.940   1.298   0.511  0.4369 -0.1384 -0.3459
  184MOL0     H24242   2.776   1.535   0.501 -1.0540 -1.4231  0.3928
  184MOL0     H24243   2.667   1.528   0.371 -0.5897 -0.5718 -0.3303
  184MOL0     H24244   2.826   1.642   0.259 -0.9568 -0.9444 -4.3725
  184MOL0     H24245   2.884   1.473   0.221  3.2904  1.6187 -2.0124
  184MOL0     H24246   2.986   1.608   0.469 -1.0881 -1.3299  0.1286
  184MOL0     H24247   3.040   1.457   0.399  1.5918  0.5054 -0.4074
  184MOL0     H24248   3.058   1.720   0.276 -3.2040 -2.1620 -1.1134
  184MOL0     H24249   3.126   1.583   0.194  2.6821  0.6425  0.5035
  184MOL0     H24250   3.244   1.827   0.173  0.5317 -0.2075 -1.3587
  184MOL0     H24251   3.431   1.898   0.045  0.5311 -0.9462 -0.9158
  184MOL0     H24252   4.050   1.639   0.156 -0.9664 -0.6375 -2.4903
  184MOL0     H24253   4.267   1.717   0.098 -0.2187  1.1158  0.9022
  184MOL0     H24254   4.347   2.138   0.074  0.2850  0.1161  0.7660
  184MOL0     H24255   4.316   2.095  -0.097 -0.0964  0.3733  0.2239
  184MOL0     H24256   4.550   2.148  -0.111 -1.1269 -0.1913  0.4527
  184MOL0     H24257   4.551   1.975  -0.085 -0.2863 -0.4339 -0.5354
  184MOL0     H24258   4.554   2.034   0.165  1.8455 -1.2433  1.2780
  184MOL0     H24259   4.576   2.205   0.125  0.8399  0.4390 -0.5291
  184MOL0     H24260   4.768   1.979   0.050  2.1102 -0.3514  1.4799
  184MOL0     H24261   4.779   2.145   0.002 -2.0395  0.0419 -0.5725
  184MOL0     H24262   4.789   2.025   0.288 -0.7387  0.6871  0.5622
  184MOL0     H24263   4.782   2.198   0.261  2.8715  0.9109 -0.2994
  184MOL0     H24264   5.006   2.115   0.309  3.4421 -1.1033 -1.0288
  184MOL0     H24265   5.001   2.175   0.152 -0.7590  0.1561 -0.2662
  184MOL0     H24266   4.988   1.874   0.189  3.5697 -0.8675  0.7770
  184MOL0     H24267   5.010   1.964   0.038 -1.8386 -0.9248  1.9671
  184MOL0     H24268   5.243   1.880   0.107  1.6491  0.8061 -0.7035
  184MOL0     H24269   5.197   1.959   0.264  0.0366 -4.0830 -0.4300
  184MOL0     H24270   4.108   2.108   0.008 -0.9548  0.6270  1.8501
  184MOL0     H24271   3.892   2.041   0.082 -0.8332 -0.6359  2.9115
  184MOL0     H24272   3.698   1.672   0.295 -0.0928  2.7760  0.4559
  184MOL0     H24273   3.486   1.552   0.399  0.1337 -2.1184 -2.4730
  184MOL0     H24274   3.795   0.900   0.494  0.5075  1.1224 -0.0305
  184MOL0     H24275   4.022   0.819   0.396  0.6298 -1.7456 -2.0949
  184MOL0     H24276   4.316   0.828   0.021  2.6382  0.1676 -2.3158
  184MOL0     H24277   4.523   0.711  -0.040  0.0130  0.2149  0.3086
  184MOL0     H24278   4.638   0.630  -0.223  0.6037 -0.6073  0.9046
  184MOL0     H24279   4.558   0.492  -0.309  2.2390 -2.0193 -0.7643
  184MOL0     H24280   4.785   0.508  -0.357  1.4081 -2.2606 -0.9820
  184MOL0     H24281   4.821   0.500  -0.188  1.3178  1.8050 -2.7349
  184MOL0     H24282   4.694   0.285  -0.359  1.8384 -0.0765 -1.1689
  184MOL0     H24283   4.702   0.260  -0.181 -0.9169  1.7551  0.0785
  184MOL0     H24284   4.952   0.278  -0.202  0.7101  1.2911 -0.8103
  184MOL0     H24285   4.890   0.150  -0.296 -0.0562 -0.2604  5.2989
  184MOL0     H24286   5.103   0.425  -0.550  0.0171 -0.8439  0.0437
  184MOL0     H24287   4.317   0.339  -0.084  1.2784 -0.0763  4.2410
  184MOL0     H24288   4.102   0.460  -0.019 -2.2480  3.0211  0.4017
  185MOL0     O24289   8.510   1.485   9.323 -0.4823 -0.3481  0.1483
  185MOL0     C24290   8.531   1.472   9.439  0.7592 -0.3680 -0.8059
  185MOL0     O24291   8.430   1.458   9.532  0.7778  0.7349  0.3426
  185MOL0     C24292   8.297   1.441   9.510  0.4068  0.5255  0.0092
  185MOL0     C24293   8.225   1.502   9.403 -0.1520 -0.3081  0.4076
  185MOL0     C24294   8.082   1.491   9.403 -0.4663  0.2541  0.0354
  185MOL0     C24295   8.018   1.401   9.487  0.2153  0.4413  0.0947
  185MOL0     O24296   7.884   1.365   9.486 -0.6381 -0.4810  0.5442
  185MOL0     C24297   7.800   1.414   9.380 -0.4777 -0.3783  0.9740
  185MOL0     C24298   7.653   1.358   9.394 -0.2529 -0.4966 -0.6537
  185MOL0     C24299   7.562   1.420   9.289  0.4153 -0.2551  0.2062
  185MOL0     C24300   7.434   1.340   9.268  0.2105 -1.0053 -0.5493
  185MOL0     C24301   7.315   1.402   9.191  0.8614 -0.5689  0.3306
  185MOL0     C24302   7.193   1.302   9.198  0.5576 -0.7164  0.3496
  185MOL0     C24303   7.057   1.378   9.173  0.5178  0.6191  0.0796
  185MOL0     C24304   6.948   1.274   9.201 -0.5853 -0.0269  0.0580
  185MOL0     N24305   6.816   1.333   9.221 -0.7999  0.4515  1.0200
  185MOL0     C24306   6.741   1.384   9.119  0.4440 -0.4617 -0.0318
  185MOL0     C24307   6.626   1.438   9.184 -0.5312 -0.0637 -0.2298
  185MOL0     C24308   6.503   1.504   9.116 -0.5876  0.5170 -0.6704
  185MOL0     C24309   6.432   1.612   9.192 -0.0052 -0.6286  0.0634
  185MOL0     C24310   6.330   1.572   9.299  0.1616  1.0987 -0.2218
  185MOL0     C24311   6.217   1.504   9.240 -0.2665  0.1993 -0.7740
  185MOL0     O24312   6.126   1.492   9.348  0.4308 -0.3366  0.6576
  185MOL0     C24313   6.008   1.432   9.332  0.7217  0.0148 -0.3440
  185MOL0     C24314   5.937   1.370   9.446  0.6805 -0.6156 -0.2816
  185MOL0     C24315   5.807   1.315   9.432 -0.3373  0.6126 -0.3409
  185MOL0     C24316   5.741   1.309   9.307  0.9167  0.1021  0.0596
  185MOL0     C24317   5.606   1.256   9.283 -0.5078  0.5803 -0.5973
  185MOL0     O24318   5.557   1.184   9.387 -0.3533 -0.6325 -0.6266
  185MOL0     C24319   5.422   1.160   9.407  0.3201 -0.0374 -0.7235
  185MOL0     C24320   5.325   1.254   9.369 -0.3127  0.0583 -0.2172
  185MOL0     C24321   5.192   1.237   9.414 -0.3622 -0.0122  0.8133
  185MOL0     C24322   5.157   1.126   9.487  0.1141 -0.2500  0.8278
  185MOL0     O24323   5.028   1.096   9.518  0.1205 -0.8110  0.4893
  185MOL0     C24324   4.928   1.107   9.412  0.2638  0.1405  0.1022
  185MOL0     C24325   4.793   1.063   9.463  0.9185 -0.6658 -0.4391
  185MOL0     C24326   4.795   0.921   9.510  0.4152 -0.6977 -0.2540
  185MOL0     C24327   4.667   0.867   9.559  0.6771  0.0419 -0.9269
  185MOL0     C24328   4.642   0.915   9.697 -1.3160 -0.3616  0.6527
  185MOL0     C24329   4.527   0.835   9.763 -0.0280  0.4494  0.2718
  185MOL0     C24330   4.534   0.844   9.913  0.0092 -0.2964  0.1051
  185MOL0     C24331   4.402   0.782   9.958  0.0574 -0.8649  0.1203
  185MOL0    Cl24332   4.254   0.870   9.912 -0.1401 -0.0570 -0.3011
  185MOL0     C24333   5.253   1.038   9.526 -0.7147  0.2463 -0.8587
  185MOL0     C24334   5.384   1.050   9.480  0.7557 -0.0665 -0.8962
  185MOL0     O24335   5.552   1.274   9.173 -0.3900 -0.1206 -0.9467
  185MOL0     C24336   5.818   1.350   9.194 -0.2976 -0.0807  0.2155
  185MOL0     C24337   5.938   1.413   9.207 -0.3030  0.8321 -0.0540
  185MOL0     N24338   6.635   1.407   9.316 -0.9852  0.2978 -0.4054
  185MOL0     N24339   6.741   1.335   9.334 -0.1659  0.3906  0.7368
  185MOL0     C24340   8.087   1.328   9.580 -0.7613  0.0348 -0.3642
  185MOL0     C24341   8.224   1.366   9.594 -0.2635  0.2181 -0.9213
  185MOL0     C24342   8.669   1.483   9.497 -0.5767  0.5953  0.0841
  185MOL0     C24343   8.705   1.406   9.613  0.1033 -0.4286  0.0422
  185MOL0     C24344   8.832   1.412   9.659  0.8300 -0.2008  0.9825
  185MOL0     C24345   8.934   1.480   9.599 -0.8699  0.0828 -0.1384
  185MOL0     O24346   9.064   1.485   9.643  0.2550  0.6976 -0.4491
  185MOL0     C24347   9.124   1.376   9.717  0.6787  1.0973  0.6045
  185MOL0     C24348   9.117   1.233   9.660  0.4327 -0.0662 -0.3626
  185MOL0     C24349   9.192   1.135   9.741  0.0706  0.3006  0.5928
  185MOL0     C24350   9.099   1.007   9.770  0.3349 -0.7658  0.1074
  185MOL0     C24351   9.171   0.933   9.875 -0.1033  0.0988  1.1560
  185MOL0     C24352   9.228   0.872   9.964  1.5587  0.1574 -0.2609
  185MOL0     C24353   8.899   1.563   9.491 -0.4805  0.0662 -0.0693
  185MOL0     C24354   8.764   1.571   9.445  0.3561  0.5586  0.4115
  185MOL0     H24355   8.268   1.571   9.332  0.2777  1.9012  2.6907
  185MOL0     H24356   8.033   1.540   9.319  0.5180  1.5130  0.1741
  185MOL0     H24357   7.838   1.393   9.280 -1.2836  0.5106  0.4715
  185MOL0     H24358   7.807   1.523   9.376  1.1063 -0.4954 -0.3172
  185MOL0     H24359   7.604   1.371   9.491  2.2309 -2.6411  1.0339
  185MOL0     H24360   7.665   1.251   9.376  4.1188  0.0402 -1.9276
  185MOL0     H24361   7.613   1.438   9.194 -1.3100 -0.7702 -0.8814
  185MOL0     H24362   7.533   1.516   9.333 -1.9680 -2.0380  2.8340
  185MOL0     H24363   7.472   1.251   9.216  0.2789 -0.7385 -0.9627
  185MOL0     H24364   7.393   1.314   9.366  1.0506 -1.9027 -0.4203
  185MOL0     H24365   7.336   1.417   9.085 -2.6778 -2.3038 -0.7736
  185MOL0     H24366   7.284   1.497   9.237 -0.9643 -1.6314  1.4015
  185MOL0     H24367   7.188   1.266   9.301 -1.0688  0.5827  0.7627
  185MOL0     H24368   7.205   1.211   9.137  1.1730  0.3865 -1.2649
  185MOL0     H24369   7.054   1.463   9.242 -0.7299 -0.8337  1.9284
  185MOL0     H24370   7.057   1.415   9.070  1.2269 -0.0829 -0.1868
  185MOL0     H24371   6.969   1.211   9.288 -0.4502  0.9139  0.7158
  185MOL0     H24372   6.944   1.208   9.114  4.8363  0.0572 -0.5854
  185MOL0     H24373   6.762   1.377   9.013 -0.3326  0.7598 -0.2819
  185MOL0     H24374   6.440   1.417   9.097 -0.0901  0.1248 -0.5503
  185MOL0     H24375   6.538   1.545   9.021  1.1399  3.0706  0.9234
  185MOL0     H24376   6.387   1.675   9.115  0.7717  1.2247  1.0684
  185MOL0     H24377   6.505   1.671   9.249 -0.5800 -1.2460  1.4753
  185MOL0     H24378   6.376   1.501   9.369 -1.8713 -1.4447 -1.2759
  185MOL0     H24379   6.298   1.663   9.350  1.0255  0.7406  1.0275
  185MOL0     H24380   6.240   1.402   9.207  2.4508  0.0558  1.2526
  185MOL0     H24381   6.182   1.555   9.149  0.2053 -1.8398 -2.1558
  185MOL0     H24382   5.979   1.387   9.545 -0.0316 -1.7891  0.2465
  185MOL0     H24383   5.753   1.280   9.520  1.5028  2.0253  1.4601
  185MOL0     H24384   5.342   1.351   9.324  1.6107 -1.0494 -2.0678
  185MOL0     H24385   5.115   1.305   9.378 -0.3291  1.4518  3.2687
  185MOL0     H24386   4.952   1.048   9.322 -2.4526 -1.4034  0.2815
  185MOL0     H24387   4.916   1.212   9.382 -0.6496  0.1595  0.5095
  185MOL0     H24388   4.725   1.082   9.380  0.3104 -3.7561 -0.7797
  185MOL0     H24389   4.768   1.117   9.555 -1.9310 -3.3163  0.5020
  185MOL0     H24390   4.855   0.917   9.601 -1.2867  0.6275  0.9748
  185MOL0     H24391   4.836   0.857   9.431 -1.4004 -2.1080 -0.0969
  185MOL0     H24392   4.594   0.904   9.487  1.1081 -0.3460 -1.5735
  185MOL0     H24393   4.660   0.758   9.545  0.9825  0.1501 -2.0563
  185MOL0     H24394   4.614   1.020   9.684 -1.4637 -0.5603 -0.8823
  185MOL0     H24395   4.726   0.918   9.766 -1.8258  3.4275  1.3280
  185MOL0     H24396   4.534   0.730   9.733  2.8637 -0.1032  2.3920
  185MOL0     H24397   4.430   0.870   9.728 -0.5644 -0.9046  0.3603
  185MOL0     H24398   4.610   0.778   9.953  0.1987 -1.1200 -1.5312
  185MOL0     H24399   4.552   0.947   9.944 -1.9593  1.0754 -2.7580
  185MOL0     H24400   4.410   0.772  10.067  0.9974 -2.1425 -0.0342
  185MOL0     H24401   4.396   0.678   9.923  1.7955 -0.8554 -0.2755
  185MOL0     H24402   5.235   0.943   9.576 -0.3766  1.7153  2.2433
  185MOL0     H24403   5.458   0.979   9.514 -1.7708 -3.0910 -1.2707
  185MOL0     H24404   5.788   1.339   9.090  1.6686  1.5154 -0.5705
  185MOL0     H24405   5.987   1.442   9.114  3.6357  0.7145  1.7738
  185MOL0     H24406   8.046   1.262   9.656  3.6574  1.4254  3.6851
  185MOL0     H24407   8.278   1.314   9.672 -2.1354  0.7280  0.8214
  185MOL0     H24408   8.630   1.348   9.665 -0.9290  0.5544 -0.3118
  185MOL0     H24409   8.842   1.354   9.751  0.4488  0.8733  1.7184
  185MOL0     H24410   9.096   1.385   9.822 -0.7855  0.3044  0.3061
  185MOL0     H24411   9.231   1.400   9.712  1.0742 -0.7645 -1.4904
  185MOL0     H24412   9.013   1.206   9.643  0.3302  1.3967 -2.4595
  185MOL0     H24413   9.155   1.218   9.558  1.4234 -1.0617  0.1266
  185MOL0     H24414   9.242   1.172   9.830  3.3357 -1.3343 -0.4089
  185MOL0     H24415   9.279   1.104   9.682  1.9486  2.8847  1.7996
  185MOL0     H24416   8.995   1.024   9.798  0.2998  0.5985 -0.7193
  185MOL0     H24417   9.088   0.944   9.681 -0.2435 -2.1167  1.1140
  185MOL0     H24418   9.275   0.810  10.037 -0.4398 -3.0020 -1.4512
  185MOL0     H24419   8.979   1.629   9.459  0.7840 -2.5280 -2.6472
  185MOL0     H24420   8.743   1.640   9.364  2.9881  1.7463  0.6286
  186MOL0     O24421   2.836   4.474  11.159 -0.8927 -0.8213  0.7795
  186MOL0     C24422   2.824   4.391  11.244 -0.4442 -0.5688 -0.6050
  186MOL0     O24423   2.934   4.335  11.309 -0.3977  0.3729 -0.1007
  186MOL0     C24424   3.059   4.392  11.309 -0.8617  0.4450 -0.0495
  186MOL0     C24425   3.090   4.530  11.268  0.8960  0.7490 -0.2547
  186MOL0     C24426   3.217   4.573  11.281  0.0471  0.3921  0.0901
  186MOL0     C24427   3.320   4.496  11.339  1.0422 -1.2147  0.4761
  186MOL0     O24428   3.436   4.562  11.339 -0.1968 -0.3900  0.2576
  186MOL0     C24429   3.557   4.483  11.332  0.0140 -0.7574  0.5411
  186MOL0     C24430   3.691   4.560  11.294 -0.6154  1.0367 -0.3985
  186MOL0     C24431   3.721   4.659  11.395  0.4632  0.7561 -0.1235
  186MOL0     C24432   3.851   4.739  11.390  0.1118  0.3107  0.0665
  186MOL0     C24433   3.950   4.692  11.492 -0.0940  0.0091 -0.0477
  186MOL0     C24434   4.091   4.747  11.479  0.6260 -0.3423  0.8112
  186MOL0     C24435   4.183   4.699  11.590 -0.1059 -0.2048 -0.1428
  186MOL0     C24436   4.330   4.733  11.568 -0.4889  1.1596 -0.0862
  186MOL0     N24437   4.351   4.875  11.591 -1.3488 -0.5675 -0.4486
  186MOL0     C24438   4.471   4.938  11.589 -0.0920  1.4566  0.1865
  186MOL0     C24439   4.458   5.059  11.638 -0.2660  0.2749 -0.1329
  186MOL0     C24440   4.575   5.167  11.646  0.2912 -0.0061 -0.1579
  186MOL0     C24441   4.646   5.188  11.510 -0.3072 -0.1681 -0.1206
  186MOL0     C24442   4.554   5.245  11.404  0.1979  0.5599  0.5264
  186MOL0     C24443   4.606   5.251  11.264  0.2752 -0.5987 -0.9429
  186MOL0     O24444   4.667   5.123  11.242  0.5070 -0.3088 -0.0746
  186MOL0     C24445   4.593   5.009  11.227 -0.8161 -0.4728 -0.0374
  186MOL0     C24446   4.461   5.004  11.175  0.0536  0.5894 -0.2663
  186MOL0     C24447   4.389   4.887  11.165 -0.2300  0.4540  0.0484
  186MOL0     C24448   4.433   4.762  11.205 -0.5738  0.5210  0.4245
  186MOL0     C24449   4.366   4.632  11.196  1.0171 -0.0530 -0.3014
  186MOL0     O24450   4.247   4.634  11.127 -0.2333  0.0339 -0.1657
  186MOL0     C24451   4.163   4.523  11.122  0.3496  0.2107  0.4348
  186MOL0     C24452   4.187   4.383  11.127  0.3645 -0.3791 -0.5267
  186MOL0     C24453   4.084   4.292  11.109  0.5142  0.3836  0.5066
  186MOL0     C24454   3.959   4.337  11.068  0.2034  0.6782 -0.9468
  186MOL0     O24455   3.852   4.252  11.053 -0.9357  0.5381  0.3084
  186MOL0     C24456   3.876   4.133  10.978 -0.6511 -0.3269  0.3166
  186MOL0     C24457   3.759   4.046  10.949  0.0146  0.2016  0.2397
  186MOL0     C24458   3.635   4.133  10.948  0.6975  0.7488  0.2773
  186MOL0     C24459   3.523   4.056  10.870  0.2327  0.2914 -0.3861
  186MOL0     C24460   3.386   4.118  10.893  0.1068 -0.2475  1.2427
  186MOL0     C24461   3.361   4.246  10.812  0.9607  0.7792  0.7527
  186MOL0     C24462   3.213   4.288  10.821  0.1128  0.2036 -0.7287
  186MOL0     C24463   3.130   4.288  10.689  0.1677  0.5623  0.6631
  186MOL0    Cl24464   3.107   4.111  10.654  0.0203  0.5954 -0.5720
  186MOL0     C24465   3.927   4.471  11.067 -0.4509 -0.0275 -0.7936
  186MOL0     C24466   4.028   4.561  11.089  0.7259 -0.1170 -0.6007
  186MOL0     O24467   4.419   4.533  11.248 -0.1301 -0.2421  0.7975
  186MOL0     C24468   4.571   4.768  11.257  0.5776  0.4283 -0.3714
  186MOL0     C24469   4.649   4.888  11.275  1.2027 -0.1785 -0.2798
  186MOL0     N24470   4.329   5.085  11.665 -0.0143 -0.4270  0.3106
  186MOL0     N24471   4.267   4.975  11.653  0.2353 -0.4059  0.4712
  186MOL0     C24472   3.290   4.367  11.383  0.2198  1.0012 -0.7785
  186MOL0     C24473   3.154   4.317  11.372  0.0121  0.1222  0.0528
  186MOL0     C24474   2.694   4.323  11.279 -0.2424 -1.2301  1.1930
  186MOL0     C24475   2.682   4.205  11.346 -0.1892  0.4902 -0.0227
  186MOL0     C24476   2.556   4.161  11.374 -0.1011  0.1487 -0.2470
  186MOL0     C24477   2.436   4.228  11.336 -0.0136 -0.7345 -0.6108
  186MOL0     O24478   2.312   4.183  11.391 -0.1140  0.4130 -0.1006
  186MOL0     C24479   2.197   4.174  11.301  0.2310  0.0163  0.6873
  186MOL0     C24480   2.218   4.114  11.161  0.1051 -0.1661  1.2068
  186MOL0     C24481   2.247   3.969  11.177  0.2265  0.4281 -0.5548
  186MOL0     C24482   2.252   3.902  11.043  0.0761 -0.4579  0.2615
  186MOL0     C24483   2.120   3.893  10.967 -0.4704  0.4455 -0.7439
  186MOL0     C24484   2.015   3.900  10.904 -0.5540  0.1390  1.0062
  186MOL0     C24485   2.452   4.343  11.258  0.2383 -0.0397  0.4067
  186MOL0     C24486   2.582   4.396  11.232 -0.9259 -0.5726 -0.5014
  186MOL0     H24487   3.023   4.603  11.223 -0.6308 -0.7094 -0.4228
  186MOL0     H24488   3.240   4.670  11.238 -0.0869  0.4559  0.1616
  186MOL0     H24489   3.541   4.417  11.247 -0.5309  0.8630 -0.6524
  186MOL0     H24490   3.579   4.434  11.428  0.9271 -1.4242  0.0036
  186MOL0     H24491   3.680   4.612  11.198  2.5843 -0.2957 -1.6064
  186MOL0     H24492   3.768   4.485  11.275 -4.0476 -2.8484 -0.4742
  186MOL0     H24493   3.708   4.622  11.497 -0.5059  2.7354  0.5225
  186MOL0     H24494   3.635   4.727  11.386 -0.6485 -0.0703  2.9059
  186MOL0     H24495   3.898   4.720  11.293 -2.0559  0.5437 -1.0950
  186MOL0     H24496   3.837   4.847  11.393  0.0384  0.3557 -1.1757
  186MOL0     H24497   3.955   4.583  11.492  1.9808  0.0402  0.6092
  186MOL0     H24498   3.916   4.731  11.589  1.4807 -0.2373  0.6367
  186MOL0     H24499   4.083   4.855  11.466  2.1013 -0.4009 -1.0317
  186MOL0     H24500   4.126   4.709  11.382  0.4344 -0.3642  0.7492
  186MOL0     H24501   4.156   4.731  11.691 -1.4433 -0.5107 -0.3887
  186MOL0     H24502   4.176   4.591  11.576 -1.5015 -0.2510  0.7540
  186MOL0     H24503   4.372   4.690  11.477 -3.5262 -1.7524 -0.3042
  186MOL0     H24504   4.384   4.685  11.650 -0.8522  2.5196  0.9749
  186MOL0     H24505   4.562   4.907  11.540  1.3556  2.2214  2.2426
  186MOL0     H24506   4.651   5.133  11.718 -1.2479 -3.7688 -0.1029
  186MOL0     H24507   4.544   5.269  11.672 -2.9374 -0.4988 -1.6417
  186MOL0     H24508   4.697   5.097  11.477 -0.7079 -0.3616 -0.2077
  186MOL0     H24509   4.725   5.264  11.517  0.3347 -0.2406 -4.0100
  186MOL0     H24510   4.455   5.200  11.409 -0.7927  2.1748 -2.4255
  186MOL0     H24511   4.547   5.350  11.433 -0.1414  0.0467  2.4454
  186MOL0     H24512   4.684   5.325  11.250 -0.4106  0.9573  2.3477
  186MOL0     H24513   4.524   5.280  11.198 -0.5623  0.5456  0.5398
  186MOL0     H24514   4.430   5.099  11.134  1.8979 -0.3910 -4.4999
  186MOL0     H24515   4.286   4.887  11.131  0.0126 -1.3945 -0.8089
  186MOL0     H24516   4.289   4.350  11.146  1.2186  2.7936  1.1097
  186MOL0     H24517   4.115   4.188  11.104 -1.4339 -0.1796 -1.9197
  186MOL0     H24518   3.946   4.074  11.038 -1.0437  0.8821  2.0066
  186MOL0     H24519   3.925   4.164  10.884  0.6579  4.2362  2.2340
  186MOL0     H24520   3.757   3.981  11.037 -0.4953  0.3772  0.3637
  186MOL0     H24521   3.766   3.987  10.858 -1.4250  0.7239 -0.2422
  186MOL0     H24522   3.655   4.232  10.905 -1.0047  1.7967  1.7651
  186MOL0     H24523   3.597   4.140  11.050  1.3683 -2.2255  0.8314
  186MOL0     H24524   3.547   4.055  10.764 -0.6351 -0.5011 -0.5846
  186MOL0     H24525   3.519   3.953  10.906  0.5701  0.1162 -0.8499
  186MOL0     H24526   3.371   4.150  10.997  0.6418  2.8694  0.4584
  186MOL0     H24527   3.310   4.045  10.864  0.4336 -1.3047  2.9029
  186MOL0     H24528   3.385   4.224  10.708  0.6643 -0.7493  0.9929
  186MOL0     H24529   3.428   4.320  10.858  1.2916 -1.4973  4.2618
  186MOL0     H24530   3.162   4.234  10.901  0.5463 -1.3262 -1.4571
  186MOL0     H24531   3.220   4.396  10.841  1.7342  0.2743 -1.5181
  186MOL0     H24532   3.183   4.340  10.609 -2.2413  0.5942 -1.0365
  186MOL0     H24533   3.030   4.333  10.694 -0.2190  0.2398 -2.2821
  186MOL0     H24534   3.827   4.499  11.035 -2.4866 -5.1906  0.0842
  186MOL0     H24535   4.009   4.667  11.087  2.4104  0.2478  0.8436
  186MOL0     H24536   4.616   4.671  11.277  0.2890  0.0791 -1.3781
  186MOL0     H24537   4.749   4.878  11.315  0.4511 -0.7304  1.5751
  186MOL0     H24538   3.357   4.288  11.415 -0.7736  0.6104  0.4025
  186MOL0     H24539   3.131   4.214  11.395 -0.3421  0.1838 -0.0086
  186MOL0     H24540   2.766   4.147  11.383 -0.6753 -1.3430 -1.6286
  186MOL0     H24541   2.529   4.082  11.443 -3.2785  1.1430 -0.1794
  186MOL0     H24542   2.164   4.279  11.297  6.3634  2.4775  2.4334
  186MOL0     H24543   2.120   4.117  11.354 -0.7570 -0.3561 -1.0871
  186MOL0     H24544   2.128   4.119  11.099  1.5469  0.7193 -0.9580
  186MOL0     H24545   2.306   4.162  11.116  0.6784 -0.2050  2.2517
  186MOL0     H24546   2.166   3.928  11.237 -0.6998  1.6324 -0.9382
  186MOL0     H24547   2.337   3.970  11.239 -1.3149  2.5859  1.7860
  186MOL0     H24548   2.333   3.946  10.985  1.4326  1.7436  3.5663
  186MOL0     H24549   2.286   3.799  11.059  2.6567  0.1198 -1.1029
  186MOL0     H24550   1.922   3.911  10.851  0.3368  1.9680 -0.2797
  186MOL0     H24551   2.368   4.399  11.217 -1.1474 -0.9848  1.8142
  186MOL0     H24552   2.592   4.488  11.176 -2.7688  0.2710  0.4707
  187MOL0     O24553   5.116   3.467   8.657  0.4689 -0.7415 -0.3577
  187MOL0     C24554   5.060   3.530   8.745  0.1501 -0.6555 -0.4799
  187MOL0     O24555   5.006   3.657   8.735 -1.0704  0.6083 -0.0284
  187MOL0     C24556   5.016   3.728   8.618 -0.2140  0.1044 -1.0259
  187MOL0     C24557   5.085   3.851   8.610 -1.1216  0.0601 -0.1196
  187MOL0     C24558   5.087   3.931   8.496 -1.2048  0.0445  0.0078
  187MOL0     C24559   5.015   3.890   8.388  0.5541  0.5520 -0.4727
  187MOL0     O24560   5.038   3.977   8.289 -0.0084 -0.5760 -0.0865
  187MOL0     C24561   4.954   3.965   8.170 -0.0125  0.7166 -0.5910
  187MOL0     C24562   4.997   4.053   8.051 -1.1887  0.5813 -0.2019
  187MOL0     C24563   4.958   4.197   8.051 -0.0794  0.5989  0.2137
  187MOL0     C24564   4.996   4.258   7.927  0.6128 -0.7226  0.3023
  187MOL0     C24565   4.975   4.412   7.933  0.6039 -0.0112 -0.8456
  187MOL0     C24566   5.071   4.482   8.033 -0.1449  0.7672  0.1419
  187MOL0     C24567   5.074   4.632   8.003 -0.0047 -0.1575 -1.2989
  187MOL0     C24568   4.939   4.687   7.977 -0.4067  0.3282  0.3020
  187MOL0     N24569   4.943   4.829   7.967  0.4011  0.4012 -0.5707
  187MOL0     C24570   5.056   4.917   7.961 -0.1163  0.1662 -0.0615
  187MOL0     C24571   5.011   5.045   7.983 -0.3825 -0.0531  1.0345
  187MOL0     C24572   5.088   5.174   7.998  1.5433  0.0121 -0.2516
  187MOL0     C24573   5.090   5.263   7.872 -0.1866 -0.6777 -0.4950
  187MOL0     C24574   5.136   5.410   7.901 -0.2497 -0.6879 -0.0830
  187MOL0     C24575   5.278   5.412   7.967 -0.7420 -0.2565 -0.5014
  187MOL0     O24576   5.375   5.334   7.891  0.3968  0.4800 -0.3328
  187MOL0     C24577   5.511   5.362   7.915 -0.1859  0.1032  0.2225
  187MOL0     C24578   5.610   5.273   7.871 -0.1291  0.5164  0.2765
  187MOL0     C24579   5.745   5.306   7.873 -0.3335  0.5810 -0.4444
  187MOL0     C24580   5.778   5.426   7.935  0.3012 -0.6458  0.4333
  187MOL0     C24581   5.925   5.462   7.962  1.0185 -0.1200 -0.1138
  187MOL0     O24582   5.959   5.569   8.049  0.0408 -0.0920 -0.2472
  187MOL0     C24583   6.095   5.609   8.071 -0.5075 -0.2549 -0.2426
  187MOL0     C24584   6.131   5.634   8.199 -0.2042 -0.0201 -0.2944
  187MOL0     C24585   6.263   5.652   8.233 -0.3074 -0.1607  0.0878
  187MOL0     C24586   6.363   5.659   8.132 -0.1786 -1.1658  0.7831
  187MOL0     O24587   6.498   5.681   8.164  0.5310 -0.0135  0.4290
  187MOL0     C24588   6.528   5.801   8.239  0.1234  0.6244  0.7207
  187MOL0     C24589   6.562   5.913   8.144  0.5602  0.0985 -0.3864
  187MOL0     C24590   6.710   5.892   8.092  0.1839  0.5422 -0.0054
  187MOL0     C24591   6.788   6.026   8.121  0.2697 -0.2816  0.1812
  187MOL0     C24592   6.920   6.043   8.045 -0.9622  0.0453  0.0058
  187MOL0     C24593   7.029   5.957   8.112  0.4687 -0.4636  0.3617
  187MOL0     C24594   7.163   5.989   8.048 -0.8881  0.3211 -0.4368
  187MOL0     C24595   7.261   5.879   8.070  0.7371  0.1657 -0.9700
  187MOL0    Cl24596   7.408   5.937   7.972 -0.7208 -0.4190  0.1446
  187MOL0     C24597   6.323   5.646   7.998 -0.1605 -0.0936 -0.2427
  187MOL0     C24598   6.189   5.614   7.965  0.1054 -0.7466 -0.8995
  187MOL0     O24599   6.005   5.395   7.898 -0.1511  0.9926 -0.6226
  187MOL0     C24600   5.687   5.509   7.989  0.4616  0.0172  0.0712
  187MOL0     C24601   5.558   5.484   7.968  0.2085 -0.0219 -0.8414
  187MOL0     N24602   4.871   5.033   7.988  0.0825 -0.0182  0.5670
  187MOL0     N24603   4.832   4.908   7.986 -0.0823  0.0577 -0.0458
  187MOL0     C24604   4.947   3.767   8.382 -0.4244  0.1327 -1.0104
  187MOL0     C24605   4.943   3.694   8.500 -0.2962 -0.1685 -0.4944
  187MOL0     C24606   5.046   3.460   8.870  0.2960  0.3652  0.5675
  187MOL0     C24607   4.947   3.514   8.957  0.3611 -0.0207 -0.4925
  187MOL0     C24608   4.948   3.472   9.091 -0.2198  1.4046 -0.8027
  187MOL0     C24609   5.031   3.364   9.131 -0.8346  0.7570 -0.0108
  187MOL0     O24610   5.021   3.291   9.248  0.0172  0.3006 -0.3652
  187MOL0     C24611   4.914   3.316   9.334 -0.5288  0.0961 -0.6674
  187MOL0     C24612   4.917   3.209   9.429 -0.1078  0.4716 -0.2187
  187MOL0     C24613   4.837   3.262   9.545  0.8362 -0.1126 -0.9810
  187MOL0     C24614   4.829   3.156   9.646  0.1495  0.8106 -0.1329
  187MOL0     C24615   4.726   3.176   9.749  0.8058  0.2141  0.6974
  187MOL0     C24616   4.636   3.188   9.819  0.1658  0.0278 -0.9133
  187MOL0     C24617   5.123   3.303   9.039  0.6588  0.0491 -0.5088
  187MOL0     C24618   5.127   3.350   8.912 -0.4024  0.5225 -0.3278
  187MOL0     H24619   5.147   3.872   8.696 -3.1880  1.0612  1.2123
  187MOL0     H24620   5.145   4.022   8.492 -0.3488 -0.5208 -2.3383
  187MOL0     H24621   4.852   3.989   8.201  0.1401 -0.0952  0.6091
  187MOL0     H24622   4.977   3.864   8.135  0.9218  0.8719 -0.4493
  187MOL0     H24623   4.961   3.995   7.966 -1.2739 -0.1989  0.3611
  187MOL0     H24624   5.105   4.048   8.064 -1.1146  0.6731 -0.7645
  187MOL0     H24625   5.020   4.235   8.132  1.3504 -2.1247  0.5058
  187MOL0     H24626   4.851   4.212   8.069 -0.0253  2.0062 -0.5217
  187MOL0     H24627   5.103   4.240   7.912  0.6036 -0.3183 -0.3082
  187MOL0     H24628   4.936   4.212   7.848  2.0537  2.0525 -2.6861
  187MOL0     H24629   4.867   4.420   7.950  0.9798  0.5403  1.6721
  187MOL0     H24630   5.001   4.446   7.833 -0.0888 -0.9778 -1.3709
  187MOL0     H24631   5.170   4.436   8.030  0.8268  2.7346  0.5917
  187MOL0     H24632   5.041   4.480   8.139 -0.2708  1.1403  0.1119
  187MOL0     H24633   5.113   4.684   8.090  2.6251 -1.1940 -1.7661
  187MOL0     H24634   5.144   4.658   7.922  0.7999 -3.9237 -2.0105
  187MOL0     H24635   4.853   4.665   8.040 -1.5587 -0.8365 -1.5564
  187MOL0     H24636   4.912   4.655   7.875  0.0298 -1.7564  0.7971
  187MOL0     H24637   5.162   4.899   7.946  0.2041 -0.2326  2.3965
  187MOL0     H24638   5.194   5.159   8.023  1.4300  0.9092  0.8656
  187MOL0     H24639   5.033   5.230   8.075 -0.5971 -0.2455 -1.5154
  187MOL0     H24640   4.988   5.278   7.834  1.0014 -0.0783 -3.6707
  187MOL0     H24641   5.149   5.226   7.788  2.1042  1.6099  0.0162
  187MOL0     H24642   5.148   5.459   7.804  2.2125  1.6782  1.2736
  187MOL0     H24643   5.064   5.468   7.961 -1.4948 -0.9075 -1.3197
  187MOL0     H24644   5.271   5.368   8.067 -3.4390 -0.3602 -0.6565
  187MOL0     H24645   5.307   5.517   7.968 -0.1402 -0.4031  1.3771
  187MOL0     H24646   5.582   5.184   7.816 -0.9254  0.7522  0.2955
  187MOL0     H24647   5.817   5.229   7.850  0.3098  0.1094  2.6550
  187MOL0     H24648   6.050   5.629   8.272 -1.4687  0.5839 -1.6184
  187MOL0     H24649   6.294   5.661   8.336 -0.0268 -0.7729  0.0588
  187MOL0     H24650   6.608   5.773   8.309  2.2236  2.4867 -0.7649
  187MOL0     H24651   6.449   5.839   8.304 -0.8523  2.0512 -1.2125
  187MOL0     H24652   6.561   6.008   8.198 -0.8600  0.4957 -1.0589
  187MOL0     H24653   6.497   5.916   8.056 -0.4214  0.6944  0.3496
  187MOL0     H24654   6.725   5.847   7.994  2.2283  2.1337 -0.5053
  187MOL0     H24655   6.763   5.813   8.145  1.5198  1.2651 -0.2229
  187MOL0     H24656   6.723   6.100   8.073  1.8245 -1.6335 -4.5693
  187MOL0     H24657   6.799   6.045   8.228 -0.3282  1.4783 -0.0373
  187MOL0     H24658   6.945   6.147   8.066 -2.8234  0.4080  0.6221
  187MOL0     H24659   6.909   6.033   7.936  3.1052  0.3773 -0.5913
  187MOL0     H24660   7.004   5.851   8.102 -0.5423 -0.6141  3.3674
  187MOL0     H24661   7.035   5.980   8.219 -3.0126 -2.5304  1.1805
  187MOL0     H24662   7.152   5.995   7.940 -1.0903 -0.6111 -0.4718
  187MOL0     H24663   7.201   6.083   8.089 -1.2169  0.7467 -1.0870
  187MOL0     H24664   7.224   5.780   8.044  0.3105  0.0435  0.0351
  187MOL0     H24665   7.278   5.877   8.178  1.0695  0.6732 -1.0091
  187MOL0     H24666   6.398   5.647   7.919 -0.1494  0.4554 -0.2272
  187MOL0     H24667   6.155   5.602   7.863  3.5056  2.4731 -2.6938
  187MOL0     H24668   5.712   5.598   8.044  0.7340  1.9576 -2.9762
  187MOL0     H24669   5.490   5.564   7.995  0.3426  0.5908 -2.2151
  187MOL0     H24670   4.878   3.724   8.310 -1.3689 -2.9420  1.4935
  187MOL0     H24671   4.873   3.611   8.507  1.2271 -1.5127 -0.6870
  187MOL0     H24672   4.883   3.595   8.925 -0.0318 -0.5693 -1.1386
  187MOL0     H24673   4.874   3.510   9.161 -1.9545 -0.1893 -1.6808
  187MOL0     H24674   4.822   3.305   9.276 -0.8630  0.6258 -0.2430
  187MOL0     H24675   4.906   3.411   9.387 -2.4630 -0.6135  0.4576
  187MOL0     H24676   4.880   3.116   9.386  0.5999 -0.3938  0.9756
  187MOL0     H24677   5.019   3.189   9.464  0.5517  0.6326 -1.9642
  187MOL0     H24678   4.739   3.285   9.505  0.2721  4.0039  2.1222
  187MOL0     H24679   4.876   3.351   9.594  0.7198 -0.5920  0.0082
  187MOL0     H24680   4.820   3.063   9.590  0.0432  0.5607  0.2992
  187MOL0     H24681   4.927   3.155   9.694  0.2763  2.4006 -0.3107
  187MOL0     H24682   4.559   3.210   9.891  0.6392  1.1402 -0.7222
  187MOL0     H24683   5.167   3.207   9.064 -1.2710 -0.1642  2.5954
  187MOL0     H24684   5.188   3.290   8.844  2.8396  3.6731 -0.5062
  188MOL0     O24685   1.307   3.277   3.248  0.7420 -0.3315 -0.1757
  188MOL0     C24686   1.362   3.295   3.356 -0.2285  0.5183 -0.3636
  188MOL0     O24687   1.324   3.237   3.477  0.1434 -0.5488  0.7310
  188MOL0     C24688   1.220   3.153   3.477 -0.8422  0.0973  0.0176
  188MOL0     C24689   1.090   3.197   3.487  0.1206  0.2632  0.6167
  188MOL0     C24690   0.985   3.106   3.506 -0.6615  0.5369 -0.8077
  188MOL0     C24691   1.014   2.967   3.515  0.0273 -0.0121  0.7596
  188MOL0     O24692   0.930   2.865   3.533  0.5725 -0.5935  0.8179
  188MOL0     C24693   0.807   2.864   3.463 -0.3654 -0.7528  1.3419
  188MOL0     C24694   0.689   2.919   3.537  0.0038 -0.4275  0.0156
  188MOL0     C24695   0.563   2.848   3.484  0.1186  0.1028  0.6047
  188MOL0     C24696   0.444   2.896   3.576  0.0829 -0.3517 -0.0070
  188MOL0     C24697   0.302   2.832   3.540  0.5244  0.2291 -0.7715
  188MOL0     C24698   0.187   2.912   3.605  0.0181  1.1296 -0.4378
  188MOL0     C24699   0.041   2.866   3.559  0.2366  0.1046 -0.7892
  188MOL0     C24700  -0.038   2.966   3.468 -0.3967  0.0891  0.8496
  188MOL0     N24701  -0.182   2.955   3.496 -0.3019  0.2556  1.3964
  188MOL0     C24702  -0.269   2.842   3.468 -0.6094 -0.0316 -0.0877
  188MOL0     C24703  -0.381   2.868   3.536 -0.0022 -0.9288  0.1125
  188MOL0     C24704  -0.503   2.786   3.532  1.3964  0.4502 -0.6027
  188MOL0     C24705  -0.613   2.804   3.417  0.6270 -0.7021  0.8347
  188MOL0     C24706  -0.678   2.939   3.415  0.2232 -0.5057  0.3645
  188MOL0     C24707  -0.816   2.933   3.343  0.2823 -0.3631  0.1728
  188MOL0     O24708  -0.865   3.070   3.356  0.0635 -0.3061 -0.9153
  188MOL0     C24709  -0.999   3.095   3.354 -0.9019  0.5026 -0.4622
  188MOL0     C24710  -1.030   3.230   3.375  0.5456  0.2927  0.0292
  188MOL0     C24711  -1.157   3.280   3.346  0.9299 -0.2979  0.0693
  188MOL0     C24712  -1.257   3.183   3.317  0.8266  0.4769  1.1122
  188MOL0     C24713  -1.391   3.232   3.302  0.5730  0.6094  0.2636
  188MOL0     O24714  -1.414   3.370   3.352  0.0551 -0.0359  0.6790
  188MOL0     C24715  -1.538   3.417   3.363  0.4327 -0.2835  0.5945
  188MOL0     C24716  -1.629   3.347   3.436 -0.1759 -0.6290  0.3243
  188MOL0     C24717  -1.761   3.398   3.451  0.7725 -0.7247  0.5753
  188MOL0     C24718  -1.797   3.524   3.399 -0.1528 -0.0608 -0.7402
  188MOL0     O24719  -1.932   3.549   3.404  0.0035  0.2203 -0.3169
  188MOL0     C24720  -1.988   3.671   3.351 -0.5271 -0.3874  0.4012
  188MOL0     C24721  -2.136   3.705   3.406 -0.0411  0.3915  0.9292
  188MOL0     C24722  -2.247   3.613   3.342 -0.8610 -0.1686 -0.1395
  188MOL0     C24723  -2.380   3.673   3.385 -0.7392  0.0806 -0.0198
  188MOL0     C24724  -2.507   3.592   3.357  0.0541 -0.0342 -0.2162
  188MOL0     C24725  -2.542   3.595   3.209 -0.2044  0.0948 -0.1974
  188MOL0     C24726  -2.696   3.585   3.196 -0.4843  0.3405 -0.3703
  188MOL0     C24727  -2.730   3.570   3.056  0.1220 -0.0801 -0.0481
  188MOL0    Cl24728  -2.881   3.479   3.058 -0.2129 -0.4053 -0.3111
  188MOL0     C24729  -1.711   3.586   3.314  0.2501 -0.8761 -0.0269
  188MOL0     C24730  -1.579   3.541   3.302  0.2222 -0.2720  0.1556
  188MOL0     O24731  -1.467   3.170   3.230  0.0970 -0.2964 -0.6710
  188MOL0     C24732  -1.226   3.047   3.298  0.8678  0.5856  0.0323
  188MOL0     C24733  -1.096   3.000   3.311 -0.3969  0.2750  0.4052
  188MOL0     N24734  -0.359   2.969   3.619 -0.4286 -0.3699  0.1629
  188MOL0     N24735  -0.243   3.026   3.598  0.3035  0.0127  1.2710
  188MOL0     C24736   1.149   2.932   3.518  0.3147  1.0939 -0.0495
  188MOL0     C24737   1.253   3.023   3.511  0.3655 -0.2095 -0.4616
  188MOL0     C24738   1.489   3.365   3.366 -0.0052 -0.1450 -0.4447
  188MOL0     C24739   1.562   3.416   3.253  0.6701  0.2325 -0.1582
  188MOL0     C24740   1.676   3.481   3.260 -0.2009  0.1486 -0.5823
  188MOL0     C24741   1.734   3.501   3.390  0.3970  0.1474  0.4093
  188MOL0     O24742   1.853   3.561   3.393 -0.1798  0.2693 -0.2950
  188MOL0     C24743   1.842   3.704   3.415 -0.6533 -0.4452 -0.5504
  188MOL0     C24744   1.981   3.756   3.428  0.2578  0.1751  0.4761
  188MOL0     C24745   2.070   3.732   3.309  0.6653  0.2001  0.3867
  188MOL0     C24746   2.211   3.696   3.348 -0.5484 -0.7090  0.7810
  188MOL0     C24747   2.223   3.559   3.398 -1.0451  0.3625 -0.1966
  188MOL0     C24748   2.238   3.446   3.443 -0.3222  0.3966 -0.8494
  188MOL0     C24749   1.667   3.464   3.502  0.9359 -0.3697 -0.6599
  188MOL0     C24750   1.544   3.403   3.493 -0.1699  0.0966  0.1081
  188MOL0     H24751   1.076   3.302   3.466 -0.3312  0.6996  2.8511
  188MOL0     H24752   0.881   3.136   3.515 -0.3135  1.2665  1.6517
  188MOL0     H24753   0.799   2.757   3.445  4.2254 -1.2378  1.1434
  188MOL0     H24754   0.818   2.925   3.372  0.3774 -1.1501  1.1596
  188MOL0     H24755   0.698   3.026   3.520  1.2525 -0.5084  0.1186
  188MOL0     H24756   0.711   2.910   3.644  2.5447  2.4781 -0.1530
  188MOL0     H24757   0.560   2.739   3.477  2.0731  0.1124 -3.1866
  188MOL0     H24758   0.547   2.879   3.380  1.5419  0.3066  0.4292
  188MOL0     H24759   0.468   2.880   3.681  0.6346  3.5714  0.6337
  188MOL0     H24760   0.430   3.004   3.568  1.0738 -0.2728 -0.8610
  188MOL0     H24761   0.300   2.727   3.570  0.1245  0.6226  0.6824
  188MOL0     H24762   0.290   2.836   3.431 -0.1292 -1.8024 -0.8232
  188MOL0     H24763   0.202   3.019   3.585 -0.4805  0.6493 -4.0789
  188MOL0     H24764   0.185   2.901   3.714  4.2499  2.3557 -0.0565
  188MOL0     H24765   0.037   2.766   3.514 -2.8461 -0.4106  0.3288
  188MOL0     H24766  -0.018   2.858   3.651  0.4661  1.5207 -0.4981
  188MOL0     H24767  -0.019   2.960   3.360 -0.6090  2.0501  0.6534
  188MOL0     H24768  -0.007   3.067   3.497 -1.3768  0.7447 -0.2736
  188MOL0     H24769  -0.243   2.758   3.404  2.1877  0.4411  0.3261
  188MOL0     H24770  -0.566   2.789   3.621 -2.8304 -3.7928 -2.9707
  188MOL0     H24771  -0.472   2.681   3.523  1.9013  0.6106 -0.7704
  188MOL0     H24772  -0.694   2.732   3.434 -0.6496  0.3590 -0.5076
  188MOL0     H24773  -0.575   2.773   3.319  1.5557 -0.3870  1.0912
  188MOL0     H24774  -0.694   2.965   3.520  1.0462 -3.2095  1.2425
  188MOL0     H24775  -0.613   3.019   3.378 -1.5962  1.6965  1.6232
  188MOL0     H24776  -0.874   2.859   3.399 -1.9368  0.3493 -1.0429
  188MOL0     H24777  -0.803   2.896   3.242 -1.2591  1.8810 -0.9512
  188MOL0     H24778  -0.957   3.310   3.384 -2.8053  3.4700  1.3195
  188MOL0     H24779  -1.174   3.387   3.337 -1.4454 -0.7188 -1.1334
  188MOL0     H24780  -1.587   3.259   3.483  1.7898  0.0186 -0.1416
  188MOL0     H24781  -1.829   3.345   3.516 -0.9513  1.6168  0.7885
  188MOL0     H24782  -2.000   3.668   3.243  0.0582  0.1060  0.3142
  188MOL0     H24783  -1.923   3.755   3.379 -0.8931  0.5196 -1.3405
  188MOL0     H24784  -2.151   3.806   3.366 -3.7673 -1.2019 -2.3920
  188MOL0     H24785  -2.134   3.696   3.515  0.1614  1.1359  0.9933
  188MOL0     H24786  -2.237   3.513   3.386  2.5858 -0.1851 -0.6798
  188MOL0     H24787  -2.241   3.600   3.233  0.7600 -1.7491  0.0782
  188MOL0     H24788  -2.373   3.694   3.492 -2.9534  3.1303 -0.3560
  188MOL0     H24789  -2.381   3.766   3.327 -0.0725 -0.2807 -0.6259
  188MOL0     H24790  -2.581   3.637   3.424 -1.4618 -0.2514 -1.6958
  188MOL0     H24791  -2.484   3.488   3.379 -0.0448 -0.2754 -1.2027
  188MOL0     H24792  -2.500   3.505   3.163 -1.3539  0.8119 -2.8950
  188MOL0     H24793  -2.505   3.689   3.166  3.9883 -1.3777 -0.2017
  188MOL0     H24794  -2.730   3.505   3.263  1.5023 -0.0494  0.2378
  188MOL0     H24795  -2.745   3.680   3.222 -0.3408  0.8378 -1.8261
  188MOL0     H24796  -2.646   3.525   3.004  0.7779  2.2135 -1.1057
  188MOL0     H24797  -2.754   3.666   3.010 -0.3237  1.2937  2.7958
  188MOL0     H24798  -1.747   3.677   3.266 -2.2082  0.0055  3.1453
  188MOL0     H24799  -1.520   3.588   3.223 -0.7778  1.7204  0.5257
  188MOL0     H24800  -1.303   2.973   3.281  1.4108 -0.1455  0.6410
  188MOL0     H24801  -1.072   2.894   3.313 -4.2990 -0.7713 -0.5741
  188MOL0     H24802   1.165   2.827   3.537 -1.6967  0.1129 -3.0729
  188MOL0     H24803   1.354   2.989   3.532  0.8258  0.1559 -2.0014
  188MOL0     H24804   1.494   3.415   3.169 -1.4062 -1.5239  1.4153
  188MOL0     H24805   1.725   3.526   3.174 -0.9739  1.0056 -0.5866
  188MOL0     H24806   1.799   3.708   3.515  2.7685  1.5126  1.0242
  188MOL0     H24807   1.779   3.751   3.339 -0.5237 -4.0678 -3.1301
  188MOL0     H24808   1.975   3.865   3.439  1.5428  0.0396  3.2052
  188MOL0     H24809   2.022   3.729   3.526  0.4974  0.6202  0.5038
  188MOL0     H24810   2.060   3.818   3.242 -0.3825  1.5998  2.2683
  188MOL0     H24811   2.026   3.651   3.250 -1.1351  2.0074 -0.8644
  188MOL0     H24812   2.274   3.702   3.258  2.1950 -0.5953  2.5989
  188MOL0     H24813   2.257   3.766   3.419 -1.1335  0.5069  0.0009
  188MOL0     H24814   2.239   3.348   3.486 -2.9076  0.9351  0.6400
  188MOL0     H24815   1.713   3.488   3.597  0.5928  1.1481 -0.8437
  188MOL0     H24816   1.501   3.366   3.586  1.8615 -0.3909  0.9165
  189MOL0     O24817   8.983  10.442   7.661 -0.7415 -0.1764  0.5576
  189MOL0     C24818   9.071  10.396   7.727 -0.9882 -0.0170 -0.2573
  189MOL0     O24819   9.061  10.310   7.833  0.6880  0.0819  0.2220
  189MOL0     C24820   8.935  10.267   7.885 -0.2864  0.3430  0.9705
  189MOL0     C24821   8.900  10.277   8.021  0.2878  0.0745 -0.1663
  189MOL0     C24822   8.788  10.214   8.070  0.6652 -0.8075  1.0614
  189MOL0     C24823   8.716  10.126   7.987 -0.4434 -0.6032  0.4702
  189MOL0     O24824   8.609  10.064   8.042  0.4330  0.9144 -0.5573
  189MOL0     C24825   8.572   9.929   7.994 -0.4682  0.0115  0.1188
  189MOL0     C24826   8.453   9.874   8.072 -0.3539 -0.1022  0.8850
  189MOL0     C24827   8.333   9.969   8.053 -0.6362  0.8741  0.2523
  189MOL0     C24828   8.221   9.908   8.148  0.4093 -0.1578  0.1294
  189MOL0     C24829   8.078   9.972   8.135  0.4890 -0.3235 -0.5343
  189MOL0     C24830   7.984   9.912   8.243 -0.5748  0.9355  0.2144
  189MOL0     C24831   7.837   9.951   8.220  0.2211  0.2290 -0.6317
  189MOL0     C24832   7.743   9.883   8.314 -0.0697 -0.4154 -0.6548
  189MOL0     N24833   7.603   9.891   8.271 -0.7279 -0.4099 -0.6269
  189MOL0     C24834   7.525   9.796   8.212 -0.4824  1.0052 -0.9814
  189MOL0     C24835   7.401   9.849   8.184  0.2721  0.2307  0.1484
  189MOL0     C24836   7.279   9.790   8.109  1.3173 -0.1113 -0.0147
  189MOL0     C24837   7.150   9.844   8.159 -0.3767  0.3615  0.8262
  189MOL0     C24838   7.036   9.746   8.126  0.9396  0.2360 -0.5931
  189MOL0     C24839   6.922   9.781   8.229  1.0059  0.4287 -0.4822
  189MOL0     O24840   6.808   9.705   8.197  0.6845 -0.9335 -0.3305
  189MOL0     C24841   6.690   9.766   8.233 -0.2212  0.6339 -0.8130
  189MOL0     C24842   6.672   9.865   8.331 -0.0250  0.4798 -0.7771
  189MOL0     C24843   6.546   9.931   8.344 -0.0126 -0.5516 -0.2550
  189MOL0     C24844   6.440   9.900   8.258  0.0657  0.1929  0.7838
  189MOL0     C24845   6.310   9.979   8.269 -0.4324 -0.5397  0.3817
  189MOL0     O24846   6.305  10.102   8.330 -0.0315  0.2508 -1.7105
  189MOL0     C24847   6.198  10.178   8.319  0.5074  0.5607  0.0474
  189MOL0     C24848   6.221  10.315   8.278  0.2239 -1.1981 -0.4612
  189MOL0     C24849   6.126  10.415   8.261 -0.0453 -0.0609 -0.1325
  189MOL0     C24850   5.995  10.379   8.280 -0.6682 -1.5260  0.0238
  189MOL0     O24851   5.894  10.482   8.273  0.2153 -0.1985  1.2988
  189MOL0     C24852   5.759  10.449   8.231  0.8399 -1.0220  0.4966
  189MOL0     C24853   5.674  10.516   8.336  0.2217 -1.0330 -0.2972
  189MOL0     C24854   5.525  10.498   8.338  0.7846  0.5510  0.6323
  189MOL0     C24855   5.445  10.573   8.233  0.5539  0.2595  0.0692
  189MOL0     C24856   5.288  10.568   8.270  0.8288 -1.3498  1.0377
  189MOL0     C24857   5.204  10.635   8.153  0.9595 -0.6399  0.2473
  189MOL0     C24858   5.050  10.636   8.193  0.8075 -0.4764  0.0096
  189MOL0     C24859   4.964  10.661   8.067 -0.7946  0.2565 -0.4837
  189MOL0    Cl24860   5.035  10.806   7.988  0.2407 -0.0561 -0.0400
  189MOL0     C24861   5.958  10.253   8.313  0.4070  0.0027 -1.0770
  189MOL0     C24862   6.062  10.153   8.338  0.5059 -0.8599  0.0367
  189MOL0     O24863   6.229   9.935   8.194  0.8996  0.0690 -0.0586
  189MOL0     C24864   6.462   9.798   8.167 -0.0655  0.0643  0.5395
  189MOL0     C24865   6.581   9.725   8.161 -0.7837 -1.0191 -0.2886
  189MOL0     N24866   7.420   9.978   8.224 -0.1862 -0.7068 -0.5154
  189MOL0     N24867   7.530  10.006   8.277 -0.0971 -1.0620 -0.3713
  189MOL0     C24868   8.747  10.120   7.850 -0.2270  0.0984 -0.0146
  189MOL0     C24869   8.860  10.186   7.795  0.9764  0.5061 -0.2190
  189MOL0     C24870   9.218  10.435   7.683  0.7276  1.0412  0.6587
  189MOL0     C24871   9.246  10.476   7.548 -0.0844 -0.1772  0.8010
  189MOL0     C24872   9.379  10.506   7.518  0.0374  0.0445  0.4257
  189MOL0     C24873   9.483  10.477   7.598 -0.0586 -0.3797 -0.0164
  189MOL0     O24874   9.612  10.496   7.544  0.2588  0.1755  0.2201
  189MOL0     C24875   9.728  10.504   7.621 -0.1785  0.3211 -0.4728
  189MOL0     C24876   9.852  10.535   7.546 -1.1069 -0.2942 -0.6223
  189MOL0     C24877   9.854  10.685   7.523 -0.2747  0.4964 -0.9310
  189MOL0     C24878   9.974  10.721   7.432  1.2880 -0.4078 -0.2647
  189MOL0     C24879  10.107  10.663   7.475  0.6682  0.3756  0.3488
  189MOL0     C24880  10.215  10.633   7.516  0.1530 -0.2294 -0.1300
  189MOL0     C24881   9.458  10.435   7.727 -0.4792  0.3378  0.1346
  189MOL0     C24882   9.325  10.419   7.768 -1.0495  0.3998 -0.5104
  189MOL0     H24883   8.950  10.353   8.080  0.7149  0.9172 -1.5635
  189MOL0     H24884   8.757  10.211   8.174 -3.4767  2.8389  0.1823
  189MOL0     H24885   8.655   9.862   8.018  3.4434  4.9882  2.4685
  189MOL0     H24886   8.534   9.926   7.892  1.0151  2.0230 -0.5525
  189MOL0     H24887   8.491   9.880   8.175  0.9128  1.2487  0.3754
  189MOL0     H24888   8.432   9.772   8.038  0.0918  0.8108 -2.4629
  189MOL0     H24889   8.300   9.957   7.949 -1.6913  0.2241  0.6437
  189MOL0     H24890   8.347  10.072   8.088 -1.5404  0.5823  1.5295
  189MOL0     H24891   8.217   9.801   8.125 -0.2078  0.1161 -1.1218
  189MOL0     H24892   8.252   9.918   8.252 -0.7869  3.7663  0.2684
  189MOL0     H24893   8.039   9.956   8.034  0.9435  0.4918 -0.8504
  189MOL0     H24894   8.080  10.079   8.156 -0.5412 -0.0676 -1.6441
  189MOL0     H24895   8.011   9.947   8.343 -2.8392  1.1713  0.7845
  189MOL0     H24896   7.994   9.803   8.238  0.2038  1.0465 -2.3118
  189MOL0     H24897   7.831  10.059   8.233  0.2666  0.0565  1.1745
  189MOL0     H24898   7.809   9.919   8.119 -3.9647 -2.1696  1.0319
  189MOL0     H24899   7.763   9.944   8.403 -1.2466  1.6211 -1.7261
  189MOL0     H24900   7.778   9.780   8.327  1.3631  0.2441  1.2206
  189MOL0     H24901   7.545   9.692   8.188 -1.2729  0.1028  1.9067
  189MOL0     H24902   7.279   9.685   8.139 -1.0735  0.5600  2.8352
  189MOL0     H24903   7.288   9.801   8.001  0.1187  0.6736 -0.0522
  189MOL0     H24904   7.139   9.947   8.124  0.7092 -0.1170 -1.0684
  189MOL0     H24905   7.163   9.858   8.267 -0.1952  0.8325  0.7449
  189MOL0     H24906   7.012   9.757   8.020  2.0499  3.9747 -0.6001
  189MOL0     H24907   7.065   9.644   8.152  2.2757  0.9050  0.6895
  189MOL0     H24908   6.916   9.889   8.238 -1.9731  0.1590  3.6254
  189MOL0     H24909   6.946   9.741   8.328 -0.4979  1.0294  0.1547
  189MOL0     H24910   6.756   9.891   8.394  0.4452  0.8308 -1.5282
  189MOL0     H24911   6.532  10.018   8.406 -3.4616  2.0345 -4.1005
  189MOL0     H24912   6.320  10.359   8.270 -1.1656  2.2449 -0.2230
  189MOL0     H24913   6.156  10.516   8.232 -0.8697  0.1310 -0.3275
  189MOL0     H24914   5.730  10.344   8.220 -1.1765 -0.3761 -0.7401
  189MOL0     H24915   5.741  10.498   8.135  0.7290 -2.2237 -0.1137
  189MOL0     H24916   5.687  10.625   8.342 -1.4620 -0.8349  0.3316
  189MOL0     H24917   5.711  10.489   8.435 -3.6884  3.4936  2.8686
  189MOL0     H24918   5.488  10.540   8.433 -0.8068  0.9835 -0.1417
  189MOL0     H24919   5.497  10.393   8.330 -1.8751  1.2901 -5.4480
  189MOL0     H24920   5.482  10.675   8.227 -3.2863  1.7917 -0.5942
  189MOL0     H24921   5.463  10.520   8.139  1.7142  0.2633  0.2730
  189MOL0     H24922   5.268  10.611   8.369  0.5849 -1.1068  0.8848
  189MOL0     H24923   5.262  10.462   8.273 -0.1708 -1.2591 -2.0094
  189MOL0     H24924   5.217  10.574   8.062 -2.3811 -2.8753  1.0791
  189MOL0     H24925   5.230  10.740   8.139 -0.9814 -0.0223  0.8816
  189MOL0     H24926   5.026  10.535   8.229 -0.1749  0.4707  2.2469
  189MOL0     H24927   5.028  10.719   8.262  3.5929  1.0402 -0.8085
  189MOL0     H24928   4.856  10.674   8.078 -0.9552 -1.0159 -0.4008
  189MOL0     H24929   4.981  10.580   7.996  0.7009  0.3743 -0.2906
  189MOL0     H24930   5.860  10.221   8.346  1.5379  0.4086  3.3985
  189MOL0     H24931   6.037  10.052   8.369 -0.2440  0.1496  3.1332
  189MOL0     H24932   6.383   9.772   8.097  1.3135 -0.4856 -0.8631
  189MOL0     H24933   6.592   9.658   8.077  0.1956 -2.9074  1.2615
  189MOL0     H24934   8.695  10.047   7.789  2.4096 -1.4278 -0.5934
  189MOL0     H24935   8.888  10.173   7.691  1.8079  1.5918 -0.1451
  189MOL0     H24936   9.178  10.499   7.466 -0.4120 -0.2658  1.0451
  189MOL0     H24937   9.403  10.564   7.429 -2.8384 -0.3990 -0.7704
  189MOL0     H24938   9.751  10.403   7.658 -0.7353 -0.4072 -2.0051
  189MOL0     H24939   9.718  10.576   7.702  2.8497  2.3139 -1.7013
  189MOL0     H24940   9.936  10.515   7.613 -2.1715 -0.9750  0.5464
  189MOL0     H24941   9.854  10.478   7.453  1.0836 -0.1563 -0.7243
  189MOL0     H24942   9.871  10.735   7.619 -0.2898  0.6879 -1.0273
  189MOL0     H24943   9.765  10.727   7.476 -1.0004 -0.6491 -0.5996
  189MOL0     H24944   9.942  10.684   7.334  0.9896  2.1781 -1.2199
  189MOL0     H24945   9.971  10.830   7.423  1.9944 -0.5231 -2.7319
  189MOL0     H24946  10.311  10.610   7.558  0.2466  1.5590  0.7276
  189MOL0     H24947   9.540  10.420   7.797 -1.7565 -0.6063  1.4867
  189MOL0     H24948   9.322  10.383   7.870  3.1812 -3.2133 -1.3362
  190MOL0     O24949  11.224   6.525   5.687  0.5828 -0.7359  0.0071
  190MOL0     C24950  11.292   6.558   5.791  0.4973 -0.0615 -0.2033
  190MOL0     O24951  11.238   6.572   5.920  0.0157  0.0673  0.2573
  190MOL0     C24952  11.109   6.530   5.937  0.7164 -0.0463  0.0232
  190MOL0     C24953  11.083   6.438   6.034 -0.1058  0.9179  0.2890
  190MOL0     C24954  10.960   6.393   6.064  0.6016  0.2650  0.1020
  190MOL0     C24955  10.853   6.430   5.981 -0.5093 -0.7505  0.3457
  190MOL0     O24956  10.727   6.360   5.999  0.6089  0.7340 -0.4268
  190MOL0     C24957  10.611   6.425   5.933 -0.4258  0.3632 -0.6759
  190MOL0     C24958  10.497   6.349   6.009 -0.3527  0.3314  0.6067
  190MOL0     C24959  10.364   6.400   5.956  0.2950 -0.2552 -0.0390
  190MOL0     C24960  10.253   6.344   6.044  0.8220  0.1226 -0.3244
  190MOL0     C24961  10.115   6.317   5.964 -0.4312 -0.2193 -0.9528
  190MOL0     C24962   9.992   6.252   6.038  0.0772  0.5203  0.0396
  190MOL0     C24963  10.036   6.182   6.174  0.4227  0.9643 -0.0381
  190MOL0     C24964   9.924   6.102   6.250  0.3914  0.2234  0.1687
  190MOL0     N24965   9.841   6.192   6.331  0.6510 -0.0750  0.1480
  190MOL0     C24966   9.881   6.243   6.456 -0.2379 -0.4606 -0.2890
  190MOL0     C24967   9.785   6.338   6.490  0.6528  0.6848 -0.4565
  190MOL0     C24968   9.786   6.425   6.613  0.7407  0.6306 -0.2134
  190MOL0     C24969   9.925   6.489   6.620  0.2101 -0.0093  0.9165
  190MOL0     C24970   9.947   6.589   6.735  0.3478 -0.1851 -0.4517
  190MOL0     C24971  10.084   6.667   6.732 -0.8280  0.7632 -0.3768
  190MOL0     O24972  10.195   6.568   6.765  0.1409 -0.6153 -0.2618
  190MOL0     C24973  10.326   6.606   6.743 -0.4212  0.3323  0.6064
  190MOL0     C24974  10.372   6.739   6.732 -0.8814  0.0790 -0.7933
  190MOL0     C24975  10.505   6.767   6.735 -0.0641 -0.2194  1.1271
  190MOL0     C24976  10.603   6.659   6.733 -0.0967 -0.6454  0.8729
  190MOL0     C24977  10.750   6.695   6.730  0.0867 -0.4916  1.0467
  190MOL0     O24978  10.777   6.819   6.682  0.0103  0.2297 -0.4421
  190MOL0     C24979  10.903   6.870   6.648 -0.0366  0.5110 -0.7936
  190MOL0     C24980  11.029   6.815   6.677 -0.9573 -0.5743 -0.9210
  190MOL0     C24981  11.150   6.868   6.629 -0.7149 -0.3468 -0.6553
  190MOL0     C24982  11.143   6.984   6.569  0.0404 -0.0757 -0.6930
  190MOL0     O24983  11.265   7.032   6.555 -0.8481  0.7338 -0.4401
  190MOL0     C24984  11.271   7.172   6.599 -0.7835 -0.1619 -0.0833
  190MOL0     C24985  11.414   7.222   6.593 -0.5147  0.9456 -0.9887
  190MOL0     C24986  11.527   7.122   6.629  0.7859 -0.4424 -0.0720
  190MOL0     C24987  11.655   7.197   6.634  0.1600 -0.7794  0.5451
  190MOL0     C24988  11.774   7.095   6.626  0.5587 -0.3865 -0.0752
  190MOL0     C24989  11.905   7.171   6.599 -0.3370  0.1366  0.2580
  190MOL0     C24990  12.024   7.083   6.625 -0.2896 -0.1038 -0.1325
  190MOL0     C24991  12.159   7.160   6.642  0.5036 -1.2335  0.3226
  190MOL0    Cl24992  12.272   7.023   6.651 -0.3580 -0.0952 -0.0435
  190MOL0     C24993  11.016   7.053   6.552 -0.3704  0.0366 -0.4485
  190MOL0     C24994  10.893   6.994   6.579 -0.3771  0.5703  0.3949
  190MOL0     O24995  10.828   6.607   6.755 -0.2477  0.1359  0.0394
  190MOL0     C24996  10.555   6.531   6.734 -0.2621 -0.2772 -0.1849
  190MOL0     C24997  10.418   6.503   6.740 -0.7868 -0.0612  0.5146
  190MOL0     N24998   9.695   6.340   6.392  0.5569  0.1099 -0.2207
  190MOL0     N24999   9.718   6.249   6.303 -0.3234  0.3739 -0.4312
  190MOL0     C25000  10.887   6.513   5.869 -0.0157 -1.0890 -0.3434
  190MOL0     C25001  11.005   6.575   5.857  0.1049 -0.6939 -0.3215
  190MOL0     C25002  11.433   6.602   5.769  0.0440 -0.3324  0.7319
  190MOL0     C25003  11.496   6.609   5.643 -0.2800 -0.2827 -0.5225
  190MOL0     C25004  11.628   6.653   5.639 -0.2286 -0.7142  0.2388
  190MOL0     C25005  11.709   6.669   5.751 -0.5344 -0.4395  0.1832
  190MOL0     O25006  11.838   6.706   5.725  0.3481 -0.3705 -0.3357
  190MOL0     C25007  11.941   6.713   5.830  0.5405  0.2205  0.7766
  190MOL0     C25008  12.076   6.730   5.772  0.2215  0.1385 -0.4555
  190MOL0     C25009  12.162   6.804   5.872 -0.2848 -0.0105 -0.5876
  190MOL0     C25010  12.208   6.725   5.985  0.5918 -0.3617  0.1803
  190MOL0     C25011  12.307   6.626   5.948 -0.0682  0.7617 -0.3148
  190MOL0     C25012  12.386   6.545   5.896 -0.2002 -0.3558  0.2451
  190MOL0     C25013  11.652   6.650   5.876 -0.1951  0.0608 -0.4632
  190MOL0     C25014  11.516   6.621   5.887  0.1843  0.0558  0.7483
  190MOL0     H25015  11.160   6.401   6.100  2.1770  1.5284 -1.8938
  190MOL0     H25016  10.943   6.320   6.143  3.9311  0.8454  1.5540
  190MOL0     H25017  10.611   6.401   5.827  2.1580 -3.8478  0.0090
  190MOL0     H25018  10.622   6.532   5.950  2.9102 -0.0925  0.8886
  190MOL0     H25019  10.507   6.372   6.115 -0.0466  2.1424  0.2289
  190MOL0     H25020  10.495   6.241   5.989 -0.2337  0.0670  1.9611
  190MOL0     H25021  10.357   6.370   5.851  1.8821 -2.3760  0.3961
  190MOL0     H25022  10.360   6.509   5.967  0.7278 -0.1471 -0.8833
  190MOL0     H25023  10.287   6.252   6.092 -1.9783  0.3051  2.3710
  190MOL0     H25024  10.237   6.420   6.122  0.8293 -1.4175  1.2469
  190MOL0     H25025  10.133   6.250   5.879 -0.6081 -1.4987  0.0076
  190MOL0     H25026  10.068   6.409   5.926 -3.5508 -0.7092  1.3372
  190MOL0     H25027   9.940   6.179   5.975  2.3668 -1.6303  0.4868
  190MOL0     H25028   9.914   6.326   6.061  0.5369  0.4852  1.8754
  190MOL0     H25029  10.105   6.106   6.137 -0.4614  0.2404 -0.2273
  190MOL0     H25030  10.094   6.240   6.246  0.1129  1.8731 -0.5014
  190MOL0     H25031   9.973   6.033   6.318  1.5241  0.5867 -0.2422
  190MOL0     H25032   9.855   6.051   6.181 -1.5025  0.6153  1.6836
  190MOL0     H25033   9.968   6.221   6.517  2.8923  2.8654 -3.1285
  190MOL0     H25034   9.779   6.359   6.700  0.6647 -1.2379 -1.5848
  190MOL0     H25035   9.706   6.500   6.619 -0.2898 -0.5205  3.4468
  190MOL0     H25036   9.952   6.528   6.522  0.7822 -0.7783  0.7566
  190MOL0     H25037  10.003   6.412   6.629  0.8622  0.3467 -1.2143
  190MOL0     H25038   9.862   6.656   6.720 -1.4186 -1.4108  3.1407
  190MOL0     H25039   9.944   6.541   6.833  1.0654 -0.8685 -0.7574
  190MOL0     H25040  10.079   6.739   6.813 -2.1984 -1.5964  1.7603
  190MOL0     H25041  10.113   6.707   6.634  2.5598 -1.5113 -0.4935
  190MOL0     H25042  10.300   6.820   6.744  1.4925  2.0625  0.9315
  190MOL0     H25043  10.525   6.874   6.729 -1.6770  0.1418  1.6722
  190MOL0     H25044  11.033   6.721   6.733 -2.7494 -1.0289 -1.5099
  190MOL0     H25045  11.247   6.820   6.626  0.1398  1.3274 -1.1292
  190MOL0     H25046  11.245   7.182   6.705  1.5670  1.5827  0.4175
  190MOL0     H25047  11.205   7.231   6.535 -1.8668 -3.9212 -2.7864
  190MOL0     H25048  11.414   7.301   6.669  0.5959  1.6464 -1.6838
  190MOL0     H25049  11.437   7.262   6.494 -3.7186  1.1819 -1.7609
  190MOL0     H25050  11.535   7.039   6.559 -1.2252 -1.6191  1.0150
  190MOL0     H25051  11.521   7.070   6.725 -2.0596 -1.2322 -0.5943
  190MOL0     H25052  11.655   7.266   6.549 -2.7035 -0.8530  0.4179
  190MOL0     H25053  11.671   7.261   6.722  0.8503  1.4004 -1.0650
  190MOL0     H25054  11.759   7.025   6.543  0.5654  0.9437 -1.2389
  190MOL0     H25055  11.787   7.038   6.718  0.5510 -1.4110 -0.6933
  190MOL0     H25056  11.914   7.260   6.662 -1.1238  1.2440 -1.1223
  190MOL0     H25057  11.909   7.221   6.502  1.5745 -0.1689  0.1384
  190MOL0     H25058  11.999   7.029   6.716  1.6006 -0.8562 -0.0162
  190MOL0     H25059  12.036   7.023   6.534  2.3772  1.4609 -0.9231
  190MOL0     H25060  12.148   7.216   6.736  0.7475 -0.6574  0.0157
  190MOL0     H25061  12.169   7.223   6.553  1.1068  1.7297  2.3107
  190MOL0     H25062  11.024   7.148   6.499  1.1502  0.1480 -0.0822
  190MOL0     H25063  10.794   7.025   6.546 -0.9813 -2.5616 -1.2186
  190MOL0     H25064  10.622   6.447   6.720  0.4236  0.1450  0.4515
  190MOL0     H25065  10.388   6.399   6.740 -0.5428 -0.2277 -2.5479
  190MOL0     H25066  10.806   6.547   5.805 -3.2489  1.9208  4.6161
  190MOL0     H25067  11.031   6.642   5.776  1.9232 -2.1991 -1.0434
  190MOL0     H25068  11.446   6.588   5.549  0.6092  2.9033 -1.8379
  190MOL0     H25069  11.672   6.668   5.541  1.1646  3.0006  1.2627
  190MOL0     H25070  11.950   6.622   5.890 -1.7075  0.3842  1.4536
  190MOL0     H25071  11.928   6.796   5.900  0.4604  0.0956  0.9114
  190MOL0     H25072  12.119   6.632   5.749  1.4686 -0.3834  3.2843
  190MOL0     H25073  12.062   6.783   5.678 -3.4216  0.2055 -0.0376
  190MOL0     H25074  12.123   6.905   5.889  0.7859  0.4379 -0.7118
  190MOL0     H25075  12.254   6.829   5.818 -0.1268  1.3957  0.2835
  190MOL0     H25076  12.246   6.796   6.059 -1.4231  3.5176 -2.1562
  190MOL0     H25077  12.124   6.672   6.032  0.6168 -0.3318  0.2587
  190MOL0     H25078  12.455   6.469   5.865  0.8790 -0.3564  2.4404
  190MOL0     H25079  11.720   6.659   5.961 -1.4524  2.2856  0.3875
  190MOL0     H25080  11.470   6.605   5.984 -2.1053  1.2028 -0.0633
  191MOL0     O25081  11.002   1.658   0.682 -0.3833  0.4405 -0.3645
  191MOL0     C25082  11.099   1.642   0.752 -0.5289 -0.0769  0.0819
  191MOL0     O25083  11.099   1.620   0.884  0.8103 -0.5894 -0.2363
  191MOL0     C25084  10.973   1.616   0.937  0.8058 -0.2403  0.2904
  191MOL0     C25085  10.945   1.715   1.030  0.8260  0.3611 -0.2860
  191MOL0     C25086  10.822   1.726   1.093  0.1556  0.3381  0.9104
  191MOL0     C25087  10.722   1.633   1.069 -0.4053  0.9939  0.7081
  191MOL0     O25088  10.598   1.642   1.130 -0.1386  0.1234 -0.0621
  191MOL0     C25089  10.494   1.547   1.113  0.6420  0.5630  0.1326
  191MOL0     C25090  10.377   1.584   1.208 -0.1099  0.3632  0.2217
  191MOL0     C25091  10.250   1.513   1.152  0.7784 -0.2330 -0.3761
  191MOL0     C25092  10.136   1.595   1.216  0.4001  0.0817 -0.1108
  191MOL0     C25093  10.000   1.579   1.166  0.5908  0.1870  0.3045
  191MOL0     C25094   9.943   1.434   1.189 -0.3804  0.6831  0.4450
  191MOL0     C25095   9.797   1.414   1.146  0.2286 -0.2676  0.2601
  191MOL0     C25096   9.743   1.275   1.195  0.5181 -1.0474 -0.6481
  191MOL0     N25097   9.602   1.259   1.195 -0.8176  0.1220  0.0424
  191MOL0     C25098   9.513   1.345   1.252  0.6796 -0.6224 -0.4097
  191MOL0     C25099   9.391   1.317   1.212  0.8687  0.7448  0.9458
  191MOL0     C25100   9.263   1.366   1.275 -0.4459  0.2819 -0.3708
  191MOL0     C25101   9.191   1.248   1.334 -0.0099  0.1335  0.4536
  191MOL0     C25102   9.272   1.190   1.447  0.4967  0.3001 -0.6919
  191MOL0     C25103   9.187   1.083   1.531 -0.8429 -0.1817  0.1668
  191MOL0     O25104   9.095   1.135   1.629  0.0055  0.4624 -0.1516
  191MOL0     C25105   8.983   1.068   1.668  0.3959 -0.1793  0.1236
  191MOL0     C25106   8.888   1.140   1.733  0.6175  0.1836 -0.2981
  191MOL0     C25107   8.758   1.091   1.755  0.3293 -0.4608 -1.1915
  191MOL0     C25108   8.727   0.964   1.720 -0.3243 -0.3464  0.2652
  191MOL0     C25109   8.587   0.917   1.739  0.1990  0.3449  0.1402
  191MOL0     O25110   8.540   0.846   1.630 -0.4659 -0.5757 -0.6798
  191MOL0     C25111   8.410   0.795   1.620  0.8800 -0.3693  0.3918
  191MOL0     C25112   8.297   0.842   1.693 -0.1057  0.3269 -0.5799
  191MOL0     C25113   8.170   0.773   1.707 -0.8756 -0.0231  0.4778
  191MOL0     C25114   8.169   0.645   1.643 -1.0167  0.4253 -0.1390
  191MOL0     O25115   8.063   0.557   1.641 -0.1000  0.3669  0.1738
  191MOL0     C25116   7.933   0.604   1.693 -0.7072 -0.1629  0.2970
  191MOL0     C25117   7.831   0.511   1.656  0.9253 -0.9246 -0.4408
  191MOL0     C25118   7.687   0.568   1.684 -0.2201  0.1206 -0.0513
  191MOL0     C25119   7.595   0.448   1.648  0.2159  0.6844 -0.4124
  191MOL0     C25120   7.450   0.495   1.687  0.5168 -0.8331  0.4066
  191MOL0     C25121   7.380   0.571   1.580 -0.4372  0.7798 -0.2309
  191MOL0     C25122   7.237   0.601   1.621  0.3847 -0.4978  0.5490
  191MOL0     C25123   7.210   0.646   1.762 -0.3823 -0.6273 -0.7378
  191MOL0    Cl25124   7.044   0.709   1.795 -0.3673 -0.5991 -0.5428
  191MOL0     C25125   8.285   0.586   1.579  0.7141  0.8807  0.4768
  191MOL0     C25126   8.405   0.655   1.571 -0.0980  0.3799  0.3583
  191MOL0     O25127   8.521   0.959   1.831  0.0884 -0.0586 -0.1261
  191MOL0     C25128   8.823   0.892   1.648 -0.0829  0.8612  0.4723
  191MOL0     C25129   8.944   0.939   1.622 -0.3543  1.0656  0.0748
  191MOL0     N25130   9.406   1.204   1.123  0.7341  0.1673 -0.4420
  191MOL0     N25131   9.533   1.182   1.109 -0.2328  0.0773  0.2111
  191MOL0     C25132  10.746   1.539   0.960 -1.0217 -0.9302 -0.7830
  191MOL0     C25133  10.868   1.537   0.898 -1.0078 -0.8436  0.2480
  191MOL0     C25134  11.229   1.646   0.682 -0.0964  0.3441  0.1300
  191MOL0     C25135  11.351   1.634   0.752  0.3054  0.1522 -0.5613
  191MOL0     C25136  11.475   1.652   0.693  0.8064  0.8225 -0.0826
  191MOL0     C25137  11.480   1.652   0.552 -0.4986 -0.6343 -0.1635
  191MOL0     O25138  11.597   1.643   0.481 -0.6358 -0.4546 -0.7266
  191MOL0     C25139  11.724   1.652   0.557 -0.0707  0.1390  0.4021
  191MOL0     C25140  11.781   1.512   0.603 -0.2642  0.4851 -0.4749
  191MOL0     C25141  11.924   1.522   0.672 -0.1963 -0.2137 -0.2071
  191MOL0     C25142  11.956   1.399   0.760  0.5939  1.0334 -0.1488
  191MOL0     C25143  12.091   1.431   0.811  0.1962  0.0077 -0.1862
  191MOL0     C25144  12.202   1.437   0.855 -0.4771  0.1971 -0.1190
  191MOL0     C25145  11.363   1.654   0.476  0.5560 -0.7171 -0.3583
  191MOL0     C25146  11.235   1.646   0.542  0.8647  0.4956 -0.0331
  191MOL0     H25147  11.026   1.785   1.051  1.7333 -0.6714 -0.2555
  191MOL0     H25148  10.808   1.810   1.161  0.2067  0.7936  0.3711
  191MOL0     H25149  10.516   1.446   1.147 -0.1202 -0.2133 -1.5466
  191MOL0     H25150  10.456   1.540   1.010 -0.1980  0.6703  0.4248
  191MOL0     H25151  10.354   1.688   1.184 -2.0759 -0.2505 -0.8082
  191MOL0     H25152  10.388   1.570   1.316 -3.5226  1.4707  0.8339
  191MOL0     H25153  10.238   1.408   1.180 -2.7437  0.5521  1.7076
  191MOL0     H25154  10.242   1.515   1.043  2.3168 -2.2076 -0.5822
  191MOL0     H25155  10.134   1.593   1.326  0.4602 -2.5124 -0.1137
  191MOL0     H25156  10.155   1.702   1.200  0.7164  0.0969  0.3379
  191MOL0     H25157   9.993   1.605   1.060  1.4163 -0.6010  0.0421
  191MOL0     H25158   9.945   1.657   1.220  0.4732 -1.3921  2.6185
  191MOL0     H25159   9.945   1.414   1.297  1.0581  3.8911  1.1488
  191MOL0     H25160  10.009   1.361   1.142  1.0622  0.7179  2.2775
  191MOL0     H25161   9.745   1.498   1.195  2.5448  1.7059 -0.4835
  191MOL0     H25162   9.782   1.415   1.038 -1.4282 -2.5266  0.4011
  191MOL0     H25163   9.770   1.280   1.300  0.5405  2.1666 -0.7205
  191MOL0     H25164   9.791   1.191   1.144  0.2247 -1.4145 -0.3306
  191MOL0     H25165   9.527   1.424   1.326 -0.3619 -1.3562  0.6165
  191MOL0     H25166   9.201   1.418   1.202 -0.1057  1.6174  0.2510
  191MOL0     H25167   9.276   1.445   1.349  0.3239  1.2664 -1.5339
  191MOL0     H25168   9.163   1.173   1.260  0.0042 -0.4988  1.0775
  191MOL0     H25169   9.096   1.282   1.377 -0.5205  0.9905 -1.2680
  191MOL0     H25170   9.351   1.131   1.401 -0.2173  0.5323 -2.2715
  191MOL0     H25171   9.314   1.256   1.523 -0.6019 -1.5209  1.6361
  191MOL0     H25172   9.258   1.020   1.585 -1.7712 -0.9664  0.4932
  191MOL0     H25173   9.134   1.028   1.454 -0.8511 -0.6856  0.5289
  191MOL0     H25174   8.905   1.241   1.769 -0.4486 -0.1470  1.2465
  191MOL0     H25175   8.679   1.146   1.804  1.5202  0.1503  0.1114
  191MOL0     H25176   8.296   0.929   1.758  0.5337 -0.9148  1.2012
  191MOL0     H25177   8.094   0.815   1.772 -1.6351  0.2462 -0.5577
  191MOL0     H25178   7.908   0.706   1.664 -0.3074 -0.0652  0.2973
  191MOL0     H25179   7.938   0.586   1.801 -0.5786 -1.3268  0.1128
  191MOL0     H25180   7.838   0.414   1.706 -1.4445 -1.3423 -0.7792
  191MOL0     H25181   7.838   0.505   1.547  0.5215  2.8992 -0.8056
  191MOL0     H25182   7.677   0.661   1.627  1.4371 -0.7855 -1.9436
  191MOL0     H25183   7.683   0.601   1.788  0.5428  0.9591 -0.2790
  191MOL0     H25184   7.594   0.423   1.542 -0.6395  1.0150 -0.4921
  191MOL0     H25185   7.616   0.358   1.707 -0.3794  0.9028  0.1604
  191MOL0     H25186   7.450   0.545   1.784  0.1316  0.9391 -0.4606
  191MOL0     H25187   7.393   0.403   1.702 -1.0452  0.1789  0.9893
  191MOL0     H25188   7.368   0.501   1.497 -4.3344 -1.8811  2.2358
  191MOL0     H25189   7.427   0.668   1.565 -0.5789  1.9662  5.1029
  191MOL0     H25190   7.194   0.680   1.559 -0.3249  0.1933  1.8694
  191MOL0     H25191   7.171   0.519   1.593  0.0847 -0.3002  0.6734
  191MOL0     H25192   7.279   0.727   1.787  2.4121 -2.8181 -0.8262
  191MOL0     H25193   7.223   0.557   1.825 -1.9797 -1.4079 -1.4581
  191MOL0     H25194   8.278   0.482   1.547  0.0636  0.5199  1.6998
  191MOL0     H25195   8.489   0.610   1.518 -1.1141 -1.6064  0.3460
  191MOL0     H25196   8.791   0.800   1.599  2.6896  0.4351 -0.7557
  191MOL0     H25197   9.009   0.882   1.556  0.3670  2.8214 -0.7906
  191MOL0     H25198  10.667   1.467   0.944 -3.0012  0.6147  1.3496
  191MOL0     H25199  10.892   1.458   0.828 -2.4273 -1.1073  0.0226
  191MOL0     H25200  11.362   1.608   0.857  3.0210 -2.5662 -1.3699
  191MOL0     H25201  11.553   1.632   0.766  0.4425 -2.1849 -0.4160
  191MOL0     H25202  11.711   1.720   0.642 -0.5516  2.9665 -1.7876
  191MOL0     H25203  11.796   1.687   0.482  0.3516  1.6260  1.4579
  191MOL0     H25204  11.707   1.469   0.672  1.4988  2.0778  2.6116
  191MOL0     H25205  11.791   1.452   0.513  0.2052  2.3499 -1.7324
  191MOL0     H25206  11.922   1.615   0.729  0.0720  0.1371 -0.7618
  191MOL0     H25207  11.999   1.530   0.593 -1.1835  0.0735 -1.1261
  191MOL0     H25208  11.874   1.383   0.831 -1.0824 -3.8201 -2.7243
  191MOL0     H25209  11.960   1.309   0.699  1.0881 -0.0390  1.4171
  191MOL0     H25210  12.305   1.437   0.884 -0.3153 -2.4064 -0.4992
  191MOL0     H25211  11.369   1.657   0.368 -0.4309  1.4072 -0.3984
  191MOL0     H25212  11.144   1.657   0.484  1.7474 -1.5267 -1.9378
  192MOL0     O25213   0.686   1.031   3.743  0.7599  0.1299 -0.1549
  192MOL0     C25214   0.693   0.928   3.673  0.2063 -0.6713 -0.0977
  192MOL0     O25215   0.633   0.905   3.549  0.1977 -0.8410  0.2060
  192MOL0     C25216   0.529   0.997   3.523 -0.3194 -0.5888 -0.6688
  192MOL0     C25217   0.548   1.091   3.424 -0.5692  0.4348  0.1609
  192MOL0     C25218   0.438   1.167   3.387 -1.9100  0.1955  0.0405
  192MOL0     C25219   0.317   1.151   3.446  0.3612 -0.9478  0.0828
  192MOL0     O25220   0.217   1.233   3.411  0.6243 -0.5998 -0.7773
  192MOL0     C25221   0.187   1.334   3.501 -0.7700 -1.0039  0.0788
  192MOL0     C25222   0.035   1.358   3.523  0.3160  0.9112  0.5507
  192MOL0     C25223  -0.033   1.404   3.392  0.4693 -0.2204 -0.8436
  192MOL0     C25224  -0.187   1.397   3.399 -0.4881 -0.5696 -0.2196
  192MOL0     C25225  -0.242   1.445   3.268  0.0417  0.0731  0.0749
  192MOL0     C25226  -0.399   1.446   3.292  0.3273 -0.9231  0.1290
  192MOL0     C25227  -0.475   1.536   3.193  0.2929 -0.4044 -0.6460
  192MOL0     C25228  -0.418   1.570   3.056 -0.4383 -1.4411  0.7996
  192MOL0     N25229  -0.494   1.658   2.962 -0.7012 -0.2262  0.8474
  192MOL0     C25230  -0.442   1.714   2.841  0.2612  0.1736 -0.5151
  192MOL0     C25231  -0.547   1.716   2.761 -0.3251  0.0005 -0.3615
  192MOL0     C25232  -0.545   1.765   2.619 -0.3873  0.3949  0.6948
  192MOL0     C25233  -0.462   1.665   2.532  0.3916  0.0482 -0.3486
  192MOL0     C25234  -0.464   1.715   2.390  0.4817  0.1851 -0.9080
  192MOL0     C25235  -0.402   1.613   2.292 -0.1022  0.6730  1.0044
  192MOL0     O25236  -0.262   1.592   2.318 -0.3012 -0.1887 -0.4775
  192MOL0     C25237  -0.186   1.501   2.247 -0.0663 -0.0635  0.0581
  192MOL0     C25238  -0.059   1.468   2.291 -0.2039  0.0834 -0.2827
  192MOL0     C25239   0.026   1.390   2.220  0.1002  0.1867  0.5638
  192MOL0     C25240  -0.008   1.341   2.095 -0.0131  0.4559  0.0142
  192MOL0     C25241   0.091   1.268   2.019 -1.1830 -0.4763  0.1765
  192MOL0     O25242   0.220   1.289   2.067 -0.0495  0.1023  0.0262
  192MOL0     C25243   0.328   1.230   1.997  0.0644  0.1357 -0.0628
  192MOL0     C25244   0.335   1.237   1.854  0.7256  0.0506 -0.1149
  192MOL0     C25245   0.444   1.194   1.789  0.3149  0.7541  0.1912
  192MOL0     C25246   0.543   1.120   1.865 -0.4649  0.2645  0.0893
  192MOL0     O25247   0.646   1.064   1.790  0.9469 -0.0186 -0.6674
  192MOL0     C25248   0.767   1.132   1.826  0.4799  0.5232  0.7559
  192MOL0     C25249   0.860   1.151   1.705 -0.1584 -0.1366 -0.3993
  192MOL0     C25250   0.975   1.235   1.746 -0.5576  0.7203 -0.0179
  192MOL0     C25251   1.102   1.177   1.679 -0.2970 -0.0317  0.0717
  192MOL0     C25252   1.222   1.257   1.700 -0.0944 -0.0648  0.5978
  192MOL0     C25253   1.333   1.170   1.758  0.1786  0.1708  0.2897
  192MOL0     C25254   1.469   1.237   1.752 -0.2571  0.0188  0.2070
  192MOL0     C25255   1.482   1.353   1.857  0.1864 -0.8620 -0.4411
  192MOL0    Cl25256   1.652   1.405   1.854  0.0383 -0.2009 -0.0225
  192MOL0     C25257   0.525   1.098   2.002  0.1809 -0.0341  1.0637
  192MOL0     C25258   0.413   1.152   2.072  0.1122  0.7335 -0.5175
  192MOL0     O25259   0.061   1.204   1.922  0.0052 -0.4195  0.5488
  192MOL0     C25260  -0.137   1.369   2.053  0.1282 -0.4838  1.3062
  192MOL0     C25261  -0.229   1.447   2.129  0.3618  0.4669  0.4295
  192MOL0     N25262  -0.659   1.678   2.825  0.2550 -0.5289 -0.0405
  192MOL0     N25263  -0.626   1.651   2.946 -0.0453 -1.2126  0.2728
  192MOL0     C25264   0.300   1.052   3.541  0.3449  0.3383 -0.3968
  192MOL0     C25265   0.404   0.982   3.584  0.0029  1.0352 -0.6432
  192MOL0     C25266   0.792   0.825   3.705  0.0724  0.3357 -0.8610
  192MOL0     C25267   0.854   0.834   3.830 -0.6003  0.7497  0.0126
  192MOL0     C25268   0.937   0.724   3.866 -0.3901 -0.1551  0.0462
  192MOL0     C25269   0.959   0.606   3.780  0.8336  0.1005 -0.6541
  192MOL0     O25270   1.044   0.508   3.833  0.0850 -0.4622  0.0406
  192MOL0     C25271   1.056   0.382   3.761  0.0700 -0.1856 -0.9815
  192MOL0     C25272   1.162   0.386   3.651 -0.1286 -0.1091  0.0241
  192MOL0     C25273   1.300   0.430   3.714 -0.2606  0.7203  0.6361
  192MOL0     C25274   1.324   0.580   3.708 -0.6247  0.3347  0.2627
  192MOL0     C25275   1.330   0.631   3.576 -1.6241 -1.0169  0.0995
  192MOL0     C25276   1.343   0.668   3.465 -0.1185  0.7036  0.4539
  192MOL0     C25277   0.897   0.605   3.658  0.5937 -0.6105 -0.6182
  192MOL0     C25278   0.814   0.710   3.617  0.3181  0.5205 -0.3354
  192MOL0     H25279   0.640   1.086   3.367  1.4964 -1.0761  3.4067
  192MOL0     H25280   0.448   1.240   3.308  0.6054  1.4596  1.4130
  192MOL0     H25281   0.238   1.425   3.466 -1.0495 -1.3779 -1.3994
  192MOL0     H25282   0.218   1.307   3.602  2.6602  1.7626 -0.0363
  192MOL0     H25283   0.009   1.430   3.600 -1.8228  2.5184 -1.5187
  192MOL0     H25284  -0.004   1.258   3.545 -0.3797  0.5044 -2.1254
  192MOL0     H25285   0.001   1.344   3.307 -1.0964 -0.4601 -1.3339
  192MOL0     H25286   0.002   1.507   3.375  2.3891 -0.5959  0.5808
  192MOL0     H25287  -0.221   1.294   3.418 -2.6399  0.0707 -0.2918
  192MOL0     H25288  -0.227   1.462   3.477 -0.4419 -1.1266  0.2784
  192MOL0     H25289  -0.226   1.369   3.191  0.6825 -0.2293  0.5019
  192MOL0     H25290  -0.204   1.545   3.245 -1.2841  0.5336 -0.2302
  192MOL0     H25291  -0.414   1.486   3.392  1.9672 -1.4929  0.6343
  192MOL0     H25292  -0.431   1.342   3.288  1.2484 -1.1968 -0.8082
  192MOL0     H25293  -0.576   1.495   3.182 -0.5201  1.5203 -0.7233
  192MOL0     H25294  -0.486   1.630   3.248  1.0880 -0.5975 -0.1556
  192MOL0     H25295  -0.399   1.481   2.995  0.8113 -0.7227  0.0970
  192MOL0     H25296  -0.326   1.626   3.075 -1.1065  0.2033 -0.5583
  192MOL0     H25297  -0.338   1.734   2.817  0.1422 -3.0502 -5.2982
  192MOL0     H25298  -0.489   1.858   2.605 -2.6898  1.4314 -3.5001
  192MOL0     H25299  -0.648   1.782   2.584 -0.0918 -0.2434 -0.5665
  192MOL0     H25300  -0.510   1.567   2.540 -0.4054  0.5671  2.3130
  192MOL0     H25301  -0.361   1.666   2.574 -0.8857  0.9949  2.9847
  192MOL0     H25302  -0.564   1.728   2.349  1.1875  0.2756 -2.6624
  192MOL0     H25303  -0.403   1.805   2.384  2.5235 -0.9313  1.2085
  192MOL0     H25304  -0.413   1.645   2.188  3.3715 -0.4698  0.1623
  192MOL0     H25305  -0.448   1.513   2.299  1.3733  0.0905  3.4506
  192MOL0     H25306  -0.021   1.509   2.384  0.0638 -2.4110  0.7940
  192MOL0     H25307   0.121   1.359   2.263  0.6965 -3.5874 -2.8099
  192MOL0     H25308   0.268   1.299   1.795  0.2764 -0.3631 -0.0473
  192MOL0     H25309   0.433   1.194   1.681  2.7764  2.4127 -0.1340
  192MOL0     H25310   0.821   1.077   1.904 -0.0806 -0.3830  0.5236
  192MOL0     H25311   0.733   1.231   1.859 -2.7656 -0.0167 -0.5751
  192MOL0     H25312   0.815   1.199   1.617 -0.5126 -3.3662 -2.1111
  192MOL0     H25313   0.891   1.050   1.678  0.5531 -0.7844  2.5710
  192MOL0     H25314   0.998   1.231   1.853  1.5287  1.8775 -0.3764
  192MOL0     H25315   0.972   1.342   1.723  1.1041  0.5097 -1.3888
  192MOL0     H25316   1.121   1.077   1.720  0.5926 -0.3121 -0.9916
  192MOL0     H25317   1.075   1.160   1.574  0.8321 -4.7747  0.3343
  192MOL0     H25318   1.212   1.348   1.761  1.7699  0.3645  0.3310
  192MOL0     H25319   1.254   1.295   1.602  1.2705 -3.4867 -0.4441
  192MOL0     H25320   1.340   1.081   1.696 -1.5434  1.3669 -1.7610
  192MOL0     H25321   1.322   1.137   1.862  0.8712 -1.4486 -0.1226
  192MOL0     H25322   1.553   1.170   1.769  0.9416  1.1612 -0.9696
  192MOL0     H25323   1.483   1.283   1.654  3.9238  0.2862  0.7598
  192MOL0     H25324   1.453   1.312   1.954  0.4746 -2.0094 -0.8327
  192MOL0     H25325   1.417   1.438   1.835 -1.5944 -1.8687  0.6823
  192MOL0     H25326   0.597   1.060   2.073  1.7244  0.4487 -0.1953
  192MOL0     H25327   0.404   1.134   2.179  1.6245 -0.4902 -0.5555
  192MOL0     H25328  -0.161   1.333   1.954  1.2848 -0.4807  1.0041
  192MOL0     H25329  -0.329   1.469   2.094  0.4358 -2.0711 -1.6617
  192MOL0     H25330   0.199   1.035   3.577  0.5647 -1.0778 -0.4080
  192MOL0     H25331   0.394   0.907   3.662 -0.0004  0.5316 -1.1185
  192MOL0     H25332   0.837   0.914   3.902 -1.6237 -0.9580  1.7746
  192MOL0     H25333   0.975   0.716   3.967  0.5331  1.6388 -0.1190
  192MOL0     H25334   0.957   0.350   3.728  1.7973 -1.9949 -5.1258
  192MOL0     H25335   1.083   0.307   3.837 -0.8570 -0.8388 -1.2710
  192MOL0     H25336   1.173   0.289   3.600  2.0482  0.5387 -0.8389
  192MOL0     H25337   1.141   0.455   3.569 -2.2355 -0.6060  0.1074
  192MOL0     H25338   1.381   0.378   3.662 -0.4860 -2.1838  2.9407
  192MOL0     H25339   1.313   0.391   3.815  2.7437 -1.2461 -0.3631
  192MOL0     H25340   1.242   0.632   3.758 -0.8230  0.6018 -0.3299
  192MOL0     H25341   1.417   0.594   3.764 -0.2385 -1.8276  0.2711
  192MOL0     H25342   1.363   0.683   3.360  1.3245  0.5732  0.6821
  192MOL0     H25343   0.918   0.526   3.587  1.5455  0.0488 -1.0888
  192MOL0     H25344   0.764   0.696   3.521 -0.0564  0.6439 -0.1570
  193MOL0     O25345   0.320   3.762   9.050 -0.4328 -0.2865  0.1618
  193MOL0     C25346   0.272   3.844   8.979  0.4143  0.7862 -0.2032
  193MOL0     O25347   0.328   3.877   8.857 -0.0311  0.1750 -0.5249
  193MOL0     C25348   0.451   3.819   8.828 -0.2190  0.2386 -0.6784
  193MOL0     C25349   0.561   3.859   8.903  0.0753 -1.0829 -0.0802
  193MOL0     C25350   0.694   3.816   8.877 -0.1201 -0.8459  0.1028
  193MOL0     C25351   0.711   3.736   8.765  0.3449 -0.3236  0.5664
  193MOL0     O25352   0.834   3.707   8.719 -0.3472 -0.2461  0.3061
  193MOL0     C25353   0.854   3.580   8.640 -0.1035  0.7517  0.6191
  193MOL0     C25354   1.003   3.552   8.618 -0.0155  0.2213  0.1782
  193MOL0     C25355   1.056   3.602   8.478  0.0260  0.6135 -0.4218
  193MOL0     C25356   1.202   3.588   8.447 -0.0199  0.1037 -0.6863
  193MOL0     C25357   1.235   3.589   8.301 -1.6493 -0.2213 -1.0721
  193MOL0     C25358   1.379   3.544   8.282 -0.4310  0.1815 -0.4460
  193MOL0     C25359   1.401   3.533   8.129 -0.8950  0.0806 -0.1622
  193MOL0     C25360   1.536   3.463   8.088 -0.3487  1.4144 -0.5924
  193MOL0     N25361   1.564   3.331   8.160 -0.3263 -0.0975 -0.4772
  193MOL0     C25362   1.508   3.207   8.134 -0.0756 -0.2507  0.9475
  193MOL0     C25363   1.568   3.128   8.221 -0.8966  0.1736  0.6699
  193MOL0     C25364   1.535   2.985   8.246 -0.2939 -0.7441 -0.1893
  193MOL0     C25365   1.589   2.902   8.135  0.7542 -0.0036  0.3091
  193MOL0     C25366   1.540   2.760   8.170  0.2483 -0.6196  0.7856
  193MOL0     C25367   1.522   2.666   8.046  0.2643  0.0660 -0.7684
  193MOL0     O25368   1.511   2.530   8.082 -0.3407 -0.5390  0.0594
  193MOL0     C25369   1.624   2.456   8.097 -0.1421 -0.6200 -0.0855
  193MOL0     C25370   1.754   2.505   8.098 -0.1994  0.7438 -0.4273
  193MOL0     C25371   1.864   2.421   8.104  0.7860  0.5332 -0.0622
  193MOL0     C25372   1.842   2.287   8.125  0.8161  0.2814 -0.7138
  193MOL0     C25373   1.947   2.186   8.136 -0.2905 -0.9385  0.2595
  193MOL0     O25374   1.918   2.053   8.171  0.6873 -0.5883 -0.4876
  193MOL0     C25375   2.018   1.967   8.165 -0.7235 -0.0225  0.7038
  193MOL0     C25376   2.020   1.850   8.084  0.6604  0.4810 -0.3106
  193MOL0     C25377   2.125   1.759   8.079 -0.2733  1.8843  0.1155
  193MOL0     C25378   2.230   1.782   8.160  0.1020  0.3639 -0.3952
  193MOL0     O25379   2.322   1.682   8.179  0.0624 -1.0306 -0.1306
  193MOL0     C25380   2.453   1.700   8.230 -0.4623  0.1946 -0.6736
  193MOL0     C25381   2.557   1.778   8.148  0.9980  0.0927 -0.5098
  193MOL0     C25382   2.700   1.719   8.152  0.1332  0.3196  0.4942
  193MOL0     C25383   2.765   1.743   8.299 -0.0051  0.3587  0.1256
  193MOL0     C25384   2.909   1.686   8.292 -0.4741  0.9437  0.2749
  193MOL0     C25385   2.995   1.734   8.413  1.0521  1.0020 -0.9008
  193MOL0     C25386   3.124   1.651   8.423 -0.0826 -0.7290  0.3620
  193MOL0     C25387   3.215   1.675   8.298 -0.8089  0.5479  0.3473
  193MOL0    Cl25388   3.383   1.670   8.358 -0.3036  0.3431  0.0132
  193MOL0     C25389   2.237   1.902   8.236 -0.4152 -0.3567  0.1918
  193MOL0     C25390   2.134   1.993   8.245 -0.7187  1.1606 -0.8221
  193MOL0     O25391   2.062   2.231   8.126  0.0872  0.6546  0.9931
  193MOL0     C25392   1.712   2.236   8.152 -0.2817  0.4776 -0.0286
  193MOL0     C25393   1.612   2.328   8.141  0.3950  0.2556  0.1846
  193MOL0     N25394   1.667   3.198   8.293 -0.2253 -0.2381  0.3584
  193MOL0     N25395   1.662   3.321   8.248 -0.7901 -0.0351 -0.6118
  193MOL0     C25396   0.595   3.685   8.698 -0.6735  0.1148  0.1385
  193MOL0     C25397   0.471   3.739   8.724 -0.3989 -0.1848 -0.3263
  193MOL0     C25398   0.145   3.899   9.030  0.0416  1.3574  0.5807
  193MOL0     C25399   0.061   3.832   9.126  0.0386  0.4673 -0.2377
  193MOL0     C25400  -0.058   3.889   9.169 -0.9589  0.5792  0.4485
  193MOL0     C25401  -0.092   4.022   9.122  0.3715 -0.2994 -0.4240
  193MOL0     O25402  -0.205   4.090   9.168 -0.4981 -0.2852  0.2560
  193MOL0     C25403  -0.257   4.195   9.079  0.1459 -0.7388 -0.8205
  193MOL0     C25404  -0.400   4.197   9.109  1.0742  0.2301 -0.5234
  193MOL0     C25405  -0.467   4.289   9.010  0.4566  0.2571 -0.4291
  193MOL0     C25406  -0.619   4.269   9.027  0.1564 -0.1999 -0.0396
  193MOL0     C25407  -0.668   4.181   8.930  0.1988  0.8292  0.1424
  193MOL0     C25408  -0.696   4.096   8.852  0.2374 -0.2304  0.4805
  193MOL0     C25409  -0.012   4.085   9.032  0.0347  0.3064  0.0758
  193MOL0     C25410   0.096   4.021   8.980  1.0496  1.3175  1.4492
  193MOL0     H25411   0.542   3.924   8.988  0.6708 -0.4720 -0.3972
  193MOL0     H25412   0.785   3.834   8.934  0.1548  0.4495 -0.6949
  193MOL0     H25413   0.798   3.601   8.548 -1.8498  1.0490  1.7008
  193MOL0     H25414   0.811   3.491   8.686 -0.3179  1.4179  1.7467
  193MOL0     H25415   1.022   3.445   8.631  2.0106  0.4223 -0.6975
  193MOL0     H25416   1.065   3.600   8.695  0.9283 -1.1017  0.2839
  193MOL0     H25417   1.022   3.705   8.465 -1.4714  0.3485  0.9910
  193MOL0     H25418   1.012   3.531   8.407 -0.9439  1.7600 -1.0148
  193MOL0     H25419   1.264   3.657   8.505  1.2399 -1.5335  0.0058
  193MOL0     H25420   1.224   3.487   8.482  0.9014  0.1282 -1.1555
  193MOL0     H25421   1.222   3.684   8.249 -3.3667 -0.3565 -0.9444
  193MOL0     H25422   1.168   3.523   8.245  0.4077 -2.4946 -1.0511
  193MOL0     H25423   1.361   3.444   8.323 -1.5843  0.0502 -1.2229
  193MOL0     H25424   1.452   3.612   8.327  0.8103 -1.5294  0.2340
  193MOL0     H25425   1.325   3.471   8.081 -0.5284 -1.3683  1.0861
  193MOL0     H25426   1.413   3.635   8.091 -0.1986 -0.4310 -1.3687
  193MOL0     H25427   1.616   3.532   8.119 -1.5113  1.7254  1.9582
  193MOL0     H25428   1.545   3.453   7.979  2.9179 -1.2177 -0.2543
  193MOL0     H25429   1.434   3.175   8.061  1.8247 -2.0887 -0.2599
  193MOL0     H25430   1.426   2.988   8.242 -0.4589 -1.1062  2.4852
  193MOL0     H25431   1.562   2.949   8.346 -0.1353 -2.5322 -0.8495
  193MOL0     H25432   1.698   2.905   8.141  0.7948 -0.8754  0.1266
  193MOL0     H25433   1.550   2.935   8.039  2.7728  1.4214 -0.0889
  193MOL0     H25434   1.609   2.712   8.239 -1.1528 -0.8661  2.0639
  193MOL0     H25435   1.447   2.763   8.227  1.2507  2.0641  2.4719
  193MOL0     H25436   1.590   2.685   7.963 -0.0586 -3.3363 -2.0154
  193MOL0     H25437   1.424   2.683   7.999 -1.2596 -2.4723  1.2046
  193MOL0     H25438   1.767   2.613   8.099 -4.9457  1.5303  1.7183
  193MOL0     H25439   1.964   2.464   8.101  0.4397  1.6954  2.4092
  193MOL0     H25440   1.946   1.820   8.011  1.9103 -0.3982 -1.2659
  193MOL0     H25441   2.124   1.662   8.031 -0.5161  0.7720  2.2302
  193MOL0     H25442   2.487   1.597   8.221  2.3539  1.1455 -2.0155
  193MOL0     H25443   2.440   1.734   8.334 -2.1409 -0.0202 -0.7866
  193MOL0     H25444   2.563   1.882   8.182  1.0592 -0.0377 -0.1163
  193MOL0     H25445   2.532   1.778   8.042 -3.7954 -0.0599  0.4269
  193MOL0     H25446   2.769   1.771   8.085  0.8562 -0.1205  0.8747
  193MOL0     H25447   2.702   1.613   8.123 -0.2680  0.5672 -0.4620
  193MOL0     H25448   2.772   1.850   8.323  1.8992  0.5256 -0.9342
  193MOL0     H25449   2.715   1.694   8.383  0.4988 -1.0957 -0.3902
  193MOL0     H25450   2.963   1.723   8.204 -0.0119  0.4521  0.3460
  193MOL0     H25451   2.897   1.577   8.295 -4.1923  1.2148 -0.2840
  193MOL0     H25452   2.940   1.719   8.506  0.9790  0.7327 -0.9854
  193MOL0     H25453   3.012   1.842   8.410 -1.8213  1.8554  3.8156
  193MOL0     H25454   3.181   1.688   8.508  0.5830  0.7267 -0.6900
  193MOL0     H25455   3.106   1.543   8.429 -4.3557 -0.2897 -0.8200
  193MOL0     H25456   3.199   1.771   8.247  3.4426  1.0855 -0.2987
  193MOL0     H25457   3.218   1.599   8.220  2.7628 -0.6295  1.4410
  193MOL0     H25458   2.318   1.917   8.307  0.6136 -1.7781 -0.6358
  193MOL0     H25459   2.137   2.068   8.323 -0.5290 -1.0939  1.4986
  193MOL0     H25460   1.689   2.132   8.175  0.3558  0.3844  0.2305
  193MOL0     H25461   1.510   2.292   8.156  0.0177  1.0126 -0.5012
  193MOL0     H25462   0.601   3.618   8.613  1.4861  0.5907 -0.1454
  193MOL0     H25463   0.387   3.713   8.662 -1.6092 -0.4574  1.3518
  193MOL0     H25464   0.105   3.744   9.172 -1.6195 -1.2390 -1.7633
  193MOL0     H25465  -0.127   3.851   9.244 -1.1532  1.3184  0.6572
  193MOL0     H25466  -0.245   4.188   8.971  1.9360 -0.8970 -0.6550
  193MOL0     H25467  -0.213   4.293   9.098 -3.3669  1.0454 -1.2895
  193MOL0     H25468  -0.442   4.096   9.110 -0.7865  0.9159  2.5895
  193MOL0     H25469  -0.419   4.231   9.211 -1.5033 -1.5541 -0.3047
  193MOL0     H25470  -0.440   4.264   8.907  0.0011 -0.8700 -0.2852
  193MOL0     H25471  -0.443   4.394   9.031  1.9610  0.1309 -1.3451
  193MOL0     H25472  -0.652   4.219   9.118  0.8262 -0.6618 -0.0478
  193MOL0     H25473  -0.660   4.371   9.016  1.4689  0.2829 -0.6534
  193MOL0     H25474  -0.721   4.013   8.790  2.1786  0.2701 -1.1118
  193MOL0     H25475  -0.029   4.188   9.001  2.1794  0.7762  0.3067
  193MOL0     H25476   0.153   4.081   8.909 -0.1522 -1.2433 -2.0027
  194MOL0     O25477   7.689  10.431   2.965  0.0587 -0.5544  0.2697
  194MOL0     C25478   7.801  10.390   2.981 -0.4410 -0.2293 -0.5324
  194MOL0     O25479   7.839  10.271   3.049  0.2478 -0.1614 -0.1620
  194MOL0     C25480   7.738  10.205   3.118 -0.9497 -0.6287 -1.6621
  194MOL0     C25481   7.723  10.230   3.258  0.1732 -1.2430  0.5091
  194MOL0     C25482   7.612  10.179   3.332  1.6414  0.6284 -0.5040
  194MOL0     C25483   7.518  10.102   3.268 -0.5471 -0.1435  0.3292
  194MOL0     O25484   7.406  10.058   3.343 -0.3439  0.2690  0.3250
  194MOL0     C25485   7.285  10.020   3.275  0.4508  0.4535 -0.5798
  194MOL0     C25486   7.204  10.129   3.209 -0.2464 -0.3819 -0.2352
  194MOL0     C25487   7.077  10.071   3.155  0.0935 -0.0602  0.4837
  194MOL0     C25488   7.001  10.169   3.064 -0.2265  0.2725 -0.0557
  194MOL0     C25489   6.853  10.141   3.065  1.1990  1.0618 -0.1105
  194MOL0     C25490   6.772  10.215   2.959  0.2222  0.1226 -0.0995
  194MOL0     C25491   6.625  10.222   3.005 -0.7809  0.4429  0.1213
  194MOL0     C25492   6.532  10.238   2.882  0.7507 -0.0726 -0.5773
  194MOL0     N25493   6.390  10.244   2.927 -0.1783  0.0847  0.0446
  194MOL0     C25494   6.293  10.149   2.891  0.1479  0.1571  0.1043
  194MOL0     C25495   6.175  10.205   2.932  0.8944 -0.5720 -0.0643
  194MOL0     C25496   6.037  10.145   2.924  0.8349  0.0578 -0.3921
  194MOL0     C25497   5.913  10.211   2.989 -0.1172 -0.4174 -0.7188
  194MOL0     C25498   5.792  10.125   2.987  0.6291 -0.2084 -0.1215
  194MOL0     C25499   5.658  10.196   3.023 -0.5051  0.4658  0.0455
  194MOL0     O25500   5.654  10.223   3.167 -0.0515 -0.5587 -0.7086
  194MOL0     C25501   5.528  10.216   3.226  0.1310  0.6877 -0.1235
  194MOL0     C25502   5.417  10.272   3.166 -0.9939 -0.3003  0.7712
  194MOL0     C25503   5.291  10.270   3.228 -0.4516  0.1738  0.2448
  194MOL0     C25504   5.277  10.213   3.353 -0.3416 -2.0167  1.0938
  194MOL0     C25505   5.156  10.234   3.432 -0.3814 -0.4421  0.2034
  194MOL0     O25506   5.160  10.222   3.567 -0.2996  0.5788  0.3076
  194MOL0     C25507   5.044  10.220   3.638 -0.2661  0.2274 -0.0893
  194MOL0     C25508   5.006  10.326   3.724  0.3202 -0.3574 -0.0880
  194MOL0     C25509   4.883  10.341   3.773  0.3351 -0.0423  0.2938
  194MOL0     C25510   4.791  10.239   3.753  0.7349  0.1671  0.0540
  194MOL0     O25511   4.665  10.231   3.804 -0.0127 -1.0075 -0.0685
  194MOL0     C25512   4.659  10.269   3.948  0.1818 -0.4662 -0.2141
  194MOL0     C25513   4.520  10.233   3.999 -0.2451 -0.1831 -0.8070
  194MOL0     C25514   4.489  10.283   4.144  0.4559 -0.5712  0.0153
  194MOL0     C25515   4.340  10.259   4.160 -0.3175 -0.0951 -0.5334
  194MOL0     C25516   4.281  10.315   4.292 -0.4674  0.4495  0.7569
  194MOL0     C25517   4.128  10.293   4.303 -1.0632  0.1912 -0.3543
  194MOL0     C25518   4.059  10.416   4.255  0.0367  0.4722 -0.1793
  194MOL0     C25519   3.904  10.377   4.255 -0.1615  0.0661 -0.6086
  194MOL0    Cl25520   3.825  10.423   4.407  0.1247  0.0606 -0.2595
  194MOL0     C25521   4.816  10.135   3.661 -0.8684  0.3542 -0.4812
  194MOL0     C25522   4.946  10.120   3.611 -0.1374  0.4075 -0.5748
  194MOL0     O25523   5.056  10.263   3.363  0.2496  0.0322  0.4274
  194MOL0     C25524   5.390  10.162   3.416 -0.0665 -0.3855 -1.5219
  194MOL0     C25525   5.514  10.178   3.360 -0.9031 -0.5970 -0.4364
  194MOL0     N25526   6.203  10.329   2.992  0.9719 -0.3653  0.6673
  194MOL0     N25527   6.326  10.357   2.976  0.1632 -0.5806  1.3054
  194MOL0     C25528   7.537  10.087   3.126 -0.1910 -0.2444 -0.9140
  194MOL0     C25529   7.645  10.123   3.049 -0.1957 -0.0253  0.0491
  194MOL0     C25530   7.912  10.474   2.926  0.3759 -1.5143  0.0347
  194MOL0     C25531   8.044  10.437   2.954 -0.0848 -0.1753 -0.4157
  194MOL0     C25532   8.154  10.496   2.902 -0.3734 -0.2268 -0.2911
  194MOL0     C25533   8.135  10.621   2.827 -0.4041  0.9880 -0.5188
  194MOL0     O25534   8.240  10.692   2.775 -0.2090  0.0535  0.5667
  194MOL0     C25535   8.374  10.657   2.780 -0.7665 -0.1729  0.6518
  194MOL0     C25536   8.455  10.731   2.677 -0.0699  0.6377  0.2836
  194MOL0     C25537   8.601  10.700   2.673 -0.1721  0.6819 -0.9696
  194MOL0     C25538   8.664  10.739   2.541  0.1589  0.2629  0.1452
  194MOL0     C25539   8.806  10.721   2.545 -0.0584  0.1585  0.0647
  194MOL0     C25540   8.929  10.707   2.555  0.3819  0.7054 -0.0829
  194MOL0     C25541   8.003  10.662   2.797 -0.1681  0.5879  0.7691
  194MOL0     C25542   7.886  10.583   2.835 -0.1509 -1.2975  0.7611
  194MOL0     H25543   7.808  10.271   3.312  1.2803  0.4406 -2.2668
  194MOL0     H25544   7.590  10.188   3.438 -3.0337 -1.5619 -1.0254
  194MOL0     H25545   7.229   9.970   3.354  1.0769 -2.7543 -2.0253
  194MOL0     H25546   7.298   9.945   3.197  1.4946  1.0984 -1.0467
  194MOL0     H25547   7.250  10.165   3.116 -0.3956  1.0375  0.2254
  194MOL0     H25548   7.184  10.217   3.271  2.2755 -0.3396  0.6590
  194MOL0     H25549   7.008  10.055   3.239 -1.4195  1.8934 -0.2907
  194MOL0     H25550   7.100   9.981   3.098  0.5442 -1.6083  2.9288
  194MOL0     H25551   7.020  10.274   3.087  1.3802  0.0246 -0.1137
  194MOL0     H25552   7.037  10.151   2.962  1.4589  0.8552  0.3983
  194MOL0     H25553   6.812  10.164   3.164 -0.3957 -2.1088  0.0808
  194MOL0     H25554   6.833  10.036   3.044  0.4618  0.7896  1.7511
  194MOL0     H25555   6.774  10.160   2.865  1.3760  2.2723 -1.4190
  194MOL0     H25556   6.811  10.316   2.942  2.2983 -0.4663  0.8188
  194MOL0     H25557   6.596  10.124   3.042 -1.5529  0.9609  0.9363
  194MOL0     H25558   6.609  10.308   3.071  0.3413  1.8356 -1.3168
  194MOL0     H25559   6.551  10.169   2.799 -1.4371 -0.9159 -0.4415
  194MOL0     H25560   6.544  10.342   2.848  1.5785 -0.2661 -0.8972
  194MOL0     H25561   6.307  10.060   2.831 -0.1830  1.0353 -1.3468
  194MOL0     H25562   6.050  10.050   2.977 -2.2563  1.6726  3.7577
  194MOL0     H25563   6.012  10.141   2.818 -2.8819  1.4528  0.2695
  194MOL0     H25564   5.906  10.305   2.932  1.1783 -0.6750 -1.3190
  194MOL0     H25565   5.935  10.239   3.093  0.9003 -0.6285 -0.8705
  194MOL0     H25566   5.791  10.069   2.893  2.2030 -0.2154 -0.1620
  194MOL0     H25567   5.808  10.057   3.072 -0.9610  2.3229  2.3986
  194MOL0     H25568   5.581  10.124   2.998 -0.9854  1.1854 -0.6027
  194MOL0     H25569   5.637  10.283   2.960 -2.3745  1.2162  1.6023
  194MOL0     H25570   5.420  10.311   3.064  3.0957  2.6129  1.7345
  194MOL0     H25571   5.215  10.325   3.174 -1.8626 -1.3248  0.5937
  194MOL0     H25572   5.083  10.401   3.739  1.5109 -1.3643 -1.0329
  194MOL0     H25573   4.856  10.435   3.821  0.1130 -0.5265  1.1520
  194MOL0     H25574   4.676  10.377   3.957 -0.2658 -0.5689  2.8594
  194MOL0     H25575   4.728  10.215   4.012 -1.1267 -1.8081  0.1254
  194MOL0     H25576   4.502  10.126   3.988 -0.3273 -0.3203  0.5239
  194MOL0     H25577   4.454  10.290   3.933  2.0523  3.8325  0.0067
  194MOL0     H25578   4.496  10.392   4.145  2.0596 -0.6475  1.4550
  194MOL0     H25579   4.539  10.240   4.232  0.9926  2.7264  1.4896
  194MOL0     H25580   4.286  10.291   4.071  0.4310  0.1667 -0.8991
  194MOL0     H25581   4.331  10.150   4.152 -0.3928  0.0630 -3.9509
  194MOL0     H25582   4.308  10.421   4.302  0.9133  0.2425 -0.4031
  194MOL0     H25583   4.336  10.272   4.377  0.8564  1.9229  0.7132
  194MOL0     H25584   4.101  10.266   4.405 -1.5972 -0.7164 -0.7212
  194MOL0     H25585   4.109  10.207   4.237  1.8539 -2.2240  1.6380
  194MOL0     H25586   4.068  10.512   4.308  1.8599  0.5057 -0.4676
  194MOL0     H25587   4.096  10.436   4.154  0.1559  3.0136  0.2893
  194MOL0     H25588   3.887  10.270   4.239  2.4517 -0.2530 -1.8240
  194MOL0     H25589   3.850  10.430   4.176 -2.1537 -3.1641 -1.6300
  194MOL0     H25590   4.737  10.064   3.640 -0.2069  0.3448 -3.4226
  194MOL0     H25591   4.969  10.029   3.558  0.6385  0.0300  0.3866
  194MOL0     H25592   5.390  10.133   3.521  0.1089  0.3908 -1.2988
  194MOL0     H25593   5.605  10.155   3.415 -1.3131 -1.6282 -0.1789
  194MOL0     H25594   7.460  10.031   3.075  1.4875 -3.2146 -0.3871
  194MOL0     H25595   7.646  10.112   2.941 -1.1648  0.8530 -0.0582
  194MOL0     H25596   8.071  10.365   3.030  2.3837 -0.9828 -1.9343
  194MOL0     H25597   8.256  10.472   2.930 -0.1308 -0.8483 -1.6271
  194MOL0     H25598   8.389  10.549   2.768  2.5568  0.2279  0.0415
  194MOL0     H25599   8.401  10.686   2.882 -3.2217  2.6957  0.6042
  194MOL0     H25600   8.413  10.716   2.577  0.4809 -0.7632  0.2510
  194MOL0     H25601   8.439  10.835   2.708  1.3640  0.3357  2.2119
  194MOL0     H25602   8.607  10.592   2.689  2.9629  0.7721 -0.9281
  194MOL0     H25603   8.651  10.755   2.753 -0.6356  1.9310 -1.5152
  194MOL0     H25604   8.620  10.676   2.463  1.5454  1.8207 -1.9743
  194MOL0     H25605   8.645  10.844   2.519  1.6551  0.6425  0.5201
  194MOL0     H25606   9.034  10.706   2.577  1.9595 -0.8041 -5.9558
  194MOL0     H25607   7.994  10.741   2.724  0.0394 -0.2238 -0.1504
  194MOL0     H25608   7.785  10.619   2.822  0.6980  0.5793 -1.2843
  195MOL0     O25609   7.585   6.991   8.176  0.1769 -0.2588 -0.4367
  195MOL0     C25610   7.624   7.065   8.269  0.1001 -0.0672  0.6860
  195MOL0     O25611   7.539   7.136   8.351 -0.2371  0.2094 -0.1012
  195MOL0     C25612   7.400   7.133   8.333 -0.1287  0.2126  0.2523
  195MOL0     C25613   7.332   7.025   8.295  0.9288 -0.4578  0.9228
  195MOL0     C25614   7.182   7.030   8.274 -0.0926  0.1079 -0.7635
  195MOL0     C25615   7.119   7.151   8.283  0.2375  0.1899  0.4169
  195MOL0     O25616   6.983   7.150   8.276 -1.0028 -0.4166 -0.1250
  195MOL0     C25617   6.900   7.246   8.341 -0.7063  0.3563 -0.7642
  195MOL0     C25618   6.847   7.349   8.249 -0.2987 -0.3876 -0.0723
  195MOL0     C25619   6.745   7.436   8.327  0.2824 -0.1888  0.4494
  195MOL0     C25620   6.642   7.516   8.247 -0.1685  0.3718  0.6690
  195MOL0     C25621   6.545   7.565   8.345  1.2892 -0.2040  0.3351
  195MOL0     C25622   6.433   7.620   8.256 -0.2382 -0.1072 -0.2312
  195MOL0     C25623   6.319   7.658   8.353  1.0590  1.0408  0.8077
  195MOL0     C25624   6.359   7.744   8.474 -0.2927  0.1840  0.4953
  195MOL0     N25625   6.246   7.832   8.532 -0.0116  0.5180  0.1540
  195MOL0     C25626   6.179   7.940   8.475 -0.4454  1.3232  0.2353
  195MOL0     C25627   6.066   7.953   8.552  1.0566 -0.3566 -1.1817
  195MOL0     C25628   5.953   8.054   8.544 -0.1959 -0.0114 -0.8039
  195MOL0     C25629   5.861   8.035   8.428  0.1325 -0.0615 -0.7538
  195MOL0     C25630   5.744   8.134   8.436 -0.3615  0.0022  0.6217
  195MOL0     C25631   5.645   8.112   8.325 -0.2444  0.4880  0.0886
  195MOL0     O25632   5.560   8.227   8.328  0.2938  0.2976  0.0964
  195MOL0     C25633   5.462   8.226   8.426 -0.3446  1.1440  0.4942
  195MOL0     C25634   5.472   8.336   8.500 -0.3515  1.0304 -0.1834
  195MOL0     C25635   5.384   8.354   8.604  0.6762 -0.1479  0.1499
  195MOL0     C25636   5.288   8.254   8.636  0.6159 -0.3294 -0.2448
  195MOL0     C25637   5.195   8.273   8.750 -0.4030 -0.6105  0.0815
  195MOL0     O25638   5.076   8.197   8.743  0.2246 -0.5312 -0.1170
  195MOL0     C25639   4.970   8.225   8.825 -0.1522 -0.3536 -0.2456
  195MOL0     C25640   4.979   8.239   8.963  0.5228  0.3582 -0.0745
  195MOL0     C25641   4.876   8.254   9.054  0.2705  0.4972  1.0100
  195MOL0     C25642   4.742   8.255   9.008  0.5163 -0.3899 -0.0024
  195MOL0     O25643   4.632   8.277   9.089  1.2004 -0.5018 -0.7543
  195MOL0     C25644   4.634   8.230   9.221  1.3335 -0.3585 -0.0217
  195MOL0     C25645   4.620   8.080   9.239  0.3287 -0.4029 -0.1206
  195MOL0     C25646   4.654   8.023   9.372 -1.2792 -0.2376 -0.1547
  195MOL0     C25647   4.807   8.015   9.370 -0.0216  1.1101  0.0149
  195MOL0     C25648   4.872   7.962   9.500 -0.1874  0.2964 -0.5461
  195MOL0     C25649   4.840   7.813   9.537 -0.4732  0.0413  0.6215
  195MOL0     C25650   4.882   7.725   9.423 -0.2919 -0.3370  0.1669
  195MOL0     C25651   5.031   7.741   9.383 -0.3406 -0.3944 -0.5064
  195MOL0    Cl25652   5.129   7.745   9.522 -0.1598 -0.4765 -0.1041
  195MOL0     C25653   4.730   8.250   8.867  0.6167 -0.7761 -0.0527
  195MOL0     C25654   4.838   8.229   8.779  0.0084  0.0050 -0.6225
  195MOL0     O25655   5.225   8.347   8.849 -0.2376  0.0302 -0.5670
  195MOL0     C25656   5.277   8.142   8.550  0.2409 -0.1734  0.0437
  195MOL0     C25657   5.376   8.122   8.449  0.0684  0.3547  0.4869
  195MOL0     N25658   6.067   7.849   8.648  0.1786 -0.4300  0.7657
  195MOL0     N25659   6.175   7.780   8.636 -0.9285 -0.4043  0.5811
  195MOL0     C25660   7.195   7.257   8.328 -0.2949 -0.5504 -0.2171
  195MOL0     C25661   7.331   7.251   8.350  0.3624 -0.6369  0.5144
  195MOL0     C25662   7.769   7.102   8.262 -0.2958 -0.1442 -0.1981
  195MOL0     C25663   7.868   7.048   8.177 -0.7450  0.1423 -0.2792
  195MOL0     C25664   7.994   7.107   8.158  0.4334  0.6407 -0.0761
  195MOL0     C25665   8.039   7.201   8.248 -0.0962 -0.0531 -0.5918
  195MOL0     O25666   8.155   7.264   8.235 -0.5422  0.0337  0.6628
  195MOL0     C25667   8.217   7.274   8.109  0.8795  0.0448 -0.5273
  195MOL0     C25668   8.346   7.358   8.119 -0.1389  0.1289  0.3728
  195MOL0     C25669   8.422   7.344   7.983 -0.2217 -0.3315 -0.0968
  195MOL0     C25670   8.542   7.439   7.957 -0.7408  0.4518  0.9074
  195MOL0     C25671   8.508   7.577   7.972 -0.1317  0.5621 -0.7595
  195MOL0     C25672   8.475   7.695   7.991 -0.6407  0.8557 -0.4310
  195MOL0     C25673   7.951   7.243   8.347  0.0477  0.4847 -0.0139
  195MOL0     C25674   7.822   7.193   8.355  0.5989  0.1884 -0.4650
  195MOL0     H25675   7.373   6.927   8.270 -1.2963 -1.4910  1.0688
  195MOL0     H25676   7.130   6.937   8.255 -1.2105  0.7208 -0.7907
  195MOL0     H25677   6.949   7.285   8.430 -0.4607 -1.5448 -0.0113
  195MOL0     H25678   6.818   7.191   8.388  0.4874  0.4782  1.6058
  195MOL0     H25679   6.803   7.311   8.156  2.2395  2.1229 -2.5362
  195MOL0     H25680   6.927   7.407   8.202 -0.3541 -1.1147 -1.1020
  195MOL0     H25681   6.810   7.496   8.392  0.4272 -0.8772  0.9521
  195MOL0     H25682   6.683   7.370   8.388 -1.0261  0.3409 -0.2707
  195MOL0     H25683   6.694   7.601   8.201 -0.8443  0.7181  0.5278
  195MOL0     H25684   6.597   7.453   8.170  0.9143  0.2218  0.1400
  195MOL0     H25685   6.595   7.651   8.389 -1.6235  0.9422  1.6452
  195MOL0     H25686   6.518   7.492   8.422  0.6993 -1.0156 -0.6149
  195MOL0     H25687   6.391   7.546   8.188  2.3245 -1.0094 -0.9453
  195MOL0     H25688   6.468   7.702   8.192  2.6125 -0.6251  0.4934
  195MOL0     H25689   6.243   7.714   8.297 -0.0599 -1.9957 -0.9803
  195MOL0     H25690   6.263   7.574   8.397 -2.5389  2.8494  0.1152
  195MOL0     H25691   6.426   7.820   8.432 -3.3568  0.8485 -3.9538
  195MOL0     H25692   6.412   7.684   8.549  0.3000 -0.0877 -0.1297
  195MOL0     H25693   6.206   8.004   8.392 -3.5196  3.6623  0.8726
  195MOL0     H25694   5.994   8.155   8.542 -2.6041  1.0142 -2.2169
  195MOL0     H25695   5.898   8.038   8.637  0.5326 -0.1925 -0.3942
  195MOL0     H25696   5.834   7.929   8.424  3.3872 -0.9797 -0.8515
  195MOL0     H25697   5.923   8.050   8.340  0.4417  0.0651 -0.5165
  195MOL0     H25698   5.693   8.099   8.526  0.4062 -1.3360  0.5628
  195MOL0     H25699   5.772   8.240   8.429 -1.1915  0.1249 -1.8146
  195MOL0     H25700   5.595   8.016   8.312 -0.1515  0.5564 -0.8272
  195MOL0     H25701   5.708   8.101   8.236 -1.4043 -0.2058 -0.6702
  195MOL0     H25702   5.562   8.395   8.481  2.0205 -1.3106  2.8194
  195MOL0     H25703   5.397   8.435   8.674  2.6932  0.2510 -0.5964
  195MOL0     H25704   5.072   8.209   9.010  0.7379 -1.5224 -1.5671
  195MOL0     H25705   4.912   8.252   9.156  1.8370  0.8569  0.4843
  195MOL0     H25706   4.555   8.275   9.283  1.3510 -0.5278  0.1252
  195MOL0     H25707   4.730   8.265   9.259  1.2975  0.6105 -0.8066
  195MOL0     H25708   4.678   8.016   9.171  1.6929  0.1488  0.4836
  195MOL0     H25709   4.513   8.069   9.222  0.0759 -0.7249  1.5197
  195MOL0     H25710   4.608   7.925   9.392 -0.8882 -0.4338 -0.2028
  195MOL0     H25711   4.613   8.090   9.448 -1.3733  0.5630 -0.9045
  195MOL0     H25712   4.846   7.955   9.287 -1.0874 -2.8989  2.2030
  195MOL0     H25713   4.844   8.117   9.351 -1.0953  1.0647 -2.8754
  195MOL0     H25714   4.846   8.029   9.583 -0.7685 -1.3220  0.6428
  195MOL0     H25715   4.981   7.973   9.492 -0.2105  0.3254 -0.8271
  195MOL0     H25716   4.735   7.787   9.551 -0.0792 -3.0203 -1.2465
  195MOL0     H25717   4.894   7.783   9.628  0.0099 -1.4641 -0.1291
  195MOL0     H25718   4.856   7.621   9.446 -2.3640  0.1481  0.2015
  195MOL0     H25719   4.825   7.751   9.333  2.7633  1.6346 -1.3653
  195MOL0     H25720   5.049   7.831   9.324 -2.6653 -1.5672 -3.2141
  195MOL0     H25721   5.066   7.651   9.330  0.3631 -0.4439  0.0227
  195MOL0     H25722   4.630   8.268   8.829 -0.6850  0.1634  3.4386
  195MOL0     H25723   4.807   8.227   8.675 -2.0751  2.7665 -0.1607
  195MOL0     H25724   5.191   8.077   8.556 -1.4078  1.5432 -2.9485
  195MOL0     H25725   5.373   8.032   8.389  2.2545  0.0679  0.7478
  195MOL0     H25726   7.158   7.359   8.333  0.1858 -0.2868 -1.6494
  195MOL0     H25727   7.393   7.330   8.388  1.1733 -1.9291  1.9685
  195MOL0     H25728   7.839   6.973   8.103  1.1599 -1.7552  0.7703
  195MOL0     H25729   8.048   7.096   8.064 -0.8160 -0.3995 -0.7146
  195MOL0     H25730   8.155   7.309   8.027 -0.8668  0.9774  1.1084
  195MOL0     H25731   8.237   7.169   8.088 -2.8543 -0.3435 -3.0651
  195MOL0     H25732   8.333   7.466   8.130  1.7998  0.4352  0.0194
  195MOL0     H25733   8.408   7.329   8.204  3.2045  0.8417 -1.6171
  195MOL0     H25734   8.351   7.350   7.900  1.2130 -3.1945 -1.7047
  195MOL0     H25735   8.455   7.239   7.981 -0.6288 -0.6162  2.9127
  195MOL0     H25736   8.622   7.421   8.030  2.5073  1.4454 -2.1137
  195MOL0     H25737   8.580   7.435   7.854  0.2220  1.7322  1.1868
  195MOL0     H25738   8.436   7.793   7.971 -0.3250  0.5107 -3.0278
  195MOL0     H25739   7.998   7.299   8.428  1.2944  0.2782 -0.5678
  195MOL0     H25740   7.753   7.236   8.427  0.6113 -1.9396  0.9307
  196MOL0     O25741   6.436   0.297   7.337 -0.0941  0.4103  0.7349
  196MOL0     C25742   6.485   0.193   7.289  0.2711 -0.1043  0.3400
  196MOL0     O25743   6.409   0.097   7.216  0.2988 -0.0244  0.7587
  196MOL0     C25744   6.277   0.124   7.197 -0.3229  0.3674 -0.1243
  196MOL0     C25745   6.187   0.100   7.308 -0.1543  0.9069 -0.6408
  196MOL0     C25746   6.051   0.140   7.301 -0.9027 -0.0677 -0.4359
  196MOL0     C25747   6.000   0.207   7.197 -0.3383 -0.0184 -1.3723
  196MOL0     O25748   5.868   0.241   7.214 -0.8468 -0.3470 -0.1913
  196MOL0     C25749   5.792   0.256   7.093 -0.3823 -0.3157  0.7460
  196MOL0     C25750   5.637   0.224   7.106 -0.0239  0.0373  0.5588
  196MOL0     C25751   5.557   0.275   6.993 -0.4883  0.6702  0.7941
  196MOL0     C25752   5.437   0.189   6.952  0.6395  0.1211 -0.1850
  196MOL0     C25753   5.398   0.210   6.804  0.6927  0.0980  1.2686
  196MOL0     C25754   5.265   0.145   6.782 -0.3635 -0.9627  0.9599
  196MOL0     C25755   5.213   0.205   6.649  0.9031  0.5977 -0.4127
  196MOL0     C25756   5.114   0.104   6.579 -1.0951 -0.3227 -0.1989
  196MOL0     N25757   4.988   0.097   6.650  0.6308  0.0420  0.7297
  196MOL0     C25758   4.940  -0.004   6.737  0.4624  0.0506  0.4422
  196MOL0     C25759   4.806   0.011   6.739 -0.0460 -0.1618  0.0241
  196MOL0     C25760   4.712  -0.079   6.803  0.7803  0.3393 -1.1631
  196MOL0     C25761   4.564  -0.032   6.804  0.5558  0.2571 -0.3328
  196MOL0     C25762   4.472  -0.157   6.820  0.0323 -0.5395 -0.6732
  196MOL0     C25763   4.326  -0.116   6.852  0.3559  0.9519  0.2067
  196MOL0     O25764   4.266  -0.054   6.737  0.4837  0.0928  0.0414
  196MOL0     C25765   4.129  -0.030   6.738 -0.3340 -0.7675 -0.0335
  196MOL0     C25766   4.038  -0.092   6.825 -1.0589  0.3447 -1.1077
  196MOL0     C25767   3.908  -0.052   6.828  0.6224  0.4952  0.9550
  196MOL0     C25768   3.865   0.048   6.735 -0.0407  0.4012  0.2361
  196MOL0     C25769   3.728   0.092   6.720  1.0329 -0.0080 -0.1935
  196MOL0     O25770   3.695   0.171   6.618  0.1667 -0.0074 -0.3258
  196MOL0     C25771   3.559   0.199   6.603 -0.3503 -0.2849  0.2037
  196MOL0     C25772   3.496   0.286   6.692 -0.4830  0.0134 -0.3580
  196MOL0     C25773   3.351   0.300   6.686  0.3347 -0.3755  0.5776
  196MOL0     C25774   3.280   0.230   6.592  0.4677  0.3284  0.1701
  196MOL0     O25775   3.143   0.228   6.582  0.5024 -0.0513 -0.3362
  196MOL0     C25776   3.058   0.332   6.634 -1.0957  0.5913  0.6434
  196MOL0     C25777   2.924   0.332   6.568  1.1974  0.3831 -1.7076
  196MOL0     C25778   2.944   0.381   6.422 -0.3757 -0.2639  0.0831
  196MOL0     C25779   2.817   0.418   6.331  0.2797  0.3348 -0.0074
  196MOL0     C25780   2.700   0.321   6.308 -0.7029 -0.4756  0.3014
  196MOL0     C25781   2.733   0.177   6.284  0.2472 -0.0707 -1.0699
  196MOL0     C25782   2.623   0.101   6.207  0.7514 -0.2567 -0.0770
  196MOL0     C25783   2.614   0.141   6.062  0.2379 -0.5007  0.7005
  196MOL0    Cl25784   2.771   0.120   5.983  0.1304  0.2036 -0.0387
  196MOL0     C25785   3.347   0.140   6.509  0.9792  0.6849  0.5971
  196MOL0     C25786   3.482   0.124   6.516  0.6891  0.1846 -0.0529
  196MOL0     O25787   3.655   0.073   6.817 -0.0250  0.6484 -0.2125
  196MOL0     C25788   3.958   0.120   6.655 -0.0405  0.0405 -0.8065
  196MOL0     C25789   4.093   0.072   6.652 -0.3137  0.5677 -0.3494
  196MOL0     N25790   4.774   0.120   6.664 -1.5932 -0.0315 -0.3698
  196MOL0     N25791   4.879   0.177   6.619  0.2877  0.2742 -0.2444
  196MOL0     C25792   6.081   0.234   7.093  0.5118  0.1298 -0.0816
  196MOL0     C25793   6.218   0.191   7.086  0.4286  0.1894 -0.3634
  196MOL0     C25794   6.630   0.173   7.312  0.4272  0.1245 -0.9225
  196MOL0     C25795   6.681   0.045   7.286 -1.1077  0.0749  0.0764
  196MOL0     C25796   6.820   0.025   7.294  0.5584  0.3748  0.8576
  196MOL0     C25797   6.903   0.131   7.333 -0.8504 -0.7647  0.5289
  196MOL0     O25798   7.038   0.120   7.336 -0.0644 -0.0982 -0.1180
  196MOL0     C25799   7.093  -0.008   7.301 -0.1489  0.8586  0.4860
  196MOL0     C25800   7.236  -0.021   7.317  0.7547  0.0777 -0.2182
  196MOL0     C25801   7.287  -0.003   7.471  0.1910  0.5398  0.6482
  196MOL0     C25802   7.424  -0.055   7.481 -0.3238  0.2678 -0.0587
  196MOL0     C25803   7.478  -0.045   7.616  0.1089  0.1538  0.5587
  196MOL0     C25804   7.528  -0.062   7.724  0.7204  0.3407 -0.5367
  196MOL0     C25805   6.851   0.257   7.366 -1.1263  0.6135 -1.1950
  196MOL0     C25806   6.716   0.284   7.350 -0.4285  0.6606  0.3245
  196MOL0     H25807   6.223   0.058   7.401 -2.9859 -2.0425 -0.7012
  196MOL0     H25808   5.981   0.115   7.380 -0.0602  1.6856  0.9536
  196MOL0     H25809   5.827   0.184   7.019 -0.3911 -2.5629  2.8059
  196MOL0     H25810   5.799   0.354   7.045  0.4863 -1.7580 -2.3190
  196MOL0     H25811   5.601   0.276   7.196 -0.9502 -1.8321  1.3081
  196MOL0     H25812   5.612   0.119   7.122 -2.3347  0.9506  4.3000
  196MOL0     H25813   5.620   0.299   6.907  0.8492  0.9878  1.8335
  196MOL0     H25814   5.520   0.373   7.026 -1.8288  0.2415  0.6426
  196MOL0     H25815   5.460   0.083   6.963 -2.4576 -1.0535 -3.3455
  196MOL0     H25816   5.355   0.218   7.019 -1.6635  1.2339 -3.2693
  196MOL0     H25817   5.481   0.169   6.745  2.6426  1.9507  2.6215
  196MOL0     H25818   5.394   0.317   6.783 -1.9123 -0.4765 -2.2092
  196MOL0     H25819   5.192   0.164   6.861 -0.2098  0.1045  0.8572
  196MOL0     H25820   5.275   0.036   6.773 -2.1963 -1.0731 -0.2319
  196MOL0     H25821   5.171   0.304   6.670  0.3813 -0.1127  2.1483
  196MOL0     H25822   5.292   0.216   6.574  1.4375  0.5158  0.1369
  196MOL0     H25823   5.161   0.005   6.574  2.3018  1.1863 -1.4610
  196MOL0     H25824   5.091   0.145   6.481  1.2043 -2.6612 -1.8748
  196MOL0     H25825   4.998  -0.083   6.784 -2.4427 -1.2377  2.1721
  196MOL0     H25826   4.736  -0.065   6.909 -2.3235 -0.9619 -0.1623
  196MOL0     H25827   4.729  -0.181   6.766  1.0785 -0.1173  0.1653
  196MOL0     H25828   4.533   0.014   6.710 -1.0030 -0.8763 -0.4229
  196MOL0     H25829   4.547   0.039   6.885  1.2797  3.3274 -2.6985
  196MOL0     H25830   4.475  -0.213   6.726  2.4894  2.6993 -2.7383
  196MOL0     H25831   4.501  -0.226   6.899  1.2013  0.6458 -0.0251
  196MOL0     H25832   4.314  -0.053   6.940 -2.6929 -2.3822  2.4425
  196MOL0     H25833   4.275  -0.208   6.881  1.4519  0.6680  1.3030
  196MOL0     H25834   4.071  -0.169   6.894  4.0493  4.1103  1.2554
  196MOL0     H25835   3.833  -0.114   6.878 -1.7718  0.4909 -2.2793
  196MOL0     H25836   3.557   0.339   6.764 -0.0860 -1.5532  0.4748
  196MOL0     H25837   3.292   0.359   6.756 -2.9814  1.9578 -3.7072
  196MOL0     H25838   3.095   0.434   6.617 -1.5038  1.1727  2.8822
  196MOL0     H25839   3.040   0.318   6.741  0.2026  0.1216  0.8179
  196MOL0     H25840   2.863   0.397   6.632  0.5081 -3.2104  1.6933
  196MOL0     H25841   2.888   0.229   6.568  0.3676  0.5634  1.2156
  196MOL0     H25842   2.979   0.294   6.366  1.1422  0.2865  0.1479
  196MOL0     H25843   3.013   0.464   6.411  0.0569 -0.5169  0.8265
  196MOL0     H25844   2.765   0.505   6.371 -1.7571  0.1058 -1.9743
  196MOL0     H25845   2.860   0.455   6.238 -2.3272 -0.3042 -1.5408
  196MOL0     H25846   2.647   0.375   6.228  0.8600  0.0842 -0.4045
  196MOL0     H25847   2.634   0.309   6.395  0.7972 -2.6367  1.1991
  196MOL0     H25848   2.747   0.126   6.380  1.4769  2.9974  0.5010
  196MOL0     H25849   2.825   0.168   6.224  0.0294 -0.9702 -1.2972
  196MOL0     H25850   2.633  -0.007   6.219  3.2235 -0.2319 -1.2645
  196MOL0     H25851   2.524   0.119   6.250  1.1043 -0.6953  0.9458
  196MOL0     H25852   2.583   0.245   6.051 -0.2321 -0.7627 -0.5928
  196MOL0     H25853   2.537   0.085   6.009  1.8542  0.1810 -2.6337
  196MOL0     H25854   3.295   0.070   6.445 -1.8689  1.3583  2.0367
  196MOL0     H25855   3.531   0.062   6.441  2.6281 -0.5354  1.7250
  196MOL0     H25856   3.938   0.204   6.589  1.4151  2.2062  1.3763
  196MOL0     H25857   4.171   0.127   6.600 -0.0812  1.4277  0.8589
  196MOL0     H25858   6.041   0.288   7.008 -2.0160 -2.2712 -0.5563
  196MOL0     H25859   6.284   0.203   7.001  2.6031 -3.6227  0.5745
  196MOL0     H25860   6.609  -0.030   7.257 -2.3134  1.6223 -1.1000
  196MOL0     H25861   6.864  -0.072   7.276  1.8466  0.7005  2.0564
  196MOL0     H25862   7.084  -0.015   7.192  0.9149 -0.0163  0.4391
  196MOL0     H25863   7.049  -0.090   7.358  1.5920  1.7087  3.2958
  196MOL0     H25864   7.249  -0.128   7.299 -3.3585 -1.2275  2.9993
  196MOL0     H25865   7.292   0.035   7.242  3.7038 -3.6918 -1.1950
  196MOL0     H25866   7.220  -0.053   7.541  0.5778 -0.1823  0.5066
  196MOL0     H25867   7.281   0.104   7.494  4.1863  0.7788  1.2988
  196MOL0     H25868   7.438  -0.162   7.463 -3.4380  0.0137 -1.6985
  196MOL0     H25869   7.491  -0.020   7.401 -0.7427  1.6015  0.1505
  196MOL0     H25870   7.582  -0.079   7.814  0.8056  1.4855 -0.3475
  196MOL0     H25871   6.906   0.341   7.406 -1.1471  0.3530 -0.6112
  196MOL0     H25872   6.680   0.387   7.357 -0.5344  0.7703 -1.3931
  197MOL0     O25873   1.011  10.297   6.093  0.9904  0.0438  0.1609
  197MOL0     C25874   1.078  10.349   6.000  0.5848  0.3625  0.0468
  197MOL0     O25875   1.039  10.355   5.873  0.4571 -0.2094 -0.3932
  197MOL0     C25876   0.921  10.306   5.832  0.4183  0.5274  0.2800
  197MOL0     C25877   0.923  10.223   5.711 -0.0104 -0.6178  0.0211
  197MOL0     C25878   0.802  10.178   5.657  0.1261 -0.4169  0.6204
  197MOL0     C25879   0.683  10.209   5.719  0.0774 -0.0876  0.3538
  197MOL0     O25880   0.572  10.171   5.657  0.8148  0.1137  0.1457
  197MOL0     C25881   0.540  10.028   5.650 -0.7014 -0.3544 -0.1267
  197MOL0     C25882   0.528   9.966   5.792 -0.3749  0.7456  0.6313
  197MOL0     C25883   0.486   9.823   5.787  0.0723 -0.5424  0.2260
  197MOL0     C25884   0.345   9.784   5.770  0.1067  0.0227 -0.0301
  197MOL0     C25885   0.314   9.638   5.752 -0.0110 -0.4454  0.3572
  197MOL0     C25886   0.320   9.548   5.878  1.0465 -0.8898  0.0516
  197MOL0     C25887   0.217   9.578   5.993 -0.3004  0.0415  0.2601
  197MOL0     C25888   0.219   9.469   6.094 -0.9328  0.4733  0.2417
  197MOL0     N25889   0.114   9.370   6.055  0.3453 -0.9604  0.6389
  197MOL0     C25890  -0.023   9.390   6.080  0.0957 -0.1819  0.6984
  197MOL0     C25891  -0.075   9.270   6.027  0.2213  0.0663 -0.1466
  197MOL0     C25892  -0.221   9.232   6.031 -0.1095 -0.7752  0.5256
  197MOL0     C25893  -0.266   9.191   5.892 -0.4850 -0.7144 -0.4191
  197MOL0     C25894  -0.411   9.212   5.856  0.7468  0.9145  0.2364
  197MOL0     C25895  -0.445   9.151   5.721  0.2075 -0.9484  0.7799
  197MOL0     O25896  -0.544   9.237   5.664  0.2157  0.4928 -1.0886
  197MOL0     C25897  -0.679   9.216   5.692  0.3490 -0.0993  0.3789
  197MOL0     C25898  -0.771   9.313   5.632 -0.0079 -0.6273  0.0859
  197MOL0     C25899  -0.905   9.309   5.668 -0.0329 -0.1090  0.2648
  197MOL0     C25900  -0.962   9.207   5.747 -1.1582  0.3820  0.4538
  197MOL0     C25901  -1.101   9.200   5.779  0.9361  0.0172 -0.4854
  197MOL0     O25902  -1.170   9.086   5.740 -1.1983  0.2069 -0.4795
  197MOL0     C25903  -1.309   9.080   5.738  0.3923  0.1687 -1.2322
  197MOL0     C25904  -1.359   8.953   5.760  0.6915  0.2536 -0.7809
  197MOL0     C25905  -1.501   8.933   5.771 -0.0126  1.0138 -0.5572
  197MOL0     C25906  -1.589   9.035   5.742 -0.4402 -0.3053 -0.0554
  197MOL0     O25907  -1.725   9.025   5.739  1.0185  0.2023  0.4980
  197MOL0     C25908  -1.792   8.949   5.834 -0.1715 -0.3388 -0.0682
  197MOL0     C25909  -1.941   8.959   5.797 -0.1314  1.0509 -0.0895
  197MOL0     C25910  -2.040   8.899   5.898 -0.8602 -0.0994 -0.1150
  197MOL0     C25911  -2.190   8.921   5.864 -0.1035  1.0332 -0.4004
  197MOL0     C25912  -2.271   8.841   5.968 -0.5688 -0.1564  0.7670
  197MOL0     C25913  -2.337   8.920   6.085  0.0927 -0.9628  0.0189
  197MOL0     C25914  -2.431   9.030   6.032 -0.1635 -0.1762 -0.2333
  197MOL0     C25915  -2.532   9.083   6.123 -1.3010  0.1919  0.2214
  197MOL0    Cl25916  -2.688   8.990   6.105  0.1678  0.0778 -0.5164
  197MOL0     C25917  -1.533   9.161   5.710  0.4547 -0.1301 -0.9581
  197MOL0     C25918  -1.395   9.191   5.712  0.5740  0.4460  1.0926
  197MOL0     O25919  -1.150   9.300   5.826  0.6509  0.0295  0.4855
  197MOL0     C25920  -0.874   9.114   5.814  0.2394  0.0411 -1.1949
  197MOL0     C25921  -0.732   9.119   5.783  0.8160  0.3706 -0.0288
  197MOL0     N25922   0.034   9.190   5.982  0.3715 -0.3711 -0.0974
  197MOL0     N25923   0.142   9.252   5.988  0.7875 -0.3302  0.2276
  197MOL0     C25924   0.680  10.302   5.820  0.6693 -0.0947  0.2981
  197MOL0     C25925   0.794  10.351   5.878 -0.6687  0.2866  1.0901
  197MOL0     C25926   1.204  10.417   6.038 -0.1824 -0.1908  1.0762
  197MOL0     C25927   1.275  10.495   5.945 -0.6129 -0.0585 -0.3737
  197MOL0     C25928   1.383  10.573   5.988 -0.3205  0.1881 -0.1563
  197MOL0     C25929   1.446  10.549   6.113 -0.3138  0.6295  0.0689
  197MOL0     O25930   1.559  10.608   6.154 -1.2166  0.3614  0.1315
  197MOL0     C25931   1.672  10.603   6.067  0.8443 -0.4195  0.1116
  197MOL0     C25932   1.784  10.691   6.126  0.4278  0.2883  0.4450
  197MOL0     C25933   1.892  10.704   6.022  0.4623 -0.2795  0.3451
  197MOL0     C25934   2.012  10.775   6.094 -0.1042 -0.7504  0.0223
  197MOL0     C25935   2.134  10.789   6.010  0.8285  0.8181  0.0541
  197MOL0     C25936   2.245  10.789   5.960 -0.2499 -0.4811  0.5128
  197MOL0     C25937   1.383  10.460   6.196 -0.3167  0.3531 -0.1879
  197MOL0     C25938   1.267  10.391   6.163 -0.7381 -0.2453  0.8176
  197MOL0     H25939   1.020  10.192   5.672  0.4239 -0.3490  0.8454
  197MOL0     H25940   0.790  10.120   5.566 -0.2171 -1.2322  1.1662
  197MOL0     H25941   0.608   9.980   5.579  1.0345  2.8761 -0.8738
  197MOL0     H25942   0.436  10.022   5.615  0.2109  0.0240 -3.2539
  197MOL0     H25943   0.462  10.020   5.860  0.3999  0.9656  1.2297
  197MOL0     H25944   0.634   9.955   5.819  0.1624  0.9113 -1.2443
  197MOL0     H25945   0.532   9.775   5.874  1.9757  2.2592  0.9085
  197MOL0     H25946   0.538   9.779   5.701  0.1129 -1.7078  0.8283
  197MOL0     H25947   0.298   9.812   5.865 -3.8916  0.6383 -1.9709
  197MOL0     H25948   0.287   9.842   5.698 -1.4057  0.5783  1.5587
  197MOL0     H25949   0.377   9.601   5.670  1.2699  0.4291  0.9204
  197MOL0     H25950   0.211   9.629   5.716  0.2455  0.3911 -0.6692
  197MOL0     H25951   0.418   9.539   5.927  1.4110 -2.6133 -0.9110
  197MOL0     H25952   0.293   9.454   5.828 -1.8350  0.5706 -1.3400
  197MOL0     H25953   0.252   9.669   6.043 -0.0706  0.4177 -0.5710
  197MOL0     H25954   0.123   9.598   5.940  0.5073  2.4985 -0.4110
  197MOL0     H25955   0.198   9.513   6.192  0.7021 -0.1691  0.9056
  197MOL0     H25956   0.315   9.418   6.095 -0.3071  1.6225  0.4810
  197MOL0     H25957  -0.068   9.475   6.130 -0.3049  0.9390 -1.4529
  197MOL0     H25958  -0.275   9.324   6.058 -3.3268 -2.0377 -1.1167
  197MOL0     H25959  -0.241   9.155   6.105  1.2473 -0.6394  1.0588
  197MOL0     H25960  -0.232   9.092   5.862 -0.7939 -0.9382 -0.0507
  197MOL0     H25961  -0.208   9.255   5.825 -2.1148  1.7571  0.3990
  197MOL0     H25962  -0.462   9.160   5.938  0.1404 -1.2884 -1.4469
  197MOL0     H25963  -0.442   9.317   5.861  1.5288  1.1688 -0.0882
  197MOL0     H25964  -0.484   9.049   5.718 -1.9371 -0.1628 -0.0767
  197MOL0     H25965  -0.364   9.153   5.648 -0.0091 -0.5907  0.5437
  197MOL0     H25966  -0.727   9.397   5.579  0.1096 -1.5911 -1.3840
  197MOL0     H25967  -0.973   9.385   5.632 -0.0059  0.6070  1.6557
  197MOL0     H25968  -1.288   8.872   5.770 -1.6941 -1.7437  1.7055
  197MOL0     H25969  -1.535   8.833   5.794  1.2471  0.6652 -0.1306
  197MOL0     H25970  -1.777   9.005   5.927  0.4389 -1.4150  0.5138
  197MOL0     H25971  -1.757   8.845   5.829  2.8031  0.2447  3.9156
  197MOL0     H25972  -1.955   8.898   5.707 -1.6585 -1.7481  1.9181
  197MOL0     H25973  -1.977   9.060   5.774 -3.5352  0.2283  0.9732
  197MOL0     H25974  -2.007   8.942   5.993 -2.2364 -1.3603  0.9747
  197MOL0     H25975  -2.013   8.793   5.908 -1.7850 -0.4808 -1.3542
  197MOL0     H25976  -2.213   9.028   5.868  1.1701  1.3092  0.5589
  197MOL0     H25977  -2.202   8.875   5.766  1.5872  2.2647 -1.2415
  197MOL0     H25978  -2.216   8.755   6.008 -2.0465 -0.8653  1.3755
  197MOL0     H25979  -2.353   8.793   5.914  0.7197  0.0858 -1.5335
  197MOL0     H25980  -2.261   8.969   6.147  0.1356 -2.1573  0.9472
  197MOL0     H25981  -2.394   8.841   6.136  0.5269 -3.6580 -3.3121
  197MOL0     H25982  -2.372   9.112   5.989 -1.4792 -0.1369 -2.1101
  197MOL0     H25983  -2.484   8.986   5.947 -0.2591  0.7428 -0.6595
  197MOL0     H25984  -2.565   9.182   6.089  1.3566  0.9197 -0.4457
  197MOL0     H25985  -2.498   9.086   6.227  1.4749 -2.8986 -0.4266
  197MOL0     H25986  -1.603   9.239   5.681  0.7977 -0.3047 -2.3568
  197MOL0     H25987  -1.353   9.286   5.683 -0.7352  0.4579 -0.8810
  197MOL0     H25988  -0.898   9.041   5.890  0.7289  0.0312 -1.0491
  197MOL0     H25989  -0.669   9.046   5.834  0.8566  0.8113  0.5549
  197MOL0     H25990   0.581  10.323   5.860  0.6673  3.8656 -1.2400
  197MOL0     H25991   0.792  10.411   5.968  1.9559 -0.8949  2.0572
  197MOL0     H25992   1.241  10.495   5.842  0.2690  0.4342 -0.6728
  197MOL0     H25993   1.428  10.646   5.921 -0.8494 -1.1469 -2.0484
  197MOL0     H25994   1.636  10.640   5.970  0.5715  1.3746  0.8578
  197MOL0     H25995   1.709  10.501   6.053  1.8472  0.1516 -1.6676
  197MOL0     H25996   1.740  10.788   6.150 -2.5556 -0.5290 -1.2036
  197MOL0     H25997   1.819  10.655   6.223 -1.9358  0.8635  1.5734
  197MOL0     H25998   1.851  10.766   5.942  1.4225 -0.9531 -0.7017
  197MOL0     H25999   1.920  10.608   5.977 -0.3075  0.8190 -2.7592
  197MOL0     H26000   1.982  10.875   6.126  2.6609 -0.0378  0.6831
  197MOL0     H26001   2.037  10.719   6.184  2.7794  0.1370 -0.1223
  197MOL0     H26002   2.342  10.776   5.915  1.2338 -0.4551  3.4882
  197MOL0     H26003   1.421  10.437   6.296 -4.2728 -0.4809  1.3028
  197MOL0     H26004   1.217  10.324   6.232  0.0728 -1.9276 -0.1830
  198MOL0     O26005   6.167   3.000   7.476  0.6983  0.6775 -0.0118
  198MOL0     C26006   6.239   3.012   7.376  0.2879  0.1335  0.1769
  198MOL0     O26007   6.192   3.034   7.249  0.7462 -0.5234 -0.1010
  198MOL0     C26008   6.061   3.037   7.229  0.5287  0.6865  0.4432
  198MOL0     C26009   6.001   3.137   7.139 -1.0549 -1.0542  0.5795
  198MOL0     C26010   5.869   3.137   7.102  0.0426  0.5604  0.0606
  198MOL0     C26011   5.789   3.033   7.155  0.2967 -0.4487 -0.4622
  198MOL0     O26012   5.662   3.032   7.109  0.1338 -0.1959  0.0145
  198MOL0     C26013   5.551   3.044   7.211  0.0843  0.0225  1.0142
  198MOL0     C26014   5.481   2.909   7.211 -0.3575 -0.0099 -0.3940
  198MOL0     C26015   5.429   2.863   7.075  0.3230  0.1080  0.2393
  198MOL0     C26016   5.328   2.744   7.079  0.5478  0.4651  0.0660
  198MOL0     C26017   5.285   2.706   6.942 -0.9002 -0.8660 -0.3674
  198MOL0     C26018   5.193   2.589   6.920 -0.4362 -1.4927 -0.6588
  198MOL0     C26019   5.050   2.610   6.975  0.4087  0.3668  0.0101
  198MOL0     C26020   4.969   2.486   6.986  0.4914 -0.0117 -0.2438
  198MOL0     N26021   4.837   2.505   7.043 -0.2274 -0.3394 -0.2256
  198MOL0     C26022   4.782   2.624   7.091 -0.1350 -0.7170 -1.1349
  198MOL0     C26023   4.655   2.590   7.121 -0.6489  0.7584  0.3153
  198MOL0     C26024   4.557   2.692   7.192 -0.3971 -0.4122  0.5707
  198MOL0     C26025   4.526   2.808   7.105 -0.9008  0.1162  0.6854
  198MOL0     C26026   4.421   2.901   7.160 -0.8271 -0.2774  0.6315
  198MOL0     C26027   4.484   2.999   7.264  0.4179  0.3766  0.1235
  198MOL0     O26028   4.414   3.119   7.254  0.1317 -0.7510 -0.7740
  198MOL0     C26029   4.291   3.138   7.320 -0.2207 -0.7666 -0.3824
  198MOL0     C26030   4.239   3.065   7.428 -0.5889  0.1242 -0.4102
  198MOL0     C26031   4.109   3.101   7.470 -0.4223 -0.2874  0.1391
  198MOL0     C26032   4.050   3.229   7.430 -0.0811  0.7248  0.0651
  198MOL0     C26033   3.921   3.279   7.488  0.2963 -0.2671  0.1963
  198MOL0     O26034   3.848   3.213   7.588 -0.2263  0.9860  0.7143
  198MOL0     C26035   3.734   3.272   7.640  0.0507  0.7351 -0.0219
  198MOL0     C26036   3.631   3.327   7.570 -0.9262 -0.0022 -0.6233
  198MOL0     C26037   3.519   3.380   7.638  0.1506 -0.0636 -0.4670
  198MOL0     C26038   3.498   3.364   7.774 -0.0913 -0.0300 -0.1185
  198MOL0     O26039   3.394   3.426   7.837  0.3815 -0.3893  0.3685
  198MOL0     C26040   3.297   3.331   7.878  0.0935  0.4091  0.2787
  198MOL0     C26041   3.148   3.383   7.872 -0.4682 -0.7443  0.0888
  198MOL0     C26042   3.068   3.307   7.968  0.1290  0.4760  0.5291
  198MOL0     C26043   2.921   3.340   7.997  0.0423 -0.1111 -0.4711
  198MOL0     C26044   2.885   3.483   8.044 -0.1908 -0.2112 -0.8119
  198MOL0     C26045   2.967   3.535   8.165  0.0837  0.3010  0.5301
  198MOL0     C26046   2.907   3.671   8.207 -0.6404  0.1765  0.3201
  198MOL0     C26047   2.953   3.711   8.354 -0.9973  0.1346 -0.0352
  198MOL0    Cl26048   3.139   3.721   8.358  0.2307  0.2023 -0.2198
  198MOL0     C26049   3.610   3.308   7.848  1.0044 -0.3816 -0.0619
  198MOL0     C26050   3.729   3.261   7.782  0.4686  0.2811  0.2008
  198MOL0     O26051   3.877   3.379   7.434 -0.0522  0.1095  0.6315
  198MOL0     C26052   4.110   3.288   7.320  0.7390 -0.0377 -0.0250
  198MOL0     C26053   4.224   3.243   7.270  0.2729  0.0398 -0.6680
  198MOL0     N26054   4.634   2.465   7.079  0.6408 -0.1197 -0.2635
  198MOL0     N26055   4.744   2.408   7.035 -0.3284 -0.4119  0.2545
  198MOL0     C26056   5.841   2.940   7.239  0.0368 -0.3589  0.2940
  198MOL0     C26057   5.975   2.944   7.282  0.0628  0.2510  1.2553
  198MOL0     C26058   6.387   3.020   7.402 -0.2095 -0.9141 -0.1044
  198MOL0     C26059   6.477   3.010   7.296  0.8685 -0.4513 -0.2171
  198MOL0     C26060   6.613   3.000   7.312 -0.4399 -1.1990  0.3278
  198MOL0     C26061   6.669   3.014   7.440 -0.1758  0.0723  0.3624
  198MOL0     O26062   6.799   3.016   7.475 -0.0560  0.1539 -0.2626
  198MOL0     C26063   6.880   2.948   7.387 -0.3318  0.4242  0.5675
  198MOL0     C26064   7.001   2.903   7.460  0.5918  0.5581  0.0198
  198MOL0     C26065   7.103   2.821   7.368 -0.1852  0.7368  0.5008
  198MOL0     C26066   7.228   2.764   7.444  0.1173  0.4133 -0.7127
  198MOL0     C26067   7.293   2.873   7.515  0.0479  0.0853 -0.1457
  198MOL0     C26068   7.329   2.977   7.575  0.2333 -0.1317 -0.3447
  198MOL0     C26069   6.585   3.030   7.545  0.4270 -0.5815 -0.2236
  198MOL0     C26070   6.441   3.035   7.527  0.3026  0.0941  1.0598
  198MOL0     H26071   6.074   3.204   7.094  1.0742 -2.3406  1.9033
  198MOL0     H26072   5.818   3.207   7.036 -2.6383  1.3719  2.7553
  198MOL0     H26073   5.477   3.121   7.186  0.5292  0.3585  0.7105
  198MOL0     H26074   5.595   3.071   7.308  0.2687 -0.5035  1.0839
  198MOL0     H26075   5.393   2.916   7.275  0.7295 -1.7232  1.4039
  198MOL0     H26076   5.550   2.834   7.249  1.2933  1.6876  0.1079
  198MOL0     H26077   5.507   2.848   7.000  1.8295  1.5364  1.4674
  198MOL0     H26078   5.379   2.955   7.043  0.3632  1.0474  2.6509
  198MOL0     H26079   5.376   2.664   7.135 -0.4600  0.4056  0.8779
  198MOL0     H26080   5.237   2.772   7.133 -0.0463 -2.0306  0.4578
  198MOL0     H26081   5.376   2.694   6.883  0.0490  3.7591 -0.2043
  198MOL0     H26082   5.239   2.795   6.898  2.0417  1.5210  1.0972
  198MOL0     H26083   5.244   2.501   6.961  1.5569  0.0034  0.2613
  198MOL0     H26084   5.207   2.573   6.812  3.8744 -0.0015 -0.5467
  198MOL0     H26085   5.053   2.648   7.078  2.3768 -2.8274  1.2956
  198MOL0     H26086   5.004   2.691   6.918  1.1781 -0.2585 -1.5603
  198MOL0     H26087   5.024   2.417   7.051 -1.0358 -2.7606 -1.7232
  198MOL0     H26088   4.966   2.437   6.888  1.0832  0.9216 -0.7391
  198MOL0     H26089   4.823   2.719   7.123  0.3893 -1.2882 -0.0528
  198MOL0     H26090   4.599   2.717   7.289  1.7529 -1.8383  0.0695
  198MOL0     H26091   4.461   2.643   7.208 -0.3889 -0.7281 -0.2663
  198MOL0     H26092   4.501   2.757   7.011  3.7451  2.2784 -2.1303
  198MOL0     H26093   4.615   2.869   7.084 -0.8928 -0.3020 -0.6084
  198MOL0     H26094   4.370   2.959   7.083  0.0992  1.3458  1.1923
  198MOL0     H26095   4.349   2.836   7.212  1.4649 -2.0397  1.7817
  198MOL0     H26096   4.590   3.011   7.244  0.4653  0.0270  0.1663
  198MOL0     H26097   4.486   2.948   7.360  2.7660  1.2916  0.6166
  198MOL0     H26098   4.293   2.986   7.478  2.9489  1.7110 -1.3748
  198MOL0     H26099   4.062   3.051   7.554  0.2172  2.0646  2.0157
  198MOL0     H26100   3.643   3.339   7.463  1.3167 -1.0037 -0.5456
  198MOL0     H26101   3.450   3.446   7.587  3.0854  1.0316 -3.3043
  198MOL0     H26102   3.317   3.287   7.977 -1.3061 -1.0115 -0.0329
  198MOL0     H26103   3.302   3.243   7.813  1.5350  0.5017  0.2319
  198MOL0     H26104   3.117   3.361   7.769 -1.7860 -0.2378  0.3578
  198MOL0     H26105   3.134   3.490   7.891 -0.0997 -0.4756 -1.0631
  198MOL0     H26106   3.131   3.304   8.057  1.7359 -0.6085 -0.5950
  198MOL0     H26107   3.070   3.203   7.933 -0.3001  0.5927  0.1421
  198MOL0     H26108   2.853   3.316   7.915 -0.6957 -0.6473  0.2822
  198MOL0     H26109   2.892   3.262   8.068  1.5414 -0.6958 -0.4673
  198MOL0     H26110   2.779   3.480   8.069  0.3687 -0.1382  1.8386
  198MOL0     H26111   2.899   3.554   7.962  1.4706  2.8581  1.9414
  198MOL0     H26112   3.075   3.545   8.150  0.3263 -2.4198 -0.0393
  198MOL0     H26113   2.958   3.468   8.251 -0.9243 -0.4222 -0.1064
  198MOL0     H26114   2.920   3.754   8.137 -1.6881 -1.1138 -1.5117
  198MOL0     H26115   2.799   3.654   8.205 -0.6809  0.3923  0.7657
  198MOL0     H26116   2.905   3.642   8.424 -2.3640  0.7211 -0.3639
  198MOL0     H26117   2.913   3.807   8.387 -1.5730 -0.7600  2.0706
  198MOL0     H26118   3.594   3.314   7.955 -0.7831  2.5910 -0.3907
  198MOL0     H26119   3.826   3.222   7.813 -0.8771 -2.2137  1.5778
  198MOL0     H26120   4.070   3.382   7.285 -4.0426 -1.4963  0.7471
  198MOL0     H26121   4.267   3.297   7.186 -1.6034 -1.4250 -2.7069
  198MOL0     H26122   5.775   2.866   7.283 -0.6043  0.2735  0.4207
  198MOL0     H26123   6.015   2.862   7.339  2.3141 -0.1799 -0.7946
  198MOL0     H26124   6.425   2.972   7.209 -3.3307 -0.4440  2.0544
  198MOL0     H26125   6.668   2.971   7.223 -2.7720 -0.4226 -1.4486
  198MOL0     H26126   6.920   3.012   7.307  1.3225  2.4305  2.8329
  198MOL0     H26127   6.835   2.858   7.345 -0.3211  0.7164 -0.0921
  198MOL0     H26128   7.051   2.995   7.490  0.8400  1.6675 -3.3535
  198MOL0     H26129   6.974   2.841   7.546  1.9175 -0.5301 -0.3133
  198MOL0     H26130   7.131   2.889   7.287  1.8363 -1.0409 -0.4020
  198MOL0     H26131   7.074   2.730   7.315  2.4605  0.7835 -1.2462
  198MOL0     H26132   7.206   2.679   7.508  1.0468 -0.2615 -1.2785
  198MOL0     H26133   7.288   2.732   7.359 -1.2626  0.4724 -1.7398
  198MOL0     H26134   7.361   3.065   7.627  1.8948  0.7526 -2.7019
  198MOL0     H26135   6.632   3.047   7.641  2.6364  1.3330 -1.5241
  198MOL0     H26136   6.376   3.052   7.612 -1.7888  3.9251 -1.0493
  199MOL0     O26137   0.785  10.884  10.257 -0.3028  0.1605  0.0915
  199MOL0     C26138   0.836  10.843  10.361 -0.8448  0.0171 -0.3670
  199MOL0     O26139   0.768  10.771  10.457 -0.3853 -0.4057 -0.1408
  199MOL0     C26140   0.632  10.764  10.453  0.3545 -0.1751  0.6827
  199MOL0     C26141   0.544  10.868  10.454 -0.4656  0.7985  0.0153
  199MOL0     C26142   0.404  10.849  10.453 -0.7077 -0.8203  0.5546
  199MOL0     C26143   0.356  10.717  10.440  0.7066 -0.4356  0.1077
  199MOL0     O26144   0.220  10.693  10.431 -0.1184  0.8617 -0.1419
  199MOL0     C26145   0.138  10.793  10.486  0.0369  0.3121  0.4440
  199MOL0     C26146  -0.005  10.756  10.507 -0.1715  0.7709 -0.8842
  199MOL0     C26147  -0.070  10.707  10.380  0.8201 -0.1733 -0.2242
  199MOL0     C26148  -0.211  10.657  10.399 -0.1431 -1.2932  0.2054
  199MOL0     C26149  -0.262  10.581  10.275 -0.2848 -0.1522 -1.1237
  199MOL0     C26150  -0.237  10.647  10.130  0.0682 -0.1073 -0.5996
  199MOL0     C26151  -0.098  10.633  10.078 -0.3166 -0.1116 -0.5347
  199MOL0     C26152  -0.055  10.483  10.058 -0.9841  0.3162  0.3578
  199MOL0     N26153   0.081  10.469  10.005 -0.6662  0.2330  0.1750
  199MOL0     C26154   0.200  10.447  10.068 -0.5727  0.4089  0.1685
  199MOL0     C26155   0.283  10.400   9.973  0.3235  0.6514 -0.1155
  199MOL0     C26156   0.424  10.364  10.006  0.1896  0.0020  0.0992
  199MOL0     C26157   0.498  10.490  10.051  0.1315 -0.2108  0.1297
  199MOL0     C26158   0.646  10.462  10.086 -0.5041  0.1820 -0.0793
  199MOL0     C26159   0.727  10.460   9.951  0.2360  0.3938 -0.7387
  199MOL0     O26160   0.863  10.425   9.961 -0.3180  0.1701  0.2669
  199MOL0     C26161   0.951  10.522   9.983  0.4484 -0.2261 -0.7448
  199MOL0     C26162   0.919  10.655  10.014 -0.1223  0.3543 -0.5406
  199MOL0     C26163   1.026  10.740  10.030  0.3399 -0.6570  0.1201
  199MOL0     C26164   1.152  10.710   9.994 -0.8007 -0.2825 -0.1062
  199MOL0     C26165   1.268  10.805  10.027  0.2116 -0.2199 -0.1933
  199MOL0     O26166   1.402  10.756  10.022 -0.0711 -1.3054 -0.3176
  199MOL0     C26167   1.511  10.832  10.069  0.4558 -0.6230  0.0372
  199MOL0     C26168   1.633  10.807  10.011  0.2597  0.3188 -0.0486
  199MOL0     C26169   1.743  10.882  10.047 -0.3089  1.5879  0.7179
  199MOL0     C26170   1.744  10.962  10.157 -0.0552  0.6597  0.8730
  199MOL0     O26171   1.858  11.033  10.190  0.6442 -0.0789 -0.3927
  199MOL0     C26172   1.973  11.028  10.109 -0.2044  0.7506  0.2793
  199MOL0     C26173   2.085  11.111  10.165 -0.3090  0.5840  1.1683
  199MOL0     C26174   2.104  11.088  10.313  0.0118 -0.1404 -0.1475
  199MOL0     C26175   2.229  11.170  10.348  0.5296  0.5651 -0.6698
  199MOL0     C26176   2.282  11.151  10.496  0.6532  1.2826  0.2974
  199MOL0     C26177   2.339  11.275  10.559 -0.2317  0.1649 -0.2708
  199MOL0     C26178   2.461  11.337  10.476 -0.0146 -0.3384 -0.1739
  199MOL0     C26179   2.540  11.434  10.560  0.2723  0.0718 -0.2035
  199MOL0    Cl26180   2.650  11.339  10.658 -0.2746 -0.2923  0.2838
  199MOL0     C26181   1.623  10.979  10.223 -0.1558  0.3183  1.1619
  199MOL0     C26182   1.506  10.900  10.188  0.6877 -0.4241  0.5112
  199MOL0     O26183   1.242  10.919  10.057  0.2562 -0.0890  0.6489
  199MOL0     C26184   1.184  10.572   9.966  0.4403 -0.8357  0.5023
  199MOL0     C26185   1.080  10.476   9.961  0.5128 -0.7087 -0.5281
  199MOL0     N26186   0.220  10.410   9.851 -0.1962 -0.1208 -0.2451
  199MOL0     N26187   0.097  10.440   9.873 -0.3913  0.0546 -0.3473
  199MOL0     C26188   0.449  10.611  10.428  0.5386 -0.5730  0.2123
  199MOL0     C26189   0.585  10.635  10.448  0.8178 -0.0874  0.6375
  199MOL0     C26190   0.969  10.887  10.406  0.3777  0.3125  0.2613
  199MOL0     C26191   1.032  10.994  10.335 -0.0670  0.5883  0.4304
  199MOL0     C26192   1.142  11.055  10.401 -0.1991 -0.0897  0.7906
  199MOL0     C26193   1.190  11.024  10.526 -0.0371 -0.1998 -0.5347
  199MOL0     O26194   1.309  11.080  10.562  0.5518  0.2112 -0.0145
  199MOL0     C26195   1.373  11.044  10.680  0.5424 -0.5525  0.2258
  199MOL0     C26196   1.506  11.127  10.682  0.5609 -0.7509 -0.2834
  199MOL0     C26197   1.487  11.274  10.717  0.7943  0.2477  0.3139
  199MOL0     C26198   1.513  11.312  10.859  0.2746 -0.4011 -0.4836
  199MOL0     C26199   1.650  11.323  10.909  0.3888 -0.3487  0.0099
  199MOL0     C26200   1.760  11.338  10.955 -0.0178  0.0808 -0.2932
  199MOL0     C26201   1.124  10.927  10.593 -0.3473  0.1482  0.0268
  199MOL0     C26202   1.015  10.864  10.536 -0.0419  0.0198 -0.2699
  199MOL0     H26203   0.578  10.971  10.460 -3.0356  1.6364  2.6291
  199MOL0     H26204   0.343  10.938  10.461 -0.0839 -0.5564  4.0182
  199MOL0     H26205   0.148  10.873  10.412  1.6738 -1.6052 -1.5294
  199MOL0     H26206   0.178  10.821  10.584  1.4671  2.3902 -0.6604
  199MOL0     H26207  -0.048  10.850  10.543 -2.5775 -1.5558  2.9840
  199MOL0     H26208  -0.012  10.678  10.583  1.5789  1.5883  0.1725
  199MOL0     H26209  -0.006  10.629  10.337 -0.8001 -1.1382 -0.9970
  199MOL0     H26210  -0.072  10.798  10.319 -2.8912  1.5058  2.0193
  199MOL0     H26211  -0.234  10.589  10.481 -2.2158  2.8545  3.4780
  199MOL0     H26212  -0.278  10.742  10.417  1.6253  0.2457 -0.1706
  199MOL0     H26213  -0.369  10.558  10.285  0.0590 -2.0591 -1.4295
  199MOL0     H26214  -0.210  10.485  10.286 -3.9678 -2.1408  1.4027
  199MOL0     H26215  -0.268  10.751  10.143 -1.6656 -0.4833 -1.4553
  199MOL0     H26216  -0.287  10.590  10.051  0.9313  1.7584 -2.5797
  199MOL0     H26217  -0.076  10.677   9.981  1.6244  0.3625  0.0902
  199MOL0     H26218  -0.026  10.686  10.141 -0.4564  3.3044 -3.0242
  199MOL0     H26219  -0.118  10.424   9.991 -1.1083 -0.1919  0.9174
  199MOL0     H26220  -0.057  10.437  10.158  1.4982  1.7420  1.1590
  199MOL0     H26221   0.226  10.450  10.173  0.7968 -2.2479 -0.0155
  199MOL0     H26222   0.484  10.306   9.936 -1.1167 -2.7748  1.1431
  199MOL0     H26223   0.410  10.292  10.087 -4.1033 -0.4088 -0.7820
  199MOL0     H26224   0.449  10.532  10.138  0.4949  2.4982 -0.8850
  199MOL0     H26225   0.487  10.576   9.984  2.4112  0.9887  1.1778
  199MOL0     H26226   0.678  10.538  10.158 -1.2779 -0.0880  0.5564
  199MOL0     H26227   0.654  10.364  10.134 -6.1879  0.3846  2.0256
  199MOL0     H26228   0.727  10.559   9.902 -0.2379  0.4886 -0.5532
  199MOL0     H26229   0.674  10.390   9.886  0.4790 -0.5410  0.0562
  199MOL0     H26230   0.817  10.689  10.031  0.4711  1.2679  1.4086
  199MOL0     H26231   0.991  10.842  10.042 -1.0615 -0.7715 -2.2576
  199MOL0     H26232   1.637  10.737   9.929 -2.0669 -1.4279  1.1962
  199MOL0     H26233   1.833  10.878   9.986  0.6856 -0.2026  2.1793
  199MOL0     H26234   1.961  11.057  10.004 -1.0428  0.2021  0.2110
  199MOL0     H26235   2.007  10.924  10.108 -0.8593  0.5091  1.1811
  199MOL0     H26236   2.070  11.217  10.146  3.8892  1.7829  3.2665
  199MOL0     H26237   2.176  11.078  10.113  0.3807  1.1319  2.0035
  199MOL0     H26238   2.118  10.983  10.339  0.1577  0.0100  0.4124
  199MOL0     H26239   2.014  11.122  10.366 -0.4225  1.0199 -1.5741
  199MOL0     H26240   2.306  11.162  10.271 -0.2516 -0.2825 -1.3836
  199MOL0     H26241   2.192  11.273  10.346  0.0813  0.3870 -1.9726
  199MOL0     H26242   2.363  11.078  10.496 -0.3436  0.0745 -2.0305
  199MOL0     H26243   2.196  11.118  10.555 -0.5229  4.8211  0.8554
  199MOL0     H26244   2.374  11.261  10.662 -0.6185 -0.5007 -0.2254
  199MOL0     H26245   2.263  11.352  10.571 -1.8658 -0.9761 -2.5663
  199MOL0     H26246   2.538  11.267  10.442  0.3541 -0.0085 -0.0297
  199MOL0     H26247   2.427  11.398  10.392  1.8923  3.6929  1.7207
  199MOL0     H26248   2.470  11.489  10.624  0.6565  0.3688 -0.0324
  199MOL0     H26249   2.602  11.500  10.498  0.1533  0.2468 -0.1348
  199MOL0     H26250   1.616  11.005  10.328 -0.3947 -2.3302  1.8733
  199MOL0     H26251   1.418  10.896  10.251 -0.5204  0.0320 -1.0683
  199MOL0     H26252   1.288  10.551   9.941  0.6214 -1.5644  1.7490
  199MOL0     H26253   1.114  10.377   9.933  0.8279 -1.4380  2.1478
  199MOL0     H26254   0.426  10.506  10.414 -1.1541 -0.0117 -1.7821
  199MOL0     H26255   0.660  10.557  10.440  0.3882 -0.4545  0.0926
  199MOL0     H26256   1.002  11.035  10.239 -4.3141 -0.8710  0.8971
  199MOL0     H26257   1.190  11.136  10.347  1.2421 -3.2486 -3.1831
  199MOL0     H26258   1.402  10.939  10.695 -2.4872 -1.0956  3.8781
  199MOL0     H26259   1.316  11.072  10.769  0.7333 -2.7931  1.1307
  199MOL0     H26260   1.572  11.081  10.757  1.9441  2.5701  0.7208
  199MOL0     H26261   1.561  11.109  10.589  0.4249 -2.0365 -0.1384
  199MOL0     H26262   1.379  11.285  10.711  0.6377 -0.9747  0.6058
  199MOL0     H26263   1.526  11.347  10.646  0.5640 -0.1977 -0.2799
  199MOL0     H26264   1.467  11.409  10.881 -0.1454 -1.0700  1.9318
  199MOL0     H26265   1.469  11.244  10.933  1.3455  1.1940  1.7592
  199MOL0     H26266   1.858  11.346  10.998  1.4042 -0.2044 -3.2257
  199MOL0     H26267   1.152  10.902  10.695  0.7477  1.3976  0.0478
  199MOL0     H26268   0.960  10.791  10.595  2.4769 -0.2057  1.9828
  200MOL0     O26269   7.778   7.088   3.830  0.7314 -0.4691 -0.7444
  200MOL0     C26270   7.769   7.194   3.768 -0.0069 -1.7835 -0.2371
  200MOL0     O26271   7.693   7.297   3.813  0.1308 -0.0640  0.3290
  200MOL0     C26272   7.590   7.273   3.905 -0.4016  0.7592 -0.3667
  200MOL0     C26273   7.593   7.347   4.027 -0.3418 -0.4747  0.4935
  200MOL0     C26274   7.498   7.326   4.123 -0.2338 -0.0831 -0.8244
  200MOL0     C26275   7.401   7.232   4.106 -0.2047 -0.6949 -0.1265
  200MOL0     O26276   7.301   7.204   4.193 -0.1052  0.4967 -0.0921
  200MOL0     C26277   7.186   7.289   4.178 -0.2877  0.6027 -0.0694
  200MOL0     C26278   7.069   7.198   4.165  0.7951 -0.5774 -0.5193
  200MOL0     C26279   6.938   7.291   4.151  0.1880  0.9652  0.2827
  200MOL0     C26280   6.823   7.199   4.114  0.1865  0.4640 -0.3245
  200MOL0     C26281   6.684   7.271   4.111  0.5606 -0.5865 -0.2784
  200MOL0     C26282   6.574   7.168   4.085  0.0454  0.0534 -0.4275
  200MOL0     C26283   6.434   7.219   4.135 -0.0278  0.8349 -0.2527
  200MOL0     C26284   6.321   7.140   4.064  0.1610  0.5233 -1.1979
  200MOL0     N26285   6.186   7.185   4.097 -0.0217  0.1566  0.6911
  200MOL0     C26286   6.124   7.178   4.220  0.3186 -0.2780 -0.2185
  200MOL0     C26287   6.008   7.236   4.204 -0.1463  0.0042 -0.2671
  200MOL0     C26288   5.895   7.260   4.303  0.2482 -0.3244 -0.4198
  200MOL0     C26289   5.830   7.133   4.366 -0.2874 -0.0373  0.6390
  200MOL0     C26290   5.713   7.162   4.454  0.1239 -0.8672 -1.1627
  200MOL0     C26291   5.677   7.047   4.538  0.2361 -0.1040 -0.9076
  200MOL0     O26292   5.556   7.091   4.597 -0.0924  0.2000 -0.2898
  200MOL0     C26293   5.486   7.009   4.680 -0.2491 -0.1373 -0.1866
  200MOL0     C26294   5.383   7.072   4.745  0.0710  0.2625 -0.1604
  200MOL0     C26295   5.284   7.002   4.814 -0.2082  0.0564  0.7742
  200MOL0     C26296   5.290   6.863   4.831 -1.3835  0.5675  0.2088
  200MOL0     C26297   5.178   6.791   4.897  0.3081 -0.2493 -0.5521
  200MOL0     O26298   5.096   6.858   4.983  0.7503 -0.2917 -0.3632
  200MOL0     C26299   4.977   6.802   5.029 -0.1529 -0.0064  0.0674
  200MOL0     C26300   4.949   6.663   5.059 -0.3931  0.3524  1.0640
  200MOL0     C26301   4.830   6.639   5.122 -1.1416 -0.0334 -1.3515
  200MOL0     C26302   4.733   6.740   5.140 -1.1431 -0.4088 -0.5741
  200MOL0     O26303   4.602   6.723   5.186 -0.9314  0.1594  0.1407
  200MOL0     C26304   4.602   6.659   5.310 -0.3608  0.2297  0.2679
  200MOL0     C26305   4.469   6.622   5.380  0.3624  0.3562 -0.1302
  200MOL0     C26306   4.495   6.583   5.525  0.3171 -0.3161  0.0787
  200MOL0     C26307   4.370   6.532   5.578 -0.0945  0.4199  0.2530
  200MOL0     C26308   4.380   6.481   5.720  0.1150  0.7991  0.2821
  200MOL0     C26309   4.409   6.586   5.829  0.7271 -0.5764 -0.8898
  200MOL0     C26310   4.302   6.689   5.862  0.2859  0.2835 -0.0423
  200MOL0     C26311   4.240   6.650   6.005  0.4235  0.4067  0.6536
  200MOL0    Cl26312   4.165   6.493   6.004  0.1499 -0.1733 -0.0313
  200MOL0     C26313   4.761   6.871   5.099 -0.3658  0.3547  0.4614
  200MOL0     C26314   4.884   6.906   5.045  0.2518  0.4296  0.4986
  200MOL0     O26315   5.173   6.668   4.874  0.7541 -0.2699  0.7218
  200MOL0     C26316   5.407   6.794   4.776  0.2099  0.5482  0.2873
  200MOL0     C26317   5.508   6.870   4.703 -0.4750  0.0450 -0.0385
  200MOL0     N26318   6.001   7.278   4.074  0.5240 -0.6966 -0.6455
  200MOL0     N26319   6.096   7.249   4.009 -0.3932  0.5240 -0.1147
  200MOL0     C26320   7.398   7.156   3.985 -0.3499  0.7798 -1.1098
  200MOL0     C26321   7.494   7.178   3.886  0.2348 -0.0016  0.1098
  200MOL0     C26322   7.856   7.220   3.653 -0.1729 -0.1407  0.2547
  200MOL0     C26323   7.902   7.349   3.617 -0.0307  0.5169 -0.4219
  200MOL0     C26324   7.969   7.379   3.496  0.7352 -0.3457 -0.6481
  200MOL0     C26325   8.015   7.281   3.415  0.1788  0.8189 -1.1055
  200MOL0     O26326   8.083   7.321   3.302  0.3456  0.0599 -0.4638
  200MOL0     C26327   8.171   7.230   3.247 -0.5076  0.6554  0.1089
  200MOL0     C26328   8.290   7.298   3.183 -0.5834  0.0230  0.4336
  200MOL0     C26329   8.382   7.202   3.097  0.2312 -0.7845  1.0215
  200MOL0     C26330   8.502   7.275   3.040  0.2013 -0.3877  1.0042
  200MOL0     C26331   8.594   7.310   3.146 -0.1899 -0.2196 -0.3672
  200MOL0     C26332   8.657   7.339   3.242  0.5967  0.0737  0.0974
  200MOL0     C26333   7.983   7.150   3.457 -0.8149  0.6931  0.6142
  200MOL0     C26334   7.896   7.121   3.560  1.3464  0.2261 -0.2137
  200MOL0     H26335   7.671   7.421   4.040 -0.7595  0.5795 -2.2995
  200MOL0     H26336   7.486   7.387   4.212 -0.3537  0.8315 -1.4527
  200MOL0     H26337   7.199   7.364   4.099 -0.7455 -1.1795 -1.9061
  200MOL0     H26338   7.173   7.350   4.268  0.2384  0.7503 -0.0942
  200MOL0     H26339   7.062   7.137   4.256 -3.0104  0.5165  0.0956
  200MOL0     H26340   7.085   7.138   4.075 -0.6222  0.1062 -1.2653
  200MOL0     H26341   6.949   7.372   4.078  1.6273  0.1731 -0.4208
  200MOL0     H26342   6.915   7.330   4.250  0.2127 -1.5797  1.3710
  200MOL0     H26343   6.841   7.148   4.019  1.2519 -0.0528  0.1342
  200MOL0     H26344   6.826   7.119   4.188  0.2711  0.6133 -0.1648
  200MOL0     H26345   6.673   7.341   4.027 -0.6641  1.1313  1.2502
  200MOL0     H26346   6.665   7.306   4.213 -1.5677 -2.9084  0.2031
  200MOL0     H26347   6.599   7.079   4.143  0.1397 -0.3626 -1.0895
  200MOL0     H26348   6.582   7.144   3.978  2.5429 -0.4813 -0.1780
  200MOL0     H26349   6.413   7.192   4.239 -2.1312 -0.4319 -0.9316
  200MOL0     H26350   6.402   7.320   4.109 -2.5190 -0.4379 -2.7895
  200MOL0     H26351   6.328   7.035   4.092 -1.4746  0.4377 -0.9850
  200MOL0     H26352   6.325   7.158   3.956 -2.1849  2.8573 -1.0068
  200MOL0     H26353   6.154   7.157   4.322  2.5018  6.2530  0.9350
  200MOL0     H26354   5.816   7.318   4.255  0.7049  1.4690  0.8807
  200MOL0     H26355   5.930   7.323   4.386  1.0310 -3.8297  2.1401
  200MOL0     H26356   5.907   7.078   4.422 -2.0603  0.2896  3.6279
  200MOL0     H26357   5.793   7.066   4.288 -0.7930  1.1615 -0.1813
  200MOL0     H26358   5.737   7.251   4.512  1.5035 -0.6444 -2.0387
  200MOL0     H26359   5.631   7.191   4.387  0.4822  0.7386 -0.9459
  200MOL0     H26360   5.760   7.019   4.603  0.8861 -2.3290 -2.5538
  200MOL0     H26361   5.669   6.961   4.469  0.8527 -1.5940  0.8035
  200MOL0     H26362   5.363   7.179   4.734 -1.0168  0.5807  3.4331
  200MOL0     H26363   5.196   7.057   4.848 -0.7508  0.0911 -0.6145
  200MOL0     H26364   5.023   6.588   5.031  1.3397  1.9679  1.1046
  200MOL0     H26365   4.801   6.535   5.134  0.8446 -0.5558 -0.6902
  200MOL0     H26366   4.649   6.741   5.365 -1.6732  0.9411  0.3868
  200MOL0     H26367   4.663   6.569   5.318 -0.5485  0.2833  3.6605
  200MOL0     H26368   4.443   6.530   5.327  0.3052  1.5134 -2.2109
  200MOL0     H26369   4.394   6.701   5.369 -1.0090 -0.8754  0.0110
  200MOL0     H26370   4.530   6.676   5.571  0.8336  1.5803 -3.7993
  200MOL0     H26371   4.572   6.505   5.535 -0.9691 -1.6958 -0.4211
  200MOL0     H26372   4.286   6.601   5.572  0.0730  0.6262  0.2916
  200MOL0     H26373   4.341   6.443   5.521  1.1492  2.6341 -4.2707
  200MOL0     H26374   4.454   6.400   5.722  0.2544  0.8665 -1.1583
  200MOL0     H26375   4.285   6.432   5.746 -0.4971  2.4392  1.2583
  200MOL0     H26376   4.496   6.647   5.805 -1.0048  2.0824 -0.8306
  200MOL0     H26377   4.432   6.536   5.924 -0.8740  3.1495  1.6808
  200MOL0     H26378   4.354   6.785   5.870 -0.1193  0.6136 -1.2423
  200MOL0     H26379   4.229   6.715   5.786  1.2923  4.3750  0.1752
  200MOL0     H26380   4.161   6.722   6.028 -1.4669 -1.7471  1.2088
  200MOL0     H26381   4.312   6.646   6.087 -0.2510 -1.4273  1.1925
  200MOL0     H26382   4.683   6.946   5.099 -0.5925  0.1649  2.0816
  200MOL0     H26383   4.916   7.004   5.013  1.0857 -0.3495 -1.1824
  200MOL0     H26384   5.413   6.687   4.794 -2.7646  0.7252  3.2460
  200MOL0     H26385   5.602   6.824   4.673  0.5018  2.9290 -1.8538
  200MOL0     H26386   7.326   7.075   3.986  2.4159 -1.9572  1.9709
  200MOL0     H26387   7.483   7.135   3.788 -1.5354  0.4346  0.0655
  200MOL0     H26388   7.890   7.437   3.680  4.1695  0.4809  0.7157
  200MOL0     H26389   8.006   7.478   3.473  3.2747 -1.0085  0.2451
  200MOL0     H26390   8.112   7.186   3.167  0.6772  0.6010 -0.7636
  200MOL0     H26391   8.199   7.143   3.308  1.3852  0.3660 -1.0821
  200MOL0     H26392   8.265   7.384   3.121 -1.7665  0.5304  1.5869
  200MOL0     H26393   8.339   7.352   3.264 -0.5658  3.4410 -1.6777
  200MOL0     H26394   8.336   7.162   3.007  0.4350  3.5737 -1.3127
  200MOL0     H26395   8.408   7.120   3.164 -0.1078 -0.4190  1.6121
  200MOL0     H26396   8.557   7.214   2.968  1.2891  0.8240  0.7594
  200MOL0     H26397   8.462   7.359   2.982 -1.5343 -1.8041  0.0496
  200MOL0     H26398   8.726   7.380   3.314 -2.2987 -2.3230  4.7123
  200MOL0     H26399   8.001   7.056   3.406  0.8404  0.1222  2.1469
  200MOL0     H26400   7.869   7.018   3.581  2.0813 -0.1831 -1.2262
  201MOL0     O26401   2.186   7.472   2.865  0.3251 -0.4858 -0.3003
  201MOL0     C26402   2.199   7.577   2.796 -0.1131  0.4493 -0.3161
  201MOL0     O26403   2.104   7.637   2.729  0.8867  0.2522  0.3631
  201MOL0     C26404   1.975   7.589   2.723  0.5769 -0.0740 -0.0079
  201MOL0     C26405   1.935   7.452   2.718 -0.3987 -0.6776 -0.2492
  201MOL0     C26406   1.793   7.417   2.704 -0.9260 -0.7435 -0.3232
  201MOL0     C26407   1.698   7.516   2.695 -0.1805 -1.3930 -0.6667
  201MOL0     O26408   1.571   7.478   2.673 -0.4797  0.0061  0.2118
  201MOL0     C26409   1.469   7.558   2.727  0.5274  0.0072  1.0352
  201MOL0     C26410   1.405   7.620   2.601  0.0029 -0.0740 -0.2547
  201MOL0     C26411   1.274   7.693   2.626  0.0413  0.5423 -0.5163
  201MOL0     C26412   1.233   7.760   2.498 -0.0938  0.6204  0.1503
  201MOL0     C26413   1.127   7.872   2.530 -0.0294  0.1769 -0.3867
  201MOL0     C26414   1.097   7.951   2.405 -0.4015 -0.0421 -0.4548
  201MOL0     C26415   0.976   8.038   2.434 -0.4291  0.3075 -0.3943
  201MOL0     C26416   1.014   8.182   2.476  1.0089 -0.4421  0.0065
  201MOL0     N26417   0.891   8.263   2.493  0.0698  0.3251 -0.1969
  201MOL0     C26418   0.801   8.271   2.597 -0.0352 -0.5180 -0.0604
  201MOL0     C26419   0.692   8.329   2.550  0.1656  0.6138 -0.5171
  201MOL0     C26420   0.554   8.329   2.624 -1.5662 -0.4923  0.0692
  201MOL0     C26421   0.435   8.379   2.553  0.4810  0.8395 -0.3935
  201MOL0     C26422   0.396   8.288   2.433 -1.3366 -0.3932  0.5582
  201MOL0     C26423   0.264   8.334   2.354 -0.4037 -0.3738  0.2318
  201MOL0     O26424   0.142   8.277   2.420 -0.4686  0.3110 -0.5922
  201MOL0     C26425   0.024   8.296   2.356  0.6741  0.7462  0.1342
  201MOL0     C26426  -0.085   8.268   2.433  0.2880 -0.5958 -0.4536
  201MOL0     C26427  -0.218   8.263   2.385 -0.4036 -0.6766 -0.3504
  201MOL0     C26428  -0.243   8.287   2.248 -0.2710  0.0757 -0.2111
  201MOL0     C26429  -0.381   8.293   2.195 -0.6532  0.9788 -0.1232
  201MOL0     O26430  -0.395   8.316   2.058 -0.2814 -0.1632  0.3435
  201MOL0     C26431  -0.524   8.304   2.015 -0.2775  0.6898 -1.0717
  201MOL0     C26432  -0.550   8.191   1.931  0.3161 -0.4132  0.7712
  201MOL0     C26433  -0.676   8.179   1.875  0.0896 -0.1606 -0.1647
  201MOL0     C26434  -0.782   8.273   1.905 -0.6700 -0.2623 -0.1068
  201MOL0     O26435  -0.917   8.264   1.862  0.8563  0.0983 -0.4375
  201MOL0     C26436  -0.933   8.161   1.768 -0.1685  0.3986 -0.1222
  201MOL0     C26437  -1.085   8.143   1.727  0.0694 -0.3572 -0.3837
  201MOL0     C26438  -1.170   8.082   1.840 -0.5082  0.0483 -0.0976
  201MOL0     C26439  -1.312   8.032   1.807 -0.3516 -0.4429 -0.0430
  201MOL0     C26440  -1.362   7.946   1.933  0.0974  0.7863  0.1627
  201MOL0     C26441  -1.514   7.930   1.933 -1.0411 -0.4641  0.1500
  201MOL0     C26442  -1.557   7.830   2.041  0.0689 -0.2893 -0.3959
  201MOL0     C26443  -1.696   7.783   2.021  0.5490 -0.3797 -0.0031
  201MOL0    Cl26444  -1.812   7.924   2.031 -0.0471  0.3309 -0.3495
  201MOL0     C26445  -0.755   8.389   1.977 -0.9566  0.1354  0.5319
  201MOL0     C26446  -0.629   8.408   2.037 -1.0912  0.2018  0.2274
  201MOL0     O26447  -0.471   8.277   2.281  0.3411 -0.1650 -0.1152
  201MOL0     C26448  -0.136   8.318   2.169 -0.4129 -0.2448  0.4847
  201MOL0     C26449   0.001   8.315   2.225 -0.3105 -0.7033 -0.8872
  201MOL0     N26450   0.720   8.373   2.421  0.4488  0.3935 -0.1312
  201MOL0     N26451   0.830   8.328   2.386 -0.6761  0.8871  0.0859
  201MOL0     C26452   1.734   7.646   2.708  0.8183  0.9806 -0.2443
  201MOL0     C26453   1.866   7.685   2.728  0.4971 -0.1178  0.0999
  201MOL0     C26454   2.318   7.661   2.794 -0.8287 -0.2860 -0.7161
  201MOL0     C26455   2.306   7.797   2.764  0.1606 -0.7380 -0.4044
  201MOL0     C26456   2.419   7.882   2.761  0.8431 -0.3398 -0.5160
  201MOL0     C26457   2.543   7.843   2.811 -0.5807  0.7230 -0.3554
  201MOL0     O26458   2.652   7.932   2.812  0.1620  0.1496 -0.2375
  201MOL0     C26459   2.784   7.878   2.821 -0.2317 -0.0522 -0.5800
  201MOL0     C26460   2.866   7.969   2.733  0.1697 -0.2496  0.4465
  201MOL0     C26461   3.002   7.968   2.777  0.6947 -0.6003 -0.0973
  201MOL0     C26462   3.020   8.050   2.905 -0.2091  1.1220  0.1999
  201MOL0     C26463   3.156   8.093   2.923  0.1998  0.3770  0.2901
  201MOL0     C26464   3.273   8.111   2.936 -0.4158 -0.2910  0.1646
  201MOL0     C26465   2.547   7.717   2.866 -0.1490  0.3608 -0.3550
  201MOL0     C26466   2.440   7.624   2.859 -0.3464 -0.8666  0.3980
  201MOL0     H26467   2.005   7.372   2.740 -0.9573 -1.3812 -0.9601
  201MOL0     H26468   1.755   7.317   2.690  1.9315 -1.5282 -4.4462
  201MOL0     H26469   1.492   7.637   2.799  1.1075  1.0304 -0.2314
  201MOL0     H26470   1.398   7.488   2.774  0.4412 -0.6916 -0.1054
  201MOL0     H26471   1.394   7.532   2.537  1.0336 -1.7289  1.7021
  201MOL0     H26472   1.469   7.690   2.548  1.1406 -0.5012  0.5036
  201MOL0     H26473   1.293   7.762   2.708 -1.3246 -0.1901  0.4622
  201MOL0     H26474   1.195   7.627   2.662 -0.6751  0.9031 -1.3860
  201MOL0     H26475   1.324   7.802   2.453  0.3473  1.1715  1.5308
  201MOL0     H26476   1.189   7.696   2.420  0.1880  0.4114  0.1604
  201MOL0     H26477   1.159   7.933   2.615 -3.8724  0.2594  1.2137
  201MOL0     H26478   1.035   7.832   2.574  0.4990  0.5319  1.1027
  201MOL0     H26479   1.067   7.887   2.322 -2.4086 -0.1276  0.2803
  201MOL0     H26480   1.178   8.011   2.362 -1.0442  0.7116 -0.6331
  201MOL0     H26481   0.923   8.048   2.340 -1.2154  0.1435  0.0268
  201MOL0     H26482   0.905   8.002   2.509  1.4990 -1.5254  0.6882
  201MOL0     H26483   1.075   8.224   2.396 -1.0682  0.7714 -1.0291
  201MOL0     H26484   1.060   8.183   2.576 -0.3173 -1.7057  0.6803
  201MOL0     H26485   0.810   8.242   2.702  1.7881  1.1525  0.3070
  201MOL0     H26486   0.574   8.391   2.711  2.5239 -2.7593  1.0093
  201MOL0     H26487   0.539   8.226   2.658 -0.5624 -0.3093  1.1301
  201MOL0     H26488   0.460   8.478   2.512  1.6250  1.5333  1.8089
  201MOL0     H26489   0.352   8.397   2.621  0.8014  0.6794  0.0474
  201MOL0     H26490   0.477   8.292   2.360 -1.3850  1.4675  0.5695
  201MOL0     H26491   0.396   8.181   2.456  2.9067 -0.0505  3.1499
  201MOL0     H26492   0.273   8.281   2.259 -2.4261 -1.1970  0.4241
  201MOL0     H26493   0.264   8.441   2.332  3.1721 -0.1459  0.8155
  201MOL0     H26494  -0.060   8.249   2.537  1.7346  0.5713 -0.5625
  201MOL0     H26495  -0.302   8.234   2.448  0.4160  0.0202  1.1225
  201MOL0     H26496  -0.472   8.124   1.898  0.9179  0.1334  1.0528
  201MOL0     H26497  -0.691   8.101   1.800 -3.6822 -0.8780  1.1272
  201MOL0     H26498  -0.887   8.069   1.807  2.1158  0.8416 -1.5660
  201MOL0     H26499  -0.869   8.178   1.681  1.5024 -2.3066  0.4367
  201MOL0     H26500  -1.085   8.075   1.642 -2.0492 -0.3476 -0.4506
  201MOL0     H26501  -1.118   8.236   1.679  0.0229 -0.7847 -1.1939
  201MOL0     H26502  -1.177   8.152   1.924 -0.1817 -0.8466  0.6914
  201MOL0     H26503  -1.110   7.999   1.880 -0.1549 -0.3011 -1.3188
  201MOL0     H26504  -1.378   8.112   1.774  2.6986  0.5356 -4.8118
  201MOL0     H26505  -1.292   7.965   1.722 -1.7060 -0.6884 -0.1968
  201MOL0     H26506  -1.344   8.000   2.027 -1.1517  0.9459  0.3203
  201MOL0     H26507  -1.326   7.844   1.944  0.8284  1.1257  1.1161
  201MOL0     H26508  -1.542   7.902   1.831  3.6235 -4.0562 -0.5302
  201MOL0     H26509  -1.553   8.031   1.945 -2.6159 -1.0625  0.2453
  201MOL0     H26510  -1.491   7.744   2.032  2.6488  1.5169  0.0983
  201MOL0     H26511  -1.546   7.879   2.138  0.5825  0.4931 -0.8407
  201MOL0     H26512  -1.714   7.705   2.095  1.6261 -0.5047  0.1537
  201MOL0     H26513  -1.706   7.740   1.921 -0.2401 -0.0474 -0.0723
  201MOL0     H26514  -0.838   8.453   2.004  0.7887  2.0324  1.7199
  201MOL0     H26515  -0.601   8.499   2.090  3.2114  0.0479 -1.3819
  201MOL0     H26516  -0.150   8.341   2.064 -2.7655  0.5375  0.9116
  201MOL0     H26517   0.093   8.323   2.167  2.0419 -1.2467  2.4319
  201MOL0     H26518   1.655   7.721   2.713  0.1197  0.3319 -1.2762
  201MOL0     H26519   1.873   7.790   2.757 -0.5471  0.8050 -2.5836
  201MOL0     H26520   2.216   7.826   2.711  0.5239 -2.8355 -2.3462
  201MOL0     H26521   2.407   7.980   2.716 -0.8321 -0.2495  0.0478
  201MOL0     H26522   2.802   7.774   2.790  1.9835  1.3371 -4.6470
  201MOL0     H26523   2.818   7.877   2.925  2.9476  2.3819 -1.4440
  201MOL0     H26524   2.860   7.947   2.626  3.5968  0.2700  0.0274
  201MOL0     H26525   2.836   8.073   2.753  3.7579  0.9801  0.1338
  201MOL0     H26526   3.056   8.016   2.694  0.1041  2.4830  1.1804
  201MOL0     H26527   3.041   7.866   2.789  1.0243 -0.5244 -0.4936
  201MOL0     H26528   2.966   8.145   2.900  1.1740  1.8814 -2.8786
  201MOL0     H26529   2.979   8.008   2.997 -0.4563  2.8235  0.9149
  201MOL0     H26530   3.378   8.120   2.953 -0.2101  0.5782 -1.4347
  201MOL0     H26531   2.636   7.686   2.920  0.5860  0.2475 -1.5846
  201MOL0     H26532   2.461   7.532   2.913  2.5509 -0.1781  0.6395
  202MOL0     O26533  11.079   8.055   4.836  0.3942 -0.1091  0.2200
  202MOL0     C26534  11.082   7.961   4.919 -0.8683 -0.2170  1.2235
  202MOL0     O26535  10.988   7.912   4.997 -1.2225  0.1500 -0.0537
  202MOL0     C26536  10.853   7.922   4.960  0.0143  0.2887  0.1263
  202MOL0     C26537  10.788   7.985   4.853  0.1543 -1.0442  0.0210
  202MOL0     C26538  10.648   7.965   4.826  0.4370  0.8750 -1.0359
  202MOL0     C26539  10.568   7.877   4.906  0.0943 -0.0388 -0.2642
  202MOL0     O26540  10.443   7.854   4.863  0.2785  0.2024 -0.3721
  202MOL0     C26541  10.343   7.782   4.946 -0.3637 -0.2042  0.2326
  202MOL0     C26542  10.256   7.870   5.034  0.4005 -0.0709  1.2340
  202MOL0     C26543  10.111   7.812   5.035  0.0461  0.0456  0.2494
  202MOL0     C26544  10.033   7.929   5.107  0.8710  0.2345  0.9262
  202MOL0     C26545   9.919   7.874   5.198 -0.0025 -0.5547 -0.2988
  202MOL0     C26546   9.822   7.787   5.122 -0.5494 -0.2272  0.5250
  202MOL0     C26547   9.741   7.853   5.007 -0.1648 -0.0900 -0.5203
  202MOL0     C26548   9.657   7.973   5.046  0.2306  0.0315 -0.2580
  202MOL0     N26549   9.554   7.939   5.147  0.9052 -0.1413 -0.6223
  202MOL0     C26550   9.551   7.989   5.277 -0.1141 -0.1427  0.2841
  202MOL0     C26551   9.441   7.946   5.332 -0.3187  0.8060 -0.2667
  202MOL0     C26552   9.384   7.973   5.472 -0.8455  0.6888  0.0374
  202MOL0     C26553   9.383   8.128   5.490 -0.0870  0.6024 -0.8082
  202MOL0     C26554   9.328   8.208   5.390 -0.9617 -0.0955  0.2323
  202MOL0     C26555   9.175   8.223   5.375 -0.0672  0.3487 -0.3029
  202MOL0     O26556   9.110   8.239   5.502  0.0845  0.0943 -0.3209
  202MOL0     C26557   8.978   8.217   5.532 -0.2140 -0.5660 -0.2243
  202MOL0     C26558   8.878   8.211   5.434 -0.5425 -0.6779 -0.1149
  202MOL0     C26559   8.742   8.204   5.459  0.1315  0.1955  0.0562
  202MOL0     C26560   8.689   8.215   5.593 -0.9036 -0.4552  0.8230
  202MOL0     C26561   8.543   8.227   5.612 -0.1727 -0.6814  0.5039
  202MOL0     O26562   8.457   8.265   5.513  0.4953 -0.2592  0.3701
  202MOL0     C26563   8.322   8.279   5.563 -1.1363  1.1698 -0.7852
  202MOL0     C26564   8.256   8.402   5.560 -0.0098  0.2196 -0.1734
  202MOL0     C26565   8.118   8.410   5.582  0.5646 -0.0719  0.6072
  202MOL0     C26566   8.037   8.316   5.642  0.3873  0.4357  0.5045
  202MOL0     O26567   7.902   8.330   5.667 -0.5789  0.4817  0.9561
  202MOL0     C26568   7.834   8.452   5.631 -0.2065  0.3688  0.1608
  202MOL0     C26569   7.689   8.431   5.685  0.3104 -0.8431 -0.4569
  202MOL0     C26570   7.592   8.534   5.619  0.0396  0.2430 -0.4162
  202MOL0     C26571   7.448   8.507   5.650  0.3378 -0.0725 -0.6028
  202MOL0     C26572   7.355   8.618   5.593 -0.0017  0.2147  0.7371
  202MOL0     C26573   7.201   8.588   5.580 -0.3908  0.3782  0.8992
  202MOL0     C26574   7.130   8.559   5.708  0.2532 -0.2727  0.4262
  202MOL0     C26575   7.092   8.683   5.784  0.3561  0.1793 -0.1826
  202MOL0    Cl26576   6.917   8.691   5.810 -0.8605  0.2911 -0.3317
  202MOL0     C26577   8.101   8.193   5.655  0.3560  0.6747  1.1508
  202MOL0     C26578   8.242   8.177   5.610 -0.3554  0.0073 -0.6150
  202MOL0     O26579   8.510   8.198   5.722  0.0710  0.3615  0.2849
  202MOL0     C26580   8.791   8.232   5.695  0.0098  0.2249  0.7432
  202MOL0     C26581   8.932   8.225   5.662 -0.4494  0.7560  0.2657
  202MOL0     N26582   9.369   7.881   5.232 -0.6792  0.3501 -0.7984
  202MOL0     N26583   9.430   7.882   5.125 -0.5854 -0.2149  0.9981
  202MOL0     C26584  10.625   7.827   5.026 -0.7750 -0.2383 -0.3185
  202MOL0     C26585  10.766   7.855   5.054  0.9788  0.4050  0.3564
  202MOL0     C26586  11.218   7.919   4.957 -0.4861 -0.2805 -0.4050
  202MOL0     C26587  11.334   7.997   4.928 -1.0586  0.0901 -0.6103
  202MOL0     C26588  11.459   7.949   4.960  0.2964  0.4977  0.3803
  202MOL0     C26589  11.477   7.814   5.005  0.2967  0.5504  0.7690
  202MOL0     O26590  11.602   7.766   5.032 -0.3783  0.2756 -0.2930
  202MOL0     C26591  11.708   7.822   4.951 -0.5186 -1.5283  0.2709
  202MOL0     C26592  11.832   7.755   4.986  0.0313 -0.7910 -0.4772
  202MOL0     C26593  11.946   7.835   4.927  0.0007 -0.1524  0.5524
  202MOL0     C26594  12.080   7.776   4.962  0.0078  0.4668  0.1113
  202MOL0     C26595  12.111   7.796   5.104  0.2846 -0.1183  0.2443
  202MOL0     C26596  12.140   7.807   5.219 -1.0786  0.3888  0.5900
  202MOL0     C26597  11.366   7.741   5.043 -0.4621  0.0176  0.4040
  202MOL0     C26598  11.240   7.790   5.019  1.3756 -0.1431 -0.2951
  202MOL0     H26599  10.851   8.048   4.791 -0.5130  1.0658  1.4088
  202MOL0     H26600  10.602   8.003   4.735 -0.7136  3.6582  0.5894
  202MOL0     H26601  10.388   7.703   5.007  0.5923 -0.9779 -1.3798
  202MOL0     H26602  10.272   7.734   4.878 -1.4600  3.4335 -1.4793
  202MOL0     H26603  10.265   7.971   4.991 -0.6595 -0.9321 -1.2152
  202MOL0     H26604  10.303   7.869   5.133 -1.8410 -0.2292  2.3525
  202MOL0     H26605  10.113   7.731   5.108 -0.7399  0.4707  0.7496
  202MOL0     H26606  10.078   7.782   4.935  0.0741 -0.2210  0.3198
  202MOL0     H26607  10.101   7.979   5.177  1.1698 -0.3333  1.0478
  202MOL0     H26608  10.008   7.998   5.026  2.8925  0.7892  0.7169
  202MOL0     H26609   9.872   7.952   5.259  1.0395  1.9361 -2.4748
  202MOL0     H26610   9.966   7.806   5.271 -1.3328 -0.6174  0.5378
  202MOL0     H26611   9.751   7.748   5.195 -0.8794  1.6034  1.2241
  202MOL0     H26612   9.883   7.700   5.096  0.7660  0.9206 -0.4300
  202MOL0     H26613   9.791   7.885   4.915 -0.0471  1.7497  0.1462
  202MOL0     H26614   9.680   7.770   4.969 -1.7956  0.2145  1.2781
  202MOL0     H26615   9.607   7.995   4.951  0.9941  1.3396 -0.3780
  202MOL0     H26616   9.720   8.055   5.082  0.2323  1.2188 -2.7235
  202MOL0     H26617   9.613   8.064   5.324 -0.3831 -0.2586  0.8388
  202MOL0     H26618   9.457   7.927   5.540  0.3222 -0.8183 -2.1405
  202MOL0     H26619   9.289   7.922   5.486  0.4279 -2.4310 -1.8841
  202MOL0     H26620   9.487   8.162   5.499 -0.0154  0.1044  0.3884
  202MOL0     H26621   9.334   8.135   5.587  1.5725  1.5097  0.0120
  202MOL0     H26622   9.355   8.309   5.425  0.3429 -0.0039 -0.9335
  202MOL0     H26623   9.380   8.188   5.296 -2.2197  0.7966 -0.6859
  202MOL0     H26624   9.134   8.138   5.320  2.0766 -1.2434  0.4194
  202MOL0     H26625   9.158   8.312   5.313  0.6043  0.2552 -0.6235
  202MOL0     H26626   8.905   8.195   5.330  3.8159 -2.1614  1.0510
  202MOL0     H26627   8.669   8.220   5.381  1.2063 -1.7085 -1.4140
  202MOL0     H26628   8.308   8.489   5.521  1.0436  0.6118  1.9476
  202MOL0     H26629   8.072   8.507   5.565 -2.6498 -1.8112 -1.8890
  202MOL0     H26630   7.834   8.460   5.522  3.5474  1.3850  0.1145
  202MOL0     H26631   7.879   8.541   5.677 -0.8175  0.0447  1.4218
  202MOL0     H26632   7.689   8.443   5.794  2.1358  1.6889 -0.6349
  202MOL0     H26633   7.648   8.333   5.661 -3.1264  0.9232 -2.6118
  202MOL0     H26634   7.606   8.529   5.511  0.2126  4.1408 -0.7178
  202MOL0     H26635   7.620   8.632   5.659 -0.9509 -0.1696  1.4232
  202MOL0     H26636   7.424   8.406   5.614 -1.3563 -0.3156  1.0600
  202MOL0     H26637   7.430   8.516   5.757 -0.4852 -0.4993 -0.6883
  202MOL0     H26638   7.401   8.645   5.497 -1.2711  1.4813  0.4408
  202MOL0     H26639   7.362   8.701   5.665 -1.0650  1.0987 -0.1408
  202MOL0     H26640   7.180   8.506   5.511 -1.4892  0.7026  0.8319
  202MOL0     H26641   7.161   8.678   5.533 -2.3095 -0.9532 -0.1664
  202MOL0     H26642   7.039   8.504   5.681 -0.7708  2.0420 -1.0764
  202MOL0     H26643   7.188   8.499   5.780  0.8090  2.1253  2.0846
  202MOL0     H26644   7.106   8.773   5.723  2.8337 -0.0718 -0.1007
  202MOL0     H26645   7.149   8.693   5.877 -0.2481 -0.4251  0.2626
  202MOL0     H26646   8.058   8.110   5.710 -0.4067  1.5320  1.8699
  202MOL0     H26647   8.303   8.087   5.616 -1.1892 -0.5436 -0.1516
  202MOL0     H26648   8.767   8.234   5.801 -1.7471 -2.0357  0.4582
  202MOL0     H26649   9.007   8.227   5.740 -1.9293  3.0097  1.7622
  202MOL0     H26650  10.566   7.779   5.103  1.7513 -1.2880  1.0706
  202MOL0     H26651  10.810   7.815   5.145  1.4015  0.3620  0.1336
  202MOL0     H26652  11.321   8.092   4.877  0.1910  1.4684  1.5075
  202MOL0     H26653  11.541   8.008   4.921  0.9501  0.2677  1.3542
  202MOL0     H26654  11.720   7.927   4.981 -0.2531 -1.0532 -1.4166
  202MOL0     H26655  11.690   7.814   4.844 -5.6372 -0.3252  0.8173
  202MOL0     H26656  11.833   7.758   5.095 -0.9541  0.2185 -0.4781
  202MOL0     H26657  11.833   7.651   4.952  2.7340 -1.3325  0.9508
  202MOL0     H26658  11.948   7.940   4.959 -0.7226 -0.5568  2.0688
  202MOL0     H26659  11.939   7.839   4.818 -0.3300 -0.7509  0.5455
  202MOL0     H26660  12.097   7.675   4.926  2.9905  0.6290  0.8196
  202MOL0     H26661  12.146   7.836   4.899 -2.4193 -0.1454 -3.2885
  202MOL0     H26662  12.168   7.829   5.320 -0.6170  1.0475  0.3300
  202MOL0     H26663  11.374   7.650   5.101 -0.9351  0.7565  1.6485
  202MOL0     H26664  11.165   7.733   5.073  0.3617  1.3437 -0.0961
  203MOL0     O26665   9.994   9.018   3.639  0.1188 -0.4178 -0.6186
  203MOL0     C26666  10.056   8.927   3.694 -1.6543  0.1226 -0.6816
  203MOL0     O26667  10.000   8.821   3.758  0.5038 -0.7278  0.5581
  203MOL0     C26668   9.883   8.772   3.705 -0.3454 -0.2346 -0.2489
  203MOL0     C26669   9.842   8.775   3.579 -0.1485  0.6389  1.3013
  203MOL0     C26670   9.711   8.736   3.539  0.2216  0.3073 -0.9330
  203MOL0     C26671   9.626   8.659   3.630  0.2283 -0.1626  0.6404
  203MOL0     O26672   9.511   8.591   3.597 -0.4561  0.4590 -0.4097
  203MOL0     C26673   9.382   8.657   3.604  0.4682 -0.4725 -0.0592
  203MOL0     C26674   9.293   8.534   3.623  0.7011  0.0848 -0.7933
  203MOL0     C26675   9.143   8.572   3.605 -1.1099 -0.4776  0.4069
  203MOL0     C26676   9.091   8.682   3.687  0.1136  0.2655  0.3665
  203MOL0     C26677   8.940   8.673   3.684  0.0255 -0.2476  0.6148
  203MOL0     C26678   8.860   8.796   3.742 -0.1714  0.8647  0.3727
  203MOL0     C26679   8.713   8.756   3.742  0.7007 -0.0872 -0.0202
  203MOL0     C26680   8.631   8.859   3.832  0.2079  0.5370  0.6003
  203MOL0     N26681   8.490   8.829   3.816  0.3199 -0.7600  0.3881
  203MOL0     C26682   8.419   8.735   3.873  0.0446 -0.0094  0.3152
  203MOL0     C26683   8.286   8.763   3.841 -0.5424  0.5170  0.3669
  203MOL0     C26684   8.172   8.674   3.871 -0.7549 -0.0602 -0.6016
  203MOL0     C26685   8.079   8.740   3.977 -0.2481  0.7620  0.3300
  203MOL0     C26686   7.994   8.630   4.045  0.2975 -0.4481 -0.0958
  203MOL0     C26687   7.901   8.672   4.158 -0.3245  0.1031  0.2307
  203MOL0     O26688   7.863   8.556   4.219 -0.6552  0.3288 -0.4296
  203MOL0     C26689   7.749   8.552   4.297 -0.3853 -0.9243 -0.5368
  203MOL0     C26690   7.662   8.451   4.266 -0.6990  0.9586  0.2410
  203MOL0     C26691   7.539   8.444   4.330  0.1471 -0.0980  0.1462
  203MOL0     C26692   7.505   8.535   4.428  0.0452 -0.6764  0.2969
  203MOL0     C26693   7.378   8.541   4.497  0.4315 -0.1734 -0.0842
  203MOL0     O26694   7.381   8.617   4.613  0.3962  1.0318 -0.5313
  203MOL0     C26695   7.265   8.630   4.691 -1.1947 -0.4412 -0.8763
  203MOL0     C26696   7.302   8.667   4.823 -0.2040 -0.8310  0.2587
  203MOL0     C26697   7.204   8.672   4.923  0.5126 -0.3284  0.4236
  203MOL0     C26698   7.070   8.650   4.895  1.3984  0.2493  1.2071
  203MOL0     O26699   6.964   8.659   4.985 -0.5392 -0.5217  0.2472
  203MOL0     C26700   6.938   8.556   5.088  0.9620 -0.0197  0.8563
  203MOL0     C26701   6.897   8.412   5.029 -0.4438  0.9248 -0.5010
  203MOL0     C26702   6.931   8.311   5.142 -0.0029  0.1844 -0.0529
  203MOL0     C26703   6.903   8.165   5.094  0.1531 -0.8370 -0.2082
  203MOL0     C26704   6.925   8.060   5.202 -0.6738 -0.4737  0.0866
  203MOL0     C26705   7.078   8.038   5.239  0.6853 -0.5394  0.4892
  203MOL0     C26706   7.089   7.949   5.359  0.3822 -0.0040 -0.7694
  203MOL0     C26707   7.235   7.916   5.401  0.5674  0.5653  0.3662
  203MOL0    Cl26708   7.329   7.811   5.288  0.3356 -0.1345  0.0482
  203MOL0     C26709   7.026   8.620   4.757 -0.2498 -0.3413 -0.5784
  203MOL0     C26710   7.124   8.611   4.667  1.2359  0.2474 -0.2235
  203MOL0     O26711   7.280   8.489   4.439 -0.0861  0.1431 -0.5364
  203MOL0     C26712   7.600   8.633   4.461 -0.4863 -0.4947 -0.5567
  203MOL0     C26713   7.724   8.640   4.397  0.0467 -0.1040  0.2532
  203MOL0     N26714   8.279   8.872   3.755 -0.5968  0.1325  0.1589
  203MOL0     N26715   8.406   8.914   3.739 -0.8748 -0.1687  0.3863
  203MOL0     C26716   9.674   8.640   3.754  0.1368 -0.1355 -0.5701
  203MOL0     C26717   9.804   8.696   3.794  0.0696  0.2899 -0.5998
  203MOL0     C26718  10.207   8.931   3.722 -0.8741  0.0165 -0.2148
  203MOL0     C26719  10.292   9.012   3.640  0.1284  0.8297  1.2800
  203MOL0     C26720  10.432   9.000   3.648 -0.1285  0.7083  0.0232
  203MOL0     C26721  10.493   8.935   3.756 -0.4066  1.0948  0.0531
  203MOL0     O26722  10.627   8.932   3.782  0.0878  0.3498 -0.6964
  203MOL0     C26723  10.725   9.016   3.722  0.5569 -0.5389  0.5052
  203MOL0     C26724  10.875   8.987   3.754 -0.5354 -0.1272 -0.6490
  203MOL0     C26725  10.894   9.021   3.907 -0.3822 -0.2131  0.2033
  203MOL0     C26726  11.006   8.956   3.979  0.5352 -0.2051 -0.0022
  203MOL0     C26727  11.132   9.002   3.922 -0.0209 -0.0463  0.0605
  203MOL0     C26728  11.233   9.050   3.891 -0.0096 -0.7043 -0.7652
  203MOL0     C26729  10.415   8.851   3.832  0.0114 -0.4963 -0.7595
  203MOL0     C26730  10.281   8.849   3.817  0.2372 -0.0193  0.2441
  203MOL0     H26731   9.907   8.822   3.506  1.2607 -1.9083  0.8169
  203MOL0     H26732   9.675   8.751   3.437 -0.8656 -1.3586 -0.8325
  203MOL0     H26733   9.363   8.698   3.505  3.2176 -2.6182 -1.6341
  203MOL0     H26734   9.371   8.723   3.690  1.2725 -2.3519  1.5768
  203MOL0     H26735   9.295   8.492   3.724  0.0783 -0.3830 -0.9655
  203MOL0     H26736   9.327   8.449   3.564 -1.0743 -0.3062 -1.3072
  203MOL0     H26737   9.085   8.481   3.625 -2.2920 -0.2220 -1.6549
  203MOL0     H26738   9.132   8.607   3.502 -3.8540 -2.3541 -0.0498
  203MOL0     H26739   9.127   8.666   3.789  0.2188 -0.6476  0.1926
  203MOL0     H26740   9.132   8.777   3.654  1.2777  0.3584  1.9607
  203MOL0     H26741   8.919   8.577   3.732 -2.8013 -0.4214 -0.7506
  203MOL0     H26742   8.898   8.665   3.583 -2.4016  5.7891  0.7347
  203MOL0     H26743   8.888   8.883   3.681 -0.8057  0.3470 -0.6763
  203MOL0     H26744   8.879   8.814   3.849 -0.3693  3.1312  0.0773
  203MOL0     H26745   8.673   8.747   3.641 -1.6667 -0.8448  0.9253
  203MOL0     H26746   8.699   8.659   3.791 -0.4532  1.1148  2.1981
  203MOL0     H26747   8.649   8.960   3.794 -0.8118  0.9397  1.1634
  203MOL0     H26748   8.666   8.862   3.936  1.2748 -0.3728  0.2884
  203MOL0     H26749   8.452   8.651   3.934 -2.6192 -1.0006  0.5662
  203MOL0     H26750   8.216   8.578   3.899 -0.4394 -0.3521 -2.0164
  203MOL0     H26751   8.116   8.646   3.782  1.1540  3.1648 -3.0307
  203MOL0     H26752   8.014   8.802   3.914 -0.2181  1.7750  1.2621
  203MOL0     H26753   8.125   8.806   4.051 -0.7726  0.4151  0.9748
  203MOL0     H26754   7.924   8.586   3.974 -1.5672  0.4238  1.1200
  203MOL0     H26755   8.064   8.554   4.082  0.0341 -1.4080 -1.5095
  203MOL0     H26756   7.813   8.722   4.115 -0.3462 -0.5918 -0.5569
  203MOL0     H26757   7.950   8.743   4.225 -0.8254  0.5971  0.0832
  203MOL0     H26758   7.675   8.392   4.176 -2.5127  1.6259 -0.5113
  203MOL0     H26759   7.469   8.364   4.309 -0.7174 -0.8305  4.6212
  203MOL0     H26760   7.401   8.707   4.844 -0.6835  0.2074  0.6090
  203MOL0     H26761   7.235   8.718   5.017  2.9880  2.1848 -1.4267
  203MOL0     H26762   6.854   8.606   5.136  0.5060  3.4947 -3.0105
  203MOL0     H26763   7.019   8.546   5.161  0.1089 -3.9411  1.5246
  203MOL0     H26764   6.959   8.392   4.941  0.0464 -1.2885  0.2931
  203MOL0     H26765   6.790   8.409   5.008 -0.1937 -0.7264 -1.7740
  203MOL0     H26766   6.863   8.338   5.223 -0.5773  2.5518 -1.2231
  203MOL0     H26767   7.036   8.317   5.173 -0.0854 -0.8920  0.4890
  203MOL0     H26768   6.794   8.174   5.087 -0.1280 -0.3081  3.2651
  203MOL0     H26769   6.965   8.143   5.007  0.9321  0.3101  0.0341
  203MOL0     H26770   6.881   7.968   5.162 -2.2407 -0.3939  1.5104
  203MOL0     H26771   6.875   8.094   5.293 -0.5349  0.5537 -0.2101
  203MOL0     H26772   7.123   8.136   5.259 -1.1520  0.2977  0.7017
  203MOL0     H26773   7.118   7.986   5.151 -0.5338  1.0304 -1.0552
  203MOL0     H26774   7.062   8.014   5.443  2.7357  1.0648 -0.7562
  203MOL0     H26775   7.031   7.856   5.358 -0.8485  0.7461 -1.3570
  203MOL0     H26776   7.241   7.866   5.498 -2.2491 -0.1476  0.2439
  203MOL0     H26777   7.298   8.006   5.411  1.8771 -0.3579  0.6800
  203MOL0     H26778   6.921   8.595   4.743 -0.2268  0.2422 -1.9557
  203MOL0     H26779   7.090   8.585   4.567 -2.3624  0.9018  0.7155
  203MOL0     H26780   7.583   8.701   4.544  0.2607 -1.0498  0.0734
  203MOL0     H26781   7.790   8.726   4.395 -0.5265  0.3683  1.1332
  203MOL0     H26782   9.624   8.580   3.830  4.0177 -3.1104 -0.0568
  203MOL0     H26783   9.822   8.677   3.900 -2.1988  0.9846 -0.0326
  203MOL0     H26784  10.240   9.063   3.560 -1.2007  1.8067  2.7007
  203MOL0     H26785  10.487   9.056   3.573 -0.5685 -0.1646 -0.9703
  203MOL0     H26786  10.710   9.119   3.755  1.5597 -0.3907  0.5348
  203MOL0     H26787  10.716   9.022   3.613 -0.6281  1.0036  0.6482
  203MOL0     H26788  10.902   8.883   3.729 -0.3531 -0.5737  1.2234
  203MOL0     H26789  10.934   9.055   3.692 -0.9021  0.8332  0.0339
  203MOL0     H26790  10.804   8.996   3.964  3.1792  1.4891  8.0762
  203MOL0     H26791  10.905   9.130   3.911  2.1354 -0.1269 -3.6796
  203MOL0     H26792  11.002   8.986   4.085  0.4054  0.8828 -0.3012
  203MOL0     H26793  10.992   8.848   3.980 -0.9770 -0.0286  1.3943
  203MOL0     H26794  11.332   9.082   3.863 -0.8578  1.2134 -1.7658
  203MOL0     H26795  10.456   8.795   3.915  0.2910  2.0533  0.9363
  203MOL0     H26796  10.218   8.799   3.890  2.3190 -1.6652  0.9842
  204MOL0     O26797   4.062   1.331   5.346 -0.4295 -0.2893 -0.3798
  204MOL0     C26798   4.058   1.447   5.338 -0.1769  0.1124 -0.5588
  204MOL0     O26799   3.959   1.516   5.286  0.2766 -0.3308 -0.1695
  204MOL0     C26800   3.838   1.478   5.235 -0.3004 -0.5194 -0.0627
  204MOL0     C26801   3.746   1.576   5.231  0.7544 -0.5233 -0.6442
  204MOL0     C26802   3.623   1.552   5.170  0.1422  0.0762  0.1488
  204MOL0     C26803   3.592   1.428   5.116  0.6921 -0.3333  0.3742
  204MOL0     O26804   3.483   1.387   5.045  0.1403 -0.6421  0.2694
  204MOL0     C26805   3.383   1.483   5.014  0.4906  0.4326 -0.1652
  204MOL0     C26806   3.261   1.412   4.946 -0.1973 -0.3346 -0.5962
  204MOL0     C26807   3.140   1.505   4.919  0.5701  0.3274 -0.6768
  204MOL0     C26808   3.014   1.420   4.886  0.8213  0.0457 -0.5948
  204MOL0     C26809   2.904   1.514   4.846  1.3614  0.4903  0.3749
  204MOL0     C26810   2.773   1.445   4.812  1.1896  0.5609  0.1093
  204MOL0     C26811   2.673   1.533   4.741 -0.3863  1.0698  0.4606
  204MOL0     C26812   2.623   1.652   4.819 -0.5330 -0.9870  0.6034
  204MOL0     N26813   2.536   1.726   4.735  0.0924 -0.0343  0.7318
  204MOL0     C26814   2.410   1.702   4.700  0.2163  0.5376 -0.5013
  204MOL0     C26815   2.376   1.801   4.611  0.8295 -0.7553 -0.1995
  204MOL0     C26816   2.252   1.827   4.539  0.0800 -0.2502 -0.5449
  204MOL0     C26817   2.131   1.829   4.647 -0.9434 -0.7023  0.4903
  204MOL0     C26818   2.032   1.944   4.613 -0.3840 -0.1580 -0.7387
  204MOL0     C26819   1.963   1.902   4.482 -0.0610  0.6876 -0.6614
  204MOL0     O26820   1.905   2.018   4.420 -0.5044 -0.3368  0.8475
  204MOL0     C26821   1.765   2.035   4.421  0.8003 -0.0225  0.2786
  204MOL0     C26822   1.711   2.128   4.320 -0.4531  1.2377 -0.7921
  204MOL0     C26823   1.575   2.159   4.311  0.8901  0.1488 -0.1860
  204MOL0     C26824   1.485   2.096   4.402  0.4067  1.0476 -0.4151
  204MOL0     C26825   1.340   2.108   4.376 -0.4695 -0.8409 -0.6149
  204MOL0     O26826   1.301   2.182   4.260 -0.2883 -0.3651 -0.2907
  204MOL0     C26827   1.170   2.223   4.238  0.7136  0.3359 -0.4557
  204MOL0     C26828   1.069   2.128   4.243  0.8351  0.3612 -1.1053
  204MOL0     C26829   0.933   2.165   4.242  0.0555  0.1690 -0.4708
  204MOL0     C26830   0.898   2.299   4.242  0.8270 -0.0223  1.1213
  204MOL0     O26831   0.767   2.356   4.226  0.2820 -0.1632  0.8068
  204MOL0     C26832   0.658   2.277   4.182 -0.1337  0.5715 -0.2235
  204MOL0     C26833   0.533   2.366   4.192  0.0871  0.2060 -0.4596
  204MOL0     C26834   0.468   2.339   4.323 -0.2693  0.5905 -0.3959
  204MOL0     C26835   0.356   2.440   4.341  0.5474 -0.2301  0.2879
  204MOL0     C26836   0.280   2.432   4.479 -0.1971 -0.1946 -0.7800
  204MOL0     C26837   0.157   2.516   4.477  0.1191 -0.1041  0.5636
  204MOL0     C26838   0.047   2.484   4.366  0.2646  0.5591  0.9187
  204MOL0     C26839   0.050   2.591   4.257  0.3179 -1.3400  0.5582
  204MOL0    Cl26840  -0.068   2.542   4.121 -0.4861 -0.1658  0.0724
  204MOL0     C26841   0.997   2.388   4.243  0.4734  0.7215  0.0130
  204MOL0     C26842   1.128   2.347   4.234  0.2079 -0.0038 -0.3254
  204MOL0     O26843   1.263   2.057   4.457 -0.2412  0.0213 -0.1638
  204MOL0     C26844   1.535   2.008   4.498 -0.1419  1.2683  0.7535
  204MOL0     C26845   1.671   1.977   4.512 -0.4343 -0.0575  0.8635
  204MOL0     N26846   2.478   1.888   4.598 -0.5534 -0.6233 -0.6542
  204MOL0     N26847   2.576   1.844   4.668 -0.5360  0.4406  0.1723
  204MOL0     C26848   3.696   1.331   5.116  0.6932  1.3963 -0.4076
  204MOL0     C26849   3.820   1.360   5.171 -0.6228  0.7687  0.4012
  204MOL0     C26850   4.169   1.529   5.400  0.1722  0.6983  1.3545
  204MOL0     C26851   4.159   1.668   5.410  0.4732 -0.4079  0.0825
  204MOL0     C26852   4.277   1.739   5.431 -0.1544  0.3974 -1.1845
  204MOL0     C26853   4.401   1.674   5.461  1.2872 -0.8995  0.7765
  204MOL0     O26854   4.505   1.760   5.499 -0.3231 -0.0744 -0.4525
  204MOL0     C26855   4.620   1.741   5.416 -0.4996 -0.0286  0.2610
  204MOL0     C26856   4.742   1.839   5.439  0.9646 -0.2604  0.5155
  204MOL0     C26857   4.819   1.810   5.570 -0.3375  0.3687 -0.1604
  204MOL0     C26858   4.881   1.931   5.634 -0.1308  0.6556 -0.6332
  204MOL0     C26859   4.987   1.971   5.542 -0.3777 -0.8511 -0.1598
  204MOL0     C26860   5.076   1.997   5.466 -0.0544 -0.9405 -0.1319
  204MOL0     C26861   4.407   1.539   5.471 -0.4575  0.3214  0.2662
  204MOL0     C26862   4.291   1.464   5.433  0.1103  0.6918 -0.6283
  204MOL0     H26863   3.770   1.672   5.275 -2.4152 -0.0246  0.2188
  204MOL0     H26864   3.534   1.614   5.172 -0.0427  0.2675 -4.3360
  204MOL0     H26865   3.423   1.558   4.945  1.0456  2.6078  2.3708
  204MOL0     H26866   3.361   1.537   5.106  1.1936  0.2754  0.1035
  204MOL0     H26867   3.228   1.327   5.007  1.4849 -1.5266 -1.2601
  204MOL0     H26868   3.297   1.381   4.848 -1.5716  3.4474 -2.4765
  204MOL0     H26869   3.174   1.569   4.837 -2.7030 -0.5599 -2.9334
  204MOL0     H26870   3.117   1.565   5.007 -0.0224 -2.8324  1.5150
  204MOL0     H26871   3.043   1.358   4.801 -2.0652 -1.1714 -0.8140
  204MOL0     H26872   2.982   1.365   4.975 -1.2253  0.6771 -0.8979
  204MOL0     H26873   2.937   1.564   4.754 -1.8784 -0.3242 -1.3968
  204MOL0     H26874   2.887   1.580   4.932 -0.1677 -0.5393  0.9208
  204MOL0     H26875   2.720   1.411   4.902  2.5719 -0.1014  0.6972
  204MOL0     H26876   2.790   1.354   4.753  0.8797 -0.6022  1.7262
  204MOL0     H26877   2.738   1.556   4.656  1.2952 -1.3464  0.9769
  204MOL0     H26878   2.592   1.462   4.720  0.8976 -0.4936  0.5741
  204MOL0     H26879   2.715   1.707   4.842  1.0556 -2.4694 -1.7181
  204MOL0     H26880   2.558   1.632   4.905 -0.0123  0.1794  1.2816
  204MOL0     H26881   2.344   1.623   4.734 -1.3125  0.3976 -3.4552
  204MOL0     H26882   2.238   1.745   4.468 -2.1134 -0.5291  0.1177
  204MOL0     H26883   2.257   1.924   4.489 -3.9908 -0.9095 -2.6859
  204MOL0     H26884   2.179   1.856   4.741 -2.3572  0.9748  0.7764
  204MOL0     H26885   2.083   1.731   4.655 -0.4130 -1.3075 -2.4675
  204MOL0     H26886   1.958   1.953   4.694 -1.4224 -0.8255 -1.5744
  204MOL0     H26887   2.092   2.031   4.587 -0.8245 -0.0089 -1.2743
  204MOL0     H26888   1.889   1.824   4.501 -0.0622  0.6690 -0.7423
  204MOL0     H26889   2.030   1.855   4.411  0.3196 -1.0790  0.8041
  204MOL0     H26890   1.787   2.176   4.258 -1.7685  2.7241 -1.3367
  204MOL0     H26891   1.532   2.232   4.243 -3.9835 -0.6922  1.5494
  204MOL0     H26892   1.089   2.022   4.252  1.9242  0.6666  0.3928
  204MOL0     H26893   0.851   2.094   4.244  0.2217 -0.0173 -0.2797
  204MOL0     H26894   0.650   2.189   4.245 -2.3037  1.3005  0.6134
  204MOL0     H26895   0.666   2.236   4.081  2.4978 -0.0839  0.1802
  204MOL0     H26896   0.459   2.349   4.113 -1.1160 -1.5818  0.9813
  204MOL0     H26897   0.562   2.471   4.184 -0.0423  0.3045  0.2985
  204MOL0     H26898   0.551   2.338   4.395  1.7541 -5.5632 -2.2132
  204MOL0     H26899   0.419   2.242   4.320  0.6132  0.0864  0.7256
  204MOL0     H26900   0.410   2.534   4.330  1.5312 -0.8241 -0.1383
  204MOL0     H26901   0.281   2.431   4.262 -0.3388 -1.1313  1.2045
  204MOL0     H26902   0.350   2.467   4.555  0.4344  4.4243 -3.1269
  204MOL0     H26903   0.259   2.328   4.508 -1.3638 -0.1827 -1.5043
  204MOL0     H26904   0.181   2.622   4.468  1.0747 -0.1016  2.6466
  204MOL0     H26905   0.117   2.497   4.577 -0.4255  0.4897  0.4665
  204MOL0     H26906   0.057   2.380   4.332 -1.0233  0.3269  1.2096
  204MOL0     H26907  -0.049   2.500   4.415  0.5336 -0.6111  1.8681
  204MOL0     H26908   0.152   2.612   4.226 -0.4550  1.0844 -0.5866
  204MOL0     H26909   0.001   2.678   4.302  0.8170  0.8608 -2.7861
  204MOL0     H26910   0.969   2.492   4.227  2.5566  1.4209  0.6638
  204MOL0     H26911   1.198   2.429   4.233 -0.3839  0.5068 -0.4391
  204MOL0     H26912   1.463   1.949   4.554 -0.6494 -1.3763 -2.4014
  204MOL0     H26913   1.703   1.918   4.597 -0.8353  0.8475  1.6656
  204MOL0     H26914   3.667   1.228   5.102 -0.4199  0.9628  3.7841
  204MOL0     H26915   3.895   1.283   5.183  0.6489  1.7242 -0.9209
  204MOL0     H26916   4.066   1.721   5.392 -0.1666 -1.2492  0.8321
  204MOL0     H26917   4.270   1.848   5.434  2.2960  0.6224  1.8158
  204MOL0     H26918   4.583   1.756   5.314 -0.3095 -2.0964 -0.1519
  204MOL0     H26919   4.649   1.638   5.437 -2.1669 -0.1595  2.1137
  204MOL0     H26920   4.809   1.826   5.354 -0.3078 -1.1595 -0.4036
  204MOL0     H26921   4.700   1.939   5.429  1.3885  0.0938  2.0554
  204MOL0     H26922   4.902   1.739   5.556  0.5516  1.3737 -0.1476
  204MOL0     H26923   4.745   1.786   5.646  0.5428  0.4362  0.7442
  204MOL0     H26924   4.813   2.016   5.645  0.1146  1.0156 -1.7354
  204MOL0     H26925   4.914   1.905   5.735 -1.1285 -1.2804 -0.7433
  204MOL0     H26926   5.153   2.027   5.398 -3.1663  0.2772 -3.4379
  204MOL0     H26927   4.501   1.487   5.486 -0.2741  0.8080  0.8217
  204MOL0     H26928   4.293   1.356   5.444  3.4894  0.7684  0.6614
  205MOL0     O26929   8.309   1.893   7.342  0.1434 -0.5156  0.2530
  205MOL0     C26930   8.226   1.820   7.289 -0.9729 -0.2477  0.2084
  205MOL0     O26931   8.105   1.864   7.243  0.4957  0.2670 -0.7392
  205MOL0     C26932   8.067   1.992   7.261  0.4461 -0.3429 -0.0909
  205MOL0     C26933   8.148   2.090   7.206 -0.8098 -0.0897 -0.8446
  205MOL0     C26934   8.112   2.224   7.223 -0.2868  0.2610  0.5341
  205MOL0     C26935   7.991   2.266   7.290 -0.0052  0.7565  0.5817
  205MOL0     O26936   7.939   2.388   7.302  0.2295 -0.2043  0.3524
  205MOL0     C26937   7.996   2.492   7.222 -1.0444 -0.2358  0.1695
  205MOL0     C26938   7.923   2.625   7.245 -0.2525  0.2107 -1.1978
  205MOL0     C26939   7.771   2.624   7.207  0.3493 -0.2468  0.1952
  205MOL0     C26940   7.718   2.771   7.191 -0.5707 -0.7753  0.1333
  205MOL0     C26941   7.563   2.778   7.188  0.5836  0.2027 -0.4744
  205MOL0     C26942   7.513   2.898   7.105 -0.3424  0.3051  0.9481
  205MOL0     C26943   7.369   2.923   7.124  0.4635  0.3858  0.2077
  205MOL0     C26944   7.342   3.045   7.038  0.5083 -0.9940 -0.8826
  205MOL0     N26945   7.207   3.093   7.010  0.2412 -0.5622 -0.3710
  205MOL0     C26946   7.132   3.149   7.113 -0.4211 -0.5227  0.4038
  205MOL0     C26947   7.015   3.173   7.053 -0.8601 -1.0294  0.3968
  205MOL0     C26948   6.886   3.240   7.093  0.4487 -0.4691 -0.2098
  205MOL0     C26949   6.866   3.374   7.009  0.2074  0.7002  0.0528
  205MOL0     C26950   6.774   3.473   7.075 -0.1163  0.1769 -0.8920
  205MOL0     C26951   6.627   3.418   7.110 -0.1982 -1.2085 -0.0716
  205MOL0     O26952   6.545   3.410   6.996  0.5552  0.5544 -0.9834
  205MOL0     C26953   6.407   3.413   7.023 -0.4495  0.6353  0.0229
  205MOL0     C26954   6.332   3.421   7.142  0.7818  0.5861  0.1760
  205MOL0     C26955   6.195   3.432   7.142 -0.1001  0.4274  0.1490
  205MOL0     C26956   6.124   3.446   7.024 -0.3047 -0.2349  0.2933
  205MOL0     C26957   5.977   3.482   7.012  0.6611 -0.2145  0.3050
  205MOL0     O26958   5.923   3.506   6.889 -0.6756  0.3909 -0.8409
  205MOL0     C26959   5.803   3.567   6.873  0.5381 -1.4993 -0.0853
  205MOL0     C26960   5.744   3.661   6.965 -0.5857  1.2749  0.0692
  205MOL0     C26961   5.636   3.738   6.935 -0.6859 -0.9327 -0.1710
  205MOL0     C26962   5.572   3.731   6.812  0.0670 -0.5294 -0.6929
  205MOL0     O26963   5.466   3.816   6.783 -0.6345 -0.4154  0.7657
  205MOL0     C26964   5.356   3.763   6.712  0.7720  0.5047  0.0803
  205MOL0     C26965   5.250   3.686   6.801 -0.8535 -0.5226 -0.0172
  205MOL0     C26966   5.168   3.783   6.884 -0.8736 -0.1420  0.6547
  205MOL0     C26967   5.076   3.712   6.980 -0.0013  0.7217 -0.1256
  205MOL0     C26968   5.017   3.808   7.091 -0.3137  0.4248  0.3506
  205MOL0     C26969   4.904   3.726   7.152  0.2109  0.4614 -0.0077
  205MOL0     C26970   4.866   3.782   7.292 -0.1402  0.3367 -0.4655
  205MOL0     C26971   4.758   3.692   7.337  0.2429  0.1884 -0.2452
  205MOL0    Cl26972   4.695   3.766   7.485 -0.0468  0.0067 -0.0828
  205MOL0     C26973   5.619   3.626   6.725  0.6015  0.3559 -0.8040
  205MOL0     C26974   5.729   3.545   6.756  0.6437  0.1325 -0.6987
  205MOL0     O26975   5.917   3.475   7.118  0.0480 -0.5362  0.2828
  205MOL0     C26976   6.201   3.434   6.909  0.0887  1.0787  0.0501
  205MOL0     C26977   6.336   3.415   6.906 -0.2416  0.2625 -0.0716
  205MOL0     N26978   7.034   3.141   6.915 -1.0218 -0.3480 -0.9582
  205MOL0     N26979   7.148   3.095   6.890 -0.3759  0.6956  0.4353
  205MOL0     C26980   7.918   2.163   7.351 -0.4321 -0.0825 -0.1664
  205MOL0     C26981   7.958   2.025   7.337  0.2973  0.1925  1.1398
  205MOL0     C26982   8.254   1.678   7.290  0.8971 -0.1214  0.4840
  205MOL0     C26983   8.359   1.616   7.357  0.2381  0.4975  0.1667
  205MOL0     C26984   8.360   1.484   7.359 -1.1761  0.7938 -0.5436
  205MOL0     C26985   8.274   1.399   7.291 -0.2054 -0.2294  0.0210
  205MOL0     O26986   8.306   1.264   7.292 -0.4288 -0.0154 -0.2551
  205MOL0     C26987   8.226   1.167   7.226  0.1238  0.1579  0.5971
  205MOL0     C26988   8.285   1.026   7.230  0.4591 -0.6091  0.4553
  205MOL0     C26989   8.392   1.010   7.124  0.4864 -0.1007 -0.0929
  205MOL0     C26990   8.516   1.088   7.173  0.0427 -0.2719  0.1840
  205MOL0     C26991   8.625   1.071   7.073 -0.8089  0.6759  0.6268
  205MOL0     C26992   8.708   1.039   6.992 -0.6373  0.1112 -0.7185
  205MOL0     C26993   8.165   1.460   7.222  0.9388 -0.3665  0.4670
  205MOL0     C26994   8.159   1.599   7.220 -0.8041 -0.5004  0.8004
  205MOL0     H26995   8.238   2.070   7.149  1.8093  4.1746  1.2105
  205MOL0     H26996   8.184   2.294   7.182  1.8221 -1.0364  1.8644
  205MOL0     H26997   7.995   2.472   7.114 -0.9582 -3.0146  0.6169
  205MOL0     H26998   8.099   2.501   7.255 -1.3986 -4.4601  3.3187
  205MOL0     H26999   7.965   2.707   7.186 -0.5366  0.6952 -0.7341
  205MOL0     H27000   7.933   2.655   7.350  1.6285  0.2119 -1.3399
  205MOL0     H27001   7.715   2.574   7.286 -1.2424  1.3822  0.1569
  205MOL0     H27002   7.755   2.571   7.112  0.3584  1.0075 -0.5207
  205MOL0     H27003   7.763   2.831   7.271  1.6671  0.9403 -2.2369
  205MOL0     H27004   7.761   2.815   7.101 -4.2832 -0.2956 -1.5864
  205MOL0     H27005   7.533   2.786   7.293 -2.9296  2.5224 -1.5018
  205MOL0     H27006   7.525   2.679   7.160  1.5497 -0.3453  0.0707
  205MOL0     H27007   7.553   2.884   7.004 -0.3103 -2.8190  1.2895
  205MOL0     H27008   7.559   2.990   7.141 -1.7779  2.5711 -2.4768
  205MOL0     H27009   7.311   2.836   7.093  1.3121 -0.1226  0.0056
  205MOL0     H27010   7.355   2.944   7.230 -1.6659 -2.2900  0.5747
  205MOL0     H27011   7.389   3.033   6.940  1.4526 -1.3339 -0.4023
  205MOL0     H27012   7.385   3.133   7.088  0.1875 -0.8566 -0.8456
  205MOL0     H27013   7.174   3.163   7.212  2.7607 -2.0639 -0.6061
  205MOL0     H27014   6.895   3.247   7.202 -0.8047  1.1836 -0.1711
  205MOL0     H27015   6.804   3.171   7.073 -1.4018  1.9759 -1.6189
  205MOL0     H27016   6.829   3.356   6.907 -4.1331 -2.2432  1.8794
  205MOL0     H27017   6.967   3.416   7.000 -0.0155  0.9389 -1.9387
  205MOL0     H27018   6.817   3.506   7.169 -0.4329 -0.2568 -0.5907
  205MOL0     H27019   6.753   3.563   7.016  0.2906  1.6825  1.1718
  205MOL0     H27020   6.585   3.492   7.180 -0.5691 -1.9964  0.5542
  205MOL0     H27021   6.641   3.322   7.161  2.6779 -1.0756 -0.4771
  205MOL0     H27022   6.373   3.432   7.242 -1.1342  2.5911  0.8142
  205MOL0     H27023   6.143   3.450   7.235 -1.8838 -0.6212 -0.6015
  205MOL0     H27024   5.806   3.678   7.053  1.6665 -0.7384 -1.0161
  205MOL0     H27025   5.587   3.810   6.999 -2.8976 -1.7678 -0.8124
  205MOL0     H27026   5.392   3.703   6.628  2.1599  0.8743  0.3834
  205MOL0     H27027   5.309   3.850   6.666 -0.2224  1.6932  3.1268
  205MOL0     H27028   5.305   3.617   6.865  0.0004 -0.6502 -0.8590
  205MOL0     H27029   5.193   3.624   6.731  0.6567 -3.7141  1.3736
  205MOL0     H27030   5.099   3.848   6.829  0.1319  1.0535  0.7770
  205MOL0     H27031   5.237   3.854   6.931 -1.3882  1.0995 -0.4041
  205MOL0     H27032   4.984   3.690   6.925  0.2475 -0.7779  0.0132
  205MOL0     H27033   5.111   3.623   7.034 -1.4675 -0.2386 -0.6715
  205MOL0     H27034   4.968   3.901   7.062  1.0549  0.5144 -1.9516
  205MOL0     H27035   5.104   3.842   7.148 -1.2296  3.8642 -0.1378
  205MOL0     H27036   4.939   3.623   7.164 -2.6384 -0.4625  1.1732
  205MOL0     H27037   4.820   3.726   7.082  0.1638  1.9370  0.0192
  205MOL0     H27038   4.952   3.770   7.359  1.3168 -2.4731 -2.5839
  205MOL0     H27039   4.822   3.882   7.291  1.0479  0.8983  0.5301
  205MOL0     H27040   4.795   3.594   7.370 -1.7256  0.0499  1.7913
  205MOL0     H27041   4.679   3.679   7.261  0.6996  0.4222 -0.7666
  205MOL0     H27042   5.566   3.606   6.632  1.6352 -2.4214 -0.8972
  205MOL0     H27043   5.759   3.474   6.681 -0.2300 -0.3603 -0.5892
  205MOL0     H27044   6.151   3.430   6.812  0.6904 -3.4020 -0.2925
  205MOL0     H27045   6.382   3.410   6.808 -0.0040 -0.6474  0.0840
  205MOL0     H27046   7.849   2.184   7.432 -2.0203  0.9538 -1.7283
  205MOL0     H27047   7.894   1.948   7.378  0.1037 -0.4053 -0.2475
  205MOL0     H27048   8.438   1.663   7.414  1.0662 -1.0021  0.3193
  205MOL0     H27049   8.446   1.444   7.412  0.3437  1.4909 -2.3716
  205MOL0     H27050   8.206   1.197   7.123 -0.5957  0.9740  0.9572
  205MOL0     H27051   8.128   1.172   7.275 -0.9130 -0.2375 -1.3167
  205MOL0     H27052   8.320   1.010   7.332  1.2381 -1.5978  0.0462
  205MOL0     H27053   8.201   0.955   7.225 -0.7207  0.7632 -0.2256
  205MOL0     H27054   8.358   1.050   7.028 -0.7215  0.1471  0.4315
  205MOL0     H27055   8.420   0.904   7.123  2.8961  0.4726 -0.2734
  205MOL0     H27056   8.515   1.195   7.192  3.9076 -0.4722  2.8214
  205MOL0     H27057   8.547   1.044   7.269 -1.5943  1.9228  1.8122
  205MOL0     H27058   8.784   1.018   6.919 -0.7248  0.3060 -0.8672
  205MOL0     H27059   8.098   1.397   7.165  0.4034 -0.1679  0.8718
  205MOL0     H27060   8.074   1.645   7.170 -2.0753 -0.6520  2.7270
  206MOL0     O27061   5.996   1.233  10.742 -0.4370  0.8837  0.3629
  206MOL0     C27062   5.927   1.131  10.713  0.2120  0.1703 -0.2919
  206MOL0     O27063   5.798   1.110  10.734  0.8587 -0.6659 -0.1761
  206MOL0     C27064   5.710   1.217  10.771 -0.4463 -0.4194  0.2056
  206MOL0     C27065   5.587   1.177  10.819  0.7110  0.4745  0.0445
  206MOL0     C27066   5.492   1.267  10.865  0.3030 -0.6635  1.1683
  206MOL0     C27067   5.515   1.406  10.854  0.2120  0.2444 -0.7841
  206MOL0     O27068   5.410   1.485  10.894  0.1548  0.0041 -0.1420
  206MOL0     C27069   5.399   1.621  10.843  0.2332  0.1706 -0.4589
  206MOL0     C27070   5.266   1.682  10.856 -0.4714 -0.2789  0.1174
  206MOL0     C27071   5.210   1.663  10.993 -0.1148 -0.0524  0.3550
  206MOL0     C27072   5.061   1.698  10.996 -0.5845 -0.4765  0.3546
  206MOL0     C27073   5.004   1.695  11.144  0.0038  0.5662  0.0485
  206MOL0     C27074   4.856   1.681  11.143  0.1139 -0.6162  0.0055
  206MOL0     C27075   4.790   1.672  11.280  0.7288 -0.4542 -0.3119
  206MOL0     C27076   4.635   1.684  11.265 -0.9033 -0.1944 -0.0548
  206MOL0     N27077   4.554   1.623  11.373 -0.6951 -0.7960 -0.3573
  206MOL0     C27078   4.584   1.631  11.510  0.7338  0.6422  0.3066
  206MOL0     C27079   4.480   1.579  11.574  0.2527  0.7697  0.2390
  206MOL0     C27080   4.466   1.559  11.718 -0.3147 -0.2744  0.1334
  206MOL0     C27081   4.322   1.519  11.761 -0.0036 -0.4820 -0.6561
  206MOL0     C27082   4.212   1.627  11.741  0.3558 -0.3634 -1.4437
  206MOL0     C27083   4.093   1.609  11.827 -0.9838  0.1081 -0.5722
  206MOL0     O27084   4.026   1.483  11.802  0.0459  0.3079  0.2509
  206MOL0     C27085   3.900   1.455  11.851  0.5033 -0.8126  0.3263
  206MOL0     C27086   3.841   1.330  11.817  0.0199  0.2376  0.5597
  206MOL0     C27087   3.709   1.296  11.850  0.3212 -0.4215  0.2888
  206MOL0     C27088   3.638   1.383  11.927 -0.3757 -0.1034 -0.5656
  206MOL0     C27089   3.498   1.362  11.965 -0.3768  0.5625 -0.0236
  206MOL0     O27090   3.454   1.438  12.075 -0.5319 -0.2879 -0.4644
  206MOL0     C27091   3.320   1.439  12.091  0.8589  0.0904  0.5529
  206MOL0     C27092   3.248   1.344  12.170  1.1119  0.2004 -0.5459
  206MOL0     C27093   3.106   1.355  12.186 -0.1060 -0.5379  0.1140
  206MOL0     C27094   3.034   1.461  12.132  0.0907  0.1010  0.9080
  206MOL0     O27095   2.904   1.482  12.158  0.0800 -0.1351  0.0225
  206MOL0     C27096   2.821   1.362  12.166  0.3469 -0.1435 -0.0525
  206MOL0     C27097   2.677   1.395  12.113 -0.6442 -0.4299 -0.3927
  206MOL0     C27098   2.570   1.287  12.126  0.1346  0.2121 -0.0530
  206MOL0     C27099   2.435   1.324  12.072  0.3776 -0.4474 -0.0731
  206MOL0     C27100   2.344   1.207  12.109  0.4635  0.1198 -0.6236
  206MOL0     C27101   2.359   1.083  12.024  0.3521  1.5217  0.0251
  206MOL0     C27102   2.268   0.979  12.070  0.7863  0.4037 -0.9611
  206MOL0     C27103   2.251   0.875  11.958 -0.5152 -0.6415  0.3258
  206MOL0    Cl27104   2.169   0.735  12.020  0.0174  0.3741  0.4081
  206MOL0     C27105   3.106   1.551  12.058  0.3705  0.3494 -0.4175
  206MOL0     C27106   3.240   1.541  12.033  0.2769  0.2463  0.2204
  206MOL0     O27107   3.438   1.261  11.923  0.0028 -0.4640  0.4588
  206MOL0     C27108   3.695   1.508  11.961 -0.0279  0.4265  0.1364
  206MOL0     C27109   3.819   1.546  11.922  0.2110 -0.2555 -1.0108
  206MOL0     N27110   4.387   1.532  11.474 -0.5918 -0.0443 -0.2350
  206MOL0     N27111   4.444   1.543  11.354 -0.2089  0.1924  0.0580
  206MOL0     C27112   5.634   1.452  10.796  1.1467 -0.4073  0.2632
  206MOL0     C27113   5.730   1.357  10.758  0.2047  0.5444  0.4117
  206MOL0     C27114   6.015   1.015  10.665  0.4022 -0.3916  0.4742
  206MOL0     C27115   6.153   1.025  10.663  0.2544  0.6403  0.4205
  206MOL0     C27116   6.222   0.909  10.628  0.5194 -0.2850 -0.5716
  206MOL0     C27117   6.158   0.787  10.594  0.3521  0.1606  0.1899
  206MOL0     O27118   6.234   0.681  10.560 -0.3248 -0.3729  0.3964
  206MOL0     C27119   6.187   0.560  10.512 -0.7072  0.4953  0.4600
  206MOL0     C27120   6.153   0.480  10.643  0.1895 -0.1409  0.8099
  206MOL0     C27121   6.134   0.325  10.618 -0.2006  0.1355  0.4717
  206MOL0     C27122   6.158   0.241  10.750  0.0124  0.3829  0.3433
  206MOL0     C27123   6.078   0.290  10.862  0.0210  0.7678  0.0592
  206MOL0     C27124   6.015   0.349  10.947  0.8322  0.0814  0.4529
  206MOL0     C27125   6.016   0.783  10.599 -0.2261 -0.0753  0.7925
  206MOL0     C27126   5.945   0.897  10.630  0.6004 -0.3701 -0.2311
  206MOL0     H27127   5.574   1.070  10.814 -0.9674  0.5333  1.7271
  206MOL0     H27128   5.396   1.231  10.899  1.6632 -1.6607  4.3558
  206MOL0     H27129   5.414   1.612  10.735 -1.0761  1.4804 -0.7739
  206MOL0     H27130   5.475   1.683  10.891  0.1133 -0.5769  0.7225
  206MOL0     H27131   5.196   1.630  10.789 -1.7062  0.6073  0.6599
  206MOL0     H27132   5.267   1.789  10.832 -2.0059  0.2229  2.0185
  206MOL0     H27133   5.253   1.726  11.072  2.8044  2.9324 -3.2506
  206MOL0     H27134   5.226   1.558  11.021 -1.8856  0.0752  2.1492
  206MOL0     H27135   5.055   1.802  10.962  0.3350 -0.0566  1.4301
  206MOL0     H27136   5.011   1.623  10.934  3.5749 -2.3569 -1.0987
  206MOL0     H27137   5.029   1.785  11.200  1.3445 -1.3481  2.8031
  206MOL0     H27138   5.044   1.615  11.207 -2.8919  0.1031  1.4173
  206MOL0     H27139   4.834   1.590  11.087 -0.2464  2.1093 -4.7446
  206MOL0     H27140   4.811   1.768  11.094 -1.4795 -1.6243 -0.3969
  206MOL0     H27141   4.831   1.579  11.320 -0.3355 -0.3298  1.1426
  206MOL0     H27142   4.829   1.738  11.358 -2.0842  0.6592  0.2933
  206MOL0     H27143   4.612   1.629  11.173  2.3058  1.2179 -1.9044
  206MOL0     H27144   4.609   1.787  11.242 -0.1703  0.0110 -0.0070
  206MOL0     H27145   4.672   1.676  11.556  0.5954  1.2395  0.0037
  206MOL0     H27146   4.505   1.644  11.774  2.3080 -1.1706 -0.2356
  206MOL0     H27147   4.522   1.468  11.739 -0.7344 -0.6389 -0.2812
  206MOL0     H27148   4.327   1.502  11.869  2.2299  1.0164 -0.4553
  206MOL0     H27149   4.297   1.424  11.712  1.0303  0.1672 -2.5412
  206MOL0     H27150   4.261   1.715  11.782 -0.3600 -1.3557  1.8879
  206MOL0     H27151   4.181   1.639  11.637 -1.6735 -0.9353 -0.9506
  206MOL0     H27152   4.030   1.690  11.792 -1.2034 -0.5121 -1.6443
  206MOL0     H27153   4.114   1.620  11.934 -1.9144 -0.3110 -0.3384
  206MOL0     H27154   3.911   1.261  11.770 -0.2613  1.7209 -2.2773
  206MOL0     H27155   3.676   1.197  11.822  0.6163 -0.0946 -1.3615
  206MOL0     H27156   3.294   1.261  12.223  2.9906  0.6986 -1.3163
  206MOL0     H27157   3.056   1.281  12.248 -0.0964 -0.4031  0.2804
  206MOL0     H27158   2.804   1.337  12.271 -1.1795  0.1159 -0.2038
  206MOL0     H27159   2.867   1.280  12.110  0.5587  0.5532 -0.9124
  206MOL0     H27160   2.684   1.424  12.008 -0.4901  2.4411  0.3402
  206MOL0     H27161   2.632   1.482  12.161 -0.1715 -0.8228  0.8092
  206MOL0     H27162   2.562   1.278  12.235  1.9148 -2.6807 -0.0493
  206MOL0     H27163   2.600   1.188  12.090 -2.2463 -1.2072  1.5736
  206MOL0     H27164   2.396   1.410  12.126  2.7882 -0.6860  2.2643
  206MOL0     H27165   2.429   1.341  11.964 -1.4098 -1.5120 -0.1749
  206MOL0     H27166   2.244   1.246  12.091  0.4250  0.1507 -0.3361
  206MOL0     H27167   2.347   1.190  12.216 -1.1407 -0.4415 -0.6501
  206MOL0     H27168   2.454   1.029  12.028  0.5357  1.8877  2.9512
  206MOL0     H27169   2.340   1.106  11.919 -0.6813 -1.9637 -0.6756
  206MOL0     H27170   2.317   0.936  12.158 -1.2216  0.1338  0.0809
  206MOL0     H27171   2.166   1.009  12.097 -0.5768 -4.8782  0.9293
  206MOL0     H27172   2.342   0.838  11.911  0.5828 -0.5698  2.2900
  206MOL0     H27173   2.185   0.920  11.883 -0.0985 -1.1315 -0.3399
  206MOL0     H27174   3.053   1.638  12.020 -1.7945 -1.0028 -0.6300
  206MOL0     H27175   3.296   1.612  11.972  0.6119  0.4847  0.7952
  206MOL0     H27176   3.636   1.581  12.015 -1.6954 -0.3444 -0.6024
  206MOL0     H27177   3.870   1.639  11.944  0.7447 -0.7947  0.0964
  206MOL0     H27178   5.665   1.555  10.802  3.5743 -0.9716 -0.9967
  206MOL0     H27179   5.819   1.383  10.701 -0.5874  0.4876 -0.8856
  206MOL0     H27180   6.214   1.104  10.706 -0.4091  0.3322  2.0009
  206MOL0     H27181   6.331   0.914  10.630  0.5265  0.4362 -1.7568
  206MOL0     H27182   6.271   0.509  10.463 -1.8591 -2.2830  1.1964
  206MOL0     H27183   6.102   0.561  10.444 -0.2696 -5.1759 -0.5989
  206MOL0     H27184   6.219   0.504  10.727  0.0244  1.9932  0.3897
  206MOL0     H27185   6.053   0.505  10.678  0.3568 -1.7853  2.6286
  206MOL0     H27186   6.216   0.291  10.554 -2.0516 -2.6142 -0.6796
  206MOL0     H27187   6.040   0.290  10.573 -0.5519 -0.3185  1.5305
  206MOL0     H27188   6.123   0.138  10.748 -0.6413  0.5945  0.5344
  206MOL0     H27189   6.265   0.240  10.771 -0.1890  1.8254  1.6182
  206MOL0     H27190   5.955   0.403  11.018 -0.9506  1.0448 -1.6798
  206MOL0     H27191   5.964   0.687  10.596  0.3240 -0.3854  1.0557
  206MOL0     H27192   5.837   0.895  10.643  0.7418 -2.4647  1.1806
  207MOL0     O27193   0.369   9.202   2.571  0.0202 -0.2811 -0.7148
  207MOL0     C27194   0.416   9.126   2.490  0.7788  0.2404  0.6624
  207MOL0     O27195   0.370   9.116   2.364  0.4239  0.5586  0.0784
  207MOL0     C27196   0.246   9.167   2.338 -0.9124 -0.2473 -0.2869
  207MOL0     C27197   0.130   9.092   2.349  0.2403  1.2031  0.2123
  207MOL0     C27198  -0.000   9.144   2.331 -0.3464  0.7786  0.4353
  207MOL0     C27199  -0.020   9.280   2.305 -0.4856 -1.0772  0.7868
  207MOL0     O27200  -0.142   9.351   2.293  0.0237  0.6009  0.4415
  207MOL0     C27201  -0.251   9.268   2.249  0.2048 -0.2741 -0.0135
  207MOL0     C27202  -0.374   9.367   2.231 -0.1008  0.9035 -0.3776
  207MOL0     C27203  -0.480   9.309   2.139 -1.2202  0.1129 -0.4428
  207MOL0     C27204  -0.621   9.381   2.137 -0.0696 -0.2401  0.3165
  207MOL0     C27205  -0.692   9.364   2.272  0.4247  0.4537 -0.5292
  207MOL0     C27206  -0.831   9.431   2.259  0.4502 -0.4798  0.6628
  207MOL0     C27207  -0.919   9.397   2.377 -0.5349 -0.0865  0.3896
  207MOL0     C27208  -1.037   9.492   2.359  0.6340 -0.0088 -0.5188
  207MOL0     N27209  -1.158   9.456   2.444  0.0719 -0.6752 -0.3003
  207MOL0     C27210  -1.195   9.528   2.555  0.4955  0.3343  0.8951
  207MOL0     C27211  -1.302   9.456   2.596 -0.3743 -0.0353  0.2888
  207MOL0     C27212  -1.369   9.501   2.725  0.3745  0.3394 -0.4767
  207MOL0     C27213  -1.513   9.543   2.713  0.0316 -0.3411  0.5411
  207MOL0     C27214  -1.619   9.451   2.773 -0.5291  0.3063  0.0660
  207MOL0     C27215  -1.757   9.475   2.710 -0.0540 -0.1088  0.2498
  207MOL0     O27216  -1.828   9.591   2.749  0.0158 -0.2920 -0.1567
  207MOL0     C27217  -1.949   9.601   2.682  0.7041 -0.2058 -0.0246
  207MOL0     C27218  -2.033   9.700   2.733  0.2217 -0.1700 -0.9228
  207MOL0     C27219  -2.160   9.714   2.680  0.0114 -0.1010 -0.6124
  207MOL0     C27220  -2.217   9.626   2.590 -1.2743  0.0723 -0.7995
  207MOL0     C27221  -2.351   9.648   2.541 -0.0247  0.1258  0.0839
  207MOL0     O27222  -2.437   9.729   2.607 -1.0478 -1.0126  0.0638
  207MOL0     C27223  -2.573   9.719   2.616  0.0805 -0.4331  0.0589
  207MOL0     C27224  -2.658   9.651   2.523 -1.0374 -0.2791  0.0680
  207MOL0     C27225  -2.795   9.668   2.530 -0.8647 -0.1126  0.3133
  207MOL0     C27226  -2.847   9.746   2.631  0.2347 -0.3875  0.4869
  207MOL0     O27227  -2.978   9.788   2.635 -0.1041 -0.4578  0.2093
  207MOL0     C27228  -3.073   9.692   2.600 -1.0976 -0.2577  0.3956
  207MOL0     C27229  -3.209   9.756   2.635  0.2351 -0.1040  0.6273
  207MOL0     C27230  -3.320   9.676   2.555 -0.6321  0.5800  0.4464
  207MOL0     C27231  -3.458   9.724   2.586  0.6845  0.3463  0.5538
  207MOL0     C27232  -3.556   9.616   2.554  0.8083  0.7523 -0.4339
  207MOL0     C27233  -3.575   9.530   2.682 -1.4772  0.0048  0.1528
  207MOL0     C27234  -3.703   9.438   2.658  0.1401  0.8412 -0.4698
  207MOL0     C27235  -3.798   9.454   2.779  0.6933  0.0147  0.0558
  207MOL0    Cl27236  -3.944   9.374   2.712  0.2211 -0.2490  0.1766
  207MOL0     C27237  -2.769   9.824   2.715  0.6689 -0.0625  0.0400
  207MOL0     C27238  -2.630   9.807   2.704  0.0774 -0.1719 -0.9619
  207MOL0     O27239  -2.383   9.579   2.446  0.5538  0.1428 -0.4869
  207MOL0     C27240  -2.135   9.514   2.548 -0.1970 -0.0215 -0.5382
  207MOL0     C27241  -2.001   9.508   2.590  0.5487 -0.9534 -0.1668
  207MOL0     N27242  -1.335   9.347   2.511  0.2374 -0.4688  0.0903
  207MOL0     N27243  -1.249   9.362   2.413  0.5702 -1.4834 -0.1170
  207MOL0     C27244   0.100   9.360   2.294  0.1119  1.0290  0.5206
  207MOL0     C27245   0.227   9.299   2.309 -0.1704  0.5671  0.2518
  207MOL0     C27246   0.546   9.063   2.521  0.3930  1.2168 -0.6143
  207MOL0     C27247   0.637   9.110   2.613 -0.3227 -0.5472  0.0866
  207MOL0     C27248   0.752   9.036   2.654 -0.2277  0.3280 -0.3868
  207MOL0     C27249   0.772   8.903   2.606  0.7409 -0.0920 -0.6141
  207MOL0     O27250   0.879   8.830   2.652  0.2325 -0.4738 -0.0861
  207MOL0     C27251   0.925   8.723   2.563 -0.1300 -1.0576  0.5868
  207MOL0     C27252   1.075   8.675   2.571  0.0417 -0.0708  0.0955
  207MOL0     C27253   1.091   8.552   2.656 -0.8721  0.1187 -0.9215
  207MOL0     C27254   1.226   8.485   2.639  0.0035  0.1318 -0.6690
  207MOL0     C27255   1.271   8.454   2.501 -1.1096  0.2180  0.6384
  207MOL0     C27256   1.313   8.443   2.389 -0.7134  0.2509 -0.3529
  207MOL0     C27257   0.676   8.854   2.522 -0.3113  0.2983  0.3243
  207MOL0     C27258   0.570   8.929   2.474  0.5635 -0.8777  0.6987
  207MOL0     H27259   0.149   8.988   2.373 -0.5106  0.5983 -1.5974
  207MOL0     H27260  -0.075   9.068   2.353  3.6354 -3.1909  1.7427
  207MOL0     H27261  -0.271   9.188   2.321 -0.5670 -0.0508  0.0245
  207MOL0     H27262  -0.227   9.228   2.150 -1.6722  0.0235 -0.6323
  207MOL0     H27263  -0.338   9.463   2.193 -0.0955  2.5960  3.4205
  207MOL0     H27264  -0.420   9.386   2.329 -0.2559  0.6974 -0.4112
  207MOL0     H27265  -0.491   9.205   2.171  0.4081  0.8513  2.8780
  207MOL0     H27266  -0.437   9.302   2.039  0.7228  1.4811  0.2442
  207MOL0     H27267  -0.600   9.482   2.103  0.8021  0.0208  1.5428
  207MOL0     H27268  -0.688   9.332   2.066  1.1413  0.7625 -1.5860
  207MOL0     H27269  -0.644   9.398   2.364 -1.6924 -0.6462  1.0448
  207MOL0     H27270  -0.690   9.256   2.290 -0.3342  0.4969 -0.1781
  207MOL0     H27271  -0.884   9.391   2.171 -0.8170  0.5087  0.9464
  207MOL0     H27272  -0.824   9.540   2.255  1.1009 -0.5110  0.8816
  207MOL0     H27273  -0.944   9.291   2.368 -0.1376 -0.1060 -0.5817
  207MOL0     H27274  -0.854   9.417   2.463 -1.5439 -1.5590  1.5542
  207MOL0     H27275  -1.078   9.477   2.259 -1.2935 -0.4641  0.2940
  207MOL0     H27276  -0.996   9.593   2.368  0.7369 -0.1932  1.6293
  207MOL0     H27277  -1.152   9.612   2.608 -0.8861  2.9160 -1.8013
  207MOL0     H27278  -1.322   9.594   2.758  3.0375 -1.8398  2.4828
  207MOL0     H27279  -1.357   9.430   2.807 -3.4099 -1.3855 -1.2157
  207MOL0     H27280  -1.535   9.540   2.606  2.0385  2.2203 -0.0537
  207MOL0     H27281  -1.532   9.648   2.739 -1.2145 -0.3139 -0.3551
  207MOL0     H27282  -1.593   9.347   2.753 -1.3790 -0.3726  2.2720
  207MOL0     H27283  -1.631   9.473   2.880 -0.5119  4.1134 -0.5607
  207MOL0     H27284  -1.819   9.387   2.727 -0.0108 -0.4188 -1.0841
  207MOL0     H27285  -1.748   9.480   2.601  0.7950 -2.0278  0.1863
  207MOL0     H27286  -1.993   9.774   2.801 -2.7261  0.4671  0.2704
  207MOL0     H27287  -2.224   9.798   2.706 -0.2566 -0.8085  1.1523
  207MOL0     H27288  -2.615   9.602   2.437 -3.4047  0.2247 -1.4756
  207MOL0     H27289  -2.850   9.611   2.456  1.0637 -0.6013 -0.7989
  207MOL0     H27290  -3.046   9.599   2.650  0.5755 -1.3822 -2.3534
  207MOL0     H27291  -3.049   9.672   2.495  1.5975  1.8631  0.4986
  207MOL0     H27292  -3.228   9.857   2.596 -0.9321 -1.5850 -3.0264
  207MOL0     H27293  -3.229   9.752   2.743 -0.2913 -2.6480  0.4996
  207MOL0     H27294  -3.294   9.571   2.572  3.9815  1.3554 -0.4891
  207MOL0     H27295  -3.303   9.692   2.448  2.6904 -0.0764  0.7680
  207MOL0     H27296  -3.452   9.750   2.693  1.3018  0.1669  0.5675
  207MOL0     H27297  -3.487   9.825   2.553 -1.0066  0.0942  1.1826
  207MOL0     H27298  -3.527   9.563   2.463 -3.1011  1.0548 -2.0631
  207MOL0     H27299  -3.656   9.653   2.529  0.8012  2.0906  1.3473
  207MOL0     H27300  -3.591   9.593   2.770 -3.4353  0.1289 -0.2398
  207MOL0     H27301  -3.484   9.473   2.701 -0.6398  1.5091  0.8390
  207MOL0     H27302  -3.746   9.474   2.564 -0.7435  1.9656  0.3405
  207MOL0     H27303  -3.675   9.333   2.643 -1.4317  0.3432 -0.1843
  207MOL0     H27304  -3.809   9.562   2.790  1.3238 -0.0934  2.2775
  207MOL0     H27305  -3.761   9.399   2.866 -0.3695  0.3688  0.7508
  207MOL0     H27306  -2.809   9.902   2.778  0.6695  0.8732 -1.0806
  207MOL0     H27307  -2.567   9.862   2.773 -0.1390 -1.0185 -0.0782
  207MOL0     H27308  -2.159   9.433   2.479 -0.7566 -0.6746  0.3880
  207MOL0     H27309  -1.939   9.430   2.549 -1.9715 -1.8065 -2.6609
  207MOL0     H27310   0.082   9.465   2.274  2.4059  0.6547 -6.0198
  207MOL0     H27311   0.315   9.362   2.305  1.9287 -2.0685  1.6351
  207MOL0     H27312   0.615   9.204   2.663 -1.1698 -0.7434  0.1096
  207MOL0     H27313   0.824   9.076   2.724 -1.5588  2.3123 -0.0615
  207MOL0     H27314   0.893   8.746   2.461 -0.5008  0.9602  1.1105
  207MOL0     H27315   0.855   8.641   2.580  0.2225 -1.2291  1.2478
  207MOL0     H27316   1.106   8.664   2.467  1.0607 -0.6082  0.4449
  207MOL0     H27317   1.140   8.751   2.616  1.7083 -1.9396  0.9452
  207MOL0     H27318   1.008   8.489   2.622 -2.2189 -0.4481  2.9067
  207MOL0     H27319   1.082   8.559   2.765  2.2769 -2.5643 -0.3215
  207MOL0     H27320   1.304   8.554   2.671 -1.8240  2.4782 -1.0137
  207MOL0     H27321   1.220   8.403   2.712  1.1989  2.1937  1.9255
  207MOL0     H27322   1.338   8.438   2.284 -1.8688 -0.9748 -0.6007
  207MOL0     H27323   0.672   8.750   2.491 -1.4586  0.4828 -0.2075
  207MOL0     H27324   0.498   8.880   2.411  0.3099  1.5631 -1.0612
  208MOL0     O27325   0.559   7.154  11.235 -0.0843 -0.1278 -0.6748
  208MOL0     C27326   0.488   7.174  11.139  0.1980  0.6273 -0.4134
  208MOL0     O27327   0.523   7.149  11.007  0.2563 -0.5074 -0.4623
  208MOL0     C27328   0.655   7.128  10.973 -0.6917 -0.7218  0.0228
  208MOL0     C27329   0.677   7.140  10.832 -0.9994 -0.8280 -1.1392
  208MOL0     C27330   0.799   7.114  10.775 -0.3817 -0.2678 -0.3844
  208MOL0     C27331   0.910   7.063  10.848 -0.1392 -0.0244 -1.0985
  208MOL0     O27332   1.037   7.050  10.800 -0.7020  0.6411  0.0623
  208MOL0     C27333   1.071   7.121  10.680  1.4838  0.1981 -0.4660
  208MOL0     C27334   1.214   7.135  10.662 -0.5232  0.1034 -0.5973
  208MOL0     C27335   1.279   7.012  10.597  0.6107  0.2574  0.0783
  208MOL0     C27336   1.421   7.039  10.556 -0.6423 -0.5644  0.0637
  208MOL0     C27337   1.501   6.910  10.516  1.1031  1.0108  0.0564
  208MOL0     C27338   1.455   6.821  10.400  0.0068  0.2172 -0.1509
  208MOL0     C27339   1.574   6.734  10.345 -0.8116 -0.6275  0.0186
  208MOL0     C27340   1.532   6.600  10.277 -0.2326 -0.1360 -0.3642
  208MOL0     N27341   1.507   6.632  10.142  0.8740 -0.2967  0.0763
  208MOL0     C27342   1.401   6.700  10.096 -0.1561 -0.6294 -0.7623
  208MOL0     C27343   1.422   6.721   9.965  0.2371  0.5306  0.1482
  208MOL0     C27344   1.341   6.794   9.859  0.2657  1.0424  0.5400
  208MOL0     C27345   1.435   6.866   9.763  0.5482  0.3298 -0.1006
  208MOL0     C27346   1.371   6.971   9.671  0.4191 -0.0139 -0.0934
  208MOL0     C27347   1.281   7.075   9.742  0.0526 -0.1194 -0.3768
  208MOL0     O27348   1.324   7.118   9.872 -0.7619 -0.4256  0.3004
  208MOL0     C27349   1.229   7.167   9.962  0.1345  0.2053  0.7241
  208MOL0     C27350   1.267   7.162  10.095 -0.0830  0.4025  0.2282
  208MOL0     C27351   1.180   7.200  10.201 -0.3616  1.1954  0.4483
  208MOL0     C27352   1.050   7.230  10.166  0.0452 -0.8394 -0.3242
  208MOL0     C27353   0.950   7.256  10.269  0.0766  0.1700 -0.9024
  208MOL0     O27354   0.820   7.258  10.239  0.5390 -0.2378 -0.5539
  208MOL0     C27355   0.710   7.279  10.325 -0.6909  0.0451 -1.0371
  208MOL0     C27356   0.585   7.229  10.286 -0.8762  0.7273 -0.5890
  208MOL0     C27357   0.468   7.243  10.364 -0.2256 -0.0302  0.1865
  208MOL0     C27358   0.469   7.310  10.492  0.9603 -0.7383  0.4716
  208MOL0     O27359   0.358   7.310  10.574  0.0357  0.1362  0.0798
  208MOL0     C27360   0.246   7.253  10.522  0.3717 -1.0604  0.4024
  208MOL0     C27361   0.141   7.259  10.628 -0.0672 -0.5517  0.7124
  208MOL0     C27362   0.004   7.221  10.567  0.4417  0.2514 -0.1285
  208MOL0     C27363  -0.107   7.232  10.665  0.1767  0.0562 -1.4517
  208MOL0     C27364  -0.099   7.146  10.791 -0.4287 -0.2143  0.2743
  208MOL0     C27365  -0.206   7.167  10.896 -0.5579  0.8189  1.1321
  208MOL0     C27366  -0.339   7.108  10.860  0.4164  0.5672 -0.1258
  208MOL0     C27367  -0.439   7.123  10.979  0.3903  0.5915 -0.2986
  208MOL0    Cl27368  -0.599   7.052  10.943 -0.0184 -0.2585 -0.1558
  208MOL0     C27369   0.598   7.357  10.538 -0.4543  0.3127  0.6135
  208MOL0     C27370   0.714   7.336  10.459 -1.1738  0.5341  0.5846
  208MOL0     O27371   0.994   7.249  10.381 -0.4498 -0.1085  0.7100
  208MOL0     C27372   1.018   7.237  10.035  0.0895  0.3565  0.3594
  208MOL0     C27373   1.097   7.204   9.931  0.2606 -0.7927 -0.0765
  208MOL0     N27374   1.535   6.659   9.933  0.6297  1.1463 -0.1290
  208MOL0     N27375   1.583   6.603  10.037 -0.6490 -0.3807  0.6749
  208MOL0     C27376   0.880   7.035  10.984 -0.0000 -0.6412  0.2829
  208MOL0     C27377   0.762   7.078  11.046  0.8798  0.5840 -0.3914
  208MOL0     C27378   0.354   7.207  11.178 -0.7621 -0.6701 -0.4022
  208MOL0     C27379   0.244   7.201  11.094 -0.0625  0.3863  0.1152
  208MOL0     C27380   0.117   7.230  11.132  0.1966 -0.7719 -0.2714
  208MOL0     C27381   0.091   7.262  11.264 -0.8714 -0.8235 -0.5654
  208MOL0     O27382  -0.028   7.298  11.329  0.3483 -0.2727  0.1935
  208MOL0     C27383  -0.148   7.302  11.243  0.0400  0.5965 -0.5384
  208MOL0     C27384  -0.268   7.324  11.330 -0.6882  0.0170  0.5277
  208MOL0     C27385  -0.409   7.301  11.268 -0.2182  0.5062  0.3631
  208MOL0     C27386  -0.516   7.349  11.356  0.5172  0.2362  0.1812
  208MOL0     C27387  -0.639   7.345  11.273 -0.5855  0.0729 -0.3115
  208MOL0     C27388  -0.749   7.344  11.217 -0.5801 -0.7360  0.3969
  208MOL0     C27389   0.199   7.272  11.355 -0.0428 -0.7380  1.0397
  208MOL0     C27390   0.324   7.241  11.312 -0.0282  0.4337 -0.1748
  208MOL0     H27391   0.604   7.172  10.759  0.2312 -0.3239 -2.1845
  208MOL0     H27392   0.809   7.148  10.672 -0.7542  1.8909  0.2441
  208MOL0     H27393   1.022   7.219  10.687 -2.1911 -1.5910  1.8416
  208MOL0     H27394   1.017   7.073  10.598 -0.9343 -0.9741  1.6723
  208MOL0     H27395   1.264   7.163  10.755 -2.9122 -0.7446  1.0224
  208MOL0     H27396   1.239   7.217  10.594  1.0516  0.6703  0.5908
  208MOL0     H27397   1.222   6.988  10.507  0.2065 -1.7512  0.8086
  208MOL0     H27398   1.278   6.923  10.660  0.2240 -1.8271 -2.6666
  208MOL0     H27399   1.434   7.111  10.475 -2.0139 -0.4283 -0.0631
  208MOL0     H27400   1.478   7.084  10.637 -2.4489  0.3144  0.9162
  208MOL0     H27401   1.509   6.850  10.606 -0.6675 -0.0506 -0.4630
  208MOL0     H27402   1.601   6.950  10.493  0.9289  0.2297 -2.3422
  208MOL0     H27403   1.410   6.874  10.316 -0.5506 -1.0614 -0.6779
  208MOL0     H27404   1.379   6.750  10.433  1.0926 -1.1029 -0.3722
  208MOL0     H27405   1.640   6.794  10.282  0.0649  1.0944  2.4198
  208MOL0     H27406   1.633   6.704  10.432 -0.7927 -0.8990 -0.0867
  208MOL0     H27407   1.438   6.560  10.317 -0.6823 -2.1696 -3.1484
  208MOL0     H27408   1.609   6.522  10.278  2.8001  2.4850 -3.4843
  208MOL0     H27409   1.316   6.736  10.154 -2.0206 -3.1655 -1.7499
  208MOL0     H27410   1.259   6.852   9.901  0.0386  0.0710  1.4779
  208MOL0     H27411   1.291   6.718   9.797 -0.5514  2.7240 -0.9413
  208MOL0     H27412   1.501   6.800   9.706  0.8658  0.3815  0.2011
  208MOL0     H27413   1.506   6.923   9.824  0.0055 -1.5837  2.4740
  208MOL0     H27414   1.443   7.026   9.610  1.6842 -0.1481  1.2313
  208MOL0     H27415   1.318   6.922   9.589  1.2248 -2.8656  0.9738
  208MOL0     H27416   1.177   7.041   9.740 -0.6963  2.0332 -0.8318
  208MOL0     H27417   1.278   7.164   9.677 -0.8027  0.1240 -0.0160
  208MOL0     H27418   1.373   7.148  10.113  0.0471 -2.4050 -2.1112
  208MOL0     H27419   1.219   7.207  10.302  1.3849  0.6547 -0.1580
  208MOL0     H27420   0.570   7.185  10.188 -2.4163 -0.3594  0.1112
  208MOL0     H27421   0.373   7.209  10.324 -0.6328 -1.1392  1.9856
  208MOL0     H27422   0.255   7.150  10.485  1.4027 -1.4031  1.5663
  208MOL0     H27423   0.214   7.322  10.443  1.2081 -1.0085  0.0969
  208MOL0     H27424   0.134   7.360  10.669  3.1217 -0.2062  0.5995
  208MOL0     H27425   0.175   7.191  10.706  0.3774 -1.8578 -0.5909
  208MOL0     H27426   0.006   7.117  10.532  0.3996 -0.5812  2.1758
  208MOL0     H27427  -0.031   7.291  10.491 -2.4993  0.9645  1.7183
  208MOL0     H27428  -0.117   7.337  10.696 -2.0348 -0.8076  1.1480
  208MOL0     H27429  -0.199   7.218  10.609 -0.9081 -0.0416  0.2941
  208MOL0     H27430   0.002   7.149  10.831 -1.3827  0.4399  2.8855
  208MOL0     H27431  -0.120   7.044  10.756 -0.2607  0.8361 -3.2093
  208MOL0     H27432  -0.224   7.274  10.910 -1.8486  0.4823  2.2571
  208MOL0     H27433  -0.183   7.131  10.996  1.4145  0.0603  0.4443
  208MOL0     H27434  -0.394   7.153  10.777 -0.2866 -1.2399 -0.7006
  208MOL0     H27435  -0.320   7.002  10.837  0.0676  1.2556 -4.2952
  208MOL0     H27436  -0.452   7.230  10.993  0.0910  1.1163 -3.7043
  208MOL0     H27437  -0.400   7.080  11.072  0.2152  0.6992 -0.1754
  208MOL0     H27438   0.618   7.404  10.634  0.5701  1.0503  0.0512
  208MOL0     H27439   0.797   7.384  10.511  0.1350 -0.6352 -0.3348
  208MOL0     H27440   0.918   7.266  10.005 -0.0340  1.8822  2.0546
  208MOL0     H27441   1.055   7.217   9.832  0.1185  0.1661  0.0997
  208MOL0     H27442   0.965   6.995  11.038 -1.8983 -2.3495  2.2518
  208MOL0     H27443   0.751   7.059  11.152  0.2524 -0.9502 -0.7020
  208MOL0     H27444   0.244   7.166  10.991 -1.9951 -1.5342  0.6888
  208MOL0     H27445   0.035   7.207  11.065  1.3306  0.1711 -2.0524
  208MOL0     H27446  -0.169   7.210  11.188 -0.0261 -0.1640  0.7276
  208MOL0     H27447  -0.133   7.385  11.173  2.1195  0.3897 -0.4099
  208MOL0     H27448  -0.251   7.258  11.415  2.8198  2.0537  1.6064
  208MOL0     H27449  -0.270   7.425  11.371  2.2987 -0.7386  2.8686
  208MOL0     H27450  -0.439   7.197  11.251 -2.1807  1.2320 -0.9640
  208MOL0     H27451  -0.413   7.348  11.169  0.0837  0.5667  0.3792
  208MOL0     H27452  -0.522   7.291  11.449 -0.2645  0.1764  0.0970
  208MOL0     H27453  -0.493   7.445  11.404 -1.4984 -1.2007  4.5216
  208MOL0     H27454  -0.848   7.338  11.176  0.1505 -1.9138 -1.3433
  208MOL0     H27455   0.164   7.293  11.456  2.9091 -2.6495  2.6229
  208MOL0     H27456   0.398   7.232  11.392 -0.2430 -4.1659 -0.2240
  209MOL0     O27457   9.603   2.239   6.288 -0.0858  0.1629  0.5712
  209MOL0     C27458   9.717   2.188   6.287  0.5578 -0.0204 -0.3120
  209MOL0     O27459   9.736   2.053   6.294 -0.0655 -0.2942 -0.2255
  209MOL0     C27460   9.645   1.967   6.346  0.1147  0.0367  0.5853
  209MOL0     C27461   9.620   1.848   6.283  0.3475  0.1275 -0.3050
  209MOL0     C27462   9.508   1.770   6.317  0.4019 -0.1233 -0.0049
  209MOL0     C27463   9.428   1.812   6.418 -0.4495 -0.6867 -0.4522
  209MOL0     O27464   9.316   1.751   6.469  0.3031 -0.1545  0.4957
  209MOL0     C27465   9.269   1.627   6.407  0.0414  0.1284  0.6519
  209MOL0     C27466   9.171   1.661   6.290  1.1080  0.5170  0.9484
  209MOL0     C27467   9.224   1.720   6.155 -0.2487  0.0429 -0.2511
  209MOL0     C27468   9.107   1.750   6.053 -0.2325 -0.1821  0.2714
  209MOL0     C27469   9.014   1.865   6.089  0.3362 -0.1186  0.1156
  209MOL0     C27470   8.878   1.846   6.034  0.1520  0.8356 -0.3851
  209MOL0     C27471   8.778   1.958   6.048 -0.2753  0.3320 -0.1617
  209MOL0     C27472   8.807   2.092   5.984 -0.8239  0.5157  0.3961
  209MOL0     N27473   8.826   2.075   5.836 -0.2539  0.0929  0.7247
  209MOL0     C27474   8.945   2.057   5.772 -0.1928  0.1587  0.8043
  209MOL0     C27475   8.911   2.009   5.647 -0.3745  0.5296  0.2983
  209MOL0     C27476   9.010   1.961   5.542  0.4404  0.2637  0.0809
  209MOL0     C27477   9.015   1.810   5.506 -0.2269 -0.0251 -0.6465
  209MOL0     C27478   8.894   1.782   5.419 -0.7030 -0.5107  0.0971
  209MOL0     C27479   8.886   1.631   5.370  0.2650 -0.1258 -0.0371
  209MOL0     O27480   8.792   1.624   5.262 -0.1041  0.3164  0.1577
  209MOL0     C27481   8.657   1.630   5.283 -0.1601  1.0187 -0.2276
  209MOL0     C27482   8.567   1.637   5.175  0.2685  0.0401  0.2101
  209MOL0     C27483   8.430   1.627   5.192  0.5390 -0.6014  0.7130
  209MOL0     C27484   8.381   1.615   5.318 -0.1404  1.1869  0.5169
  209MOL0     C27485   8.234   1.584   5.335  0.0788 -0.2003  0.5034
  209MOL0     O27486   8.150   1.569   5.230  0.7305  0.0227 -0.4464
  209MOL0     C27487   8.024   1.614   5.268  0.9531 -0.6073 -0.2322
  209MOL0     C27488   7.995   1.750   5.263 -0.6623  0.4704 -0.4624
  209MOL0     C27489   7.873   1.804   5.300 -0.0135  0.1484 -0.9533
  209MOL0     C27490   7.769   1.716   5.325  0.7046  0.4757 -0.8776
  209MOL0     O27491   7.635   1.759   5.351  0.2972 -0.5145  0.2207
  209MOL0     C27492   7.595   1.894   5.345 -0.4192  0.5983  0.7788
  209MOL0     C27493   7.450   1.913   5.346  0.9815 -0.2896 -0.1373
  209MOL0     C27494   7.387   2.057   5.354  0.6073  1.2156 -0.5264
  209MOL0     C27495   7.239   2.036   5.367  0.3211  0.1804 -0.4560
  209MOL0     C27496   7.182   2.179   5.360  0.7674 -0.7892 -0.0063
  209MOL0     C27497   7.034   2.187   5.401 -0.4054  0.3871 -0.1452
  209MOL0     C27498   6.970   2.326   5.374  1.0315 -0.8085 -0.9994
  209MOL0     C27499   6.980   2.425   5.495 -0.2174 -0.6692 -0.5699
  209MOL0    Cl27500   7.063   2.571   5.427 -0.2220  0.0866  0.0725
  209MOL0     C27501   7.794   1.580   5.312 -0.0055 -0.1132 -0.6203
  209MOL0     C27502   7.921   1.529   5.280  0.3125 -0.2631 -0.1101
  209MOL0     O27503   8.203   1.559   5.451 -0.1166  1.0660  0.6691
  209MOL0     C27504   8.464   1.602   5.428  0.5141  0.3340 -0.0817
  209MOL0     C27505   8.601   1.614   5.409 -0.2215  0.7511 -0.2526
  209MOL0     N27506   8.773   1.993   5.638  0.2368 -0.2332  0.5882
  209MOL0     N27507   8.728   2.034   5.752 -0.3457 -0.2656 -0.0815
  209MOL0     C27508   9.462   1.928   6.492 -0.5036  0.7880 -0.3726
  209MOL0     C27509   9.575   1.999   6.462  1.3202  0.2348  1.3131
  209MOL0     C27510   9.833   2.277   6.270 -0.6445 -0.1625  1.1244
  209MOL0     C27511   9.956   2.215   6.246 -0.1753  0.8127 -1.0698
  209MOL0     C27512  10.078   2.283   6.235  0.4342  0.7279 -0.2465
  209MOL0     C27513  10.066   2.418   6.267  0.0974  0.0518  0.2027
  209MOL0     O27514  10.186   2.482   6.256 -0.4579 -0.2388 -0.0940
  209MOL0     C27515  10.215   2.523   6.121  0.2992  0.4601  0.0944
  209MOL0     C27516  10.321   2.448   6.050 -1.1925  0.0371 -0.2913
  209MOL0     C27517  10.456   2.427   6.115 -0.2722  0.2140  0.0530
  209MOL0     C27518  10.553   2.365   6.011 -0.2523 -0.1532 -0.2350
  209MOL0     C27519  10.692   2.342   6.070 -0.1906  0.7058 -0.0734
  209MOL0     C27520  10.797   2.330   6.126 -0.8356 -0.0197  0.7585
  209MOL0     C27521   9.943   2.483   6.278 -0.4695  0.7707  0.2844
  209MOL0     C27522   9.828   2.414   6.282  0.2685  0.7745  0.1371
  209MOL0     H27523   9.693   1.827   6.205  0.3022  1.7621 -0.8196
  209MOL0     H27524   9.486   1.681   6.259  2.5316 -3.0939  3.3134
  209MOL0     H27525   9.222   1.572   6.488 -1.1734 -0.2576 -0.2787
  209MOL0     H27526   9.353   1.560   6.384 -1.1978 -1.4871  0.6187
  209MOL0     H27527   9.093   1.721   6.339  2.0934  2.9370 -0.2748
  209MOL0     H27528   9.119   1.571   6.256  1.9646  0.4691 -0.3076
  209MOL0     H27529   9.275   1.634   6.112 -1.3812 -0.7464 -0.0545
  209MOL0     H27530   9.299   1.799   6.168 -0.5871  0.5468 -1.2602
  209MOL0     H27531   9.158   1.788   5.964 -0.9802  0.6748  0.1851
  209MOL0     H27532   9.062   1.658   6.016  2.2245 -0.6945 -1.7176
  209MOL0     H27533   9.058   1.955   6.045 -0.8357 -0.5429 -2.0700
  209MOL0     H27534   8.997   1.876   6.196 -1.0240 -0.8077 -0.0027
  209MOL0     H27535   8.834   1.759   6.084 -2.4571  0.5545 -2.8997
  209MOL0     H27536   8.887   1.813   5.930  0.3012 -1.6365  0.3501
  209MOL0     H27537   8.677   1.917   6.034  0.4459 -1.8252  0.4795
  209MOL0     H27538   8.768   1.981   6.155 -0.2857  0.1425 -0.1192
  209MOL0     H27539   8.898   2.141   6.022 -1.8267  2.1318  0.8055
  209MOL0     H27540   8.726   2.163   5.999 -2.7226 -1.1075 -1.4952
  209MOL0     H27541   9.051   2.067   5.796  0.5395 -0.5157 -1.8089
  209MOL0     H27542   9.113   1.977   5.573  0.7710 -1.0762 -0.2630
  209MOL0     H27543   8.980   2.021   5.456  0.1837 -0.7756 -0.5778
  209MOL0     H27544   9.019   1.753   5.599  3.2754  0.8397 -0.0980
  209MOL0     H27545   9.106   1.790   5.447  0.3779 -3.8056  1.2205
  209MOL0     H27546   8.804   1.822   5.465  0.7256  1.2916  1.4712
  209MOL0     H27547   8.908   1.839   5.326 -0.0268 -4.2978 -2.3681
  209MOL0     H27548   8.859   1.558   5.447  0.0323 -0.0552 -0.0509
  209MOL0     H27549   8.984   1.602   5.331  0.9428  0.3111  1.2442
  209MOL0     H27550   8.600   1.662   5.074 -0.4324  1.3255  0.2832
  209MOL0     H27551   8.376   1.653   5.102  2.6952  1.7318 -0.0523
  209MOL0     H27552   8.082   1.812   5.244 -0.4946  0.1284 -0.8292
  209MOL0     H27553   7.861   1.911   5.309  1.0273  0.1819  0.4528
  209MOL0     H27554   7.641   1.943   5.258 -0.6762  0.1189  0.3664
  209MOL0     H27555   7.641   1.940   5.432 -0.8625  2.4165  0.1049
  209MOL0     H27556   7.412   1.856   5.432 -0.9738 -1.1760 -1.5097
  209MOL0     H27557   7.419   1.870   5.251 -1.2349  1.9511 -0.5344
  209MOL0     H27558   7.409   2.110   5.262 -0.4911  1.3026 -0.7588
  209MOL0     H27559   7.423   2.117   5.439 -0.1884  2.2288 -0.8893
  209MOL0     H27560   7.197   1.981   5.282  0.2466  0.2076 -0.4370
  209MOL0     H27561   7.207   2.000   5.466  1.5869 -0.5717 -0.2951
  209MOL0     H27562   7.195   2.215   5.258  0.9927 -1.0824 -0.0811
  209MOL0     H27563   7.242   2.242   5.427  2.5933 -0.4010 -1.9044
  209MOL0     H27564   7.023   2.161   5.507 -1.8648 -1.5536 -0.7129
  209MOL0     H27565   6.984   2.109   5.342  0.8458 -1.2542  0.8883
  209MOL0     H27566   7.010   2.371   5.282  0.3188  2.0111 -0.0453
  209MOL0     H27567   6.864   2.309   5.353  0.5075 -0.8762  1.4260
  209MOL0     H27568   7.034   2.366   5.570 -3.2243 -1.7361  0.9037
  209MOL0     H27569   6.884   2.453   5.538 -0.2805 -0.4018 -0.8900
  209MOL0     H27570   7.718   1.511   5.348  1.0186 -0.3369  1.2055
  209MOL0     H27571   7.935   1.422   5.275  0.0091 -0.2537 -1.4052
  209MOL0     H27572   8.441   1.574   5.531 -0.2130 -1.0311 -0.5821
  209MOL0     H27573   8.667   1.606   5.495 -2.5690  1.2482  1.7141
  209MOL0     H27574   9.403   1.956   6.579  0.1081  1.5287 -0.1894
  209MOL0     H27575   9.590   2.091   6.517 -1.4769  1.4416  0.2568
  209MOL0     H27576   9.954   2.110   6.221 -1.4629  0.8619 -1.2309
  209MOL0     H27577  10.167   2.230   6.204  0.8368  0.2897  1.5558
  209MOL0     H27578  10.236   2.630   6.117  2.9338  0.1962  3.0878
  209MOL0     H27579  10.125   2.507   6.060  1.9997  0.0552 -2.4690
  209MOL0     H27580  10.274   2.352   6.026 -0.8398  0.3134 -2.3049
  209MOL0     H27581  10.340   2.490   5.951 -0.3260  0.5196  0.0656
  209MOL0     H27582  10.443   2.359   6.199  1.2466  1.5731  1.4656
  209MOL0     H27583  10.484   2.525   6.154 -0.4729 -0.4920  2.0467
  209MOL0     H27584  10.524   2.267   5.971  0.3601 -1.0421  1.3859
  209MOL0     H27585  10.563   2.432   5.925 -1.9732  0.4683  0.0205
  209MOL0     H27586  10.898   2.333   6.159  1.8030 -3.8216 -5.2029
  209MOL0     H27587   9.940   2.588   6.305 -0.3207  0.9156 -0.2467
  209MOL0     H27588   9.736   2.464   6.310 -0.9107 -1.8998  1.3830
  210MOL0     O27589   8.498   9.415   2.290 -0.2283  0.4813  0.7282
  210MOL0     C27590   8.510   9.295   2.251  0.1655 -0.7187  0.5187
  210MOL0     O27591   8.412   9.216   2.219  0.0614  0.2519 -0.0197
  210MOL0     C27592   8.278   9.253   2.236 -0.1719 -0.5529 -1.4703
  210MOL0     C27593   8.233   9.308   2.361  0.1546  0.3473 -0.5075
  210MOL0     C27594   8.094   9.318   2.386  0.2079 -0.4732  0.7227
  210MOL0     C27595   7.995   9.266   2.296 -0.9761 -0.6775 -1.1547
  210MOL0     O27596   7.866   9.259   2.344  1.2218 -0.5857 -0.2593
  210MOL0     C27597   7.764   9.246   2.247  0.3682  0.7912  0.2145
  210MOL0     C27598   7.641   9.338   2.290 -0.8350  0.1526  0.6407
  210MOL0     C27599   7.514   9.280   2.229  0.0144  0.4113 -0.2393
  210MOL0     C27600   7.390   9.351   2.285 -0.1587  0.0122 -0.5988
  210MOL0     C27601   7.262   9.259   2.268 -0.2693  0.5100  0.4446
  210MOL0     C27602   7.124   9.302   2.312 -1.2367 -0.6810 -0.9137
  210MOL0     C27603   7.102   9.445   2.346  0.7110 -0.6918 -0.0796
  210MOL0     C27604   6.962   9.470   2.403  0.0989  0.9235 -0.5380
  210MOL0     N27605   6.852   9.420   2.315  0.1379  0.6530 -0.4316
  210MOL0     C27606   6.780   9.299   2.333  0.2877 -0.7927 -0.2082
  210MOL0     C27607   6.678   9.308   2.236 -0.3281 -0.3959  0.1682
  210MOL0     C27608   6.566   9.212   2.214 -0.7755  1.2425  0.2664
  210MOL0     C27609   6.425   9.250   2.257  0.2320  0.0190 -0.2557
  210MOL0     C27610   6.405   9.268   2.408  0.0308  0.0560 -0.8703
  210MOL0     C27611   6.259   9.304   2.440 -1.2552 -0.0498  0.4201
  210MOL0     O27612   6.180   9.185   2.423  0.2257  0.3678  0.1899
  210MOL0     C27613   6.068   9.174   2.497  0.4163 -1.1033 -0.4446
  210MOL0     C27614   6.023   9.042   2.512 -0.1847 -0.6995 -0.0401
  210MOL0     C27615   5.914   8.996   2.592 -0.9369  0.2234 -0.9507
  210MOL0     C27616   5.846   9.091   2.669 -0.4743 -0.1384 -0.7879
  210MOL0     C27617   5.727   9.044   2.744  0.5415  1.2254  0.6286
  210MOL0     O27618   5.696   8.910   2.732  0.4016  0.1395 -0.1930
  210MOL0     C27619   5.601   8.860   2.811  0.0078  0.2515 -0.2704
  210MOL0     C27620   5.475   8.922   2.820 -0.1572  0.1626  0.7029
  210MOL0     C27621   5.391   8.872   2.923  0.9905  0.1881 -0.5881
  210MOL0     C27622   5.431   8.765   2.994  0.1515 -0.0081 -0.4104
  210MOL0     O27623   5.358   8.724   3.102  0.7200  0.5655  0.3537
  210MOL0     C27624   5.295   8.598   3.096 -0.7806  0.3909 -0.2028
  210MOL0     C27625   5.178   8.590   3.191 -0.2024  0.7140  0.4277
  210MOL0     C27626   5.043   8.612   3.121  0.4528 -0.2177 -0.1403
  210MOL0     C27627   4.924   8.608   3.221  0.0915  0.4523 -0.3069
  210MOL0     C27628   4.818   8.703   3.164  1.0727 -0.2499  0.0277
  210MOL0     C27629   4.673   8.718   3.232  0.5661 -0.1373 -0.2454
  210MOL0     C27630   4.569   8.804   3.151  0.3139  1.0468  0.1271
  210MOL0     C27631   4.433   8.807   3.209  0.3988  0.0445 -0.6747
  210MOL0    Cl27632   4.431   8.885   3.368 -0.1181 -0.4670 -0.1212
  210MOL0     C27633   5.546   8.699   2.975  0.8410  0.5731 -0.6844
  210MOL0     C27634   5.634   8.745   2.892 -0.4227 -0.5954  0.1902
  210MOL0     O27635   5.687   9.117   2.836  0.0030 -0.0807 -0.1710
  210MOL0     C27636   5.889   9.224   2.659 -0.4528 -0.1671 -0.1387
  210MOL0     C27637   5.992   9.267   2.580 -0.5205 -0.7896  0.3695
  210MOL0     N27638   6.691   9.428   2.168  0.2379 -1.4663 -0.2668
  210MOL0     N27639   6.783   9.496   2.221  0.6020 -0.9368 -0.0047
  210MOL0     C27640   8.035   9.199   2.181 -0.2081 -1.2321 -0.1113
  210MOL0     C27641   8.179   9.201   2.149  0.3395 -0.6655 -0.3688
  210MOL0     C27642   8.643   9.246   2.249 -0.4622  0.4550  0.8940
  210MOL0     C27643   8.662   9.104   2.245  0.2907 -0.5093  0.6752
  210MOL0     C27644   8.788   9.049   2.244  0.4798  0.1695  0.0319
  210MOL0     C27645   8.902   9.132   2.253  0.9709  0.8585  0.2346
  210MOL0     O27646   9.024   9.069   2.245  0.0988  0.1890 -0.1741
  210MOL0     C27647   9.139   9.145   2.211  0.8445  1.1544  0.0788
  210MOL0     C27648   9.239   9.049   2.138  0.3255 -0.0963  0.2438
  210MOL0     C27649   9.195   9.003   2.000 -0.4476  0.4463  0.8887
  210MOL0     C27650   9.195   9.114   1.887  0.5429  0.4665  0.8967
  210MOL0     C27651   9.333   9.159   1.851 -0.6574  0.6906  0.0908
  210MOL0     C27652   9.449   9.188   1.819 -0.4489 -0.1307 -0.6686
  210MOL0     C27653   8.882   9.270   2.257 -0.3047  0.5720 -0.4254
  210MOL0     C27654   8.756   9.331   2.250 -0.0333  0.2560  0.3910
  210MOL0     H27655   8.297   9.345   2.440 -1.5270 -1.1351  1.6885
  210MOL0     H27656   8.069   9.380   2.471  1.5412  2.0051 -0.5733
  210MOL0     H27657   7.733   9.142   2.259 -0.7662  0.5543 -3.3946
  210MOL0     H27658   7.791   9.262   2.142  1.0154  1.2696  0.4481
  210MOL0     H27659   7.644   9.439   2.249  0.6739 -0.4524 -0.8452
  210MOL0     H27660   7.636   9.345   2.399 -0.5529 -1.6572  0.7948
  210MOL0     H27661   7.517   9.174   2.258 -0.9408 -0.3154 -2.5144
  210MOL0     H27662   7.521   9.283   2.120  1.0794 -1.0534 -0.2381
  210MOL0     H27663   7.407   9.372   2.391  1.0030 -1.5016 -0.4512
  210MOL0     H27664   7.375   9.447   2.236  2.3210  0.9446  0.3179
  210MOL0     H27665   7.288   9.165   2.317  3.0427  1.7773  1.4215
  210MOL0     H27666   7.257   9.238   2.160  1.1957  0.6898  0.3193
  210MOL0     H27667   7.097   9.250   2.404 -1.6624 -1.2299 -1.3402
  210MOL0     H27668   7.053   9.278   2.232 -0.4844  1.3779 -2.2784
  210MOL0     H27669   7.173   9.482   2.419  1.1737  0.4158 -1.0655
  210MOL0     H27670   7.124   9.502   2.255  1.1158 -0.9690 -0.1592
  210MOL0     H27671   6.948   9.578   2.418 -2.7280  0.1773  3.8266
  210MOL0     H27672   6.961   9.429   2.504  0.0109 -1.3499 -1.4101
  210MOL0     H27673   6.797   9.224   2.409 -0.5741 -2.6343 -1.7573
  210MOL0     H27674   6.598   9.119   2.262  0.4498  1.4994 -0.0146
  210MOL0     H27675   6.576   9.183   2.109 -1.7718  0.3753  0.3917
  210MOL0     H27676   6.363   9.170   2.217 -2.0508  2.4128 -1.8273
  210MOL0     H27677   6.407   9.348   2.212 -1.2066 -0.5047 -0.8775
  210MOL0     H27678   6.424   9.173   2.459 -2.5597 -1.2318 -2.1075
  210MOL0     H27679   6.471   9.349   2.441 -0.5475  0.0129  0.4904
  210MOL0     H27680   6.223   9.376   2.366 -0.0926 -0.0309 -0.1550
  210MOL0     H27681   6.254   9.340   2.543  1.4002  1.0373  0.2696
  210MOL0     H27682   6.074   8.963   2.459  0.5370 -0.5421  0.4120
  210MOL0     H27683   5.888   8.892   2.578 -1.8576  0.7517 -3.8049
  210MOL0     H27684   5.455   9.002   2.750 -1.9403 -0.9350 -0.0923
  210MOL0     H27685   5.291   8.911   2.939  0.4554 -1.5175  0.5335
  210MOL0     H27686   5.372   8.529   3.129 -0.5315  0.3319 -0.8834
  210MOL0     H27687   5.257   8.568   2.998 -0.9863  0.2008 -0.0655
  210MOL0     H27688   5.194   8.674   3.260  0.4542  2.3591 -1.6204
  210MOL0     H27689   5.173   8.499   3.250 -1.8825  0.5662  0.1113
  210MOL0     H27690   5.026   8.536   3.045 -3.6998  0.5087 -0.1685
  210MOL0     H27691   5.044   8.709   3.070 -1.3543 -0.0129  0.1612
  210MOL0     H27692   4.888   8.505   3.228 -1.0355  0.9460  3.1608
  210MOL0     H27693   4.947   8.643   3.321 -1.1393  1.4738 -0.3477
  210MOL0     H27694   4.806   8.682   3.057 -0.5344  1.9659 -0.2948
  210MOL0     H27695   4.877   8.795   3.166 -0.3104  0.6739 -0.6265
  210MOL0     H27696   4.684   8.772   3.327  1.9360 -1.4344  0.3910
  210MOL0     H27697   4.636   8.616   3.249  1.4901 -0.6407 -1.1374
  210MOL0     H27698   4.586   8.912   3.146 -4.3954  2.2568  3.3356
  210MOL0     H27699   4.569   8.769   3.047  1.5900  3.3928 -0.7369
  210MOL0     H27700   4.401   8.703   3.223  0.4234 -0.3694 -3.2720
  210MOL0     H27701   4.365   8.863   3.145  0.1962  1.6561  0.8654
  210MOL0     H27702   5.580   8.617   3.038 -0.3842  0.7791  0.2699
  210MOL0     H27703   5.715   8.673   2.890 -0.0507 -0.1797  0.1426
  210MOL0     H27704   5.850   9.301   2.726  0.0461  1.8851 -2.0807
  210MOL0     H27705   6.025   9.370   2.588  1.4529 -1.4455  1.6132
  210MOL0     H27706   7.970   9.156   2.106 -1.1726 -0.1672  0.0896
  210MOL0     H27707   8.213   9.155   2.057  0.1431  0.7325 -1.1667
  210MOL0     H27708   8.581   9.034   2.227  1.6586 -1.3728 -2.8826
  210MOL0     H27709   8.802   8.941   2.251  1.9900  0.4092  1.1456
  210MOL0     H27710   9.191   9.185   2.299 -1.2040  1.7553  1.0777
  210MOL0     H27711   9.109   9.222   2.138  0.7746 -1.1240 -2.4803
  210MOL0     H27712   9.330   9.109   2.127 -0.1462  0.6499  0.2884
  210MOL0     H27713   9.272   8.964   2.198 -1.5645 -1.4246 -0.5005
  210MOL0     H27714   9.091   8.980   2.025 -0.7652  0.8725  0.0154
  210MOL0     H27715   9.249   8.916   1.962  0.4427  0.3319  2.3408
  210MOL0     H27716   9.139   9.067   1.805  0.6228 -0.9903  1.6417
  210MOL0     H27717   9.132   9.196   1.923 -1.2129  1.2518 -3.3368
  210MOL0     H27718   9.552   9.208   1.799 -0.9781  0.4135 -3.3524
  210MOL0     H27719   8.964   9.341   2.262 -1.3770  1.8696 -0.5359
  210MOL0     H27720   8.742   9.438   2.241  0.1329  0.4709  2.3345
  211MOL0     O27721   0.405   8.864   7.888 -0.5560  0.0304  0.1230
  211MOL0     C27722   0.493   8.923   7.838  0.0448 -0.1463 -0.3754
  211MOL0     O27723   0.504   8.938   7.700  0.3503 -0.3411  0.2107
  211MOL0     C27724   0.407   8.911   7.604  1.2853  0.5459 -0.6449
  211MOL0     C27725   0.444   8.881   7.479  0.1614  0.3885  1.3482
  211MOL0     C27726   0.343   8.866   7.380  0.0900  0.6478  0.3789
  211MOL0     C27727   0.205   8.889   7.405 -0.0866  0.8785 -1.2051
  211MOL0     O27728   0.127   8.855   7.297  0.9315 -1.4201  0.0372
  211MOL0     C27729   0.008   8.945   7.275  0.3213 -0.5348  0.5361
  211MOL0     C27730  -0.081   8.874   7.182 -0.1722 -0.2365 -0.0757
  211MOL0     C27731  -0.215   8.947   7.164  0.1888  0.2387 -0.2673
  211MOL0     C27732  -0.293   8.864   7.063 -0.1807 -0.8052 -0.0748
  211MOL0     C27733  -0.378   8.957   6.972  0.2439  1.1625 -1.0948
  211MOL0     C27734  -0.491   9.027   7.053  0.1645  0.6251 -0.4090
  211MOL0     C27735  -0.616   8.949   7.078 -1.0233 -0.0621 -0.0095
  211MOL0     C27736  -0.689   8.939   6.944  0.6503 -0.2112 -0.2130
  211MOL0     N27737  -0.829   8.886   6.949 -0.4268 -0.8991 -0.1703
  211MOL0     C27738  -0.929   8.952   7.010  0.1926  0.3260 -0.6732
  211MOL0     C27739  -1.015   8.861   7.036  0.5560  0.4831 -0.3096
  211MOL0     C27740  -1.152   8.883   7.100 -0.4435  0.3152 -0.5022
  211MOL0     C27741  -1.129   8.956   7.227 -0.2314  0.0283 -1.3462
  211MOL0     C27742  -1.060   8.862   7.330  0.3035  0.3104 -0.4555
  211MOL0     C27743  -1.052   8.921   7.471  0.3124  0.4749  0.2041
  211MOL0     O27744  -0.994   9.055   7.476 -0.1312  0.5778  0.8039
  211MOL0     C27745  -0.854   9.072   7.476  0.8733  0.8901 -0.2466
  211MOL0     C27746  -0.761   8.975   7.458 -0.9711 -0.0725  0.8485
  211MOL0     C27747  -0.626   8.999   7.453  0.7550  0.4345  0.0259
  211MOL0     C27748  -0.577   9.124   7.459  0.7049 -0.3342 -1.0054
  211MOL0     C27749  -0.434   9.157   7.458 -0.2818  0.2969  0.2784
  211MOL0     O27750  -0.408   9.288   7.472  0.2508  0.4678 -0.8030
  211MOL0     C27751  -0.273   9.329   7.488  0.5851  0.0367 -0.4141
  211MOL0     C27752  -0.191   9.341   7.375 -0.0830  0.0944 -1.0459
  211MOL0     C27753  -0.052   9.371   7.395 -1.2769 -0.2865 -0.9899
  211MOL0     C27754  -0.008   9.391   7.524  0.1337  0.6295 -0.3400
  211MOL0     O27755   0.121   9.404   7.565 -0.0111 -0.7161  0.2415
  211MOL0     C27756   0.216   9.472   7.476 -0.6466 -0.4117 -0.3255
  211MOL0     C27757   0.342   9.524   7.548  0.8452 -0.4534  1.0173
  211MOL0     C27758   0.401   9.418   7.648 -0.5512 -0.1380  1.0553
  211MOL0     C27759   0.539   9.472   7.689 -0.4325  0.6921  0.7010
  211MOL0     C27760   0.621   9.374   7.767 -0.2253  0.4598  0.8406
  211MOL0     C27761   0.594   9.362   7.918 -0.6846 -0.2357  0.1824
  211MOL0     C27762   0.633   9.490   7.989 -0.2260  0.4053  0.3114
  211MOL0     C27763   0.581   9.495   8.132  0.3082  0.7552 -0.1144
  211MOL0    Cl27764   0.599   9.334   8.215  0.3007  0.1447  0.9168
  211MOL0     C27765  -0.085   9.377   7.630 -0.3561 -0.6814 -0.0469
  211MOL0     C27766  -0.221   9.357   7.617 -0.9044  0.9615  0.7822
  211MOL0     O27767  -0.346   9.074   7.451  0.7535  0.1736  0.0359
  211MOL0     C27768  -0.677   9.224   7.471 -0.2921  0.6544  0.0212
  211MOL0     C27769  -0.808   9.199   7.491 -0.5363 -0.1455 -0.9645
  211MOL0     N27770  -0.972   8.740   6.977  0.9805  0.1074 -0.1381
  211MOL0     N27771  -0.853   8.756   6.939  0.2299  0.3986 -0.1094
  211MOL0     C27772   0.174   8.916   7.533 -0.3534  0.5505 -0.2115
  211MOL0     C27773   0.269   8.931   7.627 -0.8424  0.3484 -0.9560
  211MOL0     C27774   0.613   8.960   7.925  1.0012 -1.3206 -0.2803
  211MOL0     C27775   0.736   9.022   7.868  0.6479 -0.3174  1.0495
  211MOL0     C27776   0.831   9.077   7.950 -0.3384  0.8965 -1.0935
  211MOL0     C27777   0.801   9.087   8.086  0.6313  0.3328 -0.5428
  211MOL0     O27778   0.912   9.140   8.151 -0.3884 -1.1053 -0.3414
  211MOL0     C27779   0.954   9.067   8.266  0.5605 -0.1274  0.3209
  211MOL0     C27780   1.104   9.101   8.304  0.0490  0.3162  0.2001
  211MOL0     C27781   1.203   9.040   8.203 -0.0143 -0.5343  0.2350
  211MOL0     C27782   1.345   9.063   8.265 -0.0346 -0.4202  0.1362
  211MOL0     C27783   1.436   9.118   8.163 -0.8350 -0.6126 -0.1167
  211MOL0     C27784   1.507   9.158   8.079 -0.8233  0.1949 -0.3901
  211MOL0     C27785   0.695   9.029   8.143 -0.1273 -0.0204  0.1051
  211MOL0     C27786   0.604   8.958   8.061 -0.8773  0.9683 -0.1888
  211MOL0     H27787   0.550   8.861   7.466  0.2090  1.1296  0.5248
  211MOL0     H27788   0.376   8.837   7.280 -0.1044  1.5160  0.0551
  211MOL0     H27789   0.035   9.040   7.228  0.2981 -0.8412 -0.0984
  211MOL0     H27790  -0.051   8.960   7.366  0.7935  1.8863  0.5077
  211MOL0     H27791  -0.102   8.774   7.222 -2.8931  0.9303  1.6745
  211MOL0     H27792  -0.031   8.861   7.086 -1.3676 -1.2949 -0.5773
  211MOL0     H27793  -0.195   9.048   7.129  0.8514  0.1423 -0.1827
  211MOL0     H27794  -0.267   8.962   7.260  1.0979  2.6955 -0.0980
  211MOL0     H27795  -0.220   8.821   6.995  0.3832 -3.6102  2.0964
  211MOL0     H27796  -0.353   8.790   7.118  0.3882  1.4565  4.0176
  211MOL0     H27797  -0.415   8.904   6.884 -0.7885 -3.3601  1.6954
  211MOL0     H27798  -0.305   9.028   6.932  2.0947  0.5008  0.9152
  211MOL0     H27799  -0.522   9.119   7.003 -0.9933  0.7573  0.5005
  211MOL0     H27800  -0.462   9.062   7.153 -2.4067  1.9485 -0.0573
  211MOL0     H27801  -0.574   8.854   7.111  1.1379  0.3812 -1.2417
  211MOL0     H27802  -0.687   8.986   7.152 -0.2285  3.0334 -0.6249
  211MOL0     H27803  -0.629   8.873   6.881  1.0103  0.4575 -0.5884
  211MOL0     H27804  -0.701   9.034   6.891 -2.0894  0.1505  0.8816
  211MOL0     H27805  -0.930   9.057   7.039  1.3170  0.1342  0.1274
  211MOL0     H27806  -1.204   8.790   7.126 -0.0790  1.0313  3.4267
  211MOL0     H27807  -1.207   8.951   7.035 -2.3786 -0.8183 -0.1318
  211MOL0     H27808  -1.232   8.976   7.260 -0.3459  1.2866 -2.3796
  211MOL0     H27809  -1.077   9.051   7.218  1.5644 -0.6356  1.0189
  211MOL0     H27810  -1.107   8.764   7.344 -0.3884  0.6871 -0.0310
  211MOL0     H27811  -0.958   8.852   7.292  0.7848 -1.7349  1.1948
  211MOL0     H27812  -1.015   8.840   7.534 -1.0834 -1.7987 -1.7085
  211MOL0     H27813  -1.151   8.924   7.519  0.6775 -0.9661  1.1141
  211MOL0     H27814  -0.792   8.873   7.437 -1.6727  0.7957 -3.2502
  211MOL0     H27815  -0.565   8.909   7.452 -0.1388 -0.3383  3.0596
  211MOL0     H27816  -0.235   9.322   7.278 -3.7253  0.5563  0.3627
  211MOL0     H27817   0.014   9.377   7.309  0.5583  0.9754  0.3975
  211MOL0     H27818   0.159   9.554   7.431  0.7238  0.6689 -0.1765
  211MOL0     H27819   0.253   9.407   7.397  1.0068  0.4036 -0.2670
  211MOL0     H27820   0.318   9.617   7.600  0.3558  1.4284 -2.3165
  211MOL0     H27821   0.416   9.549   7.472  2.2613 -0.6709  2.2749
  211MOL0     H27822   0.422   9.327   7.591 -0.0617  1.1178 -0.8579
  211MOL0     H27823   0.343   9.395   7.738  1.8480 -1.8117  2.2725
  211MOL0     H27824   0.585   9.497   7.593 -1.6848  0.1569 -0.0719
  211MOL0     H27825   0.519   9.562   7.747  0.4737 -0.8912  3.6922
  211MOL0     H27826   0.726   9.401   7.747 -0.3363 -0.8680 -2.2370
  211MOL0     H27827   0.618   9.272   7.727  2.0343 -1.1715  4.3057
  211MOL0     H27828   0.650   9.273   7.946  1.2025  1.1415  0.9266
  211MOL0     H27829   0.486   9.346   7.932 -0.7763  1.1641  1.2477
  211MOL0     H27830   0.742   9.499   7.989 -0.1553  0.8100  3.8902
  211MOL0     H27831   0.590   9.581   7.945  3.5857  1.7172 -1.0979
  211MOL0     H27832   0.473   9.508   8.129 -0.0627 -1.9224 -1.3084
  211MOL0     H27833   0.627   9.580   8.184  0.3590 -0.6794  2.3535
  211MOL0     H27834  -0.050   9.390   7.732  0.3697 -0.0093 -0.3757
  211MOL0     H27835  -0.289   9.337   7.699 -1.0025  0.3714  0.5599
  211MOL0     H27836  -0.644   9.327   7.472 -0.2192  0.6854  2.7671
  211MOL0     H27837  -0.881   9.278   7.507 -3.5202 -2.9571  0.4022
  211MOL0     H27838   0.069   8.923   7.561 -0.5077  3.7001 -1.1287
  211MOL0     H27839   0.245   8.949   7.731  2.1671  0.4518 -0.1770
  211MOL0     H27840   0.745   9.024   7.760 -1.3070 -1.3371  0.8170
  211MOL0     H27841   0.918   9.118   7.900  0.1943  1.8242  0.5493
  211MOL0     H27842   0.931   8.960   8.254 -0.7341  0.2069 -0.4107
  211MOL0     H27843   0.890   9.099   8.348 -0.5409 -2.4931  0.4836
  211MOL0     H27844   1.127   9.208   8.313 -1.3896  0.5200  1.9513
  211MOL0     H27845   1.119   9.053   8.401  2.9961  1.0798  0.2121
  211MOL0     H27846   1.201   9.083   8.103  3.3510 -2.7324 -0.9495
  211MOL0     H27847   1.180   8.934   8.187 -0.5946 -0.1661 -1.5304
  211MOL0     H27848   1.354   9.136   8.346  2.4767 -0.9207  0.3946
  211MOL0     H27849   1.380   8.971   8.312  0.2116  0.1615  1.1100
  211MOL0     H27850   1.576   9.195   8.006  0.5874 -2.6616 -0.6410
  211MOL0     H27851   0.686   9.043   8.250  0.6774 -1.0272  0.3188
  211MOL0     H27852   0.522   8.908   8.113  1.2725 -2.1813  0.4904
  212MOL0     O27853   5.915   8.435   3.053 -0.2223  0.0928 -1.0644
  212MOL0     C27854   5.943   8.370   2.954 -0.1174 -0.2839 -0.4310
  212MOL0     O27855   5.858   8.292   2.883  0.2079 -0.4169  0.6530
  212MOL0     C27856   5.747   8.242   2.943 -0.2961 -0.0847 -0.6253
  212MOL0     C27857   5.734   8.103   2.950 -0.4295  0.1102 -0.7759
  212MOL0     C27858   5.625   8.050   3.026  0.0360  0.4586  0.5359
  212MOL0     C27859   5.526   8.130   3.074  0.6224  0.6001 -0.6338
  212MOL0     O27860   5.420   8.075   3.141  0.3512  0.3563  0.4855
  212MOL0     C27861   5.433   7.936   3.199  0.3860  0.5605 -0.1169
  212MOL0     C27862   5.327   7.924   3.306  0.3922  0.1697  1.3898
  212MOL0     C27863   5.295   7.780   3.351  0.5593  0.3507  0.2367
  212MOL0     C27864   5.153   7.773   3.398  0.5791  0.2494 -0.3676
  212MOL0     C27865   5.111   7.640   3.461 -0.1200 -0.4123 -0.5802
  212MOL0     C27866   4.964   7.646   3.501 -0.3774 -0.0243  0.3723
  212MOL0     C27867   4.920   7.526   3.586  0.2956  0.5690  0.9001
  212MOL0     C27868   4.769   7.525   3.598  0.5348  0.2952 -0.6853
  212MOL0     N27869   4.733   7.394   3.660 -1.3740 -0.5089 -0.2960
  212MOL0     C27870   4.607   7.344   3.632 -0.9152 -0.4526 -0.5564
  212MOL0     C27871   4.612   7.234   3.711 -0.2861 -0.4009  0.1009
  212MOL0     C27872   4.490   7.139   3.750  0.2003  0.1181  1.3536
  212MOL0     C27873   4.481   7.093   3.897 -0.0574 -0.6332  0.3806
  212MOL0     C27874   4.371   6.997   3.943  0.2635  0.6265  0.6602
  212MOL0     C27875   4.311   7.024   4.075 -0.1479 -0.6860 -0.0604
  212MOL0     O27876   4.217   6.919   4.103  0.2332 -0.2063 -0.3099
  212MOL0     C27877   4.089   6.948   4.146 -0.1275  0.8833  0.2421
  212MOL0     C27878   4.047   7.069   4.203  0.8670 -0.3713  0.4402
  212MOL0     C27879   3.926   7.087   4.273  0.2705  0.1517  0.1384
  212MOL0     C27880   3.829   6.989   4.257  0.4668  0.3467 -0.2465
  212MOL0     C27881   3.709   6.987   4.337  0.5435  1.4664 -0.1051
  212MOL0     O27882   3.606   6.901   4.284  0.2879  0.0432  0.5909
  212MOL0     C27883   3.483   6.907   4.341  0.3779 -0.7680  0.4689
  212MOL0     C27884   3.409   6.794   4.349  0.5248 -0.2020  0.9552
  212MOL0     C27885   3.278   6.782   4.389  0.1026  0.0571  0.6543
  212MOL0     C27886   3.216   6.901   4.432 -0.1551 -1.1591 -0.2467
  212MOL0     O27887   3.082   6.926   4.458  0.5625 -0.3626 -0.1125
  212MOL0     C27888   2.999   6.911   4.343  0.2003  0.3658  0.3334
  212MOL0     C27889   2.860   6.976   4.357  0.4984  0.0310 -0.4749
  212MOL0     C27890   2.754   6.896   4.448  0.0636 -0.1440  0.2860
  212MOL0     C27891   2.713   6.752   4.391  0.8731  0.3784 -0.6205
  212MOL0     C27892   2.574   6.725   4.423  0.6396  0.0263  0.5530
  212MOL0     C27893   2.537   6.575   4.399  0.3766  0.1971 -0.7518
  212MOL0     C27894   2.395   6.548   4.469 -0.3130 -0.3161  0.6739
  212MOL0     C27895   2.291   6.606   4.373  0.4285 -0.1223  0.4950
  212MOL0    Cl27896   2.119   6.574   4.423 -0.4002  0.1716 -0.0840
  212MOL0     C27897   3.290   7.016   4.438 -0.1936 -0.9057  0.4780
  212MOL0     C27898   3.424   7.030   4.386 -0.0906  0.3445  0.2807
  212MOL0     O27899   3.701   7.053   4.439  1.0217  0.6895 -0.7122
  212MOL0     C27900   3.857   6.872   4.184  0.5557 -0.4130  0.2016
  212MOL0     C27901   3.982   6.851   4.129  0.1225 -0.2004  0.4212
  212MOL0     N27902   4.730   7.219   3.781 -0.3261 -0.0808  0.4590
  212MOL0     N27903   4.800   7.323   3.755  0.7369  0.1255 -0.2081
  212MOL0     C27904   5.527   8.267   3.055 -1.0381 -0.3149 -0.4156
  212MOL0     C27905   5.636   8.319   2.986  0.5480 -0.3056 -0.6378
  212MOL0     C27906   6.080   8.381   2.896  0.3774  0.4313 -0.5544
  212MOL0     C27907   6.092   8.332   2.761 -0.6083  0.2386 -0.9744
  212MOL0     C27908   6.215   8.335   2.706  0.0424  0.2409 -0.2114
  212MOL0     C27909   6.332   8.375   2.775 -0.2144  0.8195 -0.4122
  212MOL0     O27910   6.457   8.353   2.717  0.1243  0.0556 -0.0135
  212MOL0     C27911   6.570   8.362   2.790  0.0852 -0.8621  0.0383
  212MOL0     C27912   6.600   8.256   2.887  0.9727  0.3160 -0.5338
  212MOL0     C27913   6.631   8.120   2.831 -0.5471 -0.2635 -0.1312
  212MOL0     C27914   6.515   8.058   2.759 -0.1262 -0.2302  0.4699
  212MOL0     C27915   6.384   8.044   2.827 -0.4703 -0.1636  1.0084
  212MOL0     C27916   6.261   8.036   2.847 -0.6772  0.5045 -0.6031
  212MOL0     C27917   6.314   8.432   2.907 -0.8869 -0.0251 -0.2338
  212MOL0     C27918   6.191   8.431   2.973  0.0374 -0.0868 -0.2777
  212MOL0     H27919   5.809   8.040   2.901 -0.4131  0.0202 -0.6349
  212MOL0     H27920   5.601   7.945   3.011 -1.1199  1.1205 -3.6645
  212MOL0     H27921   5.534   7.918   3.237  0.3940  0.6841 -0.0801
  212MOL0     H27922   5.410   7.861   3.122 -1.0637  1.3128 -0.4455
  212MOL0     H27923   5.235   7.963   3.261  0.9144  0.3483  0.4501
  212MOL0     H27924   5.359   7.987   3.389  0.8459 -0.0836  1.4090
  212MOL0     H27925   5.367   7.752   3.428 -0.3246  0.6517  1.1902
  212MOL0     H27926   5.309   7.719   3.262 -0.4925  2.6207 -1.6057
  212MOL0     H27927   5.127   7.854   3.467 -1.4556 -3.5389  3.7593
  212MOL0     H27928   5.086   7.795   3.314 -0.9729 -2.9896 -0.1133
  212MOL0     H27929   5.171   7.613   3.548  1.1376  0.6719 -1.0714
  212MOL0     H27930   5.129   7.560   3.388  2.5625  0.2931 -0.8069
  212MOL0     H27931   4.900   7.663   3.414  0.5161 -1.3950 -0.5865
  212MOL0     H27932   4.954   7.726   3.575 -3.2242  1.5080 -1.4705
  212MOL0     H27933   4.940   7.438   3.524  0.4416  2.7438 -2.4127
  212MOL0     H27934   4.975   7.512   3.680  0.8898 -0.9804  0.3528
  212MOL0     H27935   4.716   7.537   3.503 -1.1287 -1.5748 -0.0732
  212MOL0     H27936   4.746   7.614   3.658 -0.2053 -0.4508  0.1565
  212MOL0     H27937   4.525   7.387   3.574 -0.7872 -2.4608 -2.3558
  212MOL0     H27938   4.498   7.054   3.682  1.2984  1.0322  0.2985
  212MOL0     H27939   4.400   7.199   3.731  0.2911  0.7213  2.6716
  212MOL0     H27940   4.476   7.190   3.947 -2.9399  0.3236 -1.4651
  212MOL0     H27941   4.574   7.039   3.917 -0.5581 -1.4862  0.4751
  212MOL0     H27942   4.297   6.994   3.863  0.6001 -0.9606  0.3908
  212MOL0     H27943   4.409   6.895   3.951 -0.0616  0.4465 -0.0717
  212MOL0     H27944   4.270   7.122   4.050 -1.5619 -1.0901  0.5480
  212MOL0     H27945   4.388   7.036   4.152  1.7252  2.0613 -2.1713
  212MOL0     H27946   4.132   7.134   4.217  1.8469 -1.7977  1.3640
  212MOL0     H27947   3.926   7.172   4.341  3.1847  1.5843 -1.4426
  212MOL0     H27948   3.451   6.701   4.311 -0.4700  0.3394 -1.7055
  212MOL0     H27949   3.215   6.695   4.377 -1.1635  0.9949  0.1821
  212MOL0     H27950   2.985   6.805   4.318  0.4487  0.3007  0.4768
  212MOL0     H27951   3.039   6.961   4.254  0.7263  1.5489  1.2258
  212MOL0     H27952   2.804   6.983   4.264 -1.0065  0.0619  0.4061
  212MOL0     H27953   2.872   7.079   4.392  2.2716 -1.0441  2.4804
  212MOL0     H27954   2.667   6.961   4.445 -0.6664 -1.0808 -2.7252
  212MOL0     H27955   2.790   6.882   4.550  0.8970 -1.8362 -0.1983
  212MOL0     H27956   2.732   6.738   4.284  2.7298 -0.0819 -0.2722
  212MOL0     H27957   2.771   6.666   4.427 -1.5494 -1.3895 -0.6293
  212MOL0     H27958   2.509   6.790   4.363  0.3976  0.3108  1.1143
  212MOL0     H27959   2.546   6.754   4.524 -0.5597  3.0950 -0.5280
  212MOL0     H27960   2.614   6.517   4.452  1.2991  0.5922 -1.6331
  212MOL0     H27961   2.525   6.548   4.294 -1.1643 -0.8661 -0.3425
  212MOL0     H27962   2.388   6.439   4.480  1.0023 -0.5059 -0.2649
  212MOL0     H27963   2.375   6.590   4.569 -1.3516 -1.2735  0.8936
  212MOL0     H27964   2.300   6.560   4.275 -3.3599 -0.5235  0.1875
  212MOL0     H27965   2.315   6.713   4.367 -0.7927  0.0721 -1.5371
  212MOL0     H27966   3.240   7.102   4.482 -3.4095 -0.9444 -2.5808
  212MOL0     H27967   3.473   7.127   4.386 -0.1040  0.3514  0.7010
  212MOL0     H27968   3.783   6.795   4.162 -1.1326  1.8648 -2.7915
  212MOL0     H27969   3.999   6.755   4.083 -1.5590  0.4806 -1.7983
  212MOL0     H27970   5.445   8.331   3.087 -0.8477 -0.8674  1.3164
  212MOL0     H27971   5.640   8.427   2.979  2.7635 -0.1076  1.9158
  212MOL0     H27972   6.011   8.296   2.699 -0.5937 -1.0156 -0.2887
  212MOL0     H27973   6.223   8.290   2.607 -1.0291 -1.0988  0.2820
  212MOL0     H27974   6.571   8.461   2.836 -0.2052 -0.5851 -0.5318
  212MOL0     H27975   6.649   8.362   2.713  1.9724  1.2137  1.8308
  212MOL0     H27976   6.692   8.290   2.934 -0.3028  1.8260  0.9759
  212MOL0     H27977   6.523   8.251   2.965  1.6322  0.5743  0.1419
  212MOL0     H27978   6.658   8.040   2.900 -0.6135 -2.2595 -2.2975
  212MOL0     H27979   6.716   8.128   2.762  0.9645  1.9787  1.8062
  212MOL0     H27980   6.497   8.114   2.666 -1.0351  0.7824  1.2302
  212MOL0     H27981   6.542   7.955   2.737 -1.8094 -1.3326  3.0925
  212MOL0     H27982   6.155   8.022   2.859 -0.8902  1.5592 -1.1319
  212MOL0     H27983   6.399   8.486   2.947  1.0409 -2.4399 -0.7922
  212MOL0     H27984   6.183   8.461   3.077 -0.2227 -2.8005  0.5736
  213MOL0     O27985   7.859   9.402   6.053  0.2992  0.0127  0.2290
  213MOL0     C27986   7.777   9.419   6.140  0.1404  0.4547 -0.6465
  213MOL0     O27987   7.770   9.517   6.231 -0.0806  0.0208 -0.5501
  213MOL0     C27988   7.881   9.601   6.224 -0.5362 -0.4070 -0.0248
  213MOL0     C27989   7.875   9.733   6.169  0.6571 -0.1069  0.2501
  213MOL0     C27990   7.976   9.819   6.173 -1.1468 -0.4755 -0.1394
  213MOL0     C27991   8.100   9.778   6.230 -0.9567  0.8146 -0.5145
  213MOL0     O27992   8.213   9.859   6.250 -1.3459  0.5296  0.4149
  213MOL0     C27993   8.194  10.001   6.224 -0.5485  0.2421  0.9968
  213MOL0     C27994   8.320  10.080   6.261 -1.0953  0.3844 -0.1559
  213MOL0     C27995   8.329  10.085   6.417 -0.3178  0.4557  0.5566
  213MOL0     C27996   8.470  10.063   6.469  0.0295  0.2874  0.1556
  213MOL0     C27997   8.485  10.084   6.616  0.7858 -0.0509 -0.0015
  213MOL0     C27998   8.402   9.994   6.714 -0.1095 -0.0913  0.3118
  213MOL0     C27999   8.397   9.848   6.660  0.0827  0.6277 -0.5146
  213MOL0     C28000   8.318   9.761   6.756  0.2440  0.0395  0.4794
  213MOL0     N28001   8.175   9.796   6.783 -0.5153 -0.2280 -0.2868
  213MOL0     C28002   8.083   9.853   6.702 -0.2997  0.0573  0.3965
  213MOL0     C28003   7.980   9.873   6.779 -0.1946  0.4242 -0.3809
  213MOL0     C28004   7.872   9.950   6.715  0.9451  0.0839 -0.4709
  213MOL0     C28005   7.750   9.877   6.665 -0.5981  0.0734  0.3968
  213MOL0     C28006   7.798   9.768   6.566  0.1575  0.4948 -0.2272
  213MOL0     C28007   7.673   9.698   6.497  0.5158 -0.3602  0.2604
  213MOL0     O28008   7.588   9.659   6.606 -0.3156  0.5386 -0.0766
  213MOL0     C28009   7.487   9.569   6.572  0.6336  0.3790 -0.5707
  213MOL0     C28010   7.482   9.443   6.638  0.7138 -0.6044  1.0719
  213MOL0     C28011   7.379   9.358   6.608 -0.2045 -0.6841 -0.3602
  213MOL0     C28012   7.288   9.385   6.510  0.6976  0.7912 -0.0353
  213MOL0     C28013   7.177   9.281   6.489  0.0527 -0.0952  1.1596
  213MOL0     O28014   7.105   9.299   6.365 -1.0068  0.1132 -0.6066
  213MOL0     C28015   7.017   9.205   6.330 -0.3564 -0.9351  0.5678
  213MOL0     C28016   6.872   9.231   6.333 -0.4107 -0.5513  0.1938
  213MOL0     C28017   6.777   9.129   6.320  0.2397  0.2367 -0.2586
  213MOL0     C28018   6.807   9.005   6.260  0.0633 -0.0386  0.7426
  213MOL0     O28019   6.705   8.918   6.228 -0.0413  0.0188 -0.3417
  213MOL0     C28020   6.733   8.814   6.141  0.0352 -1.0088  0.9516
  213MOL0     C28021   6.594   8.765   6.108 -0.0318 -0.3547  0.0003
  213MOL0     C28022   6.609   8.650   6.010  1.1080 -0.7806 -0.0565
  213MOL0     C28023   6.466   8.624   5.947  0.4083  0.3098  0.3886
  213MOL0     C28024   6.479   8.531   5.826 -0.4545  0.7914  0.2113
  213MOL0     C28025   6.353   8.534   5.732 -0.0361  0.5994 -0.6571
  213MOL0     C28026   6.360   8.437   5.605 -0.3118  0.4475  0.0742
  213MOL0     C28027   6.231   8.448   5.526 -0.3055  0.8800 -0.0498
  213MOL0    Cl28028   6.233   8.594   5.429 -0.3356 -0.2687 -0.3616
  213MOL0     C28029   6.952   8.988   6.236  0.3122 -0.9421  0.4396
  213MOL0     C28030   7.050   9.086   6.273 -0.3982  0.3383 -1.0022
  213MOL0     O28031   7.163   9.189   6.574  0.1101  0.3093  0.4248
  213MOL0     C28032   7.293   9.502   6.438 -0.3636  0.0321  0.1033
  213MOL0     C28033   7.397   9.594   6.466 -0.3328 -0.9769 -1.1251
  213MOL0     N28034   8.003   9.828   6.910  0.0380  0.3882 -0.1094
  213MOL0     N28035   8.124   9.785   6.905 -0.0544  0.6573  0.3547
  213MOL0     C28036   8.118   9.643   6.265  0.0931  0.9304  0.2107
  213MOL0     C28037   8.004   9.560   6.276  0.2003 -0.0750  0.1411
  213MOL0     C28038   7.675   9.315   6.146 -0.4819  0.4030 -0.7261
  213MOL0     C28039   7.592   9.311   6.258 -0.4879 -0.0469 -0.1690
  213MOL0     C28040   7.498   9.210   6.270 -0.6028 -0.5548 -0.5088
  213MOL0     C28041   7.481   9.115   6.168 -0.4507 -0.5201 -0.1059
  213MOL0     O28042   7.379   9.034   6.202 -0.1084 -0.0737  0.0810
  213MOL0     C28043   7.358   8.919   6.117 -0.6183  0.4151 -0.8368
  213MOL0     C28044   7.447   8.807   6.158 -0.2738  0.7836 -0.1713
  213MOL0     C28045   7.422   8.676   6.074 -0.2106 -0.2096  0.2322
  213MOL0     C28046   7.471   8.547   6.136  0.0082 -0.2767  0.0211
  213MOL0     C28047   7.475   8.442   6.038 -0.5390  0.3895 -0.8655
  213MOL0     C28048   7.468   8.351   5.963  0.5999 -0.3055 -1.3549
  213MOL0     C28049   7.558   9.122   6.051 -0.4759  0.5107  0.7459
  213MOL0     C28050   7.651   9.223   6.039 -0.2034 -0.6515  0.3516
  213MOL0     H28051   7.773   9.762   6.149  1.6379  3.2639 -0.5204
  213MOL0     H28052   7.954   9.920   6.140  2.7369 -0.2715 -2.6222
  213MOL0     H28053   8.114  10.041   6.287 -0.6259 -1.2083  1.8673
  213MOL0     H28054   8.175  10.011   6.117  0.0035  3.6950  1.1255
  213MOL0     H28055   8.328  10.185   6.228  0.1087  1.0863  2.1441
  213MOL0     H28056   8.393  10.018   6.208 -2.3475  2.4288 -4.8246
  213MOL0     H28057   8.262  10.007   6.456 -0.7566 -0.4292 -1.7980
  213MOL0     H28058   8.289  10.180   6.453 -2.2359 -0.9021  2.2194
  213MOL0     H28059   8.508   9.967   6.432  2.7307  1.3869 -0.1233
  213MOL0     H28060   8.538  10.143   6.437  1.6231 -0.5381  1.3291
  213MOL0     H28061   8.458  10.186   6.646  0.4128 -0.5758  1.5143
  213MOL0     H28062   8.593  10.078   6.634  1.0323  1.0657 -0.9169
  213MOL0     H28063   8.304  10.044   6.717 -1.1745 -2.1483  1.6217
  213MOL0     H28064   8.441   9.999   6.816  1.6574  1.6157 -0.3628
  213MOL0     H28065   8.350   9.834   6.562 -2.5104  1.2094  0.5856
  213MOL0     H28066   8.499   9.807   6.656 -1.1573 -2.7232 -0.7746
  213MOL0     H28067   8.368   9.756   6.853 -1.5868 -2.6969  1.4067
  213MOL0     H28068   8.321   9.664   6.705 -1.1168 -0.0810  0.5881
  213MOL0     H28069   8.099   9.878   6.597  0.8189  2.7746  1.1294
  213MOL0     H28070   7.918  10.012   6.638  1.6097  0.1908  0.0031
  213MOL0     H28071   7.827  10.018   6.788  1.6294 -2.4863  2.6008
  213MOL0     H28072   7.691   9.951   6.610 -1.8832  0.2830  1.9893
  213MOL0     H28073   7.697   9.833   6.750  1.4857 -1.3085  1.0584
  213MOL0     H28074   7.860   9.803   6.483 -1.7786  0.8876 -1.5759
  213MOL0     H28075   7.842   9.687   6.626 -1.4478  0.0475  0.4113
  213MOL0     H28076   7.711   9.613   6.439  2.1431  2.1686 -2.7419
  213MOL0     H28077   7.621   9.765   6.428  2.6238  0.5014 -0.5847
  213MOL0     H28078   7.561   9.424   6.710  2.8313  1.1840 -0.6218
  213MOL0     H28079   7.379   9.273   6.676  0.6829 -0.0045  0.5352
  213MOL0     H28080   6.853   9.326   6.383  0.3897 -0.2863  0.0170
  213MOL0     H28081   6.671   9.151   6.322  0.0414 -0.6998  1.3218
  213MOL0     H28082   6.794   8.734   6.185  0.1103 -0.9794  0.9019
  213MOL0     H28083   6.777   8.834   6.043 -1.9406  0.8237  0.3818
  213MOL0     H28084   6.537   8.846   6.062 -1.3277 -0.1398  1.8961
  213MOL0     H28085   6.541   8.733   6.198  0.3565 -0.7471  0.0954
  213MOL0     H28086   6.644   8.561   6.064 -2.4705  0.1709  4.4752
  213MOL0     H28087   6.673   8.669   5.924  0.9754 -1.4391 -0.3090
  213MOL0     H28088   6.393   8.589   6.020 -0.7852 -0.1238 -0.9571
  213MOL0     H28089   6.432   8.719   5.906 -1.1342 -0.7947 -1.0595
  213MOL0     H28090   6.490   8.431   5.869 -1.2646  0.2245 -0.8311
  213MOL0     H28091   6.563   8.557   5.761 -1.5364 -1.1996 -2.2002
  213MOL0     H28092   6.353   8.638   5.700  1.4965  0.1860 -2.1644
  213MOL0     H28093   6.265   8.519   5.795 -0.6821 -1.4228 -1.9492
  213MOL0     H28094   6.449   8.454   5.544 -0.5351 -3.4695 -1.5894
  213MOL0     H28095   6.374   8.332   5.632 -1.9732  0.2963  0.4478
  213MOL0     H28096   6.144   8.435   5.591 -0.1624  1.0873  0.1844
  213MOL0     H28097   6.235   8.364   5.455  0.1347 -1.6595  2.8057
  213MOL0     H28098   6.984   8.900   6.181  0.4409  1.1332 -3.1129
  213MOL0     H28099   7.153   9.066   6.244 -0.8147 -0.0698 -2.2692
  213MOL0     H28100   7.228   9.525   6.355 -0.8769  1.7202  0.9291
  213MOL0     H28101   7.411   9.678   6.398  2.0332 -1.4832 -1.3590
  213MOL0     H28102   8.215   9.605   6.294 -0.8675 -0.3758  1.9941
  213MOL0     H28103   8.015   9.457   6.309  0.4870  0.7098  2.6623
  213MOL0     H28104   7.613   9.383   6.336  0.0943 -1.4098  0.9844
  213MOL0     H28105   7.424   9.197   6.348 -0.4923 -2.8462 -0.7109
  213MOL0     H28106   7.371   8.948   6.013 -0.3210 -1.7812 -1.4523
  213MOL0     H28107   7.258   8.875   6.125 -0.9747  1.3409  0.0241
  213MOL0     H28108   7.548   8.846   6.147  0.0527  0.2350  0.7769
  213MOL0     H28109   7.425   8.792   6.264  1.4753  2.6233  0.5216
  213MOL0     H28110   7.448   8.702   5.971 -3.0326  0.1155 -0.4837
  213MOL0     H28111   7.315   8.655   6.076 -0.6179  1.7238  1.3474
  213MOL0     H28112   7.576   8.559   6.165  0.2081  0.6710 -1.0243
  213MOL0     H28113   7.405   8.530   6.222 -0.2950  2.4844  0.4324
  213MOL0     H28114   7.453   8.259   5.909 -1.1352 -0.6507 -0.3959
  213MOL0     H28115   7.548   9.048   5.972 -2.8927  2.0848 -0.5358
  213MOL0     H28116   7.720   9.227   5.955  1.5783 -2.5631  1.6143
  214MOL0     O28117   1.439   1.697   3.256  0.1347 -0.1017  0.0494
  214MOL0     C28118   1.418   1.768   3.154 -0.1560 -0.5581 -0.1994
  214MOL0     O28119   1.515   1.813   3.067 -0.5050 -0.0397  0.1032
  214MOL0     C28120   1.646   1.787   3.074 -1.4697 -0.6120 -0.2187
  214MOL0     C28121   1.699   1.663   3.126 -0.2909 -0.1022  1.0107
  214MOL0     C28122   1.834   1.626   3.104 -0.9415 -0.2999  0.3342
  214MOL0     C28123   1.926   1.715   3.035  0.9959  0.1691 -0.5823
  214MOL0     O28124   2.059   1.701   3.041 -0.4690 -0.6305  0.0947
  214MOL0     C28125   2.112   1.608   3.149  0.2869  0.5342 -0.0591
  214MOL0     C28126   2.267   1.626   3.150  0.9716 -0.1130 -0.1664
  214MOL0     C28127   2.308   1.757   3.224 -0.4980  0.6210 -0.2733
  214MOL0     C28128   2.458   1.779   3.229  0.4078 -0.4975  0.3260
  214MOL0     C28129   2.524   1.688   3.332  0.7376  0.1781 -0.6416
  214MOL0     C28130   2.657   1.741   3.380 -0.0349 -0.9435  0.2017
  214MOL0     C28131   2.722   1.655   3.492  0.0418 -1.1502  0.4206
  214MOL0     C28132   2.822   1.556   3.421  0.4017 -0.9820 -0.3872
  214MOL0     N28133   2.955   1.608   3.398 -0.6040 -1.0026 -0.0247
  214MOL0     C28134   3.074   1.549   3.346 -0.8299 -0.6367  0.1210
  214MOL0     C28135   3.174   1.643   3.331  0.4804 -0.1314 -1.1092
  214MOL0     C28136   3.313   1.660   3.264  1.0632 -0.9591 -0.3430
  214MOL0     C28137   3.333   1.571   3.142  0.3430  0.0693  0.1309
  214MOL0     C28138   3.222   1.583   3.029 -1.0003 -0.5685 -0.4403
  214MOL0     C28139   3.202   1.725   2.983 -0.1526 -0.1031  0.4530
  214MOL0     O28140   3.107   1.735   2.877  0.7386  0.0310 -0.2067
  214MOL0     C28141   2.982   1.671   2.882  0.5986 -0.9660  0.2527
  214MOL0     C28142   2.917   1.620   2.766  0.7439 -0.1928  0.3596
  214MOL0     C28143   2.793   1.554   2.775  1.1323 -0.3711  0.6080
  214MOL0     C28144   2.717   1.572   2.892  0.2820 -0.1391 -0.5708
  214MOL0     C28145   2.577   1.527   2.902 -0.1921  0.6715 -0.2688
  214MOL0     O28146   2.503   1.534   2.784  0.0434 -0.0500  0.3101
  214MOL0     C28147   2.376   1.480   2.789 -1.3488  0.2916 -0.0822
  214MOL0     C28148   2.272   1.550   2.761  0.0963  0.0856 -0.1925
  214MOL0     C28149   2.145   1.495   2.775 -0.3161  0.7631  0.4078
  214MOL0     C28150   2.125   1.365   2.822 -0.3167 -0.4426 -0.8885
  214MOL0     O28151   1.991   1.325   2.838 -1.2197  0.3156  0.9417
  214MOL0     C28152   1.957   1.202   2.910  0.1773 -0.3604  0.4960
  214MOL0     C28153   1.811   1.159   2.871 -0.5745 -0.3551  0.4084
  214MOL0     C28154   1.710   1.251   2.935  0.0402  0.2018  0.5900
  214MOL0     C28155   1.560   1.209   2.930  0.2233 -0.6742 -0.0630
  214MOL0     C28156   1.450   1.311   2.982  0.0064 -0.2270  0.5600
  214MOL0     C28157   1.307   1.254   2.960  0.3965 -0.5975  0.1673
  214MOL0     C28158   1.195   1.363   2.984  0.2546 -1.0156  0.2823
  214MOL0     C28159   1.054   1.316   2.948 -0.5527  0.2728  0.1138
  214MOL0    Cl28160   0.923   1.425   3.008 -0.1660  0.0990 -0.3565
  214MOL0     C28161   2.242   1.291   2.841  0.8587  0.4059 -0.2140
  214MOL0     C28162   2.370   1.343   2.827 -0.0693  0.2758 -0.2189
  214MOL0     O28163   2.531   1.502   3.011  0.2367 -0.5333 -0.2236
  214MOL0     C28164   2.774   1.626   3.010 -1.0318 -0.2100  0.5082
  214MOL0     C28165   2.905   1.681   3.001 -0.4954 -0.1317 -0.7433
  214MOL0     N28166   3.111   1.757   3.378 -0.5327 -0.2601 -0.2258
  214MOL0     N28167   2.993   1.742   3.419  0.7028  0.1689 -0.3695
  214MOL0     C28168   1.872   1.836   2.992 -0.0723  0.5141  0.2565
  214MOL0     C28169   1.736   1.869   3.012 -0.2393 -0.2517  0.2359
  214MOL0     C28170   1.277   1.820   3.143  0.1734 -0.0280 -0.1977
  214MOL0     C28171   1.253   1.948   3.082 -0.0597  0.1934 -1.2083
  214MOL0     C28172   1.124   1.982   3.069  0.7896 -0.6648 -0.1668
  214MOL0     C28173   1.014   1.906   3.110  0.0144 -0.3994 -0.1714
  214MOL0     O28174   0.884   1.936   3.087  0.1483  0.0679  0.2822
  214MOL0     C28175   0.843   2.026   2.990  0.1538  0.0522  0.2555
  214MOL0     C28176   0.823   2.162   3.066 -0.0246 -0.0048  0.7312
  214MOL0     C28177   0.770   2.268   2.969  0.8555  0.3586 -0.5394
  214MOL0     C28178   0.615   2.280   2.987 -0.5741 -0.2336 -0.7734
  214MOL0     C28179   0.566   2.355   2.874 -0.1028  0.1503  0.2830
  214MOL0     C28180   0.536   2.422   2.780 -0.8637  1.0633  0.0663
  214MOL0     C28181   1.036   1.779   3.160  0.0007  0.2289  0.8216
  214MOL0     C28182   1.165   1.737   3.176 -0.6465  0.2671  0.4949
  214MOL0     H28183   1.636   1.589   3.174 -1.0629  0.4554  0.8878
  214MOL0     H28184   1.879   1.531   3.129 -1.0962 -0.7351 -1.0241
  214MOL0     H28185   2.084   1.502   3.138  1.0065  0.0484  2.1526
  214MOL0     H28186   2.070   1.636   3.246 -0.1929 -0.5897  0.0759
  214MOL0     H28187   2.307   1.613   3.049  1.4354 -0.0049  0.0019
  214MOL0     H28188   2.311   1.545   3.208 -1.0613  0.6923  2.6898
  214MOL0     H28189   2.276   1.741   3.328  3.0415  1.5296  1.0970
  214MOL0     H28190   2.259   1.844   3.180 -3.5155 -0.8257 -0.0350
  214MOL0     H28191   2.500   1.760   3.130 -1.2986  0.7798 -0.6997
  214MOL0     H28192   2.467   1.883   3.260 -1.3699  0.3623 -1.8175
  214MOL0     H28193   2.548   1.584   3.308  1.3071 -0.4534  2.3712
  214MOL0     H28194   2.455   1.674   3.415  1.6475 -0.5871  0.0037
  214MOL0     H28195   2.647   1.846   3.410  1.1506 -0.6947 -0.1899
  214MOL0     H28196   2.727   1.754   3.296  0.4780 -0.6126  0.6733
  214MOL0     H28197   2.772   1.720   3.564  1.3076 -0.8133 -0.7273
  214MOL0     H28198   2.661   1.590   3.556  0.5593 -1.5129  0.5537
  214MOL0     H28199   2.783   1.523   3.325  1.2199 -0.8603 -0.7723
  214MOL0     H28200   2.831   1.465   3.481  0.3350  0.0295  1.2231
  214MOL0     H28201   3.076   1.450   3.301 -2.0040  0.1437 -1.7755
  214MOL0     H28202   3.389   1.638   3.340 -0.4867 -0.8703  1.3030
  214MOL0     H28203   3.327   1.763   3.228 -0.3350 -0.6673 -0.1173
  214MOL0     H28204   3.340   1.467   3.177  0.6173 -0.4844 -1.4548
  214MOL0     H28205   3.427   1.596   3.092  0.3880 -2.8113 -1.4610
  214MOL0     H28206   3.252   1.520   2.945  0.4115  0.4940 -0.7788
  214MOL0     H28207   3.131   1.537   3.066  0.0809 -0.1562  3.1274
  214MOL0     H28208   3.290   1.767   2.933 -0.5722 -1.4736 -1.5738
  214MOL0     H28209   3.167   1.782   3.069 -1.2292 -1.8869  1.2524
  214MOL0     H28210   2.960   1.634   2.667 -0.6648 -1.5036 -0.4925
  214MOL0     H28211   2.753   1.500   2.690 -3.3524 -1.6093  3.1567
  214MOL0     H28212   2.291   1.654   2.735 -1.3206  0.8069  1.4473
  214MOL0     H28213   2.061   1.556   2.743  0.7167  1.0010 -2.0638
  214MOL0     H28214   1.977   1.206   3.018  0.9222 -1.0941  0.3959
  214MOL0     H28215   2.029   1.135   2.861  0.7019  1.6627 -1.7172
  214MOL0     H28216   1.785   1.059   2.909  0.9237 -0.9076  0.0644
  214MOL0     H28217   1.796   1.157   2.762 -2.2255 -1.9505  0.6189
  214MOL0     H28218   1.716   1.349   2.886  0.3583  0.0199  0.2695
  214MOL0     H28219   1.743   1.270   3.038 -0.4017 -1.8139  1.1359
  214MOL0     H28220   1.531   1.187   2.827 -0.3521  0.8062 -0.2570
  214MOL0     H28221   1.556   1.120   2.993  2.7438 -3.0003 -2.9049
  214MOL0     H28222   1.461   1.406   2.930 -1.9299  0.2319  0.9306
  214MOL0     H28223   1.474   1.349   3.082  1.6864 -0.6131  0.3432
  214MOL0     H28224   1.293   1.169   3.028  2.4475 -0.0781  1.3178
  214MOL0     H28225   1.296   1.212   2.860 -4.1464  0.0211  0.2261
  214MOL0     H28226   1.204   1.400   3.086 -2.4079 -0.9361  0.5366
  214MOL0     H28227   1.200   1.452   2.921  0.2146 -1.3696 -0.2248
  214MOL0     H28228   1.046   1.210   2.974  0.8399  0.0281 -0.3616
  214MOL0     H28229   1.042   1.319   2.840 -3.3262 -1.6382  0.2623
  214MOL0     H28230   2.228   1.186   2.866  0.4231  0.0971 -1.6536
  214MOL0     H28231   2.458   1.286   2.856 -0.5364  0.2119  1.1842
  214MOL0     H28232   2.741   1.640   3.113  2.3349  1.0311  1.5792
  214MOL0     H28233   2.941   1.738   3.086 -0.5941 -2.7904  1.2289
  214MOL0     H28234   1.939   1.903   2.939  2.9497 -1.5228  1.1764
  214MOL0     H28235   1.704   1.962   2.966 -1.0593 -1.1397 -1.0473
  214MOL0     H28236   1.328   2.023   3.060 -0.3323  0.7537 -0.3004
  214MOL0     H28237   1.107   2.083   3.036  0.4316 -0.2394  1.2386
  214MOL0     H28238   0.749   1.993   2.945 -0.3146  1.3226  0.2614
  214MOL0     H28239   0.924   2.038   2.918  0.3480 -0.5459  0.3673
  214MOL0     H28240   0.756   2.142   3.150 -0.9496  2.2165  0.5884
  214MOL0     H28241   0.926   2.190   3.089  0.0563 -1.3219  2.1228
  214MOL0     H28242   0.794   2.239   2.866  2.5584  2.3292 -0.7555
  214MOL0     H28243   0.817   2.367   2.976  2.9150 -0.4060 -2.4346
  214MOL0     H28244   0.567   2.181   2.993 -1.4279  0.2063 -0.1066
  214MOL0     H28245   0.592   2.332   3.080  1.1332 -0.7788 -0.0093
  214MOL0     H28246   0.496   2.482   2.701 -1.5803  3.2815  1.9945
  214MOL0     H28247   0.947   1.725   3.191 -1.4147  1.1854 -1.3860
  214MOL0     H28248   1.185   1.635   3.207 -1.4363 -1.0116 -2.8394
  215MOL0     O28249   9.628   4.582   7.787 -0.6798 -0.8266 -0.4157
  215MOL0     C28250   9.645   4.697   7.736 -0.1559 -1.0969  0.3090
  215MOL0     O28251   9.552   4.766   7.663 -0.1231 -0.0598 -1.1225
  215MOL0     C28252   9.423   4.736   7.686  0.5339 -0.3646  0.2086
  215MOL0     C28253   9.348   4.658   7.602  1.0013  0.2128 -0.0021
  215MOL0     C28254   9.211   4.620   7.632  0.3672 -1.0774  0.2384
  215MOL0     C28255   9.145   4.673   7.747  0.1162 -0.1221 -0.5085
  215MOL0     O28256   9.017   4.634   7.771 -0.2582 -0.0750  0.3613
  215MOL0     C28257   8.973   4.643   7.903 -0.7214 -0.4156  0.2678
  215MOL0     C28258   8.818   4.603   7.907  0.6153 -0.1656  0.2630
  215MOL0     C28259   8.757   4.712   7.820  0.6891 -0.0513 -0.7124
  215MOL0     C28260   8.597   4.718   7.828 -0.1105 -0.1191  0.6354
  215MOL0     C28261   8.528   4.842   7.765 -0.3448  0.9070  0.0788
  215MOL0     C28262   8.382   4.877   7.799 -0.8006  0.1785 -0.2070
  215MOL0     C28263   8.288   4.785   7.725 -0.6814  0.0000  0.0280
  215MOL0     C28264   8.144   4.805   7.769  0.9812 -1.0600  0.0387
  215MOL0     N28265   8.049   4.748   7.669 -0.3336  1.1112 -0.0708
  215MOL0     C28266   7.967   4.826   7.591 -0.2982 -0.8465 -0.1576
  215MOL0     C28267   7.903   4.735   7.513 -0.1509 -0.1401  0.0126
  215MOL0     C28268   7.801   4.774   7.412  0.5121 -0.6952  0.3055
  215MOL0     C28269   7.666   4.787   7.479 -0.1521 -0.5220  0.3450
  215MOL0     C28270   7.595   4.664   7.527  0.1875  0.2197 -0.3648
  215MOL0     C28271   7.443   4.685   7.561  0.0626  0.1528 -0.3113
  215MOL0     O28272   7.378   4.712   7.440 -0.2048 -0.1589 -0.6667
  215MOL0     C28273   7.236   4.704   7.456 -0.6129 -0.3559  1.2402
  215MOL0     C28274   7.152   4.723   7.567  0.6420  0.2263  0.0366
  215MOL0     C28275   7.016   4.745   7.549 -0.0821 -0.0689 -0.0743
  215MOL0     C28276   6.961   4.775   7.422 -0.7259  0.4247 -0.6243
  215MOL0     C28277   6.831   4.837   7.403 -0.1216 -0.0237 -1.0222
  215MOL0     O28278   6.772   4.886   7.519 -0.0271  0.4749 -0.7162
  215MOL0     C28279   6.657   4.954   7.504 -0.6097 -0.0131 -0.4727
  215MOL0     C28280   6.540   4.892   7.516  0.5472 -0.1134 -0.0869
  215MOL0     C28281   6.423   4.971   7.494  0.0661  0.7068 -0.6875
  215MOL0     C28282   6.422   5.106   7.498 -0.2814  0.4382 -0.3578
  215MOL0     O28283   6.302   5.162   7.497 -0.4293 -0.6446 -0.2258
  215MOL0     C28284   6.291   5.310   7.515  0.5831  0.5077  0.1705
  215MOL0     C28285   6.156   5.348   7.581 -0.5460  0.9504  0.0073
  215MOL0     C28286   6.039   5.359   7.485 -0.6242 -0.1267  0.2290
  215MOL0     C28287   5.903   5.345   7.552 -0.2124 -0.1384 -0.3389
  215MOL0     C28288   5.787   5.356   7.458  1.1194  0.2529 -0.6592
  215MOL0     C28289   5.644   5.344   7.519  0.7274 -0.6126 -0.7533
  215MOL0     C28290   5.545   5.450   7.461 -0.4188  1.1394 -0.9134
  215MOL0     C28291   5.405   5.433   7.534  0.2119 -0.0121  0.0201
  215MOL0    Cl28292   5.329   5.261   7.501 -0.0357 -0.6737 -0.7023
  215MOL0     C28293   6.540   5.172   7.477 -0.7408 -0.4450  0.8049
  215MOL0     C28294   6.663   5.097   7.493 -0.0170 -0.4449 -0.2512
  215MOL0     O28295   6.784   4.840   7.291  0.3079 -0.7374  0.4021
  215MOL0     C28296   7.048   4.748   7.313 -0.3428 -0.3734 -0.2316
  215MOL0     C28297   7.181   4.705   7.326 -0.0976 -0.0488 -0.4939
  215MOL0     N28298   7.941   4.609   7.546  0.2109  0.1758 -0.0264
  215MOL0     N28299   8.024   4.613   7.641 -0.3003  0.0626 -0.4802
  215MOL0     C28300   9.225   4.745   7.831  0.1690  0.3965  0.9532
  215MOL0     C28301   9.359   4.780   7.801 -0.1961  0.0056 -0.0947
  215MOL0     C28302   9.783   4.753   7.755  0.9707  0.6258 -0.2089
  215MOL0     C28303   9.818   4.871   7.685  0.4593 -0.4520  0.9477
  215MOL0     C28304   9.950   4.926   7.697 -0.6127  0.1475 -0.5450
  215MOL0     C28305  10.046   4.862   7.784  0.3805 -0.5165 -0.5278
  215MOL0     O28306  10.171   4.915   7.791  0.6064  0.1879 -0.1264
  215MOL0     C28307  10.265   4.847   7.864 -0.3428 -0.2818 -0.1221
  215MOL0     C28308  10.393   4.940   7.845  0.2745  0.0713 -0.5048
  215MOL0     C28309  10.507   4.919   7.955  0.8871  0.0041  0.6252
  215MOL0     C28310  10.616   5.020   7.948 -0.6281 -0.1497 -0.1955
  215MOL0     C28311  10.585   5.165   7.963  0.1564 -0.7765  0.5149
  215MOL0     C28312  10.557   5.283   7.991 -0.0358  0.2332 -0.6612
  215MOL0     C28313   9.993   4.753   7.863 -0.1436 -0.3055  0.8981
  215MOL0     C28314   9.867   4.701   7.846 -0.2562 -0.5943 -0.6651
  215MOL0     H28315   9.397   4.637   7.508 -1.2116  0.8439 -1.3829
  215MOL0     H28316   9.158   4.560   7.559 -1.3663  1.5059 -0.7492
  215MOL0     H28317   8.984   4.745   7.943 -0.7511 -0.5832  0.7095
  215MOL0     H28318   9.032   4.573   7.963 -1.6783  1.0251  3.1262
  215MOL0     H28319   8.779   4.620   8.007 -2.0181 -2.2037 -0.3278
  215MOL0     H28320   8.813   4.499   7.875  0.9920 -0.0300 -0.2619
  215MOL0     H28321   8.788   4.709   7.715  0.3861  1.7121 -0.8818
  215MOL0     H28322   8.788   4.808   7.862  0.6585 -0.6304  0.6864
  215MOL0     H28323   8.563   4.627   7.778 -1.2006  0.7303 -0.2387
  215MOL0     H28324   8.561   4.723   7.931  0.9591  4.1400  0.9674
  215MOL0     H28325   8.536   4.839   7.656 -3.4783  1.3388 -0.2376
  215MOL0     H28326   8.576   4.932   7.804 -2.6170  1.1864  2.4366
  215MOL0     H28327   8.370   4.979   7.761  1.8420  0.7072  0.1942
  215MOL0     H28328   8.361   4.872   7.906  1.4193  0.7310  0.3147
  215MOL0     H28329   8.303   4.804   7.618  1.2537 -1.2617  0.0090
  215MOL0     H28330   8.316   4.683   7.755  2.1870  1.4471  2.8765
  215MOL0     H28331   8.123   4.912   7.768 -0.3681 -1.3009  0.9761
  215MOL0     H28332   8.136   4.764   7.870  3.8453  2.1567  1.7484
  215MOL0     H28333   7.951   4.933   7.588 -2.5297 -1.1483 -2.4982
  215MOL0     H28334   7.779   4.707   7.329 -1.7423  1.2057 -0.7451
  215MOL0     H28335   7.817   4.874   7.370 -3.8103  1.2514  2.6054
  215MOL0     H28336   7.605   4.833   7.401 -0.0474 -0.8515  0.0659
  215MOL0     H28337   7.662   4.849   7.569  0.6100  0.9559 -0.5996
  215MOL0     H28338   7.602   4.583   7.454  0.1740 -1.3673  1.3212
  215MOL0     H28339   7.645   4.619   7.614 -1.7303 -1.3240  0.0170
  215MOL0     H28340   7.438   4.763   7.638 -0.4210 -0.3461  0.1659
  215MOL0     H28341   7.403   4.597   7.612 -0.6009  0.2116 -0.7199
  215MOL0     H28342   7.191   4.727   7.669  0.6798  0.5004  0.0121
  215MOL0     H28343   6.955   4.770   7.635  0.5748 -1.7033  0.9205
  215MOL0     H28344   6.536   4.788   7.544  1.7980 -0.6993 -1.8893
  215MOL0     H28345   6.328   4.919   7.498  1.5895 -2.1973  0.5336
  215MOL0     H28346   6.313   5.361   7.421 -0.7369 -1.3987 -1.2646
  215MOL0     H28347   6.370   5.349   7.579 -1.8590  0.5533  3.4592
  215MOL0     H28348   6.170   5.449   7.620 -2.0056  1.2134 -0.0936
  215MOL0     H28349   6.126   5.294   7.671  0.2960 -0.5156 -0.5694
  215MOL0     H28350   6.040   5.283   7.407 -0.7936  0.3699 -0.2683
  215MOL0     H28351   6.064   5.448   7.425 -0.3279 -1.1330 -1.1979
  215MOL0     H28352   5.894   5.245   7.596  1.1117 -0.1658 -0.0932
  215MOL0     H28353   5.892   5.421   7.631  1.0684  0.8838 -1.1011
  215MOL0     H28354   5.801   5.280   7.380 -0.3134 -0.8105  0.0653
  215MOL0     H28355   5.796   5.448   7.400  0.4950  0.2822 -0.7210
  215MOL0     H28356   5.652   5.366   7.626 -0.7541 -0.5263 -0.6312
  215MOL0     H28357   5.615   5.241   7.498  4.7891 -1.7721 -1.3664
  215MOL0     H28358   5.582   5.552   7.469 -1.0943  1.2326  2.8609
  215MOL0     H28359   5.542   5.439   7.352  1.7897 -1.0948 -0.8495
  215MOL0     H28360   5.341   5.516   7.505  1.9100  1.8851  1.4492
  215MOL0     H28361   5.418   5.440   7.643 -3.7769  0.6686  0.5947
  215MOL0     H28362   6.549   5.278   7.455 -1.8305 -0.2295  1.3532
  215MOL0     H28363   6.766   5.131   7.506  0.5410 -2.3195  0.5739
  215MOL0     H28364   7.021   4.755   7.208  0.8884 -1.4116 -0.6481
  215MOL0     H28365   7.241   4.697   7.236  1.2577  3.1629 -0.0359
  215MOL0     H28366   9.202   4.778   7.932 -0.4845  3.8031 -0.2079
  215MOL0     H28367   9.404   4.840   7.880 -4.6545 -0.0632  2.8802
  215MOL0     H28368   9.744   4.915   7.619  1.1220 -2.4272 -1.2393
  215MOL0     H28369   9.987   5.021   7.660 -0.8759  1.2094  1.7294
  215MOL0     H28370  10.293   4.748   7.824 -0.6528  0.9531 -3.8004
  215MOL0     H28371  10.240   4.838   7.970  2.3227 -1.2645  0.5109
  215MOL0     H28372  10.426   4.916   7.743 -4.0134 -1.7072 -1.7070
  215MOL0     H28373  10.368   5.045   7.859 -0.9347 -0.2121 -0.4382
  215MOL0     H28374  10.543   4.816   7.945 -0.8080 -0.8257  2.3122
  215MOL0     H28375  10.458   4.927   8.053  2.3407 -1.1069  1.4780
  215MOL0     H28376  10.674   5.004   8.039 -4.0931  1.2155  2.4999
  215MOL0     H28377  10.668   5.009   7.852 -0.4238  0.7357 -0.1920
  215MOL0     H28378  10.518   5.382   8.002 -2.2945 -0.4934 -1.6313
  215MOL0     H28379  10.059   4.725   7.944 -1.2340  0.7173  2.1630
  215MOL0     H28380   9.841   4.615   7.907  0.6287 -1.3337 -1.2960
  216MOL0     O28381   2.616  11.085   4.013 -0.0942 -0.5647  0.2117
  216MOL0     C28382   2.697  11.032   4.087  0.7840  0.4383 -0.3604
  216MOL0     O28383   2.670  10.964   4.197  0.5423  0.1661 -0.0037
  216MOL0     C28384   2.542  10.924   4.228  0.5532  0.5155 -0.3121
  216MOL0     C28385   2.462  10.856   4.142  0.0131 -0.2551 -0.0928
  216MOL0     C28386   2.329  10.825   4.168 -0.3844  0.6542 -0.4282
  216MOL0     C28387   2.267  10.857   4.289  0.8674  1.4414 -0.0598
  216MOL0     O28388   2.130  10.822   4.295 -0.5936  0.0240 -0.3961
  216MOL0     C28389   2.066  10.792   4.420 -0.0530 -0.4588  0.4275
  216MOL0     C28390   1.914  10.796   4.402  0.6153  0.4236  0.1328
  216MOL0     C28391   1.836  10.747   4.529 -0.2519  1.4462  0.9682
  216MOL0     C28392   1.879  10.804   4.654  0.2926 -0.5650 -0.1854
  216MOL0     C28393   1.842  10.962   4.665  0.1043 -0.3365 -0.3874
  216MOL0     C28394   1.690  10.982   4.657 -0.5835 -0.3081  0.3580
  216MOL0     C28395   1.652  11.127   4.698  0.4795 -0.1378  0.5879
  216MOL0     C28396   1.509  11.138   4.723  0.4586  0.1420 -0.8935
  216MOL0     N28397   1.469  11.279   4.703  0.9386  0.6162 -0.2953
  216MOL0     C28398   1.469  11.340   4.579  0.1763 -0.7593  0.3764
  216MOL0     C28399   1.422  11.470   4.611 -0.7428  0.5966 -0.0218
  216MOL0     C28400   1.401  11.576   4.502 -0.4267  0.4519  0.0619
  216MOL0     C28401   1.360  11.710   4.562 -0.3639  0.5763  0.2522
  216MOL0     C28402   1.215  11.703   4.616 -0.5771  0.3488 -0.6501
  216MOL0     C28403   1.151  11.841   4.636 -0.1752 -0.7667 -0.8742
  216MOL0     O28404   1.022  11.832   4.678 -0.7520 -0.2371  0.6331
  216MOL0     C28405   0.937  11.941   4.660  0.2321 -0.1210 -0.1020
  216MOL0     C28406   0.986  12.063   4.616 -0.5216 -0.4322 -0.5719
  216MOL0     C28407   0.886  12.168   4.601 -0.9284 -0.1204  0.8437
  216MOL0     C28408   0.760  12.157   4.654  0.9957  0.0262  0.4737
  216MOL0     C28409   0.667  12.273   4.661  1.2880  0.4197  0.2233
  216MOL0     O28410   0.546  12.248   4.702  0.1332  0.4901 -0.5441
  216MOL0     C28411   0.462  12.358   4.730 -0.8317  0.2737 -0.6135
  216MOL0     C28412   0.402  12.365   4.860  0.5784 -0.0863  0.3516
  216MOL0     C28413   0.321  12.475   4.890 -0.1551  0.7478  0.1208
  216MOL0     C28414   0.271  12.558   4.781 -0.3384 -0.2485  0.0964
  216MOL0     O28415   0.190  12.659   4.790  0.3781  0.4918 -1.0754
  216MOL0     C28416   0.081  12.660   4.895  0.8896  0.1914  0.4369
  216MOL0     C28417  -0.031  12.760   4.855 -0.1034 -0.2701 -0.4317
  216MOL0     C28418  -0.149  12.776   4.949  1.6620  0.1548 -0.9927
  216MOL0     C28419  -0.265  12.861   4.884 -0.0412 -0.3790 -1.1093
  216MOL0     C28420  -0.344  12.778   4.785  0.3086  0.3366  0.8097
  216MOL0     C28421  -0.474  12.849   4.738 -0.6951  0.7907  0.2522
  216MOL0     C28422  -0.561  12.784   4.629  0.2697 -0.0833 -0.3831
  216MOL0     C28423  -0.569  12.630   4.647  0.6529 -0.2123  1.0365
  216MOL0    Cl28424  -0.703  12.554   4.530  0.0240 -0.0367  0.1460
  216MOL0     C28425   0.328  12.535   4.652 -0.1127 -0.0167 -0.1029
  216MOL0     C28426   0.422  12.436   4.627 -0.7686 -0.8581 -0.3244
  216MOL0     O28427   0.702  12.387   4.631 -0.8386  0.5064  0.1832
  216MOL0     C28428   0.714  12.037   4.696 -0.2936 -1.1815  0.1426
  216MOL0     C28429   0.799  11.926   4.703  0.2728 -0.2512  0.0856
  216MOL0     N28430   1.405  11.471   4.747 -0.5134  0.8655  0.0727
  216MOL0     N28431   1.427  11.361   4.801  0.4235  0.4202  0.6236
  216MOL0     C28432   2.344  10.925   4.383  0.1353  0.1677 -0.3065
  216MOL0     C28433   2.480  10.958   4.355  0.0670  0.0556  1.0141
  216MOL0     C28434   2.831  11.018   4.032  0.1572  0.1535 -0.1789
  216MOL0     C28435   2.863  11.085   3.914 -0.6836 -0.1594 -0.4989
  216MOL0     C28436   2.982  11.049   3.851  0.3098  0.2351 -0.3385
  216MOL0     C28437   3.077  10.952   3.907  0.6937 -0.4801  0.7627
  216MOL0     O28438   3.200  10.913   3.850 -0.2104 -0.3406  0.2321
  216MOL0     C28439   3.233  10.963   3.721 -0.2113  0.7603 -0.0482
  216MOL0     C28440   3.323  10.858   3.658 -0.4897 -0.2196 -0.3534
  216MOL0     C28441   3.430  10.910   3.561 -0.0300  0.6419 -0.3811
  216MOL0     C28442   3.484  10.801   3.475 -0.1873 -0.7434  0.0370
  216MOL0     C28443   3.594  10.863   3.399  0.3412 -0.0316  0.9956
  216MOL0     C28444   3.674  10.929   3.343  0.6098  0.1604 -0.1070
  216MOL0     C28445   3.039  10.888   4.027  0.0074  0.3809 -0.0556
  216MOL0     C28446   2.912  10.915   4.083 -0.4324  0.0782 -0.3560
  216MOL0     H28447   2.503  10.827   4.045 -1.0250 -0.4653 -0.4808
  216MOL0     H28448   2.263  10.775   4.097 -1.0111 -1.2021  1.3654
  216MOL0     H28449   2.101  10.870   4.488 -0.3188 -0.7198  0.8721
  216MOL0     H28450   2.107  10.698   4.457  3.0365 -0.7925 -3.2549
  216MOL0     H28451   1.887  10.736   4.315 -1.3596 -1.9172  2.1705
  216MOL0     H28452   1.885  10.900   4.384 -1.8176 -0.2063 -0.0538
  216MOL0     H28453   1.858  10.639   4.531 -0.5135  1.3938  1.0692
  216MOL0     H28454   1.727  10.756   4.522 -0.2059  1.8267  0.7464
  216MOL0     H28455   1.832  10.742   4.731 -2.2318  0.0896 -1.1373
  216MOL0     H28456   1.988  10.798   4.647  0.3366  1.2888 -2.7568
  216MOL0     H28457   1.896  11.031   4.599 -1.0784  0.6130 -0.4075
  216MOL0     H28458   1.868  10.996   4.765  0.1160  1.7689 -1.0535
  216MOL0     H28459   1.635  10.911   4.720 -0.8386  0.1700  0.6834
  216MOL0     H28460   1.672  10.957   4.552 -0.7970  0.2542  0.2558
  216MOL0     H28461   1.712  11.165   4.781 -1.7708  0.4009  2.0655
  216MOL0     H28462   1.669  11.196   4.615 -2.7919 -1.0809 -1.0362
  216MOL0     H28463   1.487  11.100   4.823 -3.4734 -2.3924 -2.4726
  216MOL0     H28464   1.451  11.083   4.648  1.3887  0.5842 -1.9671
  216MOL0     H28465   1.497  11.316   4.477 -2.1703 -0.2362 -0.4659
  216MOL0     H28466   1.338  11.557   4.415 -2.1994  4.3071  0.2900
  216MOL0     H28467   1.503  11.596   4.471  0.3357 -0.3626  1.8890
  216MOL0     H28468   1.366  11.798   4.496  2.3371  0.9765  0.8801
  216MOL0     H28469   1.435  11.732   4.638 -0.3734  1.8875 -0.0819
  216MOL0     H28470   1.147  11.640   4.558 -1.1738  0.4176 -0.0377
  216MOL0     H28471   1.213  11.652   4.713 -0.1721  0.3696 -0.6307
  216MOL0     H28472   1.163  11.900   4.545 -2.4352  3.6265  1.3443
  216MOL0     H28473   1.204  11.889   4.719 -0.3562  1.1224 -1.8091
  216MOL0     H28474   1.088  12.086   4.588 -0.9090  0.4235 -1.3320
  216MOL0     H28475   0.905  12.266   4.557  3.3246 -1.6532 -1.2895
  216MOL0     H28476   0.418  12.283   4.929 -2.6730  1.7479  3.6656
  216MOL0     H28477   0.288  12.488   4.992  1.1457  0.2852  0.6230
  216MOL0     H28478   0.104  12.688   4.998  0.0015  0.0376  0.6874
  216MOL0     H28479   0.021  12.569   4.897 -0.0875  0.8328  0.9245
  216MOL0     H28480  -0.069  12.732   4.757  1.0833  0.0341 -0.9959
  216MOL0     H28481   0.024  12.855   4.852  3.8406 -2.1557  2.3949
  216MOL0     H28482  -0.115  12.826   5.040  0.9001  0.1103 -0.6730
  216MOL0     H28483  -0.186  12.675   4.971  0.6629  1.1153  2.2653
  216MOL0     H28484  -0.335  12.889   4.964  2.3876 -0.6412  1.2399
  216MOL0     H28485  -0.223  12.950   4.836 -1.2052  0.5716 -0.4318
  216MOL0     H28486  -0.372  12.676   4.814 -2.4958  0.9591  0.6077
  216MOL0     H28487  -0.278  12.764   4.699 -3.0036 -2.5419 -1.5472
  216MOL0     H28488  -0.446  12.949   4.705 -1.3426  0.4956 -1.2949
  216MOL0     H28489  -0.522  12.858   4.836  0.8768 -1.6201  1.3450
  216MOL0     H28490  -0.659  12.832   4.643  0.3609 -0.3299  1.2712
  216MOL0     H28491  -0.524  12.810   4.530  0.6673 -0.3088 -0.2922
  216MOL0     H28492  -0.603  12.600   4.746 -2.1212 -1.6317 -0.2378
  216MOL0     H28493  -0.472  12.583   4.633  0.5570  0.0416 -0.6967
  216MOL0     H28494   0.306  12.615   4.581  1.9951  1.5020  0.8494
  216MOL0     H28495   0.464  12.444   4.528 -3.1802  2.0370 -1.2906
  216MOL0     H28496   0.617  12.033   4.745  0.7136 -1.3069  2.2506
  216MOL0     H28497   0.752  11.831   4.728 -0.5956  0.1846  0.1623
  216MOL0     H28498   2.302  10.946   4.480  3.4345  1.3798  1.0000
  216MOL0     H28499   2.545  11.011   4.424 -0.7122  1.6890  0.5639
  216MOL0     H28500   2.804  11.168   3.878  0.4670 -0.0459 -2.2574
  216MOL0     H28501   2.996  11.090   3.751  0.3529 -4.5697 -2.6233
  216MOL0     H28502   3.296  11.050   3.741  0.2998  0.4165 -0.1246
  216MOL0     H28503   3.152  10.988   3.652  0.7339 -0.0814 -1.5069
  216MOL0     H28504   3.378  10.808   3.739  0.9436  2.4381  0.4148
  216MOL0     H28505   3.256  10.790   3.604 -0.8309 -0.1006 -0.0836
  216MOL0     H28506   3.503  10.958   3.627 -1.8238  0.4061  1.9164
  216MOL0     H28507   3.399  10.984   3.487  1.4419 -0.8694 -2.6549
  216MOL0     H28508   3.534  10.730   3.541 -1.2972  0.0629  1.7957
  216MOL0     H28509   3.405  10.751   3.418  0.0517 -0.7561 -0.2900
  216MOL0     H28510   3.746  10.973   3.277 -0.0984 -0.8555 -1.6051
  216MOL0     H28511   3.089  10.805   4.077  0.6875  1.3549  0.9390
  216MOL0     H28512   2.887  10.865   4.177  0.9809  1.2620  0.7041
  217MOL0     O28513   8.077  10.219   4.552 -0.0559 -0.0493  0.6566
  217MOL0     C28514   8.077  10.341   4.534 -0.1443 -0.4522  0.0214
  217MOL0     O28515   7.963  10.422   4.506 -0.0390  0.1555  0.2783
  217MOL0     C28516   7.834  10.381   4.513 -0.0288  0.3229  0.3351
  217MOL0     C28517   7.794  10.278   4.597  0.1089  1.7060 -0.6267
  217MOL0     C28518   7.656  10.238   4.603  0.5412 -0.5354  0.3888
  217MOL0     C28519   7.561  10.310   4.529  0.7234  0.2422 -0.4495
  217MOL0     O28520   7.428  10.271   4.548 -0.0782  0.1363  0.8982
  217MOL0     C28521   7.314  10.349   4.502 -0.2918 -1.3976 -0.2764
  217MOL0     C28522   7.183  10.309   4.569  0.0433  0.5642  0.3997
  217MOL0     C28523   7.063  10.388   4.528 -0.1293  0.1537  0.1721
  217MOL0     C28524   6.944  10.359   4.616  0.5030  0.1002  0.8749
  217MOL0     C28525   6.820  10.419   4.553  1.2484  0.8559 -1.0382
  217MOL0     C28526   6.690  10.344   4.620 -0.4529  0.0833 -0.6439
  217MOL0     C28527   6.555  10.374   4.562  0.5637 -0.5276 -0.2166
  217MOL0     C28528   6.523  10.517   4.559  0.6249  0.4426 -0.6311
  217MOL0     N28529   6.376  10.549   4.534  0.2119 -0.1370 -0.1644
  217MOL0     C28530   6.282  10.574   4.636 -0.1803 -1.1474  0.0262
  217MOL0     C28531   6.182  10.635   4.563  0.5561  0.9618 -1.0034
  217MOL0     C28532   6.054  10.677   4.619  0.1482 -0.1683 -0.3520
  217MOL0     C28533   5.973  10.566   4.686 -1.2228  0.4534 -0.1720
  217MOL0     C28534   5.940  10.455   4.589  1.0180  0.5836  0.9480
  217MOL0     C28535   5.800  10.394   4.605 -0.6949 -0.0790  0.2243
  217MOL0     O28536   5.697  10.496   4.607  0.1066 -0.1503 -0.3320
  217MOL0     C28537   5.582  10.451   4.669  0.3336 -0.3558  0.6398
  217MOL0     C28538   5.508  10.567   4.707  0.8420 -0.3221  0.1155
  217MOL0     C28539   5.384  10.562   4.769  0.7573  0.1443  0.0772
  217MOL0     C28540   5.335  10.434   4.807  0.4934 -0.4766 -0.0423
  217MOL0     C28541   5.205  10.430   4.874 -0.0824 -0.6292 -0.1294
  217MOL0     O28542   5.167  10.312   4.925  0.4000 -0.0919  0.4546
  217MOL0     C28543   5.058  10.306   5.001  0.8027 -0.2705 -0.8364
  217MOL0     C28544   5.024  10.408   5.101  0.3385 -0.7868  0.0827
  217MOL0     C28545   4.915  10.395   5.182 -0.8244 -1.5118  0.0979
  217MOL0     C28546   4.835  10.284   5.170  0.5054 -0.3828  0.1395
  217MOL0     O28547   4.710  10.291   5.232 -0.2914  0.4549 -0.8780
  217MOL0     C28548   4.695  10.181   5.323 -0.2794 -0.6185  0.5549
  217MOL0     C28549   4.559  10.119   5.316  0.0289  1.0657  0.3092
  217MOL0     C28550   4.515  10.097   5.168 -0.2052 -0.4970  0.2869
  217MOL0     C28551   4.413   9.990   5.132 -0.7809 -0.0880  0.3342
  217MOL0     C28552   4.445   9.846   5.168  0.5877  0.2365 -0.5718
  217MOL0     C28553   4.361   9.749   5.091 -0.3207 -0.0665  0.1820
  217MOL0     C28554   4.374   9.607   5.138 -0.3551  0.1959 -0.2831
  217MOL0     C28555   4.515   9.548   5.104 -0.9270  0.7923 -0.0809
  217MOL0    Cl28556   4.628   9.561   5.238 -0.1910  0.6648 -0.0805
  217MOL0     C28557   4.863  10.182   5.086 -0.1798  0.2798  0.3015
  217MOL0     C28558   4.977  10.192   5.000  0.2185 -0.0011 -0.3878
  217MOL0     O28559   5.146  10.539   4.883  0.3202 -0.4518  0.6235
  217MOL0     C28560   5.410  10.319   4.773  0.4314 -0.6306 -1.0559
  217MOL0     C28561   5.536  10.322   4.706  0.0993  0.4466  0.2529
  217MOL0     N28562   6.216  10.650   4.434 -0.1079 -1.0959  0.7532
  217MOL0     N28563   6.334  10.601   4.415  0.4205 -0.2878 -0.3899
  217MOL0     C28564   7.606  10.414   4.443 -0.0944 -0.6462  0.6030
  217MOL0     C28565   7.739  10.457   4.438 -0.2881  1.8343 -0.3341
  217MOL0     C28566   8.210  10.401   4.513 -0.0590  0.7845 -0.5046
  217MOL0     C28567   8.231  10.538   4.537  0.5759  0.2612  0.5420
  217MOL0     C28568   8.352  10.602   4.529 -0.6037 -0.2333 -0.3153
  217MOL0     C28569   8.470  10.521   4.505 -0.8168  0.5238  0.5982
  217MOL0     O28570   8.604  10.559   4.504 -0.1383 -0.6088  0.0576
  217MOL0     C28571   8.633  10.704   4.508 -0.2019 -0.0754 -0.2488
  217MOL0     C28572   8.791  10.711   4.494  0.7371 -0.4019 -1.2647
  217MOL0     C28573   8.868  10.650   4.607 -0.0740 -0.4833  0.0693
  217MOL0     C28574   9.012  10.687   4.605  0.2063 -0.3831 -0.8051
  217MOL0     C28575   9.084  10.632   4.498 -0.4841  0.5909  0.5437
  217MOL0     C28576   9.141  10.581   4.404  0.4181  0.7812  0.1323
  217MOL0     C28577   8.449  10.384   4.479 -0.8068  0.2791  0.3829
  217MOL0     C28578   8.329  10.327   4.485  0.2930 -0.5761 -0.2445
  217MOL0     H28579   7.865  10.230   4.663 -2.2826 -1.2414  0.0073
  217MOL0     H28580   7.617  10.164   4.672  4.0017 -1.2824  1.7446
  217MOL0     H28581   7.299  10.349   4.394  2.4458  2.4373 -0.8803
  217MOL0     H28582   7.338  10.454   4.522 -0.5469 -1.0846 -1.5415
  217MOL0     H28583   7.206  10.332   4.674  1.0580  0.7314  0.1525
  217MOL0     H28584   7.173  10.201   4.555  1.1894  0.3053  1.4184
  217MOL0     H28585   7.049  10.359   4.423  1.0166  2.5633 -0.7402
  217MOL0     H28586   7.085  10.495   4.522 -1.0415  0.3431  0.1109
  217MOL0     H28587   6.937  10.251   4.632  0.1465 -0.0003  0.0837
  217MOL0     H28588   6.966  10.407   4.712  1.6687  1.7816 -0.1947
  217MOL0     H28589   6.817  10.384   4.449 -0.2082 -3.5653  0.2485
  217MOL0     H28590   6.825  10.528   4.563 -0.7199  1.3521 -4.1726
  217MOL0     H28591   6.684  10.376   4.725  1.2380  3.6576 -1.4860
  217MOL0     H28592   6.699  10.236   4.616 -0.6666 -0.2493  3.6023
  217MOL0     H28593   6.537  10.325   4.467  0.9501  0.1086 -0.6253
  217MOL0     H28594   6.483  10.321   4.625  1.4965 -3.4983 -1.4884
  217MOL0     H28595   6.572  10.563   4.472 -0.6399 -0.7902 -2.0341
  217MOL0     H28596   6.564  10.563   4.651  0.8744 -1.1290  0.0708
  217MOL0     H28597   6.268  10.553   4.741 -1.3319 -1.7627 -0.2319
  217MOL0     H28598   5.996  10.726   4.540 -1.2368 -1.4291 -0.1668
  217MOL0     H28599   6.075  10.756   4.691 -2.0840  1.1537 -1.0491
  217MOL0     H28600   5.887  10.602   4.744 -0.8136 -0.0393  0.7609
  217MOL0     H28601   6.037  10.516   4.760 -1.7581 -0.1731 -0.1206
  217MOL0     H28602   5.929  10.493   4.487 -3.4476 -1.6841  0.3224
  217MOL0     H28603   6.015  10.375   4.602  1.3719  0.8253  0.4249
  217MOL0     H28604   5.798  10.357   4.708 -0.5803  1.4695  0.8113
  217MOL0     H28605   5.774  10.314   4.535  0.2075  1.2723 -1.7698
  217MOL0     H28606   5.542  10.665   4.674 -1.6748  0.8138  0.6797
  217MOL0     H28607   5.329  10.650   4.800  1.0633  0.2827  0.2381
  217MOL0     H28608   5.099  10.486   5.112  0.5687 -0.9615 -0.2279
  217MOL0     H28609   4.882  10.465   5.258  0.9644  0.9662 -1.2709
  217MOL0     H28610   4.720  10.226   5.420  0.9884  0.5835 -0.2764
  217MOL0     H28611   4.770  10.103   5.305  1.1943  1.0233 -0.8742
  217MOL0     H28612   4.494  10.183   5.377  0.8799  1.4489  0.8361
  217MOL0     H28613   4.562  10.021   5.365 -0.5998 -0.1340 -1.9341
  217MOL0     H28614   4.610  10.065   5.124  2.5947  2.7341  3.3633
  217MOL0     H28615   4.480  10.189   5.120  0.0342  0.4202  1.8064
  217MOL0     H28616   4.316  10.015   5.175 -1.2841 -1.5560  0.1140
  217MOL0     H28617   4.403   9.995   5.023 -4.9342 -3.7047  0.2585
  217MOL0     H28618   4.418   9.830   5.273  1.4271 -2.2739 -0.6759
  217MOL0     H28619   4.551   9.827   5.149  0.1484 -1.2111 -1.7139
  217MOL0     H28620   4.395   9.763   4.988  2.3948  2.3483  1.2706
  217MOL0     H28621   4.260   9.783   5.116 -0.0132  1.6158 -0.7319
  217MOL0     H28622   4.359   9.575   5.242  0.1455 -1.4612 -0.6945
  217MOL0     H28623   4.301   9.551   5.080  0.5642 -0.6187 -0.6729
  217MOL0     H28624   4.555   9.597   5.015  0.1573 -2.0821 -1.2853
  217MOL0     H28625   4.516   9.440   5.089  3.1238  0.5203  0.9993
  217MOL0     H28626   4.804  10.092   5.086 -0.3448  0.3869  0.4538
  217MOL0     H28627   4.991  10.105   4.938  0.9946  1.0391 -1.7134
  217MOL0     H28628   5.364  10.228   4.810 -1.4307  0.1816 -1.2720
  217MOL0     H28629   5.594  10.232   4.688  0.5716  0.8853 -0.4785
  217MOL0     H28630   7.537  10.465   4.377  1.3027  0.4412 -0.0692
  217MOL0     H28631   7.769  10.552   4.396  1.3398  1.1791 -0.7257
  217MOL0     H28632   8.147  10.607   4.545 -0.6568 -0.8678 -1.7582
  217MOL0     H28633   8.364  10.710   4.533 -1.0565 -0.1663 -0.6014
  217MOL0     H28634   8.612  10.737   4.610  4.0828 -1.1636  1.1747
  217MOL0     H28635   8.592  10.766   4.427 -0.1239  2.7889  1.7746
  217MOL0     H28636   8.824  10.665   4.401 -2.2006 -0.1203 -2.5247
  217MOL0     H28637   8.813  10.818   4.495 -0.5505 -0.0900  1.2777
  217MOL0     H28638   8.873  10.541   4.608 -0.9827 -0.5513  1.3502
  217MOL0     H28639   8.824  10.670   4.706  1.3204  0.7593  0.4744
  217MOL0     H28640   9.025  10.795   4.593 -1.9156  0.0255  0.0189
  217MOL0     H28641   9.072  10.665   4.693  0.9767  0.1635 -1.1845
  217MOL0     H28642   9.209  10.542   4.332  2.4471  0.7625  1.9468
  217MOL0     H28643   8.525  10.311   4.456 -1.4475  0.4114 -2.5280
  217MOL0     H28644   8.313  10.219   4.478 -0.0914 -0.4487 -1.7402
  218MOL0     O28645   2.638   6.228  10.977 -0.3266 -0.2113 -0.1165
  218MOL0     C28646   2.729   6.179  11.050  1.1183 -0.6626  0.0705
  218MOL0     O28647   2.705   6.089  11.149 -0.1940 -0.7137  0.4099
  218MOL0     C28648   2.575   6.048  11.179 -0.2300  0.3971  0.3568
  218MOL0     C28649   2.530   6.056  11.309  0.0113  0.4535  0.4264
  218MOL0     C28650   2.407   6.002  11.344  0.2534  0.8170 -0.3025
  218MOL0     C28651   2.329   5.924  11.254 -0.3691  0.0825  0.0564
  218MOL0     O28652   2.223   5.852  11.313 -0.9494 -0.2818 -0.1890
  218MOL0     C28653   2.119   5.830  11.217 -0.2558 -0.2068  0.2016
  218MOL0     C28654   1.982   5.802  11.293 -0.4043 -0.7338 -0.3885
  218MOL0     C28655   1.908   5.922  11.352 -0.8298 -0.3521 -0.5183
  218MOL0     C28656   1.787   5.875  11.434 -0.0623 -0.7962  0.2742
  218MOL0     C28657   1.697   5.985  11.496 -0.6720  0.6009  0.4600
  218MOL0     C28658   1.566   5.911  11.525  0.4112 -0.7318  0.5433
  218MOL0     C28659   1.462   6.015  11.585  0.1122 -0.3511  0.2798
  218MOL0     C28660   1.509   6.089  11.712 -0.1021 -0.0246  0.5570
  218MOL0     N28661   1.410   6.181  11.760  0.5079 -0.1253  0.5040
  218MOL0     C28662   1.309   6.139  11.847  0.9071  1.0684  0.8140
  218MOL0     C28663   1.229   6.252  11.848 -0.2243 -0.0337 -0.6481
  218MOL0     C28664   1.105   6.270  11.927 -0.8071  0.2941  0.2336
  218MOL0     C28665   1.006   6.156  11.915  0.9733  0.4925 -0.0518
  218MOL0     C28666   0.913   6.131  12.036 -1.4136  0.0547 -0.4321
  218MOL0     C28667   0.790   6.050  11.997  0.5300 -0.0972  0.1909
  218MOL0     O28668   0.689   6.120  11.935  0.8780  0.2564 -0.6354
  218MOL0     C28669   0.574   6.055  11.942 -0.3313 -0.0987 -0.2111
  218MOL0     C28670   0.475   6.095  12.036 -0.0534  0.1117 -0.1245
  218MOL0     C28671   0.354   6.030  12.035  0.0458 -0.8027  1.3647
  218MOL0     C28672   0.320   5.925  11.947  0.4226  0.1688 -1.0537
  218MOL0     C28673   0.189   5.869  11.937  0.5208  0.3315 -0.6263
  218MOL0     O28674   0.170   5.759  11.851  0.0405 -0.3385 -0.4838
  218MOL0     C28675   0.034   5.718  11.838  0.3614 -0.9647 -0.5590
  218MOL0     C28676  -0.015   5.617  11.920  0.1370  0.3290 -0.0072
  218MOL0     C28677  -0.152   5.576  11.904  0.4552  0.7473  0.6481
  218MOL0     C28678  -0.243   5.644  11.820  0.4895 -0.1765 -0.1445
  218MOL0     O28679  -0.373   5.596  11.820 -0.0846 -0.4713  0.6047
  218MOL0     C28680  -0.460   5.648  11.722 -0.9152  0.3369  0.3976
  218MOL0     C28681  -0.591   5.564  11.728  0.0651  0.1022 -0.4456
  218MOL0     C28682  -0.708   5.609  11.640 -0.8490  0.2966 -1.7792
  218MOL0     C28683  -0.834   5.516  11.657  0.5352  0.0473  0.3449
  218MOL0     C28684  -0.968   5.574  11.594 -0.6136  0.3727 -0.2333
  218MOL0     C28685  -0.944   5.629  11.450  0.7305 -0.0855  0.7924
  218MOL0     C28686  -1.076   5.689  11.394  0.3138  0.2658 -0.1317
  218MOL0     C28687  -1.072   5.723  11.248  0.0494  0.3378  0.0817
  218MOL0    Cl28688  -1.046   5.583  11.139  0.1275  0.0301 -0.0407
  218MOL0     C28689  -0.187   5.744  11.732  0.4419  0.5552  0.5045
  218MOL0     C28690  -0.052   5.783  11.743 -0.7069  0.0380 -0.6003
  218MOL0     O28691   0.101   5.929  11.993  0.2769 -0.2665  0.2170
  218MOL0     C28692   0.426   5.888  11.862  0.6406 -0.3412 -0.0755
  218MOL0     C28693   0.547   5.955  11.855  0.2412  0.6197  0.1098
  218MOL0     N28694   1.280   6.355  11.779 -0.2090 -0.3145 -0.2336
  218MOL0     N28695   1.397   6.314  11.730 -0.0188 -0.0487 -1.3237
  218MOL0     C28696   2.380   5.914  11.116  0.3467  0.5237  0.1449
  218MOL0     C28697   2.494   5.989  11.078 -0.1158  0.0047 -0.0355
  218MOL0     C28698   2.860   6.228  11.029  0.0532 -0.0326 -0.3926
  218MOL0     C28699   2.970   6.145  11.062 -0.1605  0.0471 -0.3482
  218MOL0     C28700   3.103   6.181  11.039  0.8894  0.0556 -0.2655
  218MOL0     C28701   3.133   6.314  11.003  0.1008 -0.4742 -0.5111
  218MOL0     O28702   3.254   6.374  10.973 -0.0366  0.1574  0.3074
  218MOL0     C28703   3.374   6.301  10.971 -0.0744  0.2979  0.5326
  218MOL0     C28704   3.372   6.236  10.832  0.5926 -0.2358 -0.5275
  218MOL0     C28705   3.504   6.166  10.805  0.5418  0.6265  0.6656
  218MOL0     C28706   3.481   6.092  10.676 -0.0721  0.1169 -0.0494
  218MOL0     C28707   3.620   6.060  10.633  0.7889 -0.1890 -0.0080
  218MOL0     C28708   3.741   6.029  10.608  0.4513 -0.1237 -0.0435
  218MOL0     C28709   3.018   6.402  10.989  0.0861  0.1320 -0.1609
  218MOL0     C28710   2.887   6.364  11.007  0.2543 -0.5749  1.2885
  218MOL0     H28711   2.591   6.110  11.381 -0.5121  2.6897 -0.7047
  218MOL0     H28712   2.364   6.007  11.443 -1.2756 -3.3971 -0.5709
  218MOL0     H28713   2.147   5.741  11.159  2.8329  1.0257 -0.3608
  218MOL0     H28714   2.109   5.915  11.149  3.4625 -0.2278 -0.5598
  218MOL0     H28715   1.993   5.718  11.362 -1.9882  0.2982  1.2045
  218MOL0     H28716   1.904   5.771  11.223 -2.2127 -2.8255  2.3483
  218MOL0     H28717   1.880   5.990  11.270 -0.2513 -2.7232 -2.8326
  218MOL0     H28718   1.971   5.973  11.425 -2.3756  0.4746  0.2793
  218MOL0     H28719   1.727   5.821  11.360 -0.3702  1.3570 -1.1271
  218MOL0     H28720   1.821   5.801  11.507  2.7898  0.4195  0.2955
  218MOL0     H28721   1.672   6.059  11.420  0.7741  1.4206  0.7503
  218MOL0     H28722   1.742   6.031  11.585  4.6490 -0.5059 -1.2889
  218MOL0     H28723   1.585   5.835  11.602  1.0055 -0.7577  0.3797
  218MOL0     H28724   1.524   5.868  11.433 -1.8163 -0.6250  1.4629
  218MOL0     H28725   1.436   6.087  11.507  1.8854 -0.0523 -0.0791
  218MOL0     H28726   1.367   5.971  11.617 -0.3828  0.4090 -0.1096
  218MOL0     H28727   1.602   6.138  11.681 -1.4807 -0.4557 -5.6731
  218MOL0     H28728   1.537   6.014  11.787 -0.4922 -0.9923 -0.2327
  218MOL0     H28729   1.301   6.041  11.893  0.7476  1.3632  1.4191
  218MOL0     H28730   1.053   6.364  11.904 -2.9388 -0.8112  0.2926
  218MOL0     H28731   1.131   6.267  12.033 -0.0157 -0.7524  0.0281
  218MOL0     H28732   1.074   6.072  11.898 -0.7220 -0.8608 -0.3110
  218MOL0     H28733   0.947   6.167  11.824  2.3551  1.1697 -0.9170
  218MOL0     H28734   0.957   6.090  12.127 -1.6429  3.0250  1.1521
  218MOL0     H28735   0.890   6.231  12.074  2.1224 -0.8022  5.0128
  218MOL0     H28736   0.755   6.001  12.088 -0.0947 -2.6619 -1.3184
  218MOL0     H28737   0.811   5.968  11.928  0.8772 -1.4976  1.8886
  218MOL0     H28738   0.503   6.185  12.089  0.9965  0.3779 -1.0841
  218MOL0     H28739   0.283   6.074  12.104  0.0429  2.1439 -0.3579
  218MOL0     H28740   0.058   5.557  11.974  0.5031 -0.0777 -0.9248
  218MOL0     H28741  -0.198   5.491  11.954 -1.4382  0.0397 -2.0634
  218MOL0     H28742  -0.417   5.641  11.621  0.4292  1.6311  0.8535
  218MOL0     H28743  -0.483   5.753  11.743  0.6152  0.1234  3.7323
  218MOL0     H28744  -0.623   5.565  11.833 -2.0419  0.0562 -1.0423
  218MOL0     H28745  -0.570   5.461  11.699  0.6703  0.3852 -1.0215
  218MOL0     H28746  -0.668   5.614  11.538  1.7478 -0.6572 -0.8941
  218MOL0     H28747  -0.736   5.711  11.668 -0.6454 -0.4290  1.4877
  218MOL0     H28748  -0.816   5.414  11.624  0.0402 -1.1029  3.2917
  218MOL0     H28749  -0.850   5.499  11.764 -2.3837 -0.8400 -0.1579
  218MOL0     H28750  -1.006   5.655  11.657  1.1440  0.4591  0.7903
  218MOL0     H28751  -1.039   5.491  11.583 -0.6912  0.6795 -2.5860
  218MOL0     H28752  -0.895   5.557  11.383  0.9818  2.2888 -1.7605
  218MOL0     H28753  -0.874   5.713  11.450  0.1676  0.4494 -1.0906
  218MOL0     H28754  -1.161   5.621  11.407  1.6977 -2.2433 -2.9602
  218MOL0     H28755  -1.103   5.776  11.455 -1.6375 -0.4133  0.0285
  218MOL0     H28756  -0.992   5.798  11.245  0.2890  0.0799  0.0454
  218MOL0     H28757  -1.169   5.759  11.212  0.9145  0.5255 -2.2153
  218MOL0     H28758  -0.250   5.797  11.661 -1.7190  0.1483  2.0234
  218MOL0     H28759  -0.003   5.853  11.677  0.1488  1.2457  1.2415
  218MOL0     H28760   0.413   5.804  11.795 -1.2276 -0.6481  0.6226
  218MOL0     H28761   0.622   5.931  11.780  0.2040 -2.5186  0.9398
  218MOL0     H28762   2.323   5.848  11.050  0.2878 -1.5748  2.1686
  218MOL0     H28763   2.521   5.986  10.973 -2.0632  1.2805 -0.6174
  218MOL0     H28764   2.951   6.042  11.088 -0.2381 -0.0823 -0.9114
  218MOL0     H28765   3.185   6.109  11.044  1.3031  0.5848  0.9950
  218MOL0     H28766   3.371   6.233  11.057 -1.5768  0.8850  0.9750
  218MOL0     H28767   3.466   6.358  10.981  1.0124 -1.3076  0.0850
  218MOL0     H28768   3.295   6.159  10.829 -1.7563  1.9684 -0.1246
  218MOL0     H28769   3.361   6.318  10.761  3.2638  1.6801  1.0467
  218MOL0     H28770   3.536   6.107  10.891 -0.7442  1.0497  1.4618
  218MOL0     H28771   3.587   6.237  10.795  0.3368  0.8762  0.7117
  218MOL0     H28772   3.428   5.999  10.697 -0.6315  0.6439  0.9340
  218MOL0     H28773   3.435   6.155  10.599 -0.9110  1.3705  1.4311
  218MOL0     H28774   3.844   6.000  10.595  0.9232  0.6002  1.7691
  218MOL0     H28775   3.032   6.503  10.953 -0.7077 -0.9525 -3.9262
  218MOL0     H28776   2.812   6.441  10.996  1.1648  0.6271  2.9074
  219MOL0     O28777   6.892   7.510   7.665  0.1224 -0.6732 -0.2393
  219MOL0     C28778   6.925   7.577   7.758 -0.8674  0.6004  0.0874
  219MOL0     O28779   6.841   7.672   7.816  0.2128 -0.2145  0.1439
  219MOL0     C28780   6.712   7.680   7.766 -1.0694  0.5398  0.3962
  219MOL0     C28781   6.688   7.743   7.646 -0.0342 -0.2771  0.4259
  219MOL0     C28782   6.560   7.762   7.603  0.4309 -0.6240 -0.5911
  219MOL0     C28783   6.445   7.720   7.683 -0.8173 -0.2197  0.6009
  219MOL0     O28784   6.316   7.748   7.660  0.0149 -0.6122  0.5483
  219MOL0     C28785   6.278   7.814   7.533  0.1730  0.5178 -0.5937
  219MOL0     C28786   6.134   7.857   7.543 -0.1055 -0.0164  0.2913
  219MOL0     C28787   6.037   7.746   7.502 -0.6120  0.8529 -0.6228
  219MOL0     C28788   5.923   7.747   7.594 -0.1376  1.3338  0.3805
  219MOL0     C28789   5.835   7.623   7.540  0.8163 -0.4859  0.1942
  219MOL0     C28790   5.714   7.606   7.636 -0.1199  0.3080  1.1178
  219MOL0     C28791   5.622   7.498   7.575  0.3154 -0.8910  0.4295
  219MOL0     C28792   5.541   7.555   7.452 -0.2597 -0.3284  0.6162
  219MOL0     N28793   5.440   7.652   7.495 -0.9285  0.0918  0.2148
  219MOL0     C28794   5.328   7.613   7.566 -0.8310 -0.4601 -0.9334
  219MOL0     C28795   5.280   7.726   7.619  0.5454  0.5331 -0.2101
  219MOL0     C28796   5.152   7.737   7.705  0.0511 -0.5028  0.5503
  219MOL0     C28797   5.102   7.610   7.779  0.6493 -1.0071  0.4083
  219MOL0     C28798   5.003   7.629   7.896  0.3172 -0.9727 -0.2897
  219MOL0     C28799   4.861   7.663   7.835 -0.2673  0.3165  0.5649
  219MOL0     O28800   4.755   7.657   7.933 -0.4062 -0.1290  0.3588
  219MOL0     C28801   4.624   7.695   7.908  0.8232 -0.3074  0.8294
  219MOL0     C28802   4.540   7.693   8.015 -0.2559 -0.1663  0.5989
  219MOL0     C28803   4.414   7.750   8.013 -0.2942 -1.0214  0.3558
  219MOL0     C28804   4.363   7.802   7.886  0.8492 -0.6329  0.3108
  219MOL0     C28805   4.223   7.838   7.863 -0.0813 -0.2765  0.6577
  219MOL0     O28806   4.186   7.920   7.756 -0.0572 -0.0175  0.0361
  219MOL0     C28807   4.051   7.962   7.751  0.0896 -0.2252 -0.1295
  219MOL0     C28808   4.016   8.096   7.770 -0.0909 -0.4060  0.2824
  219MOL0     C28809   3.880   8.134   7.774  0.6286 -0.7289 -0.5525
  219MOL0     C28810   3.781   8.041   7.754  0.3716  0.5896 -0.1108
  219MOL0     O28811   3.656   8.087   7.774 -0.4848  0.5003  0.2049
  219MOL0     C28812   3.540   8.032   7.708  0.2284 -0.4458 -0.2010
  219MOL0     C28813   3.410   8.102   7.764 -0.8454 -0.6673  0.3310
  219MOL0     C28814   3.287   8.071   7.685 -0.2079 -0.3647  0.0530
  219MOL0     C28815   3.169   8.160   7.723 -1.4961  0.9237 -0.0615
  219MOL0     C28816   3.033   8.102   7.686 -0.1532  0.2730 -0.4800
  219MOL0     C28817   3.026   8.088   7.533 -0.2823 -0.0080 -1.5836
  219MOL0     C28818   2.884   8.070   7.492  0.1579  0.4916  0.8147
  219MOL0     C28819   2.834   8.182   7.394 -0.5191  0.4431  0.0175
  219MOL0    Cl28820   2.781   8.326   7.487 -0.0746 -0.0489  0.5029
  219MOL0     C28821   3.818   7.908   7.722 -0.1066 -0.2134  0.5786
  219MOL0     C28822   3.954   7.866   7.730  0.5895 -0.0008  0.9007
  219MOL0     O28823   4.145   7.788   7.944  0.0229  0.0181 -0.3692
  219MOL0     C28824   4.444   7.793   7.772 -0.4863 -0.1723  0.1005
  219MOL0     C28825   4.574   7.751   7.789  0.2101 -0.1843  0.3780
  219MOL0     N28826   5.365   7.833   7.588  0.3280  0.1003 -0.6673
  219MOL0     N28827   5.459   7.788   7.509 -0.5319 -0.1104  0.1672
  219MOL0     C28828   6.474   7.650   7.809 -0.3974 -0.4801  0.6023
  219MOL0     C28829   6.606   7.632   7.843 -0.8703 -0.5346 -0.4839
  219MOL0     C28830   7.055   7.542   7.828 -0.4736  0.0656 -0.3478
  219MOL0     C28831   7.114   7.418   7.808 -0.0537  0.6185  0.2323
  219MOL0     C28832   7.234   7.389   7.881 -0.1306 -0.6930 -0.0104
  219MOL0     C28833   7.279   7.464   7.992 -0.1445 -0.0478  0.0386
  219MOL0     O28834   7.380   7.441   8.080 -0.0987  0.5000  1.0637
  219MOL0     C28835   7.469   7.331   8.049 -0.0624 -0.1107 -0.3330
  219MOL0     C28836   7.567   7.364   7.940  0.5405 -0.1046 -0.0753
  219MOL0     C28837   7.680   7.467   7.962  0.0186  0.0419 -0.2909
  219MOL0     C28838   7.628   7.614   7.955 -0.3215 -0.0640 -0.5239
  219MOL0     C28839   7.746   7.712   7.972  1.3045 -0.6836  0.6206
  219MOL0     C28840   7.838   7.796   7.976  0.9157  0.3846 -1.3023
  219MOL0     C28841   7.220   7.589   8.009 -0.5366  0.3401  0.2322
  219MOL0     C28842   7.110   7.622   7.929  0.1074 -0.5894 -0.0715
  219MOL0     H28843   6.766   7.792   7.588 -3.3426  2.3841 -2.1652
  219MOL0     H28844   6.540   7.827   7.519  4.6942  1.9726  0.0827
  219MOL0     H28845   6.294   7.741   7.453  0.3156 -2.1842  1.7521
  219MOL0     H28846   6.331   7.909   7.523  2.2580 -0.4603  0.5826
  219MOL0     H28847   6.129   7.937   7.470 -0.2922 -0.9536 -0.7531
  219MOL0     H28848   6.117   7.896   7.644  1.9270  0.7805  0.3764
  219MOL0     H28849   6.097   7.655   7.510  1.0752  1.9938  0.3804
  219MOL0     H28850   6.012   7.766   7.398 -0.8862  0.2686 -0.6708
  219MOL0     H28851   5.974   7.731   7.690  2.4816  0.3605 -1.0837
  219MOL0     H28852   5.849   7.828   7.598 -0.7002  0.7823  2.8820
  219MOL0     H28853   5.890   7.529   7.540 -1.6107 -1.9994  1.0586
  219MOL0     H28854   5.802   7.643   7.438 -3.1921 -1.7237  1.0733
  219MOL0     H28855   5.660   7.700   7.648 -1.6833 -0.5379  1.0603
  219MOL0     H28856   5.752   7.579   7.735  0.0597 -0.2393  0.9057
  219MOL0     H28857   5.678   7.411   7.540  1.5654  0.7236 -1.8741
  219MOL0     H28858   5.549   7.467   7.650 -0.9565  1.6046  0.3246
  219MOL0     H28859   5.483   7.476   7.403 -0.5880 -2.4450  4.1104
  219MOL0     H28860   5.607   7.603   7.379 -1.9449  0.6289 -0.3436
  219MOL0     H28861   5.307   7.509   7.585  1.3066 -0.7951 -0.1370
  219MOL0     H28862   5.075   7.773   7.636  0.9246  1.8210  0.7084
  219MOL0     H28863   5.176   7.813   7.780 -0.7963 -1.4038  1.7643
  219MOL0     H28864   5.183   7.566   7.838  2.4381  2.9343  1.1952
  219MOL0     H28865   5.058   7.547   7.701  2.8416 -0.4590 -1.3802
  219MOL0     H28866   5.006   7.543   7.963  1.7692 -0.4828  0.3135
  219MOL0     H28867   5.047   7.708   7.957 -1.2897 -1.8431  2.1497
  219MOL0     H28868   4.844   7.587   7.758  0.5002 -3.2236  3.6139
  219MOL0     H28869   4.862   7.762   7.788  0.6460  0.0864  0.0786
  219MOL0     H28870   4.576   7.649   8.108  0.0616  0.4104  0.7586
  219MOL0     H28871   4.340   7.755   8.092  0.6105  0.2655  1.1727
  219MOL0     H28872   4.097   8.166   7.786 -0.1315 -0.4970  0.9041
  219MOL0     H28873   3.854   8.234   7.807  0.4767 -0.7881 -0.4902
  219MOL0     H28874   3.537   7.924   7.724 -3.9476 -0.3727  0.6000
  219MOL0     H28875   3.546   8.049   7.600  1.8994  2.5206  0.2486
  219MOL0     H28876   3.426   8.210   7.768 -3.2122 -0.3022  1.6778
  219MOL0     H28877   3.398   8.076   7.870  1.4330  2.4637  1.5168
  219MOL0     H28878   3.260   7.965   7.691 -0.2781 -0.3819 -0.5226
  219MOL0     H28879   3.305   8.093   7.580 -1.3821 -0.3921 -0.1644
  219MOL0     H28880   3.175   8.167   7.832  1.9661 -0.2784 -0.0371
  219MOL0     H28881   3.178   8.262   7.684 -3.8652  1.2737  0.1439
  219MOL0     H28882   2.955   8.167   7.727  1.6439  1.5993  0.9904
  219MOL0     H28883   3.021   8.002   7.729  2.4767  0.4097  0.7435
  219MOL0     H28884   3.088   8.003   7.503 -2.1360 -0.9900 -2.8580
  219MOL0     H28885   3.079   8.174   7.490  1.6239 -1.1549 -1.6845
  219MOL0     H28886   2.879   7.984   7.424 -0.1181  2.9085 -2.4624
  219MOL0     H28887   2.818   8.051   7.577 -0.0326 -0.9769  0.3684
  219MOL0     H28888   2.754   8.138   7.333 -1.1365 -1.4728  2.0873
  219MOL0     H28889   2.921   8.210   7.333  2.4168 -2.6608  2.3573
  219MOL0     H28890   3.744   7.830   7.704  1.8587 -2.0257  0.0391
  219MOL0     H28891   3.966   7.762   7.703 -1.1298  0.3883 -1.8703
  219MOL0     H28892   4.425   7.834   7.673  0.7315  0.6483  0.1835
  219MOL0     H28893   4.636   7.750   7.700 -2.4462 -2.9612 -1.6561
  219MOL0     H28894   6.394   7.621   7.877  0.9595 -0.4241  2.3184
  219MOL0     H28895   6.621   7.590   7.942  2.4265  0.4675 -0.4600
  219MOL0     H28896   7.055   7.343   7.757  0.3691  0.6175 -0.2682
  219MOL0     H28897   7.287   7.297   7.859  1.6986  0.1938  0.4540
  219MOL0     H28898   7.414   7.240   8.023 -2.4082  0.9622  0.6465
  219MOL0     H28899   7.523   7.311   8.143 -5.8998 -0.5223  3.4432
  219MOL0     H28900   7.621   7.269   7.927  3.3120  1.0439  2.0439
  219MOL0     H28901   7.529   7.378   7.838  0.3690  0.5587  0.0804
  219MOL0     H28902   7.753   7.462   7.881  3.2032  0.0809  2.3912
  219MOL0     H28903   7.734   7.453   8.056 -1.0411 -0.3213  0.2908
  219MOL0     H28904   7.588   7.622   7.853 -0.9485 -0.5774 -0.3179
  219MOL0     H28905   7.542   7.630   8.020 -1.3923 -1.8571 -1.4126
  219MOL0     H28906   7.906   7.878   7.963  1.1671  0.4484  0.1734
  219MOL0     H28907   7.240   7.647   8.099 -0.2870  2.3290 -1.0446
  219MOL0     H28908   7.071   7.723   7.936  0.5446 -0.2629 -1.8746
  220MOL0     O28909   1.250   9.013   4.231  0.5351  0.1004 -0.4851
  220MOL0     C28910   1.186   9.017   4.337  1.1434 -0.5091 -0.4033
  220MOL0     O28911   1.072   9.092   4.356 -0.1662 -0.2589 -0.0113
  220MOL0     C28912   0.992   9.122   4.243  0.5072 -0.5441 -0.1122
  220MOL0     C28913   0.976   9.038   4.131 -0.1424 -1.1745 -0.6206
  220MOL0     C28914   0.894   9.083   4.029  0.8175 -0.3542  0.5141
  220MOL0     C28915   0.831   9.208   4.031  0.1522  0.0514  0.2271
  220MOL0     O28916   0.773   9.245   3.914  0.3483 -0.0697  0.3551
  220MOL0     C28917   0.689   9.358   3.914 -0.1502 -0.2954  0.1564
  220MOL0     C28918   0.555   9.355   3.990  0.5100  0.3891 -0.9218
  220MOL0     C28919   0.452   9.246   3.950 -0.0467  0.3879  0.5982
  220MOL0     C28920   0.504   9.111   3.977 -0.5139  0.2753 -0.5450
  220MOL0     C28921   0.390   8.999   3.991 -0.9918 -0.4074  0.1824
  220MOL0     C28922   0.464   8.857   4.009 -0.3370  0.9340 -0.1397
  220MOL0     C28923   0.438   8.779   3.879 -0.4126  0.8968 -0.3807
  220MOL0     C28924   0.514   8.649   3.868  0.2444 -0.0721  1.0289
  220MOL0     N28925   0.477   8.570   3.746  0.4372 -0.0013 -0.1288
  220MOL0     C28926   0.355   8.507   3.728 -0.0258  0.1332  0.4674
  220MOL0     C28927   0.362   8.452   3.607 -0.8076 -0.0987  0.9856
  220MOL0     C28928   0.255   8.376   3.539  0.5353  1.1575 -0.3473
  220MOL0     C28929   0.161   8.470   3.468 -0.3237 -0.6318 -0.6529
  220MOL0     C28930   0.032   8.397   3.422 -0.3666  0.6645  0.6456
  220MOL0     C28931  -0.072   8.497   3.367 -0.4527 -0.5048  0.0627
  220MOL0     O28932  -0.168   8.424   3.304  0.7892  0.4700  0.3317
  220MOL0     C28933  -0.256   8.504   3.226  0.8220  0.4814 -0.1753
  220MOL0     C28934  -0.239   8.631   3.173 -0.6494  0.5500  0.0001
  220MOL0     C28935  -0.337   8.689   3.087 -0.1895  0.4365 -0.4002
  220MOL0     C28936  -0.459   8.627   3.071  0.8213 -0.7510  0.2873
  220MOL0     C28937  -0.555   8.680   2.967 -0.3236  0.7566  0.7798
  220MOL0     O28938  -0.674   8.612   2.967 -0.6910  1.2143 -0.6695
  220MOL0     C28939  -0.778   8.636   2.873 -0.7481 -0.1549 -0.0421
  220MOL0     C28940  -0.764   8.708   2.754  0.9406  0.1533  0.5127
  220MOL0     C28941  -0.877   8.744   2.682  0.0823 -0.9287  0.1931
  220MOL0     C28942  -1.006   8.695   2.712 -1.1156 -0.3172 -0.1750
  220MOL0     O28943  -1.124   8.721   2.641 -0.0340 -0.2456 -0.1223
  220MOL0     C28944  -1.129   8.708   2.499 -0.1291 -0.1829 -0.4437
  220MOL0     C28945  -1.276   8.695   2.468 -0.8526  0.8529 -0.2784
  220MOL0     C28946  -1.310   8.679   2.319 -0.6910  0.1894 -0.1328
  220MOL0     C28947  -1.462   8.697   2.301 -0.1709  0.0391  1.0238
  220MOL0     C28948  -1.498   8.718   2.152 -0.0844 -0.1192 -0.0737
  220MOL0     C28949  -1.650   8.754   2.120 -0.0126 -0.3270 -0.8632
  220MOL0     C28950  -1.667   8.790   1.974  0.1982  0.2484 -0.2605
  220MOL0     C28951  -1.805   8.834   1.935 -0.9107  0.1319 -0.6620
  220MOL0    Cl28952  -1.923   8.696   1.942  0.4913 -0.5435 -0.3839
  220MOL0     C28953  -1.028   8.634   2.837 -0.7259 -0.7433 -0.3478
  220MOL0     C28954  -0.911   8.602   2.921  0.6827  0.7132  1.0485
  220MOL0     O28955  -0.532   8.786   2.912  0.1962 -0.3246  0.2986
  220MOL0     C28956  -0.475   8.492   3.115 -0.0261 -1.2716 -0.8691
  220MOL0     C28957  -0.381   8.435   3.192  0.1016 -0.2855  0.5489
  220MOL0     N28958   0.485   8.492   3.552  0.0697 -0.2981 -0.6424
  220MOL0     N28959   0.554   8.558   3.637  0.7098 -0.1575 -0.1162
  220MOL0     C28960   0.839   9.292   4.139 -0.0880 -0.5828  0.7456
  220MOL0     C28961   0.917   9.244   4.243  0.2942  0.4358 -0.5700
  220MOL0     C28962   1.237   8.952   4.457  0.3652  0.1958  0.4530
  220MOL0     C28963   1.181   8.985   4.582 -0.1661 -0.2665  0.0366
  220MOL0     C28964   1.229   8.926   4.705  0.0609 -0.3135  0.2777
  220MOL0     C28965   1.349   8.848   4.705  0.5528  0.1618 -0.1308
  220MOL0     O28966   1.396   8.804   4.824 -0.5200  0.3384  0.4686
  220MOL0     C28967   1.520   8.727   4.816 -0.2935  0.8256  0.7358
  220MOL0     C28968   1.530   8.645   4.945  0.2233  0.4936  0.2336
  220MOL0     C28969   1.554   8.749   5.060  0.2387  0.0973  1.0316
  220MOL0     C28970   1.559   8.668   5.188 -0.0713  0.1941  0.6177
  220MOL0     C28971   1.550   8.769   5.297  0.8312  1.0084 -0.0647
  220MOL0     C28972   1.528   8.852   5.385  0.3318  0.5087 -0.2489
  220MOL0     C28973   1.404   8.823   4.575 -0.1021 -0.2887 -0.3171
  220MOL0     C28974   1.355   8.878   4.456 -1.0014 -0.3597 -0.0837
  220MOL0     H28975   1.025   8.943   4.112 -1.5570 -2.0169 -0.2363
  220MOL0     H28976   0.897   9.020   3.941 -2.9151  1.1214 -0.8558
  220MOL0     H28977   0.662   9.373   3.809  1.1119 -1.5102 -0.3693
  220MOL0     H28978   0.750   9.446   3.936  0.7787 -1.3653  2.1080
  220MOL0     H28979   0.505   9.451   3.979 -1.1074 -0.4550 -1.3139
  220MOL0     H28980   0.579   9.342   4.096  0.7066 -0.4145 -1.0543
  220MOL0     H28981   0.424   9.255   3.845 -2.6096 -0.8878  1.0922
  220MOL0     H28982   0.358   9.259   4.004  0.1411  0.5934  0.8837
  220MOL0     H28983   0.573   9.088   3.895 -2.0157 -2.7839 -1.0961
  220MOL0     H28984   0.557   9.117   4.073 -1.7945 -0.7575  0.2576
  220MOL0     H28985   0.321   8.996   3.905  0.1250  0.2852 -0.7682
  220MOL0     H28986   0.322   9.019   4.074 -0.2775 -2.3873  1.3012
  220MOL0     H28987   0.428   8.798   4.094  0.8065  1.7327  0.9364
  220MOL0     H28988   0.572   8.876   4.018 -0.2817  0.6252 -0.1292
  220MOL0     H28989   0.330   8.773   3.862 -0.7259 -0.0508  1.6273
  220MOL0     H28990   0.473   8.836   3.792 -1.7328 -0.8021 -2.1016
  220MOL0     H28991   0.503   8.585   3.956  1.7703  0.0478  1.3255
  220MOL0     H28992   0.619   8.674   3.850 -0.4710  1.7720 -1.1074
  220MOL0     H28993   0.278   8.498   3.804 -1.2171 -0.7736 -0.7912
  220MOL0     H28994   0.197   8.328   3.619 -2.5945  1.4606 -2.2993
  220MOL0     H28995   0.292   8.298   3.472  2.6121  0.9631  0.9349
  220MOL0     H28996   0.208   8.508   3.376  0.0420 -1.1856 -0.6994
  220MOL0     H28997   0.133   8.557   3.528 -3.1724 -2.7437  1.3222
  220MOL0     H28998   0.045   8.324   3.342 -2.8343  0.0618  0.7168
  220MOL0     H28999  -0.021   8.354   3.508 -1.7463  2.1366  0.5806
  220MOL0     H29000  -0.023   8.569   3.301 -0.5149  1.9085  2.4809
  220MOL0     H29001  -0.112   8.548   3.455  0.0366 -1.0639  0.6230
  220MOL0     H29002  -0.151   8.692   3.190 -0.3537  0.6131 -1.6355
  220MOL0     H29003  -0.321   8.784   3.036  2.6763 -0.0722 -0.6146
  220MOL0     H29004  -0.672   8.744   2.710  1.1154 -0.8607  0.0313
  220MOL0     H29005  -0.872   8.808   2.594 -1.5499 -1.6402 -0.4659
  220MOL0     H29006  -1.068   8.621   2.472 -2.8386 -1.9596 -1.2437
  220MOL0     H29007  -1.094   8.796   2.444  0.0929  2.3680  3.4058
  220MOL0     H29008  -1.326   8.779   2.516 -2.0446 -1.0337  1.9296
  220MOL0     H29009  -1.314   8.604   2.515  0.0504  0.8338  0.4493
  220MOL0     H29010  -1.282   8.586   2.269  0.3618  0.3874  0.0490
  220MOL0     H29011  -1.265   8.768   2.273 -1.8562  1.6829  1.5085
  220MOL0     H29012  -1.515   8.609   2.338  1.3518 -1.1152  0.5723
  220MOL0     H29013  -1.497   8.776   2.369 -0.1025  0.1225  0.9607
  220MOL0     H29014  -1.481   8.624   2.098 -1.9710  0.2042 -1.3365
  220MOL0     H29015  -1.430   8.799   2.122 -1.1360  0.7580 -0.1351
  220MOL0     H29016  -1.689   8.825   2.193 -1.4083 -4.4916  2.9873
  220MOL0     H29017  -1.710   8.664   2.136  0.0615 -0.0421  1.2622
  220MOL0     H29018  -1.596   8.871   1.955 -0.6933  0.6071 -2.4257
  220MOL0     H29019  -1.645   8.702   1.913  2.0508 -1.9309  3.2412
  220MOL0     H29020  -1.805   8.859   1.828  0.2074  1.0916 -0.4515
  220MOL0     H29021  -1.828   8.924   1.992  0.3995 -0.3669  0.7237
  220MOL0     H29022  -1.126   8.602   2.871 -0.5534 -0.3964  0.5254
  220MOL0     H29023  -0.922   8.551   3.016 -1.8089 -1.9111 -0.4908
  220MOL0     H29024  -0.570   8.440   3.108 -0.5297 -0.2840 -1.8832
  220MOL0     H29025  -0.393   8.332   3.224  0.7042 -0.7067 -0.5180
  220MOL0     H29026   0.813   9.397   4.144  2.5284  0.0999  1.6212
  220MOL0     H29027   0.933   9.308   4.328  0.0894  1.5863 -1.3728
  220MOL0     H29028   1.084   9.033   4.586  1.2110  2.7609  4.7021
  220MOL0     H29029   1.196   8.958   4.804  0.7321  2.2977 -0.2843
  220MOL0     H29030   1.608   8.792   4.804  1.3592 -1.6367 -1.6817
  220MOL0     H29031   1.530   8.650   4.738  1.0994  0.6754  1.0333
  220MOL0     H29032   1.440   8.586   4.966 -1.0470  1.9707 -0.7834
  220MOL0     H29033   1.604   8.565   4.944 -1.8406 -1.5870  1.7107
  220MOL0     H29034   1.468   8.817   5.057 -0.4294 -0.7299 -1.7944
  220MOL0     H29035   1.645   8.808   5.044 -0.5322  0.8501 -0.9451
  220MOL0     H29036   1.489   8.584   5.188 -0.9555  0.9075  0.0406
  220MOL0     H29037   1.657   8.621   5.189  2.0843  4.1583 -1.8148
  220MOL0     H29038   1.516   8.931   5.456  0.2357 -0.0910  0.4159
  220MOL0     H29039   1.497   8.767   4.567 -0.5939 -1.0855 -0.5514
  220MOL0     H29040   1.420   8.857   4.372 -0.4234 -2.3646  0.7944
  221MOL0     O29041   7.086  10.433   7.384 -0.3309  1.3413  0.8617
  221MOL0     C29042   7.135  10.548   7.390 -0.2819 -0.3949  0.2641
  221MOL0     O29043   7.098  10.648   7.309  0.2367  0.3752  0.2314
  221MOL0     C29044   6.981  10.634   7.228 -0.8711  0.0945 -0.1386
  221MOL0     C29045   6.978  10.626   7.081 -0.3305 -0.0284 -0.4689
  221MOL0     C29046   6.857  10.609   7.011 -0.1445  0.3438 -0.0659
  221MOL0     C29047   6.739  10.601   7.079  0.6113 -0.5495  0.3416
  221MOL0     O29048   6.610  10.585   7.019 -0.4817  0.2089  0.1587
  221MOL0     C29049   6.609  10.622   6.878  0.0567  0.3429 -0.1675
  221MOL0     C29050   6.475  10.684   6.850  0.0636  1.2515  0.2249
  221MOL0     C29051   6.363  10.581   6.832 -0.4952  0.5875 -0.3718
  221MOL0     C29052   6.228  10.640   6.805  0.8064  0.5566  0.7135
  221MOL0     C29053   6.109  10.539   6.806  0.3517 -0.9601  0.0627
  221MOL0     C29054   5.975  10.607   6.763 -0.4415 -0.1874  1.0008
  221MOL0     C29055   5.866  10.508   6.724 -0.1570 -0.3181 -0.3753
  221MOL0     C29056   5.771  10.473   6.840 -0.9358  0.0267  0.5315
  221MOL0     N29057   5.649  10.549   6.858 -0.1404 -0.3207 -0.1939
  221MOL0     C29058   5.538  10.548   6.781 -0.0592  0.6911  0.3620
  221MOL0     C29059   5.454  10.634   6.841  0.0551  0.3463  0.0658
  221MOL0     C29060   5.297  10.658   6.835 -0.3669  0.5101  0.2035
  221MOL0     C29061   5.212  10.536   6.884  0.7196 -0.2426 -0.6519
  221MOL0     C29062   5.078  10.515   6.797 -0.4208 -0.3979 -0.2703
  221MOL0     C29063   4.996  10.400   6.866 -0.1489 -0.0584  0.4474
  221MOL0     O29064   4.960  10.414   7.002  0.2530 -0.3501 -0.0279
  221MOL0     C29065   4.859  10.333   7.062  0.2714  0.1162  1.2144
  221MOL0     C29066   4.830  10.349   7.198 -0.5337  0.4220  0.0928
  221MOL0     C29067   4.735  10.268   7.260 -0.8993 -0.5011  0.2484
  221MOL0     C29068   4.660  10.184   7.182  0.8696 -0.1013 -1.4710
  221MOL0     C29069   4.551  10.100   7.238  0.4623  0.8369 -0.1315
  221MOL0     O29070   4.529  10.110   7.374  0.2176 -0.0873 -0.4151
  221MOL0     C29071   4.456  10.009   7.429  0.0812 -1.2174  0.7292
  221MOL0     C29072   4.316  10.021   7.421  0.5232 -0.6138  0.0499
  221MOL0     C29073   4.232   9.925   7.476 -0.0342 -0.5007 -0.2880
  221MOL0     C29074   4.281   9.804   7.533 -0.3676  0.2972  0.7293
  221MOL0     O29075   4.190   9.716   7.577  0.1130  0.8660  0.6057
  221MOL0     C29076   4.233   9.596   7.643  0.2018  0.0595  0.0307
  221MOL0     C29077   4.121   9.491   7.645  0.5493  0.6312 -0.1721
  221MOL0     C29078   4.001   9.542   7.730  0.3050  0.1846  0.7518
  221MOL0     C29079   3.883   9.451   7.695  0.1393  0.0882  0.4080
  221MOL0     C29080   3.761   9.496   7.768 -0.0691  0.4289  0.0343
  221MOL0     C29081   3.649   9.388   7.759  0.9793 -1.1585  0.2206
  221MOL0     C29082   3.537   9.430   7.852 -0.4302 -0.0392 -0.1342
  221MOL0     C29083   3.413   9.347   7.845  1.1299 -0.4089  0.3244
  221MOL0    Cl29084   3.286   9.402   7.960 -0.1831  0.0215 -0.1350
  221MOL0     C29085   4.425   9.795   7.539  0.2110  0.9712  1.3708
  221MOL0     C29086   4.506   9.893   7.498 -1.0102 -0.8461  0.3194
  221MOL0     O29087   4.499  10.016   7.162  0.0969 -0.0314  0.3198
  221MOL0     C29088   4.676  10.164   7.046  0.2496 -0.3582  0.8293
  221MOL0     C29089   4.767  10.249   6.985 -0.4365  0.5088 -0.6534
  221MOL0     N29090   5.520  10.686   6.950  0.0193 -0.8393 -0.3766
  221MOL0     N29091   5.638  10.634   6.957  0.4731  1.4052  0.0124
  221MOL0     C29092   6.742  10.594   7.220 -0.9253  0.0541 -0.8537
  221MOL0     C29093   6.857  10.610   7.289  0.2489  0.0204 -0.0084
  221MOL0     C29094   7.269  10.576   7.455  0.2777 -0.0691 -0.1020
  221MOL0     C29095   7.333  10.473   7.528  0.5040  0.2571 -0.1173
  221MOL0     C29096   7.458  10.490   7.588  0.0302 -0.0963 -0.4034
  221MOL0     C29097   7.516  10.620   7.599  0.2717  0.9193  0.7789
  221MOL0     O29098   7.631  10.645   7.667  0.2667  0.9281 -0.3467
  221MOL0     C29099   7.670  10.558   7.774  0.7950  0.3214 -0.3466
  221MOL0     C29100   7.727  10.630   7.895  0.0568  0.2723  0.6424
  221MOL0     C29101   7.843  10.736   7.882  0.6322  0.4262  0.0110
  221MOL0     C29102   7.861  10.820   8.009 -0.7360 -0.6557  0.3562
  221MOL0     C29103   7.767  10.933   8.000  0.2867  0.4613  0.9205
  221MOL0     C29104   7.703  11.035   8.013 -0.7695 -0.6793  0.6711
  221MOL0     C29105   7.454  10.721   7.528  0.3875  0.4144 -0.0505
  221MOL0     C29106   7.334  10.698   7.464 -0.0150 -0.9410  0.7433
  221MOL0     H29107   7.076  10.637   7.036 -0.2743 -0.2513 -0.4040
  221MOL0     H29108   6.868  10.601   6.904  0.8700  3.5633 -0.3098
  221MOL0     H29109   6.633  10.533   6.820  1.9602  0.1436  0.8627
  221MOL0     H29110   6.681  10.703   6.860 -1.2406  1.4827 -0.3998
  221MOL0     H29111   6.483  10.737   6.755 -0.1969  0.2275 -0.3876
  221MOL0     H29112   6.439  10.748   6.931 -2.9999  0.0319 -0.0423
  221MOL0     H29113   6.352  10.530   6.927 -0.2340 -0.6230 -0.9747
  221MOL0     H29114   6.392  10.505   6.759 -0.8001 -1.4085  1.5065
  221MOL0     H29115   6.198  10.735   6.850 -2.7864  1.3103 -2.6831
  221MOL0     H29116   6.242  10.650   6.696  1.8131 -1.6457  0.5996
  221MOL0     H29117   6.088  10.511   6.909 -3.5284  1.2743  0.0695
  221MOL0     H29118   6.133  10.452   6.744 -1.5306 -0.4337 -1.5249
  221MOL0     H29119   5.994  10.658   6.668 -1.1972  0.3658  1.1391
  221MOL0     H29120   5.958  10.679   6.843  1.6836  1.8156 -0.2225
  221MOL0     H29121   5.814  10.561   6.644  1.3067  1.0017 -0.4986
  221MOL0     H29122   5.907  10.418   6.679 -1.5338 -2.0630  1.6481
  221MOL0     H29123   5.826  10.477   6.934  0.9872  1.9832 -0.6136
  221MOL0     H29124   5.737  10.371   6.818 -1.5118  0.3063  0.0978
  221MOL0     H29125   5.518  10.494   6.689  1.2263  0.8386 -0.0199
  221MOL0     H29126   5.283  10.675   6.727  1.0586  2.5233  0.2893
  221MOL0     H29127   5.278  10.759   6.871  0.8065  1.4462 -1.6695
  221MOL0     H29128   5.187  10.558   6.988  0.2912 -1.6951 -0.4164
  221MOL0     H29129   5.266  10.441   6.879  3.1029  0.8841  1.4536
  221MOL0     H29130   5.020  10.607   6.809  2.3646  1.3060  1.2697
  221MOL0     H29131   5.114  10.491   6.697  1.1074 -1.4110  0.4795
  221MOL0     H29132   5.052  10.307   6.847 -1.7251 -0.5665 -2.2018
  221MOL0     H29133   4.906  10.391   6.804  0.3293  0.4698 -0.3451
  221MOL0     H29134   4.884  10.417   7.263  0.1063 -0.2862  0.3106
  221MOL0     H29135   4.713  10.285   7.365  1.7241 -0.1923  0.8171
  221MOL0     H29136   4.273  10.096   7.355 -0.8615 -0.7322  0.7780
  221MOL0     H29137   4.124   9.931   7.477  0.0452  1.3700  0.6210
  221MOL0     H29138   4.255   9.615   7.749 -0.5060  3.8586 -0.3652
  221MOL0     H29139   4.317   9.553   7.588 -1.7159 -0.9542 -2.3011
  221MOL0     H29140   4.155   9.402   7.698 -3.0393  0.1612  1.6213
  221MOL0     H29141   4.092   9.464   7.543 -3.0158 -2.3748  1.4007
  221MOL0     H29142   3.978   9.647   7.708 -1.9069 -0.4115 -0.0617
  221MOL0     H29143   4.034   9.530   7.833  0.7852  1.3542  0.7503
  221MOL0     H29144   3.857   9.427   7.592  4.4922 -1.9540 -0.4037
  221MOL0     H29145   3.907   9.354   7.738  1.5658  0.9383  1.6278
  221MOL0     H29146   3.720   9.589   7.727 -2.3151 -0.6792 -0.3868
  221MOL0     H29147   3.792   9.518   7.871 -0.5905  1.9233 -0.0959
  221MOL0     H29148   3.678   9.285   7.785 -1.5256 -2.2006 -0.7782
  221MOL0     H29149   3.609   9.390   7.657 -3.1602 -0.3930  1.6555
  221MOL0     H29150   3.579   9.429   7.953 -0.5453 -2.0921 -0.0586
  221MOL0     H29151   3.502   9.528   7.818  0.9565  0.6703  0.3997
  221MOL0     H29152   3.448   9.248   7.877  0.9439  0.1086  2.2321
  221MOL0     H29153   3.372   9.320   7.747  0.7070  0.3437  0.2914
  221MOL0     H29154   4.470   9.709   7.587  0.3950 -0.2280 -0.8284
  221MOL0     H29155   4.613   9.878   7.504 -0.9754 -1.7841 -1.8110
  221MOL0     H29156   4.619  10.092   6.989  1.4258 -0.6769 -0.0006
  221MOL0     H29157   4.763  10.242   6.876 -1.9060 -0.1024 -0.5909
  221MOL0     H29158   6.643  10.599   7.265 -0.1969  0.8715  0.6933
  221MOL0     H29159   6.840  10.623   7.395 -2.7015  1.1686 -0.5549
  221MOL0     H29160   7.295  10.372   7.539  4.7294 -1.5920 -0.2599
  221MOL0     H29161   7.505  10.411   7.646 -2.3162 -0.6925  0.7838
  221MOL0     H29162   7.752  10.494   7.739  1.5420  0.2028  1.4933
  221MOL0     H29163   7.584  10.501   7.812  1.0912  1.2036  1.7943
  221MOL0     H29164   7.641  10.677   7.943  0.1576  3.0009 -1.5264
  221MOL0     H29165   7.769  10.546   7.950 -1.5752 -0.9225  0.1404
  221MOL0     H29166   7.825  10.803   7.798 -2.1929  0.7675  0.7790
  221MOL0     H29167   7.937  10.683   7.865  0.2713 -0.2907  0.1860
  221MOL0     H29168   7.848  10.760   8.100 -1.6007  1.3382  1.6200
  221MOL0     H29169   7.967  10.847   8.012 -0.2005 -2.5963  0.2894
  221MOL0     H29170   7.640  11.119   8.032 -0.1233 -0.5980  2.7523
  221MOL0     H29171   7.511  10.813   7.521  2.5658 -0.9781 -1.7937
  221MOL0     H29172   7.298  10.782   7.406  3.3488  1.8920  2.4222
  222MOL0     O29173  11.280   3.123   7.270 -0.1785  0.7753  0.0311
  222MOL0     C29174  11.254   3.010   7.306 -0.3205  0.1596  0.1306
  222MOL0     O29175  11.136   2.959   7.351 -0.1266 -0.0079  0.0254
  222MOL0     C29176  11.016   3.025   7.319  0.3801  0.0869 -0.1874
  222MOL0     C29177  10.998   3.156   7.269  0.7961 -0.2762 -0.7841
  222MOL0     C29178  10.875   3.202   7.214 -0.1358  0.9014  0.4031
  222MOL0     C29179  10.760   3.122   7.231 -0.6183 -0.6297 -0.6346
  222MOL0     O29180  10.641   3.142   7.174  0.3375  0.4129  0.5866
  222MOL0     C29181  10.637   3.217   7.052  0.6080 -0.5818  1.0020
  222MOL0     C29182  10.499   3.198   6.982 -0.7045 -0.3785  0.0879
  222MOL0     C29183  10.488   3.271   6.847  0.1985 -0.2287  0.2761
  222MOL0     C29184  10.388   3.196   6.752  1.2819  0.5539  0.1017
  222MOL0     C29185  10.245   3.196   6.796 -0.6950 -0.1611 -0.8209
  222MOL0     C29186  10.138   3.109   6.716  0.4919 -0.7610 -0.7946
  222MOL0     C29187   9.995   3.172   6.703  0.9298  0.8115 -0.6493
  222MOL0     C29188   9.895   3.090   6.618 -1.1304  0.6935 -0.4940
  222MOL0     N29189   9.772   3.152   6.595  0.2672 -0.0726 -0.6081
  222MOL0     C29190   9.748   3.271   6.528 -0.2082 -0.5014 -0.1322
  222MOL0     C29191   9.613   3.273   6.504  0.5869  0.6549  0.0039
  222MOL0     C29192   9.537   3.388   6.446 -0.6344  0.9231 -0.1344
  222MOL0     C29193   9.488   3.350   6.306  0.2018 -0.0671 -0.6563
  222MOL0     C29194   9.441   3.462   6.234  0.1403  0.1173  0.1515
  222MOL0     C29195   9.327   3.542   6.296 -0.2124  0.2216  0.5270
  222MOL0     O29196   9.292   3.665   6.221  0.0241 -0.7751 -0.2438
  222MOL0     C29197   9.229   3.646   6.103 -0.8349 -1.0292 -0.5272
  222MOL0     C29198   9.115   3.563   6.082 -0.3767 -0.4548 -0.1359
  222MOL0     C29199   9.063   3.564   5.954  0.1950 -1.1170  0.3747
  222MOL0     C29200   9.125   3.627   5.846  0.2802 -0.1664  0.2553
  222MOL0     C29201   9.061   3.644   5.710 -0.0644 -0.6811 -0.4867
  222MOL0     O29202   8.943   3.584   5.694 -0.5939  0.1623  0.7288
  222MOL0     C29203   8.891   3.587   5.570  0.4782  0.8680  1.0821
  222MOL0     C29204   8.956   3.523   5.467 -0.1294  0.3987 -0.2839
  222MOL0     C29205   8.888   3.519   5.342  0.5729  0.4544  0.4797
  222MOL0     C29206   8.754   3.567   5.325  0.4458 -0.6175 -0.0365
  222MOL0     O29207   8.697   3.539   5.205 -0.5330 -0.6159  0.1882
  222MOL0     C29208   8.592   3.614   5.149  0.7319  0.6057 -0.0816
  222MOL0     C29209   8.516   3.536   5.038 -0.3555  0.7838  0.3324
  222MOL0     C29210   8.413   3.620   4.959  0.2609 -0.2285 -0.2499
  222MOL0     C29211   8.281   3.539   4.918 -0.4451 -0.4124  0.0354
  222MOL0     C29212   8.311   3.414   4.832 -0.2440 -0.6862 -0.4134
  222MOL0     C29213   8.199   3.391   4.719  0.9309 -0.0695  0.1620
  222MOL0     C29214   8.215   3.256   4.648 -0.3845 -0.1109 -0.1245
  222MOL0     C29215   8.080   3.199   4.598  1.1404  0.0853 -0.6052
  222MOL0    Cl29216   7.988   3.312   4.483 -0.1886  0.1153 -0.1044
  222MOL0     C29217   8.697   3.644   5.431 -0.3088  0.6262  0.0981
  222MOL0     C29218   8.763   3.651   5.558 -0.8744  0.2502 -0.2992
  222MOL0     O29219   9.121   3.710   5.623 -0.4486  0.7442  0.2662
  222MOL0     C29220   9.237   3.699   5.874  0.0438  0.0117 -0.5328
  222MOL0     C29221   9.286   3.718   6.003  0.0882  0.6892 -0.0758
  222MOL0     N29222   9.557   3.167   6.569 -0.7935  0.0947 -0.4219
  222MOL0     N29223   9.648   3.098   6.620  0.1197  0.6771  0.2032
  222MOL0     C29224  10.771   3.002   7.296 -0.0865  0.0774 -0.5575
  222MOL0     C29225  10.896   2.958   7.337 -0.1941  0.1635  0.3748
  222MOL0     C29226  11.360   2.899   7.294 -0.6688  0.4331 -0.1316
  222MOL0     C29227  11.327   2.761   7.276 -0.4343  0.1331 -0.4802
  222MOL0     C29228  11.428   2.665   7.278 -0.0490 -1.2005 -0.8084
  222MOL0     C29229  11.563   2.709   7.295 -0.0746  0.3301 -0.4737
  222MOL0     O29230  11.672   2.629   7.294  0.1308  0.4525 -0.1805
  222MOL0     C29231  11.672   2.490   7.266 -0.0733  0.1496  0.6949
  222MOL0     C29232  11.732   2.456   7.127 -0.2677 -0.1400 -0.2389
  222MOL0     C29233  11.868   2.528   7.102 -0.1361 -0.4301 -0.1745
  222MOL0     C29234  11.978   2.471   7.188 -0.4811  0.0762 -0.4643
  222MOL0     C29235  12.108   2.528   7.144  0.8204  0.8123  0.4867
  222MOL0     C29236  12.215   2.570   7.099 -0.4998 -0.1247 -1.2267
  222MOL0     C29237  11.598   2.845   7.314  0.3503  0.3552 -0.1166
  222MOL0     C29238  11.496   2.939   7.304  0.4828  0.9837 -0.2347
  222MOL0     H29239  11.071   3.236   7.254 -1.3209  1.6427 -1.4658
  222MOL0     H29240  10.871   3.298   7.164  2.0446  0.2660 -1.1569
  222MOL0     H29241  10.711   3.167   6.989  0.3060  0.1271  0.0383
  222MOL0     H29242  10.654   3.324   7.068 -0.2613 -0.3307  0.3701
  222MOL0     H29243  10.415   3.218   7.048 -0.1237 -0.1923  0.7824
  222MOL0     H29244  10.504   3.090   6.967  1.1398 -0.3422  0.1914
  222MOL0     H29245  10.585   3.267   6.797  0.1519  1.9430 -0.0729
  222MOL0     H29246  10.460   3.376   6.860  0.3031  0.3718 -3.3325
  222MOL0     H29247  10.406   3.239   6.653 -1.0706  0.6094 -0.3730
  222MOL0     H29248  10.426   3.093   6.760 -0.7593 -0.1378  2.2644
  222MOL0     H29249  10.216   3.301   6.805  0.5027 -0.0065  2.4467
  222MOL0     H29250  10.235   3.157   6.897 -0.3800  3.0492  0.5754
  222MOL0     H29251  10.134   3.012   6.766 -1.1821  0.3142  1.3124
  222MOL0     H29252  10.178   3.086   6.616 -1.7181  0.1629 -1.9615
  222MOL0     H29253   9.955   3.177   6.805 -1.0373 -2.1852 -1.1698
  222MOL0     H29254  10.004   3.271   6.656 -0.8314  0.5790 -1.5378
  222MOL0     H29255   9.874   3.001   6.678  0.6528 -1.2549 -2.5530
  222MOL0     H29256   9.940   3.044   6.530  0.1675 -0.3222  0.6585
  222MOL0     H29257   9.820   3.349   6.505 -1.6835  1.2513  0.9211
  222MOL0     H29258   9.615   3.463   6.431 -1.5778  2.3433  1.7140
  222MOL0     H29259   9.454   3.425   6.507 -0.3345 -0.4038  1.1192
  222MOL0     H29260   9.410   3.274   6.321  0.6367 -0.3609  0.2043
  222MOL0     H29261   9.558   3.298   6.240 -2.5167 -0.1256 -3.7164
  222MOL0     H29262   9.529   3.522   6.208  1.6523 -2.6265 -1.5467
  222MOL0     H29263   9.405   3.431   6.136 -1.4783  1.9037  0.1247
  222MOL0     H29264   9.361   3.587   6.390 -1.4537 -1.3726  1.8041
  222MOL0     H29265   9.247   3.468   6.305  1.7855 -1.8496  4.0550
  222MOL0     H29266   9.067   3.502   6.159  0.4248 -0.7890  0.1093
  222MOL0     H29267   8.977   3.498   5.951 -0.6945  0.0365 -1.2519
  222MOL0     H29268   9.053   3.474   5.475 -0.2398  0.4033  1.4055
  222MOL0     H29269   8.940   3.465   5.265 -0.0145 -2.9132  2.2318
  222MOL0     H29270   8.635   3.707   5.111 -0.9019 -0.0955 -4.1727
  222MOL0     H29271   8.511   3.630   5.221  2.3745 -0.4509  2.1276
  222MOL0     H29272   8.456   3.460   5.088  0.2300  0.8676  1.1821
  222MOL0     H29273   8.585   3.493   4.965  2.1545  2.7363  1.3938
  222MOL0     H29274   8.459   3.669   4.873 -0.6787 -2.2924 -1.9966
  222MOL0     H29275   8.364   3.693   5.024  1.9671  0.7664 -0.0139
  222MOL0     H29276   8.218   3.507   5.002 -1.4667  1.0071 -0.1643
  222MOL0     H29277   8.214   3.614   4.875 -2.4341 -0.2381  3.1450
  222MOL0     H29278   8.333   3.326   4.894 -1.0390  0.1642  1.1207
  222MOL0     H29279   8.402   3.437   4.776  0.3140  3.8061  1.8859
  222MOL0     H29280   8.206   3.472   4.646  3.5701 -2.3049 -2.2585
  222MOL0     H29281   8.101   3.398   4.768  0.0718  0.8320 -1.5983
  222MOL0     H29282   8.281   3.272   4.562 -0.0978  1.1323  0.3082
  222MOL0     H29283   8.251   3.193   4.730 -1.3688 -0.2124  0.2431
  222MOL0     H29284   8.024   3.191   4.691 -0.2636  2.9861 -1.1124
  222MOL0     H29285   8.094   3.103   4.548  1.1996 -0.8509  1.1225
  222MOL0     H29286   8.597   3.687   5.424  0.9446  3.5541 -1.8252
  222MOL0     H29287   8.723   3.701   5.646 -1.7131 -1.2232  0.1862
  222MOL0     H29288   9.291   3.745   5.792  1.9547 -3.0231 -1.1338
  222MOL0     H29289   9.364   3.790   6.025  0.5025  0.6718 -1.3956
  222MOL0     H29290  10.679   2.949   7.319  0.7603 -2.5368 -2.6174
  222MOL0     H29291  10.888   2.881   7.413 -3.9492  0.7156  0.7315
  222MOL0     H29292  11.229   2.715   7.265  0.1218 -1.2104 -0.0581
  222MOL0     H29293  11.394   2.562   7.266  0.1281 -2.0830  4.2693
  222MOL0     H29294  11.578   2.435   7.276  0.1054 -0.4664 -0.7122
  222MOL0     H29295  11.735   2.442   7.341  0.7125 -1.8591 -1.1352
  222MOL0     H29296  11.751   2.348   7.125  1.8112  0.1801 -0.5770
  222MOL0     H29297  11.657   2.489   7.055 -0.1144 -0.0332 -0.3524
  222MOL0     H29298  11.866   2.636   7.115 -0.9297 -0.6649  2.0639
  222MOL0     H29299  11.877   2.504   6.996 -0.9442  0.0422 -0.3544
  222MOL0     H29300  11.978   2.519   7.286  3.2411 -2.4693  1.0163
  222MOL0     H29301  11.971   2.363   7.196 -1.2375  0.0039 -1.8028
  222MOL0     H29302  12.315   2.596   7.071  0.4834 -2.2662  0.0060
  222MOL0     H29303  11.704   2.866   7.325  0.5118 -1.0891  1.3855
  222MOL0     H29304  11.531   3.040   7.324  2.5838  0.3538 -0.4966
  223MOL0     O29305   6.422   6.370   8.415  0.6259 -0.2782 -0.1703
  223MOL0     C29306   6.488   6.452   8.470 -0.3243  0.5773 -0.1755
  223MOL0     O29307   6.435   6.571   8.522 -0.3344  0.1433 -0.0710
  223MOL0     C29308   6.308   6.615   8.492  0.2287  0.1789 -0.7022
  223MOL0     C29309   6.273   6.669   8.376  0.2631  1.0781 -0.2340
  223MOL0     C29310   6.142   6.702   8.340  0.2542 -0.3463 -0.1918
  223MOL0     C29311   6.046   6.690   8.434  0.4001  0.3865 -0.3889
  223MOL0     O29312   5.922   6.731   8.395  0.3257 -0.0295  0.2807
  223MOL0     C29313   5.819   6.753   8.492  1.2032  0.3282  0.1370
  223MOL0     C29314   5.737   6.619   8.514  0.7232 -0.6077 -0.3292
  223MOL0     C29315   5.606   6.642   8.591 -0.5223 -0.1587 -0.8373
  223MOL0     C29316   5.493   6.711   8.500 -0.6454 -0.3292 -0.3016
  223MOL0     C29317   5.368   6.727   8.573  0.4026 -1.4507 -0.0691
  223MOL0     C29318   5.365   6.855   8.660 -0.5292 -0.9815  1.3129
  223MOL0     C29319   5.242   6.877   8.744 -0.5965 -0.5146  0.3148
  223MOL0     C29320   5.129   6.942   8.654 -0.1576 -0.6210 -1.3734
  223MOL0     N29321   5.017   6.939   8.744 -0.5457 -0.1430 -0.7728
  223MOL0     C29322   4.952   7.041   8.800 -0.3587  0.1297 -0.3828
  223MOL0     C29323   4.835   6.988   8.854  0.2961 -0.5763  0.8183
  223MOL0     C29324   4.737   7.071   8.936  0.2656 -0.0632 -0.7166
  223MOL0     C29325   4.589   7.071   8.886 -0.4279  0.3786 -0.1963
  223MOL0     C29326   4.514   6.948   8.922  0.2203  0.3659  0.8238
  223MOL0     C29327   4.375   6.958   8.871 -0.2433  0.5834  0.7858
  223MOL0     O29328   4.286   7.042   8.943 -0.1680 -0.2344  0.0317
  223MOL0     C29329   4.151   7.041   8.909  0.0692  0.3103  0.1477
  223MOL0     C29330   4.091   6.970   8.803 -0.1702 -0.0434 -0.4143
  223MOL0     C29331   3.959   6.982   8.769  0.4861 -0.4499  0.7597
  223MOL0     C29332   3.871   7.062   8.846 -0.7425  0.7890 -0.2495
  223MOL0     C29333   3.727   7.065   8.829 -0.4346  0.4156  1.1628
  223MOL0     O29334   3.670   7.150   8.911  0.6225 -0.6912  1.2582
  223MOL0     C29335   3.531   7.169   8.918  0.2229 -0.0038 -0.5951
  223MOL0     C29336   3.482   7.260   9.017  0.6736 -0.7472 -0.3009
  223MOL0     C29337   3.338   7.289   9.028 -0.1011  0.5130  0.0384
  223MOL0     C29338   3.249   7.232   8.936 -0.1982 -0.6210  0.8081
  223MOL0     O29339   3.115   7.261   8.920 -0.1642 -0.2228 -0.3998
  223MOL0     C29340   3.043   7.327   9.020 -0.5591 -0.0518  0.0800
  223MOL0     C29341   2.896   7.340   8.975  0.3153 -0.2865  0.4928
  223MOL0     C29342   2.820   7.210   8.980 -0.5224 -0.6895  0.2370
  223MOL0     C29343   2.716   7.206   8.866  0.3951  1.0628  0.6524
  223MOL0     C29344   2.619   7.083   8.877 -0.9645 -0.1303  0.2918
  223MOL0     C29345   2.507   7.076   8.777 -0.1787 -1.0197  0.0338
  223MOL0     C29346   2.429   6.943   8.791  0.2031  0.8241  0.1752
  223MOL0     C29347   2.365   6.933   8.922 -0.4654  0.1423 -0.8062
  223MOL0    Cl29348   2.249   6.790   8.918  0.3617  0.1398  0.4672
  223MOL0     C29349   3.302   7.148   8.836  0.6209  0.7166  0.5685
  223MOL0     C29350   3.430   7.105   8.843 -0.5662  0.2049 -0.6396
  223MOL0     O29351   3.679   6.978   8.752 -0.2861 -0.2539 -0.6403
  223MOL0     C29352   3.929   7.137   8.944  1.1114 -0.1924  1.0080
  223MOL0     C29353   4.073   7.135   8.970  0.2507  1.0257  0.9234
  223MOL0     N29354   4.837   6.849   8.836  0.5417  0.1141  0.3260
  223MOL0     N29355   4.959   6.823   8.790  0.1867 -0.1207 -0.1292
  223MOL0     C29356   6.082   6.631   8.555  0.1480  0.4545 -0.4196
  223MOL0     C29357   6.210   6.598   8.585 -0.2928  0.6388  0.2263
  223MOL0     C29358   6.634   6.429   8.453  0.6240 -0.3449 -0.0987
  223MOL0     C29359   6.730   6.511   8.515  0.7266  0.0264 -0.3342
  223MOL0     C29360   6.863   6.486   8.503 -0.1608 -0.1712  0.1295
  223MOL0     C29361   6.908   6.376   8.442 -0.5410  0.8613  0.6489
  223MOL0     O29362   7.039   6.343   8.442  0.5978 -0.8698  0.1954
  223MOL0     C29363   7.092   6.399   8.316 -0.0953  0.5068 -0.8281
  223MOL0     C29364   7.236   6.439   8.353  0.0647  0.8148  0.1462
  223MOL0     C29365   7.316   6.317   8.398 -0.2405 -0.0608  0.7134
  223MOL0     C29366   7.464   6.329   8.368  0.3465 -0.0606 -0.1594
  223MOL0     C29367   7.497   6.348   8.231  0.0131 -0.3405  0.4671
  223MOL0     C29368   7.532   6.352   8.116 -0.2685 -0.5127  0.0760
  223MOL0     C29369   6.817   6.298   8.385 -0.3865  0.6254 -0.4988
  223MOL0     C29370   6.685   6.316   8.395 -0.2470 -0.1501 -0.5722
  223MOL0     H29371   6.350   6.692   8.303 -0.7002  2.8553 -0.7660
  223MOL0     H29372   6.123   6.744   8.242  2.6795 -0.0091 -0.5825
  223MOL0     H29373   5.754   6.832   8.451 -0.3863  0.0792  2.0225
  223MOL0     H29374   5.853   6.781   8.592 -0.7509  0.9298  0.6883
  223MOL0     H29375   5.800   6.548   8.568  0.6287 -1.2930 -1.1026
  223MOL0     H29376   5.712   6.584   8.413  2.7013  1.9972 -1.8629
  223MOL0     H29377   5.619   6.711   8.675  1.3139 -0.3751 -0.9038
  223MOL0     H29378   5.574   6.550   8.641 -2.5802  0.1830 -1.4206
  223MOL0     H29379   5.523   6.813   8.475  1.1510 -0.9422 -0.8103
  223MOL0     H29380   5.478   6.655   8.407  0.4248  0.1344 -0.7759
  223MOL0     H29381   5.347   6.646   8.643  1.2954  0.1729  2.2027
  223MOL0     H29382   5.295   6.737   8.492  0.0527 -0.9100  0.3072
  223MOL0     H29383   5.385   6.942   8.597 -1.1142 -1.4657  0.4384
  223MOL0     H29384   5.454   6.848   8.723  0.3566  1.2592  0.4263
  223MOL0     H29385   5.200   6.781   8.775 -1.3664 -1.2748 -2.7983
  223MOL0     H29386   5.274   6.938   8.829 -2.5818  2.4101 -0.8688
  223MOL0     H29387   5.110   6.899   8.555  0.5103 -0.5819 -1.5262
  223MOL0     H29388   5.159   7.047   8.643 -0.7859  0.1186  2.4101
  223MOL0     H29389   4.976   7.147   8.805 -0.2448  0.0437  1.1676
  223MOL0     H29390   4.772   7.174   8.949  1.1146 -0.4479  0.1454
  223MOL0     H29391   4.729   7.020   9.032 -0.3455 -1.0463 -1.2763
  223MOL0     H29392   4.601   7.074   8.778  2.0981  1.0243  0.0483
  223MOL0     H29393   4.537   7.164   8.911  3.6166  2.4020  1.5826
  223MOL0     H29394   4.557   6.869   8.860 -0.0785 -0.4258  1.6162
  223MOL0     H29395   4.514   6.929   9.030  0.8235  3.1556  1.3962
  223MOL0     H29396   4.330   6.859   8.884  1.4617 -0.2170  0.8440
  223MOL0     H29397   4.387   6.994   8.768 -0.0170  0.5080  0.7861
  223MOL0     H29398   4.152   6.899   8.748  1.8041  0.0348  1.5645
  223MOL0     H29399   3.931   6.927   8.680 -1.5261  0.1460  0.9783
  223MOL0     H29400   3.551   7.307   9.087 -0.2536 -0.5046  0.4748
  223MOL0     H29401   3.303   7.355   9.107 -1.2048 -3.2609  3.0228
  223MOL0     H29402   3.071   7.431   9.038 -1.1903  0.3502 -1.1586
  223MOL0     H29403   3.056   7.255   9.101 -2.4316 -3.4173 -2.3537
  223MOL0     H29404   2.896   7.378   8.872  3.5410 -0.5832  0.2868
  223MOL0     H29405   2.856   7.417   9.043 -0.0016 -1.1377  1.2883
  223MOL0     H29406   2.769   7.199   9.076 -1.1798 -2.1836 -0.2511
  223MOL0     H29407   2.887   7.125   8.960 -0.5477 -0.9337  1.1823
  223MOL0     H29408   2.649   7.291   8.880 -2.2191 -0.8471  0.4330
  223MOL0     H29409   2.767   7.205   8.769  0.5947 -4.7703  0.4841
  223MOL0     H29410   2.591   7.076   8.982  2.0912  0.8327  1.2646
  223MOL0     H29411   2.677   6.992   8.858  1.4091  1.3261  0.1870
  223MOL0     H29412   2.533   7.087   8.671 -3.2585  2.0081 -0.5691
  223MOL0     H29413   2.440   7.162   8.785  3.8603  2.6409 -1.5294
  223MOL0     H29414   2.358   6.942   8.709  2.3999  1.5115 -1.8635
  223MOL0     H29415   2.500   6.861   8.774  0.8845  1.2055  1.0512
  223MOL0     H29416   2.317   7.025   8.957  0.0413 -0.9083  3.2133
  223MOL0     H29417   2.438   6.922   9.003  3.4376  0.2789 -3.9927
  223MOL0     H29418   3.230   7.116   8.761 -0.8061  1.8420  1.3949
  223MOL0     H29419   3.453   7.013   8.791 -0.3197 -0.9470  1.3914
  223MOL0     H29420   3.886   7.212   9.010  3.8565  0.1437  2.5860
  223MOL0     H29421   4.109   7.196   9.052 -1.4744  3.9018 -0.2965
  223MOL0     H29422   6.013   6.625   8.638  0.3113 -2.7449 -0.3891
  223MOL0     H29423   6.230   6.561   8.685 -0.9483  0.3413  0.2505
  223MOL0     H29424   6.708   6.601   8.572 -2.7353 -0.4539 -0.7174
  223MOL0     H29425   6.933   6.554   8.550  0.5398 -0.9513  0.2183
  223MOL0     H29426   7.036   6.487   8.283 -1.7340 -0.8412 -1.8403
  223MOL0     H29427   7.073   6.318   8.245  0.1696 -0.9331  0.6666
  223MOL0     H29428   7.277   6.493   8.267  1.6693 -2.3055 -1.2153
  223MOL0     H29429   7.241   6.517   8.429  3.3084  0.1095  0.8021
  223MOL0     H29430   7.286   6.219   8.359 -0.0593  0.0557  0.2851
  223MOL0     H29431   7.314   6.312   8.508 -0.2023 -2.8214  0.6647
  223MOL0     H29432   7.488   6.413   8.433  0.3590 -0.0243 -0.2115
  223MOL0     H29433   7.516   6.244   8.414  0.2723  0.7378  1.4550
  223MOL0     H29434   7.574   6.356   8.017  1.7058  2.5413  0.9268
  223MOL0     H29435   6.862   6.215   8.331 -0.3606  1.0656 -1.1618
  223MOL0     H29436   6.620   6.234   8.363  1.8272 -1.4832 -1.5852
  224MOL0     O29437   4.206   6.629   9.284 -0.3282 -0.3711 -0.0681
  224MOL0     C29438   4.264   6.646   9.171  0.6077 -0.0734 -0.7096
  224MOL0     O29439   4.193   6.658   9.054 -0.7671 -0.3086 -0.1827
  224MOL0     C29440   4.057   6.661   9.067 -0.2686  0.0669  0.3808
  224MOL0     C29441   3.982   6.778   9.086  0.3175 -0.5902 -0.4267
  224MOL0     C29442   3.853   6.784   9.082  0.6959  0.4092 -0.7261
  224MOL0     C29443   3.779   6.673   9.049 -0.6397  0.4939 -0.7882
  224MOL0     O29444   3.642   6.651   9.040 -0.3520  0.7635  0.4213
  224MOL0     C29445   3.556   6.759   9.065 -0.7511  0.1425  0.5398
  224MOL0     C29446   3.414   6.710   9.046  0.6358  0.5193  0.4857
  224MOL0     C29447   3.315   6.828   9.071  0.4891  0.3190 -0.3537
  224MOL0     C29448   3.170   6.777   9.080  0.8647 -0.7640 -0.4262
  224MOL0     C29449   3.075   6.886   9.035  0.4377 -0.1138 -0.0864
  224MOL0     C29450   2.925   6.849   9.043 -0.4218  1.2385  0.2672
  224MOL0     C29451   2.852   6.902   9.176 -0.4231  0.3043  0.2698
  224MOL0     C29452   2.707   6.844   9.194 -0.1899  0.3684 -0.0314
  224MOL0     N29453   2.705   6.696   9.204  0.0459 -0.2269  0.3690
  224MOL0     C29454   2.789   6.620   9.284 -0.2094 -0.1757  0.0898
  224MOL0     C29455   2.736   6.500   9.262  0.0201  0.4103  0.2787
  224MOL0     C29456   2.774   6.367   9.328  0.6967 -0.4210 -0.0357
  224MOL0     C29457   2.885   6.291   9.255  0.0358 -0.2156 -0.2666
  224MOL0     C29458   3.029   6.342   9.297 -0.0839  0.9894  1.0824
  224MOL0     C29459   3.138   6.252   9.226  0.9873 -0.4015 -0.3798
  224MOL0     O29460   3.260   6.321   9.218  0.0631  0.3744 -0.5428
  224MOL0     C29461   3.379   6.256   9.210 -0.5601 -0.3586 -0.0028
  224MOL0     C29462   3.485   6.347   9.219  0.1983  0.1805  0.5648
  224MOL0     C29463   3.621   6.308   9.201  0.2180  0.1450  0.5327
  224MOL0     C29464   3.647   6.180   9.162 -0.2365 -0.2838 -0.0138
  224MOL0     C29465   3.789   6.144   9.125  1.1042 -1.2797  0.0801
  224MOL0     O29466   3.813   6.012   9.117 -0.2034  0.0134  0.3391
  224MOL0     C29467   3.935   5.967   9.072 -0.0531  0.9806 -0.4764
  224MOL0     C29468   4.050   5.991   9.146 -0.2448 -0.3379  0.2165
  224MOL0     C29469   4.174   5.928   9.116  0.6471  0.4254 -0.5245
  224MOL0     C29470   4.176   5.841   9.007  0.0495  0.5670  0.5130
  224MOL0     O29471   4.283   5.768   8.967  0.5845  0.9187  0.4879
  224MOL0     C29472   4.299   5.716   8.830 -0.6830  0.3841 -0.4599
  224MOL0     C29473   4.451   5.700   8.799  0.3146 -0.0212  0.6208
  224MOL0     C29474   4.529   5.594   8.859 -0.4784 -0.6737 -0.5120
  224MOL0     C29475   4.502   5.452   8.808 -0.8302 -0.2974 -0.4233
  224MOL0     C29476   4.621   5.351   8.837 -0.0345 -0.2309 -0.2775
  224MOL0     C29477   4.609   5.205   8.786 -0.4108  0.0365  0.1253
  224MOL0     C29478   4.593   5.184   8.630  0.3516 -0.4414  0.2532
  224MOL0     C29479   4.720   5.159   8.558  0.6341 -0.1697  0.1539
  224MOL0    Cl29480   4.809   5.310   8.562 -0.4306 -0.4364 -0.5709
  224MOL0     C29481   4.056   5.805   8.947 -0.3989  0.0377 -0.1204
  224MOL0     C29482   3.937   5.871   8.973 -0.1627  0.2682  0.3674
  224MOL0     O29483   3.868   6.232   9.098  0.5026 -0.4644  0.3591
  224MOL0     C29484   3.541   6.085   9.165  0.3936  0.0887 -0.0649
  224MOL0     C29485   3.406   6.125   9.172 -0.4150  0.0032  0.3630
  224MOL0     N29486   2.630   6.503   9.177 -0.0741 -0.2456 -0.3310
  224MOL0     N29487   2.617   6.627   9.136 -0.5909 -0.6714  0.6852
  224MOL0     C29488   3.850   6.553   9.008  0.2415 -0.0640  0.2142
  224MOL0     C29489   3.987   6.547   9.021  0.8177  0.1213 -0.3964
  224MOL0     C29490   4.409   6.645   9.157  0.0723  0.3627 -0.0093
  224MOL0     C29491   4.466   6.589   9.047  0.4721  1.0927  0.0023
  224MOL0     C29492   4.602   6.563   9.041  0.3330  0.2635  0.2485
  224MOL0     C29493   4.685   6.597   9.146 -0.1900 -0.0611 -0.2915
  224MOL0     O29494   4.827   6.594   9.140  0.1703 -0.6169  0.6257
  224MOL0     C29495   4.886   6.527   9.024  0.3780 -0.3259 -0.5196
  224MOL0     C29496   5.037   6.537   9.055  0.8159 -0.0797  0.3419
  224MOL0     C29497   5.110   6.469   8.934 -0.1492 -1.2668 -0.1083
  224MOL0     C29498   5.185   6.338   8.963 -0.1577  0.0427 -0.5071
  224MOL0     C29499   5.260   6.337   9.095  1.1813 -0.1531  0.1942
  224MOL0     C29500   5.320   6.336   9.196 -0.7258 -0.6574  0.3208
  224MOL0     C29501   4.625   6.648   9.260  0.1870 -0.2434  0.3964
  224MOL0     C29502   4.488   6.678   9.264 -0.7068 -0.5840  0.0630
  224MOL0     H29503   4.038   6.865   9.118 -0.2898  0.0611 -1.0851
  224MOL0     H29504   3.812   6.883   9.102 -0.6450  0.4433 -3.2367
  224MOL0     H29505   3.573   6.845   8.999 -1.0930 -0.5921 -0.5395
  224MOL0     H29506   3.583   6.785   9.168  2.3512  0.9714 -0.3516
  224MOL0     H29507   3.396   6.621   9.107  2.6802  0.2704  0.8136
  224MOL0     H29508   3.402   6.684   8.940  4.9831  3.6413 -1.0858
  224MOL0     H29509   3.324   6.895   8.985  0.0048  0.8607  0.0113
  224MOL0     H29510   3.332   6.889   9.160 -0.8795  2.9087 -1.7439
  224MOL0     H29511   3.151   6.689   9.018 -0.0533 -0.9457  0.0892
  224MOL0     H29512   3.162   6.733   9.180  1.3626  0.1026  0.0037
  224MOL0     H29513   3.098   6.922   8.935  0.3750  2.0719  0.6350
  224MOL0     H29514   3.087   6.969   9.106  3.4486 -2.2670  2.2277
  224MOL0     H29515   2.923   6.740   9.050  0.3262  1.2537  0.7705
  224MOL0     H29516   2.874   6.875   8.950 -0.8173 -2.0507 -0.5624
  224MOL0     H29517   2.917   6.873   9.259  0.6201 -0.0499 -0.6474
  224MOL0     H29518   2.851   7.012   9.175 -1.4605  0.3056  0.1728
  224MOL0     H29519   2.652   6.861   9.101 -1.4085 -1.8717  0.2255
  224MOL0     H29520   2.643   6.885   9.273  0.2997 -1.3666  1.3347
  224MOL0     H29521   2.869   6.664   9.343  1.6026  0.1108 -2.3983
  224MOL0     H29522   2.684   6.305   9.330  0.3653  0.0732  1.5593
  224MOL0     H29523   2.810   6.385   9.430 -0.2298 -1.8982  0.5807
  224MOL0     H29524   2.862   6.306   9.149 -3.0794  1.6043  0.5371
  224MOL0     H29525   2.876   6.183   9.270 -1.4154 -0.4362 -2.2706
  224MOL0     H29526   3.048   6.441   9.254  0.5427  1.3246  2.1088
  224MOL0     H29527   3.052   6.341   9.404  4.3875  0.0164  0.2949
  224MOL0     H29528   3.101   6.238   9.124 -0.5473 -0.1759  0.1323
  224MOL0     H29529   3.132   6.155   9.276 -0.1072 -0.1951 -0.0943
  224MOL0     H29530   3.474   6.455   9.228  2.0579  0.9345 -3.7125
  224MOL0     H29531   3.689   6.391   9.186  1.8514 -1.6195 -2.6539
  224MOL0     H29532   4.048   6.062   9.228 -0.9012 -2.2855  1.9700
  224MOL0     H29533   4.269   5.942   9.166  0.6752  1.6293 -0.8702
  224MOL0     H29534   4.262   5.794   8.763 -2.4690 -0.8244 -0.9434
  224MOL0     H29535   4.234   5.630   8.816 -1.9752  1.1620  0.5235
  224MOL0     H29536   4.487   5.800   8.825 -3.1421  0.9184  2.3942
  224MOL0     H29537   4.446   5.701   8.689  1.3861  2.1713  0.5519
  224MOL0     H29538   4.515   5.593   8.968  1.0870  1.1497 -0.2458
  224MOL0     H29539   4.635   5.612   8.842 -0.1831 -0.1141  1.6622
  224MOL0     H29540   4.404   5.419   8.843 -0.8113 -0.5147 -0.5787
  224MOL0     H29541   4.499   5.470   8.700 -0.5703  0.4029 -0.3190
  224MOL0     H29542   4.623   5.343   8.947 -1.5665  0.2338 -0.2009
  224MOL0     H29543   4.711   5.397   8.795 -0.4684 -0.0140 -0.9812
  224MOL0     H29544   4.521   5.157   8.830 -0.7788 -0.9792 -1.6268
  224MOL0     H29545   4.696   5.150   8.824  1.9965  1.8617 -2.3932
  224MOL0     H29546   4.528   5.098   8.614 -1.0339  0.6004  0.0449
  224MOL0     H29547   4.554   5.278   8.589  0.9070  0.2419  1.2364
  224MOL0     H29548   4.696   5.131   8.455 -1.6146 -3.6284  1.4294
  224MOL0     H29549   4.759   5.067   8.603 -0.3361 -1.3366 -1.2912
  224MOL0     H29550   4.048   5.723   8.877  0.7767  0.5414 -0.8675
  224MOL0     H29551   3.847   5.839   8.921  0.8078 -1.0448 -0.5998
  224MOL0     H29552   3.555   5.981   9.136 -1.8566  0.0509 -1.2722
  224MOL0     H29553   3.333   6.046   9.186 -0.8582  0.4998  0.9341
  224MOL0     H29554   3.802   6.462   8.972 -1.5469  1.3633 -1.2082
  224MOL0     H29555   4.039   6.458   8.990 -0.9673 -1.4853  0.9835
  224MOL0     H29556   4.413   6.556   8.958  0.8533  0.1481  0.1120
  224MOL0     H29557   4.645   6.524   8.949  3.1216  2.8770  0.2983
  224MOL0     H29558   4.866   6.581   8.931 -1.6761 -0.7602 -0.3626
  224MOL0     H29559   4.848   6.426   9.002 -0.3193 -0.3269  0.6190
  224MOL0     H29560   5.065   6.642   9.048 -0.9812  0.4871  1.0687
  224MOL0     H29561   5.062   6.493   9.152 -1.3834  1.4118  1.6662
  224MOL0     H29562   5.191   6.539   8.911  1.9202 -3.6254 -0.4571
  224MOL0     H29563   5.039   6.456   8.852 -2.2678  0.2927  1.3622
  224MOL0     H29564   5.125   6.247   8.977  1.8615 -0.9146  3.8033
  224MOL0     H29565   5.256   6.315   8.883 -0.3489 -2.7155  0.0174
  224MOL0     H29566   5.379   6.345   9.285  1.7254  0.6043 -1.3298
  224MOL0     H29567   4.682   6.655   9.352 -1.5553  0.7573  1.4574
  224MOL0     H29568   4.449   6.710   9.360 -2.2000 -1.1957 -0.3090
  225MOL0     O29569   1.683   7.884   4.259 -0.0772 -0.1981  0.0448
  225MOL0     C29570   1.660   7.950   4.357  0.2236 -0.6194 -0.4828
  225MOL0     O29571   1.545   8.015   4.383 -0.1501 -0.2509  0.0348
  225MOL0     C29572   1.434   8.003   4.308  0.2386  0.1415  1.1830
  225MOL0     C29573   1.370   8.121   4.265 -0.4276  0.6776 -0.2119
  225MOL0     C29574   1.251   8.105   4.193  0.0890 -0.4681  0.3069
  225MOL0     C29575   1.207   7.982   4.146 -0.4583  0.1636 -0.2825
  225MOL0     O29576   1.084   7.983   4.088  0.3110 -1.2077 -0.8801
  225MOL0     C29577   1.045   7.858   4.018  0.3135  0.1306  0.4152
  225MOL0     C29578   0.901   7.870   3.968  0.5300  0.5640  0.0364
  225MOL0     C29579   0.890   7.977   3.854  0.8303 -0.1572  0.1135
  225MOL0     C29580   0.739   7.966   3.817  0.1306  0.5439  0.5925
  225MOL0     C29581   0.698   8.023   3.680  0.9433  1.0807  0.5417
  225MOL0     C29582   0.584   7.938   3.608  0.2508 -0.4996  0.4305
  225MOL0     C29583   0.528   8.010   3.482  0.6494  0.5199  0.6209
  225MOL0     C29584   0.640   8.044   3.379 -0.0656 -0.4415 -0.5463
  225MOL0     N29585   0.572   8.127   3.277 -0.6566  0.0732 -0.1584
  225MOL0     C29586   0.513   8.257   3.302  0.6497  0.0764  0.7749
  225MOL0     C29587   0.452   8.283   3.177  0.1917  0.6126 -0.7598
  225MOL0     C29588   0.362   8.401   3.133 -0.9099  0.1526  0.0572
  225MOL0     C29589   0.238   8.362   3.064 -0.1976  0.8387  0.2690
  225MOL0     C29590   0.142   8.488   3.052 -1.4172 -0.5426  0.5105
  225MOL0     C29591   0.010   8.458   2.981  0.0730 -0.8252 -0.3846
  225MOL0     O29592   0.029   8.475   2.845 -0.1816 -0.6581 -0.0151
  225MOL0     C29593  -0.061   8.543   2.775 -0.5592 -1.2621  0.2534
  225MOL0     C29594  -0.196   8.531   2.782 -0.0356 -0.2919  0.5384
  225MOL0     C29595  -0.286   8.611   2.712  0.2087  0.0860 -1.0272
  225MOL0     C29596  -0.244   8.689   2.608  1.3275 -0.4909  0.0296
  225MOL0     C29597  -0.337   8.769   2.526 -1.1595 -0.0512  0.6699
  225MOL0     O29598  -0.463   8.738   2.540  0.1522  0.4865  0.0587
  225MOL0     C29599  -0.563   8.763   2.446  0.6257  0.0552  0.2491
  225MOL0     C29600  -0.636   8.653   2.389 -0.0095 -0.1332  0.4309
  225MOL0     C29601  -0.752   8.673   2.302  0.7117 -0.4947  0.9416
  225MOL0     C29602  -0.793   8.807   2.278 -0.6788  0.2192 -0.2452
  225MOL0     O29603  -0.901   8.824   2.191  0.3677  0.0665 -0.0555
  225MOL0     C29604  -0.860   8.871   2.067 -1.5976 -0.5017 -0.2268
  225MOL0     C29605  -0.980   8.916   1.988  0.0053 -0.3077 -0.0258
  225MOL0     C29606  -1.003   9.062   1.999 -0.1121 -0.4098  1.0983
  225MOL0     C29607  -1.024   9.110   2.142  0.2026  0.6219 -0.4847
  225MOL0     C29608  -1.160   9.072   2.208  0.9710 -0.6150 -0.3522
  225MOL0     C29609  -1.268   9.155   2.142 -0.0758 -0.2687 -1.0720
  225MOL0     C29610  -1.411   9.122   2.198  0.2778  0.1933  0.5608
  225MOL0     C29611  -1.515   9.227   2.179  0.1362 -0.7611 -0.2290
  225MOL0    Cl29612  -1.683   9.157   2.204 -0.0506 -0.1668  0.2731
  225MOL0     C29613  -0.711   8.907   2.339  0.8045 -0.9829  0.0361
  225MOL0     C29614  -0.600   8.887   2.416  0.3734  0.3558  0.2866
  225MOL0     O29615  -0.293   8.841   2.436 -0.2962  0.3179  0.1221
  225MOL0     C29616  -0.104   8.689   2.583 -0.0804  0.2605  0.7178
  225MOL0     C29617  -0.016   8.621   2.657  0.1725  0.6511 -0.8668
  225MOL0     N29618   0.481   8.178   3.087  0.0451  0.0289 -0.1740
  225MOL0     N29619   0.541   8.082   3.155  0.1607  0.6248  0.1169
  225MOL0     C29620   1.285   7.866   4.176  0.8147 -0.3557 -0.0766
  225MOL0     C29621   1.395   7.876   4.262 -0.4905 -0.7238 -0.5806
  225MOL0     C29622   1.773   7.975   4.448 -0.1129  0.1116 -0.3334
  225MOL0     C29623   1.904   7.910   4.427 -0.3911  0.7230 -0.0059
  225MOL0     C29624   2.016   7.934   4.512  0.1713 -0.2368  0.3705
  225MOL0     C29625   2.005   8.039   4.603 -0.8466 -0.0049 -0.9075
  225MOL0     O29626   2.099   8.069   4.695  0.1085  0.6913 -0.7518
  225MOL0     C29627   2.223   7.995   4.692  0.4264  0.6151 -0.6498
  225MOL0     C29628   2.319   8.078   4.604  0.3589  0.4614 -0.2106
  225MOL0     C29629   2.454   8.007   4.591 -1.4143 -0.4979 -0.7399
  225MOL0     C29630   2.526   8.078   4.470  0.5584  0.4152 -0.2967
  225MOL0     C29631   2.662   8.050   4.467 -0.2263  0.0942  0.9395
  225MOL0     C29632   2.777   8.018   4.444 -0.0947  0.1454  0.6066
  225MOL0     C29633   1.880   8.104   4.618  0.2911 -0.2865 -0.2833
  225MOL0     C29634   1.764   8.067   4.549  0.1040 -0.4542 -0.5919
  225MOL0     H29635   1.421   8.216   4.276 -0.4737  0.5755  0.9943
  225MOL0     H29636   1.211   8.205   4.179  3.3664  1.1515  1.4622
  225MOL0     H29637   1.050   7.771   4.085 -0.3414  0.4982  0.9572
  225MOL0     H29638   1.112   7.829   3.936 -2.2466 -0.0369 -1.7496
  225MOL0     H29639   0.834   7.903   4.048  2.5137  3.6722  0.5905
  225MOL0     H29640   0.869   7.778   3.918 -0.6709  0.6714  0.5626
  225MOL0     H29641   0.954   7.950   3.769  0.7060 -0.6201  0.1667
  225MOL0     H29642   0.920   8.074   3.895  2.3331 -0.3360 -0.5082
  225MOL0     H29643   0.696   7.866   3.827 -3.6365  1.8984 -0.3954
  225MOL0     H29644   0.692   8.014   3.903 -0.0076 -0.0793  0.8677
  225MOL0     H29645   0.784   8.033   3.612  1.9348  1.0630  1.7661
  225MOL0     H29646   0.655   8.121   3.701  1.9311  1.1618  2.4129
  225MOL0     H29647   0.510   7.934   3.689  1.6154  0.9593  1.8073
  225MOL0     H29648   0.612   7.838   3.572 -0.6605 -1.1033  1.3319
  225MOL0     H29649   0.444   7.961   3.431 -0.9139  0.3285  3.1773
  225MOL0     H29650   0.481   8.099   3.525 -2.5675 -0.8562  0.1829
  225MOL0     H29651   0.703   7.959   3.351  2.0280  0.9523 -0.2714
  225MOL0     H29652   0.705   8.119   3.425 -0.1626 -0.4896 -0.3311
  225MOL0     H29653   0.513   8.323   3.388  1.6680 -0.1583  0.9668
  225MOL0     H29654   0.415   8.462   3.059  2.9976  0.3065  2.6841
  225MOL0     H29655   0.344   8.465   3.220 -0.7222 -2.8259  2.4661
  225MOL0     H29656   0.188   8.287   3.126  1.4380  0.3032  0.9944
  225MOL0     H29657   0.260   8.324   2.964  0.2946 -0.0489  0.7021
  225MOL0     H29658   0.114   8.515   3.154 -1.2221 -0.8168  0.6366
  225MOL0     H29659   0.200   8.569   3.007 -0.2688 -1.9951 -0.7327
  225MOL0     H29660  -0.068   8.523   3.022  1.6217  1.7883 -1.3127
  225MOL0     H29661  -0.028   8.359   3.007 -0.1617 -0.4126  0.9552
  225MOL0     H29662  -0.240   8.453   2.843 -0.3039  0.0656  0.8107
  225MOL0     H29663  -0.390   8.596   2.740  0.6554 -1.4385 -0.0527
  225MOL0     H29664  -0.594   8.554   2.400 -0.8427 -0.3181  2.3079
  225MOL0     H29665  -0.812   8.604   2.244 -0.7180  0.4918  1.1903
  225MOL0     H29666  -0.799   8.794   2.019 -2.2255 -1.4090  0.4005
  225MOL0     H29667  -0.788   8.952   2.087 -0.9916 -1.1465  0.2415
  225MOL0     H29668  -1.061   8.851   2.022  0.9841 -2.0504 -0.8818
  225MOL0     H29669  -0.957   8.893   1.884 -0.1328 -3.7518  0.5930
  225MOL0     H29670  -1.084   9.103   1.938 -2.4640 -2.3843  2.7240
  225MOL0     H29671  -0.909   9.113   1.976  0.6252 -0.6613  3.3152
  225MOL0     H29672  -0.946   9.077   2.212 -1.4178  1.3228  1.7598
  225MOL0     H29673  -1.011   9.219   2.143  0.7864  0.5943 -1.9177
  225MOL0     H29674  -1.159   9.076   2.317  1.1586 -2.3392 -0.2721
  225MOL0     H29675  -1.178   8.965   2.200 -1.4885 -0.4574  1.7935
  225MOL0     H29676  -1.274   9.124   2.037 -1.7323 -3.0973 -0.2746
  225MOL0     H29677  -1.240   9.260   2.150  0.1188 -0.4502  1.1017
  225MOL0     H29678  -1.444   9.029   2.151  0.8980 -0.3304  1.1296
  225MOL0     H29679  -1.412   9.100   2.306 -1.0218  0.2245  0.5727
  225MOL0     H29680  -1.513   9.265   2.076 -1.2072  2.0281  0.6640
  225MOL0     H29681  -1.506   9.318   2.240 -2.5779 -0.0234 -0.8012
  225MOL0     H29682  -0.740   9.009   2.316 -1.6764 -1.6301 -0.0602
  225MOL0     H29683  -0.545   8.967   2.463 -1.4470  2.3789 -0.8306
  225MOL0     H29684  -0.057   8.753   2.509 -2.3736  0.4911 -0.6411
  225MOL0     H29685   0.089   8.625   2.634  0.9502 -0.4334  2.0024
  225MOL0     H29686   1.269   7.767   4.135  1.2250 -1.7742  2.9074
  225MOL0     H29687   1.441   7.783   4.294 -1.2955 -1.1631 -0.6727
  225MOL0     H29688   1.911   7.846   4.339 -0.9431 -1.0945  1.2122
  225MOL0     H29689   2.111   7.884   4.500 -0.8360 -2.4532  1.2021
  225MOL0     H29690   2.205   7.890   4.665 -1.5015  0.2788  1.6186
  225MOL0     H29691   2.264   7.992   4.793  0.0168 -0.6144 -0.4926
  225MOL0     H29692   2.273   8.109   4.509 -0.7697  3.1619  1.0962
  225MOL0     H29693   2.321   8.175   4.654 -0.7481  1.2152 -1.5625
  225MOL0     H29694   2.437   7.900   4.574  0.8021 -1.2577  1.1679
  225MOL0     H29695   2.513   8.024   4.682 -2.7105  2.2005 -0.3103
  225MOL0     H29696   2.475   8.040   4.381  2.5251 -2.0674 -0.4867
  225MOL0     H29697   2.503   8.185   4.471 -1.4293  0.0464  0.5699
  225MOL0     H29698   2.870   7.968   4.428 -0.9105 -1.8249  1.6555
  225MOL0     H29699   1.869   8.183   4.692 -1.0533  1.0406 -1.8225
  225MOL0     H29700   1.671   8.122   4.553 -0.9598 -2.1349 -1.2666
  226MOL0     O29701  10.817   0.395   5.230 -0.4218  0.5312  0.1685
  226MOL0     C29702  10.904   0.420   5.149 -0.1553  0.4821  0.2317
  226MOL0     O29703  10.897   0.390   5.016  1.4172  0.2536  0.7536
  226MOL0     C29704  10.798   0.309   4.961 -0.3423  0.6051 -0.1438
  226MOL0     C29705  10.660   0.300   4.996  0.7972  0.1128  0.0903
  226MOL0     C29706  10.582   0.205   4.944  0.4167 -0.3566  0.2747
  226MOL0     C29707  10.629   0.104   4.860 -0.2967  0.4911  0.6914
  226MOL0     O29708  10.536   0.007   4.822 -0.2210 -0.5554 -0.5486
  226MOL0     C29709  10.573  -0.104   4.741 -0.4577 -0.4381  1.1281
  226MOL0     C29710  10.463  -0.213   4.761  0.3703  1.0320 -0.0542
  226MOL0     C29711  10.330  -0.169   4.704  0.0642 -0.5564 -0.5291
  226MOL0     C29712  10.241  -0.285   4.682 -0.4000 -0.7105  0.0485
  226MOL0     C29713  10.104  -0.246   4.617  0.3600  0.0948  0.0822
  226MOL0     C29714  10.010  -0.156   4.700  0.5974 -0.8744 -0.1117
  226MOL0     C29715   9.881  -0.127   4.612 -0.9664  0.7583 -0.3971
  226MOL0     C29716   9.908  -0.015   4.507  0.0530  0.0419 -0.5782
  226MOL0     N29717   9.789   0.025   4.429 -0.1281 -0.1559 -0.1729
  226MOL0     C29718   9.680   0.099   4.475 -0.1563  0.6221  0.1457
  226MOL0     C29719   9.607   0.112   4.361 -0.0054  1.2475 -0.6621
  226MOL0     C29720   9.488   0.192   4.340  0.6880 -0.2092 -0.1498
  226MOL0     C29721   9.369   0.096   4.376  0.7608  0.5618 -0.1345
  226MOL0     C29722   9.229   0.150   4.339  1.6134 -0.5265 -1.2865
  226MOL0     C29723   9.152   0.227   4.456  0.5181 -0.0083 -0.4706
  226MOL0     O29724   9.108   0.121   4.550  0.6366 -0.1596 -1.0106
  226MOL0     C29725   8.983   0.063   4.529 -0.2029  0.8975 -0.2396
  226MOL0     C29726   8.970  -0.062   4.593  1.5520  0.8177  0.8249
  226MOL0     C29727   8.857  -0.140   4.590  0.2863 -0.2861 -0.0937
  226MOL0     C29728   8.749  -0.103   4.510  0.3119  0.2212 -0.0979
  226MOL0     C29729   8.628  -0.182   4.496 -0.5710  0.3811 -0.7935
  226MOL0     O29730   8.513  -0.123   4.443  0.5643 -0.1137 -0.1877
  226MOL0     C29731   8.393  -0.191   4.429 -0.1684 -0.5982 -0.7074
  226MOL0     C29732   8.347  -0.300   4.498 -0.2759 -0.7272 -0.9301
  226MOL0     C29733   8.227  -0.361   4.472 -0.2207 -0.2717 -0.1361
  226MOL0     C29734   8.147  -0.309   4.377  0.2395  0.5633  0.7430
  226MOL0     O29735   8.022  -0.363   4.369  0.4571 -0.1016 -0.0043
  226MOL0     C29736   7.956  -0.343   4.240  0.0353  0.1238  0.2823
  226MOL0     C29737   7.854  -0.451   4.254  0.2791 -0.5187 -0.8444
  226MOL0     C29738   7.731  -0.393   4.347 -0.1828 -0.6476  0.2191
  226MOL0     C29739   7.605  -0.474   4.352 -0.5541 -0.2795 -0.4693
  226MOL0     C29740   7.498  -0.412   4.440 -0.7430  0.1143  0.2218
  226MOL0     C29741   7.369  -0.494   4.439  0.4455  0.0802  0.6453
  226MOL0     C29742   7.289  -0.509   4.306  0.1414 -0.4059  0.8582
  226MOL0     C29743   7.173  -0.601   4.342  0.3446  0.1484 -0.4521
  226MOL0    Cl29744   7.058  -0.538   4.472  0.4703  0.2471  0.3776
  226MOL0     C29745   8.182  -0.187   4.309 -0.4846  0.7971 -0.2151
  226MOL0     C29746   8.305  -0.131   4.346  0.3124 -0.2151  0.9379
  226MOL0     O29747   8.636  -0.296   4.531 -0.5336 -0.2125  0.2280
  226MOL0     C29748   8.753   0.032   4.457 -0.1263 -0.1616 -0.4989
  226MOL0     C29749   8.870   0.103   4.458  1.0179 -0.1813 -0.6914
  226MOL0     N29750   9.676   0.053   4.261  0.1218 -0.4234  0.4059
  226MOL0     N29751   9.786   0.002   4.299  0.4835 -0.3895  0.1581
  226MOL0     C29752  10.768   0.112   4.825 -0.1768 -0.6847  0.4795
  226MOL0     C29753  10.850   0.210   4.873  0.4845  0.3887  0.1401
  226MOL0     C29754  11.032   0.490   5.189  0.0992  0.9494 -0.0839
  226MOL0     C29755  11.094   0.573   5.103  0.4850  0.4266  0.8460
  226MOL0     C29756  11.191   0.657   5.161 -0.8321  0.1757 -0.5563
  226MOL0     C29757  11.239   0.640   5.296 -0.1450 -0.5031 -0.3671
  226MOL0     O29758  11.354   0.706   5.346  0.6977 -0.5373 -0.2321
  226MOL0     C29759  11.474   0.685   5.277 -0.3751 -0.1605  0.4139
  226MOL0     C29760  11.545   0.550   5.284  0.8595  0.4659  0.0262
  226MOL0     C29761  11.573   0.496   5.424  0.2814  0.5553  1.0141
  226MOL0     C29762  11.670   0.585   5.499 -0.1916  0.6147  0.1193
  226MOL0     C29763  11.718   0.510   5.613 -1.4295  0.3287  0.0828
  226MOL0     C29764  11.753   0.444   5.705  0.6662  0.7129 -0.8612
  226MOL0     C29765  11.168   0.561   5.385 -0.7776  1.1553  0.2810
  226MOL0     C29766  11.062   0.482   5.329  0.5901  0.3877  0.4333
  226MOL0     H29767  10.630   0.381   5.061 -1.1610 -1.1371  0.8518
  226MOL0     H29768  10.477   0.200   4.973  1.1549 -0.7745  3.2841
  226MOL0     H29769  10.664  -0.152   4.779 -0.7291 -1.3693  0.6406
  226MOL0     H29770  10.580  -0.076   4.635  0.2370  0.6142  1.4427
  226MOL0     H29771  10.462  -0.250   4.864  0.9470 -0.2754 -0.5034
  226MOL0     H29772  10.494  -0.301   4.704 -0.6518 -0.3965  1.5048
  226MOL0     H29773  10.347  -0.123   4.606 -4.9576  0.4651 -1.1844
  226MOL0     H29774  10.297  -0.094   4.776  2.3169  0.4255 -0.4367
  226MOL0     H29775  10.292  -0.356   4.617  1.3955 -0.7065  1.3864
  226MOL0     H29776  10.225  -0.340   4.775  0.9882 -1.2830 -0.0232
  226MOL0     H29777  10.053  -0.339   4.589  0.2986  0.8348 -2.4495
  226MOL0     H29778  10.123  -0.195   4.523 -2.2051  3.1654  1.0471
  226MOL0     H29779  10.047  -0.061   4.740 -0.4264 -0.4873 -0.0511
  226MOL0     H29780   9.969  -0.205   4.789 -2.0975  2.2948  0.5927
  226MOL0     H29781   9.852  -0.222   4.565  4.5990 -1.4905 -0.0725
  226MOL0     H29782   9.797  -0.096   4.675 -2.7027 -1.4236 -1.4788
  226MOL0     H29783   9.985  -0.054   4.440  0.2202 -0.0158 -0.3538
  226MOL0     H29784   9.950   0.075   4.553 -0.1457 -0.5755  0.8647
  226MOL0     H29785   9.653   0.146   4.569 -3.2945 -2.2762  0.8813
  226MOL0     H29786   9.485   0.228   4.236 -2.0337 -0.6779 -0.3129
  226MOL0     H29787   9.483   0.283   4.400  0.5862 -0.4869  0.2637
  226MOL0     H29788   9.369   0.081   4.484 -0.7791 -1.3525 -0.3498
  226MOL0     H29789   9.386  -0.003   4.333  3.7453  0.3378  1.3176
  226MOL0     H29790   9.235   0.216   4.253 -1.8615 -1.2260 -2.2150
  226MOL0     H29791   9.166   0.069   4.301  0.2184  0.3449 -0.9351
  226MOL0     H29792   9.068   0.288   4.423  0.4594  0.1556 -0.0289
  226MOL0     H29793   9.217   0.304   4.499  0.9539 -1.1006  0.9052
  226MOL0     H29794   9.056  -0.109   4.638  0.6533  0.6774  2.4829
  226MOL0     H29795   8.855  -0.241   4.630 -1.1830 -0.9246 -1.6280
  226MOL0     H29796   8.414  -0.341   4.574  1.1811  3.2051  0.1508
  226MOL0     H29797   8.197  -0.444   4.535 -1.1773 -1.4566 -2.0595
  226MOL0     H29798   8.030  -0.371   4.164  1.1578 -0.7553  1.6581
  226MOL0     H29799   7.916  -0.246   4.209  1.8937  0.8692  0.0974
  226MOL0     H29800   7.879  -0.547   4.301  0.3229  0.2977  0.8536
  226MOL0     H29801   7.806  -0.466   4.157 -1.3891  1.4048 -0.3759
  226MOL0     H29802   7.701  -0.296   4.306  0.0645 -1.8602 -3.1643
  226MOL0     H29803   7.770  -0.388   4.449  0.7088  1.2450 -0.1688
  226MOL0     H29804   7.575  -0.493   4.249 -1.5993 -1.3574  0.0147
  226MOL0     H29805   7.636  -0.567   4.402  1.2124  0.5644  0.0974
  226MOL0     H29806   7.477  -0.310   4.405 -0.3453  1.0634  2.4892
  226MOL0     H29807   7.535  -0.396   4.542 -1.4166  1.0615  0.3405
  226MOL0     H29808   7.304  -0.442   4.510 -1.0748 -0.8849 -0.0125
  226MOL0     H29809   7.391  -0.597   4.467  2.7849 -0.6854 -3.3474
  226MOL0     H29810   7.251  -0.411   4.275 -1.2250  0.3808  4.4272
  226MOL0     H29811   7.337  -0.560   4.223 -2.4296  0.3398 -1.2294
  226MOL0     H29812   7.218  -0.685   4.397  1.4196  1.0443  0.0893
  226MOL0     H29813   7.124  -0.645   4.255 -1.0823 -1.3939  1.0579
  226MOL0     H29814   8.127  -0.140   4.229 -2.0743  0.2115  0.4840
  226MOL0     H29815   8.340  -0.033   4.317  0.5203 -0.0479  1.7286
  226MOL0     H29816   8.667   0.071   4.404 -0.2941  0.2290  0.0483
  226MOL0     H29817   8.875   0.195   4.401  0.4989  0.4689  0.2861
  226MOL0     H29818  10.804   0.026   4.768 -3.1860 -1.3669 -0.6065
  226MOL0     H29819  10.951   0.217   4.835  0.3212 -1.2563 -0.7151
  226MOL0     H29820  11.072   0.580   4.997  0.0038 -1.8464  0.7446
  226MOL0     H29821  11.231   0.743   5.107  0.1141  1.1375  1.5670
  226MOL0     H29822  11.544   0.761   5.313  1.8500 -2.2146  0.7035
  226MOL0     H29823  11.460   0.710   5.171 -5.6483 -0.1235  0.8815
  226MOL0     H29824  11.476   0.484   5.231  2.1767  0.5971 -1.9659
  226MOL0     H29825  11.636   0.546   5.224  0.7686 -3.9762 -0.1589
  226MOL0     H29826  11.624   0.399   5.420  0.0332  0.4674 -0.4515
  226MOL0     H29827  11.477   0.494   5.478  0.0748  0.2306  0.6405
  226MOL0     H29828  11.744   0.613   5.423 -1.5628 -2.1222 -2.4206
  226MOL0     H29829  11.626   0.676   5.543  1.3721  0.7350  1.5313
  226MOL0     H29830  11.754   0.359   5.770 -1.8974 -1.9787 -3.9242
  226MOL0     H29831  11.190   0.550   5.490 -2.3431  0.1980  0.5444
  226MOL0     H29832  11.005   0.413   5.391  0.3182 -1.0368 -1.3375
  227MOL0     O29833   4.335   3.379   5.321  0.2904 -0.8865 -0.6123
  227MOL0     C29834   4.309   3.316   5.425 -0.1712  0.5201  0.6961
  227MOL0     O29835   4.183   3.270   5.458  0.6075  0.6619  0.2391
  227MOL0     C29836   4.077   3.259   5.372  1.5353 -0.4716 -0.5171
  227MOL0     C29837   3.950   3.274   5.436 -0.0018 -0.0190  0.3856
  227MOL0     C29838   3.830   3.252   5.368 -0.1953  0.0889 -0.3229
  227MOL0     C29839   3.834   3.221   5.233 -0.2030  0.7457 -0.4885
  227MOL0     O29840   3.719   3.184   5.165  0.6476  0.1897 -0.7043
  227MOL0     C29841   3.699   3.268   5.046  0.0216  0.0401 -0.7506
  227MOL0     C29842   3.570   3.222   4.978 -1.0780 -0.1621  0.5305
  227MOL0     C29843   3.453   3.222   5.073  0.8167  0.2306 -0.0511
  227MOL0     C29844   3.333   3.226   4.981  0.2952  0.4632 -0.1132
  227MOL0     C29845   3.204   3.183   5.049 -0.6797 -0.8120 -0.9247
  227MOL0     C29846   3.085   3.193   4.958 -0.0461  0.4236 -0.2887
  227MOL0     C29847   2.961   3.162   5.037 -0.9750 -0.0978  0.0746
  227MOL0     C29848   2.854   3.125   4.930  1.3621 -0.4385 -0.7615
  227MOL0     N29849   2.714   3.133   4.982 -0.2367  0.9552  0.8846
  227MOL0     C29850   2.646   3.022   5.013 -0.4470  0.1039 -0.2129
  227MOL0     C29851   2.523   3.076   5.046  0.7213 -1.0398  0.2392
  227MOL0     C29852   2.400   2.995   5.087  0.6755  0.1006 -0.0926
  227MOL0     C29853   2.305   2.992   4.964 -0.6952 -0.9881 -0.3193
  227MOL0     C29854   2.279   3.137   4.911 -0.3025  1.0571  0.0026
  227MOL0     C29855   2.158   3.136   4.812  0.6760  0.9712 -0.4491
  227MOL0     O29856   2.175   3.251   4.723  0.3083 -0.0111  1.0099
  227MOL0     C29857   2.066   3.300   4.657  0.3974  0.7986 -0.4033
  227MOL0     C29858   2.098   3.388   4.554  0.7639 -0.1362  0.3551
  227MOL0     C29859   1.995   3.453   4.489 -0.4788 -0.1618 -0.5069
  227MOL0     C29860   1.858   3.442   4.529 -0.0165 -0.0312 -0.1815
  227MOL0     C29861   1.738   3.512   4.469 -0.7162 -0.2262 -0.2138
  227MOL0     O29862   1.613   3.466   4.512  0.7368 -0.8154 -0.1891
  227MOL0     C29863   1.510   3.557   4.500 -0.2322  0.4391 -0.3903
  227MOL0     C29864   1.443   3.582   4.619 -0.0515 -0.1830  0.0391
  227MOL0     C29865   1.326   3.654   4.605  0.5085 -0.2865 -0.1050
  227MOL0     C29866   1.274   3.698   4.479 -0.4772 -0.2803 -1.0304
  227MOL0     O29867   1.159   3.763   4.465 -0.0968 -0.0628 -0.5194
  227MOL0     C29868   1.068   3.758   4.580  0.1384 -0.4431  0.2374
  227MOL0     C29869   0.921   3.774   4.526  0.7755 -0.2443  0.2938
  227MOL0     C29870   0.842   3.650   4.504 -0.2161 -0.3810 -0.0433
  227MOL0     C29871   0.714   3.698   4.439 -0.1553  0.7363  1.1220
  227MOL0     C29872   0.589   3.607   4.452  0.0188  0.2470  0.0580
  227MOL0     C29873   0.609   3.469   4.381  0.3071  0.1370 -0.6409
  227MOL0     C29874   0.473   3.391   4.376 -1.4286 -0.5534 -1.0958
  227MOL0     C29875   0.400   3.441   4.249  0.5119 -0.1219 -0.1758
  227MOL0    Cl29876   0.232   3.371   4.260 -0.4586 -0.0709 -0.4638
  227MOL0     C29877   1.345   3.668   4.367 -0.8762  0.7528 -0.0278
  227MOL0     C29878   1.459   3.589   4.373  0.3657 -0.0398  0.2271
  227MOL0     O29879   1.758   3.600   4.390 -0.9005 -0.4355  0.0482
  227MOL0     C29880   1.837   3.349   4.626 -0.0307 -0.0718 -0.3444
  227MOL0     C29881   1.934   3.277   4.690  0.1949 -0.0427 -0.0670
  227MOL0     N29882   2.533   3.210   5.064 -0.2724  0.1217  0.2966
  227MOL0     N29883   2.652   3.247   5.027  0.5496 -0.5333  1.4184
  227MOL0     C29884   3.957   3.204   5.171 -0.5875 -0.2049  0.2955
  227MOL0     C29885   4.078   3.225   5.240  0.5712  1.2916 -0.2586
  227MOL0     C29886   4.421   3.296   5.520 -0.0268  0.2180  0.5459
  227MOL0     C29887   4.404   3.227   5.640  0.1944  0.4849 -0.5872
  227MOL0     C29888   4.507   3.197   5.733  0.1870 -1.2891 -0.2512
  227MOL0     C29889   4.643   3.230   5.693  0.1068 -0.1826  0.1074
  227MOL0     O29890   4.754   3.223   5.764 -0.4003  0.5496 -0.1636
  227MOL0     C29891   4.760   3.120   5.862  0.2752 -0.3078 -0.2710
  227MOL0     C29892   4.720   3.171   5.998  0.7761  0.3169 -0.7252
  227MOL0     C29893   4.824   3.249   6.074 -0.6969 -0.5658  0.3765
  227MOL0     C29894   4.952   3.167   6.108 -0.8488 -0.6519  0.6469
  227MOL0     C29895   5.012   3.224   6.231 -0.6445 -0.0117 -0.0052
  227MOL0     C29896   5.066   3.274   6.327  0.4876  0.5462 -0.7941
  227MOL0     C29897   4.668   3.293   5.568 -0.8523  0.9973 -0.2996
  227MOL0     C29898   4.556   3.329   5.488  0.3217  0.8813  0.5096
  227MOL0     H29899   3.946   3.308   5.540 -1.2516 -1.7867  0.9478
  227MOL0     H29900   3.738   3.284   5.415 -0.1380  1.7352 -1.2763
  227MOL0     H29901   3.778   3.245   4.973  1.0439 -0.5977  0.5198
  227MOL0     H29902   3.695   3.376   5.064  0.8430  0.5427 -3.1790
  227MOL0     H29903   3.572   3.124   4.930 -5.9182 -1.7502  2.8950
  227MOL0     H29904   3.542   3.297   4.904 -3.5317 -2.1932 -0.7878
  227MOL0     H29905   3.448   3.313   5.134 -0.6966 -0.8767  1.5395
  227MOL0     H29906   3.447   3.125   5.123 -2.8594  0.2382 -0.2521
  227MOL0     H29907   3.316   3.328   4.948  0.4849  0.2722 -0.8056
  227MOL0     H29908   3.361   3.154   4.903 -1.0291  3.0447 -3.1841
  227MOL0     H29909   3.200   3.252   5.134 -0.2165  0.8447 -2.1799
  227MOL0     H29910   3.220   3.081   5.085  2.0464  0.0826  0.6667
  227MOL0     H29911   3.098   3.126   4.872  0.3937 -0.3546  0.3649
  227MOL0     H29912   3.075   3.298   4.928  0.5824  0.2432 -1.1806
  227MOL0     H29913   2.976   3.081   5.110  0.9479  1.1334  1.1269
  227MOL0     H29914   2.933   3.253   5.091  0.6275 -0.0335  0.8537
  227MOL0     H29915   2.873   3.024   4.892 -0.8348 -1.7197  1.3127
  227MOL0     H29916   2.854   3.205   4.856 -0.5260  0.7398  0.4423
  227MOL0     H29917   2.656   2.917   4.989  1.0198  0.0539  0.5517
  227MOL0     H29918   2.349   3.051   5.166  0.1418 -2.5047  1.5367
  227MOL0     H29919   2.421   2.895   5.124  1.1787  0.9411  2.0482
  227MOL0     H29920   2.212   2.952   5.007 -0.6179 -0.5290  0.2897
  227MOL0     H29921   2.349   2.916   4.898  0.2931 -1.6671  1.0745
  227MOL0     H29922   2.252   3.194   5.000 -0.7499 -0.8035  1.1063
  227MOL0     H29923   2.356   3.185   4.850 -0.4253  0.3530 -0.7292
  227MOL0     H29924   2.066   3.143   4.871  0.6928  2.6422 -0.5476
  227MOL0     H29925   2.173   3.048   4.749  2.1913  0.4796  0.5357
  227MOL0     H29926   2.203   3.403   4.536  0.2677  0.1265 -2.9485
  227MOL0     H29927   2.027   3.520   4.410 -2.0770 -0.9218 -1.8667
  227MOL0     H29928   1.479   3.546   4.715 -0.5808 -5.0587 -1.3124
  227MOL0     H29929   1.284   3.681   4.702 -0.1428  0.2276 -0.5220
  227MOL0     H29930   1.099   3.842   4.644  1.7494 -0.3919 -0.5646
  227MOL0     H29931   1.071   3.664   4.637 -0.9173 -1.4388 -1.2902
  227MOL0     H29932   0.937   3.813   4.425  2.5670 -2.2427 -0.2710
  227MOL0     H29933   0.868   3.851   4.581 -0.5827  0.6372 -2.0850
  227MOL0     H29934   0.828   3.596   4.598 -1.5463 -2.1182 -1.2023
  227MOL0     H29935   0.890   3.584   4.432 -0.5323 -0.5167 -0.1297
  227MOL0     H29936   0.701   3.795   4.487  0.0423  1.4608 -0.2498
  227MOL0     H29937   0.736   3.713   4.333  1.6043 -0.6814  1.2280
  227MOL0     H29938   0.510   3.671   4.413  1.7860  3.4890  1.4300
  227MOL0     H29939   0.557   3.593   4.556  1.2706 -3.0077  0.1404
  227MOL0     H29940   0.684   3.414   4.438  0.6821 -0.5793 -1.8022
  227MOL0     H29941   0.649   3.484   4.281  2.1270 -0.2178 -0.0148
  227MOL0     H29942   0.483   3.283   4.371  0.4957 -0.3576 -2.8861
  227MOL0     H29943   0.420   3.422   4.467  1.5537  1.2630  0.1744
  227MOL0     H29944   0.443   3.417   4.151 -2.8717  0.1260 -1.9036
  227MOL0     H29945   0.387   3.550   4.248 -1.0080 -0.2478 -2.5480
  227MOL0     H29946   1.329   3.709   4.267  0.5697 -0.9665 -1.0112
  227MOL0     H29947   1.516   3.562   4.284  0.6292  2.2200 -0.3420
  227MOL0     H29948   1.735   3.323   4.652  0.4452 -0.1164  1.5891
  227MOL0     H29949   1.913   3.199   4.762  1.1538  1.2481  1.6646
  227MOL0     H29950   3.956   3.196   5.063 -1.1060  4.2979 -0.2444
  227MOL0     H29951   4.175   3.218   5.194  0.7330  3.6567 -0.4097
  227MOL0     H29952   4.306   3.204   5.680  0.7005  0.2087  0.5610
  227MOL0     H29953   4.465   3.148   5.820 -2.2308  0.1398 -0.5370
  227MOL0     H29954   4.866   3.091   5.862  0.1663 -0.7272  0.3952
  227MOL0     H29955   4.702   3.030   5.842 -1.8838  1.2339 -1.3656
  227MOL0     H29956   4.630   3.230   5.983 -1.3321 -2.4772  0.0952
  227MOL0     H29957   4.694   3.088   6.064  0.8189  2.1463  1.7563
  227MOL0     H29958   4.769   3.290   6.160 -1.9225  0.4036 -0.8049
  227MOL0     H29959   4.861   3.341   6.028  0.8799  0.2938  3.0892
  227MOL0     H29960   4.936   3.060   6.126  0.8189 -1.2935 -1.2411
  227MOL0     H29961   5.021   3.179   6.023 -1.7069  1.1045  0.1415
  227MOL0     H29962   5.132   3.329   6.391  0.3080  0.2317 -0.3340
  227MOL0     H29963   4.770   3.312   5.538 -0.1753 -1.0003  0.5939
  227MOL0     H29964   4.586   3.375   5.395  1.8405 -1.9364 -0.5102
  228MOL0     O29965   1.554  10.251   6.741 -0.2123 -0.3484  0.0337
  228MOL0     C29966   1.617  10.337   6.804 -0.8144  0.1912  0.3975
  228MOL0     O29967   1.604  10.470   6.789 -0.4253 -0.2907 -0.1667
  228MOL0     C29968   1.518  10.521   6.697  0.7030  0.2275  1.0173
  228MOL0     C29969   1.570  10.619   6.622 -0.2734 -0.5162  0.1920
  228MOL0     C29970   1.491  10.683   6.517  0.0268  0.5363  0.3885
  228MOL0     C29971   1.362  10.648   6.491  0.7884 -0.5868  0.0961
  228MOL0     O29972   1.300  10.731   6.404 -0.0449 -1.1025  0.0591
  228MOL0     C29973   1.163  10.699   6.370 -0.6976  0.4443 -0.8036
  228MOL0     C29974   1.113  10.776   6.242 -0.6144 -0.7351 -0.5663
  228MOL0     C29975   0.978  10.723   6.183 -0.6310  0.0662 -0.2180
  228MOL0     C29976   0.862  10.753   6.274 -0.4892 -0.4384  0.4679
  228MOL0     C29977   0.734  10.740   6.187 -0.6100 -0.4224  0.1463
  228MOL0     C29978   0.616  10.760   6.289 -0.2629 -0.3459 -0.7333
  228MOL0     C29979   0.580  10.913   6.321 -0.4488 -0.2704 -0.2457
  228MOL0     C29980   0.441  10.909   6.389  0.7032 -0.9908 -0.1227
  228MOL0     N29981   0.332  10.933   6.288  1.4407 -0.3735 -0.3361
  228MOL0     C29982   0.328  11.026   6.192 -1.2983  0.3293  0.7520
  228MOL0     C29983   0.206  11.017   6.131 -0.0959 -0.9020  0.0059
  228MOL0     C29984   0.148  11.105   6.022  0.7254 -0.0039  0.0515
  228MOL0     C29985  -0.002  11.138   6.055  0.5970 -0.0332  0.7781
  228MOL0     C29986  -0.039  11.270   6.115 -0.5793  0.0667  0.6771
  228MOL0     C29987  -0.177  11.267   6.173 -0.0184  0.1419 -0.0425
  228MOL0     O29988  -0.261  11.230   6.064  0.1021 -0.0399 -0.3301
  228MOL0     C29989  -0.394  11.246   6.082 -0.1124 -0.7245  0.5874
  228MOL0     C29990  -0.438  11.378   6.052  0.2691  0.1556  0.2400
  228MOL0     C29991  -0.580  11.410   6.074  0.9764 -0.1376  0.6078
  228MOL0     C29992  -0.666  11.312   6.128  0.3167  0.5064 -0.4237
  228MOL0     C29993  -0.814  11.334   6.121  0.8008  0.5547 -0.3028
  228MOL0     O29994  -0.886  11.250   6.197 -0.6631  0.0043  0.4725
  228MOL0     C29995  -1.013  11.207   6.163  0.1782  1.0188  0.2103
  228MOL0     C29996  -1.077  11.232   6.036  0.0746 -0.2195 -0.2854
  228MOL0     C29997  -1.210  11.171   6.023 -0.4971 -0.5137 -0.0342
  228MOL0     C29998  -1.268  11.087   6.124  0.1495 -0.2622 -0.5933
  228MOL0     O29999  -1.395  11.037   6.095 -0.5807 -0.7613 -0.1718
  228MOL0     C30000  -1.434  10.917   6.155 -0.5164 -0.2128  0.2512
  228MOL0     C30001  -1.554  10.854   6.086  0.3757 -0.1791 -0.5128
  228MOL0     C30002  -1.681  10.947   6.055 -0.1323 -0.3260 -1.1585
  228MOL0     C30003  -1.725  11.021   6.182  0.0067 -0.5003 -0.5809
  228MOL0     C30004  -1.856  11.101   6.156 -0.1603  0.4979  0.7778
  228MOL0     C30005  -1.912  11.171   6.280 -0.3366  0.0568  0.4210
  228MOL0     C30006  -1.813  11.274   6.338  0.1774 -0.0206 -0.7354
  228MOL0     C30007  -1.869  11.338   6.465  0.0550  0.0407 -0.5036
  228MOL0    Cl30008  -1.967  11.474   6.414 -0.2598 -0.1963 -0.0609
  228MOL0     C30009  -1.187  11.054   6.236 -0.1582 -0.5560  0.5085
  228MOL0     C30010  -1.068  11.121   6.254  0.0323  0.6299 -0.4380
  228MOL0     O30011  -0.864  11.419   6.049 -0.2798 -0.0266 -0.0854
  228MOL0     C30012  -0.610  11.187   6.174  0.0552  0.7247  0.0912
  228MOL0     C30013  -0.477  11.158   6.154 -0.3892  0.2305  0.0564
  228MOL0     N30014   0.139  10.907   6.189  0.0956  0.1076  0.0850
  228MOL0     N30015   0.211  10.867   6.285 -0.7599 -0.4137 -0.5631
  228MOL0     C30016   1.310  10.553   6.576 -0.2832  0.3923  0.0323
  228MOL0     C30017   1.383  10.488   6.682  0.8203  0.4220  0.4407
  228MOL0     C30018   1.697  10.295   6.920  0.8322 -0.4663 -0.0928
  228MOL0     C30019   1.682  10.168   6.972  0.6340  0.5867 -0.0568
  228MOL0     C30020   1.764  10.114   7.071  0.7711  0.3552  0.3170
  228MOL0     C30021   1.853  10.202   7.135  0.3286  0.4469  0.0332
  228MOL0     O30022   1.924  10.156   7.241  0.6499 -0.0503  0.0866
  228MOL0     C30023   2.067  10.166   7.233 -0.6273 -0.5395  0.2413
  228MOL0     C30024   2.118  10.103   7.362 -1.0764 -0.3918 -0.2828
  228MOL0     C30025   2.100  10.188   7.491 -0.2812  1.1463 -0.8920
  228MOL0     C30026   2.213  10.301   7.508  0.6196 -0.0665  0.3775
  228MOL0     C30027   2.345  10.248   7.522  0.1458 -0.2500 -0.1650
  228MOL0     C30028   2.456  10.191   7.541  0.4859  0.0036  0.3066
  228MOL0     C30029   1.876  10.333   7.086  1.4129  1.1005 -0.0566
  228MOL0     C30030   1.790  10.380   6.977  0.6373  0.2640  0.2398
  228MOL0     H30031   1.665  10.669   6.639 -1.3550  1.7265  0.0441
  228MOL0     H30032   1.529  10.774   6.470 -2.5033  2.4225  1.7309
  228MOL0     H30033   1.100  10.722   6.457 -0.2143 -2.2421  0.3523
  228MOL0     H30034   1.156  10.594   6.339  0.8719  1.1551 -3.8918
  228MOL0     H30035   1.185  10.757   6.163 -3.7792 -2.1370 -3.3499
  228MOL0     H30036   1.091  10.881   6.264 -1.7935 -0.3511 -3.2619
  228MOL0     H30037   0.974  10.614   6.168 -0.5985  0.0100  0.1554
  228MOL0     H30038   0.954  10.771   6.088  0.0844 -2.1800 -1.6297
  228MOL0     H30039   0.866  10.678   6.353 -1.2919 -0.4387  0.5231
  228MOL0     H30040   0.873  10.851   6.322  0.2667  0.3599 -1.2525
  228MOL0     H30041   0.739  10.644   6.135  2.0246  1.0839 -2.7234
  228MOL0     H30042   0.720  10.809   6.103 -0.3024 -2.2896 -1.5035
  228MOL0     H30043   0.621  10.702   6.382  0.1853 -3.5293 -2.6036
  228MOL0     H30044   0.534  10.721   6.228 -0.8083 -0.9107  0.3426
  228MOL0     H30045   0.657  10.958   6.384 -0.0496 -0.2169 -0.7686
  228MOL0     H30046   0.580  10.987   6.240 -0.0418  1.6960  1.4596
  228MOL0     H30047   0.419  10.982   6.467 -4.0307 -3.3509  1.0832
  228MOL0     H30048   0.417  10.813   6.435  0.0217 -1.2861 -1.0541
  228MOL0     H30049   0.403  11.102   6.173 -1.4220  0.6752  1.5630
  228MOL0     H30050   0.151  11.053   5.926  0.3696  1.4174 -0.7650
  228MOL0     H30051   0.210  11.193   6.005  0.9224 -0.3956 -1.3523
  228MOL0     H30052  -0.033  11.063   6.128 -1.7493  1.8686  1.8543
  228MOL0     H30053  -0.056  11.124   5.961 -2.2611  0.7654  2.2060
  228MOL0     H30054   0.026  11.281   6.203 -0.9937 -1.2019  1.1633
  228MOL0     H30055  -0.031  11.350   6.042 -1.6801 -0.0704  0.3941
  228MOL0     H30056  -0.209  11.365   6.210 -1.2274 -0.1484 -0.2703
  228MOL0     H30057  -0.196  11.192   6.250  0.2201  1.0588  0.9332
  228MOL0     H30058  -0.372  11.457   6.016 -0.2188  2.0175  3.1227
  228MOL0     H30059  -0.620  11.503   6.034  0.1494 -0.8383 -0.2316
  228MOL0     H30060  -1.032  11.283   5.952  0.8427  0.7209  0.6750
  228MOL0     H30061  -1.279  11.175   5.940  0.6651 -2.7676 -1.1805
  228MOL0     H30062  -1.464  10.935   6.258 -0.9224 -1.2645  0.3319
  228MOL0     H30063  -1.344  10.855   6.158  0.7086  1.5436  1.2400
  228MOL0     H30064  -1.594  10.779   6.155 -0.3831 -2.2478 -3.0519
  228MOL0     H30065  -1.523  10.801   5.995  0.4387  1.0307 -1.2175
  228MOL0     H30066  -1.766  10.890   6.018 -3.7933  2.6183  1.8258
  228MOL0     H30067  -1.655  11.011   5.970  1.3921 -1.4015 -1.5466
  228MOL0     H30068  -1.739  10.947   6.260  0.4178 -1.3592 -1.3013
  228MOL0     H30069  -1.652  11.097   6.213  0.3650 -0.8611 -0.5320
  228MOL0     H30070  -1.931  11.028   6.123  3.1105 -3.4637  1.1757
  228MOL0     H30071  -1.845  11.169   6.071  1.2207  0.6173  1.0228
  228MOL0     H30072  -1.920  11.103   6.365 -1.5362 -0.0446  0.2451
  228MOL0     H30073  -2.004  11.225   6.257 -0.9973 -1.0359  0.4296
  228MOL0     H30074  -1.717  11.233   6.371 -0.6770 -1.0510  0.6132
  228MOL0     H30075  -1.803  11.346   6.256 -4.5571 -1.7804 -3.2411
  228MOL0     H30076  -1.785  11.382   6.519 -2.7236  1.1252  3.4482
  228MOL0     H30077  -1.923  11.264   6.525 -0.9488  2.7145  2.1118
  228MOL0     H30078  -1.216  10.985   6.315  2.2067 -1.4319  0.6858
  228MOL0     H30079  -1.006  11.082   6.333  0.7471  0.8448 -0.8859
  228MOL0     H30080  -0.671  11.113   6.225 -3.0992  1.6561 -2.0479
  228MOL0     H30081  -0.436  11.067   6.196  2.2437  1.4768  0.4166
  228MOL0     H30082   1.206  10.525   6.558 -0.1287  0.8935 -1.8569
  228MOL0     H30083   1.330  10.425   6.752  0.6482 -1.1869 -1.0693
  228MOL0     H30084   1.612  10.102   6.922  1.9919 -1.0610  0.1519
  228MOL0     H30085   1.755  10.013   7.111 -1.2621  0.3600 -0.0201
  228MOL0     H30086   2.099  10.269   7.217  2.5573 -1.5436 -0.4803
  228MOL0     H30087   2.098  10.105   7.148 -0.7338 -0.6726  0.2966
  228MOL0     H30088   2.063  10.010   7.373 -1.2173  0.0119  3.6737
  228MOL0     H30089   2.224  10.080   7.350 -1.1642 -0.3400 -1.2283
  228MOL0     H30090   2.104  10.116   7.574 -0.7159 -1.6278 -3.1000
  228MOL0     H30091   2.001  10.233   7.493 -0.8879 -0.1425 -0.2676
  228MOL0     H30092   2.210  10.374   7.427  2.8679  0.3401  0.6001
  228MOL0     H30093   2.171  10.349   7.597 -2.6369  2.2351 -2.1618
  228MOL0     H30094   2.539  10.125   7.556 -1.3944 -2.2889  1.1781
  228MOL0     H30095   1.942  10.400   7.139 -2.8228  4.1291  1.9319
  228MOL0     H30096   1.804  10.485   6.953 -1.6805  0.7621  0.7302
  229MOL0     O30097   8.394   6.112  10.629 -0.0015 -0.1237  0.0935
  229MOL0     C30098   8.355   6.226  10.656 -0.2126  0.5457  1.3082
  229MOL0     O30099   8.284   6.302  10.563  0.5889 -0.6303 -0.4499
  229MOL0     C30100   8.235   6.250  10.447 -0.4253  0.3647 -0.7441
  229MOL0     C30101   8.310   6.202  10.339 -0.3146 -1.1889  0.6251
  229MOL0     C30102   8.236   6.164  10.216  0.3540  0.3954  0.3032
  229MOL0     C30103   8.099   6.147  10.220  0.4399  0.7293  0.1612
  229MOL0     O30104   8.035   6.091  10.111  1.0709  0.6470  0.1456
  229MOL0     C30105   7.889   6.093  10.107  0.4740  0.5643 -0.2531
  229MOL0     C30106   7.840   5.999   9.997  0.0238 -0.2908  0.4599
  229MOL0     C30107   7.688   6.014   9.992 -1.5865  0.9899 -0.0045
  229MOL0     C30108   7.626   5.904   9.912  0.7873 -0.8479  0.0334
  229MOL0     C30109   7.484   5.934   9.866 -0.6580  0.3829 -0.1389
  229MOL0     C30110   7.433   5.815   9.785  0.2026 -0.0101 -0.1534
  229MOL0     C30111   7.282   5.819   9.771  0.3101  0.0405  0.4152
  229MOL0     C30112   7.223   5.690   9.717 -0.1001  0.1348  0.5330
  229MOL0     N30113   7.079   5.703   9.708 -0.2816 -0.3573 -0.4815
  229MOL0     C30114   7.016   5.775   9.613 -0.1911 -0.4941 -0.7517
  229MOL0     C30115   6.889   5.733   9.628  0.2723 -0.0901  0.4745
  229MOL0     C30116   6.773   5.786   9.538 -0.1012  0.0998  0.0967
  229MOL0     C30117   6.631   5.734   9.578 -0.4389 -0.3116 -1.1922
  229MOL0     C30118   6.528   5.825   9.524 -1.3716 -0.5194  1.1066
  229MOL0     C30119   6.383   5.791   9.517 -0.0016 -0.1444  0.0553
  229MOL0     O30120   6.321   5.770   9.642 -0.2244  0.3588  0.6397
  229MOL0     C30121   6.191   5.798   9.659 -0.4449 -0.4757 -0.1295
  229MOL0     C30122   6.102   5.691   9.645  0.1775 -0.4201 -0.0572
  229MOL0     C30123   5.965   5.720   9.663 -0.3532  0.7702 -0.3419
  229MOL0     C30124   5.919   5.845   9.698  1.2346  0.0620 -0.1491
  229MOL0     C30125   5.770   5.874   9.723 -0.4546 -0.3714  0.2101
  229MOL0     O30126   5.723   6.003   9.750  0.4978  0.2910 -0.4452
  229MOL0     C30127   5.585   6.020   9.784  0.3798 -0.3968 -0.0156
  229MOL0     C30128   5.488   6.063   9.688  0.3077 -0.0364 -0.1441
  229MOL0     C30129   5.350   6.074   9.710  0.2327 -0.1040  0.2199
  229MOL0     C30130   5.300   6.040   9.833 -0.6758  0.0391  0.1411
  229MOL0     O30131   5.167   6.058   9.858 -0.0500 -0.5916  0.5759
  229MOL0     C30132   5.112   6.015   9.976  1.0718  0.0010  0.9038
  229MOL0     C30133   4.976   6.087   9.998  0.0540 -0.5060  1.8082
  229MOL0     C30134   4.907   6.038  10.124  0.1579  1.0949  0.7227
  229MOL0     C30135   4.749   6.081  10.105  1.1004  0.2569 -0.4291
  229MOL0     C30136   4.654   6.040  10.231 -0.4749 -0.4105  0.9421
  229MOL0     C30137   4.521   6.121  10.236 -0.4297  0.2120 -0.7630
  229MOL0     C30138   4.418   6.096  10.127 -0.2975 -0.1828 -0.1442
  229MOL0     C30139   4.276   6.149  10.151 -0.6226 -0.0524 -0.8521
  229MOL0    Cl30140   4.293   6.332  10.176  0.6001  0.2045 -0.0692
  229MOL0     C30141   5.388   5.987   9.928  0.1949  0.5454  0.2027
  229MOL0     C30142   5.524   5.984   9.903 -0.1932 -1.5632 -0.1254
  229MOL0     O30143   5.703   5.770   9.736  0.7804  0.0290  0.4086
  229MOL0     C30144   6.010   5.956   9.698 -0.0777 -0.2853 -0.2778
  229MOL0     C30145   6.147   5.931   9.682 -0.3523 -0.2630  0.7092
  229MOL0     N30146   6.884   5.624   9.720 -0.4848 -0.2190 -0.4806
  229MOL0     N30147   7.000   5.613   9.771  0.2444 -0.6969 -0.0375
  229MOL0     C30148   8.027   6.216  10.326 -0.1703  0.3320  1.5164
  229MOL0     C30149   8.100   6.259  10.429  0.8658 -0.6122  0.4159
  229MOL0     C30150   8.390   6.284  10.789 -0.8548  0.0734  0.5485
  229MOL0     C30151   8.337   6.408  10.826  0.7644  0.1294 -0.3906
  229MOL0     C30152   8.377   6.463  10.948 -0.0507 -0.3050 -0.1474
  229MOL0     C30153   8.476   6.397  11.033 -0.5760  0.0253  0.2520
  229MOL0     O30154   8.510   6.446  11.152 -0.7722 -1.5250  0.4233
  229MOL0     C30155   8.465   6.571  11.205  0.0428 -0.5671  0.3378
  229MOL0     C30156   8.573   6.606  11.303  0.1191  0.2516  0.3088
  229MOL0     C30157   8.706   6.635  11.235  0.6616  0.5721 -0.7672
  229MOL0     C30158   8.721   6.763  11.156  0.6030  0.0923  1.1558
  229MOL0     C30159   8.689   6.877  11.236  0.2614 -0.3395  0.5373
  229MOL0     C30160   8.667   6.968  11.314  0.0574  0.8999  0.0456
  229MOL0     C30161   8.528   6.276  10.992 -0.3888 -1.0521  0.8235
  229MOL0     C30162   8.480   6.216  10.874  0.3252 -0.5656 -0.4850
  229MOL0     H30163   8.418   6.199  10.335 -0.2464 -0.3142  1.4224
  229MOL0     H30164   8.293   6.120  10.134  0.8888 -1.6956  1.7167
  229MOL0     H30165   7.858   6.198  10.108 -3.1489 -0.3905  0.8504
  229MOL0     H30166   7.852   6.055  10.202  0.8852 -0.0114 -0.3124
  229MOL0     H30167   7.876   5.899  10.020  0.1368 -0.1232  1.0130
  229MOL0     H30168   7.897   6.019   9.905  0.7760 -1.5213  0.6511
  229MOL0     H30169   7.657   6.110   9.951  0.4844  1.4463 -0.6150
  229MOL0     H30170   7.652   6.003  10.095 -1.5461  1.2419  0.0383
  229MOL0     H30171   7.680   5.889   9.818 -4.6694  1.9833 -4.1639
  229MOL0     H30172   7.631   5.808   9.965 -1.6802  0.4292  2.8820
  229MOL0     H30173   7.481   6.019   9.798  2.7268  1.8045  1.2814
  229MOL0     H30174   7.414   5.959   9.947 -3.0928 -2.3113 -1.2333
  229MOL0     H30175   7.460   5.721   9.835 -0.9207  0.8417  2.2164
  229MOL0     H30176   7.472   5.821   9.683  0.4314  2.3267  0.0217
  229MOL0     H30177   7.238   5.837   9.869 -1.7734 -0.1660 -0.4407
  229MOL0     H30178   7.263   5.899   9.699  4.9307  2.0716  1.0826
  229MOL0     H30179   7.243   5.606   9.785 -1.4301 -0.0729  0.6919
  229MOL0     H30180   7.263   5.660   9.620 -0.8236  0.2813  0.1786
  229MOL0     H30181   7.065   5.852   9.554  2.6057 -0.4189  1.3977
  229MOL0     H30182   6.796   5.767   9.433  1.2247  6.6561 -1.2740
  229MOL0     H30183   6.778   5.896   9.539 -1.4211  0.1820  0.5887
  229MOL0     H30184   6.629   5.756   9.685  1.2197 -1.1010 -0.9625
  229MOL0     H30185   6.617   5.629   9.550 -2.6021  0.0864 -1.7514
  229MOL0     H30186   6.535   5.920   9.578 -1.0386  1.3021 -1.9112
  229MOL0     H30187   6.558   5.850   9.422 -0.0639 -1.2572  1.2952
  229MOL0     H30188   6.386   5.695   9.464  1.9993  0.1678 -0.4643
  229MOL0     H30189   6.323   5.863   9.461  0.7139  1.0036  0.7224
  229MOL0     H30190   6.125   5.586   9.628 -3.6269 -1.4052 -0.2058
  229MOL0     H30191   5.901   5.634   9.650 -0.8557  0.8064  1.5938
  229MOL0     H30192   5.533   6.098   9.596  3.0894 -1.0401  0.7597
  229MOL0     H30193   5.283   6.120   9.639 -3.1386 -0.9014  2.5934
  229MOL0     H30194   5.173   6.053  10.058  1.1665  2.3861 -0.2025
  229MOL0     H30195   5.101   5.906   9.984 -2.7836  0.2411  0.5102
  229MOL0     H30196   4.907   6.071   9.914  0.2958  1.0047  1.2840
  229MOL0     H30197   4.988   6.195  10.007  0.5256 -0.4583  0.7484
  229MOL0     H30198   4.950   6.071  10.218  0.7184 -1.0884  1.2800
  229MOL0     H30199   4.907   5.928  10.129  1.3547  1.1219  1.6773
  229MOL0     H30200   4.755   6.190  10.103  4.2161  0.2115  0.4802
  229MOL0     H30201   4.692   6.041  10.021 -1.6716  3.8736 -0.5195
  229MOL0     H30202   4.708   6.073  10.320  1.6636 -0.1534 -0.3627
  229MOL0     H30203   4.629   5.934  10.231 -0.5084 -0.4453 -1.0127
  229MOL0     H30204   4.541   6.228  10.229 -0.4477  0.1295 -2.7103
  229MOL0     H30205   4.471   6.099  10.331  0.1215  2.7245  0.1770
  229MOL0     H30206   4.455   6.158  10.044  0.8551 -2.2154 -1.2379
  229MOL0     H30207   4.425   5.993  10.090  1.1245  0.9822 -3.5471
  229MOL0     H30208   4.215   6.096  10.224 -1.2144 -0.8916 -1.9190
  229MOL0     H30209   4.221   6.135  10.057  0.1480  0.5186 -1.4063
  229MOL0     H30210   5.347   5.952  10.023 -1.7930 -0.9886 -1.1467
  229MOL0     H30211   5.592   5.939   9.975 -0.2573 -0.5680  0.5766
  229MOL0     H30212   5.977   6.054   9.731 -0.8396 -0.6147 -0.0306
  229MOL0     H30213   6.221   6.006   9.711 -0.0567 -0.6209  0.8894
  229MOL0     H30214   7.921   6.228  10.310  0.4230  2.0613 -2.3766
  229MOL0     H30215   8.045   6.305  10.510 -0.8472 -1.3349 -0.2887
  229MOL0     H30216   8.269   6.454  10.756  0.0985  0.3200  0.3735
  229MOL0     H30217   8.329   6.556  10.976  2.7083  2.2020 -2.9660
  229MOL0     H30218   8.370   6.552  11.255 -0.5134  1.4349  0.1107
  229MOL0     H30219   8.453   6.650  11.130 -3.9935  0.9197  2.2706
  229MOL0     H30220   8.541   6.697  11.355 -0.0620 -0.1835  0.9712
  229MOL0     H30221   8.579   6.529  11.380  0.3766 -0.4055 -0.3551
  229MOL0     H30222   8.729   6.545  11.176 -1.6878 -1.1913  0.8055
  229MOL0     H30223   8.779   6.632  11.317 -2.2869 -1.3799  2.0366
  229MOL0     H30224   8.817   6.767  11.103 -0.8686 -2.0957 -1.9288
  229MOL0     H30225   8.649   6.751  11.075  2.3928  2.0525 -0.8833
  229MOL0     H30226   8.672   7.049  11.384  1.4507  1.3340 -0.5165
  229MOL0     H30227   8.609   6.234  11.051 -0.1235 -1.2577  0.3265
  229MOL0     H30228   8.526   6.118  10.862  0.4985 -0.7302  1.3063
  230MOL0     O30229  11.110   5.857   7.544 -0.4388 -0.2200  1.0332
  230MOL0     C30230  11.162   5.879   7.433 -0.2646 -0.7390  0.4184
  230MOL0     O30231  11.092   5.901   7.318 -0.1062 -0.3452  0.0333
  230MOL0     C30232  10.963   5.941   7.326  0.2404 -0.4336  0.2093
  230MOL0     C30233  10.931   6.072   7.314  0.1649  0.0062  0.0507
  230MOL0     C30234  10.800   6.109   7.326 -0.3103  0.5035  0.5924
  230MOL0     C30235  10.699   6.021   7.363 -0.2764  0.1826 -0.0161
  230MOL0     O30236  10.574   6.068   7.394 -0.7370  0.5124  0.1793
  230MOL0     C30237  10.482   5.982   7.462 -0.4041  0.5848 -0.2218
  230MOL0     C30238  10.350   6.064   7.485 -0.0886 -0.1986 -0.1146
  230MOL0     C30239  10.382   6.197   7.549  0.0442  0.2411  0.5456
  230MOL0     C30240  10.246   6.262   7.578  1.0604  0.1825  0.3415
  230MOL0     C30241  10.257   6.393   7.650 -0.0254  0.9437 -0.3606
  230MOL0     C30242  10.126   6.477   7.678  0.5551  0.8496 -0.1338
  230MOL0     C30243  10.165   6.617   7.722  0.5137  0.3772  0.2111
  230MOL0     C30244  10.204   6.705   7.605 -0.4562  0.9220 -0.3555
  230MOL0     N30245  10.087   6.721   7.511  0.8987  0.1463 -0.1185
  230MOL0     C30246   9.967   6.764   7.573 -0.0862  0.4448  0.3359
  230MOL0     C30247   9.878   6.762   7.471  1.3322  0.0394  0.0114
  230MOL0     C30248   9.729   6.799   7.472 -0.1906 -0.1976 -0.0310
  230MOL0     C30249   9.671   6.782   7.608 -0.5867 -0.7957 -0.8279
  230MOL0     C30250   9.517   6.775   7.605  0.4565 -0.1581 -1.0811
  230MOL0     C30251   9.465   6.783   7.751  0.3024  0.2593  0.3033
  230MOL0     O30252   9.323   6.769   7.765  0.2510  0.2587 -0.3194
  230MOL0     C30253   9.264   6.772   7.882  0.7303  1.7588  0.1537
  230MOL0     C30254   9.320   6.794   8.012  1.0430  0.4703  0.7111
  230MOL0     C30255   9.249   6.791   8.121 -0.0137  0.0293  0.0521
  230MOL0     C30256   9.107   6.780   8.118 -0.2348 -0.0547 -0.5303
  230MOL0     C30257   9.031   6.773   8.245 -0.0304  0.3056 -0.4521
  230MOL0     O30258   8.908   6.715   8.233 -0.2173 -0.1405 -0.5128
  230MOL0     C30259   8.815   6.715   8.327  0.1542  0.1509 -0.0754
  230MOL0     C30260   8.810   6.793   8.447 -0.0221 -0.1700 -0.1680
  230MOL0     C30261   8.699   6.777   8.536 -0.2023 -0.1649 -0.4229
  230MOL0     C30262   8.586   6.697   8.506 -0.4381 -0.0649 -0.2806
  230MOL0     O30263   8.487   6.670   8.595 -0.1953  0.0728  0.2469
  230MOL0     C30264   8.532   6.657   8.730  0.2445 -0.4922  0.4321
  230MOL0     C30265   8.444   6.572   8.825 -0.3825  0.1972 -0.0262
  230MOL0     C30266   8.329   6.660   8.858  0.5991 -0.0843  0.3873
  230MOL0     C30267   8.221   6.585   8.945  0.0731  0.7193 -0.6572
  230MOL0     C30268   8.090   6.662   8.956 -0.4738  0.1504 -0.3921
  230MOL0     C30269   7.999   6.616   9.071 -0.4270  0.6316  0.3157
  230MOL0     C30270   7.879   6.529   9.003 -0.2754  0.3385 -0.0053
  230MOL0     C30271   7.808   6.452   9.119 -0.5108 -0.0211  0.3798
  230MOL0    Cl30272   7.664   6.360   9.075 -0.6472 -0.0776  0.2237
  230MOL0     C30273   8.599   6.630   8.396  0.0721 -0.8452  0.0745
  230MOL0     C30274   8.706   6.625   8.305  0.5361 -0.2572  0.4777
  230MOL0     O30275   9.087   6.803   8.349 -0.1870  0.2366  0.0311
  230MOL0     C30276   9.045   6.775   7.992  0.2497 -0.6460 -0.1676
  230MOL0     C30277   9.128   6.766   7.873  0.3287  0.6272 -0.0773
  230MOL0     N30278   9.948   6.736   7.352 -0.2408  0.5029  0.4263
  230MOL0     N30279  10.070   6.711   7.379 -0.6723 -0.0453  0.2619
  230MOL0     C30280  10.735   5.881   7.369  0.0227  0.6237  0.0756
  230MOL0     C30281  10.867   5.842   7.344 -0.0720 -0.1836 -0.1163
  230MOL0     C30282  11.308   5.879   7.433 -0.5816 -0.3963  0.0160
  230MOL0     C30283  11.373   5.892   7.310  0.2151  0.0142  0.3307
  230MOL0     C30284  11.512   5.914   7.306  0.3957 -0.0699 -0.0133
  230MOL0     C30285  11.591   5.926   7.418 -0.4029 -0.3093  0.0458
  230MOL0     O30286  11.726   5.947   7.413 -0.0859 -0.4025  0.1918
  230MOL0     C30287  11.788   5.990   7.535 -0.3639 -0.2292 -0.5951
  230MOL0     C30288  11.906   6.068   7.495  0.8108 -0.9425  0.9476
  230MOL0     C30289  12.029   5.996   7.445 -0.1522  0.2636  0.1355
  230MOL0     C30290  12.149   6.082   7.418 -0.1932  1.4386  0.8560
  230MOL0     C30291  12.114   6.204   7.342 -0.3790 -0.6855 -0.1438
  230MOL0     C30292  12.104   6.313   7.282 -0.4274  0.3236 -0.7800
  230MOL0     C30293  11.532   5.897   7.542  0.8831  0.1642 -0.2172
  230MOL0     C30294  11.393   5.887   7.546  0.4990 -0.6058  0.2819
  230MOL0     H30295  11.013   6.141   7.294  0.4141  0.2426  1.7691
  230MOL0     H30296  10.790   6.217   7.327  2.4445  0.9377 -2.4982
  230MOL0     H30297  10.523   5.937   7.553 -1.4756  0.4326  0.1990
  230MOL0     H30298  10.461   5.892   7.402 -0.2767  0.1984  0.3088
  230MOL0     H30299  10.273   6.007   7.537  1.8419 -1.0057  2.0762
  230MOL0     H30300  10.305   6.086   7.388 -1.7872  0.3881  0.7631
  230MOL0     H30301  10.440   6.263   7.482  2.6475  1.0760  3.4074
  230MOL0     H30302  10.440   6.178   7.640 -0.8601  0.4422  1.1707
  230MOL0     H30303  10.207   6.290   7.480  3.4511  3.2632  0.1097
  230MOL0     H30304  10.175   6.201   7.636  1.1372 -0.5863 -0.3595
  230MOL0     H30305  10.323   6.467   7.603 -0.6687  2.7873  1.4437
  230MOL0     H30306  10.309   6.362   7.741 -0.1584 -0.5258 -0.7674
  230MOL0     H30307  10.074   6.426   7.759 -0.7135  0.6856 -1.0298
  230MOL0     H30308  10.064   6.484   7.588  0.0532  1.3827  0.2507
  230MOL0     H30309  10.083   6.655   7.782  0.8188  0.7169  0.4142
  230MOL0     H30310  10.242   6.612   7.800  2.4051 -1.6568 -1.6216
  230MOL0     H30311  10.285   6.651   7.554  0.0488 -1.0275  2.3236
  230MOL0     H30312  10.246   6.803   7.628 -1.4570  2.5458 -4.4462
  230MOL0     H30313   9.948   6.778   7.679  0.1615  0.0458  0.4359
  230MOL0     H30314   9.682   6.724   7.409  4.1500 -2.2790 -1.1941
  230MOL0     H30315   9.721   6.905   7.449  1.4761  0.6880  2.9820
  230MOL0     H30316   9.703   6.867   7.669 -2.3247 -0.0899 -0.8457
  230MOL0     H30317   9.715   6.690   7.646 -0.2830 -0.9063 -1.4286
  230MOL0     H30318   9.468   6.858   7.554 -0.5257 -0.8605 -1.3202
  230MOL0     H30319   9.487   6.685   7.550 -0.0934  1.7079 -4.0607
  230MOL0     H30320   9.496   6.878   7.797 -3.2514  1.4843  0.4944
  230MOL0     H30321   9.514   6.704   7.809 -4.2926 -2.9922  0.2833
  230MOL0     H30322   9.429   6.801   8.014  1.7213 -1.5228 -5.6271
  230MOL0     H30323   9.306   6.792   8.214 -0.0258 -0.2484  0.0648
  230MOL0     H30324   8.873   6.876   8.476 -1.7940  1.3949 -0.5728
  230MOL0     H30325   8.695   6.839   8.625  1.9386  2.4401 -1.9555
  230MOL0     H30326   8.547   6.755   8.776 -0.8950 -0.2577  0.3118
  230MOL0     H30327   8.633   6.615   8.719  0.6003  0.9236 -2.5308
  230MOL0     H30328   8.511   6.524   8.896  0.9729 -2.2571 -2.7514
  230MOL0     H30329   8.405   6.483   8.775  0.5377 -0.3411  0.2060
  230MOL0     H30330   8.282   6.689   8.763  0.4087  0.7093  0.7166
  230MOL0     H30331   8.355   6.759   8.897  3.1967 -0.2718 -0.6887
  230MOL0     H30332   8.196   6.484   8.912 -0.5791 -0.0843  2.1167
  230MOL0     H30333   8.269   6.555   9.038 -1.4184 -0.6296 -0.2829
  230MOL0     H30334   8.033   6.664   8.862  0.4962 -0.0292 -0.9997
  230MOL0     H30335   8.124   6.764   8.972 -0.8389 -0.0815  2.1776
  230MOL0     H30336   7.962   6.709   9.115  0.3702  2.0630 -1.8644
  230MOL0     H30337   8.046   6.574   9.160 -2.0059  2.6528  2.2422
  230MOL0     H30338   7.808   6.598   8.957 -0.1578  1.0503  0.8589
  230MOL0     H30339   7.919   6.452   8.936  2.4686  0.5164  1.3095
  230MOL0     H30340   7.787   6.517   9.205  1.6625  0.1730  0.8321
  230MOL0     H30341   7.893   6.401   9.165  1.4010  2.2204 -0.4367
  230MOL0     H30342   8.518   6.563   8.371  0.6488 -1.4346 -0.2414
  230MOL0     H30343   8.713   6.563   8.216 -1.6717  0.3914 -0.2083
  230MOL0     H30344   8.937   6.774   7.978  0.1238 -0.0576  0.7024
  230MOL0     H30345   9.088   6.758   7.772  2.4619  0.7862 -0.9902
  230MOL0     H30346  10.661   5.809   7.402  0.9444 -0.6709 -0.6131
  230MOL0     H30347  10.904   5.741   7.357 -0.0469  0.1007  2.7256
  230MOL0     H30348  11.310   5.878   7.223  0.8165 -1.0455  0.0347
  230MOL0     H30349  11.575   5.927   7.218  0.3746 -3.6917 -0.6916
  230MOL0     H30350  11.813   5.906   7.601 -0.7785 -0.3816 -0.6304
  230MOL0     H30351  11.729   6.055   7.600 -2.6311 -1.5836 -1.1923
  230MOL0     H30352  11.876   6.142   7.420  2.4396 -0.6221  0.5681
  230MOL0     H30353  11.932   6.127   7.583 -0.3704 -0.7567  1.1917
  230MOL0     H30354  12.003   5.932   7.361  2.7777 -2.1070  0.8506
  230MOL0     H30355  12.064   5.918   7.513  3.9882 -0.1159 -2.0999
  230MOL0     H30356  12.187   6.111   7.516  1.4222 -0.5716  0.9076
  230MOL0     H30357  12.223   6.022   7.364  0.4280  3.8750 -1.1973
  230MOL0     H30358  12.087   6.393   7.213 -1.2086 -0.3016 -1.3392
  230MOL0     H30359  11.596   5.904   7.630  2.3050  2.2554 -1.3408
  230MOL0     H30360  11.344   5.886   7.643  3.7309  0.8349  2.0862
  231MOL0     O30361   4.384   5.149   1.468 -1.0632  0.1143 -0.4060
  231MOL0     C30362   4.491   5.092   1.433  0.4200 -0.1076  0.2848
  231MOL0     O30363   4.518   5.021   1.309 -0.1880 -0.3219 -0.2881
  231MOL0     C30364   4.414   5.009   1.227  0.2367  0.6604  0.6170
  231MOL0     C30365   4.371   5.103   1.140 -0.2522  0.3835  0.8263
  231MOL0     C30366   4.246   5.080   1.063 -0.4518 -0.4477  0.0724
  231MOL0     C30367   4.170   4.967   1.086 -0.1747 -0.4841  0.0208
  231MOL0     O30368   4.057   4.957   1.013  0.5563  0.5325 -0.2638
  231MOL0     C30369   3.967   4.850   1.061  0.3344 -0.1559 -0.2166
  231MOL0     C30370   3.845   4.871   0.969 -0.0151  0.9486 -0.7205
  231MOL0     C30371   3.749   4.749   0.957  0.0231 -0.0149 -0.7734
  231MOL0     C30372   3.643   4.777   0.855  1.1140  0.3679  0.1772
  231MOL0     C30373   3.545   4.889   0.898  0.1032  0.1900  0.5455
  231MOL0     C30374   3.428   4.895   0.801 -0.1965  0.4402  0.1057
  231MOL0     C30375   3.329   4.799   0.863 -0.4579  0.0820 -0.4516
  231MOL0     C30376   3.186   4.792   0.802  0.4172 -0.2825  0.5431
  231MOL0     N30377   3.091   4.715   0.888  0.5847 -0.1086  0.1760
  231MOL0     C30378   3.017   4.611   0.834  0.2323  0.1226 -0.0090
  231MOL0     C30379   2.967   4.550   0.942 -0.2637  0.1216  0.2622
  231MOL0     C30380   2.897   4.417   0.943  0.3882 -0.0650  0.1620
  231MOL0     C30381   2.748   4.419   0.931 -0.3188 -0.7928  0.6016
  231MOL0     C30382   2.704   4.430   0.779  0.2866  0.3957 -0.7071
  231MOL0     C30383   2.554   4.436   0.775  0.5669  0.6647  0.4371
  231MOL0     O30384   2.510   4.570   0.800 -0.5142  0.2048  0.2022
  231MOL0     C30385   2.400   4.587   0.882  0.4213  0.2351  0.0224
  231MOL0     C30386   2.271   4.574   0.838 -0.5385 -0.7123  0.6786
  231MOL0     C30387   2.166   4.575   0.935  0.9986 -0.3815  0.3453
  231MOL0     C30388   2.190   4.612   1.065 -0.6087 -0.8168 -0.2691
  231MOL0     C30389   2.090   4.618   1.172 -0.6460 -0.3472  0.3882
  231MOL0     O30390   2.132   4.661   1.301 -0.0278  0.4418  0.3992
  231MOL0     C30391   2.062   4.635   1.419  0.0770 -0.2118 -0.5914
  231MOL0     C30392   2.089   4.718   1.541  0.3317  0.0931  0.3938
  231MOL0     C30393   2.023   4.690   1.663  0.4748 -0.6569  0.1180
  231MOL0     C30394   1.940   4.579   1.678 -0.4936  0.1368 -0.6298
  231MOL0     O30395   1.880   4.546   1.798 -0.8901  0.4738 -0.1451
  231MOL0     C30396   1.740   4.512   1.803  0.9752  0.1884  0.3258
  231MOL0     C30397   1.656   4.637   1.818  0.2008  0.2734 -0.0764
  231MOL0     C30398   1.502   4.612   1.816 -0.1633 -1.3656 -1.0069
  231MOL0     C30399   1.455   4.517   1.924  0.4246  0.0730 -0.0004
  231MOL0     C30400   1.305   4.466   1.920 -0.5150  0.0430 -0.0540
  231MOL0     C30401   1.191   4.581   1.922 -0.0768  0.0471  0.3172
  231MOL0     C30402   1.174   4.635   2.067 -0.3562  0.1049 -0.0289
  231MOL0     C30403   1.090   4.761   2.075 -0.6612 -0.1155 -0.9673
  231MOL0    Cl30404   1.164   4.906   2.000 -0.5034  0.3040 -0.2718
  231MOL0     C30405   1.925   4.505   1.558 -0.3676  0.7174 -0.7123
  231MOL0     C30406   1.979   4.532   1.439  0.8224  0.3490  0.2726
  231MOL0     O30407   1.978   4.576   1.139  0.0332  0.8938 -1.0028
  231MOL0     C30408   2.316   4.665   1.095  0.0565 -0.4301  0.0487
  231MOL0     C30409   2.420   4.644   1.003 -0.0211 -0.0665 -0.0230
  231MOL0     N30410   3.005   4.618   1.055 -0.2677 -0.5416  0.3200
  231MOL0     N30411   3.084   4.711   1.021  0.4335 -0.0576 -0.0609
  231MOL0     C30412   4.223   4.866   1.178 -0.4314 -0.4456 -0.6920
  231MOL0     C30413   4.340   4.894   1.249 -0.5123  0.9547 -0.1241
  231MOL0     C30414   4.610   5.112   1.516  0.2423 -0.4545 -0.1747
  231MOL0     C30415   4.625   5.233   1.585 -0.0501  0.5702 -0.4627
  231MOL0     C30416   4.738   5.253   1.668  0.3459 -0.0379  0.2519
  231MOL0     C30417   4.825   5.146   1.695  0.9414 -0.0650  0.7982
  231MOL0     O30418   4.933   5.144   1.782  0.5872 -0.4747 -0.3809
  231MOL0     C30419   4.979   5.261   1.843  0.7220 -0.1216  0.1468
  231MOL0     C30420   5.071   5.337   1.745  0.3083 -0.7539 -0.4188
  231MOL0     C30421   5.213   5.275   1.753  0.3397  0.2905 -0.0237
  231MOL0     C30422   5.285   5.292   1.895 -0.1847 -0.7656 -0.6146
  231MOL0     C30423   5.429   5.281   1.882 -0.5065  0.0008 -0.1878
  231MOL0     C30424   5.550   5.280   1.870 -0.9588 -1.4084  0.6192
  231MOL0     C30425   4.804   5.019   1.634 -0.0176 -0.6615  0.3379
  231MOL0     C30426   4.697   5.008   1.541  0.4090 -0.5980 -0.0178
  231MOL0     H30427   4.429   5.194   1.130  2.0542 -0.8455  2.3079
  231MOL0     H30428   4.220   5.149   0.984  0.8097 -0.7233 -0.6024
  231MOL0     H30429   3.943   4.872   1.165  1.0243  2.9225 -0.5826
  231MOL0     H30430   4.003   4.749   1.045 -3.7306 -1.7061 -0.7822
  231MOL0     H30431   3.869   4.896   0.865  0.6398 -2.6968 -1.5595
  231MOL0     H30432   3.791   4.957   1.012 -0.6563  0.4589 -0.5327
  231MOL0     H30433   3.703   4.724   1.053  1.4991 -2.2657 -0.5823
  231MOL0     H30434   3.802   4.658   0.929 -0.7489 -0.8895  0.5109
  231MOL0     H30435   3.698   4.800   0.763 -1.4214 -2.5488 -2.2939
  231MOL0     H30436   3.580   4.689   0.840 -0.7591  1.7303 -0.3368
  231MOL0     H30437   3.599   4.983   0.883 -0.6714  0.2566 -2.3854
  231MOL0     H30438   3.522   4.879   1.004  1.3694  2.0863  1.0489
  231MOL0     H30439   3.458   4.865   0.700 -0.9089 -0.4788  0.1540
  231MOL0     H30440   3.371   4.988   0.800 -0.3153  0.3677  0.1337
  231MOL0     H30441   3.365   4.699   0.891 -1.8467 -0.0230  1.0736
  231MOL0     H30442   3.309   4.838   0.963  3.6195  0.6532  0.3169
  231MOL0     H30443   3.199   4.761   0.698 -0.3346 -0.2530  0.4323
  231MOL0     H30444   3.148   4.894   0.793 -1.6563 -0.9964  0.6588
  231MOL0     H30445   3.000   4.579   0.732 -0.2339  2.9981 -0.9296
  231MOL0     H30446   2.915   4.358   1.034 -1.3262 -3.4031 -1.5081
  231MOL0     H30447   2.933   4.353   0.863 -0.9053 -0.3361 -0.2223
  231MOL0     H30448   2.721   4.511   0.984  2.8522  0.3700  0.4400
  231MOL0     H30449   2.690   4.337   0.973  0.0449 -2.0647 -1.2274
  231MOL0     H30450   2.742   4.522   0.733  2.0659  1.5940  2.8298
  231MOL0     H30451   2.729   4.338   0.726 -0.4610  0.5252 -1.3017
  231MOL0     H30452   2.511   4.362   0.843  3.7109 -1.7597 -0.0107
  231MOL0     H30453   2.528   4.400   0.674 -0.8354  2.5194  0.0722
  231MOL0     H30454   2.246   4.546   0.736 -1.4131 -1.7136  1.1545
  231MOL0     H30455   2.070   4.539   0.897  2.5820 -0.9534 -3.5894
  231MOL0     H30456   2.155   4.804   1.547  0.7287 -0.3196  3.0278
  231MOL0     H30457   2.038   4.759   1.745 -3.4447 -2.6175  2.8177
  231MOL0     H30458   1.725   4.442   1.885 -1.3717  0.6876  0.3851
  231MOL0     H30459   1.712   4.461   1.710  0.5646  2.6228 -0.9795
  231MOL0     H30460   1.687   4.719   1.753  2.2952  2.1328  2.9842
  231MOL0     H30461   1.684   4.687   1.911 -1.5739 -0.5156  0.9315
  231MOL0     H30462   1.480   4.572   1.717  0.8713 -2.6176 -0.7550
  231MOL0     H30463   1.446   4.706   1.824  1.1727 -0.5197 -1.1039
  231MOL0     H30464   1.509   4.421   1.930  0.9807  0.3560 -0.3826
  231MOL0     H30465   1.470   4.566   2.021 -2.1561  1.2323 -0.1083
  231MOL0     H30466   1.287   4.391   1.997 -0.0434 -0.9420 -0.8745
  231MOL0     H30467   1.300   4.419   1.821  1.6763  0.0068 -0.1753
  231MOL0     H30468   1.099   4.544   1.876  1.0139  0.1085 -2.0761
  231MOL0     H30469   1.232   4.666   1.867  0.9964  0.1927  1.2876
  231MOL0     H30470   1.114   4.573   2.133 -0.0383  2.5757  2.7865
  231MOL0     H30471   1.275   4.645   2.108 -0.3386 -3.0852  0.9263
  231MOL0     H30472   1.073   4.778   2.182 -1.2628 -5.7535  0.1329
  231MOL0     H30473   0.997   4.736   2.022 -0.7642 -0.6652 -0.5331
  231MOL0     H30474   1.858   4.420   1.566 -2.0580  2.0967  0.5731
  231MOL0     H30475   1.947   4.462   1.363  0.7019 -0.6674  1.2400
  231MOL0     H30476   2.340   4.718   1.187 -1.7030  0.9776 -0.2608
  231MOL0     H30477   2.522   4.665   1.035 -0.4163 -0.4127  1.5221
  231MOL0     H30478   4.162   4.778   1.197 -0.6947 -0.2413 -0.5819
  231MOL0     H30479   4.376   4.826   1.326 -0.6283  0.2947 -0.6415
  231MOL0     H30480   4.552   5.312   1.577 -1.5149 -0.6225  0.5600
  231MOL0     H30481   4.743   5.344   1.728  0.9716 -1.1770  1.9959
  231MOL0     H30482   5.035   5.223   1.928 -1.7749 -2.6029  0.8118
  231MOL0     H30483   4.892   5.316   1.881  0.2059 -0.7188 -0.1396
  231MOL0     H30484   5.041   5.356   1.641 -0.4309 -1.3290 -0.3159
  231MOL0     H30485   5.084   5.442   1.774  1.1149 -0.1194 -2.8363
  231MOL0     H30486   5.269   5.332   1.678 -0.6535  0.8743 -0.3398
  231MOL0     H30487   5.208   5.168   1.729  1.1992 -0.1533  1.6306
  231MOL0     H30488   5.265   5.395   1.925  1.2990 -0.6718  0.1292
  231MOL0     H30489   5.249   5.223   1.973 -4.1748  0.1933 -1.3865
  231MOL0     H30490   5.657   5.272   1.872 -0.9659 -1.4563  1.3816
  231MOL0     H30491   4.867   4.937   1.667  2.0288  0.5285 -0.4439
  231MOL0     H30492   4.671   4.912   1.499  1.6748 -2.3156  2.8164
  232MOL0     O30493   3.712   3.660  10.373 -0.2039 -0.6366 -0.0450
  232MOL0     C30494   3.653   3.737  10.448  0.2928  0.1589  0.0451
  232MOL0     O30495   3.703   3.847  10.512 -0.1638  0.6726 -0.5481
  232MOL0     C30496   3.840   3.873  10.504  0.7106 -0.5814  0.0455
  232MOL0     C30497   3.910   3.871  10.623 -0.5299  0.1706  0.4274
  232MOL0     C30498   4.052   3.891  10.619 -0.2112  0.2061 -0.2355
  232MOL0     C30499   4.128   3.917  10.504  0.4035  0.0433  0.7132
  232MOL0     O30500   4.251   3.945  10.533 -0.7117 -0.4350 -0.2495
  232MOL0     C30501   4.335   3.979  10.425  0.3412 -0.1050  0.7766
  232MOL0     C30502   4.473   4.033  10.461  0.6854  0.6783 -0.9349
  232MOL0     C30503   4.568   3.926  10.527  0.1338  0.3161  0.1059
  232MOL0     C30504   4.713   3.966  10.530  0.7222 -0.3901  0.3597
  232MOL0     C30505   4.784   3.838  10.560  0.0888 -0.1326 -0.5530
  232MOL0     C30506   4.927   3.835  10.501 -0.3513  0.3470  0.3512
  232MOL0     C30507   4.928   3.808  10.349 -0.3515  0.2625  0.1996
  232MOL0     C30508   5.067   3.829  10.280  0.7258 -0.0483 -0.3070
  232MOL0     N30509   5.054   3.794  10.141 -0.2198 -0.5525  0.0528
  232MOL0     C30510   4.992   3.693  10.073  0.2130  0.1401 -0.5315
  232MOL0     C30511   5.042   3.697   9.947  0.1872 -0.3085 -0.6643
  232MOL0     C30512   5.016   3.619   9.822  0.7542 -0.0503  0.1164
  232MOL0     C30513   4.874   3.620   9.760 -1.2975 -0.2710  0.1227
  232MOL0     C30514   4.772   3.553   9.845 -0.4300  0.2572 -0.3186
  232MOL0     C30515   4.632   3.568   9.779  0.1472 -0.2430  0.7721
  232MOL0     O30516   4.543   3.512   9.872 -0.7860 -0.4768  0.5409
  232MOL0     C30517   4.411   3.491   9.836 -1.0968 -0.0933  0.5938
  232MOL0     C30518   4.329   3.418   9.918 -0.8957 -0.3428  0.3273
  232MOL0     C30519   4.196   3.402   9.878  0.7177  0.6758 -0.3294
  232MOL0     C30520   4.138   3.457   9.763 -0.3915  0.2179 -0.4960
  232MOL0     C30521   3.989   3.448   9.734  0.0446 -0.6386  0.4613
  232MOL0     O30522   3.944   3.488   9.605 -0.3365  0.5866  0.2352
  232MOL0     C30523   3.815   3.467   9.572  0.2719  0.0170 -0.0561
  232MOL0     C30524   3.786   3.434   9.438  0.0759  0.3857 -0.4142
  232MOL0     C30525   3.654   3.429   9.389 -0.0385  0.3976  0.7233
  232MOL0     C30526   3.548   3.468   9.474  1.5940 -1.0443 -0.1271
  232MOL0     O30527   3.413   3.477   9.443 -0.7699 -0.1707 -0.3025
  232MOL0     C30528   3.373   3.414   9.321 -0.6183 -0.9776 -0.2768
  232MOL0     C30529   3.222   3.412   9.299  0.1321  0.1686  0.2375
  232MOL0     C30530   3.135   3.524   9.355 -0.3516 -0.3881  0.2594
  232MOL0     C30531   3.003   3.539   9.277 -0.6185 -0.1384 -0.2521
  232MOL0     C30532   2.925   3.657   9.325  0.6262 -0.6924 -0.3117
  232MOL0     C30533   2.804   3.650   9.234  0.1811 -0.5269 -0.2514
  232MOL0     C30534   2.735   3.789   9.235  0.5698 -0.0861 -0.2662
  232MOL0     C30535   2.621   3.785   9.131 -0.0964  0.0523 -0.2874
  232MOL0    Cl30536   2.500   3.656   9.165 -0.1235 -0.5749  0.6474
  232MOL0     C30537   3.579   3.512   9.602 -0.1361  1.0400  0.0440
  232MOL0     C30538   3.710   3.516   9.649  0.8545  0.0820 -0.5893
  232MOL0     O30539   3.918   3.404   9.826 -0.5962 -0.2071 -0.1709
  232MOL0     C30540   4.231   3.513   9.674  0.9183  0.8297 -0.2041
  232MOL0     C30541   4.361   3.538   9.712 -0.6689  0.2631  0.3554
  232MOL0     N30542   5.138   3.799   9.937 -0.1780  0.0191 -0.3385
  232MOL0     N30543   5.137   3.854  10.052  0.4152 -0.0512  0.5196
  232MOL0     C30544   4.053   3.918  10.379  0.0250  0.9171  0.1071
  232MOL0     C30545   3.915   3.901  10.381 -0.6508  0.8302  0.1805
  232MOL0     C30546   3.512   3.707  10.463 -0.2131  1.2054 -0.2861
  232MOL0     C30547   3.431   3.803  10.529 -0.4408  0.2863 -0.2145
  232MOL0     C30548   3.295   3.760  10.554 -0.9085 -0.1862 -0.2628
  232MOL0     C30549   3.243   3.633  10.523 -0.5179  0.5119  0.4359
  232MOL0     O30550   3.116   3.597  10.549  0.0285  0.9557 -0.0450
  232MOL0     C30551   3.043   3.656  10.655  0.6761 -1.0404 -0.8338
  232MOL0     C30552   2.943   3.556  10.710 -0.8240 -0.2397  1.1049
  232MOL0     C30553   3.018   3.434  10.773 -0.1492  0.0869 -0.8667
  232MOL0     C30554   3.076   3.478  10.917 -0.0624 -0.3168 -0.0431
  232MOL0     C30555   2.974   3.464  11.022  0.8722 -0.3226  0.0958
  232MOL0     C30556   2.890   3.471  11.108  0.3820  0.2857  0.3070
  232MOL0     C30557   3.328   3.548  10.459 -0.1579 -0.1945 -0.0942
  232MOL0     C30558   3.461   3.576  10.428  0.5427 -0.4464  1.3727
  232MOL0     H30559   3.866   3.830  10.713 -0.1844 -2.0455 -0.3557
  232MOL0     H30560   4.112   3.883  10.709  1.1145  1.2482 -0.9916
  232MOL0     H30561   4.298   4.064  10.368  0.9761 -2.3735 -3.3464
  232MOL0     H30562   4.344   3.889  10.364  0.6336 -0.9083  1.9550
  232MOL0     H30563   4.458   4.125  10.518  1.4974 -0.0920  0.5901
  232MOL0     H30564   4.523   4.069  10.371  0.4841  2.3945 -0.3899
  232MOL0     H30565   4.550   3.838  10.465 -0.0795 -0.3780  1.1224
  232MOL0     H30566   4.532   3.911  10.629 -4.3454 -1.5154 -1.4807
  232MOL0     H30567   4.736   4.005  10.430  0.0779  0.0175  0.3663
  232MOL0     H30568   4.719   4.054  10.594 -1.1397  0.0127  0.0423
  232MOL0     H30569   4.728   3.756  10.516  2.2293 -1.6954 -0.5535
  232MOL0     H30570   4.801   3.823  10.667  2.3625 -0.6230 -0.9303
  232MOL0     H30571   4.985   3.755  10.547  2.0784 -0.1576 -3.2080
  232MOL0     H30572   4.983   3.927  10.518  0.0176 -0.0080  1.1083
  232MOL0     H30573   4.902   3.702  10.340  2.6543 -0.8946  2.8904
  232MOL0     H30574   4.854   3.874  10.302 -0.9229 -1.8907 -2.0990
  232MOL0     H30575   5.138   3.769  10.338 -4.2336 -4.1676  2.3197
  232MOL0     H30576   5.088   3.936  10.289 -2.1445  0.4643  2.1044
  232MOL0     H30577   4.910   3.625  10.095  2.8468 -2.5821  1.5892
  232MOL0     H30578   5.038   3.514   9.841  0.3937 -0.5596 -2.0015
  232MOL0     H30579   5.082   3.657   9.744  4.2923  0.2544  2.9962
  232MOL0     H30580   4.889   3.570   9.664 -0.3893  2.7684 -1.4357
  232MOL0     H30581   4.850   3.725   9.744 -2.9543 -0.8136 -1.2827
  232MOL0     H30582   4.794   3.448   9.869 -1.5115  0.1010  0.0158
  232MOL0     H30583   4.767   3.605   9.941  0.4202  0.3490 -0.3132
  232MOL0     H30584   4.638   3.511   9.686  0.2784  2.3963 -0.9432
  232MOL0     H30585   4.607   3.672   9.755 -1.8144 -0.7845  0.3027
  232MOL0     H30586   4.360   3.389  10.018  1.1838  0.4098 -0.0492
  232MOL0     H30587   4.140   3.341   9.948  1.1414  0.0098 -0.5597
  232MOL0     H30588   3.875   3.405   9.383  1.6598  2.2045  1.0137
  232MOL0     H30589   3.642   3.405   9.284 -2.6145 -0.7688  1.2099
  232MOL0     H30590   3.417   3.314   9.326  3.1016  0.5301  3.8439
  232MOL0     H30591   3.413   3.473   9.238 -1.6189  2.5867  1.5884
  232MOL0     H30592   3.209   3.315   9.348  2.1859 -0.7216 -0.8349
  232MOL0     H30593   3.207   3.395   9.192  1.3362 -2.0032  0.3564
  232MOL0     H30594   3.183   3.621   9.338 -0.8421 -0.2922 -0.6275
  232MOL0     H30595   3.111   3.502   9.460  1.4198 -0.0760  0.7672
  232MOL0     H30596   3.028   3.563   9.173 -3.9730 -0.9272 -1.3849
  232MOL0     H30597   2.949   3.444   9.280  2.2086 -1.8543 -0.2499
  232MOL0     H30598   2.986   3.746   9.305  4.9311 -2.9438  1.4110
  232MOL0     H30599   2.911   3.629   9.429  3.8824 -0.9309  0.1766
  232MOL0     H30600   2.744   3.569   9.275  0.9940 -0.6383  0.7614
  232MOL0     H30601   2.815   3.619   9.130 -1.6750 -0.0499 -0.6286
  232MOL0     H30602   2.698   3.804   9.337  1.1553 -0.4502  0.0080
  232MOL0     H30603   2.809   3.865   9.208  0.4155 -0.9456 -3.6322
  232MOL0     H30604   2.673   3.765   9.037  0.0902  0.8713 -0.3718
  232MOL0     H30605   2.575   3.884   9.126  2.4893  1.5826  2.4965
  232MOL0     H30606   3.500   3.542   9.670  1.2143  0.9803  1.6930
  232MOL0     H30607   3.739   3.556   9.745 -2.0407 -1.4493  1.0639
  232MOL0     H30608   4.201   3.547   9.575 -1.7828 -1.7670 -0.4182
  232MOL0     H30609   4.432   3.597   9.655 -1.1439 -2.0085 -2.8404
  232MOL0     H30610   4.090   3.938  10.279 -0.3040  0.9100 -0.0173
  232MOL0     H30611   3.860   3.895  10.288 -0.1355 -0.3086 -0.0636
  232MOL0     H30612   3.461   3.906  10.548  0.0391 -0.0518  1.0163
  232MOL0     H30613   3.237   3.838  10.603  0.8122 -1.1400  3.6860
  232MOL0     H30614   2.997   3.748  10.618  3.5993  2.0882  2.4383
  232MOL0     H30615   3.110   3.692  10.735  0.5518 -0.3842 -1.0200
  232MOL0     H30616   2.885   3.606  10.789 -0.0126  1.1328  0.8664
  232MOL0     H30617   2.884   3.521  10.625  2.6076  2.4036 -2.7605
  232MOL0     H30618   3.109   3.412  10.717  0.7511  0.8739  0.2201
  232MOL0     H30619   2.953   3.347  10.770 -3.2971  2.2261  0.1714
  232MOL0     H30620   3.146   3.399  10.946  1.4734  1.0469  0.1124
  232MOL0     H30621   3.134   3.570  10.926 -0.9674  0.3154 -0.5172
  232MOL0     H30622   2.826   3.480  11.193  1.7385 -0.4300  1.4408
  232MOL0     H30623   3.290   3.447  10.471  1.4324 -0.5868  2.3101
  232MOL0     H30624   3.524   3.507  10.372 -2.2986 -2.0677 -0.0255
  233MOL0     O30625   4.568   0.919   3.283 -0.0195 -0.1360  0.9022
  233MOL0     C30626   4.619   0.852   3.370  0.1194  0.2773 -0.8717
  233MOL0     O30627   4.558   0.751   3.426  0.0921  0.9886 -0.6183
  233MOL0     C30628   4.422   0.744   3.402  0.0927 -0.6545 -0.1831
  233MOL0     C30629   4.332   0.810   3.482 -0.0497 -0.9367  0.9853
  233MOL0     C30630   4.194   0.789   3.474  0.3060  0.6001 -0.3679
  233MOL0     C30631   4.145   0.701   3.377  0.2991  0.6081 -0.0837
  233MOL0     O30632   4.011   0.679   3.348  0.7681  0.1370  0.0163
  233MOL0     C30633   3.921   0.773   3.404 -0.2403 -0.1863  0.7144
  233MOL0     C30634   3.877   0.729   3.541  0.0012 -0.2915  0.1658
  233MOL0     C30635   3.767   0.618   3.546  0.1759 -0.0858  0.1348
  233MOL0     C30636   3.621   0.665   3.538 -0.4220 -0.0084 -0.5341
  233MOL0     C30637   3.533   0.543   3.526 -0.1606  0.1051  0.4265
  233MOL0     C30638   3.392   0.584   3.553  0.2802  0.1687  0.3666
  233MOL0     C30639   3.297   0.467   3.560  0.3602  0.6447 -0.5710
  233MOL0     C30640   3.284   0.382   3.433 -0.2828  0.2307  0.1237
  233MOL0     N30641   3.249   0.471   3.323 -0.0984  0.4606  0.0305
  233MOL0     C30642   3.132   0.544   3.302 -0.4331  0.7386  0.1049
  233MOL0     C30643   3.163   0.623   3.198  0.6708 -0.5123  0.3250
  233MOL0     C30644   3.073   0.729   3.135 -0.3117 -0.2804 -1.0109
  233MOL0     C30645   2.980   0.648   3.048  0.3450 -0.5162  0.0257
  233MOL0     C30646   2.882   0.743   2.979 -0.0479 -0.2585  0.8128
  233MOL0     C30647   2.754   0.679   2.926 -0.8336  0.8934  0.8481
  233MOL0     O30648   2.697   0.585   3.025 -0.5314  0.3589  0.1483
  233MOL0     C30649   2.573   0.616   3.066 -0.0361  0.4074 -0.3081
  233MOL0     C30650   2.474   0.658   2.976  0.1692  0.1441 -0.2534
  233MOL0     C30651   2.347   0.686   3.031 -0.0245  0.1751 -0.0089
  233MOL0     C30652   2.316   0.679   3.169 -0.0440 -0.1691 -0.6184
  233MOL0     C30653   2.180   0.709   3.213  0.4202 -0.0409  0.2625
  233MOL0     O30654   2.082   0.731   3.115 -0.4013 -0.6102  0.2495
  233MOL0     C30655   1.962   0.771   3.156  0.7199  0.0360  0.4616
  233MOL0     C30656   1.929   0.910   3.140  0.6802  0.7811 -0.8191
  233MOL0     C30657   1.796   0.948   3.190 -0.5952 -0.8560  0.3541
  233MOL0     C30658   1.701   0.861   3.242 -0.3913  0.0603  0.2175
  233MOL0     O30659   1.570   0.890   3.275  0.8650 -0.3421  0.2072
  233MOL0     C30660   1.539   1.027   3.296  0.2542  0.5425  0.1972
  233MOL0     C30661   1.417   1.046   3.387 -0.8365 -0.6817 -0.2761
  233MOL0     C30662   1.285   1.071   3.295 -1.0163  0.1567 -0.5862
  233MOL0     C30663   1.254   0.960   3.198  0.1114 -0.1372  1.9119
  233MOL0     C30664   1.113   0.963   3.146  0.4509  0.5008  0.1804
  233MOL0     C30665   1.008   0.902   3.235 -0.4832  0.2601 -0.0527
  233MOL0     C30666   0.886   0.843   3.154  0.1176  0.2353  0.2457
  233MOL0     C30667   0.849   0.951   3.053  0.3052 -0.0750  0.4531
  233MOL0    Cl30668   0.797   1.090   3.141 -0.1498 -0.5241 -0.3140
  233MOL0     C30669   1.740   0.726   3.247  0.0352 -0.3274  0.2211
  233MOL0     C30670   1.868   0.676   3.213 -0.0530 -0.9526 -0.4265
  233MOL0     O30671   2.157   0.712   3.332 -0.4151 -0.0225  0.0492
  233MOL0     C30672   2.415   0.640   3.262  0.5669  0.2078  0.5666
  233MOL0     C30673   2.543   0.613   3.205 -0.2715  1.1070  0.1095
  233MOL0     N30674   3.279   0.588   3.142 -0.4632  0.8871  0.9602
  233MOL0     N30675   3.334   0.499   3.216 -0.3914  0.2338  0.0383
  233MOL0     C30676   4.234   0.633   3.292  0.4791 -0.2631  0.5759
  233MOL0     C30677   4.371   0.644   3.317  0.4858 -0.1973  0.8948
  233MOL0     C30678   4.758   0.867   3.398  0.8036  0.4390  0.1000
  233MOL0     C30679   4.815   0.782   3.497  0.1007 -0.1505 -0.2701
  233MOL0     C30680   4.950   0.783   3.532  0.1343  0.4059  0.6610
  233MOL0     C30681   5.034   0.877   3.473  0.2282  0.3004  0.0474
  233MOL0     O30682   5.166   0.866   3.508  0.4026  0.1547 -0.1306
  233MOL0     C30683   5.267   0.941   3.431  0.8856  0.6187  0.4636
  233MOL0     C30684   5.404   0.890   3.476  0.5516  0.5014 -0.1884
  233MOL0     C30685   5.512   0.971   3.398 -0.0143 -0.9049  0.2461
  233MOL0     C30686   5.660   0.932   3.441 -0.0921 -0.0704  0.6217
  233MOL0     C30687   5.755   1.005   3.351  0.2624 -0.6667  0.1873
  233MOL0     C30688   5.822   1.078   3.282  1.0910  0.0364 -0.5982
  233MOL0     C30689   4.974   0.963   3.379  0.8169  1.0227 -0.3533
  233MOL0     C30690   4.835   0.960   3.348  0.0404 -0.3165  0.5976
  233MOL0     H30691   4.383   0.880   3.548  0.2025  1.1237 -1.2693
  233MOL0     H30692   4.132   0.841   3.546  0.7178  3.5178 -2.0106
  233MOL0     H30693   3.835   0.770   3.337 -2.4419  1.3321  3.2422
  233MOL0     H30694   3.955   0.877   3.404  0.7211 -0.4893  0.0805
  233MOL0     H30695   3.837   0.814   3.597 -1.6293 -1.4908  0.9168
  233MOL0     H30696   3.957   0.685   3.601 -0.6418 -3.6830 -1.2525
  233MOL0     H30697   3.768   0.577   3.648 -1.0274 -0.1227  0.1400
  233MOL0     H30698   3.779   0.537   3.473 -6.7308  0.4801 -2.2850
  233MOL0     H30699   3.593   0.720   3.628 -1.2825 -1.2273 -0.0316
  233MOL0     H30700   3.611   0.736   3.456  0.3133  1.2463  0.4209
  233MOL0     H30701   3.572   0.468   3.596  1.3249 -0.2667 -0.7430
  233MOL0     H30702   3.534   0.515   3.421 -0.9027  2.3791 -0.2282
  233MOL0     H30703   3.358   0.647   3.470 -2.7456 -1.3784  0.3117
  233MOL0     H30704   3.378   0.636   3.648  1.7646  1.8040 -0.2375
  233MOL0     H30705   3.326   0.408   3.647  2.1351  3.1091  0.6212
  233MOL0     H30706   3.198   0.505   3.589 -0.0493 -0.0868 -0.9710
  233MOL0     H30707   3.200   0.311   3.433 -2.3995  2.5652  1.2458
  233MOL0     H30708   3.378   0.327   3.422 -1.8561 -3.7551  3.8678
  233MOL0     H30709   3.029   0.543   3.337 -0.9313  0.8734 -1.3031
  233MOL0     H30710   3.130   0.804   3.079  1.7010 -2.6982 -2.4065
  233MOL0     H30711   3.018   0.767   3.221 -0.4955 -0.7826 -0.9056
  233MOL0     H30712   2.936   0.570   3.111  0.5169  0.3280  1.2274
  233MOL0     H30713   3.043   0.596   2.975  2.6536 -0.8031  2.0892
  233MOL0     H30714   2.854   0.816   3.056 -3.3743 -2.3245  1.7767
  233MOL0     H30715   2.921   0.795   2.891  0.4043 -0.3309  0.9688
  233MOL0     H30716   2.770   0.629   2.830  0.5072  1.6137  0.6710
  233MOL0     H30717   2.686   0.761   2.901  0.2207  1.2617 -0.9656
  233MOL0     H30718   2.478   0.655   2.868 -1.3725 -1.9035 -0.3333
  233MOL0     H30719   2.266   0.727   2.972 -1.3525 -0.0807  1.5896
  233MOL0     H30720   1.993   0.986   3.097  0.2689  1.9914  0.6052
  233MOL0     H30721   1.761   1.048   3.169  1.0338  1.3763  6.2810
  233MOL0     H30722   1.522   1.074   3.198 -0.0904  0.2739  0.1284
  233MOL0     H30723   1.619   1.081   3.347  0.1680  0.0047  0.9049
  233MOL0     H30724   1.440   1.133   3.448 -0.8179 -1.4070  0.7859
  233MOL0     H30725   1.408   0.963   3.458 -0.2573  0.1663  0.8141
  233MOL0     H30726   1.304   1.163   3.239  1.2364 -1.6885 -3.1085
  233MOL0     H30727   1.204   1.099   3.363  0.9424 -0.3258  2.1132
  233MOL0     H30728   1.324   0.972   3.115 -0.3661 -0.0261  1.5186
  233MOL0     H30729   1.281   0.858   3.228  1.1730 -0.5811 -0.3217
  233MOL0     H30730   1.118   0.894   3.061 -3.1892 -0.4368  0.5671
  233MOL0     H30731   1.089   1.064   3.110 -0.5438  0.1084 -0.3040
  233MOL0     H30732   0.986   0.979   3.309 -0.7952 -0.7551  0.9267
  233MOL0     H30733   1.042   0.812   3.286  1.8921  1.2027  0.1585
  233MOL0     H30734   0.899   0.744   3.108  1.0184 -0.0404  1.0371
  233MOL0     H30735   0.811   0.823   3.231 -0.5940 -0.3673 -0.5806
  233MOL0     H30736   0.758   0.915   3.003 -1.3663 -1.6498  4.2900
  233MOL0     H30737   0.918   0.986   2.975  1.5179 -0.5398  1.2959
  233MOL0     H30738   1.666   0.657   3.286  1.6750 -0.5340  3.2157
  233MOL0     H30739   1.891   0.571   3.228 -2.5293 -1.5981 -0.7512
  233MOL0     H30740   2.374   0.634   3.362 -0.2788  2.3609  0.4034
  233MOL0     H30741   2.630   0.576   3.259 -0.5996 -1.2687 -0.8376
  233MOL0     H30742   4.198   0.566   3.215  1.8054 -0.8464  0.4323
  233MOL0     H30743   4.443   0.581   3.266  1.9663 -0.9456  3.7045
  233MOL0     H30744   4.749   0.709   3.541  0.3305 -1.0277 -1.3401
  233MOL0     H30745   4.984   0.708   3.603  1.5031  1.7014  1.4176
  233MOL0     H30746   5.267   1.048   3.456  0.5372  0.9763 -0.9875
  233MOL0     H30747   5.244   0.926   3.326 -0.8007 -0.0549  0.9056
  233MOL0     H30748   5.423   0.921   3.579  2.1110  0.2825 -0.3810
  233MOL0     H30749   5.408   0.783   3.450 -0.1501  0.7141 -1.2173
  233MOL0     H30750   5.497   1.076   3.426 -0.3067 -0.9958  0.4402
  233MOL0     H30751   5.498   0.967   3.289 -1.5051 -0.3621  0.3816
  233MOL0     H30752   5.668   0.967   3.545  1.7558 -1.6604  1.0670
  233MOL0     H30753   5.691   0.828   3.429 -2.4398 -0.6698 -0.9369
  233MOL0     H30754   5.870   1.146   3.215 -0.3282  1.6315 -0.0765
  233MOL0     H30755   5.037   1.038   3.331  0.5909  0.6292 -1.2916
  233MOL0     H30756   4.811   1.042   3.281 -0.4623 -0.5386  0.5036
  234MOL0     O30757   9.316   8.661   0.294 -1.0329 -0.2979  0.0926
  234MOL0     C30758   9.375   8.551   0.305 -0.2873 -1.0923 -0.3702
  234MOL0     O30759   9.318   8.439   0.263  0.5690  0.2891  0.0738
  234MOL0     C30760   9.186   8.413   0.291 -0.2108  0.8606  0.0253
  234MOL0     C30761   9.106   8.483   0.382  0.8799 -0.4560 -0.9755
  234MOL0     C30762   8.982   8.434   0.422 -0.2505 -0.5258  0.2302
  234MOL0     C30763   8.926   8.321   0.364  0.7658  0.7265  0.3445
  234MOL0     O30764   8.799   8.270   0.397 -0.1285  0.3726  0.5753
  234MOL0     C30765   8.714   8.209   0.295  0.3778  0.6589  0.6693
  234MOL0     C30766   8.685   8.312   0.181  0.3785  0.5308  0.7431
  234MOL0     C30767   8.784   8.316   0.065  0.6287  0.1623 -0.5666
  234MOL0     C30768   8.710   8.356  -0.059  0.5784  0.0801 -0.4272
  234MOL0     C30769   8.800   8.334  -0.186 -0.7805 -0.7105  0.6881
  234MOL0     C30770   8.782   8.440  -0.296 -0.6946 -0.6569  0.8074
  234MOL0     C30771   8.637   8.473  -0.327 -0.3127 -0.0910  0.5069
  234MOL0     C30772   8.580   8.355  -0.418 -0.7142 -0.3062 -0.6372
  234MOL0     N30773   8.454   8.297  -0.368  0.1786 -1.1858 -0.7338
  234MOL0     C30774   8.331   8.360  -0.352  0.2066  0.6279 -0.5246
  234MOL0     C30775   8.245   8.273  -0.312 -0.1947 -0.4944 -0.4565
  234MOL0     C30776   8.104   8.290  -0.276  0.2465 -0.5072 -1.0140
  234MOL0     C30777   8.027   8.343  -0.394 -0.2888  1.0193  0.1800
  234MOL0     C30778   7.870   8.320  -0.375  0.1695  0.0337 -0.9361
  234MOL0     C30779   7.825   8.193  -0.444 -0.0629 -0.0724 -0.2054
  234MOL0     O30780   7.679   8.171  -0.433 -0.0227  0.0402 -0.0634
  234MOL0     C30781   7.628   8.115  -0.316 -0.3435  0.1673 -0.9086
  234MOL0     C30782   7.692   8.111  -0.191 -0.6919 -0.5902 -0.4333
  234MOL0     C30783   7.640   8.069  -0.069 -0.0391  0.0098 -0.2624
  234MOL0     C30784   7.504   8.029  -0.073 -0.5928 -0.6263 -0.1009
  234MOL0     C30785   7.439   7.966   0.044 -0.4467  0.2409 -0.5881
  234MOL0     O30786   7.305   7.947   0.036  0.9382  0.8132 -0.3336
  234MOL0     C30787   7.227   7.900   0.137  0.3837  0.1456  0.5036
  234MOL0     C30788   7.089   7.895   0.101 -0.3575 -0.0077  0.2710
  234MOL0     C30789   6.990   7.827   0.191  0.1136 -0.1316  0.9492
  234MOL0     C30790   7.030   7.776   0.309  0.6866  1.0156  0.3411
  234MOL0     O30791   6.925   7.721   0.380 -0.0595 -0.7682 -0.4923
  234MOL0     C30792   6.951   7.658   0.508 -0.3517  0.2600 -0.7371
  234MOL0     C30793   6.826   7.591   0.562 -0.1507 -0.1786 -0.2695
  234MOL0     C30794   6.693   7.665   0.551  0.1978  0.2333 -0.2410
  234MOL0     C30795   6.670   7.780   0.642 -0.0744  1.1833 -0.3589
  234MOL0     C30796   6.522   7.833   0.618 -0.5810  0.1116  0.2196
  234MOL0     C30797   6.418   7.722   0.581  0.5335 -0.0001  0.0275
  234MOL0     C30798   6.282   7.787   0.559 -0.0130 -0.0536  0.0668
  234MOL0     C30799   6.192   7.690   0.480 -0.4302 -0.3157 -1.1963
  234MOL0    Cl30800   6.225   7.665   0.305  0.3060  0.0626  0.1341
  234MOL0     C30801   7.161   7.790   0.348 -0.2655  0.8751 -0.0828
  234MOL0     C30802   7.267   7.843   0.263 -0.5863 -0.0615 -0.2923
  234MOL0     O30803   7.508   7.923   0.134  0.8627  0.6913 -0.6201
  234MOL0     C30804   7.430   8.043  -0.189 -0.3244  0.3674  0.1947
  234MOL0     C30805   7.493   8.090  -0.311  0.1124 -0.5247  1.1717
  234MOL0     N30806   8.314   8.158  -0.289  0.4821  0.5121  0.1311
  234MOL0     N30807   8.436   8.173  -0.330 -1.0835  0.0503 -0.0129
  234MOL0     C30808   9.007   8.255   0.275  0.3321  0.3119 -0.0486
  234MOL0     C30809   9.137   8.296   0.241 -0.0654 -0.2663  0.1073
  234MOL0     C30810   9.523   8.553   0.337  0.8607  0.0175  0.6713
  234MOL0     C30811   9.597   8.434   0.323 -0.0039 -0.3297 -0.3510
  234MOL0     C30812   9.731   8.424   0.357  0.0764 -0.2163  1.0645
  234MOL0     C30813   9.792   8.541   0.414  1.0908 -0.4335  0.6182
  234MOL0     O30814   9.925   8.549   0.428  0.2977  0.0912 -0.2875
  234MOL0     C30815  10.004   8.436   0.421 -0.3754 -0.0893 -0.0639
  234MOL0     C30816  10.146   8.486   0.451  0.0659  1.1970  0.3287
  234MOL0     C30817  10.141   8.575   0.578 -0.0997 -0.1036  0.0918
  234MOL0     C30818  10.276   8.637   0.613 -0.2107 -0.3052 -0.3754
  234MOL0     C30819  10.300   8.743   0.519 -0.3569 -0.4553  0.0276
  234MOL0     C30820  10.343   8.825   0.443 -0.0242 -0.1819  0.3000
  234MOL0     C30821   9.716   8.663   0.429  0.5074  0.7377 -0.0126
  234MOL0     C30822   9.581   8.671   0.397 -0.9491  0.2674  0.4426
  234MOL0     H30823   9.158   8.568   0.426  1.6848 -0.2727 -2.2153
  234MOL0     H30824   8.929   8.490   0.499  2.9965  2.3903  0.5949
  234MOL0     H30825   8.618   8.182   0.341 -0.8742 -2.6068 -3.2874
  234MOL0     H30826   8.767   8.127   0.247  0.8530  2.6903 -2.5829
  234MOL0     H30827   8.684   8.413   0.222  2.4226  0.7246  0.4431
  234MOL0     H30828   8.589   8.287   0.135  0.5710  2.6556 -0.9059
  234MOL0     H30829   8.824   8.215   0.055 -1.5157 -0.8586  0.5127
  234MOL0     H30830   8.873   8.377   0.085  0.8306 -0.5966  1.0635
  234MOL0     H30831   8.622   8.291  -0.064  0.1508  0.5156  1.0813
  234MOL0     H30832   8.659   8.453  -0.055 -1.7331 -0.9769 -1.8132
  234MOL0     H30833   8.783   8.238  -0.236 -0.0308 -0.2156 -0.5401
  234MOL0     H30834   8.904   8.348  -0.153 -1.2688  0.4956  1.7977
  234MOL0     H30835   8.844   8.407  -0.380 -1.3753 -1.1424  0.4859
  234MOL0     H30836   8.822   8.538  -0.271  0.7694 -0.4020 -2.1563
  234MOL0     H30837   8.572   8.492  -0.241  0.9171  1.2875  1.1584
  234MOL0     H30838   8.629   8.562  -0.390 -1.5054 -0.9846 -0.6614
  234MOL0     H30839   8.654   8.277  -0.439 -1.8755 -1.0350 -2.1918
  234MOL0     H30840   8.561   8.384  -0.521  1.1415  1.5933 -0.5160
  234MOL0     H30841   8.317   8.466  -0.370  0.2329  1.3904  3.1855
  234MOL0     H30842   8.085   8.356  -0.191  0.4648 -2.0521  0.2833
  234MOL0     H30843   8.053   8.195  -0.254  0.9573 -1.0334 -1.5804
  234MOL0     H30844   8.063   8.298  -0.487  1.3971  1.1272  0.7502
  234MOL0     H30845   8.047   8.450  -0.405  0.2204  0.9914  0.8191
  234MOL0     H30846   7.838   8.316  -0.270  0.1510  2.2533 -0.8161
  234MOL0     H30847   7.810   8.404  -0.411  0.9962  1.2369  0.4130
  234MOL0     H30848   7.885   8.108  -0.409  2.2119  1.2530 -0.7492
  234MOL0     H30849   7.844   8.203  -0.551 -1.1710 -2.4731 -0.7038
  234MOL0     H30850   7.799   8.120  -0.201 -0.9243  2.0950 -1.0690
  234MOL0     H30851   7.705   8.060   0.017 -0.6221  0.5279  0.2471
  234MOL0     H30852   7.057   7.946   0.010 -0.4506 -2.5683 -1.2354
  234MOL0     H30853   6.883   7.828   0.170  0.2578  3.3369 -0.3132
  234MOL0     H30854   6.982   7.730   0.584  1.0537 -2.3871  1.3613
  234MOL0     H30855   7.024   7.578   0.495  0.0664  0.5652 -0.3082
  234MOL0     H30856   6.840   7.562   0.667 -1.9512  2.1868  0.7218
  234MOL0     H30857   6.820   7.502   0.499  4.9201  0.1868 -1.7150
  234MOL0     H30858   6.616   7.589   0.572  1.9702 -1.8760 -0.9935
  234MOL0     H30859   6.683   7.697   0.447 -1.0739  0.3384 -0.1081
  234MOL0     H30860   6.673   7.730   0.739 -1.4485  1.2680 -0.2493
  234MOL0     H30861   6.751   7.853   0.627  2.2963 -1.0794  0.7293
  234MOL0     H30862   6.530   7.900   0.532  1.3368 -0.6295 -0.2454
  234MOL0     H30863   6.494   7.895   0.704 -1.4527  1.9143 -1.3022
  234MOL0     H30864   6.413   7.652   0.665 -1.5871  0.3135  0.2203
  234MOL0     H30865   6.433   7.665   0.489 -1.0337 -2.2886  1.0968
  234MOL0     H30866   6.240   7.798   0.659  4.6596 -0.2076  2.2913
  234MOL0     H30867   6.289   7.888   0.519  1.4217 -0.6405 -1.2585
  234MOL0     H30868   6.095   7.741   0.481  0.7529  2.0927  0.6876
  234MOL0     H30869   6.181   7.588   0.518 -0.4045  0.3378  0.6370
  234MOL0     H30870   7.199   7.750   0.442  3.8122 -1.0024 -2.2625
  234MOL0     H30871   7.370   7.835   0.296 -0.7731 -2.0872 -0.0533
  234MOL0     H30872   7.324   8.021  -0.194 -0.6664  1.5295  1.6692
  234MOL0     H30873   7.430   8.099  -0.399  1.5410 -1.5652 -0.0056
  234MOL0     H30874   8.971   8.161   0.235  0.4656  0.4383 -0.4684
  234MOL0     H30875   9.192   8.231   0.174 -0.2554 -0.9206  0.5727
  234MOL0     H30876   9.556   8.349   0.270 -0.3684  0.1093 -0.7788
  234MOL0     H30877   9.783   8.334   0.327 -1.6476 -1.2147  0.9353
  234MOL0     H30878  10.003   8.389   0.322  0.0549 -0.2597  0.0103
  234MOL0     H30879   9.977   8.366   0.500 -2.8169 -0.5919 -1.2411
  234MOL0     H30880  10.209   8.399   0.473  0.5926  1.5066  0.0504
  234MOL0     H30881  10.190   8.535   0.364 -2.0916 -0.9015 -2.1162
  234MOL0     H30882  10.105   8.508   0.657 -1.2214  1.7229  1.1858
  234MOL0     H30883  10.062   8.649   0.567  0.3930  0.5921  1.1352
  234MOL0     H30884  10.270   8.691   0.708  1.0303 -1.2168  0.2487
  234MOL0     H30885  10.358   8.565   0.608  0.1073  0.1401 -2.4353
  234MOL0     H30886  10.378   8.909   0.386  1.1090  0.1407  1.4344
  234MOL0     H30887   9.774   8.749   0.461  2.0581  1.2577 -3.6346
  234MOL0     H30888   9.522   8.759   0.416  1.2016  2.5828 -2.5994
  235MOL0     O30889   5.575   3.015   9.012 -0.3935  0.3657 -0.7897
  235MOL0     C30890   5.588   2.908   8.951  0.6020 -0.5442  0.5443
  235MOL0     O30891   5.486   2.819   8.912 -0.1224 -0.7985 -0.0830
  235MOL0     C30892   5.361   2.874   8.906  0.2977  0.7119 -0.3517
  235MOL0     C30893   5.317   2.939   8.793 -0.4938  0.2564 -0.3684
  235MOL0     C30894   5.197   2.992   8.776 -0.1714  0.8261 -0.2037
  235MOL0     C30895   5.100   2.981   8.884 -0.7530 -0.0102 -0.0745
  235MOL0     O30896   4.964   3.018   8.876  0.2960 -0.6964  0.2405
  235MOL0     C30897   4.924   3.121   8.790 -0.1533  0.3356 -1.2789
  235MOL0     C30898   4.804   3.178   8.850  0.3829  0.3205  0.7164
  235MOL0     C30899   4.737   3.269   8.742  0.5928  0.6667 -1.1381
  235MOL0     C30900   4.613   3.346   8.815 -0.4896  0.0911  0.1086
  235MOL0     C30901   4.563   3.473   8.748  0.3077  0.2730 -0.3174
  235MOL0     C30902   4.654   3.601   8.760  0.1227 -0.5158 -0.1692
  235MOL0     C30903   4.583   3.716   8.692 -0.9212 -0.2910  0.0319
  235MOL0     C30904   4.671   3.841   8.691 -0.0883  0.0680  0.1078
  235MOL0     N30905   4.721   3.898   8.823 -0.1960 -0.1773 -0.6910
  235MOL0     C30906   4.635   3.972   8.906 -0.6538  0.0008  0.5592
  235MOL0     C30907   4.703   3.989   9.024  0.4347 -0.2362  0.2317
  235MOL0     C30908   4.664   4.091   9.125  0.4169  0.7418 -0.2826
  235MOL0     C30909   4.537   4.035   9.198  0.3650 -0.1503  0.0680
  235MOL0     C30910   4.445   4.150   9.239 -0.0258 -1.0804 -0.5121
  235MOL0     C30911   4.299   4.121   9.227  1.8675 -0.4910 -0.1432
  235MOL0     O30912   4.255   4.117   9.093  0.3527  0.8532 -0.1422
  235MOL0     C30913   4.121   4.128   9.062  0.0340  0.3175  0.2514
  235MOL0     C30914   4.024   4.085   9.155  0.1399 -0.2333 -0.1780
  235MOL0     C30915   3.891   4.111   9.129  0.0465 -0.4062  0.1212
  235MOL0     C30916   3.848   4.174   9.012  0.0379 -0.2920  0.0611
  235MOL0     C30917   3.700   4.203   8.991  0.1115  0.0762 -0.1515
  235MOL0     O30918   3.611   4.169   9.085  1.0500 -0.3024 -0.1675
  235MOL0     C30919   3.471   4.180   9.071 -1.0375 -0.0033  0.0808
  235MOL0     C30920   3.392   4.113   9.159  0.1817  0.2223  0.6489
  235MOL0     C30921   3.255   4.098   9.144 -0.4674 -0.8482  0.4453
  235MOL0     C30922   3.190   4.176   9.036  0.5273  1.2711  0.8935
  235MOL0     O30923   3.053   4.166   9.013  0.3190 -0.0617 -0.4295
  235MOL0     C30924   2.971   4.172   9.125 -0.1701 -0.1160 -0.4876
  235MOL0     C30925   2.838   4.232   9.078  0.3965  0.0823  0.1926
  235MOL0     C30926   2.861   4.380   9.042  0.4570 -0.8139  0.8393
  235MOL0     C30927   2.821   4.483   9.147  0.2377 -0.8134 -0.3097
  235MOL0     C30928   2.830   4.626   9.096 -0.3712  0.2663 -0.3870
  235MOL0     C30929   2.832   4.714   9.211  0.3756 -0.4305 -0.8519
  235MOL0     C30930   2.863   4.851   9.164  0.0372  0.2675  0.9480
  235MOL0     C30931   2.848   4.961   9.276 -0.5714  0.1437 -0.0228
  235MOL0    Cl30932   2.669   4.990   9.305  0.0106  0.1952 -0.0917
  235MOL0     C30933   3.265   4.253   8.955  0.2762 -0.6046  0.7545
  235MOL0     C30934   3.401   4.258   8.971 -0.0392 -0.7944 -0.1356
  235MOL0     O30935   3.675   4.249   8.881 -0.1467 -0.5915 -0.6360
  235MOL0     C30936   3.942   4.220   8.918 -0.1985 -0.0165  0.2680
  235MOL0     C30937   4.077   4.192   8.942  0.1435  0.0109  0.2338
  235MOL0     N30938   4.823   3.920   9.017  0.2594 -0.0032  0.2033
  235MOL0     N30939   4.829   3.866   8.899  0.0004 -0.2639  0.7583
  235MOL0     C30940   5.138   2.915   9.000 -0.4168 -0.1213 -0.4407
  235MOL0     C30941   5.273   2.858   9.010 -0.1132 -0.2034  0.3992
  235MOL0     C30942   5.728   2.860   8.928  0.4122 -0.2100 -1.0357
  235MOL0     C30943   5.834   2.929   8.987 -0.1792  0.1282  0.7092
  235MOL0     C30944   5.972   2.894   8.967  1.0478 -0.9392  0.4800
  235MOL0     C30945   5.995   2.789   8.880 -0.3352  0.8427  0.3486
  235MOL0     O30946   6.125   2.747   8.848  0.1917  0.0997 -0.1495
  235MOL0     C30947   6.245   2.823   8.890 -0.1138  0.7833 -0.4323
  235MOL0     C30948   6.308   2.757   9.017 -0.7432  0.3109  0.8127
  235MOL0     C30949   6.332   2.604   9.004  0.0054 -0.9561 -0.2590
  235MOL0     C30950   6.418   2.564   8.881 -0.6070  0.1596 -0.2366
  235MOL0     C30951   6.551   2.620   8.895  0.4039 -0.0405 -0.1239
  235MOL0     C30952   6.656   2.679   8.898 -0.4564  0.0111  0.3892
  235MOL0     C30953   5.896   2.716   8.835  0.0673  1.3461 -0.5647
  235MOL0     C30954   5.763   2.749   8.853  0.3485 -0.0011 -0.0208
  235MOL0     H30955   5.390   2.949   8.714 -0.8407 -0.9085 -0.8496
  235MOL0     H30956   5.183   3.035   8.678  0.4501  0.0815 -0.6276
  235MOL0     H30957   4.899   3.082   8.691 -2.0976  0.1277 -0.7619
  235MOL0     H30958   5.007   3.191   8.777 -0.2305  1.0752  1.4722
  235MOL0     H30959   4.836   3.238   8.936  1.6789 -0.5006  0.8362
  235MOL0     H30960   4.730   3.100   8.871 -0.9451  0.5798 -2.3327
  235MOL0     H30961   4.694   3.211   8.660  1.7522  0.2376 -1.4590
  235MOL0     H30962   4.809   3.345   8.710  1.4727  1.0489  1.4537
  235MOL0     H30963   4.529   3.276   8.818 -1.7755  1.3724 -2.5617
  235MOL0     H30964   4.641   3.375   8.917 -4.1743  2.1897  0.7025
  235MOL0     H30965   4.473   3.493   8.807  1.5395  0.6658  1.4827
  235MOL0     H30966   4.530   3.448   8.646  0.4882  0.2242 -0.3639
  235MOL0     H30967   4.756   3.588   8.723  0.8779  1.4421  1.0438
  235MOL0     H30968   4.675   3.619   8.866  3.5961 -1.9104 -0.4879
  235MOL0     H30969   4.562   3.686   8.589  0.5565  1.3628 -0.7938
  235MOL0     H30970   4.486   3.739   8.737 -0.6830  1.2366 -0.2014
  235MOL0     H30971   4.612   3.921   8.647 -1.2249 -0.3515  0.8110
  235MOL0     H30972   4.746   3.836   8.612  1.1129 -1.3122  1.2757
  235MOL0     H30973   4.538   4.012   8.880 -0.7364 -0.3638  0.2987
  235MOL0     H30974   4.650   4.192   9.085  0.0231  0.1860 -1.6021
  235MOL0     H30975   4.737   4.117   9.202 -0.7611  0.9501  0.8072
  235MOL0     H30976   4.567   3.970   9.280  0.9452 -1.6417 -1.2756
  235MOL0     H30977   4.482   3.972   9.128  1.0938 -2.4828  1.5105
  235MOL0     H30978   4.477   4.181   9.339 -1.9377  0.7329 -0.3911
  235MOL0     H30979   4.464   4.237   9.175  2.1353 -0.4130  0.9024
  235MOL0     H30980   4.240   4.203   9.270 -0.7456 -0.3087 -3.5798
  235MOL0     H30981   4.279   4.031   9.286 -0.3111  0.6111  0.9149
  235MOL0     H30982   4.055   4.045   9.251  2.1919  0.8037 -0.3517
  235MOL0     H30983   3.810   4.086   9.197 -0.5409  1.3483  0.1211
  235MOL0     H30984   3.444   4.059   9.237 -2.0215 -0.9838  1.3467
  235MOL0     H30985   3.212   4.021   9.207  0.5002 -1.7991 -0.0352
  235MOL0     H30986   3.018   4.220   9.211  0.7103 -2.7691  0.6142
  235MOL0     H30987   2.952   4.068   9.154  0.4955  0.1848  1.1162
  235MOL0     H30988   2.757   4.222   9.151  0.8397 -1.0838  0.5538
  235MOL0     H30989   2.809   4.174   8.990 -1.7059  1.2810  0.0328
  235MOL0     H30990   2.787   4.399   8.963 -0.0758  0.9926  1.7105
  235MOL0     H30991   2.963   4.401   9.009  0.0060  2.5305  1.2214
  235MOL0     H30992   2.721   4.465   9.186 -0.0141  0.2263 -0.4388
  235MOL0     H30993   2.887   4.468   9.233 -0.9407  0.5678  0.8934
  235MOL0     H30994   2.739   4.642   9.038 -1.6251 -0.6034  1.2300
  235MOL0     H30995   2.918   4.633   9.032  1.7186  1.9670  2.4213
  235MOL0     H30996   2.906   4.691   9.289 -0.9799  1.4331  1.1215
  235MOL0     H30997   2.732   4.711   9.256 -0.0411  1.0526 -1.6245
  235MOL0     H30998   2.961   4.856   9.115 -1.6680  0.6040 -2.8408
  235MOL0     H30999   2.799   4.878   9.079  2.6325  3.8552 -0.0988
  235MOL0     H31000   2.896   5.055   9.247  1.9202 -0.9339  0.3294
  235MOL0     H31001   2.904   4.921   9.361  1.0038 -0.7074 -1.3806
  235MOL0     H31002   3.227   4.294   8.862 -1.3337 -2.0157  0.7370
  235MOL0     H31003   3.462   4.324   8.909  1.2078  1.9479  3.6654
  235MOL0     H31004   3.906   4.264   8.825 -1.2169 -1.4817 -0.0665
  235MOL0     H31005   4.149   4.248   8.883 -1.1916  2.8683  1.1130
  235MOL0     H31006   5.056   2.899   9.069 -0.8531  1.0079 -0.6818
  235MOL0     H31007   5.307   2.806   9.099  0.2134  0.8655  0.9210
  235MOL0     H31008   5.813   3.013   9.052  1.9391 -1.3200  3.4602
  235MOL0     H31009   6.052   2.939   9.027  1.0687 -0.0102 -0.2173
  235MOL0     H31010   6.220   2.928   8.903 -0.5558  0.9994 -2.6536
  235MOL0     H31011   6.321   2.821   8.811 -0.7795  2.5107 -1.1554
  235MOL0     H31012   6.406   2.806   9.027  0.3717 -1.4887 -0.7075
  235MOL0     H31013   6.241   2.772   9.102  0.5675  0.7463  1.8156
  235MOL0     H31014   6.231   2.562   8.998  0.0753 -1.0013 -1.3961
  235MOL0     H31015   6.380   2.566   9.094 -1.2533 -0.2246  0.7592
  235MOL0     H31016   6.431   2.455   8.882 -1.9912 -0.0347  1.4287
  235MOL0     H31017   6.370   2.590   8.787 -0.8241  0.4341 -0.0511
  235MOL0     H31018   6.752   2.726   8.903 -0.5218  0.1332  0.4930
  235MOL0     H31019   5.911   2.633   8.766  0.5236  1.5640 -0.7297
  235MOL0     H31020   5.695   2.692   8.791 -1.0130  1.0366  0.4744
  236MOL0     O31021   0.888   6.865   0.734 -0.0225 -0.0800 -1.0941
  236MOL0     C31022   0.904   6.943   0.644 -0.1065 -0.6229  0.2617
  236MOL0     O31023   0.849   7.068   0.625 -0.2916  0.8264  0.0333
  236MOL0     C31024   0.754   7.116   0.714  0.3151 -0.2391 -0.0045
  236MOL0     C31025   0.790   7.140   0.849  0.7059  0.3505  0.0804
  236MOL0     C31026   0.705   7.191   0.944  0.7209 -0.0780 -0.4208
  236MOL0     C31027   0.577   7.239   0.902  0.0798 -1.5055  1.2223
  236MOL0     O31028   0.498   7.285   0.999 -0.1068 -0.4065 -0.1155
  236MOL0     C31029   0.360   7.241   1.017 -0.3317 -0.6778  0.3809
  236MOL0     C31030   0.286   7.374   1.022  0.0542 -0.0674 -0.2892
  236MOL0     C31031   0.134   7.352   1.062  0.3856 -0.3259  0.3769
  236MOL0     C31032   0.055   7.265   0.959 -0.0549 -0.0110 -0.1748
  236MOL0     C31033  -0.096   7.281   0.950  1.1359 -0.5726  0.9170
  236MOL0     C31034  -0.152   7.421   0.927  0.6684 -0.1296 -0.5953
  236MOL0     C31035  -0.095   7.501   0.808  0.3043  0.1536  0.0375
  236MOL0     C31036  -0.142   7.651   0.801 -0.3211 -0.0925 -0.0457
  236MOL0     N31037  -0.101   7.740   0.906 -0.0169  0.1913  0.2064
  236MOL0     C31038  -0.154   7.867   0.916 -0.4124 -0.0425 -0.6835
  236MOL0     C31039  -0.088   7.920   1.018  0.4083  0.6099 -0.7346
  236MOL0     C31040  -0.109   8.060   1.054 -0.4999  0.0083 -0.0237
  236MOL0     C31041  -0.254   8.094   1.091  0.4593 -0.2842 -0.2613
  236MOL0     C31042  -0.274   8.244   1.147 -0.7148 -0.3841  0.2868
  236MOL0     C31043  -0.420   8.270   1.173  0.1071  0.7071  0.5396
  236MOL0     O31044  -0.467   8.174   1.271 -0.0431 -0.0995 -0.0445
  236MOL0     C31045  -0.607   8.165   1.296 -0.3022  1.4394 -0.2231
  236MOL0     C31046  -0.693   8.272   1.272 -0.6242  0.2655 -0.4820
  236MOL0     C31047  -0.828   8.256   1.291 -0.3573 -0.6444  0.3712
  236MOL0     C31048  -0.892   8.137   1.324 -1.1188 -0.0636 -0.7676
  236MOL0     C31049  -1.038   8.135   1.364 -1.1791 -0.1482  0.3544
  236MOL0     O31050  -1.102   8.014   1.365 -0.1494 -0.2336 -0.4062
  236MOL0     C31051  -1.233   7.993   1.411  0.0432  0.0871 -0.1556
  236MOL0     C31052  -1.263   7.860   1.423  0.6910 -0.5057 -0.3303
  236MOL0     C31053  -1.387   7.813   1.478  0.1558 -0.1528  0.1274
  236MOL0     C31054  -1.483   7.912   1.503 -0.1646  0.3455  1.0703
  236MOL0     O31055  -1.602   7.870   1.554 -0.1622  0.4248  0.0823
  236MOL0     C31056  -1.700   7.965   1.593  0.6567  0.1854 -0.3747
  236MOL0     C31057  -1.826   7.890   1.641 -0.1015 -0.2086  0.0429
  236MOL0     C31058  -1.938   7.978   1.701  0.2447 -0.4885 -0.5063
  236MOL0     C31059  -1.992   8.083   1.604 -0.1091 -0.0575  0.9224
  236MOL0     C31060  -2.074   8.021   1.499  0.1480 -0.1043 -0.1386
  236MOL0     C31061  -2.148   8.126   1.420 -0.2352 -0.2491 -0.0881
  236MOL0     C31062  -2.066   8.194   1.319  0.1536 -0.1189 -0.0725
  236MOL0     C31063  -2.154   8.292   1.248 -0.1855 -0.3928 -0.8446
  236MOL0    Cl31064  -2.213   8.427   1.333 -0.3268  0.2535 -0.2452
  236MOL0     C31065  -1.450   8.052   1.482  0.2557  0.7446 -0.0094
  236MOL0     C31066  -1.325   8.093   1.437  0.1632  0.2916 -0.7310
  236MOL0     O31067  -1.083   8.247   1.390 -0.4649 -0.6415  0.0398
  236MOL0     C31068  -0.807   8.023   1.345 -0.4772  0.7125  0.9636
  236MOL0     C31069  -0.666   8.039   1.332  0.9338  1.0773  0.9077
  236MOL0     N31070   0.001   7.829   1.072 -0.3492  0.1585 -0.2036
  236MOL0     N31071  -0.003   7.720   1.006 -0.1538  0.0800 -0.4512
  236MOL0     C31072   0.540   7.232   0.767 -0.1001  0.8407 -0.2840
  236MOL0     C31073   0.626   7.167   0.675 -0.1513 -1.0674  0.9406
  236MOL0     C31074   1.005   6.906   0.544  0.5825  0.2436  0.1544
  236MOL0     C31075   1.030   6.765   0.537 -0.1518  0.1763 -1.4387
  236MOL0     C31076   1.145   6.715   0.473 -0.2418 -0.1242  1.0280
  236MOL0     C31077   1.217   6.809   0.394 -0.5224  0.8551 -1.2333
  236MOL0     O31078   1.342   6.785   0.330  0.1968  0.0405  0.7992
  236MOL0     C31079   1.392   6.648   0.324 -0.1064 -0.2093 -0.0960
  236MOL0     C31080   1.514   6.642   0.248 -0.5673  0.5104  0.6030
  236MOL0     C31081   1.621   6.744   0.289 -0.9863 -0.9124 -0.3152
  236MOL0     C31082   1.612   6.875   0.206 -0.0884  0.1096  1.4004
  236MOL0     C31083   1.647   6.850   0.066 -0.4764 -0.4866 -0.2175
  236MOL0     C31084   1.687   6.827  -0.050  0.3412  0.1471  0.1270
  236MOL0     C31085   1.182   6.937   0.390  0.5598 -0.7618 -0.2063
  236MOL0     C31086   1.086   6.990   0.465 -0.0749  0.8220  0.6305
  236MOL0     H31087   0.890   7.124   0.888  1.5771  1.3026 -1.6452
  236MOL0     H31088   0.737   7.209   1.046  0.1965 -0.3210 -0.2110
  236MOL0     H31089   0.358   7.183   1.110  1.4419 -2.7002 -0.7649
  236MOL0     H31090   0.321   7.175   0.940 -0.9967  1.5688 -1.3131
  236MOL0     H31091   0.298   7.435   0.932 -1.1876 -1.2635 -1.3152
  236MOL0     H31092   0.330   7.430   1.105 -1.1562  0.6754 -0.1216
  236MOL0     H31093   0.083   7.449   1.061 -0.7403 -0.8499  2.3147
  236MOL0     H31094   0.124   7.298   1.156 -1.6908 -3.3010 -1.3946
  236MOL0     H31095   0.097   7.283   0.859 -2.1296  0.8659 -0.9275
  236MOL0     H31096   0.075   7.163   0.994 -0.6925 -0.1319 -0.1602
  236MOL0     H31097  -0.155   7.247   1.036 -0.8702 -1.2779 -0.6586
  236MOL0     H31098  -0.126   7.216   0.868  0.2892 -0.2088  0.9223
  236MOL0     H31099  -0.131   7.479   1.017 -2.5288  1.7444 -0.8854
  236MOL0     H31100  -0.261   7.419   0.914  0.5057 -0.3712  0.7114
  236MOL0     H31101   0.014   7.494   0.813  0.3282  1.2522  1.3677
  236MOL0     H31102  -0.136   7.447   0.722 -0.3273  0.6403  0.0231
  236MOL0     H31103  -0.251   7.653   0.801 -0.3560 -0.9888 -0.9122
  236MOL0     H31104  -0.113   7.700   0.708 -1.9816  2.0221  0.4918
  236MOL0     H31105  -0.229   7.908   0.849 -0.2037  1.9607  0.2386
  236MOL0     H31106  -0.075   8.130   0.977 -1.0664  1.3343  0.8950
  236MOL0     H31107  -0.045   8.070   1.141  1.2497  0.2325 -1.2752
  236MOL0     H31108  -0.293   8.020   1.161 -0.6014  0.3023 -0.2047
  236MOL0     H31109  -0.323   8.076   1.008  0.5901  1.9963 -0.9307
  236MOL0     H31110  -0.213   8.252   1.237  2.8158 -0.9478 -1.8516
  236MOL0     H31111  -0.239   8.322   1.078  2.7639 -0.2936  1.9021
  236MOL0     H31112  -0.487   8.260   1.087 -1.0397  2.6427  1.1572
  236MOL0     H31113  -0.434   8.375   1.199  1.1160  0.9813  0.0537
  236MOL0     H31114  -0.646   8.368   1.254 -0.1563  0.3094  0.8825
  236MOL0     H31115  -0.898   8.335   1.265  1.5225  0.5028 -1.5303
  236MOL0     H31116  -1.189   7.782   1.405  0.5897 -1.3056  2.2443
  236MOL0     H31117  -1.428   7.716   1.505 -1.3735  0.4845  0.1873
  236MOL0     H31118  -1.729   8.038   1.516  0.0618  1.8279  1.3246
  236MOL0     H31119  -1.653   8.023   1.673  0.1151  1.0905 -0.6862
  236MOL0     H31120  -1.799   7.820   1.721  2.5420 -0.4589 -0.9522
  236MOL0     H31121  -1.869   7.833   1.558  1.0138 -1.8473  0.5410
  236MOL0     H31122  -1.891   8.037   1.780  0.2971 -0.3612 -0.6304
  236MOL0     H31123  -2.024   7.921   1.736 -0.3465  0.8326  0.2667
  236MOL0     H31124  -2.058   8.147   1.663 -1.2426 -2.3940  2.3533
  236MOL0     H31125  -1.912   8.142   1.558  0.7254  0.6385  3.1408
  236MOL0     H31126  -2.138   7.956   1.561  0.3064  0.7623  0.9583
  236MOL0     H31127  -2.010   7.962   1.433  0.0184  0.3542 -0.6798
  236MOL0     H31128  -2.184   8.199   1.493 -0.2216 -1.6681  1.4156
  236MOL0     H31129  -2.238   8.087   1.372 -0.4820 -0.5043  0.5629
  236MOL0     H31130  -1.974   8.243   1.351  1.5092 -1.7735 -1.2841
  236MOL0     H31131  -2.041   8.109   1.255 -2.4303  0.4841 -2.0469
  236MOL0     H31132  -2.248   8.247   1.214 -0.7973  1.1082 -1.2609
  236MOL0     H31133  -2.096   8.317   1.158  1.4973 -4.2411 -1.0405
  236MOL0     H31134  -1.530   8.123   1.504 -0.8498 -0.4493 -0.0559
  236MOL0     H31135  -1.302   8.199   1.440  1.3738  0.0549 -1.0908
  236MOL0     H31136  -0.861   7.930   1.352  0.5257  0.0336  0.0367
  236MOL0     H31137  -0.613   7.945   1.344  0.3476  0.4931 -0.7710
  236MOL0     H31138   0.449   7.278   0.731 -0.2464 -0.4048 -1.6098
  236MOL0     H31139   0.594   7.149   0.572 -0.2988  3.4676 -0.0167
  236MOL0     H31140   0.980   6.687   0.593  1.0419 -0.0434 -0.6290
  236MOL0     H31141   1.166   6.609   0.485  0.0963 -0.4106 -1.5299
  236MOL0     H31142   1.321   6.577   0.282  0.6807 -1.2095  0.2396
  236MOL0     H31143   1.413   6.621   0.427 -0.5777  1.1013  0.3699
  236MOL0     H31144   1.559   6.544   0.266 -1.4971  0.4760  3.3247
  236MOL0     H31145   1.493   6.643   0.141  2.5779  1.0602 -0.1174
  236MOL0     H31146   1.724   6.712   0.275  0.5977  3.7236 -0.9584
  236MOL0     H31147   1.619   6.774   0.394  0.6514 -1.1295 -0.2022
  236MOL0     H31148   1.515   6.924   0.215 -0.7978 -0.3855 -2.0620
  236MOL0     H31149   1.689   6.946   0.238  1.1500 -1.2038  1.4896
  236MOL0     H31150   1.730   6.790  -0.141 -1.0397  1.9500 -1.3439
  236MOL0     H31151   1.227   7.013   0.326 -0.9132 -1.4842 -2.2223
  236MOL0     H31152   1.060   7.095   0.450  4.5428  1.9049 -1.5378
  237MOL0     O31153   2.474   8.190   3.626 -0.0166 -0.0474  0.2464
  237MOL0     C31154   2.444   8.204   3.744  0.7045 -0.1617 -0.1039
  237MOL0     O31155   2.317   8.194   3.798 -0.3317  0.3247 -0.4707
  237MOL0     C31156   2.208   8.172   3.728  0.2316  0.2228  0.2128
  237MOL0     C31157   2.203   8.086   3.621 -0.5496 -0.3837  0.5684
  237MOL0     C31158   2.086   8.065   3.549  0.0652  0.0265 -0.6786
  237MOL0     C31159   1.968   8.119   3.586 -0.5322 -0.9797 -0.0848
  237MOL0     O31160   1.856   8.083   3.521  0.1081  0.2164  0.0912
  237MOL0     C31161   1.779   7.968   3.569 -1.2061  0.7153  0.6697
  237MOL0     C31162   1.638   7.967   3.526 -0.0287 -0.3676 -0.5633
  237MOL0     C31163   1.541   7.877   3.601 -0.0743  0.2497  0.4005
  237MOL0     C31164   1.409   7.895   3.535 -0.1578  0.5441  0.0031
  237MOL0     C31165   1.323   7.792   3.607  0.7887 -0.6772  0.2695
  237MOL0     C31166   1.186   7.772   3.543 -0.5561 -0.3751  1.2359
  237MOL0     C31167   1.102   7.705   3.651  0.6490  1.0081  0.0430
  237MOL0     C31168   0.972   7.649   3.575 -0.2094  0.0094  0.0236
  237MOL0     N31169   0.874   7.596   3.668 -0.8472 -0.2959 -0.7824
  237MOL0     C31170   0.757   7.551   3.617  0.5059  0.2315  0.6383
  237MOL0     C31171   0.699   7.480   3.720  0.0252 -0.3930  0.3543
  237MOL0     C31172   0.573   7.405   3.719  0.2912  0.7190 -0.3095
  237MOL0     C31173   0.448   7.467   3.651  0.0038  0.7900  0.0683
  237MOL0     C31174   0.341   7.356   3.653  0.0703 -0.2659 -0.4148
  237MOL0     C31175   0.207   7.408   3.589  0.1736 -0.3545  0.2971
  237MOL0     O31176   0.204   7.420   3.448  0.2489  0.3552  0.5147
  237MOL0     C31177   0.077   7.439   3.401 -0.1801 -0.0146  0.6981
  237MOL0     C31178  -0.040   7.461   3.474 -0.1798 -0.1054  0.2401
  237MOL0     C31179  -0.159   7.455   3.401 -0.0077  0.5549  0.2913
  237MOL0     C31180  -0.169   7.437   3.260 -0.2532 -0.1040 -0.6589
  237MOL0     C31181  -0.299   7.434   3.189  0.6275  0.0777  0.8771
  237MOL0     O31182  -0.401   7.469   3.270 -0.1735 -0.3736  0.2305
  237MOL0     C31183  -0.522   7.457   3.212  0.1086  0.4328  0.1634
  237MOL0     C31184  -0.582   7.573   3.155 -0.7829 -0.3845 -0.5393
  237MOL0     C31185  -0.699   7.569   3.086  0.1772 -1.2060  0.2612
  237MOL0     C31186  -0.761   7.446   3.067 -0.7596  0.5327 -0.0024
  237MOL0     O31187  -0.867   7.453   2.984 -0.3781 -0.9958 -1.3490
  237MOL0     C31188  -0.901   7.332   2.920  0.4742  0.3310 -0.0296
  237MOL0     C31189  -1.031   7.360   2.840  0.8967  0.2751 -0.2994
  237MOL0     C31190  -1.144   7.416   2.949 -0.6839  0.3102  0.8344
  237MOL0     C31191  -1.284   7.407   2.885  0.0577 -0.4277 -0.6408
  237MOL0     C31192  -1.385   7.488   2.967 -0.5351 -0.3110  0.3181
  237MOL0     C31193  -1.436   7.418   3.096 -0.3136 -0.2773 -0.1815
  237MOL0     C31194  -1.568   7.348   3.069 -0.4029  0.6982 -1.1922
  237MOL0     C31195  -1.617   7.276   3.194  0.4224  0.4826 -0.1629
  237MOL0    Cl31196  -1.641   7.385   3.326 -0.3063  0.0889 -0.2300
  237MOL0     C31197  -0.707   7.332   3.139  0.2537  0.3574  0.2087
  237MOL0     C31198  -0.591   7.338   3.211  0.3058  0.5297  0.5751
  237MOL0     O31199  -0.308   7.411   3.067  0.0459 -0.5698 -0.3751
  237MOL0     C31200  -0.051   7.421   3.189  0.2162 -0.1648 -0.5445
  237MOL0     C31201   0.068   7.416   3.260 -0.3349 -1.2779  0.3364
  237MOL0     N31202   0.793   7.479   3.825  0.6454  0.4060 -0.2071
  237MOL0     N31203   0.895   7.541   3.790 -0.1298  0.1016 -0.4747
  237MOL0     C31204   1.967   8.203   3.698 -0.0830 -0.5924 -0.6275
  237MOL0     C31205   2.083   8.226   3.765  0.4185  0.1620 -0.0952
  237MOL0     C31206   2.562   8.223   3.840 -0.0843 -0.1259  0.7610
  237MOL0     C31207   2.531   8.233   3.979  0.0105 -0.1485  0.1142
  237MOL0     C31208   2.635   8.251   4.070 -0.7111  0.5914  0.3769
  237MOL0     C31209   2.766   8.251   4.023 -0.1573 -0.3927  0.2374
  237MOL0     O31210   2.865   8.242   4.131  0.8643 -0.5249 -0.2865
  237MOL0     C31211   2.999   8.196   4.093 -1.1171 -0.1935 -0.8637
  237MOL0     C31212   3.081   8.128   4.205 -0.7327  0.0196 -0.4764
  237MOL0     C31213   3.095   8.206   4.334 -0.1348  0.1316  0.5105
  237MOL0     C31214   3.197   8.139   4.425 -0.6160 -0.1644  0.2789
  237MOL0     C31215   3.226   8.231   4.537 -0.9428  0.9889 -0.1975
  237MOL0     C31216   3.255   8.299   4.637  0.1350  0.0653 -0.5652
  237MOL0     C31217   2.800   8.247   3.889 -0.2457  0.2852  0.1748
  237MOL0     C31218   2.696   8.250   3.792  1.4238  0.8622  0.0078
  237MOL0     H31219   2.285   8.017   3.607 -0.4499 -0.1601  0.0410
  237MOL0     H31220   2.090   7.989   3.472 -0.1173  0.5452 -1.2108
  237MOL0     H31221   1.774   7.971   3.678  2.8112 -2.8513  1.2007
  237MOL0     H31222   1.828   7.874   3.542  0.3353  1.0937  2.0135
  237MOL0     H31223   1.649   7.951   3.419  3.7744 -2.0353 -0.1047
  237MOL0     H31224   1.600   8.069   3.540  0.6409 -0.3062  1.0431
  237MOL0     H31225   1.527   7.894   3.708 -1.6430 -1.3464  0.4947
  237MOL0     H31226   1.589   7.779   3.587  3.0763  1.2586  2.8690
  237MOL0     H31227   1.372   7.998   3.534  1.8951  1.3320  0.2055
  237MOL0     H31228   1.401   7.871   3.428 -0.9394  1.1918 -0.0848
  237MOL0     H31229   1.313   7.821   3.712 -0.1318  0.0275  0.0082
  237MOL0     H31230   1.381   7.700   3.617  1.5203 -0.1828  0.6732
  237MOL0     H31231   1.196   7.713   3.451 -1.9368  0.8647  0.2321
  237MOL0     H31232   1.137   7.863   3.507  0.4564  0.7670  2.6589
  237MOL0     H31233   1.162   7.627   3.698 -0.1307 -0.8232 -1.8528
  237MOL0     H31234   1.077   7.778   3.728 -3.1609  1.2020 -1.1715
  237MOL0     H31235   1.020   7.581   3.504  1.2740  1.7341 -0.6959
  237MOL0     H31236   0.923   7.732   3.523  2.7046  2.9798  1.6096
  237MOL0     H31237   0.704   7.570   3.524 -0.1727  0.4911  1.0661
  237MOL0     H31238   0.539   7.407   3.823 -0.6812 -3.4442 -0.3400
  237MOL0     H31239   0.586   7.305   3.676 -0.9316  0.0869  0.7024
  237MOL0     H31240   0.466   7.490   3.546 -3.4199 -1.7642 -1.3137
  237MOL0     H31241   0.412   7.558   3.701 -1.2966  0.4178 -0.1379
  237MOL0     H31242   0.370   7.265   3.599 -3.2383 -3.0172  1.9515
  237MOL0     H31243   0.320   7.319   3.754 -0.2127  0.8644 -0.0556
  237MOL0     H31244   0.181   7.498   3.645  0.9544  0.2354 -0.2586
  237MOL0     H31245   0.131   7.335   3.618  0.0254 -0.0595  0.6582
  237MOL0     H31246  -0.060   7.474   3.579 -1.6370 -2.2557  0.2678
  237MOL0     H31247  -0.239   7.464   3.474  0.7754  0.6992  1.1599
  237MOL0     H31248  -0.528   7.667   3.165  0.7328 -1.2737  0.1803
  237MOL0     H31249  -0.755   7.656   3.051 -1.7815 -2.3706  0.3548
  237MOL0     H31250  -0.913   7.255   2.997 -2.5692 -0.9814 -1.6513
  237MOL0     H31251  -0.826   7.291   2.851  1.7468  1.0315  0.8993
  237MOL0     H31252  -1.063   7.264   2.796 -0.4589 -0.2940  1.7551
  237MOL0     H31253  -0.997   7.433   2.767  2.8838 -0.3553 -0.0641
  237MOL0     H31254  -1.109   7.516   2.976  1.4791  0.1623 -1.0697
  237MOL0     H31255  -1.130   7.351   3.036  1.2600  0.4192  0.6646
  237MOL0     H31256  -1.280   7.441   2.782  0.5269  0.2096 -0.4197
  237MOL0     H31257  -1.324   7.305   2.880 -1.4108  0.1782 -1.7480
  237MOL0     H31258  -1.471   7.512   2.904  1.5209  1.5427 -1.9997
  237MOL0     H31259  -1.328   7.578   2.993 -0.7282 -0.3441  0.8643
  237MOL0     H31260  -1.455   7.497   3.170  1.6256 -0.5114  0.6061
  237MOL0     H31261  -1.350   7.360   3.128 -0.4910 -0.2257  0.3997
  237MOL0     H31262  -1.649   7.404   3.021 -0.5576 -0.2093 -2.0314
  237MOL0     H31263  -1.543   7.273   2.993 -0.5923 -2.3873  1.5429
  237MOL0     H31264  -1.544   7.197   3.217 -0.5177  0.4116  3.1506
  237MOL0     H31265  -1.711   7.226   3.174  2.2435 -2.6673 -1.6099
  237MOL0     H31266  -0.751   7.234   3.132  0.4618  0.1649  1.3530
  237MOL0     H31267  -0.561   7.250   3.267 -1.3757  1.1737  2.5853
  237MOL0     H31268  -0.046   7.401   3.083  0.5221  4.7346 -1.6910
  237MOL0     H31269   0.162   7.401   3.206 -1.3704 -1.1883 -1.5871
  237MOL0     H31270   1.876   8.245   3.740  0.1277 -2.4921  1.9688
  237MOL0     H31271   2.079   8.291   3.852  1.5419  1.1622 -0.7619
  237MOL0     H31272   2.428   8.219   4.011 -0.4978 -0.2941 -1.4881
  237MOL0     H31273   2.627   8.246   4.178 -0.7868  0.9667  0.3886
  237MOL0     H31274   3.059   8.281   4.059 -2.1758 -0.1779 -2.8569
  237MOL0     H31275   2.992   8.120   4.015 -0.5654 -2.2469  0.9901
  237MOL0     H31276   3.039   8.028   4.220 -0.3217 -0.2919 -1.3077
  237MOL0     H31277   3.181   8.112   4.162  0.6202  3.4487  1.0263
  237MOL0     H31278   3.002   8.232   4.387  0.8153  2.1623  1.2822
  237MOL0     H31279   3.134   8.305   4.306 -0.8495 -0.3985 -2.7462
  237MOL0     H31280   3.156   8.043   4.458  0.0576 -0.7314 -0.4730
  237MOL0     H31281   3.293   8.116   4.376  0.9332 -1.2130  3.5496
  237MOL0     H31282   3.274   8.351   4.729 -1.4124 -2.0182  1.0176
  237MOL0     H31283   2.900   8.232   3.850  0.7559 -1.7620  3.1131
  237MOL0     H31284   2.721   8.269   3.688  1.8832  1.3494  0.2073
  238MOL0     O31285   3.564   5.954   0.895  0.4461 -0.3390  1.1915
  238MOL0     C31286   3.611   6.057   0.932 -1.3188 -0.8955 -0.7035
  238MOL0     O31287   3.580   6.126   1.043 -0.0372  0.1980  0.3103
  238MOL0     C31288   3.461   6.100   1.101  0.2435 -0.4717  0.4562
  238MOL0     C31289   3.443   5.991   1.197  0.5962  0.3178  0.6337
  238MOL0     C31290   3.311   5.966   1.248  0.8823  0.1951 -0.7116
  238MOL0     C31291   3.199   6.049   1.205 -0.9092 -0.1167 -0.0986
  238MOL0     O31292   3.070   6.031   1.260  0.0886  0.4709  0.4707
  238MOL0     C31293   3.029   5.913   1.332  0.2515  0.0350 -0.1638
  238MOL0     C31294   2.881   5.909   1.370 -0.6488 -0.7663 -0.6033
  238MOL0     C31295   2.844   5.775   1.416 -0.4860  0.2509 -0.5525
  238MOL0     C31296   2.702   5.782   1.471  0.1949 -0.9014 -0.5025
  238MOL0     C31297   2.650   5.651   1.511  0.3102 -0.5030  0.0155
  238MOL0     C31298   2.498   5.644   1.539 -0.2194 -1.1809  0.3172
  238MOL0     C31299   2.446   5.508   1.570  0.3771 -0.0619 -0.2843
  238MOL0     C31300   2.300   5.522   1.625  0.7260  0.5206  0.3950
  238MOL0     N31301   2.224   5.397   1.635 -0.8182  0.4364  0.9097
  238MOL0     C31302   2.242   5.297   1.731  0.3533  0.3453 -0.4479
  238MOL0     C31303   2.133   5.219   1.721  0.1865  0.7389 -0.4347
  238MOL0     C31304   2.103   5.097   1.803 -0.2103  0.3647  0.4306
  238MOL0     C31305   1.992   5.134   1.893  0.4472  0.2350  0.7355
  238MOL0     C31306   1.908   5.006   1.923 -0.5188 -0.2896 -0.4381
  238MOL0     C31307   1.868   5.012   2.078  0.0960 -0.9462  0.0435
  238MOL0     O31308   1.759   4.926   2.101  0.0145  0.6666  0.7298
  238MOL0     C31309   1.658   4.958   2.181  0.8231  0.4080 -0.1794
  238MOL0     C31310   1.535   4.905   2.153  0.2282  0.4034  0.5708
  238MOL0     C31311   1.435   4.923   2.243  0.2654  0.8325  0.5858
  238MOL0     C31312   1.448   4.989   2.365 -0.5942  0.0353  0.7300
  238MOL0     C31313   1.332   5.001   2.456  0.3461  0.5557  0.3057
  238MOL0     O31314   1.360   5.023   2.587 -0.3396 -0.6503 -0.2089
  238MOL0     C31315   1.258   5.052   2.667 -0.3986  0.0738 -0.1282
  238MOL0     C31316   1.163   4.968   2.707  0.2517 -0.6213  0.1658
  238MOL0     C31317   1.057   5.006   2.801  0.8341  0.4382  0.1461
  238MOL0     C31318   1.052   5.132   2.858 -0.0667  0.3040 -0.2657
  238MOL0     O31319   0.957   5.156   2.956 -0.1542 -0.4927  0.4128
  238MOL0     C31320   0.907   5.286   2.952 -0.3210 -0.1448 -1.3625
  238MOL0     C31321   0.765   5.282   3.022  0.4320  0.2857  0.6508
  238MOL0     C31322   0.770   5.238   3.165  0.6547  0.9391  0.5184
  238MOL0     C31323   0.660   5.316   3.249  0.7479 -0.2161 -0.7124
  238MOL0     C31324   0.635   5.259   3.389 -0.1068  0.3111  0.3352
  238MOL0     C31325   0.527   5.352   3.448  0.0729  0.7671  0.3046
  238MOL0     C31326   0.480   5.305   3.585 -0.4422  0.0765  0.0971
  238MOL0     C31327   0.418   5.412   3.673  0.2926  0.0504 -0.0921
  238MOL0    Cl31328   0.408   5.359   3.841 -0.2255 -0.1913  0.0423
  238MOL0     C31329   1.159   5.220   2.819  0.0479  0.8211 -0.7422
  238MOL0     C31330   1.254   5.183   2.723 -0.3723 -0.1620  0.9597
  238MOL0     O31331   1.216   4.975   2.411  0.4141  0.1241 -0.3804
  238MOL0     C31332   1.578   5.038   2.393 -0.7061  0.0276 -0.9408
  238MOL0     C31333   1.685   5.030   2.306 -1.0112  0.8237  1.3728
  238MOL0     N31334   2.052   5.260   1.616 -0.2518  0.1780 -0.1518
  238MOL0     N31335   2.094   5.375   1.580 -1.0604  0.5291  0.3393
  238MOL0     C31336   3.218   6.147   1.107 -0.4635 -0.7587  0.4596
  238MOL0     C31337   3.349   6.171   1.064 -0.2624  0.0299  0.5897
  238MOL0     C31338   3.729   6.108   0.858  0.3971  0.6378 -0.2396
  238MOL0     C31339   3.795   6.225   0.906  1.0600  0.0701 -1.2557
  238MOL0     C31340   3.918   6.267   0.840  0.9708  0.3259 -0.5849
  238MOL0     C31341   3.970   6.194   0.728 -0.0386 -0.4630  0.5119
  238MOL0     O31342   4.082   6.221   0.653  0.1109 -0.0787  0.6271
  238MOL0     C31343   4.177   6.315   0.700  0.6957 -0.6960 -0.8337
  238MOL0     C31344   4.296   6.323   0.604  0.0275  0.5739  0.5877
  238MOL0     C31345   4.422   6.394   0.654  0.1052  0.0014 -0.1895
  238MOL0     C31346   4.473   6.329   0.780 -0.0725 -0.8944  0.5368
  238MOL0     C31347   4.611   6.392   0.799 -0.0429 -0.2196  0.0321
  238MOL0     C31348   4.723   6.437   0.822  0.0076 -0.0916  0.1017
  238MOL0     C31349   3.895   6.088   0.673  0.4347  0.0924 -0.1333
  238MOL0     C31350   3.781   6.045   0.746 -0.4742  0.0664  0.0501
  238MOL0     H31351   3.527   5.931   1.227  0.4252 -0.7605 -0.9175
  238MOL0     H31352   3.305   5.889   1.324 -1.8201  1.3645  0.3828
  238MOL0     H31353   3.085   5.898   1.425  2.6579 -0.6936 -1.6439
  238MOL0     H31354   3.065   5.830   1.271  2.4048  0.8619 -0.1068
  238MOL0     H31355   2.825   5.929   1.278 -1.1071  1.2132  0.0655
  238MOL0     H31356   2.866   5.991   1.440  0.3457 -1.2932  0.2514
  238MOL0     H31357   2.919   5.734   1.484 -2.0970  0.8952  1.7386
  238MOL0     H31358   2.843   5.701   1.335 -0.3531 -0.5174  0.1418
  238MOL0     H31359   2.681   5.861   1.543  0.6769 -1.8495  0.7130
  238MOL0     H31360   2.637   5.803   1.385 -0.6232 -0.1559  0.2767
  238MOL0     H31361   2.703   5.622   1.602 -2.6184  1.8960  2.7240
  238MOL0     H31362   2.659   5.583   1.425 -0.9408 -1.7043  0.7823
  238MOL0     H31363   2.453   5.703   1.458  1.6944  2.3831  1.6619
  238MOL0     H31364   2.500   5.711   1.625  0.7832  0.1859 -0.7353
  238MOL0     H31365   2.444   5.446   1.479 -1.2449  0.0171 -0.3370
  238MOL0     H31366   2.504   5.454   1.646 -0.4901 -0.7151 -0.0659
  238MOL0     H31367   2.245   5.587   1.557  0.9311 -2.0537 -2.4385
  238MOL0     H31368   2.305   5.569   1.724 -1.6956 -0.3658  1.0269
  238MOL0     H31369   2.319   5.282   1.806  0.1678 -2.2633 -0.6639
  238MOL0     H31370   2.195   5.078   1.859  2.1760  2.7475 -2.2849
  238MOL0     H31371   2.078   5.028   1.722  2.2332 -2.1400  1.6763
  238MOL0     H31372   1.936   5.212   1.842 -5.5536 -3.3909  0.7330
  238MOL0     H31373   2.037   5.164   1.989 -2.9089 -1.0450  2.9118
  238MOL0     H31374   1.820   5.007   1.859 -0.6473  0.9778 -0.2778
  238MOL0     H31375   1.979   4.925   1.908 -0.1463  0.2410 -1.6453
  238MOL0     H31376   1.836   5.114   2.101  1.7120 -0.0747 -1.3456
  238MOL0     H31377   1.948   4.987   2.149  2.1967  0.9833 -1.5061
  238MOL0     H31378   1.533   4.838   2.067  1.6606  0.4566  0.4677
  238MOL0     H31379   1.334   4.890   2.221  0.7532 -0.8026  0.7125
  238MOL0     H31380   1.172   4.874   2.654  1.1934  0.4712 -1.7148
  238MOL0     H31381   0.984   4.930   2.828  1.7097 -1.4149 -2.3850
  238MOL0     H31382   0.892   5.317   2.849 -3.5040  1.1101 -0.6479
  238MOL0     H31383   0.975   5.357   3.001 -2.3605  0.5945  0.6016
  238MOL0     H31384   0.712   5.219   2.950  1.5401  0.2564 -0.1699
  238MOL0     H31385   0.734   5.386   3.008  1.3750  0.2672 -2.2069
  238MOL0     H31386   0.869   5.269   3.198  1.3362  1.0935 -1.5194
  238MOL0     H31387   0.746   5.131   3.165  1.2497  0.7954 -0.2667
  238MOL0     H31388   0.677   5.424   3.248  0.5161 -0.0991  2.0010
  238MOL0     H31389   0.560   5.320   3.204  0.6778  3.8876 -0.5680
  238MOL0     H31390   0.727   5.276   3.445  0.0361  3.0221 -0.5906
  238MOL0     H31391   0.606   5.154   3.397  0.4692  0.3039  3.6652
  238MOL0     H31392   0.433   5.345   3.393  0.5332  0.4641 -0.4469
  238MOL0     H31393   0.562   5.456   3.456  1.6163  0.1387  3.7571
  238MOL0     H31394   0.406   5.224   3.584 -1.6088  1.1064  0.8168
  238MOL0     H31395   0.570   5.260   3.629 -0.8698 -0.7113  0.1958
  238MOL0     H31396   0.317   5.435   3.638  0.2475 -1.4314 -1.0425
  238MOL0     H31397   0.480   5.502   3.669 -2.3075  2.0596  1.5800
  238MOL0     H31398   1.180   5.317   2.862 -0.4105 -0.5310  2.9412
  238MOL0     H31399   1.322   5.261   2.693 -0.3277 -0.5324  0.0875
  238MOL0     H31400   1.596   5.095   2.483 -1.0986  0.2292 -0.9895
  238MOL0     H31401   1.774   5.081   2.343 -2.1947  2.1843  2.4313
  238MOL0     H31402   3.129   6.193   1.067 -0.8802 -1.2306  0.8252
  238MOL0     H31403   3.342   6.254   0.994 -1.9712 -0.9158 -0.4382
  238MOL0     H31404   3.768   6.276   0.998  2.0470  0.7327 -1.3144
  238MOL0     H31405   3.971   6.348   0.889 -0.2226  2.3177 -2.4431
  238MOL0     H31406   4.217   6.265   0.789 -0.1916  0.5466  0.3017
  238MOL0     H31407   4.134   6.413   0.723  0.1807 -1.5575  2.2746
  238MOL0     H31408   4.333   6.223   0.579  1.0393  1.3939 -1.4431
  238MOL0     H31409   4.257   6.365   0.511  0.7282  2.0734  0.9356
  238MOL0     H31410   4.403   6.500   0.670  5.0070  1.0644  0.0942
  238MOL0     H31411   4.506   6.393   0.584  0.8815 -2.6365  0.6675
  238MOL0     H31412   4.408   6.350   0.865 -0.5563  0.6802 -0.1786
  238MOL0     H31413   4.489   6.221   0.768  4.1991 -0.3758  0.1887
  238MOL0     H31414   4.818   6.481   0.841  0.3533  0.2089 -2.0571
  238MOL0     H31415   3.927   6.037   0.583 -1.9997  0.8131 -1.4939
  238MOL0     H31416   3.723   5.965   0.699  0.3984 -0.4160 -0.2296
  239MOL0     O31417   6.819   2.825   4.938 -0.7597  0.6932  0.1056
  239MOL0     C31418   6.900   2.790   4.853 -0.1599  0.3848 -0.5701
  239MOL0     O31419   6.879   2.817   4.719 -0.1272 -0.2866  0.7252
  239MOL0     C31420   6.772   2.895   4.682 -0.6109  0.6560  0.2206
  239MOL0     C31421   6.643   2.829   4.656  0.1427  0.1550 -0.4193
  239MOL0     C31422   6.537   2.906   4.614  0.5814 -0.3156 -1.1309
  239MOL0     C31423   6.551   3.047   4.604  0.1223 -0.6247  0.8703
  239MOL0     O31424   6.436   3.112   4.560  0.5668 -0.3590 -0.0143
  239MOL0     C31425   6.439   3.256   4.599 -0.5755 -0.1229 -0.0542
  239MOL0     C31426   6.310   3.324   4.553 -0.3272  0.0587 -0.7138
  239MOL0     C31427   6.191   3.263   4.618 -0.1067 -0.5011  0.9876
  239MOL0     C31428   6.071   3.318   4.557  0.1174  0.0155  0.2625
  239MOL0     C31429   5.949   3.277   4.645 -0.1161  0.0952  0.0461
  239MOL0     C31430   5.821   3.329   4.582  1.2399  0.8814  0.2947
  239MOL0     C31431   5.690   3.325   4.668  0.8892 -0.6388  0.3788
  239MOL0     C31432   5.627   3.187   4.667  0.1813 -0.1331  0.2276
  239MOL0     N31433   5.593   3.147   4.528 -0.4339 -0.8958 -0.2010
  239MOL0     C31434   5.640   3.036   4.467 -0.0526  0.0745  0.2727
  239MOL0     C31435   5.580   3.025   4.346 -0.0956  0.5996 -0.6618
  239MOL0     C31436   5.618   2.925   4.236  0.4872 -0.3201 -0.6815
  239MOL0     C31437   5.544   2.790   4.254  0.0020  0.1477  0.2294
  239MOL0     C31438   5.593   2.707   4.384  0.2279 -0.0301 -0.0008
  239MOL0     C31439   5.485   2.619   4.453 -0.1428 -0.1343  0.4495
  239MOL0     O31440   5.393   2.696   4.525 -0.0771 -0.0908  0.1379
  239MOL0     C31441   5.260   2.712   4.472 -0.2843  0.4286 -0.5879
  239MOL0     C31442   5.184   2.604   4.427 -0.1439 -0.9197  0.5570
  239MOL0     C31443   5.064   2.642   4.358 -0.0562  1.1087 -0.6521
  239MOL0     C31444   5.019   2.776   4.351 -0.4497  0.4428  0.2828
  239MOL0     C31445   4.900   2.813   4.274 -1.0195  0.5363  0.1152
  239MOL0     O31446   4.853   2.713   4.184 -0.8289 -0.3030  0.0784
  239MOL0     C31447   4.730   2.711   4.120  0.2040  0.1915 -0.0822
  239MOL0     C31448   4.614   2.734   4.199 -0.8788  0.1156 -0.2308
  239MOL0     C31449   4.487   2.717   4.148 -0.1040  0.4158 -0.3928
  239MOL0     C31450   4.470   2.669   4.014 -0.2577  0.3114  0.1405
  239MOL0     O31451   4.348   2.653   3.960  0.2020  0.3982  0.0979
  239MOL0     C31452   4.258   2.766   3.954  0.8110  0.4073 -0.3552
  239MOL0     C31453   4.111   2.721   3.978 -1.1665  0.0822 -0.0005
  239MOL0     C31454   4.016   2.831   3.935 -0.1151 -0.0718 -0.8996
  239MOL0     C31455   3.880   2.780   3.923 -0.3664 -0.5035 -0.6241
  239MOL0     C31456   3.798   2.865   3.828  0.5280  0.2664 -0.2807
  239MOL0     C31457   3.653   2.811   3.830  0.2029 -0.6046 -0.2497
  239MOL0     C31458   3.589   2.865   3.709 -0.1849 -0.5959  0.4947
  239MOL0     C31459   3.433   2.854   3.718  0.3395 -0.6136 -0.0858
  239MOL0    Cl31460   3.384   2.687   3.770  0.1544  0.1161 -0.0265
  239MOL0     C31461   4.585   2.650   3.945 -1.1642 -0.0920  0.4287
  239MOL0     C31462   4.717   2.678   3.990  0.0223  0.4446 -0.0135
  239MOL0     O31463   4.836   2.910   4.313 -0.3143 -0.2313 -0.3002
  239MOL0     C31464   5.106   2.879   4.408  0.3932 -1.0968 -0.6526
  239MOL0     C31465   5.215   2.843   4.476 -0.0439 -0.1059  0.1293
  239MOL0     N31466   5.492   3.129   4.338  0.2556 -0.1645  0.5045
  239MOL0     N31467   5.493   3.199   4.447  0.5107 -0.0481  0.2003
  239MOL0     C31468   6.671   3.107   4.639 -0.0533  0.6895  0.1917
  239MOL0     C31469   6.785   3.033   4.676 -1.3390 -0.1430 -0.1149
  239MOL0     C31470   7.040   2.765   4.902 -0.1088  0.5936  0.0181
  239MOL0     C31471   7.060   2.745   5.041 -0.1359 -0.1472  0.2295
  239MOL0     C31472   7.190   2.720   5.091  0.0421 -0.4707 -0.4304
  239MOL0     C31473   7.307   2.724   5.012 -0.1542  1.0365  0.5207
  239MOL0     O31474   7.436   2.692   5.047  1.0992  0.5602 -0.3967
  239MOL0     C31475   7.460   2.614   5.160 -0.2158 -0.0477  1.1277
  239MOL0     C31476   7.402   2.473   5.144 -1.2607 -0.3289  0.8437
  239MOL0     C31477   7.456   2.396   5.016  0.0238  0.1327  0.7639
  239MOL0     C31478   7.574   2.318   5.042  1.1252 -0.0540 -0.6931
  239MOL0     C31479   7.643   2.258   4.925 -0.5640  0.6691  0.6464
  239MOL0     C31480   7.694   2.223   4.818 -0.7890 -1.0906 -0.4655
  239MOL0     C31481   7.287   2.755   4.880  0.5196  0.9288 -0.1981
  239MOL0     C31482   7.155   2.764   4.826 -0.7549 -0.5558 -0.1107
  239MOL0     H31483   6.641   2.721   4.669  2.8538  0.2757  1.8527
  239MOL0     H31484   6.441   2.859   4.593 -0.0575  0.3595  0.1647
  239MOL0     H31485   6.523   3.313   4.558  0.6282  0.1622  2.5956
  239MOL0     H31486   6.435   3.259   4.708 -0.3749  0.8256 -0.0642
  239MOL0     H31487   6.300   3.311   4.445 -1.3698 -2.1316 -0.3913
  239MOL0     H31488   6.306   3.433   4.566  0.5768  0.0343 -0.1373
  239MOL0     H31489   6.194   3.289   4.725 -3.2911  0.5241  0.9245
  239MOL0     H31490   6.183   3.153   4.616  2.2183 -0.7154 -1.7141
  239MOL0     H31491   6.080   3.427   4.561  1.7659 -0.1043  0.5043
  239MOL0     H31492   6.059   3.284   4.453  2.0890 -0.7357  0.2363
  239MOL0     H31493   5.966   3.317   4.745 -1.8255  0.8595  0.0753
  239MOL0     H31494   5.938   3.169   4.660 -2.5111  0.4884  1.6840
  239MOL0     H31495   5.809   3.273   4.489  1.3010 -0.3776  1.0191
  239MOL0     H31496   5.824   3.431   4.544 -2.3211  0.4142 -1.7404
  239MOL0     H31497   5.721   3.354   4.768 -0.1092  1.3279  0.1615
  239MOL0     H31498   5.625   3.401   4.623  2.2421 -0.6467 -1.7455
  239MOL0     H31499   5.540   3.185   4.732  1.0624 -2.5898  1.4552
  239MOL0     H31500   5.699   3.109   4.694 -0.0599 -0.7233 -0.7611
  239MOL0     H31501   5.717   2.974   4.512 -0.0385  0.1963  0.4164
  239MOL0     H31502   5.726   2.910   4.239  0.4654 -0.2845  1.2631
  239MOL0     H31503   5.596   2.978   4.143  1.2890 -0.4589 -0.9556
  239MOL0     H31504   5.564   2.739   4.159  0.0995  0.7646 -0.0896
  239MOL0     H31505   5.437   2.809   4.253  0.0068  0.2403  0.9295
  239MOL0     H31506   5.669   2.639   4.346  1.0744  0.9217 -0.0408
  239MOL0     H31507   5.640   2.774   4.456 -0.3009  2.6331 -1.9659
  239MOL0     H31508   5.542   2.552   4.518 -1.1825 -1.4705  0.0185
  239MOL0     H31509   5.435   2.553   4.382 -1.3921  0.4505  0.7534
  239MOL0     H31510   5.212   2.499   4.431 -1.6494 -1.3874 -0.2886
  239MOL0     H31511   5.013   2.565   4.300 -0.8280 -0.3067  1.7370
  239MOL0     H31512   4.626   2.768   4.301 -0.2004  0.7740 -0.5172
  239MOL0     H31513   4.404   2.754   4.208  0.2489  1.5804 -0.5988
  239MOL0     H31514   4.269   2.824   3.862 -1.8241  0.7641 -0.5371
  239MOL0     H31515   4.278   2.833   4.038 -1.6147 -1.2168  1.6524
  239MOL0     H31516   4.086   2.697   4.082 -1.1418 -1.9158 -0.4209
  239MOL0     H31517   4.098   2.636   3.911 -0.7828  1.9629 -2.5894
  239MOL0     H31518   4.054   2.874   3.842  1.9806  3.4484  1.3637
  239MOL0     H31519   4.021   2.913   4.007 -2.5472 -1.9600  1.6165
  239MOL0     H31520   3.884   2.678   3.884  0.0818 -0.7951  0.1701
  239MOL0     H31521   3.830   2.771   4.019  1.1772 -0.1240  0.2453
  239MOL0     H31522   3.840   2.853   3.728 -0.3230  1.2510 -0.7797
  239MOL0     H31523   3.799   2.973   3.849 -2.4648  0.6980 -1.6688
  239MOL0     H31524   3.601   2.843   3.920 -0.2491 -1.0978 -0.3338
  239MOL0     H31525   3.653   2.702   3.820  0.0508 -0.5284 -1.1610
  239MOL0     H31526   3.628   2.966   3.691 -0.4385 -0.0898  2.5167
  239MOL0     H31527   3.619   2.814   3.617  0.3007 -1.3090  1.0386
  239MOL0     H31528   3.395   2.891   3.623  3.1972  1.2757 -0.6208
  239MOL0     H31529   3.400   2.927   3.792  1.1726  1.9580 -2.0994
  239MOL0     H31530   4.579   2.622   3.841  3.8680 -3.0296  0.6116
  239MOL0     H31531   4.796   2.649   3.921  0.1111 -1.1703  0.7114
  239MOL0     H31532   5.078   2.984   4.407  0.6195 -0.7995  3.7282
  239MOL0     H31533   5.274   2.916   4.531  1.4780 -1.4137  0.3132
  239MOL0     H31534   6.684   3.214   4.632 -1.8290  0.9164  0.0645
  239MOL0     H31535   6.880   3.083   4.693 -1.3823  0.3653 -1.2648
  239MOL0     H31536   6.979   2.755   5.112 -0.1598  0.3381  0.1387
  239MOL0     H31537   7.213   2.692   5.194  2.1521  2.4949  0.0477
  239MOL0     H31538   7.404   2.663   5.240 -1.3743  1.8357 -0.7332
  239MOL0     H31539   7.565   2.599   5.185  0.0277  1.8221  1.3907
  239MOL0     H31540   7.435   2.415   5.230  1.4280  0.1134  0.2029
  239MOL0     H31541   7.293   2.478   5.158 -1.0975  1.0301  1.8299
  239MOL0     H31542   7.481   2.462   4.932  2.5873 -2.1356 -0.4228
  239MOL0     H31543   7.371   2.346   4.968 -0.4737  3.3984 -2.1329
  239MOL0     H31544   7.659   2.374   5.083  0.8082  0.2728 -0.4681
  239MOL0     H31545   7.546   2.245   5.119  2.2149 -0.5831 -0.7953
  239MOL0     H31546   7.735   2.182   4.728  0.6215 -0.1287 -0.3169
  239MOL0     H31547   7.372   2.769   4.814  0.7740 -0.0383 -0.0840
  239MOL0     H31548   7.136   2.788   4.722 -1.3467 -1.1394 -0.1417
  240MOL0     O31549   1.028   4.549   5.618  0.3474  0.6312  0.2230
  240MOL0     C31550   1.117   4.488   5.569 -0.2442  0.0864  1.0877
  240MOL0     O31551   1.121   4.439   5.448  0.0253  0.6107  0.2162
  240MOL0     C31552   1.022   4.452   5.359 -1.0927 -0.5185 -0.3058
  240MOL0     C31553   0.899   4.402   5.401 -0.8190  0.6667  0.2509
  240MOL0     C31554   0.794   4.408   5.310  0.2164 -0.8964 -0.1673
  240MOL0     C31555   0.801   4.477   5.187 -0.5831 -0.6386 -0.5916
  240MOL0     O31556   0.702   4.489   5.096 -0.1185 -0.1788  0.0399
  240MOL0     C31557   0.584   4.396   5.111 -0.9368 -0.4934  0.0969
  240MOL0     C31558   0.537   4.349   4.973  0.0083  0.4161  0.2967
  240MOL0     C31559   0.519   4.472   4.877 -0.1127 -0.3139 -0.7376
  240MOL0     C31560   0.448   4.410   4.746  0.5014  0.0650 -0.4800
  240MOL0     C31561   0.426   4.524   4.652  0.4793  0.2135  0.5996
  240MOL0     C31562   0.555   4.573   4.583  1.0038 -0.0522  0.9507
  240MOL0     C31563   0.527   4.679   4.471  0.4335 -0.0002 -0.4407
  240MOL0     C31564   0.655   4.726   4.399  0.2175  0.2623 -0.2301
  240MOL0     N31565   0.738   4.789   4.497  0.0779  0.2124 -0.1738
  240MOL0     C31566   0.853   4.746   4.558 -0.2773 -0.7705  0.4597
  240MOL0     C31567   0.890   4.857   4.624 -0.6196  0.6591 -0.8949
  240MOL0     C31568   1.018   4.870   4.706  0.0032  0.3511  0.2748
  240MOL0     C31569   1.149   4.896   4.624  0.4474  0.1783 -0.0356
  240MOL0     C31570   1.215   4.763   4.593  0.3136 -0.5683  0.2091
  240MOL0     C31571   1.343   4.781   4.524  0.4803 -0.8044  0.0045
  240MOL0     O31572   1.406   4.649   4.528  0.5108 -0.2575 -0.1954
  240MOL0     C31573   1.544   4.637   4.509  0.1800  0.4374 -0.3755
  240MOL0     C31574   1.586   4.505   4.520 -0.1796  0.4606  0.6505
  240MOL0     C31575   1.728   4.481   4.527 -0.2590 -0.8080  0.3837
  240MOL0     C31576   1.823   4.583   4.526 -0.6056 -0.9378  0.7086
  240MOL0     C31577   1.967   4.544   4.535  0.0564 -0.6171  0.4456
  240MOL0     O31578   2.060   4.634   4.568  0.2542 -0.1388  0.0448
  240MOL0     C31579   2.199   4.614   4.569  0.0900  0.9031 -0.3436
  240MOL0     C31580   2.285   4.718   4.600 -0.4487 -0.5063 -0.5362
  240MOL0     C31581   2.423   4.697   4.617  0.7837 -0.2315 -0.0342
  240MOL0     C31582   2.481   4.573   4.588 -0.0097 -0.2067 -0.1060
  240MOL0     O31583   2.619   4.562   4.612 -0.1416 -0.0316  0.4200
  240MOL0     C31584   2.685   4.432   4.616 -0.1520  0.1755  0.5065
  240MOL0     C31585   2.828   4.467   4.641  0.2710  0.4731  0.9769
  240MOL0     C31586   2.904   4.549   4.539  0.1276  0.4377  0.1562
  240MOL0     C31587   3.029   4.604   4.604  0.3044  0.1010  0.5681
  240MOL0     C31588   3.106   4.702   4.518  0.5160  0.0931 -0.0064
  240MOL0     C31589   3.251   4.723   4.583 -0.3973 -0.2190 -0.5506
  240MOL0     C31590   3.343   4.805   4.491 -0.0271 -0.2739  0.3756
  240MOL0     C31591   3.492   4.794   4.544 -0.2692 -0.1288  0.4183
  240MOL0    Cl31592   3.508   4.887   4.698 -0.7198 -0.0489  0.4499
  240MOL0     C31593   2.395   4.463   4.551 -0.1281 -0.2369  0.3098
  240MOL0     C31594   2.257   4.484   4.543  0.2051 -0.3046 -0.2387
  240MOL0     O31595   1.991   4.430   4.491  0.4017 -0.3991  0.5687
  240MOL0     C31596   1.775   4.715   4.518  0.0887 -0.1380  0.6882
  240MOL0     C31597   1.633   4.743   4.515 -0.7930  0.4155 -0.1651
  240MOL0     N31598   0.804   4.966   4.605 -0.0407 -0.0134 -0.2560
  240MOL0     N31599   0.721   4.921   4.523 -0.0227  0.3996 -0.0452
  240MOL0     C31600   0.920   4.528   5.143  0.5756  0.1524 -0.9690
  240MOL0     C31601   1.035   4.512   5.224 -0.9936 -0.0623  0.6180
  240MOL0     C31602   1.236   4.467   5.659 -0.5854 -0.0074 -0.3017
  240MOL0     C31603   1.324   4.364   5.631  0.8141 -0.1478 -0.0967
  240MOL0     C31604   1.418   4.323   5.716  0.3319 -0.4230  0.3945
  240MOL0     C31605   1.429   4.378   5.843  0.0603  0.2971  0.7775
  240MOL0     O31606   1.520   4.326   5.936 -0.0584 -0.2973  0.8362
  240MOL0     C31607   1.631   4.408   5.969 -0.3716 -0.2184 -0.6862
  240MOL0     C31608   1.768   4.347   5.940  0.0443 -0.3202  0.3872
  240MOL0     C31609   1.806   4.335   5.793  0.0306 -0.2267 -0.0761
  240MOL0     C31610   1.954   4.293   5.790 -0.6135  0.2048  0.5397
  240MOL0     C31611   1.992   4.150   5.801  0.5104  0.0149 -0.3664
  240MOL0     C31612   2.017   4.036   5.793  0.0747  1.3394  0.4916
  240MOL0     C31613   1.354   4.492   5.870 -0.4861 -0.5314  0.4125
  240MOL0     C31614   1.264   4.541   5.775  0.1219  0.1400 -0.8617
  240MOL0     H31615   0.880   4.360   5.499 -2.1953 -1.1761 -0.7416
  240MOL0     H31616   0.697   4.371   5.342 -1.8579  4.1045  0.1187
  240MOL0     H31617   0.506   4.454   5.161 -1.6744  0.4948 -2.0619
  240MOL0     H31618   0.611   4.305   5.165  2.0217  2.0574  3.4391
  240MOL0     H31619   0.442   4.299   4.991 -0.0395  0.7249  0.9253
  240MOL0     H31620   0.616   4.280   4.943  1.0193  1.4201  0.5625
  240MOL0     H31621   0.623   4.494   4.852  0.0333 -0.6848 -0.4568
  240MOL0     H31622   0.468   4.557   4.924 -3.1084 -2.5187  0.3431
  240MOL0     H31623   0.500   4.322   4.707  1.2071  0.2605 -0.0125
  240MOL0     H31624   0.352   4.367   4.774  0.9664 -1.7335 -1.4894
  240MOL0     H31625   0.395   4.618   4.700 -1.2625 -0.2821  0.5042
  240MOL0     H31626   0.349   4.498   4.579 -2.0876  0.3450  3.0917
  240MOL0     H31627   0.592   4.488   4.525 -4.1074 -2.6090  0.8149
  240MOL0     H31628   0.624   4.601   4.663  1.3843 -2.5284  1.5767
  240MOL0     H31629   0.452   4.636   4.404 -2.6708 -0.3442  2.9327
  240MOL0     H31630   0.471   4.758   4.524 -0.0727  0.2725 -1.3627
  240MOL0     H31631   0.626   4.787   4.313  0.1583 -0.8175 -0.9940
  240MOL0     H31632   0.703   4.636   4.360 -0.1695 -0.2703  0.4780
  240MOL0     H31633   0.902   4.650   4.542  0.0844 -0.0050 -4.3247
  240MOL0     H31634   1.027   4.771   4.752  2.1649 -0.6738 -2.1263
  240MOL0     H31635   1.002   4.937   4.790 -0.8255  0.3864  0.0930
  240MOL0     H31636   1.212   4.972   4.669  0.7533  1.7062 -2.8170
  240MOL0     H31637   1.130   4.939   4.525  0.4287 -0.0051 -0.1144
  240MOL0     H31638   1.218   4.702   4.684 -3.4559  0.5726  1.2730
  240MOL0     H31639   1.149   4.703   4.530 -0.8960  1.5278 -0.5982
  240MOL0     H31640   1.399   4.861   4.573 -0.8909  0.9469 -1.1835
  240MOL0     H31641   1.334   4.796   4.416 -2.3093 -1.9360 -0.0226
  240MOL0     H31642   1.508   4.431   4.511 -1.5084  1.9678 -1.0971
  240MOL0     H31643   1.763   4.379   4.514 -1.1406 -0.7836 -3.1019
  240MOL0     H31644   2.243   4.816   4.619 -4.0897 -1.9104 -0.4965
  240MOL0     H31645   2.480   4.786   4.643 -0.4623  0.5074  0.2544
  240MOL0     H31646   2.685   4.382   4.518 -0.2535  2.4004 -0.7048
  240MOL0     H31647   2.665   4.370   4.704 -2.4375  0.5042  0.2856
  240MOL0     H31648   2.890   4.378   4.652 -0.3000 -0.3189 -1.5800
  240MOL0     H31649   2.824   4.519   4.737 -0.1829 -0.3203  1.4023
  240MOL0     H31650   2.836   4.629   4.507 -0.4479 -0.5132 -1.0946
  240MOL0     H31651   2.933   4.480   4.459 -1.1666 -1.5760  1.3368
  240MOL0     H31652   2.993   4.656   4.694  0.3045  1.9648 -0.4567
  240MOL0     H31653   3.087   4.516   4.632  1.0365  0.4780  0.2632
  240MOL0     H31654   3.052   4.797   4.512 -0.2007 -0.1699  1.8411
  240MOL0     H31655   3.114   4.672   4.413 -1.4179  2.3861 -0.9195
  240MOL0     H31656   3.289   4.621   4.584  0.0924 -0.0378 -0.0784
  240MOL0     H31657   3.247   4.774   4.680  1.9809 -2.2064  0.7042
  240MOL0     H31658   3.337   4.762   4.390 -2.1391 -0.5223  0.5439
  240MOL0     H31659   3.312   4.909   4.477 -2.0359 -0.9719 -1.0050
  240MOL0     H31660   3.574   4.829   4.481 -0.0982 -2.9683 -1.1067
  240MOL0     H31661   3.520   4.688   4.554 -3.9740 -1.1429  2.3249
  240MOL0     H31662   2.434   4.362   4.539 -0.1381 -0.1826 -0.2130
  240MOL0     H31663   2.210   4.387   4.531  1.5490 -0.9456 -0.5629
  240MOL0     H31664   1.845   4.797   4.525 -0.6962  0.4515  1.9659
  240MOL0     H31665   1.608   4.848   4.519 -2.8461 -0.0407  1.0058
  240MOL0     H31666   0.933   4.570   5.044 -0.0797  2.7014 -0.0328
  240MOL0     H31667   1.126   4.555   5.185 -1.0731  2.6895  3.0762
  240MOL0     H31668   1.319   4.314   5.534 -1.8376  0.2609 -0.2593
  240MOL0     H31669   1.473   4.236   5.682 -3.0990 -3.1067  1.1267
  240MOL0     H31670   1.620   4.444   6.071 -0.3810  3.4303 -1.8338
  240MOL0     H31671   1.628   4.501   5.910 -1.7861 -0.8200 -1.6268
  240MOL0     H31672   1.841   4.408   5.994  2.0290 -1.1863 -1.1839
  240MOL0     H31673   1.772   4.247   5.983 -2.0231 -1.8939 -2.7158
  240MOL0     H31674   1.793   4.438   5.757 -1.3723 -1.0131 -1.9318
  240MOL0     H31675   1.743   4.275   5.727  0.0604  3.2217 -3.5845
  240MOL0     H31676   1.982   4.301   5.685  1.2377 -5.3748  0.2973
  240MOL0     H31677   2.019   4.353   5.854 -0.7469  0.8473  0.0902
  240MOL0     H31678   2.043   3.934   5.770 -1.1831  1.3564 -1.2059
  240MOL0     H31679   1.365   4.545   5.964  2.3059 -0.1057 -0.0668
  240MOL0     H31680   1.201   4.626   5.800  0.4959  0.6621 -1.6537
  241MOL0     O31681   2.716  10.635   4.044  0.7418  0.6560 -0.0513
  241MOL0     C31682   2.777  10.524   4.049  0.1450  0.7512  0.3505
  241MOL0     O31683   2.731  10.413   4.109 -0.0333  0.0005  0.8010
  241MOL0     C31684   2.597  10.400   4.154 -0.7662  1.1058  0.2509
  241MOL0     C31685   2.532  10.274   4.155 -0.2091 -0.2257  1.4322
  241MOL0     C31686   2.403  10.251   4.211  0.0095 -0.5757  0.0514
  241MOL0     C31687   2.336  10.364   4.265  0.0340 -0.1585 -0.1364
  241MOL0     O31688   2.215  10.337   4.328 -0.0617 -0.3083  0.8167
  241MOL0     C31689   2.118  10.439   4.290 -0.8014  0.6120 -0.3491
  241MOL0     C31690   1.978  10.365   4.286  0.8241 -0.5820  0.2304
  241MOL0     C31691   1.862  10.455   4.273 -0.3389 -0.4907 -0.0073
  241MOL0     C31692   1.747  10.365   4.259  0.5151 -0.7032 -1.0499
  241MOL0     C31693   1.635  10.445   4.198  0.1437 -0.1340  0.3801
  241MOL0     C31694   1.500  10.375   4.186 -0.2251 -0.8106 -0.5908
  241MOL0     C31695   1.392  10.481   4.172 -0.3781  0.9089 -0.4203
  241MOL0     C31696   1.264  10.412   4.134 -1.0888 -0.1342 -0.0189
  241MOL0     N31697   1.164  10.508   4.092 -0.2313  0.6235 -0.4815
  241MOL0     C31698   1.026  10.484   4.101  0.4492  0.0897 -0.6089
  241MOL0     C31699   0.969  10.608   4.115 -0.2051 -0.6736 -0.3314
  241MOL0     C31700   0.826  10.628   4.137  0.0496 -0.3287 -0.8686
  241MOL0     C31701   0.797  10.721   4.252 -0.3028 -0.9259  0.6180
  241MOL0     C31702   0.797  10.875   4.211 -0.5029 -0.2032  0.5773
  241MOL0     C31703   0.730  10.952   4.324  0.4868 -0.1791  0.0474
  241MOL0     O31704   0.725  11.095   4.303  0.5215  0.2182 -0.1242
  241MOL0     C31705   0.612  11.162   4.253 -0.7109 -0.1231 -0.6735
  241MOL0     C31706   0.541  11.234   4.344  0.3490  0.9219 -0.0677
  241MOL0     C31707   0.429  11.306   4.299  0.1501 -0.2371  0.3278
  241MOL0     C31708   0.385  11.292   4.169 -0.2113  0.2697 -0.5048
  241MOL0     C31709   0.258  11.353   4.119  0.1039 -0.5702  0.0140
  241MOL0     O31710   0.216  11.333   3.990 -0.0120 -0.4973  0.2710
  241MOL0     C31711   0.086  11.354   3.954 -0.5183 -0.2394  1.1345
  241MOL0     C31712  -0.010  11.249   3.934 -0.2826 -0.0475 -0.2331
  241MOL0     C31713  -0.136  11.278   3.884 -0.1735  0.2380  0.3656
  241MOL0     C31714  -0.186  11.409   3.883 -0.2157 -0.8848 -0.3596
  241MOL0     O31715  -0.308  11.456   3.845 -0.1727  0.4390 -0.0625
  241MOL0     C31716  -0.410  11.471   3.944  0.4919 -0.4848  0.1667
  241MOL0     C31717  -0.539  11.447   3.868 -0.2066 -0.4913 -0.0050
  241MOL0     C31718  -0.655  11.483   3.956 -0.6727  0.4133  0.9710
  241MOL0     C31719  -0.781  11.468   3.882  0.9219  0.5234 -0.3965
  241MOL0     C31720  -0.908  11.513   3.966 -0.2916  0.3904  0.7959
  241MOL0     C31721  -0.919  11.445   4.098  0.2097 -0.2946 -0.4168
  241MOL0     C31722  -1.043  11.478   4.177  0.7580  0.6949 -0.3824
  241MOL0     C31723  -1.045  11.405   4.313  0.1558  0.0414 -0.7030
  241MOL0    Cl31724  -1.180  11.483   4.407  0.1675 -0.2115 -0.6922
  241MOL0     C31725  -0.096  11.515   3.904 -0.1520  0.3214 -0.6843
  241MOL0     C31726   0.038  11.486   3.941  0.3304  0.7753 -0.1447
  241MOL0     O31727   0.193  11.408   4.212 -0.1499 -0.0150  0.5125
  241MOL0     C31728   0.472  11.231   4.075 -0.4453 -0.2600  0.4464
  241MOL0     C31729   0.581  11.166   4.119  0.6366 -0.1558  1.1144
  241MOL0     N31730   1.068  10.701   4.093 -0.7119 -1.1925  0.1481
  241MOL0     N31731   1.179  10.645   4.077 -0.4227 -0.8216 -0.1228
  241MOL0     C31732   2.394  10.490   4.256 -0.5942 -0.2491 -0.5861
  241MOL0     C31733   2.528  10.509   4.212  0.6010 -0.5805 -0.1266
  241MOL0     C31734   2.906  10.516   3.992  0.1691  0.0458 -0.0977
  241MOL0     C31735   2.986  10.402   4.023 -0.6215 -1.1252 -0.3871
  241MOL0     C31736   3.119  10.391   3.981  0.8637 -0.0520  0.2061
  241MOL0     C31737   3.166  10.489   3.889  0.5558  0.4391 -0.4336
  241MOL0     O31738   3.290  10.493   3.825  0.5801  0.1144 -0.5512
  241MOL0     C31739   3.383  10.395   3.882 -0.1003  1.0851 -0.1524
  241MOL0     C31740   3.527  10.403   3.842  0.1579 -0.1245 -0.6104
  241MOL0     C31741   3.558  10.476   3.704  0.5015  0.4013  0.3299
  241MOL0     C31742   3.701  10.457   3.660 -0.1184  0.8874 -0.6404
  241MOL0     C31743   3.792  10.539   3.746  1.1218 -0.9096 -0.5204
  241MOL0     C31744   3.869  10.594   3.822 -0.2832  0.5440 -0.1047
  241MOL0     C31745   3.087  10.598   3.851 -0.8074 -0.2138 -0.4799
  241MOL0     C31746   2.956  10.616   3.909 -0.1903 -0.3202  0.5232
  241MOL0     H31747   2.582  10.189   4.109 -1.7761  0.1986 -1.3233
  241MOL0     H31748   2.369  10.148   4.207 -1.1242 -0.2358 -4.2090
  241MOL0     H31749   2.140  10.491   4.196 -1.3146 -0.5676 -1.1440
  241MOL0     H31750   2.114  10.513   4.370 -1.7485 -0.5121  0.6762
  241MOL0     H31751   1.971  10.303   4.376 -0.9890 -2.3558 -1.0577
  241MOL0     H31752   1.968  10.296   4.202 -5.3200 -1.6096  1.2802
  241MOL0     H31753   1.866  10.520   4.186 -0.4429  1.3350  1.2862
  241MOL0     H31754   1.849  10.518   4.362 -0.7723 -1.1422  0.4033
  241MOL0     H31755   1.766  10.267   4.214  2.1209 -1.1457  0.4721
  241MOL0     H31756   1.722  10.348   4.365  1.1388 -1.1894 -0.9778
  241MOL0     H31757   1.667  10.471   4.096  1.4029 -2.3191  0.1606
  241MOL0     H31758   1.615  10.538   4.253 -2.5632  0.0013 -0.6837
  241MOL0     H31759   1.493  10.307   4.272 -0.5720 -1.5161 -1.1663
  241MOL0     H31760   1.489  10.324   4.090 -1.8426  2.0643 -2.0973
  241MOL0     H31761   1.388  10.546   4.259 -2.2736  0.5947 -0.2412
  241MOL0     H31762   1.424  10.546   4.090  0.8536  1.9666  0.8512
  241MOL0     H31763   1.214  10.360   4.215 -3.4187 -1.0724 -1.9425
  241MOL0     H31764   1.283  10.335   4.058  3.0755 -0.5898  1.1981
  241MOL0     H31765   0.971  10.390   4.100 -2.5225  1.6609  1.0945
  241MOL0     H31766   0.768  10.537   4.156  0.7453 -1.5201 -3.8718
  241MOL0     H31767   0.780  10.669   4.046 -0.2378 -1.0585 -1.0596
  241MOL0     H31768   0.858  10.709   4.342  0.3400  1.8250  0.6350
  241MOL0     H31769   0.695  10.690   4.275 -0.0009 -1.3975  1.3666
  241MOL0     H31770   0.902  10.901   4.193 -0.1049 -0.1159  2.6839
  241MOL0     H31771   0.741  10.888   4.118 -1.7548 -3.5723  0.7130
  241MOL0     H31772   0.786  10.929   4.415 -0.1629 -4.2746 -0.4153
  241MOL0     H31773   0.632  10.907   4.342  1.1805 -0.6889  3.2509
  241MOL0     H31774   0.575  11.231   4.447  0.0058  0.1440  0.0266
  241MOL0     H31775   0.369  11.361   4.371 -0.7091 -2.9685  1.8697
  241MOL0     H31776   0.016  11.147   3.960  0.3593  0.5110  1.4621
  241MOL0     H31777  -0.210  11.199   3.873 -1.5122  0.6360  4.8613
  241MOL0     H31778  -0.395  11.572   3.985  0.1995 -1.4786  2.9147
  241MOL0     H31779  -0.393  11.391   4.015 -0.0418 -3.2681 -2.6048
  241MOL0     H31780  -0.535  11.338   3.852  1.1781 -0.5562  0.6344
  241MOL0     H31781  -0.548  11.496   3.770 -1.6349 -2.5581 -0.9945
  241MOL0     H31782  -0.638  11.582   3.998  2.7783  0.1410  0.5249
  241MOL0     H31783  -0.658  11.417   4.042  0.4257 -0.4032  0.4073
  241MOL0     H31784  -0.782  11.514   3.782  2.2727 -3.1366 -2.2863
  241MOL0     H31785  -0.788  11.363   3.853  0.4983 -0.0086  1.5562
  241MOL0     H31786  -0.995  11.476   3.911 -0.9094  1.3710  1.1046
  241MOL0     H31787  -0.914  11.622   3.963 -5.4079  0.3206 -1.5815
  241MOL0     H31788  -0.830  11.470   4.157  2.3277 -3.5002 -1.9736
  241MOL0     H31789  -0.909  11.336   4.086  2.2360 -0.2235  0.1978
  241MOL0     H31790  -1.031  11.586   4.188 -1.0844  0.7437  1.9114
  241MOL0     H31791  -1.141  11.456   4.135  0.1847  1.2519  0.6179
  241MOL0     H31792  -0.956  11.414   4.375 -1.3240 -1.5508  1.7939
  241MOL0     H31793  -1.064  11.297   4.305 -1.7345  0.1722  1.3559
  241MOL0     H31794  -0.138  11.615   3.904 -4.7123 -1.2902  2.3805
  241MOL0     H31795   0.116  11.557   3.966  1.7126 -0.7291  0.0537
  241MOL0     H31796   0.460  11.230   3.967  1.7510  0.8011  0.1438
  241MOL0     H31797   0.655  11.114   4.059 -0.5656 -1.7502  0.9435
  241MOL0     H31798   2.339  10.576   4.293  1.8231  0.6667  1.1014
  241MOL0     H31799   2.564  10.610   4.226 -3.2990  0.6626  2.4446
  241MOL0     H31800   2.958  10.320   4.089 -0.8795 -0.4057  0.4240
  241MOL0     H31801   3.177  10.305   4.014  0.5002 -0.0317  0.9189
  241MOL0     H31802   3.343  10.296   3.856 -3.2437  1.6153  2.1487
  241MOL0     H31803   3.384  10.386   3.991  0.1376 -1.2959 -0.2915
  241MOL0     H31804   3.570  10.460   3.925  1.9205 -4.0057  1.4370
  241MOL0     H31805   3.572  10.303   3.840 -0.7319 -0.8138  3.5891
  241MOL0     H31806   3.532  10.582   3.702  0.9674  0.5057 -0.6982
  241MOL0     H31807   3.496  10.431   3.626 -0.9431 -2.5035  2.9153
  241MOL0     H31808   3.733  10.353   3.669  3.0742  1.9122  1.3662
  241MOL0     H31809   3.710  10.476   3.553 -4.0888  2.2807 -0.8891
  241MOL0     H31810   3.943  10.647   3.879  1.5675 -0.8050 -1.1603
  241MOL0     H31811   3.146  10.679   3.811  0.4428  0.0614  1.7607
  241MOL0     H31812   2.896  10.701   3.878  0.2489  0.1575  0.9623
  242MOL0     O31813   8.505   2.619   8.716  0.0288 -0.2841 -0.0904
  242MOL0     C31814   8.483   2.511   8.666 -0.1094  1.3902  0.2900
  242MOL0     O31815   8.356   2.457   8.636 -0.6668 -0.4983  0.2805
  242MOL0     C31816   8.235   2.519   8.658 -0.2691  0.1745 -0.5256
  242MOL0     C31817   8.130   2.428   8.659  1.4051  0.6673  0.0353
  242MOL0     C31818   8.000   2.469   8.689  0.2780  0.2736 -0.7485
  242MOL0     C31819   7.970   2.607   8.719  0.3489  0.3763 -0.7296
  242MOL0     O31820   7.846   2.661   8.748 -0.4264  0.4200  0.3023
  242MOL0     C31821   7.758   2.556   8.775  0.0761 -0.5034 -0.3486
  242MOL0     C31822   7.625   2.614   8.815 -0.1591 -0.0676  0.5248
  242MOL0     C31823   7.526   2.501   8.819 -0.2830  1.1528 -0.3124
  242MOL0     C31824   7.389   2.551   8.850  1.1525 -0.5871  0.1764
  242MOL0     C31825   7.307   2.434   8.922  0.5143 -0.3506 -0.4906
  242MOL0     C31826   7.291   2.303   8.839 -0.4986  0.8028 -0.0287
  242MOL0     C31827   7.216   2.205   8.942  0.3133 -0.1008  0.4543
  242MOL0     C31828   7.161   2.080   8.878 -0.0503  0.1945  1.2314
  242MOL0     N31829   7.020   2.095   8.836  0.4865 -0.3227  0.3592
  242MOL0     C31830   6.978   2.142   8.714 -0.1720  0.4722  0.0455
  242MOL0     C31831   6.846   2.156   8.726  0.6907 -0.3300  0.3819
  242MOL0     C31832   6.744   2.200   8.617  0.3678  0.1077 -0.0848
  242MOL0     C31833   6.599   2.166   8.668 -0.8340 -0.2160  0.3884
  242MOL0     C31834   6.505   2.210   8.559 -0.5296  0.0361  0.2426
  242MOL0     C31835   6.364   2.158   8.587  0.4390  0.0712  0.2046
  242MOL0     O31836   6.307   2.230   8.692  0.4408  0.9433  0.6771
  242MOL0     C31837   6.176   2.196   8.731  0.2784  0.4961 -0.1662
  242MOL0     C31838   6.125   2.273   8.835  0.5028  0.2256 -0.5363
  242MOL0     C31839   5.998   2.263   8.884 -0.3891  0.1890  0.1892
  242MOL0     C31840   5.905   2.167   8.827  0.3433  0.8061 -0.1202
  242MOL0     C31841   5.769   2.153   8.878  0.6361 -0.1449 -0.7029
  242MOL0     O31842   5.680   2.078   8.809 -0.0462  0.1962  0.0910
  242MOL0     C31843   5.544   2.065   8.848 -0.1096 -0.5388  0.9755
  242MOL0     C31844   5.473   1.962   8.800 -0.1355  0.5450 -0.8233
  242MOL0     C31845   5.337   1.930   8.826 -0.3216 -0.7783  0.0765
  242MOL0     C31846   5.273   2.025   8.917  0.8646 -0.7872  0.0469
  242MOL0     O31847   5.143   2.013   8.959 -0.1413  0.0950  0.0109
  242MOL0     C31848   5.102   1.875   8.994 -0.1733 -0.5821  0.4032
  242MOL0     C31849   4.972   1.863   9.078  0.3192  0.4430 -0.8192
  242MOL0     C31850   4.842   1.895   9.002  0.3385  0.2738 -0.4441
  242MOL0     C31851   4.714   1.863   9.081  0.7312  0.2097 -0.1419
  242MOL0     C31852   4.591   1.839   8.991 -0.7934  1.1521 -0.4001
  242MOL0     C31853   4.538   1.960   8.917  0.2829  0.4181 -0.3309
  242MOL0     C31854   4.401   1.945   8.856  0.3294 -0.2447  0.2344
  242MOL0     C31855   4.365   2.094   8.835 -0.0566  0.0988  0.5068
  242MOL0    Cl31856   4.290   2.165   8.985  0.0718 -0.0811 -0.3332
  242MOL0     C31857   5.335   2.142   8.963  0.4817 -0.1758 -0.6372
  242MOL0     C31858   5.469   2.159   8.931  0.9318 -0.1109 -0.0931
  242MOL0     O31859   5.738   2.201   8.987 -0.4850 -0.2494 -0.0160
  242MOL0     C31860   5.955   2.084   8.727 -0.0747 -0.7047  0.7487
  242MOL0     C31861   6.091   2.094   8.685  1.0144  0.1783 -0.4927
  242MOL0     N31862   6.809   2.103   8.845 -0.3117  0.4137 -0.6556
  242MOL0     N31863   6.918   2.073   8.915  0.3424  1.1113 -0.2607
  242MOL0     C31864   8.071   2.698   8.718  0.6921  0.1724 -1.0938
  242MOL0     C31865   8.204   2.654   8.687  0.4267  0.4744 -0.3463
  242MOL0     C31866   8.597   2.429   8.625 -0.0465 -0.1006 -1.1169
  242MOL0     C31867   8.583   2.310   8.555 -1.5736  0.2469  0.6372
  242MOL0     C31868   8.691   2.234   8.504  0.4263 -0.1641 -0.1072
  242MOL0     C31869   8.818   2.279   8.535  0.0916  0.2466 -0.9219
  242MOL0     O31870   8.937   2.212   8.499  0.1833  0.7312 -0.0306
  242MOL0     C31871   8.930   2.078   8.453 -0.1708 -0.1599  0.8352
  242MOL0     C31872   9.060   2.021   8.439  0.6571  0.2094  0.2034
  242MOL0     C31873   9.051   1.864   8.415  0.0582 -0.2452  0.2697
  242MOL0     C31874   9.170   1.796   8.476 -0.4033  0.2708  0.7744
  242MOL0     C31875   9.296   1.856   8.424 -0.8984  0.0672 -0.3681
  242MOL0     C31876   9.394   1.918   8.372  0.4992  1.2839 -0.1300
  242MOL0     C31877   8.831   2.392   8.615 -0.7460  0.0704 -0.1182
  242MOL0     C31878   8.721   2.475   8.652 -1.2231  0.9543 -0.6379
  242MOL0     H31879   8.141   2.320   8.651 -2.5131  0.2217 -1.5327
  242MOL0     H31880   7.926   2.390   8.686 -1.5445  1.7862 -5.5631
  242MOL0     H31881   7.783   2.488   8.857  2.6415  0.8858  0.1283
  242MOL0     H31882   7.735   2.510   8.678 -0.1955 -0.0141 -0.5205
  242MOL0     H31883   7.606   2.693   8.742  1.4447  0.6924  0.8846
  242MOL0     H31884   7.642   2.663   8.911 -0.6261 -1.1469  1.1792
  242MOL0     H31885   7.546   2.435   8.905 -1.7810  1.7901  0.5697
  242MOL0     H31886   7.516   2.445   8.726 -4.4551  0.9746  0.0332
  242MOL0     H31887   7.394   2.635   8.919  0.7181 -0.7247  0.3776
  242MOL0     H31888   7.346   2.586   8.756  1.1503 -0.2517  0.3026
  242MOL0     H31889   7.210   2.484   8.931  0.5791 -0.4345  0.7947
  242MOL0     H31890   7.338   2.407   9.023 -1.2020  1.4199  0.5829
  242MOL0     H31891   7.388   2.264   8.806 -1.0770  0.9529 -2.0449
  242MOL0     H31892   7.234   2.326   8.748  1.7512  2.4761 -1.0983
  242MOL0     H31893   7.285   2.185   9.025 -0.4074  0.9800  1.3517
  242MOL0     H31894   7.126   2.254   8.981 -1.9061 -3.3825 -0.1631
  242MOL0     H31895   7.166   2.001   8.954  5.0887  0.2009  1.2451
  242MOL0     H31896   7.227   2.041   8.800 -1.0269 -2.3177  1.5796
  242MOL0     H31897   7.034   2.183   8.631  1.2002 -0.9181  0.2398
  242MOL0     H31898   6.765   2.149   8.523  1.3383  1.0226 -0.3802
  242MOL0     H31899   6.753   2.309   8.610  0.1084  0.3170  1.9745
  242MOL0     H31900   6.572   2.218   8.760 -1.8932  1.6615 -0.9066
  242MOL0     H31901   6.577   2.059   8.676 -0.5905 -0.5469 -2.2596
  242MOL0     H31902   6.519   2.319   8.555 -1.6540  0.1821 -0.3486
  242MOL0     H31903   6.549   2.173   8.466  3.1315 -4.7784  3.4165
  242MOL0     H31904   6.361   2.050   8.605 -0.9462  0.3416  1.7759
  242MOL0     H31905   6.300   2.184   8.502 -1.5261 -0.5872  1.4034
  242MOL0     H31906   6.190   2.338   8.893 -1.9113  1.1701  1.2729
  242MOL0     H31907   5.986   2.332   8.968 -2.3934  1.1701 -0.8258
  242MOL0     H31908   5.528   1.879   8.755  0.9396  1.5389 -1.3972
  242MOL0     H31909   5.271   1.850   8.793 -0.2859 -1.6900  2.0604
  242MOL0     H31910   5.180   1.818   9.045  1.7578  0.8333 -0.8562
  242MOL0     H31911   5.077   1.834   8.896  1.2663 -0.8612  0.1394
  242MOL0     H31912   4.985   1.910   9.176  0.6195 -0.5779 -0.3628
  242MOL0     H31913   4.970   1.755   9.095  2.9990  0.5198  0.4584
  242MOL0     H31914   4.830   1.836   8.911 -3.3457 -1.6588  1.0794
  242MOL0     H31915   4.847   2.000   8.970  1.8105  0.0905 -0.9057
  242MOL0     H31916   4.726   1.771   9.139 -0.3521 -0.1561 -0.4739
  242MOL0     H31917   4.680   1.945   9.146 -1.7412  0.8581 -2.0725
  242MOL0     H31918   4.511   1.798   9.054  1.8313 -1.5428  1.4345
  242MOL0     H31919   4.607   1.760   8.917  1.6996  0.2856  0.9183
  242MOL0     H31920   4.607   1.986   8.836  0.4978  0.6017 -0.0929
  242MOL0     H31921   4.535   2.047   8.983 -0.1162 -0.0592  0.2899
  242MOL0     H31922   4.411   1.884   8.766  1.4954 -1.4358  1.1399
  242MOL0     H31923   4.330   1.887   8.915 -0.3433 -0.4206 -0.7144
  242MOL0     H31924   4.289   2.093   8.756 -1.3260 -1.0204  1.6955
  242MOL0     H31925   4.450   2.151   8.798  0.3398  0.7255  2.3253
  242MOL0     H31926   5.291   2.225   9.016  1.3323  1.1922 -1.9880
  242MOL0     H31927   5.518   2.249   8.968  2.8775 -1.0437 -0.2813
  242MOL0     H31928   5.901   2.002   8.681  1.4520  0.5421 -3.7272
  242MOL0     H31929   6.134   2.035   8.604  0.7423 -1.6498  0.6572
  242MOL0     H31930   8.062   2.801   8.752 -0.0167  0.1205 -1.1140
  242MOL0     H31931   8.287   2.724   8.685  2.2603 -1.5530  0.5374
  242MOL0     H31932   8.493   2.267   8.511 -1.3344  0.8227 -0.4486
  242MOL0     H31933   8.670   2.142   8.450  0.4457 -2.4468  3.4608
  242MOL0     H31934   8.879   2.086   8.357  1.2980  1.6438  0.1491
  242MOL0     H31935   8.872   2.013   8.520  2.1755 -0.1191  3.0842
  242MOL0     H31936   9.111   2.079   8.362 -0.2204  0.0065 -0.5422
  242MOL0     H31937   9.113   2.037   8.533  2.1138 -3.5330  0.1642
  242MOL0     H31938   9.034   1.840   8.310 -0.0567 -0.1186  0.2577
  242MOL0     H31939   8.966   1.819   8.467 -0.9828  1.0199 -0.2682
  242MOL0     H31940   9.160   1.800   8.585 -1.3173  0.3677  0.6982
  242MOL0     H31941   9.161   1.691   8.446  0.1388  0.3991  0.1436
  242MOL0     H31942   9.464   1.985   8.325 -0.0479 -0.0148 -3.0111
  242MOL0     H31943   8.930   2.426   8.641  0.7831 -2.2704 -2.3960
  242MOL0     H31944   8.749   2.563   8.709  3.1428 -0.1997 -0.6445
  243MOL0     O31945   2.837   1.925   1.925  0.1022  0.1432  0.5635
  243MOL0     C31946   2.877   1.878   1.816  0.0986  0.4918  0.3830
  243MOL0     O31947   2.805   1.815   1.717  0.4457  0.5577  0.8280
  243MOL0     C31948   2.671   1.794   1.736 -0.0392  0.5889 -0.6729
  243MOL0     C31949   2.619   1.679   1.687  0.3001 -1.1145 -0.5555
  243MOL0     C31950   2.478   1.662   1.686 -0.4248 -0.0063 -0.4398
  243MOL0     C31951   2.390   1.751   1.754  0.4219 -1.8261 -0.3655
  243MOL0     O31952   2.256   1.734   1.761 -0.1122  0.3370  0.0543
  243MOL0     C31953   2.198   1.609   1.714 -0.6165 -0.4299  0.2645
  243MOL0     C31954   2.074   1.576   1.803 -0.6319 -0.8117 -0.3031
  243MOL0     C31955   2.109   1.475   1.921  0.8111  0.0168 -0.6533
  243MOL0     C31956   2.146   1.330   1.879 -0.1706  0.5180 -0.6771
  243MOL0     C31957   2.119   1.222   1.986  0.2974 -0.0957  0.3494
  243MOL0     C31958   2.082   1.089   1.921  0.3404  0.0477  0.3757
  243MOL0     C31959   1.967   1.019   1.981  1.2113  0.7792 -0.0484
  243MOL0     C31960   1.830   1.093   1.967 -0.0686  0.3270  0.2525
  243MOL0     N31961   1.711   1.006   1.986  0.0357  0.8173  0.6643
  243MOL0     C31962   1.672   0.922   2.086  1.0058  0.2270  0.6988
  243MOL0     C31963   1.562   0.858   2.052  0.2654 -0.2554  0.1487
  243MOL0     C31964   1.490   0.761   2.146 -0.2068 -0.2725  0.2407
  243MOL0     C31965   1.359   0.821   2.176 -0.1470 -0.3487  0.1684
  243MOL0     C31966   1.285   0.710   2.259 -0.9202 -0.8249  1.3098
  243MOL0     C31967   1.150   0.757   2.310 -0.0318  0.2166 -0.3916
  243MOL0     O31968   1.069   0.639   2.305 -0.3112  0.3416 -0.6780
  243MOL0     C31969   0.955   0.625   2.384 -0.1756  1.0058 -0.3474
  243MOL0     C31970   0.888   0.729   2.456  0.1642  0.0107 -0.0363
  243MOL0     C31971   0.762   0.707   2.521 -0.0297 -0.1612 -0.3504
  243MOL0     C31972   0.692   0.589   2.516 -1.2899 -0.6643 -0.2457
  243MOL0     C31973   0.545   0.572   2.564  1.4009 -0.3203  0.5332
  243MOL0     O31974   0.468   0.459   2.547 -1.2080 -0.5346  0.4033
  243MOL0     C31975   0.346   0.459   2.601  0.2697  0.6598 -0.5638
  243MOL0     C31976   0.315   0.387   2.719 -0.5516 -1.0989  0.0408
  243MOL0     C31977   0.190   0.396   2.765  0.4985  0.4984 -0.4093
  243MOL0     C31978   0.082   0.450   2.696 -0.5937 -0.0853  0.3430
  243MOL0     O31979  -0.033   0.447   2.763  0.0141 -0.3885 -0.1730
  243MOL0     C31980  -0.130   0.542   2.724  0.1377  0.2380 -0.5171
  243MOL0     C31981  -0.265   0.479   2.774 -0.4874  0.1711 -0.6023
  243MOL0     C31982  -0.344   0.423   2.659 -0.0611  0.5897  0.0039
  243MOL0     C31983  -0.461   0.331   2.694 -0.3676  0.2350  0.0367
  243MOL0     C31984  -0.586   0.345   2.616 -0.1231 -0.2695  0.3409
  243MOL0     C31985  -0.567   0.379   2.474 -0.0071  0.5420  0.0309
  243MOL0     C31986  -0.709   0.366   2.426 -0.2047 -0.6339 -1.1758
  243MOL0     C31987  -0.701   0.436   2.293  0.4735  0.3027  0.2605
  243MOL0    Cl31988  -0.708   0.617   2.303 -0.0625  0.7936  0.0618
  243MOL0     C31989   0.113   0.522   2.580 -0.2247 -0.0601 -0.0591
  243MOL0     C31990   0.241   0.530   2.531 -0.1847  0.7582 -0.4491
  243MOL0     O31991   0.510   0.665   2.632  0.2090 -0.6278  0.0945
  243MOL0     C31992   0.769   0.481   2.461  0.1611 -0.1336 -0.5013
  243MOL0     C31993   0.885   0.506   2.395 -0.4725  0.6171 -0.3398
  243MOL0     N31994   1.525   0.916   1.933  0.6584 -0.0062  0.6435
  243MOL0     N31995   1.620   0.993   1.886  0.2865  0.3733  0.3079
  243MOL0     C31996   2.445   1.867   1.807 -0.7122  0.1627 -0.1740
  243MOL0     C31997   2.583   1.890   1.806 -0.1926 -0.0988  0.7618
  243MOL0     C31998   3.018   1.907   1.785  0.1252 -0.0426  0.1891
  243MOL0     C31999   3.099   1.981   1.879 -0.9669  0.1970  0.0347
  243MOL0     C32000   3.238   1.976   1.872  0.3210  0.0853  0.4052
  243MOL0     C32001   3.292   1.917   1.759 -1.2914  1.2617  0.6288
  243MOL0     O32002   3.423   1.917   1.746 -0.4956 -0.2765  0.8189
  243MOL0     C32003   3.487   2.040   1.705  0.9134  0.0876  0.6570
  243MOL0     C32004   3.625   2.062   1.764  0.9786  0.9004 -0.3001
  243MOL0     C32005   3.720   1.950   1.726 -0.2886  1.3594 -0.1959
  243MOL0     C32006   3.862   1.975   1.788 -0.2225 -0.1404 -0.5482
  243MOL0     C32007   3.917   2.111   1.747  0.0284  0.6782 -2.1613
  243MOL0     C32008   3.952   2.225   1.717 -0.2256 -0.6099 -0.1233
  243MOL0     C32009   3.220   1.853   1.660 -0.6281  0.0808  0.0221
  243MOL0     C32010   3.084   1.852   1.678 -0.1103  0.2516 -0.2786
  243MOL0     H32011   2.665   1.595   1.636  3.2738 -0.3855  0.7148
  243MOL0     H32012   2.431   1.573   1.645 -0.8397  0.5623 -1.2118
  243MOL0     H32013   2.262   1.521   1.731  0.1659  0.0863  0.0043
  243MOL0     H32014   2.162   1.602   1.611 -3.6914 -1.6256  1.3103
  243MOL0     H32015   2.008   1.535   1.726 -3.1544  1.3440  0.5476
  243MOL0     H32016   2.027   1.668   1.837 -0.4063 -0.9571  0.4247
  243MOL0     H32017   2.026   1.480   1.992  2.5773 -2.1794  1.6791
  243MOL0     H32018   2.185   1.507   1.992  2.6831 -1.4981 -1.8652
  243MOL0     H32019   2.091   1.327   1.784  0.6524 -0.3326 -1.1466
  243MOL0     H32020   2.252   1.319   1.852  0.1184  0.6106  0.3771
  243MOL0     H32021   2.042   1.252   2.056  0.0812 -0.3268  0.2130
  243MOL0     H32022   2.212   1.205   2.041  1.8000  1.9929 -1.3364
  243MOL0     H32023   2.166   1.021   1.936  0.1727 -1.2397 -3.3935
  243MOL0     H32024   2.068   1.097   1.812 -0.2080 -2.5175  0.1842
  243MOL0     H32025   1.958   0.917   1.944  0.6101 -0.0751  2.2350
  243MOL0     H32026   1.989   1.011   2.088 -1.3041 -1.1369  0.4348
  243MOL0     H32027   1.837   1.123   1.862 -2.3631  1.5818  0.3939
  243MOL0     H32028   1.814   1.179   2.033  0.1204  0.5940 -0.0504
  243MOL0     H32029   1.720   0.896   2.180  1.4366 -3.6781 -0.4083
  243MOL0     H32030   1.546   0.742   2.238 -0.4011 -1.4640  0.1336
  243MOL0     H32031   1.486   0.667   2.090 -0.6835 -0.5885  0.7968
  243MOL0     H32032   1.308   0.840   2.082  2.3678 -1.4676 -1.5270
  243MOL0     H32033   1.358   0.925   2.213  0.0537  1.0122 -3.3240
  243MOL0     H32034   1.262   0.634   2.184  1.5668  1.0256 -1.5340
  243MOL0     H32035   1.338   0.665   2.344  0.3712 -1.0600  0.3973
  243MOL0     H32036   1.111   0.825   2.233 -0.7496  0.7216  0.3976
  243MOL0     H32037   1.146   0.808   2.407 -3.5146 -0.2285 -0.1657
  243MOL0     H32038   0.928   0.830   2.453  4.0957 -1.4036 -0.2886
  243MOL0     H32039   0.726   0.793   2.576  0.4472  0.8938 -1.6169
  243MOL0     H32040   0.385   0.328   2.778 -2.2394 -2.0376  1.1844
  243MOL0     H32041   0.166   0.356   2.863 -0.8455 -1.9164 -1.6373
  243MOL0     H32042  -0.145   0.557   2.617  0.6708  1.4269 -0.4467
  243MOL0     H32043  -0.112   0.642   2.765 -1.9176  2.1595 -3.9045
  243MOL0     H32044  -0.331   0.555   2.818  0.0194  0.3570 -0.1556
  243MOL0     H32045  -0.254   0.398   2.846  0.7209  1.3459  0.5787
  243MOL0     H32046  -0.277   0.361   2.599 -1.6194  0.1214 -1.3168
  243MOL0     H32047  -0.394   0.510   2.614 -1.8117  1.3989  3.2165
  243MOL0     H32048  -0.416   0.232   2.677  3.4280  0.5979  5.3730
  243MOL0     H32049  -0.476   0.329   2.802 -0.7007 -1.7701 -0.0050
  243MOL0     H32050  -0.648   0.423   2.659  1.0987 -0.8930  3.5257
  243MOL0     H32051  -0.642   0.251   2.619  0.1497 -0.5328 -1.3374
  243MOL0     H32052  -0.504   0.308   2.420  2.1695  0.5835  2.3452
  243MOL0     H32053  -0.535   0.483   2.459  0.1932  1.0085  3.0598
  243MOL0     H32054  -0.745   0.264   2.411 -0.9453 -0.1844 -2.7240
  243MOL0     H32055  -0.777   0.434   2.477  2.0480  0.7248  0.1495
  243MOL0     H32056  -0.795   0.408   2.244 -0.4232  1.7537  1.0968
  243MOL0     H32057  -0.620   0.400   2.229 -0.9609 -1.8820 -0.4397
  243MOL0     H32058   0.033   0.571   2.524 -0.5242  0.7431  1.0417
  243MOL0     H32059   0.259   0.575   2.434 -2.9370 -2.8702 -2.8915
  243MOL0     H32060   0.735   0.380   2.440  0.0526 -0.2277  0.1311
  243MOL0     H32061   0.944   0.424   2.355 -2.0618 -1.1793  0.8087
  243MOL0     H32062   2.370   1.935   1.845 -3.2096 -2.7166  0.4399
  243MOL0     H32063   2.631   1.977   1.849  1.8927 -1.2776  0.9878
  243MOL0     H32064   3.062   2.022   1.972 -2.3412 -0.8052 -0.0453
  243MOL0     H32065   3.298   2.023   1.949  1.7565  0.5139 -0.9013
  243MOL0     H32066   3.426   2.129   1.723  0.1137  0.3495 -2.6600
  243MOL0     H32067   3.495   2.040   1.596 -0.1415  2.8263  0.4951
  243MOL0     H32068   3.658   2.160   1.727 -0.8269  2.2283  1.3448
  243MOL0     H32069   3.618   2.054   1.873  2.3295 -2.7746 -0.3546
  243MOL0     H32070   3.725   1.939   1.617 -0.7994 -0.1344 -0.0891
  243MOL0     H32071   3.676   1.860   1.770  0.9319  2.2412  3.1605
  243MOL0     H32072   3.852   1.975   1.897 -3.0471 -1.7552 -0.7096
  243MOL0     H32073   3.932   1.892   1.772 -0.6599 -1.1411  2.0497
  243MOL0     H32074   3.975   2.324   1.685 -1.3280  0.0684  1.0715
  243MOL0     H32075   3.254   1.803   1.570 -0.6229 -1.0799  0.6501
  243MOL0     H32076   3.027   1.802   1.600  2.5004 -0.7687 -1.6951
  244MOL0     O32077   1.639  11.001   3.664  0.1501  0.7255  0.4859
  244MOL0     C32078   1.670  10.944   3.765 -1.3080 -0.5082 -0.3155
  244MOL0     O32079   1.588  10.927   3.872  0.8688  0.0647 -0.4108
  244MOL0     C32080   1.476  11.005   3.887  0.5213  0.0918 -0.2459
  244MOL0     C32081   1.482  11.147   3.855  0.1244  0.6213  0.3022
  244MOL0     C32082   1.374  11.223   3.900  0.3134  0.2781  0.1516
  244MOL0     C32083   1.257  11.170   3.957  0.5158 -0.3097  0.6753
  244MOL0     O32084   1.150  11.259   3.974 -0.4308  0.1976  0.5129
  244MOL0     C32085   1.023  11.207   4.028 -0.3114  0.4071 -0.2518
  244MOL0     C32086   0.932  11.324   4.085  0.0344 -0.5539 -0.1281
  244MOL0     C32087   0.894  11.436   3.982 -0.1752  0.6291 -0.6750
  244MOL0     C32088   0.770  11.506   4.035 -0.1059  0.0382 -0.7940
  244MOL0     C32089   0.739  11.612   3.939 -0.1559  0.2755 -0.3660
  244MOL0     C32090   0.606  11.689   3.966  0.3743  0.4793 -0.4349
  244MOL0     C32091   0.555  11.789   3.855 -0.7661  0.4788  0.1999
  244MOL0     C32092   0.489  11.912   3.906 -0.7868  0.1545 -0.5591
  244MOL0     N32093   0.366  11.940   3.832  0.5427 -0.2085  0.5931
  244MOL0     C32094   0.343  11.948   3.698  0.0540  1.2468  0.4064
  244MOL0     C32095   0.219  11.992   3.684 -0.5013 -0.1373 -1.1240
  244MOL0     C32096   0.141  12.022   3.568 -0.0369  0.1580 -0.0806
  244MOL0     C32097   0.074  11.883   3.537  0.3619  0.2296  0.6010
  244MOL0     C32098  -0.031  11.836   3.640  0.0444 -0.4978 -0.2097
  244MOL0     C32099  -0.063  11.685   3.604  0.9043 -0.4962  0.0825
  244MOL0     O32100  -0.125  11.667   3.470  0.2058  0.1351 -0.1778
  244MOL0     C32101  -0.260  11.703   3.467  1.5457 -0.0527 -0.3916
  244MOL0     C32102  -0.292  11.826   3.405  0.1403  0.2104  0.6048
  244MOL0     C32103  -0.428  11.864   3.399 -0.3282 -0.6331  0.2339
  244MOL0     C32104  -0.535  11.788   3.452 -0.4321  0.9133  0.0700
  244MOL0     C32105  -0.669  11.844   3.453 -0.4929  0.4370  0.2845
  244MOL0     O32106  -0.682  11.960   3.372 -0.1868  0.5740 -0.1503
  244MOL0     C32107  -0.782  12.050   3.388  0.8398 -0.1032 -1.3230
  244MOL0     C32108  -0.819  12.103   3.510 -0.6273 -0.3899 -0.6359
  244MOL0     C32109  -0.925  12.190   3.508 -0.4679  0.1477  1.1656
  244MOL0     C32110  -0.992  12.235   3.398  0.6740  0.8396 -0.2146
  244MOL0     O32111  -1.092  12.332   3.415  0.5014 -0.5847 -0.4750
  244MOL0     C32112  -1.209  12.319   3.337 -0.3337  0.7122 -0.4102
  244MOL0     C32113  -1.293  12.446   3.337 -0.0604  0.6183 -0.5496
  244MOL0     C32114  -1.393  12.445   3.459  0.4114 -0.0197  0.7417
  244MOL0     C32115  -1.523  12.352   3.427  1.0547 -0.3457 -0.0985
  244MOL0     C32116  -1.652  12.407   3.499 -0.4256 -0.8488  0.6857
  244MOL0     C32117  -1.779  12.393   3.419  0.0538  0.3941 -0.5935
  244MOL0     C32118  -1.909  12.431   3.501 -0.6474  0.2748 -0.1065
  244MOL0     C32119  -2.044  12.411   3.442 -1.1735  1.0339 -0.1717
  244MOL0    Cl32120  -2.060  12.245   3.388 -0.1196  0.0294  0.1020
  244MOL0     C32121  -0.948  12.186   3.269 -0.5319 -0.0750 -0.2913
  244MOL0     C32122  -0.849  12.087   3.268  0.7139 -0.7157 -0.7513
  244MOL0     O32123  -0.748  11.797   3.528 -1.0294  0.0825 -0.2632
  244MOL0     C32124  -0.499  11.655   3.504 -0.5601 -0.0933  0.5867
  244MOL0     C32125  -0.358  11.617   3.510  0.3913  1.0948 -0.5172
  244MOL0     N32126   0.168  12.019   3.810  1.1474 -0.9566 -0.3680
  244MOL0     N32127   0.256  11.990   3.895 -0.5269 -0.4137 -0.3588
  244MOL0     C32128   1.260  11.038   3.988 -0.3765 -0.8072 -0.3046
  244MOL0     C32129   1.373  10.958   3.959 -0.2276  0.3801 -0.8984
  244MOL0     C32130   1.799  10.870   3.786  0.5750 -0.0377 -1.2382
  244MOL0     C32131   1.830  10.805   3.905 -0.2183  1.0249 -0.1648
  244MOL0     C32132   1.954  10.757   3.933 -0.6935  0.6925 -0.4017
  244MOL0     C32133   2.047  10.754   3.835  0.2029  0.3033  2.0580
  244MOL0     O32134   2.166  10.690   3.866 -0.7203 -0.2513  0.6470
  244MOL0     C32135   2.277  10.698   3.781  0.2748  0.1831  0.7324
  244MOL0     C32136   2.335  10.830   3.759  0.0573 -0.8312  0.7160
  244MOL0     C32137   2.466  10.815   3.672 -0.5496 -0.1817  0.7881
  244MOL0     C32138   2.599  10.795   3.754 -0.3915 -0.8030  0.2131
  244MOL0     C32139   2.714  10.832   3.663 -0.0143  0.7222 -0.9744
  244MOL0     C32140   2.810  10.869   3.592  0.3775  0.2049  0.4894
  244MOL0     C32141   2.009  10.792   3.702  0.9005  0.1526  0.2485
  244MOL0     C32142   1.886  10.859   3.683 -0.0028  0.2163  0.7154
  244MOL0     H32143   1.578  11.184   3.822  0.1798 -1.1328 -1.6830
  244MOL0     H32144   1.374  11.330   3.881  2.7755  0.2260 -0.4880
  244MOL0     H32145   1.045  11.139   4.110  0.3286 -0.5548 -1.1850
  244MOL0     H32146   0.971  11.146   3.954  1.5897 -0.2987 -1.0907
  244MOL0     H32147   0.977  11.368   4.174 -0.5345 -0.2563  0.0195
  244MOL0     H32148   0.844  11.270   4.122 -0.3294 -0.3943 -0.7342
  244MOL0     H32149   0.881  11.401   3.880 -2.4761  1.9654 -0.9036
  244MOL0     H32150   0.977  11.508   3.982 -2.2821  3.2191 -1.0308
  244MOL0     H32151   0.689  11.433   4.048 -0.2101  0.6722  3.4276
  244MOL0     H32152   0.787  11.546   4.135 -2.1419 -0.9271  0.0163
  244MOL0     H32153   0.726  11.563   3.842  0.6656 -0.4385 -0.1227
  244MOL0     H32154   0.822  11.681   3.947  1.6274 -1.9502  1.8369
  244MOL0     H32155   0.620  11.748   4.057  1.1599  0.8085 -0.7624
  244MOL0     H32156   0.518  11.626   3.983 -0.9487  1.6800 -2.4055
  244MOL0     H32157   0.633  11.816   3.783 -3.7145  1.6681 -2.7974
  244MOL0     H32158   0.484  11.728   3.798  1.5289 -2.5391  0.3133
  244MOL0     H32159   0.554  11.997   3.882  0.1248 -0.7010 -1.1633
  244MOL0     H32160   0.472  11.904   4.014  0.7114  1.2107 -0.2196
  244MOL0     H32161   0.404  11.926   3.610 -0.1962  0.1051  0.4949
  244MOL0     H32162   0.213  12.055   3.492  0.9745  0.5709  1.0249
  244MOL0     H32163   0.068  12.100   3.588  0.5767  0.6474  0.2994
  244MOL0     H32164   0.158  11.813   3.534  1.3758  1.4218 -1.0913
  244MOL0     H32165   0.024  11.882   3.440 -2.3006  0.0322  1.9094
  244MOL0     H32166   0.024  11.833   3.735  4.5731  1.9603 -2.4247
  244MOL0     H32167  -0.120  11.899   3.643  1.0618  0.9683  2.0923
  244MOL0     H32168  -0.131  11.653   3.683  0.7053 -0.5438 -0.1066
  244MOL0     H32169   0.024  11.619   3.611  1.0141 -0.3277  0.3503
  244MOL0     H32170  -0.217  11.888   3.355 -4.2683  3.7622 -2.4686
  244MOL0     H32171  -0.446  11.961   3.354  0.7455  0.5550  2.2190
  244MOL0     H32172  -0.772  12.080   3.605  1.0958  0.0490 -1.3501
  244MOL0     H32173  -0.954  12.220   3.608 -0.6677 -0.0649  1.1736
  244MOL0     H32174  -1.283  12.252   3.381 -3.8131  5.0452  1.1830
  244MOL0     H32175  -1.188  12.292   3.233  1.6478 -2.6213  0.6882
  244MOL0     H32176  -1.341  12.471   3.242 -0.6341 -1.1055 -0.7436
  244MOL0     H32177  -1.216  12.523   3.348 -0.2256  0.6577  0.3836
  244MOL0     H32178  -1.427  12.547   3.480  0.4646 -0.1261  1.3917
  244MOL0     H32179  -1.340  12.403   3.546 -1.4741 -0.8360  1.5539
  244MOL0     H32180  -1.545  12.352   3.320 -1.1010 -1.6834  0.2870
  244MOL0     H32181  -1.507  12.251   3.466 -0.2717  0.6034  3.2385
  244MOL0     H32182  -1.640  12.512   3.528 -1.2107  0.1549 -2.3038
  244MOL0     H32183  -1.661  12.339   3.585  2.5196 -3.5636 -0.9306
  244MOL0     H32184  -1.795  12.291   3.383  0.9523  0.7058 -1.9084
  244MOL0     H32185  -1.766  12.459   3.333 -0.0893 -0.9231 -1.6522
  244MOL0     H32186  -1.919  12.378   3.596 -2.5708 -1.1304 -1.0013
  244MOL0     H32187  -1.901  12.534   3.536 -1.9668 -0.8218  4.0320
  244MOL0     H32188  -2.039  12.474   3.353  1.7265 -0.1539 -0.9513
  244MOL0     H32189  -2.119  12.448   3.513 -0.3775  1.1047  0.6463
  244MOL0     H32190  -1.004  12.213   3.180  0.0532 -0.7374 -0.8756
  244MOL0     H32191  -0.819  12.037   3.176 -1.4737  0.8275 -2.4242
  244MOL0     H32192  -0.578  11.599   3.552  1.2578 -0.7837  2.9190
  244MOL0     H32193  -0.321  11.521   3.546 -1.7443 -0.2142 -1.6201
  244MOL0     H32194   1.175  10.984   4.029 -0.3335 -2.2539 -2.0353
  244MOL0     H32195   1.361  10.854   3.988 -0.3486  1.2745  2.7729
  244MOL0     H32196   1.751  10.810   3.979 -1.1195  3.6485 -1.1886
  244MOL0     H32197   1.984  10.729   4.033  0.9573  0.2489 -0.9925
  244MOL0     H32198   2.253  10.652   3.685  4.9890  0.7857 -0.9870
  244MOL0     H32199   2.360  10.642   3.823  0.4876 -1.8678 -2.1668
  244MOL0     H32200   2.258  10.879   3.700  1.3596  0.5880  0.1332
  244MOL0     H32201   2.355  10.892   3.847 -3.2928 -0.3809  1.2658
  244MOL0     H32202   2.465  10.900   3.604 -2.4569 -1.5633 -1.0353
  244MOL0     H32203   2.457  10.728   3.606 -0.0823 -0.8183  1.5392
  244MOL0     H32204   2.597  10.853   3.846  2.1082 -2.2302  1.2595
  244MOL0     H32205   2.621  10.693   3.789  2.9414 -0.5612 -0.7831
  244MOL0     H32206   2.896  10.896   3.534  1.5381 -0.1896  1.9420
  244MOL0     H32207   2.073  10.768   3.618  0.5977  1.3534 -0.3425
  244MOL0     H32208   1.842  10.891   3.589 -1.0653 -0.2431  1.0308
  245MOL0     O32209   4.938  11.196   4.939  0.0405 -0.0132 -0.1888
  245MOL0     C32210   5.012  11.232   4.849  0.0886 -1.2378 -0.4304
  245MOL0     O32211   5.026  11.365   4.818 -0.2233 -0.3223 -0.3856
  245MOL0     C32212   4.919  11.450   4.850 -0.6062 -0.0546  0.6442
  245MOL0     C32213   4.951  11.571   4.915  0.2379 -0.4607 -0.7268
  245MOL0     C32214   4.851  11.665   4.943 -0.1639 -0.1505  0.3163
  245MOL0     C32215   4.717  11.645   4.884 -0.4009 -0.6288 -0.0307
  245MOL0     O32216   4.615  11.727   4.909 -0.6476 -1.4887 -0.1806
  245MOL0     C32217   4.549  11.764   4.792  0.4344  0.1856  0.2773
  245MOL0     C32218   4.464  11.889   4.803 -0.5502 -0.1521  0.0860
  245MOL0     C32219   4.327  11.885   4.725 -0.1860  0.6605 -0.1923
  245MOL0     C32220   4.244  12.003   4.778  0.2267 -0.0953  0.4646
  245MOL0     C32221   4.096  12.002   4.730 -0.2355 -0.0001  0.0457
  245MOL0     C32222   4.086  12.008   4.581  0.4033 -0.0920  0.3779
  245MOL0     C32223   3.935  12.016   4.550 -0.2076  0.0295 -0.0077
  245MOL0     C32224   3.875  12.149   4.569 -0.1493 -0.1367  0.9231
  245MOL0     N32225   3.939  12.244   4.479 -0.1192 -0.6074  0.5350
  245MOL0     C32226   3.903  12.275   4.346 -0.6790  0.7370 -0.2193
  245MOL0     C32227   3.999  12.357   4.293  1.1219  0.2079 -0.0647
  245MOL0     C32228   4.022  12.382   4.146 -0.1117 -0.1750 -0.0156
  245MOL0     C32229   3.979  12.526   4.107  0.7265  0.6842 -0.7136
  245MOL0     C32230   3.977  12.551   3.960 -0.3460 -0.6670  0.5180
  245MOL0     C32231   3.953  12.701   3.923  0.2516 -0.3231  0.7324
  245MOL0     O32232   4.062  12.783   3.977  0.7554 -1.2528 -0.2730
  245MOL0     C32233   4.126  12.860   3.886 -0.6931 -0.1276  0.8762
  245MOL0     C32234   4.088  12.912   3.759 -0.0094  0.1722  1.3170
  245MOL0     C32235   4.189  12.956   3.675  0.8671  0.3666 -0.2880
  245MOL0     C32236   4.326  12.952   3.705 -0.7399  1.0245 -0.5786
  245MOL0     C32237   4.426  12.995   3.606  0.6482 -0.2394 -0.3386
  245MOL0     O32238   4.554  12.989   3.639  0.4366 -0.4361 -0.4420
  245MOL0     C32239   4.637  13.036   3.542 -0.1757  0.3373  0.3044
  245MOL0     C32240   4.663  12.956   3.435 -0.2464  0.4260  0.2937
  245MOL0     C32241   4.754  12.990   3.339 -0.0812 -0.0526  0.4699
  245MOL0     C32242   4.821  13.114   3.347  0.3807  0.0166  1.2055
  245MOL0     O32243   4.923  13.153   3.256 -0.5260  0.2404  0.1092
  245MOL0     C32244   5.055  13.117   3.297 -0.3358 -0.8015  0.8073
  245MOL0     C32245   5.147  13.222   3.231  0.3966  0.4284 -0.1997
  245MOL0     C32246   5.302  13.195   3.228  0.5992  0.1679  0.3695
  245MOL0     C32247   5.377  13.191   3.364 -0.3933  0.2147 -0.1261
  245MOL0     C32248   5.527  13.179   3.337 -0.4603 -0.9154 -0.3475
  245MOL0     C32249   5.599  13.309   3.279  0.4011  0.6844 -0.1817
  245MOL0     C32250   5.744  13.281   3.254  0.0694 -0.1715  0.4297
  245MOL0     C32251   5.773  13.190   3.133  0.4595 -0.4715  0.5847
  245MOL0    Cl32252   5.682  13.275   2.990  0.1217 -0.3471 -0.3250
  245MOL0     C32253   4.801  13.189   3.459 -0.0144 -0.7762  0.4927
  245MOL0     C32254   4.708  13.153   3.552 -0.6616 -0.2118  0.5872
  245MOL0     O32255   4.379  13.043   3.502 -0.0872  0.3539 -0.5507
  245MOL0     C32256   4.364  12.908   3.833  0.0748 -0.2910  0.2858
  245MOL0     C32257   4.264  12.869   3.919 -0.5665 -0.0621  0.7395
  245MOL0     N32258   4.090  12.374   4.398  0.1830 -0.4046 -0.3568
  245MOL0     N32259   4.054  12.321   4.503  0.3304 -0.1448 -0.8019
  245MOL0     C32260   4.688  11.523   4.824  0.1067  0.5376  1.1152
  245MOL0     C32261   4.790  11.429   4.802  0.0986  0.8900 -0.6072
  245MOL0     C32262   5.112  11.142   4.784  0.3964  0.3579 -0.2318
  245MOL0     C32263   5.200  11.188   4.692 -0.7127 -0.5419 -0.0695
  245MOL0     C32264   5.292  11.106   4.632  0.1403  0.3779  1.1773
  245MOL0     C32265   5.287  10.962   4.664 -0.1763 -0.8078  0.7783
  245MOL0     O32266   5.352  10.876   4.579  0.3678 -0.6052 -0.2875
  245MOL0     C32267   5.273  10.781   4.500 -0.6020  0.0553  0.8167
  245MOL0     C32268   5.342  10.763   4.365 -0.4716  0.5249 -0.3905
  245MOL0     C32269   5.494  10.727   4.382 -1.0406  0.2976  0.4753
  245MOL0     C32270   5.550  10.678   4.242  0.9159 -0.3660 -0.0736
  245MOL0     C32271   5.693  10.698   4.245  0.9894  0.6162 -0.4515
  245MOL0     C32272   5.814  10.720   4.247  0.8794 -0.2514  0.4895
  245MOL0     C32273   5.201  10.916   4.760  0.0653  0.4927 -0.4473
  245MOL0     C32274   5.111  11.002   4.827 -0.7699 -0.6732 -0.9067
  245MOL0     H32275   5.055  11.600   4.919 -0.2719  1.4521 -0.2587
  245MOL0     H32276   4.891  11.759   4.982 -0.2036 -0.7286  1.8150
  245MOL0     H32277   4.487  11.678   4.766  0.2234  0.6650 -0.8894
  245MOL0     H32278   4.619  11.777   4.708  0.6827 -2.2287  0.0491
  245MOL0     H32279   4.512  11.981   4.766 -0.7419  1.1934  2.8927
  245MOL0     H32280   4.442  11.904   4.910 -0.8225  1.8598 -0.1956
  245MOL0     H32281   4.285  11.785   4.735 -1.8206  0.9634 -2.9735
  245MOL0     H32282   4.348  11.883   4.618 -2.3717 -1.4972 -0.6376
  245MOL0     H32283   4.246  12.009   4.887  0.8756 -0.9267  0.5100
  245MOL0     H32284   4.297  12.092   4.745 -1.2170  0.6097 -0.0292
  245MOL0     H32285   4.046  12.085   4.780 -2.2345 -0.6574 -0.7694
  245MOL0     H32286   4.056  11.905   4.760 -2.6291 -0.5874 -4.2765
  245MOL0     H32287   4.120  11.911   4.544  1.8528 -0.0097  1.4361
  245MOL0     H32288   4.137  12.083   4.519  0.1215 -0.2347 -0.0351
  245MOL0     H32289   3.918  11.992   4.445  0.4183  0.0725 -0.1232
  245MOL0     H32290   3.884  11.943   4.615  0.1631 -1.0485 -0.8935
  245MOL0     H32291   3.902  12.185   4.669  3.7154 -0.4255  0.1507
  245MOL0     H32292   3.767  12.141   4.558 -0.0716 -1.6998  1.0374
  245MOL0     H32293   3.816  12.233   4.298 -0.4056 -0.9075  0.6646
  245MOL0     H32294   3.962  12.319   4.080  1.9437 -1.6035 -0.6027
  245MOL0     H32295   4.125  12.364   4.115  0.5489  4.1059 -0.8910
  245MOL0     H32296   4.055  12.593   4.148  1.8649  0.0686 -1.7676
  245MOL0     H32297   3.877  12.546   4.141 -0.6005 -1.7233 -2.9870
  245MOL0     H32298   4.072  12.518   3.916 -0.1949 -0.0401  0.3698
  245MOL0     H32299   3.892  12.498   3.916  0.5240 -1.3429 -0.3891
  245MOL0     H32300   3.862  12.752   3.957  1.5058  0.7209  2.7639
  245MOL0     H32301   3.947  12.692   3.814 -0.2661  0.1299  0.7188
  245MOL0     H32302   3.986  12.902   3.724  0.5205  0.2006 -0.3343
  245MOL0     H32303   4.157  13.003   3.582  0.1328  1.6185  0.5778
  245MOL0     H32304   4.621  12.856   3.433 -0.1499  0.3880 -0.5435
  245MOL0     H32305   4.778  12.923   3.257 -0.5612 -0.2093  0.4534
  245MOL0     H32306   5.076  13.018   3.254  1.4975  1.6095 -4.7919
  245MOL0     H32307   5.071  13.119   3.405 -3.8583  5.3446  1.6393
  245MOL0     H32308   5.123  13.311   3.290  2.2430 -0.4916  2.1082
  245MOL0     H32309   5.121  13.224   3.125  1.0989 -1.5375 -0.4601
  245MOL0     H32310   5.339  13.281   3.172 -1.6815  1.5023  0.7795
  245MOL0     H32311   5.326  13.106   3.169  2.3521  0.8968 -0.1035
  245MOL0     H32312   5.356  13.281   3.423 -0.6615 -1.5314  2.6050
  245MOL0     H32313   5.352  13.101   3.421  0.2155  0.4276  0.4879
  245MOL0     H32314   5.555  13.107   3.260  0.2389 -0.3358 -0.6589
  245MOL0     H32315   5.569  13.153   3.435  2.0788 -1.7458 -1.5630
  245MOL0     H32316   5.587  13.395   3.345 -0.9503  0.3199  0.0784
  245MOL0     H32317   5.541  13.349   3.195 -1.6200 -1.7581 -0.0913
  245MOL0     H32318   5.797  13.375   3.238  0.7973 -0.7786 -0.9248
  245MOL0     H32319   5.795  13.227   3.334  2.1256 -2.0924 -1.9745
  245MOL0     H32320   5.739  13.087   3.138  1.4979 -0.8316  0.3667
  245MOL0     H32321   5.881  13.182   3.115  0.7233 -1.4289  2.4099
  245MOL0     H32322   4.859  13.280   3.460  3.1958 -2.6448 -0.2082
  245MOL0     H32323   4.708  13.215   3.641  2.8975  1.7863 -0.5733
  245MOL0     H32324   4.469  12.916   3.859 -0.3696  1.3810  1.7371
  245MOL0     H32325   4.287  12.835   4.019  0.4833  0.9160  0.8504
  245MOL0     H32326   4.591  11.501   4.781  1.3040 -1.8150 -0.6193
  245MOL0     H32327   4.787  11.337   4.744 -0.2709  1.1169 -0.9460
  245MOL0     H32328   5.209  11.293   4.669  0.4127 -0.6454 -0.1383
  245MOL0     H32329   5.366  11.133   4.557 -3.4319  0.8881 -2.4738
  245MOL0     H32330   5.171  10.821   4.487 -0.7531 -0.4728  0.3467
  245MOL0     H32331   5.263  10.681   4.543  4.1311 -0.9145  0.1167
  245MOL0     H32332   5.293  10.683   4.309 -3.1281 -1.0247  3.7041
  245MOL0     H32333   5.330  10.862   4.321  1.0144  0.6923 -0.4811
  245MOL0     H32334   5.510  10.645   4.452  3.3186  1.0930  0.6800
  245MOL0     H32335   5.555  10.807   4.426  1.9766 -1.9216  0.6559
  245MOL0     H32336   5.530  10.571   4.227 -1.4635  0.3459 -2.8037
  245MOL0     H32337   5.509  10.722   4.151 -0.9306 -0.6791  0.5615
  245MOL0     H32338   5.921  10.721   4.251  1.0583  0.3149 -2.2892
  245MOL0     H32339   5.180  10.812   4.785 -2.0567  1.3860  2.0768
  245MOL0     H32340   5.044  10.959   4.900 -0.7961  1.2206  0.2446
  246MOL0     O32341   1.866   8.668   1.385  1.1634 -0.0522 -0.6569
  246MOL0     C32342   1.904   8.629   1.494  0.5330 -0.7849  0.0595
  246MOL0     O32343   1.834   8.623   1.614 -0.8627 -0.1368 -0.4724
  246MOL0     C32344   1.702   8.651   1.617 -0.0315  0.4125  0.1329
  246MOL0     C32345   1.644   8.774   1.563 -0.0835  0.1357 -0.4612
  246MOL0     C32346   1.500   8.786   1.563  0.3033  0.3862 -0.5409
  246MOL0     C32347   1.423   8.692   1.630 -0.3377 -0.9158 -0.3408
  246MOL0     O32348   1.293   8.724   1.644 -0.1146  0.4009  0.0602
  246MOL0     C32349   1.191   8.623   1.638  0.6662 -0.2493 -0.9403
  246MOL0     C32350   1.125   8.583   1.775  0.3467 -0.4675 -0.3309
  246MOL0     C32351   0.992   8.516   1.764 -0.4166 -0.1562  0.2491
  246MOL0     C32352   0.947   8.421   1.883 -0.4238 -1.0375 -1.1077
  246MOL0     C32353   0.794   8.402   1.887  0.3462 -0.5172  0.2490
  246MOL0     C32354   0.764   8.320   2.014  0.4881 -0.1920  0.3225
  246MOL0     C32355   0.618   8.301   2.033  0.4680  0.1393 -0.8374
  246MOL0     C32356   0.573   8.183   1.950 -0.3879  0.0492 -0.1951
  246MOL0     N32357   0.425   8.171   1.955 -0.2538  0.4879 -0.0565
  246MOL0     C32358   0.349   8.068   1.994  0.1646  0.6893 -0.5150
  246MOL0     C32359   0.223   8.112   1.999  0.0529  0.2907  0.0920
  246MOL0     C32360   0.104   8.029   2.060  0.4245  0.0695 -0.0653
  246MOL0     C32361  -0.011   8.012   1.966 -0.0714  0.0876 -0.1994
  246MOL0     C32362   0.028   7.925   1.852 -0.5009  0.3271 -0.0662
  246MOL0     C32363  -0.104   7.904   1.770  0.5272  0.1509  0.1384
  246MOL0     O32364  -0.193   7.826   1.850 -0.2662 -0.3828  0.2196
  246MOL0     C32365  -0.321   7.835   1.810  2.0403  0.1909 -0.6966
  246MOL0     C32366  -0.410   7.773   1.899  0.0193 -0.6086  0.1971
  246MOL0     C32367  -0.548   7.769   1.884  0.0821  0.8591  0.3533
  246MOL0     C32368  -0.609   7.840   1.775 -0.4237  0.2538  0.0640
  246MOL0     C32369  -0.759   7.825   1.761 -0.3469  0.9620  0.0877
  246MOL0     O32370  -0.824   7.772   1.866  0.1796 -0.1975 -0.1691
  246MOL0     C32371  -0.957   7.720   1.855 -0.4891 -1.0783  1.1155
  246MOL0     C32372  -1.016   7.677   1.737  0.9008 -0.3992 -0.2799
  246MOL0     C32373  -1.135   7.603   1.740  0.5887 -0.5038 -0.1112
  246MOL0     C32374  -1.188   7.573   1.860  0.6501  0.0770  0.2219
  246MOL0     O32375  -1.320   7.536   1.880  0.6394  0.1745 -0.2143
  246MOL0     C32376  -1.420   7.541   1.774  0.1383  0.2245 -0.6283
  246MOL0     C32377  -1.562   7.465   1.813  0.7633 -0.4188 -0.1871
  246MOL0     C32378  -1.674   7.510   1.710 -0.7792 -0.3359  0.7600
  246MOL0     C32379  -1.800   7.469   1.777 -0.0057  0.5804 -0.0125
  246MOL0     C32380  -1.927   7.505   1.703 -0.4536 -0.9377 -0.4108
  246MOL0     C32381  -2.059   7.452   1.757 -0.5251  0.5808 -0.5884
  246MOL0     C32382  -2.164   7.421   1.651 -0.9612  0.7250  0.0834
  246MOL0     C32383  -2.138   7.310   1.547  0.3058  0.3973  0.6806
  246MOL0    Cl32384  -2.296   7.263   1.472 -0.5607  0.0906 -0.1405
  246MOL0     C32385  -1.129   7.601   1.975 -0.5491 -0.2772  1.5839
  246MOL0     C32386  -1.012   7.683   1.971  0.5318  0.0124 -0.0479
  246MOL0     O32387  -0.813   7.881   1.661  0.4607  0.4030  0.1677
  246MOL0     C32388  -0.524   7.901   1.681 -0.3380 -0.0601 -0.3057
  246MOL0     C32389  -0.383   7.894   1.694  0.0700 -0.8702  0.7910
  246MOL0     N32390   0.225   8.239   1.953  0.5121 -0.1127  0.8843
  246MOL0     N32391   0.338   8.270   1.906 -0.8198  0.0132 -0.4245
  246MOL0     C32392   1.485   8.573   1.682 -0.4534  0.8546 -0.1904
  246MOL0     C32393   1.618   8.549   1.665 -1.0557 -0.2240  0.4581
  246MOL0     C32394   2.044   8.589   1.499 -0.2472 -0.1215  0.6704
  246MOL0     C32395   2.137   8.664   1.440 -0.5363 -0.3284  0.4012
  246MOL0     C32396   2.277   8.633   1.462 -0.1570  0.2018  0.0420
  246MOL0     C32397   2.324   8.523   1.540  0.2167 -0.6197  0.2993
  246MOL0     O32398   2.455   8.503   1.580  0.7511 -0.4571  0.1118
  246MOL0     C32399   2.551   8.591   1.527  0.4243 -0.4208  0.4725
  246MOL0     C32400   2.697   8.560   1.570  0.1602  0.6633 -0.6281
  246MOL0     C32401   2.702   8.562   1.723  0.0039 -0.6976  0.1202
  246MOL0     C32402   2.854   8.551   1.760 -0.2157 -0.4962  0.2300
  246MOL0     C32403   2.864   8.538   1.905  1.0816 -0.3386  0.1522
  246MOL0     C32404   2.854   8.503   2.024  0.0708  0.0751  1.4540
  246MOL0     C32405   2.219   8.446   1.594  0.0655  1.1116 -0.5459
  246MOL0     C32406   2.086   8.483   1.577  0.6041 -0.6864 -0.1610
  246MOL0     H32407   1.694   8.862   1.522  0.3647  0.5783  0.9522
  246MOL0     H32408   1.459   8.878   1.524  0.6399  1.6690  1.8956
  246MOL0     H32409   1.216   8.529   1.587 -1.3752 -2.0934  1.2630
  246MOL0     H32410   1.110   8.658   1.574 -0.3406 -1.2625 -0.2606
  246MOL0     H32411   1.112   8.680   1.825 -0.4105 -0.5208 -0.4226
  246MOL0     H32412   1.200   8.530   1.834  1.2263  0.8382 -0.2099
  246MOL0     H32413   0.980   8.459   1.671 -0.0406  0.0616  0.0647
  246MOL0     H32414   0.923   8.602   1.763  0.4458  0.5502 -0.0564
  246MOL0     H32415   1.015   8.336   1.890  2.4424  1.2376  1.1318
  246MOL0     H32416   0.982   8.475   1.971 -2.3472 -0.5215 -0.6083
  246MOL0     H32417   0.752   8.352   1.800  2.2977  3.0258 -2.9959
  246MOL0     H32418   0.750   8.502   1.892  1.7815  0.1782 -0.5045
  246MOL0     H32419   0.807   8.360   2.106  0.9198 -0.7501  0.3745
  246MOL0     H32420   0.811   8.221   2.004  2.1253  0.2962  2.3995
  246MOL0     H32421   0.599   8.276   2.138  1.4009 -0.7058 -0.8598
  246MOL0     H32422   0.571   8.398   2.011  0.5243  1.0065  2.3784
  246MOL0     H32423   0.616   8.095   1.998  1.9030 -0.9776 -3.7459
  246MOL0     H32424   0.610   8.180   1.847 -0.6352  0.5984 -0.3087
  246MOL0     H32425   0.383   7.979   2.046  0.8409  1.0360 -0.3503
  246MOL0     H32426   0.086   8.084   2.153  0.7408  0.8628 -0.4650
  246MOL0     H32427   0.137   7.928   2.089  0.2898  0.3955  1.3074
  246MOL0     H32428  -0.053   8.104   1.924 -1.6163  0.8095  2.6795
  246MOL0     H32429  -0.099   7.969   2.015 -0.3154  0.3826 -0.3764
  246MOL0     H32430   0.094   7.975   1.780 -3.5278 -0.0326 -3.3901
  246MOL0     H32431   0.072   7.833   1.893 -2.6424  0.3429  2.5253
  246MOL0     H32432  -0.083   7.853   1.675 -2.1201  1.8908 -1.5315
  246MOL0     H32433  -0.144   8.001   1.741 -0.7962 -1.2731 -3.3131
  246MOL0     H32434  -0.359   7.729   1.983  1.1849 -0.7313 -0.5462
  246MOL0     H32435  -0.604   7.715   1.960  0.1728  0.9521  0.4873
  246MOL0     H32436  -0.979   7.692   1.636  3.0647  0.5960  0.5910
  246MOL0     H32437  -1.188   7.574   1.650  1.0075 -2.0044  0.1007
  246MOL0     H32438  -1.381   7.483   1.689  1.8363 -6.0073  3.6870
  246MOL0     H32439  -1.447   7.646   1.760  0.7877  0.6355  1.0047
  246MOL0     H32440  -1.586   7.508   1.911 -0.7170 -1.0396 -0.2501
  246MOL0     H32441  -1.554   7.357   1.820  1.1074 -0.3678  0.2696
  246MOL0     H32442  -1.654   7.463   1.613 -0.4218  1.2928  0.0172
  246MOL0     H32443  -1.671   7.619   1.704  0.1225 -0.4274 -2.5065
  246MOL0     H32444  -1.796   7.364   1.805  0.1673  0.8967  1.1692
  246MOL0     H32445  -1.813   7.529   1.867 -1.1341 -0.5916  0.6346
  246MOL0     H32446  -1.917   7.477   1.597  1.1976 -2.6457  0.1301
  246MOL0     H32447  -1.932   7.614   1.706  0.9729 -0.8688  1.2202
  246MOL0     H32448  -2.095   7.522   1.833  0.6638 -0.7412  1.2835
  246MOL0     H32449  -2.039   7.355   1.805  0.7126 -0.1020 -2.3793
  246MOL0     H32450  -2.256   7.397   1.705 -0.5003 -1.8944 -0.1516
  246MOL0     H32451  -2.184   7.517   1.604  2.6686  1.2187 -0.7947
  246MOL0     H32452  -2.092   7.224   1.596 -0.9678 -0.4732  0.3991
  246MOL0     H32453  -2.063   7.358   1.483  1.8657  0.9922  2.8606
  246MOL0     H32454  -1.160   7.597   2.079  1.2021  3.5923  2.4530
  246MOL0     H32455  -0.969   7.697   2.070 -1.3306  1.1256  0.6580
  246MOL0     H32456  -0.571   7.943   1.593 -0.3079  0.2418 -0.1795
  246MOL0     H32457  -0.327   7.934   1.610 -0.0585  0.3293  1.2622
  246MOL0     H32458   1.432   8.491   1.729 -2.1491  2.8997  1.6577
  246MOL0     H32459   1.651   8.450   1.697  2.0822  0.7493  0.5438
  246MOL0     H32460   2.108   8.752   1.384 -0.0421 -0.5229 -0.1772
  246MOL0     H32461   2.352   8.695   1.415  0.3731 -2.2974 -2.7012
  246MOL0     H32462   2.531   8.693   1.561 -0.6572 -1.3874  3.0528
  246MOL0     H32463   2.539   8.600   1.419 -2.1874  0.6844  0.7891
  246MOL0     H32464   2.713   8.464   1.519 -0.2163 -0.3583  1.1085
  246MOL0     H32465   2.777   8.616   1.520  2.9645 -1.7123  0.9248
  246MOL0     H32466   2.642   8.479   1.760 -3.0164  0.3903 -1.9603
  246MOL0     H32467   2.654   8.648   1.769  0.7176  0.6119 -1.4642
  246MOL0     H32468   2.908   8.468   1.715 -2.4678 -1.3640 -1.0564
  246MOL0     H32469   2.907   8.640   1.723  1.1219 -2.2602 -2.3503
  246MOL0     H32470   2.845   8.485   2.129  1.5393 -0.7461  1.4693
  246MOL0     H32471   2.253   8.366   1.659  0.3891  0.9039 -0.9679
  246MOL0     H32472   2.005   8.433   1.630 -0.7445  0.5716 -0.9598
  247MOL0     O32473   4.341   0.833   3.828 -0.0174  0.3625  0.4716
  247MOL0     C32474   4.379   0.750   3.912  0.7060 -0.7108 -0.2906
  247MOL0     O32475   4.303   0.707   4.018  0.3983 -0.2036 -0.0010
  247MOL0     C32476   4.164   0.726   4.026 -0.0146 -0.1161  0.4362
  247MOL0     C32477   4.094   0.702   4.148 -0.1996 -0.4799 -0.0687
  247MOL0     C32478   3.948   0.709   4.143  0.6937  0.4064 -0.3455
  247MOL0     C32479   3.873   0.722   4.022 -0.7310 -0.1847 -0.1998
  247MOL0     O32480   3.735   0.727   4.003 -0.4631  0.4432 -0.3884
  247MOL0     C32481   3.645   0.694   4.108 -0.2757  0.2679 -0.2089
  247MOL0     C32482   3.505   0.682   4.052  0.1798 -0.3246 -0.2705
  247MOL0     C32483   3.485   0.551   3.980  0.4556  0.5642 -0.3055
  247MOL0     C32484   3.350   0.532   3.921 -0.2410 -0.6280  0.1872
  247MOL0     C32485   3.229   0.533   4.016 -0.4005  0.0955  0.2817
  247MOL0     C32486   3.256   0.434   4.125  0.5356  0.1462 -0.2278
  247MOL0     C32487   3.110   0.406   4.174  0.2499  0.0543  0.3438
  247MOL0     C32488   3.029   0.526   4.231 -0.7039  0.3058 -0.3106
  247MOL0     N32489   2.901   0.555   4.165  0.1177 -0.1263  0.1858
  247MOL0     C32490   2.785   0.514   4.224  0.2094  0.3029 -0.3666
  247MOL0     C32491   2.687   0.574   4.150  0.3813 -0.4522 -0.1414
  247MOL0     C32492   2.542   0.563   4.179 -0.4960  0.3742 -0.2849
  247MOL0     C32493   2.482   0.699   4.217  0.3687 -0.0342  0.2289
  247MOL0     C32494   2.508   0.718   4.378 -0.5033 -0.8945  0.2687
  247MOL0     C32495   2.432   0.822   4.447  0.9044  0.9857  0.3399
  247MOL0     O32496   2.310   0.768   4.487  0.0811 -0.5825  0.3102
  247MOL0     C32497   2.217   0.853   4.543 -0.0054 -0.4451  0.2632
  247MOL0     C32498   2.086   0.808   4.572  0.5941  0.4905  0.5454
  247MOL0     C32499   1.982   0.890   4.619 -0.5574  0.2255 -0.7856
  247MOL0     C32500   2.013   1.017   4.656 -0.1340  0.2770 -0.0376
  247MOL0     C32501   1.911   1.084   4.736 -0.0971  0.1103 -0.2070
  247MOL0     O32502   1.775   1.079   4.710  1.0868  0.3663 -1.0190
  247MOL0     C32503   1.687   1.112   4.803  0.1662 -0.6545  0.7703
  247MOL0     C32504   1.585   1.201   4.763  0.1984  0.3568  0.3752
  247MOL0     C32505   1.484   1.240   4.856 -0.5596 -0.0096 -0.1173
  247MOL0     C32506   1.499   1.200   4.987  0.4561  0.1609  1.0918
  247MOL0     O32507   1.406   1.233   5.078  0.3130 -0.2354 -0.3219
  247MOL0     C32508   1.321   1.343   5.051  0.2287  0.1848 -0.6668
  247MOL0     C32509   1.235   1.381   5.167 -0.1631  0.4161 -0.0410
  247MOL0     C32510   1.151   1.273   5.245 -0.6180  0.5542  0.4824
  247MOL0     C32511   1.018   1.229   5.175 -0.9311  0.6510 -0.6953
  247MOL0     C32512   0.904   1.319   5.185  0.3437 -0.7542 -0.1899
  247MOL0     C32513   0.776   1.235   5.220 -0.0834 -0.3221 -0.2202
  247MOL0     C32514   0.646   1.322   5.229 -0.1371 -0.7281  0.6799
  247MOL0     C32515   0.642   1.401   5.367 -0.1223 -0.2249 -0.7563
  247MOL0    Cl32516   0.496   1.497   5.385  0.2195  0.3916  0.2314
  247MOL0     C32517   1.598   1.103   5.022 -0.0567  0.1596  1.0724
  247MOL0     C32518   1.699   1.071   4.934  0.2915 -0.3207  0.7954
  247MOL0     O32519   1.963   1.138   4.829  0.5810 -0.7591 -0.0622
  247MOL0     C32520   2.140   1.074   4.632  0.6188 -0.6735  0.0441
  247MOL0     C32521   2.234   0.992   4.564  0.0800  0.7520  0.1788
  247MOL0     N32522   2.742   0.651   4.049 -0.8044  0.6128  0.5122
  247MOL0     N32523   2.875   0.650   4.072 -0.0617  0.1333  0.5303
  247MOL0     C32524   3.947   0.725   3.901  0.0097  0.3759  0.4189
  247MOL0     C32525   4.090   0.735   3.904 -0.0365  0.1704  0.2858
  247MOL0     C32526   4.530   0.712   3.903  1.4194 -0.1678 -0.0279
  247MOL0     C32527   4.594   0.620   3.994  1.3534  0.8793 -0.6470
  247MOL0     C32528   4.735   0.599   3.992  0.8551 -0.0083 -1.0282
  247MOL0     C32529   4.809   0.676   3.909 -0.5347 -0.3870 -0.3416
  247MOL0     O32530   4.944   0.674   3.906 -0.5375  0.3888  0.0172
  247MOL0     C32531   5.018   0.609   4.011  1.0440 -0.1639 -0.3348
  247MOL0     C32532   5.154   0.679   4.058  0.1896  0.5772  0.8453
  247MOL0     C32533   5.257   0.675   3.951 -0.9620 -0.1748 -0.3773
  247MOL0     C32534   5.375   0.761   3.996 -0.8047  0.1903  0.6033
  247MOL0     C32535   5.471   0.766   3.884 -0.0586 -0.1542 -0.0553
  247MOL0     C32536   5.538   0.782   3.793 -0.5247 -0.3575 -0.7829
  247MOL0     C32537   4.753   0.761   3.813 -0.9249  0.1761 -0.2176
  247MOL0     C32538   4.610   0.783   3.808  0.0498  0.0390 -0.4004
  247MOL0     H32539   4.139   0.677   4.244 -0.8490 -0.0629  0.3539
  247MOL0     H32540   3.902   0.703   4.241  3.3908  0.8350  1.0220
  247MOL0     H32541   3.641   0.769   4.188 -1.7070  0.5576 -0.5251
  247MOL0     H32542   3.669   0.598   4.153 -1.4266  0.4976  0.9379
  247MOL0     H32543   3.472   0.763   3.987  4.3261  1.6768 -0.1529
  247MOL0     H32544   3.443   0.686   4.142  2.9770 -2.8202  1.9401
  247MOL0     H32545   3.507   0.474   4.054  0.1912  1.4003  0.6627
  247MOL0     H32546   3.553   0.539   3.895 -0.1825 -0.9582 -0.6279
  247MOL0     H32547   3.346   0.614   3.849 -0.0266 -0.3593  0.4791
  247MOL0     H32548   3.354   0.436   3.868  2.4628  0.2316 -1.3318
  247MOL0     H32549   3.139   0.502   3.961 -0.8594  1.1354  0.4166
  247MOL0     H32550   3.198   0.632   4.050 -3.9916 -0.5314 -0.6774
  247MOL0     H32551   3.315   0.486   4.202  0.6809 -1.5104  0.8511
  247MOL0     H32552   3.311   0.343   4.102  0.2465  0.1710 -1.0326
  247MOL0     H32553   3.048   0.366   4.094 -0.7550  1.2954  0.4835
  247MOL0     H32554   3.116   0.332   4.254 -1.3431  1.4131  1.8150
  247MOL0     H32555   3.091   0.616   4.236  0.2972 -0.3404 -0.6161
  247MOL0     H32556   3.010   0.505   4.337  1.5751 -1.0731 -0.1095
  247MOL0     H32557   2.772   0.446   4.308  2.1765 -1.8183 -1.6500
  247MOL0     H32558   2.524   0.492   4.260  0.8787  1.3252  0.8970
  247MOL0     H32559   2.493   0.531   4.087 -0.4215  1.4070 -0.7005
  247MOL0     H32560   2.376   0.683   4.195  1.0331 -3.2150 -1.2110
  247MOL0     H32561   2.513   0.781   4.151  0.4484  0.6761  1.1291
  247MOL0     H32562   2.496   0.624   4.432 -0.0369 -0.9531  0.2725
  247MOL0     H32563   2.612   0.751   4.378 -0.0160 -2.3263 -0.1964
  247MOL0     H32564   2.412   0.911   4.387 -3.5832 -1.1579 -1.8625
  247MOL0     H32565   2.488   0.854   4.535 -2.0286 -0.0378  2.7800
  247MOL0     H32566   2.057   0.704   4.570 -2.3678  1.2182  1.4042
  247MOL0     H32567   1.890   0.850   4.661  0.0737  0.3277  0.7894
  247MOL0     H32568   1.587   1.242   4.662 -1.7146 -2.2347 -0.8334
  247MOL0     H32569   1.385   1.271   4.823 -0.7331  1.2581  1.5132
  247MOL0     H32570   1.250   1.310   4.974  2.2450 -3.1583 -1.3360
  247MOL0     H32571   1.379   1.431   5.021 -2.6697  1.4895 -2.9541
  247MOL0     H32572   1.171   1.464   5.133  0.6204  1.5909  1.2561
  247MOL0     H32573   1.302   1.430   5.238  0.6536 -0.6423 -0.0669
  247MOL0     H32574   1.137   1.319   5.344 -0.3459 -0.5843  1.0711
  247MOL0     H32575   1.209   1.180   5.253  2.1340  2.1110 -0.2388
  247MOL0     H32576   1.042   1.224   5.068  0.6764 -0.0534 -0.3356
  247MOL0     H32577   0.989   1.133   5.218  2.5776  0.1911  0.9689
  247MOL0     H32578   0.911   1.359   5.084  3.7656 -0.5962 -0.0008
  247MOL0     H32579   0.934   1.399   5.254  1.3670 -1.0592 -0.2682
  247MOL0     H32580   0.780   1.188   5.319  0.4025  0.1798 -0.0028
  247MOL0     H32581   0.759   1.152   5.151 -0.1325  0.6090 -1.3587
  247MOL0     H32582   0.644   1.385   5.139 -0.0669 -1.5739  0.0722
  247MOL0     H32583   0.560   1.255   5.221 -3.4942  3.3076 -0.3568
  247MOL0     H32584   0.723   1.474   5.380 -2.4647  2.2832  0.8734
  247MOL0     H32585   0.633   1.318   5.438 -1.9487  0.8221  0.3300
  247MOL0     H32586   1.610   1.076   5.126  0.3972 -3.5505  0.1982
  247MOL0     H32587   1.777   1.004   4.969  0.9907 -1.1793 -2.1605
  247MOL0     H32588   2.162   1.171   4.676  4.4046 -2.0681  1.6785
  247MOL0     H32589   2.336   1.029   4.557 -0.0463  1.1731  0.4787
  247MOL0     H32590   3.892   0.734   3.808 -1.6374 -0.3318  1.2738
  247MOL0     H32591   4.135   0.733   3.805 -2.1385 -2.0481 -0.7320
  247MOL0     H32592   4.527   0.560   4.053  0.8471  1.0973 -0.9950
  247MOL0     H32593   4.772   0.525   4.062 -2.9146 -2.0997 -0.9788
  247MOL0     H32594   5.053   0.511   3.978 -0.9596 -1.3746  0.9514
  247MOL0     H32595   4.966   0.602   4.107  0.0693 -0.0047 -0.8367
  247MOL0     H32596   5.129   0.783   4.077  2.8115  1.7719 -1.5105
  247MOL0     H32597   5.186   0.636   4.153 -1.7207  0.9592  1.7036
  247MOL0     H32598   5.206   0.711   3.861 -0.2314  0.3017 -0.6038
  247MOL0     H32599   5.287   0.573   3.925 -1.5128  0.0693 -2.1057
  247MOL0     H32600   5.349   0.867   4.010 -1.4204  0.3149 -1.2963
  247MOL0     H32601   5.421   0.719   4.086 -0.8227 -2.3586 -0.4977
  247MOL0     H32602   5.593   0.789   3.701 -1.5477 -1.5430 -1.5154
  247MOL0     H32603   4.820   0.813   3.745 -1.2227  1.4313  0.4276
  247MOL0     H32604   4.581   0.840   3.721  1.8339 -0.0958 -1.1208
  248MOL0     O32605   5.490   7.465   3.418  0.2214 -0.1550  0.4244
  248MOL0     C32606   5.496   7.504   3.302  1.4388  0.4189  1.1124
  248MOL0     O32607   5.431   7.457   3.191 -0.0058 -0.0336 -0.4915
  248MOL0     C32608   5.328   7.362   3.201 -0.4864  1.4083  0.6672
  248MOL0     C32609   5.245   7.331   3.312 -0.6303 -1.3844  0.8006
  248MOL0     C32610   5.144   7.237   3.306 -0.0342 -0.1131  0.5598
  248MOL0     C32611   5.106   7.189   3.179  0.1003  0.5370  0.0447
  248MOL0     O32612   4.984   7.114   3.159  0.4480 -0.0371 -0.2472
  248MOL0     C32613   4.998   6.984   3.229  0.4329 -0.1100  0.8363
  248MOL0     C32614   4.893   6.895   3.174 -0.6836 -1.1046 -0.3256
  248MOL0     C32615   4.749   6.947   3.216 -0.1679  0.1236  0.0663
  248MOL0     C32616   4.647   6.828   3.205 -0.1393  0.1210 -0.2082
  248MOL0     C32617   4.528   6.862   3.287  0.1043 -0.3165  0.1680
  248MOL0     C32618   4.402   6.815   3.225  0.5537 -0.3604  0.2484
  248MOL0     C32619   4.290   6.822   3.329  0.1005  0.6856 -0.5958
  248MOL0     C32620   4.228   6.681   3.345 -0.4858 -0.0294 -0.8609
  248MOL0     N32621   4.111   6.670   3.430  0.0317  0.6691  0.5712
  248MOL0     C32622   4.107   6.679   3.565  0.2318  0.3894 -0.5454
  248MOL0     C32623   3.979   6.686   3.606 -0.4844 -0.1733  0.7355
  248MOL0     C32624   3.918   6.701   3.743 -0.9875 -1.1878  0.1083
  248MOL0     C32625   3.927   6.580   3.829  0.9029  0.6174  0.4214
  248MOL0     C32626   3.803   6.487   3.844 -0.2520  0.9072  0.5472
  248MOL0     C32627   3.753   6.438   3.709  0.1453 -0.5068 -0.1450
  248MOL0     O32628   3.670   6.538   3.640 -1.2279 -0.3957 -0.0670
  248MOL0     C32629   3.537   6.541   3.648  0.0701  0.8293  0.1160
  248MOL0     C32630   3.465   6.627   3.564 -0.2880 -0.1405  0.2003
  248MOL0     C32631   3.324   6.625   3.558 -0.4576 -0.6273  0.7155
  248MOL0     C32632   3.247   6.550   3.653  0.2471 -0.5695 -0.5098
  248MOL0     C32633   3.097   6.553   3.648  0.1000  0.4482 -0.2751
  248MOL0     O32634   3.034   6.476   3.747 -0.5968 -0.7877 -0.1006
  248MOL0     C32635   2.900   6.482   3.789 -0.5169  0.5745 -1.2426
  248MOL0     C32636   2.800   6.449   3.703  0.1149  0.1075  0.7206
  248MOL0     C32637   2.667   6.460   3.730 -0.1122 -0.4934 -0.8433
  248MOL0     C32638   2.632   6.498   3.861 -0.4969  0.0889  0.8833
  248MOL0     O32639   2.498   6.506   3.894 -0.4199  0.3699 -0.3704
  248MOL0     C32640   2.415   6.386   3.887 -0.0004  0.3420 -0.0735
  248MOL0     C32641   2.298   6.401   3.983  0.0116  0.2782 -0.3149
  248MOL0     C32642   2.201   6.508   3.919  0.8510 -0.2307 -1.1559
  248MOL0     C32643   2.070   6.522   3.998  0.3385 -0.3115 -0.6992
  248MOL0     C32644   1.975   6.618   3.941 -0.3092 -0.2902  0.4827
  248MOL0     C32645   1.834   6.610   4.011 -0.4805  0.4173 -0.1474
  248MOL0     C32646   1.727   6.690   3.919 -0.6566  0.4157 -1.1465
  248MOL0     C32647   1.601   6.712   3.997  0.0575 -0.3368 -0.1118
  248MOL0    Cl32648   1.479   6.808   3.908 -0.2037  0.1369 -0.0161
  248MOL0     C32649   2.724   6.536   3.954 -1.1767 -0.1822  0.3283
  248MOL0     C32650   2.865   6.526   3.919  0.9348  0.5147  0.1904
  248MOL0     O32651   3.039   6.633   3.573  0.0720 -0.4420 -0.4735
  248MOL0     C32652   3.320   6.461   3.735  0.3042 -0.0315  0.2211
  248MOL0     C32653   3.460   6.463   3.737  0.4620  0.5253 -0.4457
  248MOL0     N32654   3.903   6.671   3.491 -0.0599  0.0550  0.5737
  248MOL0     N32655   3.976   6.660   3.390  0.2840 -0.6491  0.0857
  248MOL0     C32656   5.183   7.216   3.066  0.0685 -0.2847 -0.3925
  248MOL0     C32657   5.297   7.302   3.075  0.7655 -0.6205 -0.5310
  248MOL0     C32658   5.592   7.610   3.285  0.9214  0.4896 -0.3439
  248MOL0     C32659   5.634   7.682   3.396 -0.2333  0.4876  0.0189
  248MOL0     C32660   5.725   7.788   3.373 -0.6372 -0.0022  0.0911
  248MOL0     C32661   5.781   7.812   3.246  0.0848 -0.5721  0.5145
  248MOL0     O32662   5.877   7.907   3.228  0.3581 -0.1217 -0.5371
  248MOL0     C32663   6.004   7.870   3.281 -0.3325 -0.1776  0.2246
  248MOL0     C32664   6.065   7.984   3.369  0.2399  0.1360 -0.4678
  248MOL0     C32665   6.215   7.960   3.387 -0.4742 -0.2821  0.5636
  248MOL0     C32666   6.285   8.068   3.471 -0.1999  0.2931 -0.8977
  248MOL0     C32667   6.231   8.096   3.605  0.2044 -0.3623  0.1881
  248MOL0     C32668   6.171   8.097   3.713 -0.9945 -0.0140 -0.3770
  248MOL0     C32669   5.735   7.741   3.134  0.6724  0.3026 -0.6752
  248MOL0     C32670   5.635   7.645   3.154  0.7588 -0.0764 -0.2463
  248MOL0     H32671   5.255   7.380   3.408  1.4727 -0.4563  0.1698
  248MOL0     H32672   5.084   7.217   3.394 -3.0963  2.2863 -0.7964
  248MOL0     H32673   4.987   7.006   3.336 -0.0370  2.9835  0.2485
  248MOL0     H32674   5.095   6.935   3.218  0.1543 -0.8331  1.4641
  248MOL0     H32675   4.905   6.795   3.217 -1.7273 -1.8121 -1.5835
  248MOL0     H32676   4.903   6.881   3.065 -1.7488 -1.8671 -0.3422
  248MOL0     H32677   4.722   7.030   3.151 -3.5112  0.8219  2.1247
  248MOL0     H32678   4.754   6.981   3.320  2.5312 -0.4018  0.1998
  248MOL0     H32679   4.610   6.817   3.102 -0.7657 -1.4703  0.1468
  248MOL0     H32680   4.684   6.728   3.231  0.9334  1.0521  2.0634
  248MOL0     H32681   4.516   6.971   3.283  0.4727 -0.2803 -0.0440
  248MOL0     H32682   4.549   6.828   3.389  0.4390 -3.7068 -0.9010
  248MOL0     H32683   4.406   6.713   3.184 -0.6968 -0.7557  1.0628
  248MOL0     H32684   4.377   6.873   3.136 -0.6281 -0.7503  0.3088
  248MOL0     H32685   4.319   6.863   3.426 -2.4601 -1.3144  1.1598
  248MOL0     H32686   4.204   6.881   3.297 -2.6892 -2.3254  0.8157
  248MOL0     H32687   4.298   6.612   3.392  2.5376  1.1785 -3.2622
  248MOL0     H32688   4.214   6.635   3.247  0.0866 -1.3392 -0.3478
  248MOL0     H32689   4.187   6.677   3.639  1.5447  1.6497 -1.8709
  248MOL0     H32690   3.816   6.733   3.720 -0.0489  0.1823 -2.5779
  248MOL0     H32691   3.974   6.781   3.792  0.3603 -1.9141 -0.2139
  248MOL0     H32692   3.942   6.602   3.935 -1.8399 -0.9885  1.2333
  248MOL0     H32693   4.008   6.513   3.796  1.0543 -0.3347  2.5575
  248MOL0     H32694   3.834   6.401   3.905 -0.4918 -0.1639 -0.7896
  248MOL0     H32695   3.722   6.532   3.902 -2.3578 -0.7357 -0.9655
  248MOL0     H32696   3.702   6.344   3.729 -0.3959  0.1008  1.5447
  248MOL0     H32697   3.835   6.407   3.644  1.5903  2.9509 -0.2032
  248MOL0     H32698   3.523   6.694   3.501  0.4163  1.3558  2.3299
  248MOL0     H32699   3.270   6.688   3.489 -0.3296 -3.1160 -1.8450
  248MOL0     H32700   2.827   6.409   3.606  0.8568  0.7827  0.6398
  248MOL0     H32701   2.588   6.433   3.661 -0.3480  1.3483 -1.3715
  248MOL0     H32702   2.472   6.294   3.905 -1.0394  0.2633  3.4970
  248MOL0     H32703   2.377   6.385   3.784 -0.7313  0.6510  0.1861
  248MOL0     H32704   2.328   6.431   4.084  1.0539  1.8147 -1.0331
  248MOL0     H32705   2.244   6.306   3.989  0.5956 -0.1141 -1.1538
  248MOL0     H32706   2.178   6.472   3.818 -0.3400 -3.0612  0.0315
  248MOL0     H32707   2.243   6.608   3.901 -0.3512 -0.1301 -4.1166
  248MOL0     H32708   2.025   6.426   4.027 -0.2341  0.2318  0.2273
  248MOL0     H32709   2.091   6.560   4.098  1.7882  0.4342 -1.2531
  248MOL0     H32710   1.958   6.590   3.837 -0.8470  3.0306 -0.4365
  248MOL0     H32711   2.014   6.720   3.942 -1.2259  0.0874 -0.6790
  248MOL0     H32712   1.842   6.659   4.109 -1.2062  1.2771 -0.4974
  248MOL0     H32713   1.787   6.513   4.026  0.7875 -0.3902 -1.2889
  248MOL0     H32714   1.764   6.790   3.892  0.6335  0.1376 -0.4509
  248MOL0     H32715   1.714   6.639   3.823  2.6360 -1.0201 -0.9598
  248MOL0     H32716   1.638   6.767   4.084  3.3080 -2.2360 -0.1149
  248MOL0     H32717   1.554   6.616   4.022 -2.7510  0.0981 -3.0722
  248MOL0     H32718   2.693   6.561   4.055  1.9148 -0.6946  1.5092
  248MOL0     H32719   2.938   6.566   3.988 -1.5244  3.0018  1.5601
  248MOL0     H32720   3.261   6.402   3.804 -1.4486 -0.6816 -1.7278
  248MOL0     H32721   3.509   6.398   3.809 -0.2181  0.8104  0.3014
  248MOL0     H32722   5.154   7.179   2.968 -0.3138  0.1134 -0.4322
  248MOL0     H32723   5.360   7.316   2.988 -3.1376  1.8457 -3.2947
  248MOL0     H32724   5.610   7.658   3.499  2.6411 -0.8908  0.4740
  248MOL0     H32725   5.771   7.837   3.458  0.8932  1.4948 -1.5246
  248MOL0     H32726   6.074   7.850   3.199  1.5131 -0.4062  1.7968
  248MOL0     H32727   5.988   7.775   3.332 -1.0003 -0.9118 -1.2815
  248MOL0     H32728   6.036   8.080   3.324 -1.0931 -0.4873 -0.9860
  248MOL0     H32729   6.012   7.984   3.465 -0.7726  0.6599 -1.0016
  248MOL0     H32730   6.261   7.967   3.288 -2.0540  3.2014 -0.0823
  248MOL0     H32731   6.244   7.868   3.437  1.6791  1.7694  3.4161
  248MOL0     H32732   6.387   8.035   3.494  0.6261  5.0065  4.3266
  248MOL0     H32733   6.300   8.161   3.416 -1.0888  0.9544 -0.0583
  248MOL0     H32734   6.120   8.090   3.807 -3.2455  0.1464 -1.5056
  248MOL0     H32735   5.764   7.769   3.033 -2.7402  4.0708 -0.8955
  248MOL0     H32736   5.599   7.603   3.061  0.4484  0.0226 -0.1718
  249MOL0     O32737   4.057   0.653   8.224  0.7906 -0.2594 -0.6836
  249MOL0     C32738   4.083   0.711   8.328  0.2917  0.3648  0.0769
  249MOL0     O32739   3.998   0.782   8.400 -0.0607  0.4104  0.4429
  249MOL0     C32740   3.870   0.792   8.353 -0.3021  0.2480 -0.3210
  249MOL0     C32741   3.769   0.706   8.379  0.1935  0.2174 -0.7320
  249MOL0     C32742   3.645   0.717   8.323 -0.1904 -1.0457  0.4057
  249MOL0     C32743   3.617   0.821   8.234 -0.3760  0.4464  0.1921
  249MOL0     O32744   3.489   0.819   8.185  0.0027 -0.8573 -0.2346
  249MOL0     C32745   3.410   0.941   8.197 -0.7394  0.3852  0.8529
  249MOL0     C32746   3.367   1.002   8.059  0.0875  0.0416  0.2407
  249MOL0     C32747   3.276   1.127   8.086 -0.3674  0.1447  0.1890
  249MOL0     C32748   3.151   1.092   8.171 -0.2545  0.2877  0.0987
  249MOL0     C32749   3.051   1.207   8.158 -0.2651  0.1963  0.2006
  249MOL0     C32750   2.990   1.216   8.016  0.9451  0.1662 -1.0355
  249MOL0     C32751   2.851   1.278   8.028  0.7297  0.1960  0.3245
  249MOL0     C32752   2.747   1.184   8.092  0.2969 -0.1836 -0.0841
  249MOL0     N32753   2.619   1.256   8.089 -0.5508  1.1017  0.6649
  249MOL0     C32754   2.537   1.270   7.973 -0.2973  0.0001 -0.1294
  249MOL0     C32755   2.415   1.305   8.019 -0.1209  0.3475 -0.1693
  249MOL0     C32756   2.300   1.355   7.939 -0.2064  0.2534 -0.8766
  249MOL0     C32757   2.176   1.270   7.972 -0.8975 -1.2025 -0.7905
  249MOL0     C32758   2.064   1.291   7.875  0.6162  0.6074  0.0601
  249MOL0     C32759   1.928   1.239   7.907 -0.3452 -0.3708 -0.1375
  249MOL0     O32760   1.850   1.241   7.789 -0.2751  0.7080 -0.1144
  249MOL0     C32761   1.718   1.195   7.789 -0.6605  0.0173 -0.3145
  249MOL0     C32762   1.660   1.128   7.901  0.0686 -0.3348  0.1294
  249MOL0     C32763   1.527   1.089   7.906 -0.0866 -0.5642  0.1932
  249MOL0     C32764   1.449   1.113   7.789  0.6961  0.1175  0.0117
  249MOL0     C32765   1.303   1.083   7.795  0.5911 -0.1382  0.3520
  249MOL0     O32766   1.261   1.002   7.902 -0.3639 -0.0473  0.1146
  249MOL0     C32767   1.137   0.941   7.891 -0.8246 -0.2554 -0.7300
  249MOL0     C32768   1.021   1.003   7.912 -0.3919 -0.5445  0.1180
  249MOL0     C32769   0.901   0.931   7.909 -0.3489  0.5972 -0.1614
  249MOL0     C32770   0.898   0.794   7.860  0.4881  0.0062  0.2630
  249MOL0     O32771   0.780   0.722   7.857  0.0354  0.0462 -0.0971
  249MOL0     C32772   0.770   0.627   7.762 -1.0874 -0.0938 -0.0303
  249MOL0     C32773   0.627   0.577   7.758  0.6975  0.5227 -0.6540
  249MOL0     C32774   0.567   0.521   7.901  0.0513 -0.2900  0.6805
  249MOL0     C32775   0.425   0.455   7.894  0.4906 -0.7281  0.2546
  249MOL0     C32776   0.382   0.403   8.031 -0.0487  0.2919  0.6908
  249MOL0     C32777   0.233   0.342   8.028 -0.4710  0.3207  0.6243
  249MOL0     C32778   0.224   0.289   8.172  0.7243  0.2216 -0.3955
  249MOL0     C32779   0.077   0.257   8.203  0.1533 -0.1891 -0.3669
  249MOL0    Cl32780  -0.037   0.394   8.145  0.0563  0.1284 -0.0783
  249MOL0     C32781   1.024   0.734   7.834 -0.5774  0.1577 -0.3368
  249MOL0     C32782   1.143   0.809   7.855 -0.2234  0.1593  0.1884
  249MOL0     O32783   1.232   1.118   7.705 -0.2382  0.1251 -0.2138
  249MOL0     C32784   1.510   1.179   7.680 -0.1519  0.0329 -0.3142
  249MOL0     C32785   1.644   1.216   7.672 -0.1556 -0.0043  0.8031
  249MOL0     N32786   2.425   1.296   8.158 -0.6741  1.0179  0.0065
  249MOL0     N32787   2.550   1.268   8.202  0.4327  0.3126 -0.4087
  249MOL0     C32788   3.708   0.923   8.217 -0.8727 -0.3624  0.1275
  249MOL0     C32789   3.837   0.903   8.269  0.4604 -0.2176 -0.3914
  249MOL0     C32790   4.226   0.698   8.372  0.7023 -0.9935 -0.1742
  249MOL0     C32791   4.320   0.626   8.301 -0.1901  0.1995 -0.1017
  249MOL0     C32792   4.454   0.619   8.352 -0.0079  1.1011 -0.0604
  249MOL0     C32793   4.501   0.697   8.455 -0.0140  0.6303 -0.2015
  249MOL0     O32794   4.635   0.703   8.486  0.2275 -1.1218 -0.4591
  249MOL0     C32795   4.727   0.620   8.428 -0.2865 -0.2195  0.9409
  249MOL0     C32796   4.778   0.666   8.290 -0.8344 -0.8006  0.5772
  249MOL0     C32797   4.911   0.737   8.271 -0.2849  0.7480 -0.4803
  249MOL0     C32798   5.030   0.692   8.346  0.0648  0.1146 -1.1900
  249MOL0     C32799   5.143   0.782   8.316 -0.6230  0.5453  0.2259
  249MOL0     C32800   5.231   0.849   8.264 -0.0047 -0.0655 -0.0438
  249MOL0     C32801   4.412   0.780   8.519  0.5135  0.3167 -0.4478
  249MOL0     C32802   4.278   0.780   8.479  0.1912 -0.6422  0.9705
  249MOL0     H32803   3.780   0.626   8.451  1.2594  1.0853  0.1027
  249MOL0     H32804   3.562   0.652   8.351 -3.4653  2.8466  0.6694
  249MOL0     H32805   3.475   1.014   8.248  2.3775 -1.1756 -0.5834
  249MOL0     H32806   3.334   0.925   8.273  1.7221 -0.5102  3.2806
  249MOL0     H32807   3.308   0.928   8.003 -0.4885 -1.7232  2.9777
  249MOL0     H32808   3.455   1.031   8.001  0.2357  2.7146  1.6604
  249MOL0     H32809   3.239   1.168   7.992 -1.8228  0.5386  0.9003
  249MOL0     H32810   3.342   1.200   8.133  0.7391 -1.5285  1.3597
  249MOL0     H32811   3.108   0.995   8.143 -1.8989  0.2738  2.3670
  249MOL0     H32812   3.182   1.098   8.275  0.9777  2.3375 -0.3403
  249MOL0     H32813   3.096   1.302   8.186  3.9815 -0.6572 -2.7364
  249MOL0     H32814   2.975   1.175   8.230  1.5004 -0.5675  1.8218
  249MOL0     H32815   2.977   1.118   7.970  0.1540 -0.1120 -0.2507
  249MOL0     H32816   3.047   1.283   7.950 -1.4069  0.3686 -2.9820
  249MOL0     H32817   2.856   1.376   8.076 -0.2055 -0.0898  1.0289
  249MOL0     H32818   2.819   1.298   7.925  5.5242  2.4979 -1.0461
  249MOL0     H32819   2.769   1.159   8.196 -2.6391 -3.2186 -0.0231
  249MOL0     H32820   2.735   1.092   8.034 -1.8890  0.0274 -0.0300
  249MOL0     H32821   2.565   1.279   7.869  0.7629  2.3406  0.2865
  249MOL0     H32822   2.329   1.344   7.834 -1.6338 -0.4410 -1.2182
  249MOL0     H32823   2.281   1.458   7.971 -0.0459  1.2455 -3.7313
  249MOL0     H32824   2.149   1.306   8.072  1.1884  3.8820 -1.6978
  249MOL0     H32825   2.197   1.163   7.966  1.6287 -0.7959 -0.5304
  249MOL0     H32826   2.060   1.399   7.858  2.4174  0.6426 -0.4125
  249MOL0     H32827   2.092   1.238   7.783 -1.3122 -0.6780  0.1540
  249MOL0     H32828   1.880   1.291   7.990 -2.2321 -2.8968  0.4906
  249MOL0     H32829   1.929   1.134   7.940 -1.1920 -0.2885  0.1749
  249MOL0     H32830   1.725   1.108   7.986  0.2701  0.1634  0.0980
  249MOL0     H32831   1.505   1.059   8.008  1.0850 -0.9839  0.3471
  249MOL0     H32832   1.022   1.109   7.938  0.5549  0.0747 -2.1602
  249MOL0     H32833   0.808   0.984   7.928 -0.2373  1.7171 -2.3884
  249MOL0     H32834   0.834   0.541   7.784 -0.8769 -0.2703 -1.2588
  249MOL0     H32835   0.793   0.671   7.665  0.0608  2.1421  1.1678
  249MOL0     H32836   0.628   0.492   7.689 -2.2360 -1.0256  1.0480
  249MOL0     H32837   0.550   0.643   7.718 -1.5920 -1.6829 -0.1684
  249MOL0     H32838   0.567   0.608   7.967  2.6171 -1.7588  2.8001
  249MOL0     H32839   0.638   0.456   7.953  2.3979  0.6668 -1.1741
  249MOL0     H32840   0.361   0.538   7.864  1.7981  0.6327  1.0698
  249MOL0     H32841   0.412   0.377   7.818 -0.3529  0.9292 -1.3837
  249MOL0     H32842   0.389   0.486   8.103  0.5298 -0.6823  1.7951
  249MOL0     H32843   0.455   0.330   8.067  1.4734  0.4665 -1.8354
  249MOL0     H32844   0.205   0.266   7.954  2.2192 -4.0891  3.6545
  249MOL0     H32845   0.171   0.429   8.004 -1.0253 -0.9559 -3.3164
  249MOL0     H32846   0.289   0.203   8.187  0.2072 -0.8869 -3.7714
  249MOL0     H32847   0.241   0.367   8.247  0.3917 -0.4689  0.4196
  249MOL0     H32848   0.050   0.264   8.308 -1.1249 -0.3464 -0.6652
  249MOL0     H32849   0.046   0.163   8.158  1.5354 -0.4821 -0.7595
  249MOL0     H32850   1.032   0.632   7.798 -0.5598  1.4746 -4.7589
  249MOL0     H32851   1.236   0.754   7.844 -2.6169 -4.1336 -0.5079
  249MOL0     H32852   1.443   1.188   7.595 -0.0038 -5.0227 -1.2527
  249MOL0     H32853   1.681   1.271   7.586 -0.7219  1.0192  1.1882
  249MOL0     H32854   3.683   1.004   8.150 -1.1466 -1.6755 -1.4188
  249MOL0     H32855   3.924   0.963   8.245  1.3203 -1.7547 -1.2923
  249MOL0     H32856   4.289   0.564   8.218 -1.2502 -1.3089  1.3684
  249MOL0     H32857   4.504   0.549   8.286  0.7836  2.3646 -0.8588
  249MOL0     H32858   4.699   0.514   8.420  1.5126 -0.7119  0.6545
  249MOL0     H32859   4.819   0.617   8.487  1.1034  1.1812 -1.0369
  249MOL0     H32860   4.782   0.575   8.229 -0.5460 -0.3894 -0.0322
  249MOL0     H32861   4.703   0.722   8.234  1.1301 -1.7417 -3.3851
  249MOL0     H32862   4.888   0.842   8.289 -1.7453  0.3238  0.2529
  249MOL0     H32863   4.934   0.724   8.165 -0.9969 -2.0525 -0.3735
  249MOL0     H32864   5.022   0.693   8.455 -1.0175  0.7835 -1.2537
  249MOL0     H32865   5.065   0.593   8.317  1.8339  0.7799 -1.4060
  249MOL0     H32866   5.305   0.911   8.216 -0.6271  0.8983  0.2088
  249MOL0     H32867   4.443   0.842   8.603 -3.0931 -0.4868  1.7387
  249MOL0     H32868   4.208   0.843   8.534 -0.1996  1.0950 -1.3752
  250MOL0     O32869   2.429  11.249   0.384  0.1449 -0.1555  0.0213
  250MOL0     C32870   2.481  11.358   0.360  1.0880 -0.0237 -0.5099
  250MOL0     O32871   2.427  11.477   0.389 -0.0759 -1.0992 -0.8227
  250MOL0     C32872   2.294  11.504   0.423  0.0980  0.4143 -0.9373
  250MOL0     C32873   2.181  11.430   0.372 -0.0225 -0.1145 -1.4839
  250MOL0     C32874   2.050  11.457   0.422  0.9442  0.2070 -0.3161
  250MOL0     C32875   2.040  11.549   0.523  0.2932 -0.2478 -0.0793
  250MOL0     O32876   1.920  11.566   0.597 -0.0216 -0.7329 -0.1305
  250MOL0     C32877   1.817  11.470   0.592  0.1001 -0.1938 -0.5860
  250MOL0     C32878   1.694  11.497   0.669 -0.4670 -0.5806 -0.2342
  250MOL0     C32879   1.582  11.397   0.637  0.0942 -0.4046 -0.6679
  250MOL0     C32880   1.456  11.453   0.695  1.1826 -0.0282  0.6253
  250MOL0     C32881   1.337  11.417   0.613 -0.2328  0.1208  0.3047
  250MOL0     C32882   1.204  11.420   0.683 -0.0594 -0.0071 -0.2279
  250MOL0     C32883   1.088  11.360   0.602 -0.3736  0.3475  0.0275
  250MOL0     C32884   0.979  11.325   0.701  0.6374  0.0784 -0.4334
  250MOL0     N32885   0.844  11.313   0.637 -1.3681  0.0272 -0.7760
  250MOL0     C32886   0.790  11.401   0.549  0.2248  0.3373  0.6588
  250MOL0     C32887   0.670  11.355   0.514 -0.6036  0.2945  0.3438
  250MOL0     C32888   0.567  11.399   0.414 -0.0479 -1.0319 -0.8285
  250MOL0     C32889   0.593  11.369   0.272  0.7422 -0.4476 -0.4345
  250MOL0     C32890   0.681  11.474   0.210 -0.2170  0.0518 -0.2987
  250MOL0     C32891   0.670  11.470   0.052  0.3551 -0.4819  0.0195
  250MOL0     O32892   0.709  11.338   0.013 -0.3295  0.3342 -0.8357
  250MOL0     C32893   0.613  11.260  -0.041 -0.0448  0.2596  0.1022
  250MOL0     C32894   0.516  11.302  -0.133  0.5502  0.4030 -0.6153
  250MOL0     C32895   0.421  11.206  -0.180  0.5880 -0.2490  0.3925
  250MOL0     C32896   0.424  11.076  -0.138  0.0369 -0.5058 -0.9369
  250MOL0     C32897   0.314  10.980  -0.196 -1.4492 -0.4881  0.5400
  250MOL0     O32898   0.210  11.036  -0.268  1.2476  0.1168 -0.4254
  250MOL0     C32899   0.114  10.943  -0.306  0.5624  0.5590 -0.6763
  250MOL0     C32900  -0.024  10.976  -0.261  0.3405  0.2736 -0.3729
  250MOL0     C32901  -0.120  10.885  -0.295  0.2175  0.0471 -0.8477
  250MOL0     C32902  -0.106  10.767  -0.362 -0.1453  0.3689  0.4940
  250MOL0     O32903  -0.215  10.686  -0.388  0.4329  0.3335  0.5242
  250MOL0     C32904  -0.188  10.566  -0.463  0.0558 -0.1046  0.3075
  250MOL0     C32905  -0.311  10.493  -0.492 -0.6062  0.7733 -1.0836
  250MOL0     C32906  -0.414  10.463  -0.381 -0.2230  0.6877  0.0011
  250MOL0     C32907  -0.350  10.365  -0.274  1.0290 -0.2373 -0.5173
  250MOL0     C32908  -0.462  10.305  -0.192  0.5150 -0.4732 -0.2885
  250MOL0     C32909  -0.549  10.192  -0.254  0.3501  0.1016  0.2363
  250MOL0     C32910  -0.656  10.146  -0.157  0.6931 -0.1518 -0.3656
  250MOL0     C32911  -0.761  10.072  -0.234 -0.6915  0.2322  0.0091
  250MOL0    Cl32912  -0.886  10.009  -0.128 -0.7306 -0.1490  0.0370
  250MOL0     C32913   0.026  10.734  -0.399  0.3777 -0.0208 -0.1174
  250MOL0     C32914   0.133  10.818  -0.375 -0.3464 -0.8953 -0.2162
  250MOL0     O32915   0.332  10.859  -0.179 -0.4350  0.3815 -0.0491
  250MOL0     C32916   0.527  11.035  -0.051  0.3052  0.0532  0.3551
  250MOL0     C32917   0.633  11.123  -0.018 -0.3550 -0.5514  1.2055
  250MOL0     N32918   0.648  11.243   0.589  0.6270 -0.4487  0.1237
  250MOL0     N32919   0.749  11.220   0.661 -0.3306  1.4169  0.6624
  250MOL0     C32920   2.149  11.621   0.567 -0.0725 -0.7280 -0.4524
  250MOL0     C32921   2.275  11.600   0.522 -0.7238  0.3720  0.1990
  250MOL0     C32922   2.628  11.355   0.316  0.0189  0.4730 -0.5669
  250MOL0     C32923   2.699  11.231   0.312 -0.8546 -0.3127  0.1315
  250MOL0     C32924   2.831  11.232   0.269  0.5494  0.5257  0.7595
  250MOL0     C32925   2.894  11.349   0.246 -0.8789 -0.3980  0.0626
  250MOL0     O32926   3.025  11.350   0.213 -0.2573  1.1853 -0.2447
  250MOL0     C32927   3.103  11.228   0.249 -0.0496  0.0933 -0.4080
  250MOL0     C32928   3.239  11.272   0.201  0.3156 -0.1646  0.1616
  250MOL0     C32929   3.338  11.158   0.207  0.0004 -0.2009  0.5543
  250MOL0     C32930   3.486  11.189   0.180 -0.7397  0.4842  0.6300
  250MOL0     C32931   3.506  11.265   0.052  0.0188  0.3297  0.3457
  250MOL0     C32932   3.510  11.328  -0.056 -0.6326 -0.5412  0.9362
  250MOL0     C32933   2.834  11.470   0.254 -0.0902 -0.3019 -0.3551
  250MOL0     C32934   2.703  11.476   0.299  0.4255  0.3216  0.1834
  250MOL0     H32935   2.199  11.351   0.300  1.7124  0.4037 -1.6831
  250MOL0     H32936   1.973  11.389   0.388 -1.2369  1.3731  2.0365
  250MOL0     H32937   1.862  11.373   0.612  0.0719 -0.5051 -1.9374
  250MOL0     H32938   1.788  11.451   0.488  0.5125 -0.6954 -0.6142
  250MOL0     H32939   1.670  11.598   0.636  0.1485 -0.2311  0.3681
  250MOL0     H32940   1.716  11.489   0.776  0.4197 -1.2429 -0.4526
  250MOL0     H32941   1.611  11.301   0.681  0.1862 -0.4204 -0.7638
  250MOL0     H32942   1.571  11.396   0.528 -2.5428 -2.0375 -0.4835
  250MOL0     H32943   1.438  11.405   0.792  2.7451 -3.5743 -0.6521
  250MOL0     H32944   1.469  11.560   0.713 -0.5314  0.5736 -1.3432
  250MOL0     H32945   1.352  11.319   0.567 -0.4617  0.6900 -1.0198
  250MOL0     H32946   1.327  11.477   0.522  0.3906 -1.6105 -0.9340
  250MOL0     H32947   1.177  11.523   0.710 -2.4775 -0.4866 -0.5445
  250MOL0     H32948   1.210  11.357   0.771 -0.8831 -0.0627 -0.2006
  250MOL0     H32949   1.052  11.420   0.518 -0.6671 -0.3189 -0.3286
  250MOL0     H32950   1.129  11.268   0.558 -0.0093  0.7340 -0.4616
  250MOL0     H32951   0.978  11.403   0.778 -1.5241  0.0215 -0.3348
  250MOL0     H32952   1.007  11.225   0.738  0.3069  0.7062  1.6444
  250MOL0     H32953   0.842  11.487   0.507  1.9542 -1.1498 -0.3522
  250MOL0     H32954   0.540  11.503   0.435  4.4256 -0.4822  4.2429
  250MOL0     H32955   0.477  11.342   0.438  0.2770 -1.2568 -0.1175
  250MOL0     H32956   0.503  11.361   0.211  0.7914 -0.0076 -0.5647
  250MOL0     H32957   0.646  11.274   0.261  1.9365  0.2459 -0.8156
  250MOL0     H32958   0.659  11.573   0.250  1.4298  0.3734 -0.0877
  250MOL0     H32959   0.786  11.448   0.230 -0.4633 -1.6663 -1.0984
  250MOL0     H32960   0.730  11.551   0.010  0.9578 -0.5286  0.7554
  250MOL0     H32961   0.566  11.496   0.030  1.1094  0.9749 -2.1325
  250MOL0     H32962   0.520  11.406  -0.164 -0.6199  0.9171  0.8642
  250MOL0     H32963   0.340  11.226  -0.250  0.8746 -2.3918 -0.6239
  250MOL0     H32964  -0.038  11.064  -0.199  0.4094  0.9846 -1.3524
  250MOL0     H32965  -0.218  10.908  -0.254 -1.3503 -4.1770 -1.7267
  250MOL0     H32966  -0.130  10.501  -0.396  0.1442 -1.4967 -1.0637
  250MOL0     H32967  -0.129  10.591  -0.552 -0.7697  1.5340  0.1799
  250MOL0     H32968  -0.286  10.400  -0.544 -1.6559 -2.1285  3.1055
  250MOL0     H32969  -0.358  10.565  -0.561 -2.4573 -0.0830 -0.7673
  250MOL0     H32970  -0.500  10.417  -0.429  1.4241  0.5666 -3.1474
  250MOL0     H32971  -0.448  10.556  -0.334 -2.0422 -0.2944  0.7174
  250MOL0     H32972  -0.288  10.287  -0.318  1.3261 -0.5808  0.4868
  250MOL0     H32973  -0.293  10.432  -0.209  0.9655 -1.4481  0.8259
  250MOL0     H32974  -0.522  10.385  -0.149  1.3316 -1.2285  2.4124
  250MOL0     H32975  -0.416  10.262  -0.103  0.5948  2.4615  1.1925
  250MOL0     H32976  -0.476  10.114  -0.277  1.5779  1.1837  0.3809
  250MOL0     H32977  -0.595  10.229  -0.346 -0.9149 -1.7597  0.0622
  250MOL0     H32978  -0.615  10.082  -0.078  0.5880 -1.9818 -1.7539
  250MOL0     H32979  -0.706  10.232  -0.110 -0.7222 -1.4809  0.6466
  250MOL0     H32980  -0.710   9.980  -0.264  0.6516  1.0916 -0.4072
  250MOL0     H32981  -0.814  10.125  -0.314 -0.7832 -0.6711 -0.5428
  250MOL0     H32982   0.054  10.650  -0.462  2.8650  1.3443 -0.9946
  250MOL0     H32983   0.227  10.785  -0.416 -0.7401 -2.0969 -0.2126
  250MOL0     H32984   0.526  10.931  -0.018 -1.0412 -0.2425 -0.5336
  250MOL0     H32985   0.712  11.090   0.049 -0.0979 -0.3335  1.0122
  250MOL0     H32986   2.129  11.693   0.645  1.1314  1.0102 -1.6781
  250MOL0     H32987   2.367  11.640   0.564  0.7964 -1.7508 -0.8760
  250MOL0     H32988   2.649  11.142   0.349 -2.0120 -0.4916 -1.7648
  250MOL0     H32989   2.888  11.140   0.276  3.3404  2.0965  0.1892
  250MOL0     H32990   3.078  11.141   0.188  0.0932 -1.0500  1.0868
  250MOL0     H32991   3.116  11.212   0.357 -0.5187  2.4169  0.0372
  250MOL0     H32992   3.228  11.310   0.099 -0.9347 -0.8967  0.0024
  250MOL0     H32993   3.271  11.358   0.261 -0.6699 -1.9338  3.4571
  250MOL0     H32994   3.294  11.094   0.130 -0.4953  0.4228  0.3144
  250MOL0     H32995   3.322  11.106   0.302 -2.8559 -2.1360 -0.8457
  250MOL0     H32996   3.537  11.242   0.261  0.3811 -2.3662  1.9107
  250MOL0     H32997   3.542  11.095   0.174 -0.1213  0.7404  1.9708
  250MOL0     H32998   3.527  11.388  -0.143 -2.2460 -0.8613  0.3748
  250MOL0     H32999   2.884  11.563   0.226 -2.2146  1.1462  0.4169
  250MOL0     H33000   2.652  11.571   0.314 -0.4964 -0.0105 -0.7877
  251MOL0     O33001   4.759   1.050   6.856  0.2459  0.4951 -0.1174
  251MOL0     C33002   4.754   0.997   6.748 -0.1815  0.7630  0.3612
  251MOL0     O33003   4.643   0.993   6.667 -0.5322 -0.0987 -0.2934
  251MOL0     C33004   4.516   0.984   6.704  0.9746 -0.6999 -0.1657
  251MOL0     C33005   4.413   0.986   6.601 -1.0236  0.1234  0.0318
  251MOL0     C33006   4.276   0.991   6.637 -0.0749 -0.2314 -0.4830
  251MOL0     C33007   4.238   1.006   6.768  0.0220  0.3813  0.4620
  251MOL0     O33008   4.116   1.008   6.805  0.8931 -0.5279  0.1499
  251MOL0     C33009   4.017   0.921   6.753 -1.0889 -0.4408 -0.5076
  251MOL0     C33010   3.929   0.987   6.639 -0.5808  0.0914  0.7218
  251MOL0     C33011   3.807   0.897   6.602 -0.4997 -0.8295  0.2760
  251MOL0     C33012   3.686   0.977   6.542  0.2373 -0.6780 -0.4542
  251MOL0     C33013   3.562   0.888   6.505  0.2487 -0.0784  0.9548
  251MOL0     C33014   3.472   0.835   6.625 -0.2730  0.3797 -0.3994
  251MOL0     C33015   3.340   0.774   6.572 -0.0081 -0.1732 -0.1374
  251MOL0     C33016   3.235   0.731   6.685 -0.9057 -0.4112 -0.3763
  251MOL0     N33017   3.171   0.843   6.748 -0.2452  0.6167  0.8010
  251MOL0     C33018   3.099   0.936   6.684  0.5368 -0.0689 -0.0763
  251MOL0     C33019   3.095   1.036   6.774  0.7082 -0.6836  0.2020
  251MOL0     C33020   3.046   1.176   6.756 -0.6255  0.2941 -0.3591
  251MOL0     C33021   2.889   1.171   6.734  0.3012  0.2436  0.1264
  251MOL0     C33022   2.826   1.305   6.721  0.2518 -0.3557  0.0430
  251MOL0     C33023   2.685   1.297   6.674 -0.5702  0.2120  0.6601
  251MOL0     O33024   2.612   1.207   6.752 -0.1079  0.8503 -1.1392
  251MOL0     C33025   2.481   1.179   6.718  0.0469  0.1997  0.3245
  251MOL0     C33026   2.421   1.224   6.598 -0.0549  0.5641 -0.0970
  251MOL0     C33027   2.288   1.178   6.573 -0.4923 -1.1060 -0.2013
  251MOL0     C33028   2.217   1.098   6.665  0.7369  1.1048 -0.3455
  251MOL0     C33029   2.081   1.060   6.638  0.1638  1.0255  0.6791
  251MOL0     O33030   2.025   0.985   6.731  0.0338  0.5890 -0.2682
  251MOL0     C33031   1.895   0.953   6.720  0.0205 -0.1935  0.5249
  251MOL0     C33032   1.810   1.054   6.693  0.7715 -0.2438  0.7772
  251MOL0     C33033   1.670   1.039   6.687  0.0065  0.1976 -0.3846
  251MOL0     C33034   1.623   0.907   6.708  0.0059  0.0249  0.3992
  251MOL0     O33035   1.483   0.883   6.703  0.5452 -1.0316 -1.0942
  251MOL0     C33036   1.426   0.752   6.693 -0.3848  0.0160 -0.6311
  251MOL0     C33037   1.274   0.760   6.692 -0.2246  0.0356 -0.0476
  251MOL0     C33038   1.205   0.809   6.820  1.0252  0.1150  0.0210
  251MOL0     C33039   1.052   0.831   6.812 -0.7416  1.4077  0.4513
  251MOL0     C33040   0.999   0.892   6.946  0.7547  0.4675 -0.4450
  251MOL0     C33041   0.842   0.908   6.933 -0.2105 -0.0684 -0.1216
  251MOL0     C33042   0.782   0.986   7.053 -0.8056 -0.5308 -0.5453
  251MOL0     C33043   0.631   1.005   7.055 -0.5700  0.1460  0.6862
  251MOL0    Cl33044   0.584   1.109   6.906  0.5260  0.0016 -0.1880
  251MOL0     C33045   1.712   0.805   6.717  0.9569  0.9459  0.5269
  251MOL0     C33046   1.848   0.824   6.730  0.0795  0.7340 -0.9724
  251MOL0     O33047   2.031   1.097   6.530 -0.1801 -0.2307 -0.0547
  251MOL0     C33048   2.289   1.054   6.784  0.4163 -0.7687  0.8438
  251MOL0     C33049   2.420   1.096   6.808 -0.6147  0.4261  0.6117
  251MOL0     N33050   3.139   0.995   6.898  0.3851  0.5842  0.3989
  251MOL0     N33051   3.187   0.875   6.879  0.1580 -0.1218  0.0828
  251MOL0     C33052   4.335   0.998   6.875  0.2224  0.5380 -0.0198
  251MOL0     C33053   4.475   0.987   6.844  1.0680  0.0067  1.4081
  251MOL0     C33054   4.879   0.941   6.712  0.3872  0.6975  0.6777
  251MOL0     C33055   4.971   0.906   6.808 -0.1830  0.8508 -0.0548
  251MOL0     C33056   5.094   0.854   6.765 -0.2693 -0.7748  0.4598
  251MOL0     C33057   5.120   0.851   6.626  0.4013 -0.7883 -0.1521
  251MOL0     O33058   5.249   0.818   6.591  0.1620  0.5805  0.1758
  251MOL0     C33059   5.335   0.744   6.685  0.4114 -0.3244 -0.0734
  251MOL0     C33060   5.444   0.665   6.604 -0.0545  0.1852 -0.0325
  251MOL0     C33061   5.555   0.758   6.546 -0.2377 -1.1049  0.5746
  251MOL0     C33062   5.665   0.690   6.465  0.5548 -0.2614  0.2894
  251MOL0     C33063   5.718   0.568   6.525  0.7694 -0.3449  0.3086
  251MOL0     C33064   5.782   0.491   6.595  1.0784 -0.5465  0.1795
  251MOL0     C33065   5.019   0.892   6.527 -0.4639 -0.3602  0.1763
  251MOL0     C33066   4.903   0.933   6.574 -0.5009  0.1727 -0.2972
  251MOL0     H33067   4.451   0.986   6.499 -0.2981  2.4918  0.2382
  251MOL0     H33068   4.211   0.990   6.550 -0.7727  3.0367 -0.1508
  251MOL0     H33069   3.942   0.924   6.833  0.2399  3.9482  0.8381
  251MOL0     H33070   4.047   0.817   6.734 -1.0660 -0.7807  1.1978
  251MOL0     H33071   3.987   1.009   6.549  0.9916  0.0723  1.6841
  251MOL0     H33072   3.891   1.079   6.684  0.9374  1.7244 -1.1508
  251MOL0     H33073   3.771   0.856   6.696 -1.0263  3.6618  2.2836
  251MOL0     H33074   3.847   0.813   6.544  1.7293  0.1131  0.3415
  251MOL0     H33075   3.663   1.063   6.606 -2.8788 -2.3130  0.8335
  251MOL0     H33076   3.717   1.025   6.448 -2.4239  3.1844  0.3837
  251MOL0     H33077   3.596   0.804   6.445 -3.5498 -2.0642  1.2495
  251MOL0     H33078   3.492   0.951   6.450 -0.1372  1.1461  2.7512
  251MOL0     H33079   3.455   0.924   6.686 -0.1282 -0.6010  1.1205
  251MOL0     H33080   3.529   0.763   6.685 -3.6777 -0.7068  1.8000
  251MOL0     H33081   3.297   0.847   6.503 -0.2691  1.4293  1.6111
  251MOL0     H33082   3.367   0.692   6.505  0.5292  0.4923 -0.7462
  251MOL0     H33083   3.285   0.667   6.758  0.3824 -1.5637 -2.2160
  251MOL0     H33084   3.154   0.686   6.627 -1.0898 -0.2863 -0.2187
  251MOL0     H33085   3.063   0.922   6.583  0.7357 -2.6807  0.1289
  251MOL0     H33086   3.110   1.217   6.678  1.2501  0.0408  0.9792
  251MOL0     H33087   3.054   1.239   6.845 -0.9866 -2.3343  1.6513
  251MOL0     H33088   2.836   1.119   6.814  1.8291 -1.0408  0.3481
  251MOL0     H33089   2.872   1.118   6.640 -1.7263 -0.3408  0.7881
  251MOL0     H33090   2.815   1.354   6.818  0.0858  0.7927 -0.5387
  251MOL0     H33091   2.885   1.371   6.657  1.1698  1.5574  2.6946
  251MOL0     H33092   2.683   1.257   6.573 -3.7216 -0.5200  0.9214
  251MOL0     H33093   2.644   1.398   6.686 -0.1666  0.6204 -1.1710
  251MOL0     H33094   2.468   1.289   6.525 -0.0910  1.8173  0.9493
  251MOL0     H33095   2.243   1.222   6.484  1.0966  1.6783  0.2528
  251MOL0     H33096   1.854   1.152   6.690 -0.8696  0.5186  0.3048
  251MOL0     H33097   1.611   1.128   6.670  1.3846  2.2964  4.1765
  251MOL0     H33098   1.460   0.699   6.782  1.5216  0.7272 -0.8941
  251MOL0     H33099   1.450   0.692   6.604 -2.0152 -3.2357  0.9552
  251MOL0     H33100   1.240   0.658   6.671  0.0182 -0.2868  1.0567
  251MOL0     H33101   1.249   0.816   6.601  1.9193  0.0450 -0.6738
  251MOL0     H33102   1.243   0.910   6.839 -0.8757  1.1027 -1.0899
  251MOL0     H33103   1.239   0.749   6.905  2.1429 -1.0091 -1.1739
  251MOL0     H33104   1.028   0.887   6.720  2.5294  0.2929 -1.2251
  251MOL0     H33105   1.004   0.732   6.813 -0.2792  1.1832  0.5964
  251MOL0     H33106   1.050   0.988   6.939  1.3824  0.1810  0.0797
  251MOL0     H33107   1.043   0.853   7.038  1.8987  5.0258  1.1892
  251MOL0     H33108   0.805   0.805   6.932  1.4539 -0.7175  0.4582
  251MOL0     H33109   0.818   0.954   6.837  0.3538 -2.6295 -1.5752
  251MOL0     H33110   0.827   0.951   7.146  1.7328  4.6132  0.5345
  251MOL0     H33111   0.822   1.087   7.062 -3.1162  0.2666  2.3336
  251MOL0     H33112   0.582   1.053   7.140  0.4420  1.6842  0.4273
  251MOL0     H33113   0.599   0.901   7.042  1.5124 -0.6570  1.5802
  251MOL0     H33114   1.676   0.703   6.715  1.3394  0.7770 -2.0675
  251MOL0     H33115   1.926   0.751   6.748 -0.4154  0.7891  1.9193
  251MOL0     H33116   2.231   1.023   6.870  0.6190 -1.2202  0.8181
  251MOL0     H33117   2.483   1.049   6.882 -2.0629 -0.2607  1.4413
  251MOL0     H33118   4.309   1.011   6.979  0.2394  0.3783  0.0044
  251MOL0     H33119   4.548   0.966   6.922 -0.4966 -2.0839  2.3978
  251MOL0     H33120   4.951   0.914   6.914  4.1999  0.7101  0.9944
  251MOL0     H33121   5.172   0.826   6.834  1.8032  1.5194 -0.8035
  251MOL0     H33122   5.271   0.673   6.738 -1.2983  0.3544 -1.1562
  251MOL0     H33123   5.374   0.817   6.757 -2.9551  2.2106 -0.5626
  251MOL0     H33124   5.486   0.587   6.669 -2.7299 -2.5654 -1.3512
  251MOL0     H33125   5.407   0.613   6.516  1.3830  1.1047 -1.2407
  251MOL0     H33126   5.599   0.811   6.631 -0.6283 -1.0523  0.7503
  251MOL0     H33127   5.507   0.833   6.481 -0.5411  0.4971  2.5354
  251MOL0     H33128   5.627   0.664   6.366 -0.2036  1.6806  0.0294
  251MOL0     H33129   5.748   0.760   6.454  0.9478 -0.4697  1.6724
  251MOL0     H33130   5.832   0.419   6.657  1.2635 -1.4706 -1.0193
  251MOL0     H33131   5.033   0.912   6.421 -3.0237 -0.0540 -0.1549
  251MOL0     H33132   4.834   0.978   6.505 -0.1874  1.6461  0.3201
  252MOL0     O33133   7.327   7.661  10.878  0.2972 -0.1609 -0.1050
  252MOL0     C33134   7.399   7.582  10.812 -0.0714  0.2786  0.5149
  252MOL0     O33135   7.366   7.505  10.715 -0.0112 -0.6628  0.3387
  252MOL0     C33136   7.234   7.487  10.675  0.1246  0.4245 -0.4151
  252MOL0     C33137   7.107   7.515  10.744 -0.4317 -0.7188  0.8398
  252MOL0     C33138   6.983   7.479  10.680 -0.9012 -1.0208 -0.3378
  252MOL0     C33139   6.980   7.417  10.550  0.4874  0.1729 -0.2695
  252MOL0     O33140   6.851   7.394  10.497 -0.2730  0.2564  0.0173
  252MOL0     C33141   6.834   7.312  10.376 -0.4151 -0.0780  0.3813
  252MOL0     C33142   6.843   7.170  10.421  0.5935 -0.0379  0.3607
  252MOL0     C33143   6.811   7.065  10.303  0.2074  0.5457 -0.4211
  252MOL0     C33144   6.847   6.916  10.335 -0.5401  0.1173  0.7059
  252MOL0     C33145   6.815   6.832  10.206 -0.0641 -0.1384  0.3012
  252MOL0     C33146   6.844   6.683  10.221  0.4863 -0.5568 -0.7575
  252MOL0     C33147   6.731   6.614  10.296  0.7508  0.7055 -0.0717
  252MOL0     C33148   6.590   6.650  10.253  0.2121  1.3322 -0.7237
  252MOL0     N33149   6.502   6.531  10.271 -0.5754  0.1010  0.0092
  252MOL0     C33150   6.458   6.486  10.392 -0.6394 -0.0626 -0.3346
  252MOL0     C33151   6.379   6.377  10.374 -0.6161 -0.5095 -0.4469
  252MOL0     C33152   6.289   6.296  10.461 -0.0444 -0.4080  0.0146
  252MOL0     C33153   6.147   6.338  10.476  0.6196  0.4332  0.0544
  252MOL0     C33154   6.060   6.322  10.346 -0.0899 -0.2028 -0.5440
  252MOL0     C33155   5.912   6.329  10.385 -0.0293 -0.0934  0.1233
  252MOL0     O33156   5.874   6.470  10.411 -0.3077  0.3638  0.2296
  252MOL0     C33157   5.745   6.491  10.433  0.2486 -0.6221  1.1731
  252MOL0     C33158   5.653   6.392  10.478 -0.2335 -0.5620  0.3777
  252MOL0     C33159   5.515   6.430  10.492 -0.6915  0.7585 -0.8797
  252MOL0     C33160   5.467   6.559  10.470  0.1838 -0.4663 -0.6388
  252MOL0     C33161   5.324   6.592  10.495 -0.8444  0.5790  0.0866
  252MOL0     O33162   5.292   6.719  10.465 -0.6315 -0.6119 -0.8243
  252MOL0     C33163   5.164   6.765  10.497  0.2607 -0.5338  0.6556
  252MOL0     C33164   5.090   6.821  10.389 -1.0111 -0.1338 -0.3633
  252MOL0     C33165   4.963   6.855  10.413 -0.4109 -0.2366 -0.2029
  252MOL0     C33166   4.895   6.833  10.529  0.1286 -0.3464  0.1637
  252MOL0     O33167   4.763   6.860  10.541  0.7501  0.2500  0.4340
  252MOL0     C33168   4.693   6.824  10.659 -1.8836 -0.3319 -0.2080
  252MOL0     C33169   4.556   6.878  10.641 -0.3154  0.8469  0.6662
  252MOL0     C33170   4.450   6.819  10.742 -0.7591  0.3453  0.6224
  252MOL0     C33171   4.316   6.897  10.718 -0.0880  1.2125 -0.2785
  252MOL0     C33172   4.204   6.825  10.802  0.0195 -0.1048  0.3337
  252MOL0     C33173   4.219   6.864  10.943 -0.4880 -0.0759  0.5012
  252MOL0     C33174   4.096   6.817  11.018 -0.2959 -0.4982  0.5206
  252MOL0     C33175   4.129   6.814  11.168  0.1949  0.1657  0.1728
  252MOL0    Cl33176   4.223   6.669  11.217 -0.1421  0.2950  0.1709
  252MOL0     C33177   4.974   6.800  10.639 -0.1413 -0.0909  0.4021
  252MOL0     C33178   5.112   6.769  10.620  0.5616  0.1926 -0.2962
  252MOL0     O33179   5.245   6.496  10.505  0.9025  0.1776  0.4496
  252MOL0     C33180   5.556   6.650  10.428  0.8204 -0.3769 -0.0022
  252MOL0     C33181   5.693   6.622  10.418  0.1342 -1.4539 -0.7653
  252MOL0     N33182   6.396   6.352  10.241  0.5884  0.1219  0.1586
  252MOL0     N33183   6.471   6.440  10.180  0.1091  0.0340  0.5494
  252MOL0     C33184   7.106   7.393  10.489  0.6511  0.1095  0.3209
  252MOL0     C33185   7.226   7.428  10.555  0.1812  0.2439  0.0524
  252MOL0     C33186   7.546   7.586  10.833 -0.2954  0.2536  0.2962
  252MOL0     C33187   7.632   7.498  10.777 -0.1878  0.2714  0.5459
  252MOL0     C33188   7.773   7.496  10.808  0.8250 -0.6778 -0.2115
  252MOL0     C33189   7.822   7.589  10.898 -0.2885 -0.1380  0.5991
  252MOL0     O33190   7.960   7.583  10.934  0.0043  0.4734 -0.2699
  252MOL0     C33191   8.019   7.456  10.952 -0.1031  0.4436 -0.0753
  252MOL0     C33192   8.165   7.477  10.962 -0.0533  0.4805  0.7351
  252MOL0     C33193   8.247   7.345  10.963  0.4698  0.6290  0.8136
  252MOL0     C33194   8.376   7.359  11.049  0.6398  0.0528  0.8551
  252MOL0     C33195   8.458   7.240  11.033 -0.1808  0.3165 -0.4065
  252MOL0     C33196   8.528   7.141  11.020 -1.0819 -0.1582  0.0100
  252MOL0     C33197   7.739   7.687  10.948  0.1869 -0.2859 -0.2849
  252MOL0     C33198   7.607   7.690  10.915 -0.3093 -0.1268 -0.1591
  252MOL0     H33199   7.090   7.559  10.842 -0.3342 -2.4151  1.6636
  252MOL0     H33200   6.895   7.510  10.736 -1.0546  0.3007 -1.2396
  252MOL0     H33201   6.898   7.339  10.292  0.3732 -3.2300 -0.1343
  252MOL0     H33202   6.730   7.327  10.345 -1.0238  0.5983  2.5385
  252MOL0     H33203   6.776   7.165  10.507 -3.1624 -1.6856 -2.3695
  252MOL0     H33204   6.949   7.166  10.446  1.2906  4.8475 -0.7848
  252MOL0     H33205   6.856   7.090  10.206 -0.6789  0.7547 -0.7936
  252MOL0     H33206   6.702   7.065  10.293  0.3945  1.9016 -3.6053
  252MOL0     H33207   6.947   6.891  10.371 -1.0756 -2.6180  0.4572
  252MOL0     H33208   6.780   6.887  10.416  0.4539 -2.5169  0.6732
  252MOL0     H33209   6.888   6.857  10.129 -1.3091  1.6850 -0.3570
  252MOL0     H33210   6.718   6.857  10.162  0.4161  1.2895 -0.0047
  252MOL0     H33211   6.944   6.669  10.263 -0.5771 -1.9962  1.5114
  252MOL0     H33212   6.855   6.654  10.116  2.8688  2.7130 -1.5806
  252MOL0     H33213   6.754   6.509  10.277  1.5910  0.5825  1.4700
  252MOL0     H33214   6.739   6.636  10.403 -0.7155  0.6223  0.0717
  252MOL0     H33215   6.591   6.675  10.147 -3.8450 -0.1637 -1.3206
  252MOL0     H33216   6.556   6.735  10.314  1.0968 -0.1260  2.0009
  252MOL0     H33217   6.472   6.530  10.491 -0.5770  0.0015 -0.3723
  252MOL0     H33218   6.342   6.313  10.556  1.1795  0.6390 -0.8183
  252MOL0     H33219   6.300   6.188  10.449 -0.4387 -0.2285 -2.6131
  252MOL0     H33220   6.135   6.444  10.499  0.0170  0.1158  1.2995
  252MOL0     H33221   6.108   6.275  10.557  0.1138  1.6154  0.7453
  252MOL0     H33222   6.083   6.387  10.261  0.7832 -2.6569 -2.2699
  252MOL0     H33223   6.082   6.224  10.304  0.8677  0.0754 -0.7125
  252MOL0     H33224   5.892   6.252  10.460  0.1907 -0.7145 -0.4465
  252MOL0     H33225   5.854   6.307  10.295 -0.5765  0.2789  0.3757
  252MOL0     H33226   5.682   6.288  10.487 -0.5160 -0.8095 -1.3121
  252MOL0     H33227   5.439   6.363  10.530 -0.6828 -0.4919 -2.9344
  252MOL0     H33228   5.141   6.837  10.295 -0.7538 -2.3393 -0.6326
  252MOL0     H33229   4.900   6.900  10.337 -3.0176  1.6318  2.8238
  252MOL0     H33230   4.745   6.877  10.738  1.0118 -1.7402 -1.0401
  252MOL0     H33231   4.703   6.717  10.675  3.5739  0.0343  0.6844
  252MOL0     H33232   4.521   6.844  10.543  0.2280 -2.3772  1.4941
  252MOL0     H33233   4.560   6.987  10.644  0.6948  0.8716 -0.4931
  252MOL0     H33234   4.485   6.833  10.845 -0.8991 -0.5269  0.7991
  252MOL0     H33235   4.436   6.711  10.738  2.9906 -0.2089 -1.3575
  252MOL0     H33236   4.319   7.005  10.728  0.4710  1.0701  1.2511
  252MOL0     H33237   4.283   6.884  10.614 -1.5550  1.2783  0.1631
  252MOL0     H33238   4.208   6.716  10.792 -0.3419 -0.1073  0.2009
  252MOL0     H33239   4.106   6.849  10.760 -0.0107  0.7918  0.8819
  252MOL0     H33240   4.239   6.971  10.959  0.5446 -0.7398  5.1662
  252MOL0     H33241   4.297   6.805  10.993 -0.7248  0.8544  2.0333
  252MOL0     H33242   4.009   6.879  10.996  1.6624  1.2882 -3.0835
  252MOL0     H33243   4.082   6.711  10.997 -1.0089 -0.6641  1.7600
  252MOL0     H33244   4.038   6.812  11.228 -1.1065 -1.4753 -1.7252
  252MOL0     H33245   4.173   6.910  11.195 -2.6631  1.0344  2.1485
  252MOL0     H33246   4.933   6.787  10.738 -1.8660 -0.4804 -0.3405
  252MOL0     H33247   5.169   6.727  10.702 -0.7960  0.5480  0.8742
  252MOL0     H33248   5.529   6.755  10.419  0.0635 -0.3628  1.8744
  252MOL0     H33249   5.759   6.708  10.406 -2.6139  1.1074  0.9999
  252MOL0     H33250   7.102   7.339  10.395 -2.0490  1.7593 -0.6066
  252MOL0     H33251   7.320   7.416  10.502 -0.6307  2.3915 -2.0496
  252MOL0     H33252   7.595   7.424  10.707  0.8524  1.3583 -1.2590
  252MOL0     H33253   7.831   7.421  10.755 -0.5233 -0.9479 -1.3805
  252MOL0     H33254   7.998   7.382  10.874 -3.1060  1.5099 -0.4149
  252MOL0     H33255   7.990   7.414  11.049  0.2899  2.2811  0.8855
  252MOL0     H33256   8.196   7.550  10.887 -1.7524  0.9446  0.4342
  252MOL0     H33257   8.177   7.523  11.060  1.8526  1.3708  0.1282
  252MOL0     H33258   8.269   7.312  10.862 -0.8867 -0.2707  0.7992
  252MOL0     H33259   8.185   7.271  11.014 -0.6796  0.2820 -0.9900
  252MOL0     H33260   8.438   7.434  10.999  2.0566 -0.9269  1.0555
  252MOL0     H33261   8.350   7.376  11.153 -0.1273  0.0060  0.6722
  252MOL0     H33262   8.588   7.052  11.011  0.4449  0.7120  1.0455
  252MOL0     H33263   7.770   7.769  11.012  1.0454 -1.1930  0.5172
  252MOL0     H33264   7.548   7.762  10.972  1.4484  1.2689  0.0027
  253MOL0     O33265   4.789   9.588   8.349  0.7480 -0.2927 -0.2869
  253MOL0     C33266   4.844   9.478   8.362 -0.8776 -1.1485  0.8883
  253MOL0     O33267   4.783   9.367   8.369 -0.0967  0.1362 -0.6490
  253MOL0     C33268   4.656   9.363   8.412  0.2052  1.0201 -0.4176
  253MOL0     C33269   4.628   9.338   8.551  0.4610  1.1088 -0.3277
  253MOL0     C33270   4.498   9.333   8.589  0.6683 -0.3171  0.0223
  253MOL0     C33271   4.398   9.344   8.493  0.5437 -0.0337 -0.0802
  253MOL0     O33272   4.261   9.340   8.526  0.6796 -0.3834  0.0964
  253MOL0     C33273   4.214   9.274   8.647  0.5450 -0.0688 -0.4086
  253MOL0     C33274   4.072   9.319   8.682  0.3707 -0.1579 -0.4285
  253MOL0     C33275   4.004   9.221   8.774  1.5101 -0.3388 -0.8299
  253MOL0     C33276   3.851   9.252   8.773  0.8489  0.3003  0.7945
  253MOL0     C33277   3.760   9.151   8.853  0.0516 -0.4439 -0.3196
  253MOL0     C33278   3.606   9.175   8.842  0.5157 -0.2052  0.1662
  253MOL0     C33279   3.534   9.084   8.936 -0.7018 -0.2185 -0.7529
  253MOL0     C33280   3.383   9.075   8.913  0.0478 -0.3067  0.5423
  253MOL0     N33281   3.312   8.981   9.009 -0.5179  0.4132  0.3326
  253MOL0     C33282   3.201   8.913   8.972 -0.1677  0.7698 -0.0388
  253MOL0     C33283   3.145   8.859   9.085 -0.5965 -0.6488 -0.5393
  253MOL0     C33284   3.021   8.775   9.088  0.7427  0.0714  0.3201
  253MOL0     C33285   2.953   8.781   9.230  0.0051  0.5333  0.0171
  253MOL0     C33286   2.802   8.739   9.220  0.5645 -0.5502  0.2804
  253MOL0     C33287   2.699   8.848   9.201 -0.4480 -0.4697  0.4023
  253MOL0     O33288   2.578   8.780   9.167 -0.2007 -0.7991 -0.5629
  253MOL0     C33289   2.461   8.844   9.143  1.2104 -0.8307 -1.0075
  253MOL0     C33290   2.338   8.778   9.136  0.3064  0.2406 -0.3446
  253MOL0     C33291   2.213   8.850   9.122  0.6460 -0.0307  0.9635
  253MOL0     C33292   2.208   8.986   9.107 -0.0809 -0.0123 -0.2034
  253MOL0     C33293   2.090   9.065   9.094  0.0975  0.3673 -0.5989
  253MOL0     O33294   1.985   9.022   9.165  0.2018  0.4821 -0.3233
  253MOL0     C33295   1.851   9.063   9.137 -0.4191 -0.3450  0.3112
  253MOL0     C33296   1.747   9.049   9.238  0.3009  0.2476  0.9264
  253MOL0     C33297   1.624   9.101   9.239 -0.2519  0.0863  1.8827
  253MOL0     C33298   1.575   9.169   9.123 -1.0835 -0.4011  0.6259
  253MOL0     O33299   1.456   9.241   9.134 -0.3481  1.4637  0.1678
  253MOL0     C33300   1.395   9.288   9.011  0.8538 -0.1558  0.9140
  253MOL0     C33301   1.279   9.383   9.031  0.5504 -0.1868 -0.8066
  253MOL0     C33302   1.149   9.330   9.089 -0.1584  0.1936 -0.1730
  253MOL0     C33303   1.146   9.338   9.243 -0.0005 -1.4340 -1.2280
  253MOL0     C33304   1.022   9.266   9.286 -0.1771 -1.3027  0.0518
  253MOL0     C33305   0.944   9.355   9.385 -0.5392 -0.2978 -0.2536
  253MOL0     C33306   0.832   9.278   9.455 -0.1036 -0.5226 -0.1184
  253MOL0     C33307   0.885   9.211   9.581  0.5505  0.5128 -0.6056
  253MOL0    Cl33308   0.758   9.150   9.690  0.2115  0.2708 -0.1711
  253MOL0     C33309   1.672   9.180   9.020  0.4556 -0.3082 -0.2845
  253MOL0     C33310   1.802   9.124   9.023  0.7813  0.5336 -1.0660
  253MOL0     O33311   2.091   9.169   9.032 -0.3224 -0.3813 -0.4932
  253MOL0     C33312   2.336   9.044   9.109  1.1885 -1.2230 -0.1987
  253MOL0     C33313   2.463   8.981   9.126  0.7032  0.3585  0.9258
  253MOL0     N33314   3.235   8.899   9.188 -0.7215 -0.7257  0.4639
  253MOL0     N33315   3.326   8.982   9.147 -0.0490  0.0445 -0.0858
  253MOL0     C33316   4.426   9.349   8.357 -0.1594  0.0042 -0.2600
  253MOL0     C33317   4.555   9.368   8.316 -0.7910  0.3816 -0.6830
  253MOL0     C33318   4.992   9.472   8.371 -0.1711  0.6253 -0.0026
  253MOL0     C33319   5.060   9.585   8.336  0.0415 -0.0646 -0.8730
  253MOL0     C33320   5.196   9.584   8.351 -0.7789 -0.6433  0.2029
  253MOL0     C33321   5.272   9.473   8.412  0.3775 -0.2782  0.7693
  253MOL0     O33322   5.405   9.493   8.421 -0.0373  0.6361  1.0264
  253MOL0     C33323   5.492   9.385   8.475  0.0270 -0.4649  0.0451
  253MOL0     C33324   5.563   9.429   8.590 -0.0033 -0.2097 -0.6078
  253MOL0     C33325   5.645   9.557   8.563 -0.4169  0.1669  0.5275
  253MOL0     C33326   5.707   9.618   8.688  0.5101  0.2820  0.5057
  253MOL0     C33327   5.753   9.750   8.668 -0.5093 -0.4366  0.6782
  253MOL0     C33328   5.801   9.861   8.644 -0.4645 -0.7971  1.0475
  253MOL0     C33329   5.195   9.367   8.442 -0.2875  0.1879  0.6410
  253MOL0     C33330   5.055   9.357   8.425 -0.0787 -0.0788  0.8962
  253MOL0     H33331   4.705   9.320   8.625 -2.0589 -0.6338  2.0533
  253MOL0     H33332   4.476   9.321   8.695  0.1356 -2.0444 -0.2465
  253MOL0     H33333   4.269   9.288   8.741 -2.8326 -1.3892  1.9957
  253MOL0     H33334   4.217   9.166   8.632  0.2583 -0.0476 -0.6212
  253MOL0     H33335   4.022   9.325   8.585  1.3594  0.4893 -0.9093
  253MOL0     H33336   4.073   9.413   8.736 -1.3324 -0.9743  1.1574
  253MOL0     H33337   4.038   9.226   8.878  1.2899 -1.9404 -0.6440
  253MOL0     H33338   4.031   9.118   8.748  1.7687 -0.1061 -1.5083
  253MOL0     H33339   3.838   9.349   8.822 -0.4263 -0.1369  1.3592
  253MOL0     H33340   3.819   9.257   8.669 -0.5050  2.1859  1.2447
  253MOL0     H33341   3.790   9.168   8.957  3.2655 -5.1116 -0.1604
  253MOL0     H33342   3.781   9.046   8.829  0.5060 -0.5786  0.6231
  253MOL0     H33343   3.578   9.141   8.742  1.6853  1.0434 -0.6266
  253MOL0     H33344   3.577   9.280   8.850  0.7555 -0.2362  1.6401
  253MOL0     H33345   3.560   8.986   8.895 -1.1956 -0.3972 -0.6464
  253MOL0     H33346   3.556   9.097   9.042  2.1517 -2.5806 -0.9131
  253MOL0     H33347   3.345   9.041   8.816 -1.4472 -1.1854  1.4121
  253MOL0     H33348   3.342   9.175   8.899  0.2818 -0.6475 -3.9519
  253MOL0     H33349   3.167   8.910   8.869 -2.4469 -0.7736  0.6693
  253MOL0     H33350   3.039   8.678   9.042  2.5047  0.7725 -0.5748
  253MOL0     H33351   2.958   8.823   9.012 -1.3809 -2.0519  0.6269
  253MOL0     H33352   2.958   8.886   9.258  1.4084 -0.1712  2.7039
  253MOL0     H33353   3.006   8.715   9.299  0.2703  0.4128 -0.3002
  253MOL0     H33354   2.784   8.663   9.144  0.4628 -1.2737  1.0177
  253MOL0     H33355   2.784   8.695   9.318 -2.5736  0.4082  0.2339
  253MOL0     H33356   2.720   8.930   9.132 -1.2176  2.1565  3.0560
  253MOL0     H33357   2.688   8.902   9.296  2.2446  0.7587  0.0975
  253MOL0     H33358   2.340   8.673   9.165 -0.3730  0.3897  0.2601
  253MOL0     H33359   2.116   8.801   9.118  0.2214  0.8576 -1.1915
  253MOL0     H33360   1.780   9.002   9.330  0.2312 -0.6686  0.4881
  253MOL0     H33361   1.563   9.078   9.326  0.6601 -0.3382  2.4246
  253MOL0     H33362   1.366   9.199   8.956  0.2254 -1.2129  2.8693
  253MOL0     H33363   1.459   9.347   8.945 -0.7547 -1.2778 -1.7703
  253MOL0     H33364   1.249   9.426   8.936 -1.1756  0.7919  0.1286
  253MOL0     H33365   1.305   9.463   9.102 -3.0755  1.0601 -0.6868
  253MOL0     H33366   1.143   9.227   9.052 -3.0749  1.0246 -2.4465
  253MOL0     H33367   1.057   9.367   9.044 -1.1516 -2.0876 -0.1601
  253MOL0     H33368   1.233   9.304   9.301  1.7467  3.0338 -0.8340
  253MOL0     H33369   1.156   9.445   9.260  0.2212 -1.7464  0.9722
  253MOL0     H33370   1.063   9.175   9.330  1.1744 -0.9311 -0.3819
  253MOL0     H33371   0.957   9.248   9.200 -0.9715 -0.3103  0.4256
  253MOL0     H33372   0.889   9.430   9.329 -2.1820 -0.2397  1.3435
  253MOL0     H33373   1.005   9.405   9.461 -1.3694  1.6313 -0.8068
  253MOL0     H33374   0.753   9.349   9.480 -1.7494 -1.5643 -2.1050
  253MOL0     H33375   0.783   9.207   9.388 -3.1017 -0.4530  1.8181
  253MOL0     H33376   0.942   9.278   9.647 -0.1655 -0.5393  1.1714
  253MOL0     H33377   0.951   9.125   9.563  0.1520 -0.1706  1.0012
  253MOL0     H33378   1.658   9.251   8.939  2.0487 -0.9485 -1.1716
  253MOL0     H33379   1.877   9.157   8.951 -1.5506  3.9808 -2.1598
  253MOL0     H33380   2.343   9.152   9.105 -0.8625 -0.7981  3.1137
  253MOL0     H33381   2.554   9.039   9.113  0.3761  0.6136 -0.4535
  253MOL0     H33382   4.348   9.359   8.283 -0.4837 -0.0457  0.0715
  253MOL0     H33383   4.570   9.393   8.212  1.9304 -1.3608 -0.7834
  253MOL0     H33384   5.027   9.674   8.283  1.7167 -0.1963 -2.2405
  253MOL0     H33385   5.256   9.663   8.307 -1.1795 -1.3988 -1.8393
  253MOL0     H33386   5.559   9.360   8.392 -0.1864 -0.4886 -0.1223
  253MOL0     H33387   5.435   9.295   8.503 -1.0088  0.4231  0.8660
  253MOL0     H33388   5.499   9.448   8.677 -0.3289  1.7973 -1.2412
  253MOL0     H33389   5.640   9.353   8.608 -0.5568 -0.9255 -1.2247
  253MOL0     H33390   5.579   9.623   8.506  1.5167  1.5280 -0.2600
  253MOL0     H33391   5.729   9.539   8.495 -0.2563  2.0508  0.1603
  253MOL0     H33392   5.624   9.622   8.759 -0.6338 -0.6566 -0.7096
  253MOL0     H33393   5.782   9.549   8.728 -0.1061 -0.0291  1.1384
  253MOL0     H33394   5.855   9.953   8.625 -2.8039  0.4399 -0.0102
  253MOL0     H33395   5.234   9.285   8.502 -1.0060  0.7492  1.9076
  253MOL0     H33396   5.005   9.264   8.448 -2.1244  1.0046  1.0496
  254MOL0     O33397   2.961   2.505   2.702 -0.6604  0.2117  1.3694
  254MOL0     C33398   3.021   2.495   2.596  0.3941 -0.3186  0.0185
  254MOL0     O33399   2.958   2.484   2.478 -0.6697 -0.0860  0.0756
  254MOL0     C33400   2.818   2.486   2.473 -0.4694  0.6650  0.0079
  254MOL0     C33401   2.767   2.583   2.390 -0.3042  1.1222  0.1777
  254MOL0     C33402   2.628   2.609   2.393  0.0096 -0.0457 -0.0654
  254MOL0     C33403   2.542   2.513   2.455 -0.4395 -0.8775 -0.3848
  254MOL0     O33404   2.410   2.531   2.435  0.1969  0.5001 -0.3972
  254MOL0     C33405   2.319   2.489   2.535  0.0511 -0.5791  0.2485
  254MOL0     C33406   2.181   2.561   2.531 -0.2430  0.0739 -0.0163
  254MOL0     C33407   2.082   2.519   2.651  0.3508 -0.4418  1.5792
  254MOL0     C33408   1.956   2.616   2.639 -0.0359  0.1530  0.5144
  254MOL0     C33409   1.843   2.595   2.737  0.3890 -0.4765 -0.0244
  254MOL0     C33410   1.760   2.466   2.722 -0.1183  0.5898 -0.5071
  254MOL0     C33411   1.656   2.459   2.827 -0.1301 -0.4377 -1.3289
  254MOL0     C33412   1.561   2.346   2.814  0.3796  0.4179  0.3522
  254MOL0     N33413   1.459   2.351   2.925  0.5917  0.1125  0.2780
  254MOL0     C33414   1.478   2.361   3.057 -0.2623  0.2346 -1.2250
  254MOL0     C33415   1.351   2.348   3.110 -0.4101  0.5695 -0.4155
  254MOL0     C33416   1.317   2.352   3.258 -0.5910  0.0276  0.2131
  254MOL0     C33417   1.160   2.353   3.284 -0.2345 -0.4720  0.3932
  254MOL0     C33418   1.136   2.367   3.429  1.1679 -0.0599 -0.0751
  254MOL0     C33419   0.997   2.431   3.439  0.8270 -0.3530 -0.3319
  254MOL0     O33420   0.897   2.374   3.352 -0.5909 -0.1460  0.5462
  254MOL0     C33421   0.808   2.464   3.311  0.9467 -0.7604 -0.6640
  254MOL0     C33422   0.823   2.555   3.200 -0.0186 -0.7806 -0.9383
  254MOL0     C33423   0.713   2.627   3.150  1.0245 -0.6732  1.0284
  254MOL0     C33424   0.582   2.623   3.217  0.1168 -0.1464 -0.0319
  254MOL0     C33425   0.455   2.659   3.153  0.0268  0.4215  0.2998
  254MOL0     O33426   0.347   2.652   3.226  0.0547 -0.2076 -0.2695
  254MOL0     C33427   0.208   2.663   3.184 -0.2724  0.5247  0.0820
  254MOL0     C33428   0.162   2.724   3.067  0.9041  0.3254 -0.1171
  254MOL0     C33429   0.022   2.728   3.049 -0.2699  0.1508 -0.4555
  254MOL0     C33430  -0.066   2.698   3.154 -0.3571  0.9021  1.0229
  254MOL0     O33431  -0.200   2.712   3.141 -0.0443  0.0143 -0.4403
  254MOL0     C33432  -0.246   2.826   3.063  0.7690 -0.2271  0.3460
  254MOL0     C33433  -0.391   2.863   3.111 -0.2234  0.4469 -0.1079
  254MOL0     C33434  -0.453   2.946   3.009  0.7189  0.3383 -0.3072
  254MOL0     C33435  -0.594   3.006   3.051 -0.2649 -0.0312  0.0707
  254MOL0     C33436  -0.641   3.095   2.942  0.0881  0.0589  0.0479
  254MOL0     C33437  -0.735   3.198   2.997  1.6901 -0.2890  0.2008
  254MOL0     C33438  -0.830   3.272   2.890  0.8939 -0.1331 -0.5633
  254MOL0     C33439  -0.911   3.366   2.969 -0.1355  0.4846  0.8969
  254MOL0    Cl33440  -0.819   3.506   3.004  0.0516 -0.0091 -0.1162
  254MOL0     C33441  -0.016   2.633   3.260 -0.5100  0.3795 -1.0591
  254MOL0     C33442   0.115   2.622   3.276 -0.2396  0.5186 -0.6601
  254MOL0     O33443   0.456   2.683   3.034  0.3543 -0.1815  0.0919
  254MOL0     C33444   0.580   2.541   3.340 -0.2942  0.2249 -0.0804
  254MOL0     C33445   0.687   2.467   3.375  0.6246 -0.1944  0.0912
  254MOL0     N33446   1.263   2.332   3.008 -0.1811 -0.0758  0.2790
  254MOL0     N33447   1.326   2.327   2.895 -0.3098 -0.3727 -0.7932
  254MOL0     C33448   2.597   2.415   2.537  0.9560 -0.9043  0.5762
  254MOL0     C33449   2.735   2.399   2.549  0.2674 -0.9762  0.3567
  254MOL0     C33450   3.171   2.503   2.594 -0.7637  0.0802 -0.2038
  254MOL0     C33451   3.232   2.443   2.488  0.2480 -0.1563 -0.8495
  254MOL0     C33452   3.369   2.461   2.470 -0.1338 -0.0196 -0.4724
  254MOL0     C33453   3.444   2.515   2.578 -1.2615  0.1312  0.1931
  254MOL0     O33454   3.579   2.501   2.589 -0.5916 -0.4295 -0.0855
  254MOL0     C33455   3.647   2.484   2.460  0.3536  0.6962 -0.6519
  254MOL0     C33456   3.799   2.501   2.492 -0.4326  0.5742 -0.3797
  254MOL0     C33457   3.847   2.647   2.539  0.2310 -0.0636 -0.1184
  254MOL0     C33458   3.820   2.760   2.449  0.1988  0.0398  0.3398
  254MOL0     C33459   3.903   2.877   2.480 -0.8322  0.9133 -0.1965
  254MOL0     C33460   3.976   2.968   2.503 -0.0493  0.8742 -0.0542
  254MOL0     C33461   3.379   2.567   2.686 -0.1711 -0.1110 -1.2225
  254MOL0     C33462   3.243   2.563   2.694  0.6514  0.4446 -0.9857
  254MOL0     H33463   2.830   2.657   2.343 -3.0469  1.1033 -4.0994
  254MOL0     H33464   2.596   2.690   2.328 -0.7528  0.8128  1.3215
  254MOL0     H33465   2.354   2.511   2.636  1.5237 -0.0193 -0.3534
  254MOL0     H33466   2.302   2.381   2.538 -0.7512 -0.4278  2.4756
  254MOL0     H33467   2.129   2.520   2.444  0.8188 -0.0519 -0.6106
  254MOL0     H33468   2.188   2.669   2.515 -1.8072  0.1147 -0.6424
  254MOL0     H33469   2.123   2.524   2.752 -0.0318 -0.1456  1.7244
  254MOL0     H33470   2.042   2.419   2.633 -0.7743  0.4368 -1.4461
  254MOL0     H33471   1.996   2.717   2.649 -1.7758  1.1075 -1.5971
  254MOL0     H33472   1.908   2.615   2.541  0.3548  1.7993  0.2746
  254MOL0     H33473   1.769   2.675   2.732  0.1545 -0.6641  0.3939
  254MOL0     H33474   1.885   2.599   2.838  1.7230 -1.9892 -0.4790
  254MOL0     H33475   1.828   2.381   2.738  2.3886  2.2847 -1.6019
  254MOL0     H33476   1.711   2.445   2.627  0.7363 -0.4090 -0.7429
  254MOL0     H33477   1.701   2.475   2.926  0.3366  2.2840 -1.9042
  254MOL0     H33478   1.598   2.550   2.815  0.7283  0.3070 -0.1097
  254MOL0     H33479   1.613   2.252   2.838  0.0600  0.1657  0.0656
  254MOL0     H33480   1.511   2.341   2.717  3.1937  0.2855 -1.2229
  254MOL0     H33481   1.565   2.385   3.117 -1.1297  0.3073  0.0260
  254MOL0     H33482   1.367   2.435   3.309  0.3575 -1.4515  1.8487
  254MOL0     H33483   1.358   2.264   3.308  1.6124  1.0402  0.2979
  254MOL0     H33484   1.117   2.259   3.248 -1.0892  0.6817 -1.7898
  254MOL0     H33485   1.124   2.437   3.225 -0.9676 -0.9259  0.1888
  254MOL0     H33486   1.136   2.265   3.469  0.9309  0.5837  1.6663
  254MOL0     H33487   1.212   2.430   3.475  0.1624  2.2780 -1.4123
  254MOL0     H33488   1.018   2.537   3.421  1.4874 -0.8807 -3.1615
  254MOL0     H33489   0.957   2.413   3.539  0.1268  1.4929 -0.2336
  254MOL0     H33490   0.919   2.560   3.150 -0.0197 -0.8676 -0.9491
  254MOL0     H33491   0.721   2.678   3.054  0.2158 -1.1566  0.6879
  254MOL0     H33492   0.224   2.767   2.990 -1.5615  0.3905 -2.2162
  254MOL0     H33493  -0.010   2.775   2.956  3.5068  2.2595 -0.8821
  254MOL0     H33494  -0.255   2.793   2.959 -1.7397 -0.5175  0.6016
  254MOL0     H33495  -0.189   2.920   3.057 -1.9016  1.4104 -2.6470
  254MOL0     H33496  -0.377   2.906   3.211  0.5147  4.4033 -1.7112
  254MOL0     H33497  -0.455   2.775   3.104 -2.4870  1.8565  1.5019
  254MOL0     H33498  -0.476   2.900   2.912 -5.0742 -0.6362  1.1388
  254MOL0     H33499  -0.394   3.036   2.989  0.3883  0.8991  1.1033
  254MOL0     H33500  -0.673   2.931   3.068 -2.0595  1.5113 -1.0404
  254MOL0     H33501  -0.573   3.056   3.145  3.0546 -0.8357 -0.1221
  254MOL0     H33502  -0.697   3.034   2.870  2.6129 -2.2441 -0.1120
  254MOL0     H33503  -0.560   3.143   2.887  0.1601  0.8826  0.8589
  254MOL0     H33504  -0.668   3.276   3.033 -0.7621  2.0861 -0.0265
  254MOL0     H33505  -0.794   3.145   3.073 -1.5267  0.8992 -1.2645
  254MOL0     H33506  -0.766   3.330   2.823 -0.2414  3.9847  1.5387
  254MOL0     H33507  -0.899   3.205   2.838 -0.3926  1.2900 -0.7533
  254MOL0     H33508  -0.955   3.330   3.063  1.7207 -0.8102  1.3309
  254MOL0     H33509  -1.001   3.401   2.918  0.4472  0.7026  0.0052
  254MOL0     H33510  -0.080   2.612   3.346  0.3959  2.6744  0.2775
  254MOL0     H33511   0.158   2.576   3.365 -0.8181 -0.9361 -1.0956
  254MOL0     H33512   0.481   2.520   3.381  0.1336 -1.5316  0.1087
  254MOL0     H33513   0.670   2.401   3.460 -1.4590  0.6720  0.4052
  254MOL0     H33514   2.534   2.349   2.595  2.1474 -0.4170  2.5055
  254MOL0     H33515   2.782   2.335   2.623  0.1275  0.5456  1.7958
  254MOL0     H33516   3.175   2.383   2.417  0.6590 -0.1633 -1.1766
  254MOL0     H33517   3.416   2.409   2.387  0.8352  2.0795 -1.3227
  254MOL0     H33518   3.621   2.552   2.379 -2.3451 -0.5799 -0.9643
  254MOL0     H33519   3.634   2.382   2.424  2.1247  0.3625 -0.4244
  254MOL0     H33520   3.829   2.435   2.574  2.5190  0.4493 -1.4521
  254MOL0     H33521   3.863   2.476   2.407 -0.4160 -1.3107  0.1413
  254MOL0     H33522   3.953   2.651   2.561  0.1833  0.5641 -0.0052
  254MOL0     H33523   3.797   2.667   2.634  0.4479  0.6979 -0.1622
  254MOL0     H33524   3.848   2.722   2.350  0.7955 -0.4528  0.6852
  254MOL0     H33525   3.713   2.777   2.456 -0.1959 -2.6326  2.6390
  254MOL0     H33526   4.045   3.045   2.532 -1.5068  1.2121  2.9571
  254MOL0     H33527   3.439   2.595   2.772  0.1528 -1.3298 -1.0295
  254MOL0     H33528   3.199   2.604   2.785  0.0464 -0.3253 -0.9082
  255MOL0     O33529   2.492   0.699  10.373 -0.3299  0.2924 -0.2619
  255MOL0     C33530   2.535   0.810  10.348 -0.3210  0.5725 -1.8288
  255MOL0     O33531   2.456   0.913  10.329  0.0032 -0.3162 -0.4666
  255MOL0     C33532   2.320   0.911  10.358  0.4459  0.8397 -0.1217
  255MOL0     C33533   2.226   0.890  10.257  0.7188 -0.1960 -0.0146
  255MOL0     C33534   2.092   0.897  10.286 -0.7769  0.1802  0.2386
  255MOL0     C33535   2.036   0.911  10.409 -0.0117 -0.2207  0.5084
  255MOL0     O33536   1.901   0.906  10.439 -0.0590 -0.2816  0.0621
  255MOL0     C33537   1.822   0.967  10.332  0.0837  0.2466 -0.7017
  255MOL0     C33538   1.675   0.986  10.367  0.3210 -0.5081 -0.4965
  255MOL0     C33539   1.595   1.020  10.237  0.1610 -0.0477  0.5860
  255MOL0     C33540   1.596   1.174  10.225  0.3813 -0.4206  0.2752
  255MOL0     C33541   1.512   1.233  10.103 -0.8516 -0.0332  0.4619
  255MOL0     C33542   1.368   1.183  10.089 -0.1103  0.1893 -0.1442
  255MOL0     C33543   1.269   1.266  10.000  0.0539  1.0490  0.2801
  255MOL0     C33544   1.134   1.186   9.998  0.4369  0.0050 -0.5221
  255MOL0     N33545   1.027   1.271   9.956  0.1470 -0.9954 -0.7880
  255MOL0     C33546   0.992   1.383  10.031  0.9756  0.7220 -0.3245
  255MOL0     C33547   0.925   1.457   9.941  0.1956  0.2643 -0.1703
  255MOL0     C33548   0.847   1.574   9.980  0.4698 -0.5175 -0.7144
  255MOL0     C33549   0.854   1.686   9.874 -0.1140  0.8977  0.2253
  255MOL0     C33550   0.790   1.815   9.922  0.2708  0.0899  0.4876
  255MOL0     C33551   0.637   1.802   9.970  0.2637  0.0210  0.2740
  255MOL0     O33552   0.551   1.740   9.878  0.3365 -0.0886  0.3888
  255MOL0     C33553   0.413   1.750   9.894  0.3521  0.3953 -0.6684
  255MOL0     C33554   0.345   1.779  10.010 -0.3051 -0.3463  0.4360
  255MOL0     C33555   0.201   1.802  10.011  0.2704  0.5469 -0.3260
  255MOL0     C33556   0.126   1.788   9.894  0.4916  0.1171 -0.0763
  255MOL0     C33557  -0.017   1.813   9.887  0.4974  0.3661  0.6778
  255MOL0     O33558  -0.080   1.820   9.757 -0.6315  0.0489  0.2661
  255MOL0     C33559  -0.210   1.847   9.732  0.1884  0.1559 -0.8009
  255MOL0     C33560  -0.274   1.759   9.649 -0.0253  0.6507  1.0690
  255MOL0     C33561  -0.417   1.772   9.634 -0.1713 -0.6725 -0.0003
  255MOL0     C33562  -0.487   1.877   9.704  0.7446  0.0515  0.2530
  255MOL0     O33563  -0.624   1.879   9.693  0.4756  0.5368 -0.3488
  255MOL0     C33564  -0.705   1.970   9.764  0.8200  0.6804 -0.2347
  255MOL0     C33565  -0.834   1.947   9.699 -0.0022  0.2189  0.2152
  255MOL0     C33566  -0.958   2.020   9.768 -0.7384 -0.1604 -0.3766
  255MOL0     C33567  -1.093   1.990   9.706 -0.3934 -0.0961 -0.1306
  255MOL0     C33568  -1.208   2.049   9.781 -0.1785 -0.0067  0.6630
  255MOL0     C33569  -1.344   2.023   9.714 -1.0212  0.2749 -0.3829
  255MOL0     C33570  -1.459   2.052   9.818  0.5786 -0.9666 -0.8761
  255MOL0     C33571  -1.599   2.040   9.754  0.8149 -0.4700  0.3986
  255MOL0    Cl33572  -1.639   1.862   9.740  0.3338  0.1993 -0.1314
  255MOL0     C33573  -0.416   1.971   9.782 -0.3226  0.0361  0.8045
  255MOL0     C33574  -0.279   1.948   9.801 -0.1831  0.6209  0.7791
  255MOL0     O33575  -0.067   1.845   9.994  0.7406  0.5995 -0.8512
  255MOL0     C33576   0.195   1.753   9.772 -0.5458  0.0351  0.3113
  255MOL0     C33577   0.338   1.735   9.775  0.2234 -0.7536  0.0549
  255MOL0     N33578   0.939   1.406   9.812  0.1624  0.0836  0.4330
  255MOL0     N33579   1.008   1.297   9.825  0.2760  0.0110  0.7232
  255MOL0     C33580   2.131   0.936  10.507  0.9342  0.3557  0.4661
  255MOL0     C33581   2.267   0.933  10.485 -0.0217  0.6623 -0.2622
  255MOL0     C33582   2.686   0.826  10.355  0.7828 -0.2686 -0.1794
  255MOL0     C33583   2.770   0.709  10.371  0.8683 -0.2476  0.8438
  255MOL0     C33584   2.910   0.717  10.368  0.1725 -0.9686 -0.2977
  255MOL0     C33585   2.971   0.843  10.347 -0.3874 -0.7054 -0.5908
  255MOL0     O33586   3.108   0.860  10.332 -0.5889 -0.3377  0.4183
  255MOL0     C33587   3.193   0.773  10.264  0.0801 -0.5605  0.2813
  255MOL0     C33588   3.328   0.781  10.310 -0.1122  0.8356  0.9416
  255MOL0     C33589   3.366   0.714  10.448  0.2758  0.0704  0.4934
  255MOL0     C33590   3.430   0.571  10.453  0.0755 -0.0106  0.8737
  255MOL0     C33591   3.547   0.572  10.356  0.0515  0.1886 -0.3337
  255MOL0     C33592   3.647   0.587  10.286 -0.2039 -0.0453 -0.1190
  255MOL0     C33593   2.892   0.954  10.344 -0.4455 -0.8344  0.3330
  255MOL0     C33594   2.757   0.950  10.348  0.1608  1.1708 -0.4015
  255MOL0     H33595   2.276   0.878  10.162 -4.3505  1.1882 -3.2526
  255MOL0     H33596   2.026   0.884  10.201 -4.4146  0.9830  2.7582
  255MOL0     H33597   1.809   0.903  10.245  0.5214 -0.0486 -0.5494
  255MOL0     H33598   1.866   1.064  10.308 -1.0399  1.2075  0.8551
  255MOL0     H33599   1.666   1.057  10.450  3.0001 -2.2321  1.4322
  255MOL0     H33600   1.634   0.888  10.391 -2.3434 -0.1880 -3.0900
  255MOL0     H33601   1.491   0.989  10.254  0.4387 -0.2545  1.9692
  255MOL0     H33602   1.626   0.964  10.149 -1.3339  0.8169 -0.5512
  255MOL0     H33603   1.555   1.227  10.311 -0.0088  0.4103 -0.4058
  255MOL0     H33604   1.701   1.204  10.227  0.6419 -1.2210 -0.6456
  255MOL0     H33605   1.566   1.228  10.008 -0.5728  4.1066  0.2389
  255MOL0     H33606   1.517   1.341  10.116  0.8622 -0.1605  1.1230
  255MOL0     H33607   1.327   1.178  10.191 -0.3644 -1.1330 -0.2978
  255MOL0     H33608   1.378   1.078  10.060  7.0224 -0.6421  3.2662
  255MOL0     H33609   1.252   1.366  10.042  0.4363  0.6972  1.3137
  255MOL0     H33610   1.293   1.276   9.894  1.4482 -1.7405  0.2486
  255MOL0     H33611   1.118   1.142  10.097  0.3515 -2.1662 -1.4611
  255MOL0     H33612   1.125   1.108   9.922 -1.0467  0.7931 -1.2096
  255MOL0     H33613   1.010   1.388  10.137  1.6658  0.6405 -0.4300
  255MOL0     H33614   0.875   1.612  10.078  0.5200  0.5700 -1.1311
  255MOL0     H33615   0.741   1.551   9.992 -0.0174  1.4799 -0.7801
  255MOL0     H33616   0.805   1.654   9.782 -0.2744 -4.7540  1.8490
  255MOL0     H33617   0.961   1.698   9.851  0.1593 -1.0804  0.1983
  255MOL0     H33618   0.849   1.843  10.009  0.4350 -2.5733  1.3468
  255MOL0     H33619   0.808   1.891   9.846  2.1214 -0.4712  0.3228
  255MOL0     H33620   0.596   1.898  10.001  2.7120  1.9487 -1.9651
  255MOL0     H33621   0.633   1.744  10.063 -1.1631  1.4089  1.1129
  255MOL0     H33622   0.386   1.789  10.110 -3.5054 -2.5461  2.1270
  255MOL0     H33623   0.152   1.829  10.104 -0.4587 -2.8606  0.4089
  255MOL0     H33624  -0.241   1.681   9.581 -2.4267 -1.1975  1.8966
  255MOL0     H33625  -0.479   1.720   9.562 -3.4052  0.5861  1.6666
  255MOL0     H33626  -0.678   2.074   9.745  2.6157  0.1948 -0.5206
  255MOL0     H33627  -0.708   1.942   9.870  2.0512  0.0222 -0.3596
  255MOL0     H33628  -0.857   1.841   9.711  0.4111  0.2764  1.7032
  255MOL0     H33629  -0.834   1.972   9.593 -1.1595 -1.5760 -0.2539
  255MOL0     H33630  -0.941   2.128   9.774  0.0522 -0.3317  0.8477
  255MOL0     H33631  -0.962   1.984   9.871 -1.6050  1.2752  0.1276
  255MOL0     H33632  -1.104   2.018   9.601  2.4065 -2.1841 -1.0977
  255MOL0     H33633  -1.109   1.882   9.713  2.8035 -0.6156  0.4961
  255MOL0     H33634  -1.200   2.158   9.791 -0.8673 -0.1489  3.6458
  255MOL0     H33635  -1.189   2.007   9.880  0.4931  0.4088  0.7199
  255MOL0     H33636  -1.345   1.919   9.682  2.9900 -0.0619  0.1798
  255MOL0     H33637  -1.349   2.084   9.623  2.8143 -0.8068 -1.4707
  255MOL0     H33638  -1.454   1.970   9.891  0.4076 -1.3243 -1.2599
  255MOL0     H33639  -1.450   2.147   9.870  0.2733 -1.8961  0.9749
  255MOL0     H33640  -1.602   2.080   9.653 -1.3526  0.2478  0.6942
  255MOL0     H33641  -1.686   2.085   9.801 -0.0575 -1.6912  0.0175
  255MOL0     H33642  -0.473   2.036   9.847  0.4721  0.9657  0.5964
  255MOL0     H33643  -0.215   2.004   9.869  0.5861  3.3736 -2.0140
  255MOL0     H33644   0.153   1.742   9.672 -0.1281 -0.8428  0.2147
  255MOL0     H33645   0.385   1.714   9.680 -3.2171 -3.3832 -1.2818
  255MOL0     H33646   2.097   0.966  10.606 -2.3882 -1.3245 -0.0066
  255MOL0     H33647   2.338   0.972  10.557  1.4308  2.8372 -2.6764
  255MOL0     H33648   2.725   0.610  10.380  1.3138 -0.6420 -0.8731
  255MOL0     H33649   2.962   0.623  10.379  0.4830 -1.4907 -4.4957
  255MOL0     H33650   3.193   0.815  10.162 -0.6819 -3.2893 -0.9438
  255MOL0     H33651   3.142   0.677  10.265  0.5109 -0.7931  1.8437
  255MOL0     H33652   3.397   0.750  10.231 -0.3610  2.8362 -0.1212
  255MOL0     H33653   3.351   0.887  10.323 -0.8539  0.7094  4.0131
  255MOL0     H33654   3.285   0.718  10.521  0.3680  2.5690  0.5301
  255MOL0     H33655   3.439   0.775  10.502 -0.1270 -1.5942  3.0910
  255MOL0     H33656   3.471   0.552  10.553 -0.6558  1.2910  1.4426
  255MOL0     H33657   3.354   0.501  10.415  0.8432  0.5814 -1.9431
  255MOL0     H33658   3.715   0.623  10.211  2.0730 -0.9323  1.3786
  255MOL0     H33659   2.925   1.055  10.325 -2.2375  0.2828  2.6832
  255MOL0     H33660   2.717   1.050  10.335  0.1161  1.6046  2.3863
  256MOL0     O33661   0.100   3.016   3.126 -0.0691 -0.0013 -0.1720
  256MOL0     C33662   0.099   3.083   3.019 -0.2010  0.0075 -0.2477
  256MOL0     O33663  -0.007   3.152   2.972 -0.1702  0.1069 -0.4115
  256MOL0     C33664  -0.109   3.195   3.054 -0.1371 -0.7340  0.7230
  256MOL0     C33665  -0.122   3.193   3.193 -0.5828 -0.1054 -0.3309
  256MOL0     C33666  -0.238   3.237   3.256 -0.1372 -0.1242 -0.6697
  256MOL0     C33667  -0.351   3.287   3.186 -0.8720 -0.5057 -0.2618
  256MOL0     O33668  -0.477   3.317   3.235 -0.2577  0.1288  0.2952
  256MOL0     C33669  -0.484   3.347   3.374  0.0113  0.3285  0.2147
  256MOL0     C33670  -0.621   3.359   3.421  0.4813 -0.1900 -0.7596
  256MOL0     C33671  -0.624   3.425   3.557  0.1201  0.3927  0.2455
  256MOL0     C33672  -0.579   3.336   3.675  0.6116  0.0331 -0.4484
  256MOL0     C33673  -0.675   3.222   3.700  0.0820  0.6750  0.5753
  256MOL0     C33674  -0.632   3.137   3.827 -0.1825 -0.3911 -0.9278
  256MOL0     C33675  -0.732   3.028   3.844  0.6955  0.3105  0.1518
  256MOL0     C33676  -0.871   3.079   3.872  0.0084  0.2024 -0.1463
  256MOL0     N33677  -0.956   2.971   3.925  0.5439  0.1804  0.4191
  256MOL0     C33678  -1.009   2.867   3.851  0.9984 -0.4299  0.3805
  256MOL0     C33679  -1.053   2.776   3.940  0.3066 -0.7012 -0.4214
  256MOL0     C33680  -1.155   2.659   3.911 -0.1940 -0.0009 -0.0377
  256MOL0     C33681  -1.286   2.701   3.831 -0.4153 -0.2027 -0.4548
  256MOL0     C33682  -1.375   2.813   3.897 -0.5396 -0.4878  0.9596
  256MOL0     C33683  -1.389   2.808   4.052  0.8183 -0.2359  1.0925
  256MOL0     O33684  -1.440   2.678   4.094 -0.3638  1.0471 -0.0201
  256MOL0     C33685  -1.487   2.667   4.219 -0.1431  0.6763 -0.9388
  256MOL0     C33686  -1.568   2.556   4.242  0.7675 -1.0907 -0.4721
  256MOL0     C33687  -1.648   2.538   4.353  0.2900  0.3353  0.2521
  256MOL0     C33688  -1.634   2.633   4.454 -0.4260 -0.7571 -0.6452
  256MOL0     C33689  -1.706   2.613   4.580 -0.4259 -1.8283 -0.3991
  256MOL0     O33690  -1.800   2.515   4.582 -0.6072  0.5686  0.0446
  256MOL0     C33691  -1.892   2.484   4.678  0.6341 -0.0578 -0.4618
  256MOL0     C33692  -1.906   2.557   4.792  0.4778 -0.0620 -0.5432
  256MOL0     C33693  -2.009   2.528   4.885 -0.4188  0.2117 -0.9418
  256MOL0     C33694  -2.104   2.423   4.863 -0.4195  0.4265 -0.7674
  256MOL0     O33695  -2.208   2.409   4.948 -0.0198 -0.2687 -0.5064
  256MOL0     C33696  -2.330   2.438   4.895  0.5429  0.1607 -0.0560
  256MOL0     C33697  -2.434   2.446   5.004  0.8053  0.1581 -0.3298
  256MOL0     C33698  -2.442   2.311   5.079  0.8620  0.2592 -0.5148
  256MOL0     C33699  -2.563   2.309   5.176 -0.3353  0.5324 -0.2741
  256MOL0     C33700  -2.574   2.166   5.242 -0.4475 -0.4715  0.3560
  256MOL0     C33701  -2.690   2.162   5.336  0.6196 -0.0522  0.3585
  256MOL0     C33702  -2.723   2.013   5.347  0.1321  0.2186 -0.9703
  256MOL0     C33703  -2.867   1.992   5.397  0.0786  0.1969 -0.2263
  256MOL0    Cl33704  -3.003   2.027   5.280  0.1541 -0.2174  0.4493
  256MOL0     C33705  -2.088   2.337   4.750 -0.0023 -0.5543  0.1374
  256MOL0     C33706  -1.983   2.373   4.659  1.2972 -0.0361  0.3979
  256MOL0     O33707  -1.684   2.692   4.670 -0.0097 -0.2214 -0.2854
  256MOL0     C33708  -1.540   2.745   4.444 -0.5467 -0.2118 -0.1910
  256MOL0     C33709  -1.468   2.761   4.325 -0.9583  0.0923 -0.1952
  256MOL0     N33710  -1.027   2.835   4.069 -0.4520 -0.0743 -0.4800
  256MOL0     N33711  -0.947   2.932   4.052  0.1785 -0.4281  0.3140
  256MOL0     C33712  -0.328   3.320   3.053  0.0439  0.1695 -0.1848
  256MOL0     C33713  -0.216   3.263   2.982 -0.0571  0.9042  0.8343
  256MOL0     C33714   0.223   3.089   2.937  0.5075 -0.0095  0.3864
  256MOL0     C33715   0.222   3.147   2.806 -0.8753 -0.4825 -0.2864
  256MOL0     C33716   0.331   3.131   2.730  0.1875 -0.1260  0.1900
  256MOL0     C33717   0.452   3.065   2.774  0.2894  0.1964  0.3386
  256MOL0     O33718   0.553   3.058   2.682  0.3303  0.9275  0.0388
  256MOL0     C33719   0.677   2.980   2.705  0.1346 -0.5264 -0.1078
  256MOL0     C33720   0.666   2.822   2.724  0.3982 -0.4331  0.2486
  256MOL0     C33721   0.806   2.779   2.740  0.2040 -0.0524  0.0189
  256MOL0     C33722   0.819   2.626   2.758  0.4091  0.5867  0.3695
  256MOL0     C33723   0.935   2.579   2.832 -0.4020  0.1342  0.4489
  256MOL0     C33724   1.024   2.541   2.905  0.1215  0.3254  0.4303
  256MOL0     C33725   0.450   3.011   2.899  0.6015 -0.1482  0.2601
  256MOL0     C33726   0.339   3.033   2.982 -1.0182  0.3397  1.4471
  256MOL0     H33727  -0.037   3.153   3.248 -2.2657  0.9726  3.3762
  256MOL0     H33728  -0.259   3.195   3.354 -4.7144 -0.9221 -1.7831
  256MOL0     H33729  -0.442   3.448   3.383 -3.4892  2.0712 -1.2955
  256MOL0     H33730  -0.426   3.274   3.431 -0.6967 -1.9090 -1.7831
  256MOL0     H33731  -0.667   3.260   3.415  0.0013  0.0923 -1.8867
  256MOL0     H33732  -0.677   3.410   3.342 -2.8042  1.5404  2.3793
  256MOL0     H33733  -0.729   3.456   3.566 -0.2588  0.3770 -2.8709
  256MOL0     H33734  -0.565   3.517   3.555 -1.1459  1.2570  1.2624
  256MOL0     H33735  -0.476   3.299   3.670  0.2727 -0.7783 -2.9123
  256MOL0     H33736  -0.580   3.390   3.770  2.3584 -0.7495  0.0556
  256MOL0     H33737  -0.670   3.154   3.614 -2.7966  1.2519 -0.1623
  256MOL0     H33738  -0.774   3.269   3.706 -0.5861 -0.4504 -1.0888
  256MOL0     H33739  -0.630   3.195   3.919 -0.1704 -3.9583  1.4980
  256MOL0     H33740  -0.530   3.097   3.819  0.8703  2.1034 -0.9288
  256MOL0     H33741  -0.729   2.966   3.753  0.7784  1.7959 -0.8824
  256MOL0     H33742  -0.708   2.963   3.929  0.7527 -1.4483 -1.1348
  256MOL0     H33743  -0.923   3.111   3.781  0.0688  0.1902 -0.1848
  256MOL0     H33744  -0.868   3.168   3.935  1.4983 -1.4901  2.3392
  256MOL0     H33745  -1.024   2.857   3.744  0.8404  1.6787  0.1629
  256MOL0     H33746  -1.177   2.619   4.010  1.2797  1.0540  0.7707
  256MOL0     H33747  -1.105   2.572   3.867  2.1689  0.4569  1.5495
  256MOL0     H33748  -1.344   2.612   3.802  0.8602 -0.8870 -1.0352
  256MOL0     H33749  -1.246   2.735   3.735  1.2041  1.9735  0.9125
  256MOL0     H33750  -1.314   2.899   3.872 -1.3602  0.3283  1.6839
  256MOL0     H33751  -1.469   2.821   3.841  1.2425 -0.3597 -2.2592
  256MOL0     H33752  -1.455   2.891   4.081  0.2072 -0.1714 -0.4170
  256MOL0     H33753  -1.293   2.827   4.102  0.3965  2.4406  1.0188
  256MOL0     H33754  -1.584   2.496   4.152  1.4012 -0.8586 -0.7432
  256MOL0     H33755  -1.707   2.450   4.376  1.4319 -0.6929 -0.6841
  256MOL0     H33756  -1.848   2.644   4.821 -0.1621 -0.0457  0.7166
  256MOL0     H33757  -2.018   2.598   4.967 -2.1359 -0.2994 -0.6631
  256MOL0     H33758  -2.349   2.346   4.839 -0.9264 -0.1426  0.8980
  256MOL0     H33759  -2.327   2.517   4.819  0.7999 -2.0352 -2.4559
  256MOL0     H33760  -2.532   2.449   4.955 -0.5761 -3.1818  1.8627
  256MOL0     H33761  -2.421   2.531   5.072  0.6751 -1.8221  2.3369
  256MOL0     H33762  -2.354   2.298   5.142  1.7438 -0.5549 -1.8631
  256MOL0     H33763  -2.445   2.227   5.009  1.6175 -2.7266  2.7672
  256MOL0     H33764  -2.538   2.370   5.263 -0.6009 -1.6034  1.3676
  256MOL0     H33765  -2.658   2.324   5.124 -0.4411 -1.4480 -0.7289
  256MOL0     H33766  -2.483   2.149   5.301  0.5560  1.9803 -0.3800
  256MOL0     H33767  -2.580   2.085   5.169 -0.1958 -1.1748  1.1032
  256MOL0     H33768  -2.780   2.207   5.293 -0.1575 -1.1619  0.8008
  256MOL0     H33769  -2.659   2.209   5.430  0.3708  0.4055  0.2163
  256MOL0     H33770  -2.701   1.959   5.254  0.3543 -4.0629  1.2703
  256MOL0     H33771  -2.655   1.970   5.421 -0.7951  0.8533  0.2968
  256MOL0     H33772  -2.892   2.057   5.482 -0.6447 -1.0713  0.5653
  256MOL0     H33773  -2.883   1.893   5.439 -3.1382  1.2140  1.3390
  256MOL0     H33774  -2.161   2.258   4.735 -2.7602  1.8725 -0.2113
  256MOL0     H33775  -1.968   2.316   4.567 -1.3667  0.3515 -0.3700
  256MOL0     H33776  -1.514   2.816   4.522  0.1407  0.0190 -0.6267
  256MOL0     H33777  -1.401   2.844   4.304  0.0244 -0.9680 -1.3574
  256MOL0     H33778  -0.408   3.375   3.004 -0.9304 -1.2085 -0.1826
  256MOL0     H33779  -0.202   3.267   2.874  2.3350 -2.3922  0.8861
  256MOL0     H33780   0.129   3.189   2.768  0.7790  0.8218 -3.2095
  256MOL0     H33781   0.341   3.170   2.629  2.1354  0.2653  0.4798
  256MOL0     H33782   0.720   3.017   2.799 -2.1910  2.6121 -0.1028
  256MOL0     H33783   0.747   2.998   2.623  2.1624 -0.7499  1.5007
  256MOL0     H33784   0.599   2.802   2.809  0.0679  2.1255  0.6801
  256MOL0     H33785   0.619   2.769   2.640 -3.2783  1.1539  1.0769
  256MOL0     H33786   0.853   2.832   2.824 -1.7103 -0.4725  1.4084
  256MOL0     H33787   0.863   2.801   2.649 -0.7328  0.0064 -0.5687
  256MOL0     H33788   0.730   2.595   2.813 -2.8168  3.4601 -2.7133
  256MOL0     H33789   0.812   2.585   2.657  1.0319  2.8261 -0.6388
  256MOL0     H33790   1.101   2.511   2.973 -0.6649 -1.6013  0.5482
  256MOL0     H33791   0.534   2.960   2.945  0.2444 -2.1571 -1.1658
  256MOL0     H33792   0.352   2.990   3.081 -2.5957 -0.6011  1.2838
  257MOL0     O33793   2.591   2.621   7.490 -0.3985 -0.3387 -0.1146
  257MOL0     C33794   2.614   2.625   7.364  0.4749  1.3377 -0.7263
  257MOL0     O33795   2.520   2.654   7.269 -0.3738 -0.2780  0.6176
  257MOL0     C33796   2.394   2.687   7.305 -0.3531  0.8541 -0.4679
  257MOL0     C33797   2.317   2.604   7.389 -0.0673 -0.4520 -0.1137
  257MOL0     C33798   2.182   2.644   7.421 -0.6333 -0.1147 -0.0107
  257MOL0     C33799   2.128   2.758   7.358 -0.5105 -1.1202  0.0569
  257MOL0     O33800   1.995   2.790   7.372 -0.4460 -0.0998  0.7698
  257MOL0     C33801   1.966   2.921   7.370 -0.3359 -0.1174 -0.3343
  257MOL0     C33802   1.816   2.921   7.405  0.6113 -0.3090 -0.1355
  257MOL0     C33803   1.756   3.067   7.390  1.1646 -0.2110  0.7878
  257MOL0     C33804   1.787   3.122   7.242  0.1919  0.3035 -0.2306
  257MOL0     C33805   1.664   3.202   7.197  0.3219  0.5770 -0.4045
  257MOL0     C33806   1.629   3.328   7.278 -0.3570  0.0707 -0.8021
  257MOL0     C33807   1.518   3.409   7.221  0.5873 -0.1381  0.8754
  257MOL0     C33808   1.542   3.459   7.078  0.2811 -0.3224  0.3736
  257MOL0     N33809   1.456   3.565   7.029 -0.8565 -0.5546 -0.5638
  257MOL0     C33810   1.464   3.709   7.040  0.5978  0.9148  0.3087
  257MOL0     C33811   1.347   3.754   6.987 -0.7882  0.0334  0.2121
  257MOL0     C33812   1.319   3.898   6.969 -0.7715  0.8276 -0.9112
  257MOL0     C33813   1.189   3.917   6.898  0.7789  0.3082  0.4353
  257MOL0     C33814   1.158   4.066   6.918  0.0368 -0.1236 -0.1974
  257MOL0     C33815   1.032   4.090   6.833 -0.5303 -0.9961  1.1397
  257MOL0     O33816   0.923   4.015   6.885  0.3138  0.4834 -0.6038
  257MOL0     C33817   0.800   4.037   6.828  0.3571  0.6372  0.4814
  257MOL0     C33818   0.766   3.982   6.699  0.2027  0.3824 -0.0227
  257MOL0     C33819   0.647   4.014   6.631 -0.7887  0.2455  0.0360
  257MOL0     C33820   0.562   4.115   6.693  0.0731  0.5563  0.5655
  257MOL0     C33821   0.441   4.165   6.624 -0.6082  0.6991  0.1416
  257MOL0     O33822   0.395   4.091   6.512 -0.0779  0.4125 -0.1066
  257MOL0     C33823   0.294   4.122   6.428  0.0388 -0.7230 -1.1880
  257MOL0     C33824   0.265   4.036   6.325 -0.1366 -0.4361  0.2780
  257MOL0     C33825   0.160   4.056   6.238 -0.0005 -0.6990  0.0230
  257MOL0     C33826   0.076   4.171   6.250 -0.4083  0.3951  0.0714
  257MOL0     O33827  -0.032   4.174   6.163 -0.8154 -0.2424 -0.1603
  257MOL0     C33828  -0.121   4.286   6.158  0.1233 -0.0507  0.5008
  257MOL0     C33829  -0.224   4.276   6.046  0.4087 -1.0900 -0.6296
  257MOL0     C33830  -0.359   4.353   6.072  0.1384  0.0088  0.3343
  257MOL0     C33831  -0.346   4.492   6.132  0.7898  1.2616  0.0814
  257MOL0     C33832  -0.483   4.565   6.145 -0.3243 -0.5397 -0.3205
  257MOL0     C33833  -0.455   4.700   6.211 -0.7282  0.0426 -0.4245
  257MOL0     C33834  -0.591   4.761   6.270 -0.2756  0.2228  0.3567
  257MOL0     C33835  -0.699   4.779   6.162  0.1633 -0.5410 -0.4892
  257MOL0    Cl33836  -0.824   4.859   6.253  0.3798  0.2825 -0.0555
  257MOL0     C33837   0.102   4.268   6.352 -0.7613  0.1271 -0.3532
  257MOL0     C33838   0.210   4.233   6.436  0.5438  0.3434 -0.5037
  257MOL0     O33839   0.402   4.277   6.649  0.9850 -0.4506  0.5806
  257MOL0     C33840   0.601   4.176   6.818  0.3094 -0.1327 -0.1209
  257MOL0     C33841   0.713   4.131   6.883 -0.4535 -0.3606  0.6541
  257MOL0     N33842   1.283   3.639   6.931  0.3616 -0.8463  0.5207
  257MOL0     N33843   1.338   3.535   6.972 -0.2899  0.0778  0.4678
  257MOL0     C33844   2.211   2.839   7.272  0.2797  0.5814 -0.2838
  257MOL0     C33845   2.340   2.804   7.245  1.4008  1.0124  0.9121
  257MOL0     C33846   2.759   2.602   7.324  0.3975 -0.4272  0.6841
  257MOL0     C33847   2.840   2.533   7.417 -0.1183 -0.0541  0.6585
  257MOL0     C33848   2.978   2.509   7.394 -1.2632  0.1347 -0.7169
  257MOL0     C33849   3.046   2.565   7.286  0.2356  0.0573 -0.4380
  257MOL0     O33850   3.182   2.555   7.288  0.0337  0.2469  0.1862
  257MOL0     C33851   3.259   2.639   7.200  0.4697  0.2826  0.4748
  257MOL0     C33852   3.375   2.707   7.274  0.0391  0.4576  0.6366
  257MOL0     C33853   3.479   2.596   7.314  0.6544  1.2206 -0.6874
  257MOL0     C33854   3.617   2.643   7.365 -0.1179 -0.3227 -0.6528
  257MOL0     C33855   3.728   2.564   7.309 -0.1663 -0.4026  0.3887
  257MOL0     C33856   3.819   2.497   7.259  0.3422 -0.2059 -0.5427
  257MOL0     C33857   2.963   2.632   7.197 -0.9329  0.7260 -0.0074
  257MOL0     C33858   2.820   2.650   7.212 -0.4461 -0.7874 -0.1836
  257MOL0     H33859   2.367   2.517   7.431  0.3978  0.1191  0.5447
  257MOL0     H33860   2.132   2.577   7.490 -1.0350 -0.2434 -0.4164
  257MOL0     H33861   1.973   2.970   7.273  0.0120  3.2766  1.2492
  257MOL0     H33862   2.016   2.982   7.447 -0.1049 -1.2563  0.4458
  257MOL0     H33863   1.791   2.890   7.507 -1.2085  1.5157  0.0405
  257MOL0     H33864   1.769   2.861   7.326  1.7397  1.4900 -2.2471
  257MOL0     H33865   1.788   3.134   7.470  0.7315 -0.3330  1.0638
  257MOL0     H33866   1.647   3.057   7.396  1.1376  0.5838  1.8574
  257MOL0     H33867   1.872   3.191   7.240  1.1259 -0.7898 -3.1656
  257MOL0     H33868   1.799   3.043   7.168 -3.2020  0.8618 -1.5565
  257MOL0     H33869   1.570   3.146   7.193 -0.1381  1.1953  1.1615
  257MOL0     H33870   1.689   3.238   7.096  2.4703 -2.0142 -0.8810
  257MOL0     H33871   1.715   3.395   7.284  0.2530 -0.6721 -1.0550
  257MOL0     H33872   1.602   3.303   7.381  0.5682 -1.7362 -0.9601
  257MOL0     H33873   1.423   3.354   7.228  0.7145 -0.1088  4.0046
  257MOL0     H33874   1.516   3.501   7.279 -0.7160 -1.2874  2.7594
  257MOL0     H33875   1.537   3.381   7.002 -0.2723 -0.3322  0.4192
  257MOL0     H33876   1.641   3.505   7.086 -0.2567  0.8002  0.8572
  257MOL0     H33877   1.535   3.784   7.072  1.1105 -0.6762  3.2407
  257MOL0     H33878   1.401   3.950   6.918 -0.4758 -1.6933 -3.2297
  257MOL0     H33879   1.301   3.954   7.062 -0.4959 -2.2904  1.1744
  257MOL0     H33880   1.112   3.848   6.937  0.2530 -0.1402 -1.3225
  257MOL0     H33881   1.194   3.900   6.791 -0.0502  1.0619  0.2659
  257MOL0     H33882   1.131   4.097   7.020  0.7719  0.3315 -0.1349
  257MOL0     H33883   1.239   4.124   6.874 -0.2081 -1.0967 -2.0338
  257MOL0     H33884   1.047   4.066   6.728 -2.4364  0.8312  0.4039
  257MOL0     H33885   1.005   4.195   6.831  1.6405 -0.3882 -1.0296
  257MOL0     H33886   0.833   3.913   6.648  0.8553  0.6848  0.4142
  257MOL0     H33887   0.615   3.957   6.544  0.1042  0.2060 -0.2817
  257MOL0     H33888   0.316   3.941   6.319 -0.9178 -0.8107 -0.8777
  257MOL0     H33889   0.147   3.983   6.158  0.3435 -0.5828 -0.1375
  257MOL0     H33890  -0.067   4.382   6.162 -2.8716  1.8552 -1.1010
  257MOL0     H33891  -0.180   4.281   6.250  0.3862 -0.1222  0.6663
  257MOL0     H33892  -0.233   4.168   6.030  3.3720 -1.5031  0.0105
  257MOL0     H33893  -0.179   4.317   5.956 -1.1927  0.1075 -0.9413
  257MOL0     H33894  -0.421   4.297   6.142 -1.5624 -0.6021 -1.5780
  257MOL0     H33895  -0.418   4.357   5.980 -1.0046  0.6522  1.0658
  257MOL0     H33896  -0.295   4.481   6.228 -1.1728  0.3280  1.0958
  257MOL0     H33897  -0.277   4.549   6.071  2.4256 -0.6550  0.0581
  257MOL0     H33898  -0.540   4.508   6.220 -0.4121 -0.5550 -0.3986
  257MOL0     H33899  -0.528   4.575   6.046  3.8457 -0.3998 -2.4368
  257MOL0     H33900  -0.404   4.773   6.149 -0.5628  0.6232  0.3785
  257MOL0     H33901  -0.401   4.681   6.304  1.1538 -0.0309 -1.4943
  257MOL0     H33902  -0.627   4.688   6.343  0.9161  0.1891  0.9280
  257MOL0     H33903  -0.564   4.857   6.314  0.9561 -0.7254  1.7677
  257MOL0     H33904  -0.735   4.690   6.110  0.6278 -1.7918  1.2553
  257MOL0     H33905  -0.671   4.848   6.082  2.0087  0.4777  0.9582
  257MOL0     H33906   0.049   4.359   6.379 -1.6456 -1.4961  4.3229
  257MOL0     H33907   0.217   4.315   6.507  1.2561  0.1520 -0.3449
  257MOL0     H33908   0.533   4.241   6.873  2.7985 -0.8963  4.2738
  257MOL0     H33909   0.748   4.194   6.965  0.4884  0.9068 -0.6863
  257MOL0     H33910   2.180   2.930   7.221  3.0616  2.9107  1.7777
  257MOL0     H33911   2.398   2.854   7.168  0.1782 -0.8262 -1.3347
  257MOL0     H33912   2.797   2.497   7.510 -1.6269 -0.8203 -0.2955
  257MOL0     H33913   3.045   2.468   7.469 -1.2814 -2.8889 -2.1798
  257MOL0     H33914   3.205   2.714   7.142 -0.2085 -1.9833 -2.0122
  257MOL0     H33915   3.305   2.580   7.120  0.4950 -1.0319  1.4242
  257MOL0     H33916   3.427   2.769   7.200 -2.6641 -0.2618 -2.0209
  257MOL0     H33917   3.354   2.770   7.361  1.8903  1.5717  0.3364
  257MOL0     H33918   3.498   2.540   7.222  2.4614  2.0834 -0.8795
  257MOL0     H33919   3.435   2.535   7.394 -2.3432  1.7045 -1.8320
  257MOL0     H33920   3.627   2.750   7.344 -0.8284 -0.8732 -4.6095
  257MOL0     H33921   3.621   2.625   7.473 -1.2507 -2.5767 -0.9193
  257MOL0     H33922   3.902   2.433   7.236  0.3654  0.1498 -1.4827
  257MOL0     H33923   3.007   2.692   7.118 -1.8929  1.1366 -0.2398
  257MOL0     H33924   2.772   2.704   7.131  1.1111 -2.2404 -2.1455
  258MOL0     O33925  10.878   3.098   9.289 -0.2546  0.0517  0.4486
  258MOL0     C33926  10.930   3.173   9.371  0.4193 -0.7828  0.0999
  258MOL0     O33927  10.869   3.254   9.465 -1.0783  0.0465  0.6257
  258MOL0     C33928  10.728   3.276   9.467 -0.0929 -1.0601 -0.0052
  258MOL0     C33929  10.677   3.310   9.592 -0.3854  0.6005  0.6590
  258MOL0     C33930  10.547   3.339   9.606  0.4519 -0.2216 -1.2183
  258MOL0     C33931  10.454   3.319   9.500 -0.5866 -0.5208  0.7479
  258MOL0     O33932  10.323   3.350   9.531 -0.4170 -0.3275 -0.0401
  258MOL0     C33933  10.215   3.333   9.437  0.5086 -0.5149  0.5676
  258MOL0     C33934  10.075   3.352   9.506 -0.1411 -0.0128 -0.2404
  258MOL0     C33935   9.959   3.316   9.418  0.1800  0.2709 -0.1822
  258MOL0     C33936   9.825   3.287   9.497 -0.3278  0.1428  0.4096
  258MOL0     C33937   9.708   3.262   9.400 -0.0995  1.0036  0.4727
  258MOL0     C33938   9.589   3.253   9.488  0.2331  0.3049  1.0420
  258MOL0     C33939   9.456   3.208   9.423 -0.7707 -1.4101  0.0296
  258MOL0     C33940   9.379   3.114   9.523 -0.0323  0.0277  0.0318
  258MOL0     N33941   9.231   3.115   9.493 -0.6670 -0.3350  0.3690
  258MOL0     C33942   9.162   3.001   9.455  0.2809 -0.0456 -0.3319
  258MOL0     C33943   9.041   3.040   9.416 -0.0097  0.2861  0.5732
  258MOL0     C33944   8.957   2.928   9.361 -0.1355  0.3225 -0.4335
  258MOL0     C33945   8.808   2.963   9.370  1.1562 -0.7896  0.5388
  258MOL0     C33946   8.716   2.871   9.298  0.5612  1.1073  0.3601
  258MOL0     C33947   8.702   2.728   9.372  0.0972 -0.2812 -0.7350
  258MOL0     O33948   8.581   2.657   9.342 -0.1493  0.5582 -0.2479
  258MOL0     C33949   8.460   2.678   9.402 -0.7426  1.0284 -0.0937
  258MOL0     C33950   8.433   2.793   9.476  0.8571 -0.0502  0.3294
  258MOL0     C33951   8.307   2.804   9.539 -0.1228 -0.5767 -0.7207
  258MOL0     C33952   8.207   2.694   9.525 -0.7766  0.1262 -0.2771
  258MOL0     C33953   8.079   2.695   9.588  0.1180 -0.3011 -0.3922
  258MOL0     O33954   7.987   2.597   9.551  0.4579  0.3103  0.7294
  258MOL0     C33955   7.871   2.575   9.616 -1.2276  0.0045 -0.5725
  258MOL0     C33956   7.858   2.463   9.690 -0.7824 -0.5650 -0.1056
  258MOL0     C33957   7.750   2.448   9.778 -0.6256  0.4667 -0.4103
  258MOL0     C33958   7.648   2.543   9.787 -0.4050 -0.3858  0.7425
  258MOL0     O33959   7.546   2.525   9.885 -0.5751  0.0941 -0.3285
  258MOL0     C33960   7.426   2.589   9.848  0.6209 -0.0989 -0.4836
  258MOL0     C33961   7.308   2.539   9.927  0.1112 -0.5185  0.5275
  258MOL0     C33962   7.195   2.639   9.922  0.9954  0.6924 -1.0050
  258MOL0     C33963   7.085   2.599  10.028 -0.5746  0.0208 -0.0199
  258MOL0     C33964   6.957   2.678  10.008 -0.8165 -0.3086 -0.0221
  258MOL0     C33965   6.835   2.611  10.069  0.6942  0.1019 -0.6167
  258MOL0     C33966   6.719   2.712  10.084 -0.9891 -0.4378  0.5019
  258MOL0     C33967   6.611   2.658  10.177  0.8458  0.0260  0.1903
  258MOL0    Cl33968   6.508   2.516  10.105  0.1424  0.5934 -0.2250
  258MOL0     C33969   7.661   2.659   9.705 -0.0696  0.2136 -0.8981
  258MOL0     C33970   7.768   2.675   9.615 -0.9805 -0.7087  0.2303
  258MOL0     O33971   8.065   2.776   9.676  0.2267 -0.1633 -0.5612
  258MOL0     C33972   8.245   2.576   9.453  0.3453  0.2812  0.0785
  258MOL0     C33973   8.372   2.569   9.394  0.2899  0.0747 -0.1799
  258MOL0     N33974   9.034   3.174   9.425 -0.3415  0.0960 -0.2773
  258MOL0     N33975   9.144   3.219   9.476  0.5008 -0.5173  0.0657
  258MOL0     C33976  10.502   3.275   9.373  0.2846 -0.4183 -0.2051
  258MOL0     C33977  10.646   3.260   9.361  0.7570  0.0865  1.3673
  258MOL0     C33978  11.073   3.149   9.403 -0.1906 -0.4554 -0.3407
  258MOL0     C33979  11.127   3.189   9.526 -0.0413 -0.3126 -0.3863
  258MOL0     C33980  11.260   3.176   9.557  0.2729 -0.8055 -0.0346
  258MOL0     C33981  11.335   3.098   9.474 -0.4709 -0.4140 -0.2155
  258MOL0     O33982  11.463   3.069   9.515 -0.2025  1.1444  0.0277
  258MOL0     C33983  11.572   3.146   9.460  0.5366  0.0736 -0.6678
  258MOL0     C33984  11.678   3.166   9.567  0.4259 -0.5967  0.2353
  258MOL0     C33985  11.781   3.051   9.575  0.2538 -0.1375 -0.2789
  258MOL0     C33986  11.882   3.047   9.457  0.1858 -0.3812  0.4752
  258MOL0     C33987  12.004   3.113   9.498  0.1364 -0.8408 -0.4002
  258MOL0     C33988  12.106   3.165   9.540 -0.5187 -0.4765  1.4487
  258MOL0     C33989  11.291   3.055   9.347  0.2209  0.7674 -0.0417
  258MOL0     C33990  11.162   3.087   9.309  0.3351  0.2739  0.5301
  258MOL0     H33991  10.746   3.315   9.675  1.7582  3.6160 -1.1237
  258MOL0     H33992  10.496   3.353   9.701  2.8496 -2.2229  0.4870
  258MOL0     H33993  10.228   3.236   9.389 -2.1697 -0.5953 -0.1761
  258MOL0     H33994  10.237   3.402   9.355  0.1543 -2.4826 -1.2698
  258MOL0     H33995  10.057   3.450   9.551  0.3808  0.2608 -0.6140
  258MOL0     H33996  10.085   3.284   9.591 -0.4720 -1.9481 -1.7055
  258MOL0     H33997   9.991   3.227   9.362  2.3438 -0.4477  2.0192
  258MOL0     H33998   9.936   3.395   9.346  0.3236 -0.5076 -1.1043
  258MOL0     H33999   9.846   3.199   9.558  1.0063 -0.3530 -0.7206
  258MOL0     H34000   9.802   3.374   9.559  2.1220  0.0572  1.5489
  258MOL0     H34001   9.725   3.172   9.340  1.8174  1.2491  0.5853
  258MOL0     H34002   9.694   3.341   9.327 -0.9787  1.8635  1.5408
  258MOL0     H34003   9.585   3.348   9.543  0.9418  0.8514  0.1804
  258MOL0     H34004   9.604   3.172   9.560  0.5795 -2.5480 -2.0236
  258MOL0     H34005   9.403   3.301   9.403  0.6012 -0.4032  0.8750
  258MOL0     H34006   9.474   3.143   9.337 -0.2189 -1.0156 -0.1569
  258MOL0     H34007   9.391   3.160   9.622 -1.4721  0.4930  0.0063
  258MOL0     H34008   9.420   3.012   9.515 -1.1218 -0.7053  2.5380
  258MOL0     H34009   9.202   2.901   9.444 -0.7954 -0.5796  0.4284
  258MOL0     H34010   8.978   2.840   9.423 -1.0566  2.5104  3.2306
  258MOL0     H34011   8.985   2.904   9.258  1.1744 -1.2328  0.2429
  258MOL0     H34012   8.783   3.060   9.328 -0.0836  0.6842  4.2782
  258MOL0     H34013   8.790   2.961   9.478  1.3831  0.3675  0.6102
  258MOL0     H34014   8.617   2.916   9.284 -0.1744  0.4332  2.8969
  258MOL0     H34015   8.752   2.854   9.196 -1.6512 -1.9665 -0.0509
  258MOL0     H34016   8.711   2.748   9.479  3.9462  2.7040 -1.3959
  258MOL0     H34017   8.784   2.662   9.344 -1.8556 -2.5106 -1.5627
  258MOL0     H34018   8.512   2.860   9.508  0.7912 -1.0690  2.8814
  258MOL0     H34019   8.281   2.882   9.610  1.7320 -0.6535  0.0924
  258MOL0     H34020   7.945   2.398   9.685 -1.0871 -0.9030 -3.8066
  258MOL0     H34021   7.754   2.361   9.842  0.1624  1.5509  1.0534
  258MOL0     H34022   7.400   2.577   9.742  3.3788 -0.7166 -1.1676
  258MOL0     H34023   7.438   2.696   9.869 -2.4684  0.1843  0.2657
  258MOL0     H34024   7.337   2.528  10.032 -0.4836  0.1586  0.7720
  258MOL0     H34025   7.271   2.449   9.878 -0.3448 -0.0476 -0.0100
  258MOL0     H34026   7.155   2.634   9.820 -1.1272 -0.9393 -0.1865
  258MOL0     H34027   7.228   2.741   9.940  2.2055  0.0915  0.3373
  258MOL0     H34028   7.062   2.492  10.020 -0.1298 -0.2491  1.8865
  258MOL0     H34029   7.132   2.616  10.125  0.9863  2.1174 -1.0666
  258MOL0     H34030   6.938   2.696   9.902 -3.4639 -1.5492  0.1592
  258MOL0     H34031   6.978   2.773  10.057  1.7801  1.5145 -4.1427
  258MOL0     H34032   6.860   2.566  10.165  0.3005 -0.3301 -0.7091
  258MOL0     H34033   6.812   2.525  10.004  0.6053  0.3614 -0.9306
  258MOL0     H34034   6.754   2.813  10.109 -0.4959 -0.2324 -0.9129
  258MOL0     H34035   6.688   2.730   9.981  0.8890  4.2683  0.5281
  258MOL0     H34036   6.547   2.745  10.192 -0.2335 -0.8183  0.6950
  258MOL0     H34037   6.658   2.636  10.274 -3.0632 -2.0618  1.8272
  258MOL0     H34038   7.595   2.744   9.716 -0.7552 -0.5899  2.1245
  258MOL0     H34039   7.777   2.769   9.562 -0.6903 -1.5740 -1.3229
  258MOL0     H34040   8.172   2.503   9.419  2.5969 -0.6707 -3.1409
  258MOL0     H34041   8.397   2.483   9.332  2.7661  0.0311  0.7542
  258MOL0     H34042  10.434   3.266   9.289  0.3748  2.4605 -0.6689
  258MOL0     H34043  10.683   3.230   9.263 -1.9936 -1.1227  0.5968
  258MOL0     H34044  11.065   3.227   9.607  0.3222 -2.2615  0.8765
  258MOL0     H34045  11.293   3.210   9.655  1.9513 -1.3707 -0.3869
  258MOL0     H34046  11.532   3.244   9.433 -0.1928 -0.3799 -1.2955
  258MOL0     H34047  11.602   3.093   9.369  1.3095  0.1350 -0.4533
  258MOL0     H34048  11.726   3.264   9.558 -1.4824  0.6751  2.6471
  258MOL0     H34049  11.635   3.181   9.666 -1.6873  0.5884 -0.8005
  258MOL0     H34050  11.726   2.956   9.567  0.2459 -0.0071 -2.4356
  258MOL0     H34051  11.842   3.047   9.666 -1.7709 -2.1704  1.1198
  258MOL0     H34052  11.905   2.941   9.441 -1.1532 -0.7699  0.9949
  258MOL0     H34053  11.852   3.081   9.358 -2.1651 -0.4124  1.1233
  258MOL0     H34054  12.192   3.213   9.581 -0.7475  2.5082 -1.1238
  258MOL0     H34055  11.355   2.996   9.282 -2.0579  0.8443 -2.5344
  258MOL0     H34056  11.124   3.055   9.212 -1.1420 -2.0583  1.7996
  259MOL0     O34057   1.395   4.374   8.361 -0.0588 -0.2303 -0.3582
  259MOL0     C34058   1.422   4.272   8.300 -0.0846 -0.0658  0.2869
  259MOL0     O34059   1.353   4.148   8.313 -0.4521  0.0789 -0.2055
  259MOL0     C34060   1.238   4.140   8.383 -1.1811 -0.0159 -0.4942
  259MOL0     C34061   1.211   4.036   8.470  0.0227 -0.4616  0.3217
  259MOL0     C34062   1.086   4.030   8.535  0.5658  0.0268  0.0419
  259MOL0     C34063   0.984   4.118   8.514  0.1867 -0.0652 -0.2464
  259MOL0     O34064   0.863   4.130   8.576  0.2623 -0.3128 -0.4001
  259MOL0     C34065   0.856   4.075   8.708  0.1023 -0.5348  0.7633
  259MOL0     C34066   0.918   4.183   8.806  0.1089  0.3461 -0.0963
  259MOL0     C34067   0.858   4.323   8.787 -0.1568 -0.7231  0.8674
  259MOL0     C34068   0.925   4.431   8.886  0.5283  0.3453  0.1816
  259MOL0     C34069   0.936   4.376   9.029  0.1116  0.6325  0.0404
  259MOL0     C34070   0.949   4.489   9.131 -0.1047 -0.7467 -0.6470
  259MOL0     C34071   0.971   4.436   9.276 -0.6992 -0.3080  0.0181
  259MOL0     C34072   0.998   4.543   9.378 -0.2775 -0.7374  0.1294
  259MOL0     N34073   1.004   4.478   9.507  0.0846 -0.2140 -0.6064
  259MOL0     C34074   1.126   4.424   9.551 -0.0253 -0.0769 -0.5855
  259MOL0     C34075   1.093   4.390   9.676 -0.6076 -0.0742  0.1166
  259MOL0     C34076   1.206   4.357   9.771 -0.5152 -0.3101 -0.6323
  259MOL0     C34077   1.202   4.434   9.906  0.1266 -0.5177 -0.0948
  259MOL0     C34078   1.336   4.413   9.988  0.1703 -0.6084  0.1443
  259MOL0     C34079   1.357   4.527  10.090  0.1273 -0.1416  1.0083
  259MOL0     O34080   1.349   4.477  10.219 -0.1258 -0.8728 -0.1965
  259MOL0     C34081   1.450   4.505  10.308  0.2965  0.3428 -0.2963
  259MOL0     C34082   1.422   4.481  10.442  1.0200  0.1912  0.2887
  259MOL0     C34083   1.522   4.511  10.542  0.0086 -0.1572 -0.4609
  259MOL0     C34084   1.642   4.563  10.502  0.5745 -0.3886  0.1004
  259MOL0     C34085   1.744   4.584  10.597 -0.2280  0.2405 -0.3020
  259MOL0     O34086   1.869   4.561  10.557 -0.0171 -0.0101  0.3150
  259MOL0     C34087   1.969   4.636  10.608 -0.3528  0.0744  0.3454
  259MOL0     C34088   1.942   4.776  10.640 -0.1128  0.3289  0.7775
  259MOL0     C34089   2.045   4.861  10.675  0.2210  0.9688 -0.6277
  259MOL0     C34090   2.175   4.806  10.690  0.0190 -0.3456 -0.4936
  259MOL0     O34091   2.271   4.890  10.745  0.2253  0.1896 -0.9587
  259MOL0     C34092   2.325   4.836  10.870 -0.5490 -0.0276  0.2854
  259MOL0     C34093   2.482   4.872  10.871  1.3387  0.6068  0.5343
  259MOL0     C34094   2.539   4.826  11.012  0.0936 -0.0900 -0.0515
  259MOL0     C34095   2.684   4.875  11.034 -0.8044  0.6738  0.8392
  259MOL0     C34096   2.743   4.822  11.167 -0.3766  0.2598 -0.3795
  259MOL0     C34097   2.895   4.861  11.177 -0.2877 -0.5416 -0.3566
  259MOL0     C34098   2.933   4.892  11.317  0.1038 -0.9831  0.0615
  259MOL0     C34099   2.949   5.042  11.354 -0.2554  0.4285 -0.0459
  259MOL0    Cl34100   2.782   5.109  11.398  0.1306  0.2397 -0.0956
  259MOL0     C34101   2.189   4.667  10.662  0.3171 -0.2356  0.0919
  259MOL0     C34102   2.088   4.581  10.622 -0.2496  0.2571 -0.4632
  259MOL0     O34103   1.715   4.617  10.711 -0.6880  0.0659 -0.1152
  259MOL0     C34104   1.670   4.582  10.373  0.2800 -1.3557  0.1849
  259MOL0     C34105   1.578   4.555  10.277  0.4796 -0.0193  0.6885
  259MOL0     N34106   0.958   4.407   9.707  0.4454  0.1090  0.1579
  259MOL0     N34107   0.901   4.453   9.597 -0.5622  0.1104  0.6251
  259MOL0     C34108   1.016   4.214   8.424  0.1330 -0.6890  1.5246
  259MOL0     C34109   1.139   4.230   8.357  0.0663 -0.2490 -1.1800
  259MOL0     C34110   1.556   4.268   8.224 -0.5600  0.0430 -0.2992
  259MOL0     C34111   1.604   4.384   8.176 -0.0204 -1.0449  0.9637
  259MOL0     C34112   1.726   4.381   8.104 -0.2909  0.3190 -0.8962
  259MOL0     C34113   1.789   4.259   8.074 -1.1122 -0.2204 -0.4610
  259MOL0     O34114   1.908   4.261   8.001  0.3018  0.0104  0.1516
  259MOL0     C34115   1.991   4.145   7.973  0.3845 -0.0107 -0.2856
  259MOL0     C34116   1.939   4.077   7.849 -0.1101  0.3071 -0.0130
  259MOL0     C34117   2.030   3.982   7.787  0.0395  0.4575  0.5143
  259MOL0     C34118   1.972   3.952   7.643 -0.0338 -0.5004  0.1409
  259MOL0     C34119   2.068   3.867   7.581 -0.7389  0.1803  0.3413
  259MOL0     C34120   2.141   3.786   7.536  0.5974 -0.2933  1.1840
  259MOL0     C34121   1.732   4.142   8.121  0.5583  0.1349  0.7124
  259MOL0     C34122   1.617   4.145   8.203  0.3198 -0.1306  0.5281
  259MOL0     H34123   1.288   3.966   8.499  0.0020 -2.1673 -3.2402
  259MOL0     H34124   1.068   3.942   8.596  2.0355  1.1641  2.2448
  259MOL0     H34125   0.905   3.980   8.728 -1.2238 -1.6074 -0.8027
  259MOL0     H34126   0.749   4.056   8.725  0.0805  0.6371  2.1762
  259MOL0     H34127   1.027   4.184   8.796  0.1109 -0.0893 -0.1196
  259MOL0     H34128   0.900   4.146   8.908 -0.6919 -1.9968 -1.0354
  259MOL0     H34129   0.750   4.315   8.800 -0.6334  1.1712 -1.3121
  259MOL0     H34130   0.881   4.349   8.683 -1.0710 -0.1794  0.7927
  259MOL0     H34131   1.026   4.444   8.847  0.7325 -0.8869  0.2478
  259MOL0     H34132   0.864   4.522   8.887 -0.8856 -0.4720 -2.4707
  259MOL0     H34133   1.011   4.296   9.028  0.5750  1.0577 -0.5321
  259MOL0     H34134   0.844   4.320   9.048  1.3706 -0.2490  4.7508
  259MOL0     H34135   0.864   4.557   9.130  0.2439 -0.2790 -0.0170
  259MOL0     H34136   1.039   4.548   9.110  1.1615 -2.7236 -1.0349
  259MOL0     H34137   0.880   4.383   9.305 -1.2857 -1.0501 -2.8580
  259MOL0     H34138   1.042   4.355   9.293  2.2652  2.2394  0.7106
  259MOL0     H34139   0.908   4.604   9.388 -0.3364 -0.8682  0.4256
  259MOL0     H34140   1.085   4.604   9.354 -0.1796 -1.2611 -0.9039
  259MOL0     H34141   1.223   4.417   9.504  0.4309 -0.6528  0.4077
  259MOL0     H34142   1.301   4.373   9.720 -1.4321  0.7634 -2.1000
  259MOL0     H34143   1.196   4.249   9.783  0.2277 -0.6469 -2.6379
  259MOL0     H34144   1.118   4.398   9.965 -0.2426 -2.8378 -1.8679
  259MOL0     H34145   1.189   4.542   9.895  3.0228 -0.0094  0.4747
  259MOL0     H34146   1.332   4.312  10.030  0.8368  0.1191  2.0720
  259MOL0     H34147   1.410   4.415   9.907 -1.1568  2.1363 -1.1476
  259MOL0     H34148   1.271   4.594  10.081 -0.7170 -1.3665 -0.7787
  259MOL0     H34149   1.450   4.581  10.067  2.5424 -3.1066  3.0604
  259MOL0     H34150   1.319   4.459  10.467  0.9446  0.0581 -0.1357
  259MOL0     H34151   1.512   4.488  10.648 -0.3386 -2.2180 -0.9079
  259MOL0     H34152   1.838   4.805  10.643 -1.1022 -2.8199  0.8652
  259MOL0     H34153   2.030   4.967  10.691 -0.9793  0.6278  0.6949
  259MOL0     H34154   2.315   4.727  10.876  1.8610 -0.4796 -1.9985
  259MOL0     H34155   2.273   4.883  10.954 -1.7185  0.3739 -0.6388
  259MOL0     H34156   2.501   4.980  10.860  1.4362  0.5708  0.3517
  259MOL0     H34157   2.527   4.818  10.788 -2.2165  0.9925 -1.8628
  259MOL0     H34158   2.539   4.717  11.016  1.5132 -0.0855  2.0012
  259MOL0     H34159   2.476   4.873  11.089  0.4340 -1.2366  0.9537
  259MOL0     H34160   2.737   4.840  10.945 -2.3047  5.0003 -2.1379
  259MOL0     H34161   2.691   4.984  11.022 -1.1982  0.3555 -4.9241
  259MOL0     H34162   2.719   4.716  11.178  2.1577 -0.5281 -1.6471
  259MOL0     H34163   2.682   4.865  11.247 -3.1923 -1.1561 -1.6170
  259MOL0     H34164   2.904   4.958  11.128  3.3124  1.2808  3.3613
  259MOL0     H34165   2.960   4.786  11.131 -0.9265 -1.5038  0.2645
  259MOL0     H34166   2.865   4.840  11.385  1.9935 -0.4804  2.4815
  259MOL0     H34167   3.036   4.864  11.340 -0.2366 -2.0932  0.2978
  259MOL0     H34168   3.011   5.084  11.274  2.2339 -2.5916  0.1124
  259MOL0     H34169   3.012   5.057  11.442 -0.5490 -1.5672  0.5571
  259MOL0     H34170   2.289   4.626  10.671  0.4075 -0.0074  0.1390
  259MOL0     H34171   2.109   4.480  10.589  1.8240  0.8111 -1.0013
  259MOL0     H34172   1.760   4.624  10.330  0.1126 -0.0251  1.0471
  259MOL0     H34173   1.616   4.570  10.176  1.9268 -0.7291  1.1036
  259MOL0     H34174   0.943   4.293   8.413  0.0840 -0.6477  2.1447
  259MOL0     H34175   1.163   4.324   8.308 -1.1921  1.9278  2.0416
  259MOL0     H34176   1.555   4.479   8.199  0.3161 -0.1455 -1.6784
  259MOL0     H34177   1.763   4.473   8.060 -0.6683  1.3786  0.9013
  259MOL0     H34178   1.996   4.081   8.062 -0.6146  1.7536  1.1130
  259MOL0     H34179   2.097   4.170   7.959  0.2377  1.1551  0.5434
  259MOL0     H34180   1.859   4.011   7.882 -0.7676  1.1047  0.0100
  259MOL0     H34181   1.884   4.143   7.780 -1.1736  0.2105  0.7236
  259MOL0     H34182   2.038   3.892   7.849  1.3096 -0.0779 -0.3916
  259MOL0     H34183   2.134   4.016   7.785  0.5786 -1.1494 -0.3120
  259MOL0     H34184   1.867   3.925   7.632 -1.2988  4.2201 -2.3090
  259MOL0     H34185   1.979   4.049   7.592  0.3490 -1.2901 -1.3738
  259MOL0     H34186   2.202   3.703   7.508 -0.0806 -0.1717 -0.8184
  259MOL0     H34187   1.769   4.043   8.098 -6.1003 -2.7294  0.1998
  259MOL0     H34188   1.587   4.050   8.245 -2.8313  0.6899  0.3483
  260MOL0     O34189   2.520   6.726   1.905 -0.0427  0.0134  0.3012
  260MOL0     C34190   2.586   6.632   1.953  0.3389 -0.5128 -0.1795
  260MOL0     O34191   2.531   6.524   2.019  0.1556 -0.3274  0.2795
  260MOL0     C34192   2.393   6.504   2.035  0.6633 -0.4249 -0.3569
  260MOL0     C34193   2.313   6.522   1.924  0.2920 -0.4580 -0.3236
  260MOL0     C34194   2.174   6.528   1.948  0.4702 -0.3676  0.6140
  260MOL0     C34195   2.116   6.513   2.075 -0.5677  0.3080 -0.2177
  260MOL0     O34196   1.980   6.501   2.079  0.5378  0.3891  0.2998
  260MOL0     C34197   1.915   6.446   2.199  0.0430  0.8142  0.7296
  260MOL0     C34198   1.764   6.427   2.162 -0.4185 -0.5410  0.0381
  260MOL0     C34199   1.681   6.415   2.292  0.4874 -0.4112 -0.5661
  260MOL0     C34200   1.546   6.347   2.265  0.8474  0.1900 -0.2300
  260MOL0     C34201   1.451   6.341   2.393  0.0937  0.8054 -0.5774
  260MOL0     C34202   1.315   6.288   2.372  0.9250  0.6729 -0.1914
  260MOL0     C34203   1.218   6.338   2.479 -0.6053 -0.1220  0.8049
  260MOL0     C34204   1.088   6.263   2.447 -0.7641  0.4015  0.6169
  260MOL0     N34205   0.977   6.302   2.530  0.3542 -0.4726 -0.9530
  260MOL0     C34206   0.978   6.309   2.670 -1.1442  0.4942  0.3671
  260MOL0     C34207   0.858   6.355   2.698 -0.5229 -0.4873 -0.5938
  260MOL0     C34208   0.791   6.383   2.829  0.5854  0.4435 -0.9709
  260MOL0     C34209   0.659   6.292   2.842  0.0965  0.6240 -0.2963
  260MOL0     C34210   0.633   6.260   2.990  0.0671  0.5030  0.3327
  260MOL0     C34211   0.623   6.381   3.088 -0.4815  0.0287 -0.3845
  260MOL0     O34212   0.549   6.498   3.040  0.1777 -0.8317 -0.1046
  260MOL0     C34213   0.417   6.519   3.079 -0.7708  0.9602  0.5784
  260MOL0     C34214   0.366   6.651   3.058  0.1763  0.2344  0.2451
  260MOL0     C34215   0.240   6.678   3.099  0.8876  0.6422  0.6320
  260MOL0     C34216   0.159   6.579   3.162 -0.1534  0.3613  0.3373
  260MOL0     C34217   0.014   6.607   3.201 -1.0672  0.5201  0.0721
  260MOL0     O34218  -0.053   6.505   3.263 -0.8633  0.7477  0.3050
  260MOL0     C34219  -0.161   6.506   3.346 -0.9191  0.1659  0.0283
  260MOL0     C34220  -0.236   6.625   3.392 -0.1633 -1.0203 -1.0743
  260MOL0     C34221  -0.348   6.604   3.470 -0.3152 -0.2957  0.5705
  260MOL0     C34222  -0.401   6.482   3.507 -0.8769 -0.2273 -0.1784
  260MOL0     O34223  -0.507   6.479   3.595  0.0850 -0.5917  0.3706
  260MOL0     C34224  -0.635   6.479   3.527 -0.6374 -0.1128 -0.7432
  260MOL0     C34225  -0.740   6.447   3.622 -0.4170 -1.3725 -0.0697
  260MOL0     C34226  -0.883   6.414   3.554 -0.3922 -0.1162  0.2356
  260MOL0     C34227  -0.972   6.338   3.640  0.0952  0.5869  0.3654
  260MOL0     C34228  -1.116   6.346   3.594 -0.7539  0.2481 -0.3341
  260MOL0     C34229  -1.208   6.276   3.699 -0.4957  0.4649 -0.8581
  260MOL0     C34230  -1.353   6.302   3.686 -0.4033 -0.5825 -0.0810
  260MOL0     C34231  -1.426   6.234   3.801 -0.9759 -0.3584 -0.0744
  260MOL0    Cl34232  -1.604   6.236   3.776 -0.7982  0.3845  0.1617
  260MOL0     C34233  -0.328   6.372   3.465  0.7707  0.5680  0.2970
  260MOL0     C34234  -0.209   6.383   3.382  0.1778  0.8356  0.8159
  260MOL0     O34235  -0.012   6.725   3.208 -0.1592 -0.2966 -0.3129
  260MOL0     C34236   0.212   6.443   3.188 -0.6949  0.0530 -0.1161
  260MOL0     C34237   0.335   6.415   3.145  0.4557  0.2386 -0.1379
  260MOL0     N34238   0.789   6.387   2.591 -0.6785 -0.2451  0.2451
  260MOL0     N34239   0.861   6.358   2.484 -0.4709  0.2046  0.0559
  260MOL0     C34240   2.200   6.497   2.185  0.7951  0.0353 -0.4447
  260MOL0     C34241   2.337   6.480   2.164  0.3188  0.1453  0.5645
  260MOL0     C34242   2.730   6.623   1.925 -0.4573 -1.0337 -0.0519
  260MOL0     C34243   2.810   6.720   1.864 -0.4080 -0.6326 -0.3932
  260MOL0     C34244   2.948   6.713   1.842 -0.0819 -0.1952 -0.6545
  260MOL0     C34245   3.020   6.600   1.887 -0.6542 -0.1736 -0.2025
  260MOL0     O34246   3.158   6.592   1.881 -0.1041  0.0840 -0.9870
  260MOL0     C34247   3.225   6.480   1.931 -0.0361  1.1147 -0.0620
  260MOL0     C34248   3.374   6.468   1.886 -0.4088 -0.1051  0.6005
  260MOL0     C34249   3.456   6.359   1.961  0.7529  0.1415  0.3493
  260MOL0     C34250   3.612   6.377   1.941 -0.0237  0.4702  1.0357
  260MOL0     C34251   3.671   6.486   2.028 -0.1550  0.3195  0.3555
  260MOL0     C34252   3.717   6.572   2.106 -0.4637  0.4998  0.5208
  260MOL0     C34253   2.943   6.507   1.963 -0.6392  0.2489  0.7610
  260MOL0     C34254   2.804   6.521   1.967  0.3072 -0.4679  0.4390
  260MOL0     H34255   2.368   6.542   1.832  1.3669 -1.1731  0.1476
  260MOL0     H34256   2.109   6.550   1.864  1.6558  4.7159  0.7290
  260MOL0     H34257   1.929   6.506   2.289  0.1301 -0.4889  1.6118
  260MOL0     H34258   1.942   6.341   2.213  0.6486  0.4531 -2.4594
  260MOL0     H34259   1.753   6.343   2.093  1.4735 -2.6160  2.0961
  260MOL0     H34260   1.719   6.515   2.115  2.2736  0.9658  0.0392
  260MOL0     H34261   1.674   6.518   2.327  2.2587 -0.6723  0.6862
  260MOL0     H34262   1.732   6.365   2.375 -0.8476 -0.2572  0.3761
  260MOL0     H34263   1.496   6.410   2.190  1.4725  3.4037  1.8266
  260MOL0     H34264   1.568   6.248   2.226  0.1664  0.5998 -1.7241
  260MOL0     H34265   1.447   6.446   2.425 -1.1047  1.6007 -3.0267
  260MOL0     H34266   1.497   6.282   2.473 -0.1303 -1.0991 -1.7824
  260MOL0     H34267   1.324   6.180   2.360 -0.8171  0.5295 -0.5999
  260MOL0     H34268   1.277   6.336   2.281 -2.2541  1.9715  1.6268
  260MOL0     H34269   1.252   6.313   2.580 -4.1282 -1.8091  1.7326
  260MOL0     H34270   1.202   6.446   2.484  0.4108 -0.0188  3.9065
  260MOL0     H34271   1.110   6.157   2.456 -2.7435  0.0817  2.5632
  260MOL0     H34272   1.052   6.271   2.344  0.7042 -1.9434 -0.1380
  260MOL0     H34273   1.059   6.300   2.742  0.1991 -0.5387 -1.1866
  260MOL0     H34274   0.753   6.485   2.840  0.3204  0.0557  3.0060
  260MOL0     H34275   0.862   6.363   2.910  1.2422 -1.0998 -1.8775
  260MOL0     H34276   0.671   6.191   2.802 -0.5562 -0.9862  3.1707
  260MOL0     H34277   0.563   6.324   2.803 -0.5326 -0.1011  0.6089
  260MOL0     H34278   0.545   6.196   3.005  2.0829 -1.8241  3.5171
  260MOL0     H34279   0.714   6.194   3.024  0.0869 -0.3548 -1.2747
  260MOL0     H34280   0.721   6.428   3.081 -0.8047  0.6211 -0.9559
  260MOL0     H34281   0.598   6.344   3.189 -0.6331  0.5553 -0.2271
  260MOL0     H34282   0.431   6.725   3.012  1.9922 -0.2816  1.8484
  260MOL0     H34283   0.203   6.776   3.071  1.4366  1.4925  2.7107
  260MOL0     H34284  -0.210   6.725   3.358  0.1820 -1.0939 -1.0280
  260MOL0     H34285  -0.406   6.692   3.496  1.0226  0.7226  0.1835
  260MOL0     H34286  -0.636   6.395   3.457  0.5418 -1.2108  0.5190
  260MOL0     H34287  -0.660   6.569   3.470 -0.7944  0.9746  0.9759
  260MOL0     H34288  -0.744   6.536   3.685 -1.7103 -1.7160  0.3585
  260MOL0     H34289  -0.704   6.366   3.685  0.9136  0.3048  1.4172
  260MOL0     H34290  -0.854   6.357   3.465 -3.7778 -0.1213 -1.0166
  260MOL0     H34291  -0.924   6.503   3.505 -1.0485 -2.0779 -3.1695
  260MOL0     H34292  -0.950   6.232   3.626  2.4955  1.1780 -0.8495
  260MOL0     H34293  -0.957   6.365   3.745  0.0572  1.5376  0.1396
  260MOL0     H34294  -1.127   6.298   3.496  1.0986 -1.2174  0.1204
  260MOL0     H34295  -1.144   6.452   3.593  1.7509  0.9671  0.7098
  260MOL0     H34296  -1.187   6.310   3.801 -0.0894 -2.5461  0.1431
  260MOL0     H34297  -1.205   6.167   3.693 -3.7364  0.2228  0.1008
  260MOL0     H34298  -1.369   6.410   3.687  2.0597 -0.1505  0.7787
  260MOL0     H34299  -1.380   6.267   3.586 -1.3428  2.9321 -1.2166
  260MOL0     H34300  -1.409   6.276   3.901 -0.7720 -0.9589  0.1451
  260MOL0     H34301  -1.395   6.130   3.796  1.4495  0.3676 -1.6180
  260MOL0     H34302  -0.354   6.269   3.486 -0.4062  0.6985 -0.4655
  260MOL0     H34303  -0.176   6.287   3.341  2.1583  1.0211  1.8200
  260MOL0     H34304   0.153   6.369   3.239 -1.6007  2.1209  2.0241
  260MOL0     H34305   0.380   6.317   3.162 -0.9562 -0.2515  0.9637
  260MOL0     H34306   2.170   6.477   2.287  3.6393  3.2586  1.2741
  260MOL0     H34307   2.397   6.462   2.252 -0.2807  0.0700  0.9672
  260MOL0     H34308   2.761   6.813   1.837 -0.2222  0.6341  3.1406
  260MOL0     H34309   3.006   6.793   1.796  3.3458  0.2323  3.7863
  260MOL0     H34310   3.169   6.399   1.884 -2.3276  3.5336 -1.8081
  260MOL0     H34311   3.201   6.477   2.038 -3.1003  0.4967 -0.6617
  260MOL0     H34312   3.390   6.473   1.778  1.6350  1.7380  0.9093
  260MOL0     H34313   3.411   6.568   1.908  0.0572  0.1289 -1.1028
  260MOL0     H34314   3.426   6.269   1.907 -1.8745  0.7153  0.7347
  260MOL0     H34315   3.425   6.345   2.065 -0.1727 -0.6053 -0.0120
  260MOL0     H34316   3.650   6.281   1.979 -0.6504  0.9102  2.9038
  260MOL0     H34317   3.648   6.391   1.839  2.3823  0.8580  1.8721
  260MOL0     H34318   3.757   6.651   2.165  0.2161  1.2777 -0.9174
  260MOL0     H34319   3.003   6.432   2.014  1.1024  2.1332  1.6525
  260MOL0     H34320   2.747   6.444   2.018 -2.7033  1.0287 -0.4660
  261MOL0     O34321   4.745   6.955  11.043  0.2419 -0.7033 -0.5308
  261MOL0     C34322   4.673   6.887  11.121  0.0152 -0.9105  0.4746
  261MOL0     O34323   4.675   6.752  11.136 -0.0602  0.6507 -0.3142
  261MOL0     C34324   4.773   6.680  11.074  1.0260 -0.0094  0.6130
  261MOL0     C34325   4.913   6.714  11.075  0.5273  0.7238 -1.5752
  261MOL0     C34326   4.999   6.631  11.001 -0.2252  0.2061 -1.1150
  261MOL0     C34327   4.956   6.503  10.955 -0.6284  0.8181  0.5270
  261MOL0     O34328   5.036   6.403  10.895 -0.2150  0.1277  0.3695
  261MOL0     C34329   5.186   6.403  10.892  0.0133  0.6217 -0.6471
  261MOL0     C34330   5.262   6.378  11.024 -0.1247 -0.2295 -0.6595
  261MOL0     C34331   5.410   6.416  11.013 -0.0385  0.4557 -0.9741
  261MOL0     C34332   5.491   6.334  10.912  1.0018 -0.8803 -0.5505
  261MOL0     C34333   5.625   6.403  10.884 -0.2934  0.0124 -0.3873
  261MOL0     C34334   5.729   6.307  10.833 -0.0218 -0.3321 -0.0356
  261MOL0     C34335   5.852   6.373  10.772  0.3730 -0.3693  0.6810
  261MOL0     C34336   5.925   6.474  10.867 -0.1125 -0.5940 -0.3552
  261MOL0     N34337   6.005   6.567  10.788  0.1202  0.3640 -0.6447
  261MOL0     C34338   5.946   6.668  10.718  0.8268 -0.1932  0.1184
  261MOL0     C34339   6.050   6.735  10.666 -0.3689  0.5332 -0.0001
  261MOL0     C34340   6.033   6.870  10.607 -0.1488 -0.2852 -0.5816
  261MOL0     C34341   6.161   6.935  10.557  0.4196  0.7052 -0.8074
  261MOL0     C34342   6.133   7.073  10.496  0.8417 -0.1918  0.0034
  261MOL0     C34343   6.050   7.164  10.589  0.3947 -0.0847 -0.1503
  261MOL0     O34344   6.081   7.300  10.539  0.6035  0.5488  0.6091
  261MOL0     C34345   6.059   7.408  10.618  0.5323  0.0991 -0.1465
  261MOL0     C34346   5.982   7.410  10.735  0.5325 -0.3855 -0.2032
  261MOL0     C34347   5.985   7.522  10.822  0.2325 -0.5288  0.9769
  261MOL0     C34348   6.030   7.648  10.762 -0.6326  0.4828 -0.3282
  261MOL0     C34349   6.028   7.787  10.827  0.3037 -0.5896  1.1858
  261MOL0     O34350   6.027   7.798  10.961  0.7567 -0.2434 -0.5352
  261MOL0     C34351   6.010   7.922  11.019 -0.6150  0.6152 -0.2867
  261MOL0     C34352   5.906   8.014  10.989 -0.8551 -0.5741  0.5728
  261MOL0     C34353   5.914   8.150  11.035 -0.0580  1.0855 -0.0613
  261MOL0     C34354   6.007   8.188  11.126  0.3475  0.0999 -0.2579
  261MOL0     O34355   6.000   8.308  11.184  0.0238  0.6215  0.3208
  261MOL0     C34356   6.128   8.377  11.198  0.1602 -0.2638  0.2125
  261MOL0     C34357   6.117   8.506  11.271  0.3924 -0.1670 -0.0775
  261MOL0     C34358   6.254   8.582  11.266  0.3318 -0.3161 -0.5211
  261MOL0     C34359   6.364   8.513  11.351 -0.8531 -0.7519 -0.5823
  261MOL0     C34360   6.503   8.588  11.329  0.2592  0.6358  0.5409
  261MOL0     C34361   6.625   8.532  11.396 -0.0447  0.0313 -0.2537
  261MOL0     C34362   6.641   8.384  11.395  0.1928 -0.6692  0.1383
  261MOL0     C34363   6.766   8.335  11.477  0.7208 -1.2228  0.0020
  261MOL0    Cl34364   6.739   8.157  11.478  0.5934  0.0416 -0.0421
  261MOL0     C34365   6.115   8.101  11.161 -0.0142  0.8718  0.3728
  261MOL0     C34366   6.110   7.966  11.112  0.1796  0.2239  0.3250
  261MOL0     O34367   6.028   7.882  10.751 -0.2698 -1.2778  0.6571
  261MOL0     C34368   6.094   7.646  10.643 -0.2259  0.2319  0.3583
  261MOL0     C34369   6.104   7.527  10.568 -0.1704 -0.2775  0.5666
  261MOL0     N34370   6.166   6.681  10.710  0.5176  0.2413 -0.0690
  261MOL0     N34371   6.141   6.569  10.771 -0.0367  0.0493 -0.9828
  261MOL0     C34372   4.820   6.479  10.953  0.3129 -0.3657 -0.2953
  261MOL0     C34373   4.726   6.563  11.009  0.6532 -0.1679  0.3132
  261MOL0     C34374   4.578   6.956  11.210 -0.1532 -0.2367 -0.1023
  261MOL0     C34375   4.529   6.889  11.328 -0.1292  0.7604  0.9079
  261MOL0     C34376   4.434   6.955  11.404  0.1633  0.7474 -0.3453
  261MOL0     C34377   4.381   7.073  11.371 -0.4901  0.5409 -0.0185
  261MOL0     O34378   4.281   7.128  11.454  0.0086 -0.4761 -0.1737
  261MOL0     C34379   4.210   7.247  11.423  0.3863 -0.0702  0.4138
  261MOL0     C34380   4.105   7.211  11.312  0.2096  0.3882 -0.3659
  261MOL0     C34381   3.972   7.162  11.368 -0.1667 -0.6777  0.7182
  261MOL0     C34382   3.892   7.271  11.442 -0.2564  0.6056  0.3505
  261MOL0     C34383   3.841   7.376  11.343  1.3325 -0.0427 -0.0146
  261MOL0     C34384   3.798   7.435  11.252  0.7361  0.4557  0.0353
  261MOL0     C34385   4.421   7.137  11.259  0.4171  0.2068 -0.5367
  261MOL0     C34386   4.528   7.086  11.182 -0.7132 -0.0155  0.4630
  261MOL0     H34387   4.964   6.780  11.144  1.3688  0.0449 -1.5201
  261MOL0     H34388   5.104   6.659  11.009  0.0809 -1.3848  1.9454
  261MOL0     H34389   5.226   6.498  10.854  2.0713  0.7079  1.5088
  261MOL0     H34390   5.208   6.321  10.822 -0.3812 -2.0219  2.1067
  261MOL0     H34391   5.250   6.271  11.043 -2.0781  0.0837  0.0468
  261MOL0     H34392   5.221   6.433  11.109  1.0862 -1.0022  0.4510
  261MOL0     H34393   5.449   6.396  11.113 -2.0140 -0.9075 -0.4219
  261MOL0     H34394   5.419   6.523  10.992 -0.1090  0.7991  0.6208
  261MOL0     H34395   5.496   6.235  10.959 -1.8462 -0.7815  0.1265
  261MOL0     H34396   5.436   6.328  10.818 -0.7337 -2.6527  0.4913
  261MOL0     H34397   5.669   6.444  10.975  0.3361 -1.3334 -0.0478
  261MOL0     H34398   5.621   6.490  10.819 -0.3156  2.9633  3.2295
  261MOL0     H34399   5.684   6.238  10.761 -0.8960  0.1893 -0.0065
  261MOL0     H34400   5.758   6.242  10.916 -0.4449  2.4977  2.5156
  261MOL0     H34401   5.924   6.298  10.739 -1.0453 -1.1324 -0.8105
  261MOL0     H34402   5.820   6.422  10.679  0.7623  0.8985  1.1907
  261MOL0     H34403   5.981   6.413  10.938 -1.2114  0.5175  1.5378
  261MOL0     H34404   5.848   6.533  10.917 -1.3485 -1.1209 -1.5661
  261MOL0     H34405   5.839   6.683  10.718  0.7771 -0.4970  0.9815
  261MOL0     H34406   5.992   6.939  10.680  0.5790 -0.0771 -0.3563
  261MOL0     H34407   5.966   6.866  10.521 -0.1140  1.7465 -0.7347
  261MOL0     H34408   6.224   6.867  10.499 -0.1452 -0.3566 -0.1912
  261MOL0     H34409   6.220   6.960  10.646 -0.9273 -0.0493  0.3405
  261MOL0     H34410   6.228   7.122  10.474  1.4689 -1.4565 -0.2464
  261MOL0     H34411   6.077   7.069  10.402  0.4097 -0.7772  0.2763
  261MOL0     H34412   6.082   7.156  10.694 -1.3333 -1.0492  0.3502
  261MOL0     H34413   5.945   7.133  10.578  0.1945  0.3543  0.4451
  261MOL0     H34414   5.927   7.318  10.746  0.8828 -0.8767 -2.0935
  261MOL0     H34415   5.935   7.530  10.917 -0.4827 -1.0874  0.6546
  261MOL0     H34416   5.826   7.977  10.926  0.6384 -2.5973 -0.2563
  261MOL0     H34417   5.839   8.221  11.001 -0.1882 -0.4842 -3.4358
  261MOL0     H34418   6.175   8.377  11.099  0.9617  0.2215  0.5786
  261MOL0     H34419   6.207   8.331  11.257  1.9601  1.7242 -0.5160
  261MOL0     H34420   6.094   8.494  11.377  2.9006  2.4355  0.8942
  261MOL0     H34421   6.036   8.565  11.228 -0.7250 -0.2707  1.7762
  261MOL0     H34422   6.246   8.681  11.313 -0.6006 -0.8700  0.5644
  261MOL0     H34423   6.290   8.599  11.165  2.3476 -0.8162  0.0708
  261MOL0     H34424   6.332   8.505  11.455 -3.4738 -4.0554 -1.5092
  261MOL0     H34425   6.378   8.407  11.331 -1.5732 -1.0949  0.6380
  261MOL0     H34426   6.494   8.695  11.345 -1.9140  0.5403  0.2554
  261MOL0     H34427   6.519   8.573  11.222 -1.7181 -0.7925  0.3857
  261MOL0     H34428   6.638   8.581  11.493  0.9430  0.9504 -0.8271
  261MOL0     H34429   6.712   8.565  11.337  0.8365 -0.5310  0.7073
  261MOL0     H34430   6.549   8.340  11.435 -0.9378  1.4403 -0.0186
  261MOL0     H34431   6.657   8.343  11.295 -0.5824 -0.0472 -0.2510
  261MOL0     H34432   6.770   8.380  11.576  1.9485  0.4791 -0.7718
  261MOL0     H34433   6.858   8.369  11.429  0.4438 -0.1492  0.2015
  261MOL0     H34434   6.189   8.119  11.239 -0.8985  2.2455  0.9307
  261MOL0     H34435   6.194   7.901  11.137 -0.5413 -0.5847  0.6830
  261MOL0     H34436   6.139   7.740  10.612  3.3716  0.2600  4.5983
  261MOL0     H34437   6.156   7.532  10.473  0.9016 -0.6236  1.1197
  261MOL0     H34438   4.780   6.383  10.922  0.3749 -1.2532  2.1503
  261MOL0     H34439   4.619   6.544  11.010  0.6490 -0.2646  2.5140
  261MOL0     H34440   4.566   6.795  11.367  0.1817  0.2597 -0.5330
  261MOL0     H34441   4.406   6.900  11.493 -0.0504 -2.2219 -2.0997
  261MOL0     H34442   4.276   7.328  11.389 -0.8965  0.5087 -0.8178
  261MOL0     H34443   4.158   7.285  11.511  1.1796 -0.1043  0.9074
  261MOL0     H34444   4.079   7.307  11.267 -0.5070  1.9251  3.0268
  261MOL0     H34445   4.147   7.138  11.242 -0.0965  0.0368 -0.1865
  261MOL0     H34446   3.996   7.077  11.432 -0.4800 -1.5911 -0.3561
  261MOL0     H34447   3.912   7.122  11.286  1.6394 -1.2674 -0.3778
  261MOL0     H34448   3.804   7.217  11.477 -1.3331  1.1924 -1.3003
  261MOL0     H34449   3.934   7.327  11.526  2.7761 -0.7810 -0.1104
  261MOL0     H34450   3.763   7.493  11.170  0.2480 -0.1406 -0.1840
  261MOL0     H34451   4.395   7.243  11.249 -1.0891  0.0369  1.0510
  261MOL0     H34452   4.559   7.147  11.098 -1.1759  2.7033  2.1525
  262MOL0     O34453   5.493   7.977   6.798  0.2714 -0.1702  0.0186
  262MOL0     C34454   5.487   8.091   6.751 -0.3426 -0.0859  0.3013
  262MOL0     O34455   5.592   8.145   6.673  0.9606 -0.2280 -0.2443
  262MOL0     C34456   5.716   8.091   6.694 -0.2488  0.2127 -0.3331
  262MOL0     C34457   5.778   8.082   6.821  0.4479 -0.1777 -0.3503
  262MOL0     C34458   5.910   8.046   6.839 -0.1424  0.6315  0.1914
  262MOL0     C34459   5.991   8.025   6.725  0.4228  0.3270 -0.0386
  262MOL0     O34460   6.118   7.987   6.711 -0.8474  0.0102 -0.5815
  262MOL0     C34461   6.199   7.988   6.830  0.6307 -0.3897  0.0947
  262MOL0     C34462   6.321   7.892   6.821  0.7039  0.0395  0.4780
  262MOL0     C34463   6.438   7.954   6.749  0.5666 -0.2962 -0.2965
  262MOL0     C34464   6.538   7.841   6.725  0.5096 -0.5300 -0.3156
  262MOL0     C34465   6.662   7.901   6.650  0.0313 -0.0695 -0.0221
  262MOL0     C34466   6.756   7.785   6.617  0.3108  0.1699 -0.0874
  262MOL0     C34467   6.887   7.844   6.559 -0.2397  0.0010 -0.0996
  262MOL0     C34468   6.985   7.899   6.658  0.3608  0.4219  0.4139
  262MOL0     N34469   7.079   7.992   6.594  0.6356  0.4356  0.1548
  262MOL0     C34470   7.191   7.949   6.518  0.6091  0.8011  0.3074
  262MOL0     C34471   7.228   8.066   6.464  0.5029  0.2442  0.1318
  262MOL0     C34472   7.347   8.088   6.372  0.4928 -0.1091  0.0578
  262MOL0     C34473   7.331   8.122   6.224 -1.1839 -0.9696  0.2149
  262MOL0     C34474   7.207   8.056   6.175 -0.0857  0.0673  0.6122
  262MOL0     C34475   7.227   8.040   6.023 -0.2591  0.1157 -0.0553
  262MOL0     O34476   7.102   8.001   5.969 -0.0268 -0.5311 -0.4660
  262MOL0     C34477   7.062   8.066   5.854  0.4179 -0.0022 -0.7317
  262MOL0     C34478   6.922   8.090   5.840 -0.3726  0.4852 -0.4864
  262MOL0     C34479   6.866   8.159   5.728 -0.3031 -0.1180 -0.3719
  262MOL0     C34480   6.949   8.198   5.623  0.0627 -0.0502  0.3204
  262MOL0     C34481   6.888   8.279   5.517  0.3533  0.7806  0.0622
  262MOL0     O34482   6.759   8.282   5.510  0.8026  0.6192  0.8414
  262MOL0     C34483   6.696   8.365   5.426 -0.1875 -0.0085 -0.7369
  262MOL0     C34484   6.716   8.502   5.423  0.2014 -0.5277  0.6366
  262MOL0     C34485   6.642   8.591   5.344  0.7195  0.2879 -0.1959
  262MOL0     C34486   6.537   8.536   5.259  0.3907 -0.2239 -1.0331
  262MOL0     O34487   6.474   8.605   5.161  0.5719 -0.0624  0.9265
  262MOL0     C34488   6.441   8.735   5.200 -0.0435 -0.3258  0.0665
  262MOL0     C34489   6.337   8.788   5.089  0.5226  0.0499  0.6404
  262MOL0     C34490   6.236   8.875   5.150  1.3544  0.2444  0.2097
  262MOL0     C34491   6.127   8.909   5.047  0.2390  0.1049  0.3391
  262MOL0     C34492   6.184   9.014   4.940 -0.6457 -0.6893 -0.1378
  262MOL0     C34493   6.078   9.032   4.828  0.0002 -0.2205 -0.6931
  262MOL0     C34494   6.132   9.134   4.723  0.1674 -0.1616  1.0352
  262MOL0     C34495   6.017   9.202   4.645  0.1405 -0.1009 -0.3755
  262MOL0    Cl34496   5.911   9.083   4.567  0.1135 -0.2525  0.2628
  262MOL0     C34497   6.520   8.400   5.267  0.6554 -0.2384  1.2802
  262MOL0     C34498   6.598   8.310   5.340  0.2497  0.8424 -0.0729
  262MOL0     O34499   6.966   8.347   5.451 -0.1792  0.2572 -1.2340
  262MOL0     C34500   7.089   8.180   5.641 -0.2181 -0.8271  0.1317
  262MOL0     C34501   7.143   8.114   5.752 -0.1891 -0.7812  0.3185
  262MOL0     N34502   7.146   8.171   6.509 -0.6727 -0.3395 -0.3301
  262MOL0     N34503   7.057   8.120   6.584  0.1846 -0.5532  0.0339
  262MOL0     C34504   5.927   8.035   6.606 -0.6783  0.5784 -0.1277
  262MOL0     C34505   5.792   8.060   6.585 -0.0835  0.3445  0.3789
  262MOL0     C34506   5.352   8.132   6.733  0.9698 -0.3660  0.0122
  262MOL0     C34507   5.324   8.194   6.613  0.5423  0.2179  0.0353
  262MOL0     C34508   5.189   8.244   6.586  0.2285  0.3622 -0.1654
  262MOL0     C34509   5.093   8.235   6.676 -0.0180 -0.0415  0.5905
  262MOL0     O34510   4.968   8.291   6.650 -0.1884  0.6991 -0.1442
  262MOL0     C34511   4.871   8.285   6.759 -0.6970 -0.0935  0.5581
  262MOL0     C34512   4.748   8.368   6.720 -0.9909  0.4452  0.6576
  262MOL0     C34513   4.631   8.328   6.799 -0.5211  0.7674 -0.1483
  262MOL0     C34514   4.515   8.423   6.766  0.2856  0.2325  0.5012
  262MOL0     C34515   4.518   8.552   6.839  0.2848 -0.3788  0.6873
  262MOL0     C34516   4.520   8.659   6.892 -0.1487  0.8007 -0.0454
  262MOL0     C34517   5.129   8.165   6.794 -0.1701 -0.0724 -0.0664
  262MOL0     C34518   5.251   8.110   6.829  0.2919 -0.2951 -0.2926
  262MOL0     H34519   5.710   8.108   6.902 -0.8995 -2.2507 -0.7627
  262MOL0     H34520   5.945   8.042   6.942  1.8013  0.6301 -0.4298
  262MOL0     H34521   6.135   7.950   6.910  0.4769  1.9166  1.1780
  262MOL0     H34522   6.236   8.088   6.858  1.2221 -0.4162 -0.5585
  262MOL0     H34523   6.286   7.809   6.759  0.1315  1.7930 -1.6870
  262MOL0     H34524   6.348   7.863   6.923  0.9127  1.2154  0.7730
  262MOL0     H34525   6.473   8.043   6.801 -0.6467 -0.7790  1.4177
  262MOL0     H34526   6.401   7.993   6.654  0.3075  1.0477  0.3393
  262MOL0     H34527   6.560   7.803   6.825 -0.6133  3.3704  1.6169
  262MOL0     H34528   6.492   7.764   6.662  0.9180 -0.7465 -0.3506
  262MOL0     H34529   6.711   7.978   6.710 -1.1542 -1.0924  2.4261
  262MOL0     H34530   6.628   7.943   6.555 -0.9336  2.3360  1.2946
  262MOL0     H34531   6.719   7.711   6.546  2.8076 -1.2005 -0.0945
  262MOL0     H34532   6.790   7.729   6.705  2.1951 -0.1572 -0.9762
  262MOL0     H34533   6.934   7.766   6.498  2.9719 -0.3554  2.5904
  262MOL0     H34534   6.868   7.931   6.495  2.2946 -0.9209 -2.2804
  262MOL0     H34535   7.040   7.817   6.705 -0.7943  0.1279  1.2840
  262MOL0     H34536   6.937   7.950   6.742  1.3022  0.1372  1.1302
  262MOL0     H34537   7.245   7.854   6.513 -0.1939  0.4017 -1.4941
  262MOL0     H34538   7.408   7.997   6.376  1.3925  0.3270 -2.3913
  262MOL0     H34539   7.400   8.169   6.423 -0.8058  0.2794  0.8469
  262MOL0     H34540   7.416   8.091   6.161  0.4408 -0.8979  2.2568
  262MOL0     H34541   7.323   8.230   6.210  3.7224 -0.6243 -2.2598
  262MOL0     H34542   7.180   7.972   6.240  2.2621  0.1624  1.8060
  262MOL0     H34543   7.138   8.139   6.193 -0.8403 -0.3872 -0.1164
  262MOL0     H34544   7.298   7.959   6.002 -1.9974 -1.2863 -0.7592
  262MOL0     H34545   7.265   8.135   5.984 -0.6691  0.0600 -0.6018
  262MOL0     H34546   6.851   8.057   5.916 -0.0713  2.7639  0.8789
  262MOL0     H34547   6.761   8.186   5.735 -0.4979 -1.1370  1.7028
  262MOL0     H34548   6.801   8.546   5.475  1.0127 -1.0940 -0.1890
  262MOL0     H34549   6.667   8.696   5.335 -0.7394  0.6336 -0.4166
  262MOL0     H34550   6.528   8.801   5.194  0.1913 -0.7909 -2.8020
  262MOL0     H34551   6.386   8.745   5.294 -1.0611  1.9312 -0.6852
  262MOL0     H34552   6.283   8.705   5.042 -2.9217  2.1451  0.5343
  262MOL0     H34553   6.393   8.836   5.009 -0.2417 -2.9721 -1.9223
  262MOL0     H34554   6.281   8.967   5.189  3.8115 -0.3337 -1.0260
  262MOL0     H34555   6.182   8.814   5.223 -1.6013  1.8784 -0.4895
  262MOL0     H34556   6.099   8.817   4.995 -1.2126  1.8328 -2.1643
  262MOL0     H34557   6.040   8.946   5.102  2.4092  1.1190  3.3826
  262MOL0     H34558   6.280   8.991   4.891 -0.7148 -2.4426  0.4884
  262MOL0     H34559   6.184   9.103   5.004 -6.9427 -1.2835  1.3161
  262MOL0     H34560   5.983   9.063   4.873  1.2669  3.5116 -0.2697
  262MOL0     H34561   6.052   8.940   4.774  0.8413  0.0012 -1.5077
  262MOL0     H34562   6.182   9.214   4.777 -0.1021  0.5563  0.2577
  262MOL0     H34563   6.194   9.090   4.644  0.3222  1.8733 -0.0411
  262MOL0     H34564   6.058   9.271   4.571 -0.8702  1.7479  0.7016
  262MOL0     H34565   5.957   9.267   4.710 -1.8411 -2.4571  0.2657
  262MOL0     H34566   6.443   8.360   5.201  1.2897 -0.7211  0.8112
  262MOL0     H34567   6.579   8.203   5.336 -0.2560  0.9495 -1.2171
  262MOL0     H34568   7.152   8.225   5.564 -0.7769 -0.6632 -0.2366
  262MOL0     H34569   7.250   8.123   5.770 -0.1773 -0.4876  0.1161
  262MOL0     H34570   5.988   8.032   6.516 -0.1459  0.5873  0.2290
  262MOL0     H34571   5.758   8.075   6.483  2.6895 -4.3292 -1.5442
  262MOL0     H34572   5.390   8.209   6.529 -2.3422 -0.2954 -2.4950
  262MOL0     H34573   5.174   8.294   6.491  1.5585 -2.3830 -1.9581
  262MOL0     H34574   4.926   8.326   6.845 -0.4315  1.5774 -0.3810
  262MOL0     H34575   4.850   8.179   6.776  0.9518 -1.0717 -2.6358
  262MOL0     H34576   4.765   8.476   6.715  0.4342  0.1940 -0.3154
  262MOL0     H34577   4.725   8.346   6.615 -3.6653  0.4734  1.1584
  262MOL0     H34578   4.659   8.325   6.904 -0.8001 -3.0565 -0.0407
  262MOL0     H34579   4.584   8.233   6.771  0.6323  0.7806 -2.3336
  262MOL0     H34580   4.493   8.442   6.660  1.5866 -2.4276 -0.3439
  262MOL0     H34581   4.432   8.360   6.800  0.9302 -1.3080 -0.6463
  262MOL0     H34582   4.533   8.754   6.940 -2.5051  2.8286 -3.0569
  262MOL0     H34583   5.053   8.163   6.871  0.4421  0.4004  0.5673
  262MOL0     H34584   5.260   8.067   6.929  1.8335 -0.0286 -0.2884
  263MOL0     O34585  11.153   5.801  10.433 -0.5244 -0.2942 -0.0241
  263MOL0     C34586  11.151   5.916  10.480 -0.1134 -0.1735 -0.8132
  263MOL0     O34587  11.260   5.987  10.512  0.1798  0.3355  0.2649
  263MOL0     C34588  11.392   5.953  10.491  0.2931  1.2719 -0.8090
  263MOL0     C34589  11.496   5.983  10.575  0.5845  1.0589 -1.1398
  263MOL0     C34590  11.625   5.965  10.534 -0.4073  1.1629 -0.5139
  263MOL0     C34591  11.658   5.902  10.420 -0.3197  0.0204 -0.4080
  263MOL0     O34592  11.790   5.864  10.387  0.1903  0.1800  0.0649
  263MOL0     C34593  11.886   5.836  10.490  0.0882 -0.4470 -0.3639
  263MOL0     C34594  11.976   5.716  10.460 -0.3145  0.2825 -0.0461
  263MOL0     C34595  11.912   5.582  10.486 -0.3759  0.0310 -0.5067
  263MOL0     C34596  11.795   5.548  10.404  0.0404  1.3909  0.3656
  263MOL0     C34597  11.767   5.393  10.397  0.2399 -0.5314  0.5682
  263MOL0     C34598  11.767   5.326  10.535  0.7557 -0.2183  0.1655
  263MOL0     C34599  11.696   5.189  10.522  0.4252 -0.8077  0.2008
  263MOL0     C34600  11.683   5.131  10.673  0.0987  0.2815  0.2613
  263MOL0     N34601  11.620   5.001  10.692 -0.2338 -0.7839  0.3906
  263MOL0     C34602  11.485   4.985  10.687  0.3195 -0.6936 -0.0993
  263MOL0     C34603  11.469   4.853  10.717 -0.2334  0.4005  0.4181
  263MOL0     C34604  11.345   4.781  10.731  0.1043 -0.4943  0.5321
  263MOL0     C34605  11.309   4.694  10.605 -0.8357  0.4035  0.1759
  263MOL0     C34606  11.288   4.783  10.474 -0.0306 -1.1761 -0.1472
  263MOL0     C34607  11.266   4.692  10.351  0.3275  0.3300 -0.2059
  263MOL0     O34608  11.135   4.632  10.356 -0.4011 -0.3701  0.1576
  263MOL0     C34609  11.020   4.711  10.350 -0.2123  0.4366 -0.2544
  263MOL0     C34610  10.981   4.783  10.235  0.2195 -0.3386 -0.3054
  263MOL0     C34611  10.858   4.852  10.238  0.5221  0.0556  0.0197
  263MOL0     C34612  10.788   4.876  10.362 -0.8054  0.0725  0.1041
  263MOL0     C34613  10.661   4.944  10.359 -0.4204  0.3179 -0.0773
  263MOL0     O34614  10.592   4.955  10.479 -1.5310  0.4879 -0.3925
  263MOL0     C34615  10.457   4.980  10.483 -0.1616  0.6563 -0.4495
  263MOL0     C34616  10.420   4.992  10.620 -0.4379 -0.4371 -0.0542
  263MOL0     C34617  10.291   5.020  10.648  0.7786 -0.0133 -0.0167
  263MOL0     C34618  10.196   5.037  10.543 -0.6979  1.2945  0.4327
  263MOL0     O34619  10.062   5.065  10.558 -0.1684  0.7367  0.2416
  263MOL0     C34620  10.005   5.038  10.687 -0.0758  0.0186  0.1799
  263MOL0     C34621   9.852   5.079  10.682  0.2063 -0.4647  0.1921
  263MOL0     C34622   9.756   4.961  10.701 -0.2792 -0.4683  0.9663
  263MOL0     C34623   9.726   4.947  10.852  0.5288 -0.1066  0.0432
  263MOL0     C34624   9.653   5.061  10.923 -0.0982 -0.0536 -0.3428
  263MOL0     C34625   9.544   5.122  10.844  1.7880  0.0344 -0.6816
  263MOL0     C34626   9.425   5.022  10.810  0.4519  0.1423 -1.3030
  263MOL0     C34627   9.298   5.090  10.755 -0.6467 -0.4626 -0.4438
  263MOL0    Cl34628   9.229   5.182  10.897 -0.0730 -0.6823  0.1335
  263MOL0     C34629  10.233   5.006  10.407 -0.3952  0.7961  0.3204
  263MOL0     C34630  10.369   4.991  10.378  0.5926 -0.4878 -0.1947
  263MOL0     O34631  10.609   4.952  10.244 -0.2444 -0.1944 -0.2524
  263MOL0     C34632  10.839   4.807  10.480 -0.7167 -0.7364  0.3460
  263MOL0     C34633  10.953   4.727  10.472  0.9197 -0.4049  0.0144
  263MOL0     N34634  11.592   4.797  10.756  0.2024 -0.7948 -0.4820
  263MOL0     N34635  11.679   4.891  10.748 -0.3022  1.2478 -0.6351
  263MOL0     C34636  11.550   5.867  10.335  0.4660 -0.6497 -0.8875
  263MOL0     C34637  11.424   5.901  10.368  0.0935 -0.3221 -0.6820
  263MOL0     C34638  11.017   5.993  10.476  0.0932 -0.3969 -1.0878
  263MOL0     C34639  10.895   5.926  10.461  0.2272  0.6297  0.4499
  263MOL0     C34640  10.774   5.995  10.486 -0.0747 -0.2641  0.4909
  263MOL0     C34641  10.774   6.134  10.508 -0.0096  0.4245  0.8873
  263MOL0     O34642  10.670   6.217  10.542 -0.4266  0.2178  0.6532
  263MOL0     C34643  10.550   6.162  10.599 -0.4632 -0.1798 -0.9603
  263MOL0     C34644  10.454   6.120  10.488  0.3350 -0.5650  0.2675
  263MOL0     C34645  10.381   6.243  10.438  0.0906  0.5879  0.1624
  263MOL0     C34646  10.295   6.208  10.316  0.6519 -0.8968  0.4424
  263MOL0     C34647  10.229   6.337  10.258  0.0383  0.4269 -0.3582
  263MOL0     C34648  10.195   6.446  10.218  0.1204  0.8244 -0.0498
  263MOL0     C34649  10.899   6.203  10.501 -0.7955 -0.5143 -0.1728
  263MOL0     C34650  11.017   6.132  10.496 -0.5275 -1.1903  1.2195
  263MOL0     H34651  11.482   6.016  10.677  0.1596 -2.4062  0.0392
  263MOL0     H34652  11.698   5.993  10.609 -2.5125  3.3035  0.8916
  263MOL0     H34653  11.837   5.823  10.587 -0.2074 -2.5312 -0.7523
  263MOL0     H34654  11.936   5.932  10.508 -0.3287 -0.4176  0.6914
  263MOL0     H34655  12.064   5.720  10.524  1.7347 -3.7665 -2.2241
  263MOL0     H34656  12.007   5.715  10.355  0.0871 -2.0859  0.0435
  263MOL0     H34657  11.874   5.574  10.588 -0.1658 -0.3934 -0.4634
  263MOL0     H34658  11.994   5.513  10.466 -1.6759 -1.0267 -2.5603
  263MOL0     H34659  11.705   5.600  10.438 -2.4547 -0.8727 -2.2212
  263MOL0     H34660  11.809   5.587  10.303  0.8462  1.4959  0.5161
  263MOL0     H34661  11.849   5.355  10.336  2.0800  1.8577  1.3833
  263MOL0     H34662  11.671   5.379  10.347 -0.1442  3.6836 -0.2543
  263MOL0     H34663  11.708   5.395  10.596 -0.7349 -1.0051 -0.3173
  263MOL0     H34664  11.870   5.319  10.569  1.1246 -0.1889 -0.9214
  263MOL0     H34665  11.595   5.195  10.481  1.1393  4.0750 -1.4702
  263MOL0     H34666  11.767   5.121  10.474  0.5010 -1.3656  1.0704
  263MOL0     H34667  11.626   5.208  10.727 -1.3657 -1.3903  1.2089
  263MOL0     H34668  11.786   5.120  10.708  0.4022 -0.2003 -0.7603
  263MOL0     H34669  11.411   5.060  10.659 -1.3509 -1.9639  0.6937
  263MOL0     H34670  11.260   4.848  10.749 -1.2067 -2.6485  3.2379
  263MOL0     H34671  11.354   4.719  10.821  2.1336  1.3461  1.6843
  263MOL0     H34672  11.221   4.629  10.613 -1.6316  1.4140 -0.2325
  263MOL0     H34673  11.391   4.621  10.596 -2.4038 -1.2184 -2.1776
  263MOL0     H34674  11.202   4.849  10.493  1.3079  0.9696 -1.2343
  263MOL0     H34675  11.372   4.851  10.457 -1.5306  0.8624  0.1448
  263MOL0     H34676  11.340   4.612  10.359  0.6446  0.6596  0.2489
  263MOL0     H34677  11.266   4.752  10.259  0.5780 -0.8846 -1.0151
  263MOL0     H34678  11.036   4.775  10.141  3.0746 -0.9301  1.3150
  263MOL0     H34679  10.813   4.891  10.147  1.0201 -2.5887 -1.4547
  263MOL0     H34680  10.495   4.966  10.693  0.3538  1.2017 -0.2420
  263MOL0     H34681  10.256   5.037  10.749  1.1760 -2.2169  0.5502
  263MOL0     H34682  10.056   5.100  10.762 -0.8593  0.7712  0.1065
  263MOL0     H34683  10.009   4.934  10.721  0.8767  0.0795  0.2681
  263MOL0     H34684   9.835   5.126  10.585 -2.3847 -0.9566  0.3295
  263MOL0     H34685   9.840   5.151  10.763  3.2025 -0.5631  0.8631
  263MOL0     H34686   9.800   4.869  10.661  0.5627 -0.0815  0.9762
  263MOL0     H34687   9.666   4.975  10.641 -0.7851 -0.4188  1.7287
  263MOL0     H34688   9.648   4.871  10.847 -1.8207  2.2319 -1.2252
  263MOL0     H34689   9.815   4.927  10.913  0.4579  1.5489  0.7415
  263MOL0     H34690   9.720   5.144  10.946  1.2622 -1.6695  1.9271
  263MOL0     H34691   9.616   5.031  11.021  4.0293 -2.8216  0.6113
  263MOL0     H34692   9.572   5.165  10.748  0.8239 -1.3642 -1.6237
  263MOL0     H34693   9.493   5.202  10.897 -2.6640 -1.4525 -2.2827
  263MOL0     H34694   9.475   4.944  10.752  2.4817 -0.4254  1.0711
  263MOL0     H34695   9.398   4.960  10.895 -0.5611  1.6216 -0.4978
  263MOL0     H34696   9.215   5.023  10.729 -2.4244  2.0483 -1.6757
  263MOL0     H34697   9.308   5.162  10.674 -3.5543 -0.8904 -1.2855
  263MOL0     H34698  10.166   5.003  10.322  0.0661  3.4382 -0.2278
  263MOL0     H34699  10.397   4.956  10.279 -2.0953 -2.2206 -0.4332
  263MOL0     H34700  10.791   4.811  10.577  0.6071  1.9558  0.9724
  263MOL0     H34701  10.989   4.679  10.562  2.3771  0.7647  0.0871
  263MOL0     H34702  11.578   5.812  10.246  0.1277 -2.5058  0.1042
  263MOL0     H34703  11.355   5.884  10.286  1.9483 -2.5787 -1.8993
  263MOL0     H34704  10.888   5.819  10.441 -1.0671  0.9801 -1.2071
  263MOL0     H34705  10.678   5.945  10.490  0.6083 -1.7322 -0.4796
  263MOL0     H34706  10.511   6.227  10.678 -0.3756 -3.4307  1.9898
  263MOL0     H34707  10.586   6.072  10.649 -1.7546 -1.1096 -1.6731
  263MOL0     H34708  10.512   6.066  10.413  2.5406  2.0040 -0.0142
  263MOL0     H34709  10.378   6.052  10.528 -1.2953  1.5005  0.8936
  263MOL0     H34710  10.446   6.331  10.426 -0.5066  1.6327  3.5150
  263MOL0     H34711  10.307   6.280  10.509 -0.2501  1.0865 -0.4438
  263MOL0     H34712  10.366   6.170  10.243  0.8593 -0.3007  0.3355
  263MOL0     H34713  10.216   6.134  10.337  0.8959 -1.9922 -2.1289
  263MOL0     H34714  10.174   6.535  10.162 -3.8265 -0.4010 -0.8633
  263MOL0     H34715  10.909   6.311  10.506  1.0907 -0.6549 -0.3574
  263MOL0     H34716  11.108   6.189  10.506 -0.3111 -1.3041  0.0256
  264MOL0     O34717   0.245   1.639   9.415  0.7538  0.6489  0.7823
  264MOL0     C34718   0.291   1.730   9.350  0.3275 -0.9893  0.1216
  264MOL0     O34719   0.228   1.803   9.252 -0.5359 -0.4101  0.3648
  264MOL0     C34720   0.097   1.757   9.227 -0.3554  0.0220  1.2954
  264MOL0     C34721   0.083   1.684   9.106  0.0916  0.6664 -0.8098
  264MOL0     C34722  -0.042   1.653   9.068  0.1204 -0.1315 -0.0964
  264MOL0     C34723  -0.152   1.674   9.155  0.4266 -0.1452 -0.3926
  264MOL0     O34724  -0.273   1.626   9.113  0.2017  0.2160  0.0753
  264MOL0     C34725  -0.340   1.699   9.014  0.4961 -0.0419 -0.4203
  264MOL0     C34726  -0.450   1.608   8.953  0.1373  0.6908  0.0984
  264MOL0     C34727  -0.566   1.557   9.048  0.9011  0.6789  0.0997
  264MOL0     C34728  -0.669   1.464   8.977 -0.4483 -0.1019  0.7385
  264MOL0     C34729  -0.761   1.396   9.083 -0.5582 -0.2862  0.0134
  264MOL0     C34730  -0.893   1.348   9.018  0.9528  0.1360  0.1936
  264MOL0     C34731  -1.009   1.317   9.113  0.7548  0.1535  0.0207
  264MOL0     C34732  -1.066   1.456   9.170  0.6258  0.6851  0.4249
  264MOL0     N34733  -1.100   1.548   9.059 -0.1582  0.2883  0.2049
  264MOL0     C34734  -1.028   1.658   9.013  0.4792 -0.9858  0.0661
  264MOL0     C34735  -1.090   1.698   8.890  0.6926 -0.1223  0.2394
  264MOL0     C34736  -1.045   1.811   8.805 -0.3029  0.3410 -0.1292
  264MOL0     C34737  -0.893   1.798   8.776  0.4396  1.0055  0.7095
  264MOL0     C34738  -0.859   1.882   8.650  0.1903  0.4822 -0.1291
  264MOL0     C34739  -0.711   1.899   8.648  0.4615  0.5144 -0.2083
  264MOL0     O34740  -0.663   1.772   8.603 -0.1373 -0.3447 -0.4803
  264MOL0     C34741  -0.522   1.752   8.599  0.0697 -0.5092  0.1687
  264MOL0     C34742  -0.420   1.832   8.661 -0.4618 -1.0327  0.4974
  264MOL0     C34743  -0.277   1.800   8.644  0.0964  0.4456 -0.5171
  264MOL0     C34744  -0.229   1.675   8.592  0.0603  0.1830  0.1276
  264MOL0     C34745  -0.088   1.642   8.585 -0.1229 -0.5505 -0.6920
  264MOL0     O34746  -0.058   1.515   8.612 -0.0159  0.3138  0.2185
  264MOL0     C34747   0.079   1.486   8.619  0.4719 -0.1267  0.3379
  264MOL0     C34748   0.131   1.375   8.550 -0.5053  0.4140 -0.3229
  264MOL0     C34749   0.260   1.336   8.561  0.5258 -0.0180  0.1392
  264MOL0     C34750   0.345   1.402   8.641  0.2915 -0.2733 -0.2853
  264MOL0     O34751   0.471   1.357   8.664 -0.0611  1.0683  0.1315
  264MOL0     C34752   0.573   1.457   8.699  0.2597 -0.9059 -0.6363
  264MOL0     C34753   0.709   1.420   8.649 -0.1494 -0.5030  0.3923
  264MOL0     C34754   0.823   1.521   8.683  0.2397 -0.1789 -0.1036
  264MOL0     C34755   0.958   1.449   8.680  0.0897 -0.5407  0.5253
  264MOL0     C34756   0.970   1.351   8.798 -0.0758 -0.1703 -0.1983
  264MOL0     C34757   1.101   1.280   8.777  0.2605 -0.4668 -0.7160
  264MOL0     C34758   1.100   1.149   8.692 -0.0771  0.2252  0.1038
  264MOL0     C34759   1.199   1.038   8.748  0.1878 -0.8568 -0.2313
  264MOL0    Cl34760   1.140   0.981   8.906  0.5808 -0.5293 -0.2885
  264MOL0     C34761   0.290   1.507   8.721  0.3036  0.3064  0.7298
  264MOL0     C34762   0.158   1.545   8.713 -0.0624 -0.2514  0.1796
  264MOL0     O34763  -0.010   1.734   8.557 -0.3331 -0.2580 -0.5956
  264MOL0     C34764  -0.334   1.595   8.535 -0.8781  0.4528  0.4227
  264MOL0     C34765  -0.471   1.627   8.552  0.6102  0.0337 -0.2301
  264MOL0     N34766  -1.185   1.595   8.871 -0.2533 -0.1505  0.0480
  264MOL0     N34767  -1.199   1.516   8.970  0.4696  0.1616 -0.0117
  264MOL0     C34768  -0.141   1.742   9.273 -0.7210  0.7175  0.4368
  264MOL0     C34769  -0.011   1.790   9.306  0.3468  0.1238  0.4018
  264MOL0     C34770   0.432   1.764   9.367 -0.1190 -0.0259  0.6144
  264MOL0     C34771   0.491   1.876   9.310  1.3542 -0.4459  0.0604
  264MOL0     C34772   0.624   1.898   9.328 -0.4778  0.2192 -0.1903
  264MOL0     C34773   0.707   1.811   9.397  0.8402 -0.5547 -0.1822
  264MOL0     O34774   0.822   1.871   9.431  0.5390 -0.0447 -0.1747
  264MOL0     C34775   0.932   1.792   9.460  0.7069  0.6147  0.3024
  264MOL0     C34776   1.055   1.869   9.483 -0.5922 -0.0617  0.0335
  264MOL0     C34777   1.196   1.800   9.490  0.1956  0.3367  0.1116
  264MOL0     C34778   1.310   1.870   9.421  0.1616  0.0074  0.8287
  264MOL0     C34779   1.437   1.808   9.457  0.4789 -0.1657  0.6810
  264MOL0     C34780   1.544   1.764   9.482  0.2185 -0.3804 -0.6888
  264MOL0     C34781   0.655   1.700   9.457  0.5490  0.2215 -0.0689
  264MOL0     C34782   0.515   1.680   9.443  0.1751 -0.1613 -0.1350
  264MOL0     H34783   0.161   1.657   9.036 -0.0960  2.5803 -1.8095
  264MOL0     H34784  -0.058   1.604   8.972  0.7807 -0.8616  0.1578
  264MOL0     H34785  -0.270   1.738   8.940  1.0060  0.8589  0.5291
  264MOL0     H34786  -0.385   1.790   9.054 -0.4786  1.7025 -4.9199
  264MOL0     H34787  -0.401   1.516   8.922  4.8130  1.7886  3.1206
  264MOL0     H34788  -0.493   1.666   8.871 -0.2566  1.8625  1.0944
  264MOL0     H34789  -0.618   1.651   9.071 -0.4627  0.8518 -3.1229
  264MOL0     H34790  -0.527   1.502   9.134 -0.6271  0.0032  0.3853
  264MOL0     H34791  -0.718   1.529   8.903 -0.7320 -0.2554  0.7895
  264MOL0     H34792  -0.622   1.379   8.925  0.5676  0.9757 -0.1575
  264MOL0     H34793  -0.785   1.471   9.158  0.9526 -0.6418  0.9068
  264MOL0     H34794  -0.712   1.315   9.138 -1.2088 -0.5227  0.2517
  264MOL0     H34795  -0.887   1.260   8.953 -1.5695 -2.2763  2.8556
  264MOL0     H34796  -0.911   1.432   8.951  0.0139 -1.2037 -1.2956
  264MOL0     H34797  -1.095   1.281   9.056  1.3984 -1.8312  0.2084
  264MOL0     H34798  -0.976   1.237   9.181  0.4105 -0.2173 -0.2450
  264MOL0     H34799  -0.996   1.501   9.241  0.4232 -0.3162  1.2873
  264MOL0     H34800  -1.162   1.439   9.220  1.0218 -1.3529  0.5774
  264MOL0     H34801  -0.939   1.690   9.066  2.4955  0.7941 -3.8992
  264MOL0     H34802  -1.060   1.905   8.858 -2.8110 -0.2286  0.2769
  264MOL0     H34803  -1.102   1.808   8.712 -2.5033  1.2554  1.1286
  264MOL0     H34804  -0.876   1.692   8.757 -1.9782  0.3519  1.7427
  264MOL0     H34805  -0.838   1.834   8.864  3.8498  2.8566 -1.9109
  264MOL0     H34806  -0.895   1.829   8.561 -0.3343 -0.0251  0.3713
  264MOL0     H34807  -0.906   1.980   8.652 -0.3526  0.2238  1.7017
  264MOL0     H34808  -0.668   1.925   8.745  2.1717  1.9678 -1.2832
  264MOL0     H34809  -0.689   1.974   8.570 -1.8588  0.9303 -0.5330
  264MOL0     H34810  -0.446   1.926   8.707 -0.0696 -0.8820  0.4102
  264MOL0     H34811  -0.201   1.858   8.696  1.1164 -2.2812  1.2593
  264MOL0     H34812   0.070   1.313   8.485  2.0951 -0.3669 -2.1875
  264MOL0     H34813   0.283   1.244   8.509  0.2364  0.0437 -0.0965
  264MOL0     H34814   0.572   1.464   8.808 -1.4617 -1.0909 -0.6192
  264MOL0     H34815   0.544   1.552   8.654 -1.4765 -0.9435  0.3294
  264MOL0     H34816   0.698   1.421   8.540 -1.3107 -0.7129  0.4928
  264MOL0     H34817   0.732   1.324   8.696  0.0095  0.2710  1.9258
  264MOL0     H34818   0.813   1.581   8.774 -1.1936  0.6403 -0.7712
  264MOL0     H34819   0.835   1.585   8.595 -2.2184  1.3836  0.6075
  264MOL0     H34820   0.972   1.400   8.583 -4.0908 -0.5086 -0.2676
  264MOL0     H34821   1.042   1.518   8.693 -0.9902  1.1259 -0.8387
  264MOL0     H34822   0.895   1.272   8.809  2.3905 -2.7318 -0.7390
  264MOL0     H34823   0.978   1.399   8.896  2.6297  0.7763 -0.8118
  264MOL0     H34824   1.155   1.252   8.868 -0.2996 -1.7389 -0.7416
  264MOL0     H34825   1.170   1.348   8.727  0.4131 -0.0028  0.1070
  264MOL0     H34826   1.000   1.107   8.699 -0.1311  0.3478  0.0761
  264MOL0     H34827   1.124   1.187   8.592 -0.3026 -0.8619 -0.3695
  264MOL0     H34828   1.301   1.077   8.763 -0.2323 -0.2479  1.2008
  264MOL0     H34829   1.217   0.956   8.678 -1.0224 -0.0047 -1.5933
  264MOL0     H34830   0.356   1.542   8.801  3.5056 -1.6806 -0.8217
  264MOL0     H34831   0.115   1.624   8.775  2.0162  2.9331 -2.1353
  264MOL0     H34832  -0.306   1.498   8.494 -1.2846  0.1964  0.7406
  264MOL0     H34833  -0.535   1.557   8.499  2.4251 -1.7251 -0.2148
  264MOL0     H34834  -0.227   1.759   9.337  0.1547  1.5538  1.4352
  264MOL0     H34835   0.004   1.846   9.398  0.6368 -0.9182  1.0025
  264MOL0     H34836   0.432   1.957   9.270 -1.2222 -0.3393  3.6170
  264MOL0     H34837   0.670   1.990   9.294  0.1865 -0.8348 -2.3089
  264MOL0     H34838   0.949   1.722   9.378 -1.9948  0.2772 -0.0671
  264MOL0     H34839   0.905   1.738   9.551 -3.8245  0.6327 -0.7767
  264MOL0     H34840   1.066   1.930   9.393  0.6384  0.7141  0.6806
  264MOL0     H34841   1.037   1.937   9.568  0.4561  1.8714 -1.2000
  264MOL0     H34842   1.200   1.699   9.449 -1.6535  0.1084  0.3840
  264MOL0     H34843   1.226   1.781   9.593 -0.7743  1.1788  0.5688
  264MOL0     H34844   1.293   1.872   9.313  4.6428  0.5571 -0.0733
  264MOL0     H34845   1.295   1.974   9.453 -2.9533  0.4993 -1.5915
  264MOL0     H34846   1.638   1.715   9.480  0.6914  0.5196 -1.1670
  264MOL0     H34847   0.712   1.642   9.530 -1.3558 -1.4784  0.1679
  264MOL0     H34848   0.474   1.588   9.484 -0.4525  0.4577  0.6351
  265MOL0     O34849   4.807   6.628   1.872 -1.1538 -0.3032  0.4502
  265MOL0     C34850   4.734   6.587   1.778  0.5586  0.6764 -0.6580
  265MOL0     O34851   4.765   6.499   1.677 -0.1224  0.3077 -0.5103
  265MOL0     C34852   4.896   6.461   1.632  1.1239  0.1819  0.6428
  265MOL0     C34853   4.902   6.362   1.529 -0.2593  0.4847 -0.9961
  265MOL0     C34854   5.023   6.341   1.467  0.3544  0.6477 -0.1406
  265MOL0     C34855   5.137   6.413   1.501 -0.6439  0.0157  0.8432
  265MOL0     O34856   5.252   6.372   1.433  0.2819  0.0595  0.3817
  265MOL0     C34857   5.385   6.360   1.490  1.1156  0.8238 -0.8713
  265MOL0     C34858   5.405   6.301   1.624 -0.0292 -0.4219 -1.5581
  265MOL0     C34859   5.549   6.261   1.673 -0.3257 -0.9931 -0.0278
  265MOL0     C34860   5.572   6.214   1.820 -1.1939 -0.7698  0.2154
  265MOL0     C34861   5.719   6.230   1.855 -0.2187 -0.8183 -0.1941
  265MOL0     C34862   5.736   6.197   2.005 -0.8517  1.5044 -0.7479
  265MOL0     C34863   5.713   6.046   2.024  0.0094 -0.2924 -0.7537
  265MOL0     C34864   5.757   6.005   2.167  0.1971 -0.1452 -0.1019
  265MOL0     N34865   5.713   6.096   2.267  0.2154  0.2059 -0.7589
  265MOL0     C34866   5.592   6.116   2.321  0.1088  0.6737  0.6756
  265MOL0     C34867   5.602   6.205   2.422 -0.9206 -0.4952  0.0919
  265MOL0     C34868   5.481   6.257   2.496 -0.2091  0.3656 -0.6236
  265MOL0     C34869   5.438   6.400   2.468  0.2235  0.0471  0.0249
  265MOL0     C34870   5.419   6.442   2.312  0.5766  0.2137 -0.0977
  265MOL0     C34871   5.417   6.598   2.301 -0.4262 -0.0869  0.3759
  265MOL0     O34872   5.325   6.664   2.389 -0.1491 -1.0446 -1.2093
  265MOL0     C34873   5.189   6.638   2.378 -0.1700 -0.4667  1.1577
  265MOL0     C34874   5.122   6.621   2.253 -0.2059  0.5650  0.2368
  265MOL0     C34875   4.987   6.590   2.248  0.0976  0.2711 -0.4102
  265MOL0     C34876   4.910   6.577   2.369 -0.5535  0.5135 -0.1368
  265MOL0     C34877   4.772   6.522   2.346  0.3497  0.1595  1.4070
  265MOL0     O34878   4.717   6.550   2.229  0.0756  0.4467 -0.4165
  265MOL0     C34879   4.606   6.482   2.198  0.9505  0.0690  0.4077
  265MOL0     C34880   4.489   6.527   2.252 -0.1318  0.0825  0.7772
  265MOL0     C34881   4.367   6.482   2.199  0.5823 -0.5787 -0.9612
  265MOL0     C34882   4.359   6.367   2.122  0.7435 -0.0592 -0.2648
  265MOL0     O34883   4.230   6.318   2.094 -0.1155  0.4348 -0.0105
  265MOL0     C34884   4.214   6.284   1.956 -0.0630 -1.3575 -0.1974
  265MOL0     C34885   4.066   6.303   1.925  0.2945  0.4842  0.6224
  265MOL0     C34886   4.030   6.277   1.777  1.0134 -0.6400 -0.5005
  265MOL0     C34887   3.888   6.294   1.751 -0.6776  0.3512 -0.5417
  265MOL0     C34888   3.833   6.218   1.626 -1.8033 -0.2393 -0.2351
  265MOL0     C34889   3.925   6.222   1.500 -0.0813 -0.6705 -0.7653
  265MOL0     C34890   3.853   6.160   1.381 -0.6445 -0.4495  0.6576
  265MOL0     C34891   3.944   6.168   1.261  0.1168 -0.8534  0.3678
  265MOL0    Cl34892   3.987   6.349   1.231  0.5536 -0.0002 -0.0125
  265MOL0     C34893   4.479   6.311   2.078 -0.4036  0.3243  0.3915
  265MOL0     C34894   4.602   6.381   2.100  0.3266  0.7508 -0.0193
  265MOL0     O34895   4.730   6.437   2.425  0.1213 -0.4518 -1.0938
  265MOL0     C34896   4.973   6.588   2.496 -0.5746 -0.0820 -0.3482
  265MOL0     C34897   5.111   6.623   2.492 -0.6766  0.7627 -0.1326
  265MOL0     N34898   5.733   6.249   2.427 -0.0182  0.2650 -0.4672
  265MOL0     N34899   5.796   6.193   2.327  0.3375  1.1799 -0.0307
  265MOL0     C34900   5.139   6.502   1.605  0.4093  0.8869  0.1134
  265MOL0     C34901   5.012   6.535   1.657 -0.0684 -0.2671 -0.1239
  265MOL0     C34902   4.583   6.603   1.805 -0.1303  0.5759  0.6346
  265MOL0     C34903   4.532   6.685   1.915  0.2925  0.2642 -0.1807
  265MOL0     C34904   4.395   6.687   1.945  0.0546  0.3754  0.4417
  265MOL0     C34905   4.303   6.616   1.863  0.2107 -0.2554  0.4175
  265MOL0     O34906   4.168   6.608   1.884 -0.1518  0.0853 -0.1242
  265MOL0     C34907   4.109   6.684   1.992 -0.1199 -0.2135 -0.7292
  265MOL0     C34908   3.966   6.719   1.959 -0.0684  0.0472  0.4278
  265MOL0     C34909   3.930   6.782   1.823 -0.1851  0.2059  0.1081
  265MOL0     C34910   3.971   6.922   1.823 -1.5216  0.1300  0.3784
  265MOL0     C34911   3.940   6.987   1.700 -0.3247 -1.1227  0.1074
  265MOL0     C34912   3.914   7.045   1.595  0.4500 -0.3857 -0.1124
  265MOL0     C34913   4.348   6.556   1.748 -0.3366 -0.3699 -0.3065
  265MOL0     C34914   4.483   6.551   1.722 -0.6135 -0.0789  0.4048
  265MOL0     H34915   4.811   6.314   1.493  0.3451 -0.3845 -1.3813
  265MOL0     H34916   5.033   6.266   1.389  2.4464  1.1247 -0.4089
  265MOL0     H34917   5.428   6.458   1.511 -1.0762  1.1151  3.1201
  265MOL0     H34918   5.449   6.299   1.425  0.8782  1.8415 -2.0983
  265MOL0     H34919   5.339   6.215   1.640  0.3431 -1.1121 -3.4361
  265MOL0     H34920   5.361   6.369   1.697  2.1406 -0.7539  0.1653
  265MOL0     H34921   5.601   6.356   1.655 -4.7738  1.5382 -1.1069
  265MOL0     H34922   5.587   6.181   1.610 -1.0114 -2.6870  1.6282
  265MOL0     H34923   5.515   6.275   1.892 -2.0908 -0.0101 -1.1022
  265MOL0     H34924   5.533   6.112   1.819 -0.3473 -1.1440 -2.5114
  265MOL0     H34925   5.735   6.339   1.858 -2.1095 -0.5122  2.4184
  265MOL0     H34926   5.783   6.175   1.786  0.1702 -0.5306 -0.0672
  265MOL0     H34927   5.658   6.249   2.063  0.6088  1.0743  1.7781
  265MOL0     H34928   5.830   6.232   2.049 -1.3710 -0.2160  2.0617
  265MOL0     H34929   5.605   6.034   2.016 -0.6379  3.6605  0.0140
  265MOL0     H34930   5.763   5.992   1.943  0.5885 -0.5644 -0.2225
  265MOL0     H34931   5.867   6.004   2.166  0.6472 -1.5005  6.1895
  265MOL0     H34932   5.723   5.901   2.180 -1.1113  0.1095 -1.2347
  265MOL0     H34933   5.499   6.071   2.286  1.9248 -0.5682 -3.0454
  265MOL0     H34934   5.505   6.253   2.603 -0.3898  0.1988 -0.5892
  265MOL0     H34935   5.400   6.189   2.468 -1.5963  3.3234 -4.7369
  265MOL0     H34936   5.511   6.468   2.512 -0.5475  1.6411 -1.0829
  265MOL0     H34937   5.341   6.415   2.515  0.5373  0.9897  0.3906
  265MOL0     H34938   5.498   6.405   2.246 -0.0494 -1.4065  0.0242
  265MOL0     H34939   5.320   6.403   2.287 -0.1462 -1.5084  4.4127
  265MOL0     H34940   5.404   6.628   2.196 -0.9471 -5.7873 -1.5360
  265MOL0     H34941   5.518   6.627   2.330  0.0129 -2.8713  1.8818
  265MOL0     H34942   5.168   6.652   2.159  2.6686 -2.3304  0.5347
  265MOL0     H34943   4.937   6.578   2.152 -1.2641  2.0500  0.0175
  265MOL0     H34944   4.496   6.609   2.323  0.2951  0.4449  0.3148
  265MOL0     H34945   4.267   6.518   2.222  1.1163 -0.0770  0.7460
  265MOL0     H34946   4.251   6.182   1.942  1.3415 -1.1296  1.4727
  265MOL0     H34947   4.275   6.350   1.894 -0.4326  0.0827  0.9134
  265MOL0     H34948   4.035   6.402   1.961 -2.0277 -0.6140  1.8998
  265MOL0     H34949   4.005   6.235   1.986 -1.0962  0.7838 -0.3607
  265MOL0     H34950   4.051   6.174   1.748  1.5526 -0.1619 -1.8860
  265MOL0     H34951   4.075   6.351   1.710  0.3244 -0.3238 -0.6273
  265MOL0     H34952   3.837   6.252   1.838  0.7821  1.4286  0.8756
  265MOL0     H34953   3.872   6.402   1.755 -0.5119  0.4546 -2.0560
  265MOL0     H34954   3.736   6.263   1.603 -1.3989  1.1828  0.7168
  265MOL0     H34955   3.829   6.111   1.647 -0.0409  0.2028  3.1022
  265MOL0     H34956   4.015   6.160   1.511  0.2114  0.1180  2.3109
  265MOL0     H34957   3.951   6.327   1.483  1.5205 -1.2388 -2.0839
  265MOL0     H34958   3.834   6.053   1.387  0.8057 -0.8040 -0.5675
  265MOL0     H34959   3.759   6.213   1.362 -1.2483 -1.3839  0.9653
  265MOL0     H34960   3.886   6.134   1.175 -0.4170  1.4588 -0.2775
  265MOL0     H34961   4.034   6.106   1.264 -0.9172 -2.3898  1.2291
  265MOL0     H34962   4.480   6.218   2.021 -1.2207  0.0349  0.8338
  265MOL0     H34963   4.699   6.340   2.075  0.7837 -1.1467  3.9735
  265MOL0     H34964   4.911   6.587   2.586  1.1793  0.9703  0.9207
  265MOL0     H34965   5.175   6.636   2.579  2.0824  0.5232 -2.0092
  265MOL0     H34966   5.232   6.551   1.631 -0.9766  3.2867  0.8178
  265MOL0     H34967   5.023   6.612   1.732  3.3069 -1.8916  1.2348
  265MOL0     H34968   4.607   6.741   1.970 -0.1755 -1.2857  2.1728
  265MOL0     H34969   4.364   6.743   2.033  0.2939 -0.4289  1.0498
  265MOL0     H34970   4.165   6.777   2.006  1.9155 -1.4831  0.0869
  265MOL0     H34971   4.113   6.627   2.085  2.5397 -0.6887 -1.0490
  265MOL0     H34972   3.926   6.617   1.953 -1.8315  0.8138 -2.6520
  265MOL0     H34973   3.913   6.778   2.034 -1.2356 -1.8065  1.1344
  265MOL0     H34974   3.827   6.756   1.796  0.0916 -1.3112  0.4166
  265MOL0     H34975   3.988   6.724   1.750 -1.6213 -0.6065 -0.4210
  265MOL0     H34976   3.922   6.981   1.902 -0.0750  3.3036 -0.9253
  265MOL0     H34977   4.079   6.931   1.839 -1.5199 -0.9417  1.0898
  265MOL0     H34978   3.889   7.102   1.508  2.9504  1.1509  0.0800
  265MOL0     H34979   4.271   6.504   1.692 -0.9215  1.6584 -1.4534
  265MOL0     H34980   4.514   6.494   1.636 -1.0805 -3.2034  2.1576
  266MOL0     O34981   2.238   0.161   7.144 -0.4623  0.1000 -0.4293
  266MOL0     C34982   2.294   0.263   7.120 -0.6401 -0.9795  0.1079
  266MOL0     O34983   2.244   0.357   7.034  0.6184 -0.6263 -0.2948
  266MOL0     C34984   2.140   0.326   6.944  0.3605  1.3950  0.7369
  266MOL0     C34985   2.146   0.405   6.830 -0.5635 -0.1833 -0.7987
  266MOL0     C34986   2.048   0.390   6.733  0.3653 -0.6641  0.2957
  266MOL0     C34987   1.935   0.307   6.749 -1.1022 -0.2866  0.3882
  266MOL0     O34988   1.846   0.299   6.652  0.7989  0.5710 -0.1765
  266MOL0     C34989   1.726   0.235   6.675  0.2553 -0.5312  0.4988
  266MOL0     C34990   1.622   0.332   6.721  0.7986  0.8831  0.0076
  266MOL0     C34991   1.484   0.257   6.758 -0.5791  0.0709  0.2250
  266MOL0     C34992   1.384   0.362   6.814 -0.0783  0.5351  0.2624
  266MOL0     C34993   1.258   0.283   6.859 -0.3203 -0.0283 -0.0499
  266MOL0     C34994   1.155   0.390   6.905 -0.0853  0.7204  0.0373
  266MOL0     C34995   1.040   0.313   6.956  0.1962  0.1971  0.3203
  266MOL0     C34996   0.938   0.287   6.860  0.2599 -1.0869  0.1452
  266MOL0     N34997   0.824   0.209   6.911 -0.4071 -0.1408  0.0535
  266MOL0     C34998   0.725   0.248   6.998 -0.2297 -0.4996 -0.9145
  266MOL0     C34999   0.661   0.126   7.018  0.9414 -0.9056 -0.1193
  266MOL0     C35000   0.547   0.112   7.111  0.2158  0.2499  0.0802
  266MOL0     C35001   0.422   0.192   7.056  0.1946  0.1996  0.3022
  266MOL0     C35002   0.299   0.137   7.130  0.4042  0.0998  1.0298
  266MOL0     C35003   0.181   0.233   7.109 -0.1522  0.6957 -0.0796
  266MOL0     O35004   0.064   0.169   7.161  0.2930  0.2805 -0.3459
  266MOL0     C35005  -0.039   0.131   7.083  0.3699  0.1334  0.3230
  266MOL0     C35006  -0.156   0.090   7.154  0.1957 -0.7512 -0.5297
  266MOL0     C35007  -0.272   0.048   7.091  0.3023 -1.2305 -0.1888
  266MOL0     C35008  -0.270   0.035   6.955  0.0346  0.0333  0.4449
  266MOL0     C35009  -0.384  -0.021   6.886  0.8031  0.1519  0.4376
  266MOL0     O35010  -0.504  -0.034   6.958 -0.1226 -0.7114 -0.0594
  266MOL0     C35011  -0.627  -0.039   6.893  0.0403  0.1133 -0.5730
  266MOL0     C35012  -0.726   0.036   6.955 -0.2913  0.0817  0.3903
  266MOL0     C35013  -0.863   0.002   6.939  0.6493 -0.0099  0.2216
  266MOL0     C35014  -0.893  -0.087   6.838 -0.3106  0.1763 -0.0207
  266MOL0     O35015  -1.026  -0.106   6.807 -0.1537 -0.2052  0.3078
  266MOL0     C35016  -1.048  -0.109   6.667  0.7554  0.0047 -0.6398
  266MOL0     C35017  -1.199  -0.084   6.642 -0.5612 -0.0271 -0.6355
  266MOL0     C35018  -1.283  -0.205   6.687  0.6292  0.4199 -0.3847
  266MOL0     C35019  -1.419  -0.226   6.621 -0.4058  0.3344  0.1753
  266MOL0     C35020  -1.481  -0.374   6.637  0.0893 -0.2083 -0.0654
  266MOL0     C35021  -1.617  -0.386   6.561  0.0502 -0.4936 -0.0789
  266MOL0     C35022  -1.737  -0.296   6.624 -0.1440  0.2605 -0.2327
  266MOL0     C35023  -1.774  -0.358   6.764  0.2793  0.1559  0.7951
  266MOL0    Cl35024  -1.904  -0.259   6.842  0.2844 -0.2411 -0.0167
  266MOL0     C35025  -0.789  -0.142   6.759  0.2769  0.5034 -0.2024
  266MOL0     C35026  -0.658  -0.122   6.785  0.2285 -1.5181  0.4168
  266MOL0     O35027  -0.373  -0.056   6.767  0.0907  0.3315  0.5142
  266MOL0     C35028  -0.148   0.049   6.885 -0.2028  0.2095 -0.0482
  266MOL0     C35029  -0.043   0.114   6.943  0.1369  1.1531  1.0504
  266MOL0     N35030   0.712   0.033   6.940 -0.7212  1.2868  0.1931
  266MOL0     N35031   0.815   0.071   6.880  0.1907 -0.0656  0.4235
  266MOL0     C35032   1.931   0.231   6.863  0.3313  0.8622  0.7812
  266MOL0     C35033   2.026   0.237   6.963  0.1405  0.1507  0.1375
  266MOL0     C35034   2.433   0.284   7.176 -0.4201  0.0800 -0.2203
  266MOL0     C35035   2.469   0.204   7.294 -0.8941  0.6309  0.9056
  266MOL0     C35036   2.601   0.224   7.344  0.0003 -0.5795 -0.1923
  266MOL0     C35037   2.688   0.324   7.293  1.1629  1.3234 -0.7324
  266MOL0     O35038   2.813   0.329   7.344 -0.7967  0.5202 -0.5983
  266MOL0     C35039   2.816   0.415   7.457 -0.0558 -0.9890 -0.3084
  266MOL0     C35040   2.929   0.360   7.554  0.5546 -0.2926  0.2466
  266MOL0     C35041   3.070   0.374   7.485  0.7135 -0.5063  0.2013
  266MOL0     C35042   3.159   0.256   7.527 -0.0216  0.2371  0.5710
  266MOL0     C35043   3.296   0.280   7.485 -0.9429 -0.1298 -0.4357
  266MOL0     C35044   3.408   0.299   7.438  0.2923 -0.6456 -0.5027
  266MOL0     C35045   2.648   0.412   7.194 -0.1049 -0.6071 -0.5913
  266MOL0     C35046   2.518   0.389   7.137 -0.1890 -0.2727  0.7275
  266MOL0     H35047   2.233   0.469   6.825 -2.3832  2.7930  1.7067
  266MOL0     H35048   2.041   0.451   6.643  2.9868 -0.4458  0.1760
  266MOL0     H35049   1.734   0.145   6.736  3.1774 -2.4346 -2.3935
  266MOL0     H35050   1.685   0.202   6.579  1.0983 -3.6848  1.1312
  266MOL0     H35051   1.602   0.405   6.642 -1.9485  3.1593  2.5796
  266MOL0     H35052   1.663   0.387   6.806  1.6689  2.9257 -1.6399
  266MOL0     H35053   1.508   0.183   6.835  3.1069 -0.0926 -0.9337
  266MOL0     H35054   1.447   0.196   6.675 -0.5244  0.9055 -0.4323
  266MOL0     H35055   1.427   0.417   6.898 -1.1809  1.4492  0.2624
  266MOL0     H35056   1.351   0.430   6.735  0.1559  0.4097  0.0578
  266MOL0     H35057   1.277   0.214   6.941 -1.6363 -1.0416 -0.5569
  266MOL0     H35058   1.212   0.230   6.775 -1.5587 -0.4573  0.8650
  266MOL0     H35059   1.131   0.457   6.822 -1.9821  0.6722  0.4942
  266MOL0     H35060   1.195   0.452   6.986 -0.3197  4.3385 -2.4052
  266MOL0     H35061   1.059   0.221   7.014 -1.1463 -0.2104  0.1449
  266MOL0     H35062   0.997   0.383   7.029  1.4691 -0.1882  1.5049
  266MOL0     H35063   0.985   0.220   6.786  2.8466  0.6534  0.0701
  266MOL0     H35064   0.895   0.373   6.809 -0.4933 -2.7563 -2.2269
  266MOL0     H35065   0.706   0.349   7.036 -1.7838 -0.2881 -2.1625
  266MOL0     H35066   0.563   0.159   7.208 -1.0887  1.6761 -0.3497
  266MOL0     H35067   0.516   0.008   7.126 -2.3508  1.0132  0.6191
  266MOL0     H35068   0.423   0.163   6.951  1.9049 -0.2000  0.3982
  266MOL0     H35069   0.429   0.301   7.062 -2.0442  0.6027 -2.4823
  266MOL0     H35070   0.276   0.041   7.083 -0.6673  1.1563 -0.6994
  266MOL0     H35071   0.307   0.115   7.237  2.6527 -0.1193  0.8766
  266MOL0     H35072   0.186   0.263   7.004 -0.4243 -0.9076 -0.5704
  266MOL0     H35073   0.207   0.319   7.171  0.9214 -0.0072  0.4803
  266MOL0     H35074  -0.147   0.104   7.261 -1.4717  4.1407 -0.7405
  266MOL0     H35075  -0.354   0.023   7.156 -0.7996 -1.8085 -1.7376
  266MOL0     H35076  -0.695   0.099   7.037  2.1564  1.7310 -1.6667
  266MOL0     H35077  -0.937   0.040   7.009 -0.3352 -3.0356  0.9593
  266MOL0     H35078  -1.021  -0.200   6.612 -0.5914  0.5248 -2.2654
  266MOL0     H35079  -0.992  -0.025   6.626  2.0251 -1.5177 -2.1762
  266MOL0     H35080  -1.210  -0.087   6.533  0.9274 -0.9126 -0.7921
  266MOL0     H35081  -1.239   0.005   6.691  2.4098  1.5338 -0.8340
  266MOL0     H35082  -1.298  -0.216   6.795  3.3146  0.0534  0.0169
  266MOL0     H35083  -1.229  -0.296   6.659 -0.3827 -0.8283  1.4617
  266MOL0     H35084  -1.487  -0.150   6.660 -1.7941 -1.0377  0.5023
  266MOL0     H35085  -1.398  -0.204   6.515  2.2552  4.1907  1.2674
  266MOL0     H35086  -1.504  -0.399   6.741 -2.4923 -0.8548 -0.7369
  266MOL0     H35087  -1.415  -0.455   6.606  0.2538 -0.0859 -0.0369
  266MOL0     H35088  -1.642  -0.492   6.553  1.2070 -0.7964  0.2970
  266MOL0     H35089  -1.601  -0.350   6.459 -0.4271 -0.7883 -0.2630
  266MOL0     H35090  -1.725  -0.187   6.630 -2.8240  0.5341  2.3185
  266MOL0     H35091  -1.829  -0.323   6.571 -1.4070  0.3116  1.8391
  266MOL0     H35092  -1.690  -0.359   6.834 -1.0954  1.9256  2.5985
  266MOL0     H35093  -1.811  -0.460   6.751  1.1743 -0.1254  0.3429
  266MOL0     H35094  -0.817  -0.218   6.686  1.0261  1.6228 -1.7056
  266MOL0     H35095  -0.582  -0.176   6.729  1.4105  2.6540 -2.4743
  266MOL0     H35096  -0.144   0.033   6.778 -2.6024  1.7245 -0.4328
  266MOL0     H35097   0.042   0.136   6.878 -0.1159 -1.0930 -0.1114
  266MOL0     H35098   1.846   0.171   6.896  1.4608  0.2814  2.8369
  266MOL0     H35099   2.013   0.185   7.057  4.1085 -0.7905  0.3505
  266MOL0     H35100   2.406   0.129   7.340  1.0397 -0.1695  2.3878
  266MOL0     H35101   2.637   0.166   7.428  1.4884  0.6482  0.0738
  266MOL0     H35102   2.724   0.393   7.513 -1.0993 -0.8776 -1.9102
  266MOL0     H35103   2.815   0.519   7.423  1.0465 -1.2299 -1.1458
  266MOL0     H35104   2.919   0.410   7.652  2.4946 -1.5110  1.1255
  266MOL0     H35105   2.904   0.256   7.576  1.0175 -0.4834 -0.1211
  266MOL0     H35106   3.122   0.467   7.508  0.5837 -0.4965  0.4640
  266MOL0     H35107   3.061   0.377   7.376 -0.9190 -2.7519  0.1879
  266MOL0     H35108   3.155   0.243   7.635 -0.5351 -4.0057  0.2037
  266MOL0     H35109   3.130   0.161   7.482 -0.5776  1.5114 -1.9083
  266MOL0     H35110   3.503   0.320   7.393  2.2756 -3.0623  2.1547
  266MOL0     H35111   2.705   0.496   7.155 -1.4262  1.0786  0.9603
  266MOL0     H35112   2.483   0.455   7.059 -1.7679 -1.3037  0.5160
  267MOL0     O35113   1.215   8.027   8.040  0.1670  0.4924  0.3849
  267MOL0     C35114   1.232   8.084   8.140 -0.3081 -0.5829 -0.6988
  267MOL0     O35115   1.353   8.105   8.208  0.1803  0.0795 -0.5307
  267MOL0     C35116   1.480   8.091   8.161 -0.0845 -0.8616 -0.6507
  267MOL0     C35117   1.581   8.123   8.252 -0.4859  0.2755  0.1680
  267MOL0     C35118   1.714   8.115   8.213 -0.2223  0.1182  0.3183
  267MOL0     C35119   1.753   8.073   8.080  0.4366  0.4857 -0.1467
  267MOL0     O35120   1.882   8.055   8.041 -0.5361  0.3910 -0.4967
  267MOL0     C35121   1.982   8.136   8.092 -0.4560 -0.2951  0.1337
  267MOL0     C35122   2.122   8.096   8.041 -0.3806  0.5913 -0.3896
  267MOL0     C35123   2.156   8.125   7.886  0.2391 -0.3068  0.4814
  267MOL0     C35124   2.309   8.128   7.870 -1.3164  0.1143  0.1715
  267MOL0     C35125   2.360   8.094   7.731 -0.5152 -0.5387  1.1583
  267MOL0     C35126   2.362   8.218   7.635  0.9321 -0.2968 -0.3290
  267MOL0     C35127   2.371   8.170   7.488 -1.1283 -0.0229  0.1333
  267MOL0     C35128   2.506   8.130   7.448  0.3260  0.0485 -0.3022
  267MOL0     N35129   2.532   7.988   7.446  0.3636  0.3565 -0.3895
  267MOL0     C35130   2.465   7.895   7.380  0.0343  0.5478  0.5344
  267MOL0     C35131   2.503   7.775   7.418 -1.0977 -0.6330  0.4285
  267MOL0     C35132   2.458   7.649   7.359 -0.4396 -0.1330 -0.1051
  267MOL0     C35133   2.370   7.576   7.464  0.4073  0.5772 -0.3067
  267MOL0     C35134   2.281   7.469   7.404  0.3589  1.0890 -0.5033
  267MOL0     C35135   2.181   7.401   7.505 -0.6216  0.4209  0.5536
  267MOL0     O35136   2.060   7.485   7.516  0.5684 -0.1865 -0.3886
  267MOL0     C35137   1.937   7.430   7.536  0.5636  0.4797 -0.3281
  267MOL0     C35138   1.826   7.500   7.475  0.5458 -0.2926 -0.4039
  267MOL0     C35139   1.699   7.458   7.487 -1.0558  0.0972 -0.0926
  267MOL0     C35140   1.664   7.343   7.554  0.0232  0.1736 -0.2708
  267MOL0     C35141   1.528   7.302   7.569 -0.1999 -0.3385  0.5739
  267MOL0     O35142   1.432   7.403   7.576 -0.2314  0.1133 -0.7233
  267MOL0     C35143   1.296   7.384   7.597 -0.0397 -0.4033 -0.3221
  267MOL0     C35144   1.227   7.262   7.597  0.8938  0.3200 -0.3732
  267MOL0     C35145   1.089   7.259   7.616  0.4189 -0.0787 -0.6775
  267MOL0     C35146   1.013   7.376   7.638 -0.8354  0.6268 -0.4361
  267MOL0     O35147   0.874   7.379   7.680 -0.4189 -0.0804  1.0683
  267MOL0     C35148   0.817   7.254   7.701 -0.0301 -0.9646 -0.0106
  267MOL0     C35149   0.674   7.267   7.734  0.3274 -0.1369  0.6086
  267MOL0     C35150   0.597   7.358   7.638 -0.0697 -0.1240  0.5818
  267MOL0     C35151   0.450   7.337   7.656  0.1878  0.1925 -0.0081
  267MOL0     C35152   0.367   7.397   7.548  0.9730 -0.2052 -0.6062
  267MOL0     C35153   0.212   7.388   7.575  0.8138 -0.0973 -0.3024
  267MOL0     C35154   0.170   7.476   7.701 -0.0256  1.1473 -0.3188
  267MOL0     C35155   0.017   7.498   7.720 -0.3856 -0.2872  0.2465
  267MOL0    Cl35156  -0.054   7.328   7.747  0.0896  0.0766  0.2103
  267MOL0     C35157   1.084   7.497   7.635  0.2421  0.2833 -0.9500
  267MOL0     C35158   1.219   7.502   7.613 -0.7361  0.0909 -1.1591
  267MOL0     O35159   1.505   7.181   7.559  0.0071  0.4385  0.0408
  267MOL0     C35160   1.766   7.271   7.607  0.4905 -0.0774 -0.0254
  267MOL0     C35161   1.908   7.309   7.602 -0.1563 -0.6107  0.4487
  267MOL0     N35162   2.617   7.792   7.501 -0.3240 -0.8721  0.1463
  267MOL0     N35163   2.623   7.918   7.525 -0.6207 -0.3734 -0.6307
  267MOL0     C35164   1.651   8.036   7.994  0.3199 -0.8889  0.7044
  267MOL0     C35165   1.514   8.053   8.034 -0.0069 -0.8281  1.1460
  267MOL0     C35166   1.116   8.124   8.218 -0.0467 -0.1488 -0.1421
  267MOL0     C35167   0.990   8.072   8.197  0.6245 -0.2236  0.2808
  267MOL0     C35168   0.884   8.119   8.275  0.2154 -0.7036 -0.0853
  267MOL0     C35169   0.895   8.220   8.375  0.4355 -0.2527  0.4493
  267MOL0     O35170   0.775   8.268   8.428 -0.0748  0.2615  0.0869
  267MOL0     C35171   0.793   8.361   8.545 -1.1246  0.2462 -0.3338
  267MOL0     C35172   0.663   8.381   8.607  0.8130 -0.4452 -0.5990
  267MOL0     C35173   0.549   8.410   8.506  0.3652  0.2210  0.1260
  267MOL0     C35174   0.425   8.455   8.579  0.9494 -0.4470 -0.1260
  267MOL0     C35175   0.302   8.449   8.504  0.5047 -0.1832  0.1071
  267MOL0     C35176   0.197   8.434   8.448  0.1835  1.1011 -0.0276
  267MOL0     C35177   1.029   8.274   8.399  0.9643 -0.0230  0.4458
  267MOL0     C35178   1.133   8.225   8.321 -0.3531  0.2715  1.2199
  267MOL0     H35179   1.561   8.152   8.354  2.2190 -0.5731  1.0196
  267MOL0     H35180   1.786   8.127   8.293 -1.8704 -0.9550  2.0549
  267MOL0     H35181   1.984   8.134   8.201  3.5496  0.2499  0.2201
  267MOL0     H35182   1.965   8.238   8.057  0.4292  0.4325  1.7594
  267MOL0     H35183   2.132   7.989   8.061 -0.8794  0.7096  0.5610
  267MOL0     H35184   2.189   8.147   8.111  0.2839 -2.4292  1.3449
  267MOL0     H35185   2.123   8.223   7.849  0.0199  0.6402  2.9606
  267MOL0     H35186   2.112   8.054   7.816  0.9991  2.1020 -2.6790
  267MOL0     H35187   2.358   8.219   7.904  1.2424 -0.3283 -1.9980
  267MOL0     H35188   2.356   8.054   7.936  0.9077  1.4625  0.1942
  267MOL0     H35189   2.300   8.007   7.701  1.9917 -2.9252  2.6879
  267MOL0     H35190   2.463   8.058   7.723 -0.1449  0.7458 -0.3021
  267MOL0     H35191   2.441   8.289   7.658  0.8696 -0.7584  1.5020
  267MOL0     H35192   2.268   8.274   7.646  1.2775  0.7749 -2.4604
  267MOL0     H35193   2.311   8.080   7.470  0.8424 -1.4513  0.4278
  267MOL0     H35194   2.336   8.249   7.420  0.0702 -0.7838 -1.4521
  267MOL0     H35195   2.579   8.183   7.510 -0.1724  0.5939 -0.1797
  267MOL0     H35196   2.524   8.168   7.347 -3.2082  2.2578 -0.2529
  267MOL0     H35197   2.377   7.901   7.316 -0.3981  0.9160  1.1470
  267MOL0     H35198   2.551   7.591   7.354  0.8026  1.8977 -1.7377
  267MOL0     H35199   2.406   7.665   7.265  0.4828  2.8869 -0.2070
  267MOL0     H35200   2.298   7.649   7.501 -0.2213  0.4570 -1.2691
  267MOL0     H35201   2.429   7.528   7.544 -1.3315 -1.3177 -0.0881
  267MOL0     H35202   2.226   7.514   7.321 -0.7641  0.5480 -0.0804
  267MOL0     H35203   2.346   7.393   7.360  0.4664  0.7093  0.2994
  267MOL0     H35204   2.232   7.392   7.602  2.4289  3.1477 -0.5869
  267MOL0     H35205   2.151   7.304   7.467  0.1160  1.2499 -2.4383
  267MOL0     H35206   1.851   7.590   7.419 -1.0477 -0.2224 -1.0653
  267MOL0     H35207   1.626   7.518   7.434  0.2847  3.2507  1.3414
  267MOL0     H35208   1.272   7.165   7.574  1.1214  0.0748  1.0195
  267MOL0     H35209   1.037   7.163   7.611 -1.9127  1.0624  0.3349
  267MOL0     H35210   0.873   7.219   7.789 -0.0902 -0.3232  0.2838
  267MOL0     H35211   0.826   7.183   7.618  0.0791 -2.0105  0.8628
  267MOL0     H35212   0.680   7.318   7.830  1.3996  4.5070 -1.6581
  267MOL0     H35213   0.633   7.166   7.743  1.2210 -1.0337 -3.4054
  267MOL0     H35214   0.631   7.346   7.535 -1.2662  0.1639  0.1293
  267MOL0     H35215   0.615   7.456   7.683 -2.9956  0.8527 -0.1089
  267MOL0     H35216   0.420   7.232   7.665 -2.3402  0.8049 -0.4663
  267MOL0     H35217   0.415   7.381   7.750  1.0267  0.2988  0.2649
  267MOL0     H35218   0.400   7.351   7.454  1.7723 -2.2423  0.6130
  267MOL0     H35219   0.376   7.505   7.529  0.9526 -0.0148  0.3824
  267MOL0     H35220   0.179   7.285   7.587  0.4070 -0.0372 -0.8705
  267MOL0     H35221   0.157   7.436   7.493  1.6908 -1.0618 -1.4806
  267MOL0     H35222   0.203   7.427   7.793  1.2382 -0.5308 -1.5867
  267MOL0     H35223   0.209   7.577   7.685 -3.4540  2.1496 -4.0798
  267MOL0     H35224  -0.027   7.554   7.637 -0.6366  0.7808  1.0830
  267MOL0     H35225   0.004   7.557   7.811  2.0453  1.1694 -0.2885
  267MOL0     H35226   1.013   7.579   7.638 -0.6628 -0.3328 -3.2085
  267MOL0     H35227   1.268   7.598   7.603 -3.5068  2.0346  1.8866
  267MOL0     H35228   1.746   7.171   7.644  0.9961 -0.7751 -1.5471
  267MOL0     H35229   1.978   7.247   7.656 -1.5411 -0.5722  2.3820
  267MOL0     H35230   1.668   8.007   7.891  1.2079 -1.7900  1.0827
  267MOL0     H35231   1.440   8.052   7.955  0.6974 -0.5831  0.4750
  267MOL0     H35232   0.958   8.007   8.115 -4.3249 -0.2810  1.9336
  267MOL0     H35233   0.781   8.085   8.268 -0.7910  2.0065  0.1646
  267MOL0     H35234   0.826   8.461   8.515 -2.9747  0.2403 -2.6455
  267MOL0     H35235   0.869   8.318   8.612 -0.8129 -0.2129 -0.9684
  267MOL0     H35236   0.635   8.296   8.669  1.9946 -0.0563  0.5378
  267MOL0     H35237   0.669   8.463   8.680  0.2469 -0.9367  0.0040
  267MOL0     H35238   0.535   8.319   8.447 -0.8433  0.7458 -0.4267
  267MOL0     H35239   0.578   8.488   8.435  2.3634 -0.1605  0.4676
  267MOL0     H35240   0.397   8.388   8.660 -1.9548  0.3960 -0.3171
  267MOL0     H35241   0.443   8.554   8.622  5.2408  0.1635 -2.6887
  267MOL0     H35242   0.112   8.421   8.385 -0.7230  2.6636  0.7913
  267MOL0     H35243   1.047   8.357   8.465 -0.2839  1.5655 -1.1094
  267MOL0     H35244   1.224   8.283   8.337 -0.2143  0.6725 -0.8119
  268MOL0     O35245   8.406  10.062  10.439 -0.1428  0.4170 -0.1327
  268MOL0     C35246   8.407  10.157  10.358 -0.2707  0.1556  0.7045
  268MOL0     O35247   8.300  10.196  10.280 -0.9175 -0.2823 -0.0411
  268MOL0     C35248   8.185  10.120  10.286  0.3628 -0.5302 -0.4636
  268MOL0     C35249   8.157  10.018  10.188  0.6910 -0.6604  0.0047
  268MOL0     C35250   8.037   9.954  10.197  0.0307  0.2739 -0.2529
  268MOL0     C35251   7.956   9.967  10.312  0.7481 -0.7654 -0.1488
  268MOL0     O35252   7.842   9.892  10.339  0.0155  0.3145 -0.3181
  268MOL0     C35253   7.745   9.897  10.243  0.4096 -0.2047  0.4481
  268MOL0     C35254   7.622   9.975  10.295 -0.7863 -0.3530 -0.5252
  268MOL0     C35255   7.489   9.951  10.221  0.2337  0.3271 -0.9773
  268MOL0     C35256   7.374  10.006  10.306 -0.4028 -0.1838 -0.2085
  268MOL0     C35257   7.231  10.017  10.240 -0.6666  0.5758 -0.0506
  268MOL0     C35258   7.125  10.094  10.320 -0.0683 -0.4386 -0.7310
  268MOL0     C35259   6.985  10.080  10.247 -0.3193  0.0771 -0.2674
  268MOL0     C35260   6.869  10.190  10.268 -0.6150 -0.1345  0.1245
  268MOL0     N35261   6.834  10.199  10.417 -0.6053 -0.6540  0.6369
  268MOL0     C35262   6.791  10.100  10.501  0.3831  0.1528  0.2844
  268MOL0     C35263   6.778  10.153  10.620  1.0745 -0.0838 -0.4879
  268MOL0     C35264   6.747  10.081  10.748  0.0228  0.3017  0.7439
  268MOL0     C35265   6.599  10.073  10.782 -0.3601  0.2145 -0.0531
  268MOL0     C35266   6.523   9.953  10.735 -0.3514 -0.5798 -0.4562
  268MOL0     C35267   6.373   9.959  10.776 -0.0147 -0.5939  0.1473
  268MOL0     O35268   6.320   9.830  10.748  0.1981 -0.0967  1.1561
  268MOL0     C35269   6.200   9.801  10.796 -0.5999  0.0563  0.8446
  268MOL0     C35270   6.158   9.666  10.802  0.0077  0.0697 -0.9662
  268MOL0     C35271   6.036   9.631  10.863  0.6204  0.6234  0.6852
  268MOL0     C35272   5.946   9.735  10.892  0.1108  0.6236  0.6582
  268MOL0     C35273   5.819   9.708  10.949  0.5445  0.1172 -0.0573
  268MOL0     O35274   5.728   9.811  10.939 -0.6713 -0.2728 -0.1500
  268MOL0     C35275   5.608   9.791  11.003  0.1790 -0.1119 -0.1899
  268MOL0     C35276   5.592   9.753  11.141 -0.2365 -0.0644  0.9404
  268MOL0     C35277   5.465   9.746  11.195  0.0365  0.9893  0.0484
  268MOL0     C35278   5.352   9.773  11.119 -0.6105  0.8703 -0.1953
  268MOL0     O35279   5.225   9.747  11.154 -0.4257  0.7225  0.1352
  268MOL0     C35280   5.200   9.626  11.226 -0.1029  0.1762 -0.4830
  268MOL0     C35281   5.165   9.526  11.115  0.3574 -0.2277 -0.9246
  268MOL0     C35282   5.271   9.459  11.033  0.3243  0.3152 -0.4492
  268MOL0     C35283   5.345   9.363  11.124 -0.1578 -0.9513  0.0186
  268MOL0     C35284   5.442   9.276  11.038 -0.3178  0.0046  0.1123
  268MOL0     C35285   5.540   9.189  11.119 -0.0683  0.5870 -0.0906
  268MOL0     C35286   5.664   9.170  11.042 -0.1740  0.4296 -0.1386
  268MOL0     C35287   5.782   9.207  11.126 -0.1858 -1.1586  0.1936
  268MOL0    Cl35288   5.951   9.152  11.052 -0.0542  0.0897 -0.1333
  268MOL0     C35289   5.366   9.817  10.984 -0.0455  0.1801  0.2642
  268MOL0     C35290   5.491   9.830  10.930  0.2555 -0.7046 -0.2625
  268MOL0     O35291   5.808   9.607  11.019  0.8818 -0.3312 -0.1546
  268MOL0     C35292   5.987   9.866  10.883  0.3095  1.0327  0.6055
  268MOL0     C35293   6.109   9.894  10.837 -0.4678 -0.3737  0.5738
  268MOL0     N35294   6.808  10.291  10.612  0.0040  0.2596  0.4036
  268MOL0     N35295   6.843  10.314  10.488  0.2315  0.4892  0.5698
  268MOL0     C35296   7.979  10.072  10.402  0.9167 -0.3444 -0.2771
  268MOL0     C35297   8.097  10.140  10.392 -0.4509 -0.1764  0.7858
  268MOL0     C35298   8.518  10.256  10.360 -0.5798 -0.3301  1.6023
  268MOL0     C35299   8.644  10.215  10.407  1.1332 -0.5083 -1.0939
  268MOL0     C35300   8.754  10.309  10.402  0.3606 -0.3951 -0.7650
  268MOL0     C35301   8.734  10.429  10.332 -0.7343 -0.1891 -0.4654
  268MOL0     O35302   8.831  10.521  10.306  0.0709  0.0479 -0.4924
  268MOL0     C35303   8.824  10.630  10.403  0.5898 -0.0148 -0.1520
  268MOL0     C35304   8.948  10.706  10.411 -0.3310  0.2736  0.0415
  268MOL0     C35305   8.937  10.819  10.520 -1.0481 -0.2739 -0.3661
  268MOL0     C35306   9.054  10.821  10.610 -0.2174  0.1576 -0.8596
  268MOL0     C35307   9.176  10.857  10.542  0.1732 -0.3306 -0.0453
  268MOL0     C35308   9.287  10.874  10.481 -1.0197 -0.7786  0.6522
  268MOL0     C35309   8.607  10.471  10.291  0.2034  0.0980 -0.3834
  268MOL0     C35310   8.498  10.392  10.321 -0.3854 -0.4459  0.5185
  268MOL0     H35311   8.223  10.002  10.104 -2.0669  1.5822 -2.8030
  268MOL0     H35312   8.034   9.866  10.133  0.5148 -0.8595  1.2481
  268MOL0     H35313   7.721   9.793  10.220  0.3470 -0.0022 -0.4278
  268MOL0     H35314   7.764   9.947  10.148  2.0533  0.8339  1.2750
  268MOL0     H35315   7.650  10.081  10.289 -0.4322 -0.3676  0.6272
  268MOL0     H35316   7.613   9.931  10.395 -0.7935 -1.9224 -1.1855
  268MOL0     H35317   7.472   9.844  10.201  0.4060  0.2770 -0.8605
  268MOL0     H35318   7.492  10.002  10.125  0.6474 -0.1920 -1.2455
  268MOL0     H35319   7.365   9.949  10.398 -2.2580  2.2284  1.2472
  268MOL0     H35320   7.397  10.108  10.338 -2.3860  0.2894 -0.1941
  268MOL0     H35321   7.203   9.913  10.220  2.4172 -0.1541 -1.2028
  268MOL0     H35322   7.249  10.055  10.140  3.8812  1.6920  0.9710
  268MOL0     H35323   7.153  10.200  10.321 -0.7154 -0.2282 -2.5233
  268MOL0     H35324   7.113  10.048  10.419 -4.4698 -1.8582 -1.7186
  268MOL0     H35325   7.013  10.078  10.141 -1.5100  0.9392 -0.6220
  268MOL0     H35326   6.939   9.982  10.259  1.1648 -0.8514 -1.6688
  268MOL0     H35327   6.782  10.167  10.207 -1.1465  3.2800 -0.6436
  268MOL0     H35328   6.911  10.281  10.224 -0.9500 -0.6336 -1.2710
  268MOL0     H35329   6.775   9.994  10.482  0.5765 -0.2087  1.9131
  268MOL0     H35330   6.794  10.119  10.839  0.7063  1.7039 -0.1515
  268MOL0     H35331   6.787   9.981  10.726 -0.6718  0.2265 -0.2685
  268MOL0     H35332   6.553  10.145  10.714 -0.3186 -0.5108 -0.8552
  268MOL0     H35333   6.592  10.088  10.890  1.2663  0.1946  0.0826
  268MOL0     H35334   6.533   9.939  10.627  0.2494  0.3074 -0.5330
  268MOL0     H35335   6.567   9.862  10.775  0.4595 -0.6569 -1.4742
  268MOL0     H35336   6.318  10.042  10.730  2.6037  1.6228  0.7440
  268MOL0     H35337   6.358   9.976  10.883 -3.1545 -0.1317 -0.2741
  268MOL0     H35338   6.233   9.591  10.782 -0.2277 -1.1957  2.1994
  268MOL0     H35339   6.008   9.526  10.864  1.5658  0.3562  0.5499
  268MOL0     H35340   5.675   9.755  11.212 -0.3850 -2.2514  1.2386
  268MOL0     H35341   5.456   9.704  11.295  0.2645 -1.9526 -1.0517
  268MOL0     H35342   5.110   9.624  11.287 -0.1305 -3.0853 -0.4718
  268MOL0     H35343   5.271   9.607  11.306 -2.0263  1.4230  1.6233
  268MOL0     H35344   5.098   9.578  11.046 -1.2103 -0.8673  0.0630
  268MOL0     H35345   5.100   9.445  11.150  0.6224 -0.4783 -1.0104
  268MOL0     H35346   5.342   9.531  10.990  0.8303  0.9260  1.3145
  268MOL0     H35347   5.225   9.412  10.946  0.1888 -3.7378  1.5958
  268MOL0     H35348   5.402   9.417  11.200  0.9482 -5.2015  2.5901
  268MOL0     H35349   5.272   9.295  11.168 -0.2893  0.0413  1.3709
  268MOL0     H35350   5.502   9.344  10.976 -0.7352  0.8420  0.6065
  268MOL0     H35351   5.391   9.209  10.968 -1.0838  0.1748  0.5003
  268MOL0     H35352   5.493   9.093  11.140  1.3078 -0.3935 -1.2694
  268MOL0     H35353   5.566   9.247  11.208  0.0181 -1.1552  1.0647
  268MOL0     H35354   5.686   9.064  11.027  1.4327  0.5775  0.9889
  268MOL0     H35355   5.675   9.215  10.943  1.2417 -0.4423 -0.4001
  268MOL0     H35356   5.789   9.150  11.220 -1.2357 -4.7612 -1.7506
  268MOL0     H35357   5.784   9.314  11.148 -0.9616 -1.3718  1.4227
  268MOL0     H35358   5.284   9.835  10.916  1.4733 -1.1701 -2.0724
  268MOL0     H35359   5.502   9.869  10.829 -0.1805  1.3400  0.4226
  268MOL0     H35360   5.923   9.950  10.909 -0.5232  2.3281 -4.5347
  268MOL0     H35361   6.133  10.000  10.827  0.2638 -0.6272 -0.4886
  268MOL0     H35362   7.914  10.099  10.485 -0.9488  0.1902 -1.8555
  268MOL0     H35363   8.117  10.215  10.468 -1.1569 -0.1898  0.9954
  268MOL0     H35364   8.671  10.120  10.452  1.5552  0.5187  0.9542
  268MOL0     H35365   8.857  10.277  10.413 -0.1449 -1.3487  2.3215
  268MOL0     H35366   8.802  10.593  10.504 -0.3352  0.6258 -0.1131
  268MOL0     H35367   8.737  10.692  10.379 -0.6645 -2.2227 -1.6943
  268MOL0     H35368   9.029  10.637  10.440  0.1071 -0.0442 -1.8346
  268MOL0     H35369   8.966  10.746  10.311 -0.7455  2.6239  0.8559
  268MOL0     H35370   8.838  10.817  10.567 -2.7236 -1.4447 -3.6769
  268MOL0     H35371   8.941  10.917  10.472 -2.2130 -0.3802 -0.7004
  268MOL0     H35372   9.038  10.896  10.688  2.7452 -1.0791  1.1422
  268MOL0     H35373   9.063  10.726  10.663  0.7508  1.2022  0.9264
  268MOL0     H35374   9.384  10.882  10.436 -0.7544  1.1104  1.4776
  268MOL0     H35375   8.596  10.571  10.252 -1.0648 -0.3827 -1.3184
  268MOL0     H35376   8.396  10.430  10.319 -0.3342 -0.0715  2.5908
  269MOL0     O35377   5.959   6.170  11.020  0.7145  0.0677 -0.0125
  269MOL0     C35378   6.044   6.126  11.086 -0.2532 -0.1111  0.0627
  269MOL0     O35379   6.024   6.083  11.218 -0.1876 -0.8364 -0.3912
  269MOL0     C35380   5.912   6.123  11.287 -0.0755  0.6063  0.4248
  269MOL0     C35381   5.935   6.182  11.410 -0.0773 -1.1008  0.4002
  269MOL0     C35382   5.833   6.239  11.486 -0.6257 -0.6822  0.2801
  269MOL0     C35383   5.697   6.236  11.438  0.1725 -0.8181  0.9162
  269MOL0     O35384   5.599   6.309  11.508 -0.3826 -0.3805  0.3299
  269MOL0     C35385   5.484   6.363  11.435 -0.2296  0.1610  0.2093
  269MOL0     C35386   5.380   6.413  11.531  0.5183 -0.4452  0.4479
  269MOL0     C35387   5.267   6.487  11.450 -0.6137  0.8659  0.1072
  269MOL0     C35388   5.209   6.589  11.547  0.1860  0.2174  0.4689
  269MOL0     C35389   5.115   6.688  11.464  0.6182 -0.6403  0.5337
  269MOL0     C35390   5.049   6.787  11.558  0.5353 -0.4126  0.3703
  269MOL0     C35391   4.965   6.881  11.462 -1.1853  0.2475 -0.1202
  269MOL0     C35392   4.917   7.001  11.543  0.1900 -0.5961  0.2742
  269MOL0     N35393   4.818   6.963  11.645  0.1493  0.9908  0.5377
  269MOL0     C35394   4.837   6.935  11.774 -0.1987 -1.2011  0.3229
  269MOL0     C35395   4.713   6.890  11.818 -0.0388  1.3743 -0.3489
  269MOL0     C35396   4.690   6.839  11.962 -0.6018  0.2663  0.5400
  269MOL0     C35397   4.634   6.949  12.044  0.4593  0.8664  0.3553
  269MOL0     C35398   4.535   6.896  12.159  1.7042 -0.3375  0.7108
  269MOL0     C35399   4.394   6.867  12.100  0.5362  0.7551 -0.5165
  269MOL0     O35400   4.304   6.862  12.210  0.5787  0.0937  0.0333
  269MOL0     C35401   4.197   6.776  12.192  1.5644 -0.1780  0.5003
  269MOL0     C35402   4.131   6.736  12.311  0.9199  0.1504 -0.1941
  269MOL0     C35403   4.001   6.673  12.310  0.3228  1.0899 -0.4483
  269MOL0     C35404   3.931   6.662  12.190  0.5792  0.1831  0.0295
  269MOL0     C35405   3.796   6.601  12.181  0.1004 -0.1604  0.1221
  269MOL0     O35406   3.736   6.615  12.058 -0.2764  0.2893 -0.2267
  269MOL0     C35407   3.619   6.546  12.041 -0.0838 -1.0404  0.1922
  269MOL0     C35408   3.503   6.626  12.052  0.4483  0.4680  0.5568
  269MOL0     C35409   3.382   6.578  12.015 -0.7030 -0.1809  0.5331
  269MOL0     C35410   3.362   6.439  11.984  0.2361  1.3141 -0.2736
  269MOL0     O35411   3.234   6.387  11.970  0.3826  0.0766 -0.1921
  269MOL0     C35412   3.221   6.249  11.916  0.9900  0.8403  0.2694
  269MOL0     C35413   3.077   6.233  11.854  0.6122 -0.0119 -0.0149
  269MOL0     C35414   2.973   6.244  11.965  0.1817 -0.4197  0.8227
  269MOL0     C35415   2.832   6.217  11.900  0.0307 -0.2404 -0.0167
  269MOL0     C35416   2.732   6.297  11.976 -0.6575  0.3188  0.6155
  269MOL0     C35417   2.580   6.260  11.943 -1.4134  0.4692  0.6278
  269MOL0     C35418   2.482   6.330  12.041  0.4434 -0.9157  0.1068
  269MOL0     C35419   2.330   6.302  12.016 -0.8081  0.1655 -0.0656
  269MOL0    Cl35420   2.272   6.395  11.873 -0.2071  0.0410 -0.1378
  269MOL0     C35421   3.483   6.361  11.989  0.2324  0.5660  0.0250
  269MOL0     C35422   3.606   6.413  12.011 -0.5126  0.5477  0.1781
  269MOL0     O35423   3.740   6.549  12.281 -0.6291 -0.0481  0.1405
  269MOL0     C35424   4.005   6.683  12.070 -0.2679 -0.1926 -0.3343
  269MOL0     C35425   4.127   6.757  12.069  0.3636  0.1269 -0.7829
  269MOL0     N35426   4.629   6.906  11.722  0.6057  0.2496 -0.4958
  269MOL0     N35427   4.685   6.943  11.615 -0.2061 -0.4475 -0.0305
  269MOL0     C35428   5.679   6.177  11.317 -0.0537 -0.8026  0.2974
  269MOL0     C35429   5.779   6.122  11.239 -0.4956  0.2965 -0.6281
  269MOL0     C35430   6.180   6.137  11.039  0.1065 -0.0965 -0.0957
  269MOL0     C35431   6.220   6.220  10.929 -0.1476 -0.3312 -0.1601
  269MOL0     C35432   6.351   6.211  10.883  0.1025  0.6609  0.6808
  269MOL0     C35433   6.451   6.143  10.952  0.6727  0.0589 -0.3297
  269MOL0     O35434   6.575   6.114  10.897  1.4607 -0.0557  1.3347
  269MOL0     C35435   6.607   6.160  10.764 -0.7352 -0.6558 -0.2483
  269MOL0     C35436   6.535   6.091  10.657  0.8808 -0.0905 -0.3229
  269MOL0     C35437   6.576   6.133  10.511 -0.3681  0.2212 -0.1208
  269MOL0     C35438   6.725   6.118  10.492 -0.4564  0.7043  0.1228
  269MOL0     C35439   6.749   6.179  10.358 -0.4052  0.7037  0.5107
  269MOL0     C35440   6.762   6.227  10.248  0.2468  0.8275 -0.2756
  269MOL0     C35441   6.415   6.076  11.068  0.4432  0.3754 -0.1585
  269MOL0     C35442   6.284   6.067  11.107 -0.4367 -0.8018 -0.6024
  269MOL0     H35443   6.033   6.186  11.455  0.1592 -0.4735 -0.1540
  269MOL0     H35444   5.857   6.290  11.579  1.7139  2.4170 -1.8050
  269MOL0     H35445   5.443   6.293  11.362 -0.2916 -1.2454  1.5441
  269MOL0     H35446   5.532   6.449  11.387  1.5742 -0.7840  0.2125
  269MOL0     H35447   5.430   6.481  11.600  3.6095  0.1965 -2.1695
  269MOL0     H35448   5.338   6.333  11.593  0.7778  1.1679  2.8254
  269MOL0     H35449   5.189   6.414  11.425 -0.2731 -0.2732  2.1272
  269MOL0     H35450   5.310   6.539  11.364 -0.0668 -0.1740 -0.2672
  269MOL0     H35451   5.156   6.535  11.626 -0.3120 -0.4202 -0.2881
  269MOL0     H35452   5.284   6.657  11.587 -1.1703  0.4779  2.7088
  269MOL0     H35453   5.027   6.632  11.428  0.2394 -0.4930  1.2183
  269MOL0     H35454   5.171   6.741  11.387 -1.6144  0.3044 -0.5149
  269MOL0     H35455   5.120   6.836  11.625 -0.0831  0.4755  0.3861
  269MOL0     H35456   4.976   6.738  11.622 -0.6275 -0.8515 -1.2314
  269MOL0     H35457   5.033   6.930  11.392 -0.1777 -0.7095  0.1629
  269MOL0     H35458   4.891   6.828  11.401  1.7752 -1.8150 -2.2277
  269MOL0     H35459   4.871   7.083  11.486 -1.1673  0.7919  3.1699
  269MOL0     H35460   5.006   7.038  11.594 -0.0576 -0.4368  0.5934
  269MOL0     H35461   4.936   6.930  11.820  1.4524 -0.3824 -2.8134
  269MOL0     H35462   4.779   6.797  12.010 -1.6127 -1.9142  0.6062
  269MOL0     H35463   4.618   6.758  11.957  0.0089 -0.1963 -2.9819
  269MOL0     H35464   4.568   7.013  11.984 -0.7443 -0.0605  0.6694
  269MOL0     H35465   4.726   7.004  12.067  1.0439 -0.6425  1.8242
  269MOL0     H35466   4.569   6.805  12.209  0.1566 -2.1792 -1.3756
  269MOL0     H35467   4.526   6.979  12.229  1.1814  0.4090 -0.2183
  269MOL0     H35468   4.398   6.771  12.048  0.1654  0.7120 -0.4661
  269MOL0     H35469   4.363   6.943  12.027  1.6988  2.7147  0.9221
  269MOL0     H35470   4.178   6.742  12.409 -0.8610 -1.1195  0.8001
  269MOL0     H35471   3.970   6.651  12.412  1.3232  1.5813 -0.0220
  269MOL0     H35472   3.528   6.728  12.082  1.9769 -0.3944  2.3731
  269MOL0     H35473   3.295   6.642  12.000  0.7246  1.8919  0.6214
  269MOL0     H35474   3.236   6.173  11.994  0.7598 -0.1939 -0.6742
  269MOL0     H35475   3.298   6.227  11.842  0.7640 -0.8248  0.4875
  269MOL0     H35476   3.071   6.140  11.796 -1.4015  1.3288 -2.1034
  269MOL0     H35477   3.062   6.307  11.776  1.4003 -2.3482 -2.5337
  269MOL0     H35478   2.976   6.341  12.016  0.8911 -0.8313  1.5997
  269MOL0     H35479   2.986   6.169  12.043  0.4657 -2.7947 -1.3737
  269MOL0     H35480   2.834   6.239  11.793  0.3548  0.5639  0.1486
  269MOL0     H35481   2.814   6.112  11.923 -0.4028 -0.4349 -1.1647
  269MOL0     H35482   2.752   6.403  11.959 -2.5454  0.3727 -1.8157
  269MOL0     H35483   2.739   6.273  12.082  3.0317  0.9791  0.6676
  269MOL0     H35484   2.576   6.151  11.947 -2.2832  0.4992  0.9119
  269MOL0     H35485   2.557   6.298  11.843 -2.2555 -1.6288 -0.0285
  269MOL0     H35486   2.497   6.300  12.145  2.2963  1.7304  0.7104
  269MOL0     H35487   2.483   6.438  12.024 -2.9611 -0.9261 -0.8843
  269MOL0     H35488   2.269   6.324  12.104 -2.4607 -1.5905 -0.6927
  269MOL0     H35489   2.331   6.193  12.005  0.2630  0.1554 -0.0313
  269MOL0     H35490   3.476   6.256  11.963  0.0618  0.3984  0.7425
  269MOL0     H35491   3.694   6.352  11.994 -0.9302  0.7102 -3.1848
  269MOL0     H35492   3.955   6.675  11.974  0.1729  3.6803 -1.0444
  269MOL0     H35493   4.152   6.794  11.970 -0.2458  1.5058 -0.4572
  269MOL0     H35494   5.589   6.188  11.257  0.2012 -1.5624 -0.2424
  269MOL0     H35495   5.749   6.075  11.145 -1.5994  0.4408 -0.3598
  269MOL0     H35496   6.151   6.273  10.864 -0.4739 -0.2745  0.2275
  269MOL0     H35497   6.386   6.280  10.808  0.5717  0.4418  0.6962
  269MOL0     H35498   6.715   6.146  10.757 -0.5399  0.2029  0.6854
  269MOL0     H35499   6.585   6.267  10.771 -1.1019 -0.8022  1.4500
  269MOL0     H35500   6.561   5.985  10.668 -0.8068 -0.5018 -0.0956
  269MOL0     H35501   6.428   6.110  10.665  0.7210 -1.5177  1.4874
  269MOL0     H35502   6.560   6.240  10.493  3.7761  1.2098  1.1145
  269MOL0     H35503   6.532   6.065  10.437  2.5358 -1.9051 -0.0345
  269MOL0     H35504   6.780   6.182  10.561  1.7415 -0.2307 -0.6712
  269MOL0     H35505   6.741   6.011  10.508 -2.2448  0.3190 -0.4506
  269MOL0     H35506   6.752   6.275  10.153 -1.8990  2.1446  0.5345
  269MOL0     H35507   6.486   6.016  11.123  1.1218  2.9662  2.0035
  269MOL0     H35508   6.257   5.999  11.188  2.1806 -2.6259 -1.0929
  270MOL0     O35509   6.265  11.284   1.644  0.0052 -0.7948 -0.4080
  270MOL0     C35510   6.206  11.341   1.733  0.0954 -0.0892  0.6870
  270MOL0     O35511   6.249  11.455   1.788 -0.2965 -0.3286 -0.2394
  270MOL0     C35512   6.373  11.514   1.780  0.3345 -0.2002 -0.1966
  270MOL0     C35513   6.395  11.641   1.836 -0.4012 -0.9769  0.4290
  270MOL0     C35514   6.526  11.692   1.835 -0.5999  0.6159  0.2301
  270MOL0     C35515   6.636  11.636   1.773 -0.8347  0.4701 -0.2801
  270MOL0     O35516   6.753  11.706   1.782 -0.0405 -0.3421  0.4228
  270MOL0     C35517   6.863  11.663   1.699  1.7584 -0.2593  0.8954
  270MOL0     C35518   6.956  11.594   1.794  0.8036  0.5376 -0.2831
  270MOL0     C35519   7.062  11.512   1.724  0.3950  0.2160 -0.2848
  270MOL0     C35520   7.116  11.413   1.828 -0.2892 -1.3331  0.0092
  270MOL0     C35521   7.253  11.471   1.889 -0.1850  0.9859 -1.1031
  270MOL0     C35522   7.303  11.383   2.005  0.6503 -0.4988  0.8269
  270MOL0     C35523   7.219  11.438   2.127 -0.2224 -0.1241  0.0518
  270MOL0     C35524   7.241  11.346   2.248  1.0408 -0.1741 -0.7491
  270MOL0     N35525   7.188  11.383   2.376 -0.0206  0.3997 -0.5412
  270MOL0     C35526   7.238  11.479   2.470 -0.0093 -0.3573  0.2442
  270MOL0     C35527   7.179  11.435   2.586 -0.1415 -1.0064 -0.5544
  270MOL0     C35528   7.228  11.488   2.720 -0.7948  1.0337 -0.0929
  270MOL0     C35529   7.117  11.583   2.782  0.0709 -0.0520  1.1270
  270MOL0     C35530   6.987  11.509   2.827  0.6791  0.1047  0.0725
  270MOL0     C35531   6.870  11.603   2.828  0.5688 -0.2493  0.4655
  270MOL0     O35532   6.755  11.519   2.845 -0.2352 -0.3182 -0.2499
  270MOL0     C35533   6.701  11.518   2.975  0.3882  0.2002  0.2295
  270MOL0     C35534   6.754  11.577   3.090 -0.2851  1.0125 -0.2166
  270MOL0     C35535   6.690  11.568   3.216 -0.8634 -0.7051 -0.1859
  270MOL0     C35536   6.576  11.490   3.232  0.3288 -0.3167  0.1905
  270MOL0     C35537   6.496  11.482   3.363  0.1551 -0.1048 -0.1227
  270MOL0     O35538   6.367  11.439   3.357  0.4296  0.3777 -0.7474
  270MOL0     C35539   6.286  11.484   3.464  0.2745 -0.9883  0.3545
  270MOL0     C35540   6.285  11.615   3.524  0.2763  0.1913 -0.4091
  270MOL0     C35541   6.208  11.649   3.627  0.3983 -0.7954  0.4467
  270MOL0     C35542   6.106  11.561   3.673 -0.4536  0.0975 -0.4498
  270MOL0     O35543   6.020  11.609   3.767 -0.1067  0.1018 -0.7044
  270MOL0     C35544   5.885  11.562   3.768 -0.0430 -0.4436  0.3552
  270MOL0     C35545   5.814  11.663   3.674 -0.2300 -0.2080  0.0017
  270MOL0     C35546   5.660  11.631   3.674 -0.0853  0.4935 -0.4753
  270MOL0     C35547   5.571  11.736   3.596  0.3009  0.0522 -0.0573
  270MOL0     C35548   5.423  11.688   3.580 -0.4873  0.3532 -0.2144
  270MOL0     C35549   5.350  11.795   3.505  0.2412 -0.2400  0.7118
  270MOL0     C35550   5.200  11.783   3.505  0.4490  0.1310 -0.7364
  270MOL0     C35551   5.154  11.785   3.647 -0.1431 -0.0638 -0.0376
  270MOL0    Cl35552   4.976  11.723   3.644 -0.1575 -0.1363 -0.2843
  270MOL0     C35553   6.093  11.429   3.608  0.3927 -0.5627  0.1481
  270MOL0     C35554   6.180  11.399   3.500 -0.0976  0.0862 -0.0401
  270MOL0     O35555   6.562  11.508   3.466  0.2811 -0.3017  0.1672
  270MOL0     C35556   6.509  11.450   3.118 -0.5266  0.2100 -0.6097
  270MOL0     C35557   6.568  11.462   2.991 -0.5869 -0.0255 -0.1498
  270MOL0     N35558   7.102  11.322   2.561 -0.1595 -0.6516 -0.9267
  270MOL0     N35559   7.100  11.297   2.437  0.0509 -0.9636  0.3685
  270MOL0     C35560   6.619  11.504   1.718  0.3043  0.2712 -0.4242
  270MOL0     C35561   6.486  11.445   1.720 -0.2298 -0.6006 -0.3976
  270MOL0     C35562   6.069  11.305   1.754  0.8667 -0.0966  0.4351
  270MOL0     C35563   5.978  11.400   1.825 -0.8063  0.3687  0.4886
  270MOL0     C35564   5.845  11.363   1.847 -0.7557 -0.9217  0.5903
  270MOL0     C35565   5.798  11.236   1.815 -0.2967 -0.1407 -0.2378
  270MOL0     O35566   5.666  11.208   1.859 -0.4211 -0.6959  0.8952
  270MOL0     C35567   5.643  11.065   1.877  0.0316  0.3548  0.8991
  270MOL0     C35568   5.492  11.032   1.900 -0.5702 -0.1637  0.3730
  270MOL0     C35569   5.428  11.125   2.006  0.1251  0.5747  0.0792
  270MOL0     C35570   5.278  11.110   2.002 -0.1025  0.2466  0.8980
  270MOL0     C35571   5.216  10.990   2.056  0.8620  0.4575 -1.3486
  270MOL0     C35572   5.159  10.891   2.100  0.3561  0.6123  0.2667
  270MOL0     C35573   5.890  11.146   1.760 -0.2862 -0.4942  0.3613
  270MOL0     C35574   6.025  11.183   1.734 -0.6280  0.4195 -0.2334
  270MOL0     H35575   6.314  11.702   1.875  0.7259 -0.6673  2.4052
  270MOL0     H35576   6.530  11.782   1.895  1.7858  0.4486  0.4231
  270MOL0     H35577   6.908  11.751   1.652 -0.7445  0.0102 -1.2727
  270MOL0     H35578   6.832  11.601   1.614  2.0224  1.0607 -0.2031
  270MOL0     H35579   6.904  11.529   1.864  0.6311  0.2495 -0.6744
  270MOL0     H35580   7.007  11.668   1.856 -0.3499  1.3524 -0.2974
  270MOL0     H35581   7.139  11.570   1.671 -0.6864  1.7218 -0.2589
  270MOL0     H35582   7.008  11.447   1.655  1.7827 -1.0558 -0.2311
  270MOL0     H35583   7.039  11.391   1.902 -0.0857  2.3219  1.5249
  270MOL0     H35584   7.141  11.328   1.764 -0.1940  2.6008 -6.0538
  270MOL0     H35585   7.232  11.572   1.926 -0.7646  1.2647 -2.1324
  270MOL0     H35586   7.336  11.487   1.821  0.4566  2.3517 -0.0359
  270MOL0     H35587   7.405  11.417   2.026 -0.1377  0.9050  2.5832
  270MOL0     H35588   7.289  11.279   1.973  2.4447 -0.2759 -0.9256
  270MOL0     H35589   7.247  11.541   2.152  0.3527 -0.6302  1.5941
  270MOL0     H35590   7.114  11.443   2.096 -0.5194  0.4565  1.0879
  270MOL0     H35591   7.349  11.328   2.258  1.0171  0.0643  0.0557
  270MOL0     H35592   7.213  11.247   2.212  2.6884 -1.4408  1.2185
  270MOL0     H35593   7.306  11.563   2.470 -0.6232  0.1484  1.2182
  270MOL0     H35594   7.323  11.541   2.705  0.8637 -2.0631 -1.3472
  270MOL0     H35595   7.260  11.407   2.786 -2.1610 -1.7319 -2.5762
  270MOL0     H35596   7.100  11.665   2.711 -1.2603  0.0389  1.5212
  270MOL0     H35597   7.165  11.642   2.861  2.5831 -0.9053  0.3279
  270MOL0     H35598   6.965  11.423   2.764 -0.8258 -0.2872  1.0773
  270MOL0     H35599   7.008  11.475   2.929  0.5166 -0.1866  0.0094
  270MOL0     H35600   6.859  11.643   2.727 -2.1970  1.9474  1.4881
  270MOL0     H35601   6.880  11.686   2.899  0.7281  0.3406 -0.2387
  270MOL0     H35602   6.853  11.622   3.083 -0.0889  0.5006 -0.8767
  270MOL0     H35603   6.742  11.609   3.303  0.4121  3.7648 -2.7208
  270MOL0     H35604   6.361  11.689   3.500 -0.9262  2.2059  1.4824
  270MOL0     H35605   6.226  11.749   3.665  1.4501 -0.7130 -0.2338
  270MOL0     H35606   5.836  11.567   3.866 -1.2611  2.3499 -0.3098
  270MOL0     H35607   5.875  11.461   3.726  2.1349  0.1707 -1.8609
  270MOL0     H35608   5.852  11.660   3.572  0.1155 -2.7294  0.1547
  270MOL0     H35609   5.819  11.768   3.704 -0.1666  0.1209 -1.1070
  270MOL0     H35610   5.613  11.612   3.771  0.3345 -0.7921 -0.5044
  270MOL0     H35611   5.649  11.535   3.623  1.5529  0.7535 -1.3779
  270MOL0     H35612   5.585  11.833   3.646  4.2460  1.2551 -3.0265
  270MOL0     H35613   5.600  11.750   3.492 -2.8482  3.2797 -0.6981
  270MOL0     H35614   5.386  11.667   3.680  0.0018 -1.2280 -0.3447
  270MOL0     H35615   5.428  11.597   3.519 -0.9195 -1.7838  2.7387
  270MOL0     H35616   5.381  11.797   3.400 -0.7283  2.1699  0.4102
  270MOL0     H35617   5.377  11.893   3.544  2.7461 -1.6056  2.7035
  270MOL0     H35618   5.158  11.867   3.449  1.9247 -0.9222 -3.6690
  270MOL0     H35619   5.169  11.689   3.458  2.1061 -0.5612 -0.5273
  270MOL0     H35620   5.169  11.886   3.686  3.1241 -0.6389  0.4979
  270MOL0     H35621   5.204  11.716   3.715  3.1377 -0.4947 -2.6366
  270MOL0     H35622   6.021  11.356   3.644  0.1624 -1.5450 -2.1351
  270MOL0     H35623   6.165  11.299   3.460  0.0665  1.3441 -3.5886
  270MOL0     H35624   6.421  11.387   3.114 -0.4903  0.1825 -1.1586
  270MOL0     H35625   6.524  11.405   2.910 -0.3751 -1.3141  0.6030
  270MOL0     H35626   6.690  11.446   1.661  0.5210  1.7282 -1.6916
  270MOL0     H35627   6.480  11.345   1.678 -2.7077  0.6910 -3.5087
  270MOL0     H35628   6.026  11.492   1.860  1.2733 -0.4671 -0.0423
  270MOL0     H35629   5.779  11.439   1.888  1.8769  0.8668  1.7544
  270MOL0     H35630   5.705  11.028   1.959  0.8861  0.2718  0.2354
  270MOL0     H35631   5.669  11.015   1.783  2.3454  1.1340  1.0746
  270MOL0     H35632   5.446  11.051   1.802  3.2046  0.7257 -1.4362
  270MOL0     H35633   5.486  10.929   1.935  3.5840 -0.3279  1.1444
  270MOL0     H35634   5.449  11.230   1.986 -0.9514  0.4909 -1.6584
  270MOL0     H35635   5.458  11.097   2.108  2.2204  1.8041 -0.1530
  270MOL0     H35636   5.238  11.189   2.067  0.6882  1.8131 -0.4656
  270MOL0     H35637   5.236  11.135   1.904  2.0839 -1.3127 -0.5184
  270MOL0     H35638   5.096  10.809   2.125  0.2124  0.6467  0.0255
  270MOL0     H35639   5.862  11.043   1.741  1.2188 -0.9900  0.6456
  270MOL0     H35640   6.096  11.102   1.719 -1.5652 -0.6423  0.8454
  271MOL0     O35641   1.713  10.374   2.603  0.5158 -0.8189 -0.1106
  271MOL0     C35642   1.623  10.453   2.572 -0.3230  0.9578  0.0963
  271MOL0     O35643   1.603  10.506   2.455 -0.6528 -0.0647  0.7631
  271MOL0     C35644   1.684  10.467   2.344  1.7143 -0.8330 -0.1210
  271MOL0     C35645   1.638  10.362   2.271 -0.4889 -0.0145 -1.3398
  271MOL0     C35646   1.707  10.348   2.159 -1.6095  0.1028  0.2070
  271MOL0     C35647   1.825  10.415   2.130 -1.1569  0.0328 -0.2154
  271MOL0     O35648   1.883  10.384   2.008  1.2707 -0.3330 -0.2034
  271MOL0     C35649   1.965  10.479   1.942 -0.3675  0.4399  0.0163
  271MOL0     C35650   2.021  10.419   1.806 -0.1991  0.5018  0.1790
  271MOL0     C35651   1.917  10.386   1.690 -0.2318 -0.2089 -0.1257
  271MOL0     C35652   1.788  10.475   1.687  0.1842  0.0469  0.2647
  271MOL0     C35653   1.684  10.426   1.589 -0.2837  0.5186  0.7731
  271MOL0     C35654   1.546  10.499   1.587  0.4105  0.1625  0.4274
  271MOL0     C35655   1.419  10.414   1.591  1.0392  1.0379  0.5178
  271MOL0     C35656   1.395  10.339   1.727  0.0659  1.1160  0.5101
  271MOL0     N35657   1.350  10.440   1.818  0.4962 -0.6681  0.1350
  271MOL0     C35658   1.410  10.469   1.937 -0.6005 -0.4376  0.1854
  271MOL0     C35659   1.343  10.573   1.988  0.1410 -0.0045 -0.3091
  271MOL0     C35660   1.406  10.657   2.104  0.6125  0.4233 -0.8689
  271MOL0     C35661   1.530  10.729   2.065 -0.0736  0.0475 -0.2531
  271MOL0     C35662   1.549  10.831   2.174 -0.2361  0.6193 -0.1640
  271MOL0     C35663   1.464  10.959   2.156 -0.6684  0.1199 -0.1443
  271MOL0     O35664   1.485  11.041   2.274 -0.2301  0.1475  0.7086
  271MOL0     C35665   1.360  11.093   2.325  0.0595 -0.0534 -0.0244
  271MOL0     C35666   1.266  11.014   2.404 -0.9382 -0.2890  0.1592
  271MOL0     C35667   1.141  11.065   2.439 -0.0509 -0.3832 -0.3248
  271MOL0     C35668   1.105  11.194   2.403  0.1670  1.1634 -0.0568
  271MOL0     C35669   0.983  11.257   2.440  0.8867  0.0110  0.4009
  271MOL0     O35670   0.878  11.177   2.477  0.2408  0.2944  0.3802
  271MOL0     C35671   0.760  11.235   2.512 -1.2077  0.3313 -0.2493
  271MOL0     C35672   0.651  11.151   2.474 -0.3878  0.1394  0.2117
  271MOL0     C35673   0.523  11.188   2.493 -0.0364 -0.5491  0.1638
  271MOL0     C35674   0.483  11.306   2.551 -0.0604  0.9977 -1.1762
  271MOL0     O35675   0.353  11.352   2.569  0.4196  0.2688  0.3067
  271MOL0     C35676   0.250  11.270   2.512  0.2404 -0.6303  0.1077
  271MOL0     C35677   0.115  11.341   2.518 -1.1691 -0.0518 -0.5515
  271MOL0     C35678   0.000  11.259   2.461 -0.0385  0.1415  0.4022
  271MOL0     C35679  -0.122  11.351   2.478 -1.0153 -0.4160 -0.5046
  271MOL0     C35680  -0.235  11.268   2.440  0.4896 -0.1117 -0.4108
  271MOL0     C35681  -0.363  11.353   2.448  0.6271  0.0605  0.2182
  271MOL0     C35682  -0.479  11.297   2.368 -0.3750  0.8336 -0.3248
  271MOL0     C35683  -0.501  11.156   2.403  1.1122 -0.0833  0.7886
  271MOL0    Cl35684  -0.620  11.084   2.294 -0.3498 -0.6801  0.0421
  271MOL0     C35685   0.589  11.395   2.592 -0.4999  0.2411 -0.4146
  271MOL0     C35686   0.724  11.358   2.575 -0.4669 -0.8768 -0.0478
  271MOL0     O35687   0.975  11.373   2.421  0.4458  0.1237 -0.2122
  271MOL0     C35688   1.195  11.273   2.324  1.5063  0.8980 -0.0804
  271MOL0     C35689   1.318  11.219   2.277  0.0170 -0.5362  0.2374
  271MOL0     N35690   1.224  10.598   1.914 -0.2911 -0.6340  0.2862
  271MOL0     N35691   1.228  10.509   1.818  0.4310  0.1374  0.3842
  271MOL0     C35692   1.867  10.529   2.205 -0.2739 -0.1960 -0.5253
  271MOL0     C35693   1.788  10.554   2.319 -0.1076  0.8439  0.5794
  271MOL0     C35694   1.532  10.482   2.685 -0.9954 -0.0584  0.3719
  271MOL0     C35695   1.405  10.541   2.651  0.4958  0.4603 -0.1360
  271MOL0     C35696   1.313  10.587   2.756  0.3251  0.6368 -0.1436
  271MOL0     C35697   1.351  10.569   2.890 -0.3595 -0.5507 -0.5490
  271MOL0     O35698   1.279  10.604   3.003  0.0732 -0.1565  0.2420
  271MOL0     C35699   1.143  10.656   2.983 -1.5676  0.0366  0.4679
  271MOL0     C35700   1.023  10.561   2.957  0.0004 -0.0968  0.4114
  271MOL0     C35701   0.894  10.639   2.941 -1.0848  1.0632 -0.2132
  271MOL0     C35702   0.783  10.526   2.900  0.1201  0.5526  0.2739
  271MOL0     C35703   0.646  10.596   2.888  0.0610  0.2274  1.2766
  271MOL0     C35704   0.530  10.644   2.871 -0.3182 -0.3615  0.1821
  271MOL0     C35705   1.477  10.507   2.915 -0.7309  0.3175 -0.4460
  271MOL0     C35706   1.561  10.449   2.820 -1.1663 -0.1931  0.1343
  271MOL0     H35707   1.550  10.298   2.279 -1.4628  1.5255  2.6761
  271MOL0     H35708   1.674  10.283   2.078 -3.6805 -1.6132  2.2887
  271MOL0     H35709   2.053  10.489   2.005  3.4951 -2.9229 -4.1161
  271MOL0     H35710   1.910  10.573   1.930  1.2298  1.3444 -0.5178
  271MOL0     H35711   2.079  10.331   1.836 -0.6174 -0.8198 -2.6232
  271MOL0     H35712   2.094  10.491   1.770  0.7541  0.0834  1.1879
  271MOL0     H35713   1.888  10.280   1.692 -0.5915 -0.1427 -1.3176
  271MOL0     H35714   1.966  10.392   1.593 -3.6677 -1.3082 -2.0974
  271MOL0     H35715   1.735  10.459   1.782 -0.7975  2.3522  0.1920
  271MOL0     H35716   1.799  10.584   1.685 -1.5508  0.2625  0.3458
  271MOL0     H35717   1.664  10.319   1.599 -0.0473  0.4585  0.5936
  271MOL0     H35718   1.732  10.438   1.492 -1.4552 -2.4643 -0.3118
  271MOL0     H35719   1.548  10.565   1.500  1.3063  0.3148  0.5596
  271MOL0     H35720   1.537  10.563   1.675 -1.6249  0.7617 -0.1467
  271MOL0     H35721   1.343  10.492   1.577 -0.0714  0.3049  2.0332
  271MOL0     H35722   1.418  10.346   1.506  3.4170  0.7408  0.6752
  271MOL0     H35723   1.484  10.292   1.770 -0.9493 -0.3149  1.0855
  271MOL0     H35724   1.320  10.263   1.708 -0.8231  2.2687 -0.8613
  271MOL0     H35725   1.499  10.420   1.977 -0.7538 -2.4431 -1.7782
  271MOL0     H35726   1.436  10.586   2.182  1.7340 -0.8646 -2.3981
  271MOL0     H35727   1.325  10.727   2.125  1.1608  0.5696  0.8789
  271MOL0     H35728   1.520  10.768   1.963 -0.3823 -0.2522 -0.3403
  271MOL0     H35729   1.620  10.666   2.068  0.5385  0.9013 -0.2749
  271MOL0     H35730   1.530  10.786   2.272  0.2475 -0.8846 -0.7230
  271MOL0     H35731   1.651  10.868   2.190  0.1460  0.5260 -2.1594
  271MOL0     H35732   1.358  10.931   2.152 -0.3769 -1.5063  1.9290
  271MOL0     H35733   1.508  11.006   2.068  2.2377 -0.7671  0.7376
  271MOL0     H35734   1.299  10.917   2.442 -2.7157 -1.8371 -2.0038
  271MOL0     H35735   1.082  11.004   2.506  1.7121  0.7296  2.4028
  271MOL0     H35736   0.671  11.054   2.430 -1.3842 -0.2377  0.5601
  271MOL0     H35737   0.451  11.120   2.446 -1.7038 -0.0808  1.9227
  271MOL0     H35738   0.240  11.180   2.572 -0.4678 -2.5393 -2.6621
  271MOL0     H35739   0.264  11.244   2.406 -1.1399  0.0329 -0.2626
  271MOL0     H35740   0.129  11.436   2.466 -1.5625  0.5162  0.3534
  271MOL0     H35741   0.096  11.368   2.622  0.2054  3.1522 -1.0112
  271MOL0     H35742  -0.020  11.171   2.524 -2.2309 -0.3933 -0.9304
  271MOL0     H35743   0.015  11.236   2.355  1.3709 -0.3975  0.6936
  271MOL0     H35744  -0.133  11.386   2.581 -1.7787 -1.1185 -0.3397
  271MOL0     H35745  -0.113  11.440   2.415 -0.9138  0.0938  0.2154
  271MOL0     H35746  -0.237  11.188   2.515  2.2928 -0.7492 -0.9889
  271MOL0     H35747  -0.218  11.229   2.339 -0.6566  1.0139 -1.0594
  271MOL0     H35748  -0.337  11.452   2.410 -2.3636  1.5338  1.6603
  271MOL0     H35749  -0.386  11.351   2.555 -2.0980 -1.9738 -0.3038
  271MOL0     H35750  -0.576  11.340   2.395 -0.4565  0.0392  0.7341
  271MOL0     H35751  -0.464  11.319   2.262  2.1564  3.7558  0.5199
  271MOL0     H35752  -0.553  11.157   2.498 -1.5231 -3.1312 -0.4448
  271MOL0     H35753  -0.412  11.092   2.407 -0.4434 -2.7061 -2.0033
  271MOL0     H35754   0.568  11.487   2.645 -2.1393 -0.1666 -0.3226
  271MOL0     H35755   0.801  11.430   2.602  0.0318 -1.0314 -1.0346
  271MOL0     H35756   1.177  11.373   2.284 -1.1240 -0.0251 -1.5121
  271MOL0     H35757   1.389  11.278   2.220  0.2963  1.0851  2.1409
  271MOL0     H35758   1.961  10.580   2.187  1.9873 -2.0977  3.9837
  271MOL0     H35759   1.808  10.640   2.383 -0.4506  2.0021 -0.8283
  271MOL0     H35760   1.379  10.549   2.545 -0.0210  1.0172  0.0268
  271MOL0     H35761   1.212  10.614   2.726 -1.1088  0.1522  3.7493
  271MOL0     H35762   1.153  10.728   2.901 -0.1421 -1.1573 -0.4684
  271MOL0     H35763   1.131  10.716   3.073  1.6865  4.4865 -1.6843
  271MOL0     H35764   1.037  10.505   2.864 -0.0299  0.6710 -0.0672
  271MOL0     H35765   1.009  10.494   3.043  0.1292 -1.2396 -0.4400
  271MOL0     H35766   0.903  10.719   2.868 -0.9209  0.2746 -1.0709
  271MOL0     H35767   0.878  10.682   3.041  4.2430 -0.3051  1.5292
  271MOL0     H35768   0.793  10.483   2.800 -2.3585  0.7382 -0.1349
  271MOL0     H35769   0.776  10.438   2.965 -2.2945 -1.7040 -2.7362
  271MOL0     H35770   0.432  10.687   2.862 -0.1521  0.1175  0.6100
  271MOL0     H35771   1.515  10.498   3.016  0.2663  1.9524 -0.6298
  271MOL0     H35772   1.647  10.389   2.847 -0.4782  0.4841 -0.4994
  272MOL0     O35773   1.856   9.265   0.102 -0.2464  0.1365 -0.5922
  272MOL0     C35774   1.934   9.290   0.013  0.5734 -1.4338  0.1241
  272MOL0     O35775   1.905   9.337  -0.113 -0.1061 -0.4744 -0.3316
  272MOL0     C35776   1.780   9.333  -0.153  0.0478 -0.0367  0.5205
  272MOL0     C35777   1.674   9.414  -0.111  0.0145  0.3210  0.3031
  272MOL0     C35778   1.544   9.393  -0.160 -0.4077 -0.1034  0.5680
  272MOL0     C35779   1.515   9.280  -0.248  0.8070 -0.6553 -0.8797
  272MOL0     O35780   1.389   9.245  -0.291 -0.1382  0.2347  0.4391
  272MOL0     C35781   1.285   9.348  -0.284  0.6709 -0.0613  0.1987
  272MOL0     C35782   1.149   9.293  -0.331 -1.1300 -0.1201 -0.5105
  272MOL0     C35783   1.031   9.376  -0.320  0.4701 -0.2086  0.0534
  272MOL0     C35784   0.919   9.311  -0.404  0.0659 -0.1456 -0.7259
  272MOL0     C35785   0.817   9.422  -0.438  0.2381 -0.7012  0.0776
  272MOL0     C35786   0.683   9.360  -0.485  1.0070  1.1605  0.5139
  272MOL0     C35787   0.604   9.276  -0.386  0.9384 -0.3157  0.5385
  272MOL0     C35788   0.554   9.357  -0.259 -0.4163  0.6187 -0.4979
  272MOL0     N35789   0.412   9.349  -0.233 -0.1265 -0.3041  0.5124
  272MOL0     C35790   0.360   9.233  -0.169  0.2433 -0.0788  0.8586
  272MOL0     C35791   0.245   9.266  -0.120  1.0166 -0.0681  0.1973
  272MOL0     C35792   0.148   9.168  -0.056 -0.8957 -0.3010 -0.3017
  272MOL0     C35793   0.026   9.249  -0.003  0.1955 -0.5230 -0.0419
  272MOL0     C35794  -0.083   9.152   0.013 -0.3656  0.2359 -0.2617
  272MOL0     C35795  -0.205   9.217   0.077 -0.6304 -0.3615 -0.3570
  272MOL0     O35796  -0.277   9.326   0.007  0.0784 -0.2109  0.1414
  272MOL0     C35797  -0.393   9.296  -0.062 -0.1053 -0.5138 -0.4986
  272MOL0     C35798  -0.478   9.188  -0.045  1.3590 -0.1236  0.0310
  272MOL0     C35799  -0.596   9.177  -0.113  0.0650 -0.1788  0.8705
  272MOL0     C35800  -0.643   9.278  -0.198  0.1385  0.0591 -0.2043
  272MOL0     C35801  -0.768   9.271  -0.278  0.1902 -0.5672  0.2098
  272MOL0     O35802  -0.855   9.165  -0.234 -0.6312 -0.5391  0.1611
  272MOL0     C35803  -0.934   9.123  -0.338  0.3199 -1.1466  0.3718
  272MOL0     C35804  -0.888   9.071  -0.454 -0.2160 -1.2153 -0.1634
  272MOL0     C35805  -0.981   9.007  -0.544  0.2357 -0.0628  0.0696
  272MOL0     C35806  -1.121   9.014  -0.515  0.1361  0.0226  0.4191
  272MOL0     O35807  -1.197   8.960  -0.617  0.0795 -0.2987 -0.6857
  272MOL0     C35808  -1.332   9.010  -0.621  0.4375  0.4251  0.3244
  272MOL0     C35809  -1.393   8.941  -0.744  0.1605 -0.1653  0.2513
  272MOL0     C35810  -1.533   8.983  -0.775  0.2957  0.1656  0.1944
  272MOL0     C35811  -1.552   8.993  -0.925  0.0686  0.2055 -0.2564
  272MOL0     C35812  -1.696   8.989  -0.965  1.0234  0.2330 -0.6975
  272MOL0     C35813  -1.714   9.011  -1.118 -0.4272  0.7971 -0.2432
  272MOL0     C35814  -1.716   8.873  -1.192 -0.5624 -0.2351  0.2656
  272MOL0     C35815  -1.729   8.891  -1.346 -0.1470 -0.5621 -0.2227
  272MOL0    Cl35816  -1.891   8.904  -1.398  0.2864  0.3736  0.3546
  272MOL0     C35817  -1.168   9.084  -0.406 -0.6265  0.3529  0.0096
  272MOL0     C35818  -1.079   9.137  -0.318  0.6815 -0.8316 -0.1021
  272MOL0     O35819  -0.779   9.340  -0.380 -0.7988  0.4056  0.2410
  272MOL0     C35820  -0.556   9.377  -0.220  0.0073 -0.5976 -1.0972
  272MOL0     C35821  -0.428   9.384  -0.162  0.0214 -0.2101  0.0016
  272MOL0     N35822   0.218   9.399  -0.157  0.5423  1.1636 -0.8504
  272MOL0     N35823   0.325   9.448  -0.220 -0.5922  1.4852 -0.4470
  272MOL0     C35824   1.622   9.211  -0.292  0.4795  0.7366  0.0237
  272MOL0     C35825   1.749   9.234  -0.248  0.4373  0.5057  0.7585
  272MOL0     C35826   2.079   9.294   0.049 -0.0661  0.6803 -0.1859
  272MOL0     C35827   2.181   9.341  -0.041 -0.2058  0.3471 -0.0593
  272MOL0     C35828   2.317   9.333  -0.001  0.1426  0.2694 -0.5931
  272MOL0     C35829   2.357   9.278   0.125  0.3259 -0.8455 -0.5144
  272MOL0     O35830   2.492   9.261   0.173 -0.0232  0.5931 -0.6122
  272MOL0     C35831   2.569   9.197   0.073  0.3310  0.1866  0.2022
  272MOL0     C35832   2.701   9.159   0.114 -0.4330  0.1447  0.3839
  272MOL0     C35833   2.688   9.051   0.220  0.2846  0.3059  0.9636
  272MOL0     C35834   2.714   8.910   0.166 -0.6661  1.9114 -0.1087
  272MOL0     C35835   2.653   8.799   0.250 -0.6691 -1.0399  0.0309
  272MOL0     C35836   2.621   8.695   0.311 -0.5507 -0.6022 -0.0972
  272MOL0     C35837   2.250   9.233   0.209  0.3658  0.0650 -0.6581
  272MOL0     C35838   2.119   9.244   0.168 -0.1479  0.7378  0.4379
  272MOL0     H35839   1.695   9.490  -0.036  2.2248  1.0105 -0.9015
  272MOL0     H35840   1.474   9.471  -0.131  0.7684  1.0349  0.4347
  272MOL0     H35841   1.309   9.425  -0.358  1.8169 -0.1758  0.4428
  272MOL0     H35842   1.278   9.390  -0.183 -0.5731 -0.2262  0.1951
  272MOL0     H35843   1.132   9.215  -0.255 -1.4330 -0.9487 -1.4076
  272MOL0     H35844   1.165   9.249  -0.430 -0.0656  0.9222 -0.8264
  272MOL0     H35845   1.052   9.479  -0.350  0.7128  0.3362  1.9778
  272MOL0     H35846   0.992   9.386  -0.219 -0.3507  3.4334 -0.4930
  272MOL0     H35847   0.959   9.271  -0.498  0.5854  1.5115 -1.2445
  272MOL0     H35848   0.886   9.228  -0.341  5.0716 -4.6494 -3.1580
  272MOL0     H35849   0.844   9.492  -0.517 -0.3423  1.2828  1.5237
  272MOL0     H35850   0.797   9.483  -0.349  0.2562 -0.9320  0.2414
  272MOL0     H35851   0.707   9.301  -0.574  2.9844  4.6765 -1.5427
  272MOL0     H35852   0.617   9.438  -0.523 -0.0879 -0.7774 -1.8995
  272MOL0     H35853   0.518   9.231  -0.437  1.4849  0.3242 -1.0113
  272MOL0     H35854   0.659   9.192  -0.344  0.1719 -1.2569 -0.2892
  272MOL0     H35855   0.580   9.463  -0.270 -0.8568  0.4880 -3.7592
  272MOL0     H35856   0.599   9.320  -0.166 -1.6141 -1.5377 -0.7250
  272MOL0     H35857   0.395   9.131  -0.168 -0.3866 -0.3329 -0.4611
  272MOL0     H35858   0.191   9.109   0.026  2.8404  0.2079 -1.6976
  272MOL0     H35859   0.118   9.095  -0.132  3.8351  0.0719 -2.9313
  272MOL0     H35860  -0.011   9.315  -0.081  1.4112  0.4332  0.1517
  272MOL0     H35861   0.046   9.300   0.092  1.2121 -2.4955  0.8812
  272MOL0     H35862  -0.123   9.108  -0.079 -2.9086  1.6863  0.0612
  272MOL0     H35863  -0.048   9.067   0.073  0.5613  0.3999 -0.5605
  272MOL0     H35864  -0.177   9.261   0.173 -1.0702  1.7565 -1.1367
  272MOL0     H35865  -0.272   9.132   0.094  0.3652 -2.0818 -4.0374
  272MOL0     H35866  -0.455   9.111   0.028 -0.7817 -1.4184 -0.5905
  272MOL0     H35867  -0.658   9.094  -0.082  0.1740  0.7669  3.9736
  272MOL0     H35868  -0.781   9.054  -0.458 -0.1929 -0.9697 -0.6737
  272MOL0     H35869  -0.950   8.941  -0.625 -1.0457  0.8855 -1.2561
  272MOL0     H35870  -1.316   9.116  -0.646 -0.1086  0.7473  1.3158
  272MOL0     H35871  -1.390   8.978  -0.535  0.8033 -2.3490 -0.3713
  272MOL0     H35872  -1.398   8.832  -0.742 -2.7740 -0.1038  1.0553
  272MOL0     H35873  -1.332   8.967  -0.831 -2.0142 -0.9682 -1.6422
  272MOL0     H35874  -1.564   9.076  -0.727  0.4995 -1.5223  3.9741
  272MOL0     H35875  -1.595   8.913  -0.718 -0.1729 -0.1139 -0.6600
  272MOL0     H35876  -1.503   9.087  -0.951  1.1693  0.3684  2.1518
  272MOL0     H35877  -1.499   8.912  -0.975  1.5681  0.2528  1.1740
  272MOL0     H35878  -1.745   9.069  -0.909  2.5003  0.7541 -0.1036
  272MOL0     H35879  -1.739   8.893  -0.933 -0.3641  1.4641  1.3592
  272MOL0     H35880  -1.635   9.070  -1.166  1.0164 -1.3609 -0.6535
  272MOL0     H35881  -1.808   9.064  -1.136 -0.6869  0.5633  0.3795
  272MOL0     H35882  -1.618   8.825  -1.183 -0.2241  0.4078  0.0633
  272MOL0     H35883  -1.798   8.811  -1.157 -0.5154 -2.0824 -2.5497
  272MOL0     H35884  -1.681   8.813  -1.405 -0.0919 -0.3806 -0.4210
  272MOL0     H35885  -1.686   8.989  -1.373 -1.2212 -0.2909 -0.9999
  272MOL0     H35886  -1.271   9.112  -0.384 -0.7265  0.1675 -0.2156
  272MOL0     H35887  -1.121   9.193  -0.235 -2.5279  0.4908 -2.3892
  272MOL0     H35888  -0.582   9.456  -0.291  0.1198 -0.5210 -1.0542
  272MOL0     H35889  -0.365   9.467  -0.193  2.3462 -2.9602 -3.4566
  272MOL0     H35890   1.592   9.117  -0.339 -1.6907  0.4844  1.7210
  272MOL0     H35891   1.824   9.165  -0.285 -1.9530 -0.3346 -2.9863
  272MOL0     H35892   2.163   9.386  -0.139  0.7495 -0.0060 -0.4162
  272MOL0     H35893   2.394   9.383  -0.060 -2.0556  0.7837 -3.2195
  272MOL0     H35894   2.579   9.270  -0.008  0.7120  3.4153  2.8973
  272MOL0     H35895   2.518   9.110   0.031  1.2880  0.3226 -1.3164
  272MOL0     H35896   2.767   9.122   0.034  1.1010 -2.4203  2.6680
  272MOL0     H35897   2.757   9.243   0.155 -0.6155  0.5316 -0.1443
  272MOL0     H35898   2.590   9.055   0.268 -0.4161  0.5986 -0.4421
  272MOL0     H35899   2.755   9.072   0.304  2.7261  1.2233 -1.0523
  272MOL0     H35900   2.665   8.901   0.069  1.2319  2.1022 -1.1358
  272MOL0     H35901   2.821   8.893   0.152 -1.1188 -0.4956 -1.1924
  272MOL0     H35902   2.592   8.611   0.371  0.9296 -0.3634  1.0100
  272MOL0     H35903   2.275   9.172   0.295 -0.9438  3.0243  2.0438
  272MOL0     H35904   2.049   9.217   0.247 -1.1579  3.7966  0.6992
  273MOL0     O35905   9.845   5.812   8.915 -0.2928 -0.0647 -0.6326
  273MOL0     C35906   9.946   5.743   8.920  0.4070 -0.5437 -0.0973
  273MOL0     O35907   9.960   5.611   8.892 -0.4514 -0.1801 -0.3295
  273MOL0     C35908   9.858   5.532   8.831 -0.4217  0.0192  0.0820
  273MOL0     C35909   9.908   5.418   8.767 -0.4594 -0.3861 -0.7762
  273MOL0     C35910   9.824   5.333   8.698 -0.1385  0.6593 -0.3484
  273MOL0     C35911   9.695   5.355   8.674  0.0851 -0.3518  0.2753
  273MOL0     O35912   9.627   5.267   8.595  0.3684  0.2331 -0.0369
  273MOL0     C35913   9.631   5.131   8.641  0.4962 -0.6864 -0.1992
  273MOL0     C35914   9.495   5.056   8.616  0.7569 -0.2255  0.1481
  273MOL0     C35915   9.389   5.123   8.699 -0.3135  0.1934  0.8031
  273MOL0     C35916   9.256   5.063   8.693  0.7690  0.1515  0.9734
  273MOL0     C35917   9.146   5.157   8.743  0.1905 -0.2904  0.2867
  273MOL0     C35918   9.013   5.123   8.695  0.0859 -0.5234  0.3941
  273MOL0     C35919   8.942   5.014   8.776 -0.6180  0.3908 -0.2611
  273MOL0     C35920   8.825   4.947   8.710 -0.6988  0.3937 -0.7142
  273MOL0     N35921   8.754   4.859   8.798  0.1860  0.6852 -0.0716
  273MOL0     C35922   8.794   4.726   8.831 -0.4824 -0.7439 -0.7367
  273MOL0     C35923   8.703   4.691   8.932 -0.9089 -1.1476  1.0438
  273MOL0     C35924   8.701   4.560   9.002  0.8419 -0.1467 -0.5017
  273MOL0     C35925   8.842   4.517   9.051 -0.5369 -0.2658  0.5861
  273MOL0     C35926   8.845   4.368   9.088 -0.0962 -0.2444  0.0518
  273MOL0     C35927   8.986   4.320   9.133 -0.7640  0.4992 -0.2032
  273MOL0     O35928   9.107   4.362   9.059 -0.1007  0.1549 -0.0196
  273MOL0     C35929   9.224   4.388   9.136  0.8339 -0.2889 -0.8363
  273MOL0     C35930   9.232   4.440   9.275  0.1322 -0.3665  0.5341
  273MOL0     C35931   9.357   4.473   9.335 -0.1507  0.4228  0.3418
  273MOL0     C35932   9.476   4.448   9.264 -0.2546  1.1252  0.5281
  273MOL0     C35933   9.612   4.450   9.338 -0.1677 -1.2805  0.1182
  273MOL0     O35934   9.610   4.508   9.460  0.3000  0.0296  0.8831
  273MOL0     C35935   9.728   4.512   9.533 -0.0214  0.7310 -0.4311
  273MOL0     C35936   9.845   4.574   9.491 -0.5575 -0.4233 -0.1740
  273MOL0     C35937   9.958   4.580   9.572 -0.8934  0.1208 -0.5993
  273MOL0     C35938   9.963   4.536   9.702 -0.0849 -0.6999 -0.4473
  273MOL0     O35939  10.067   4.550   9.787 -0.4785 -0.9131 -0.0648
  273MOL0     C35940  10.151   4.665   9.780  0.4044  0.4064 -0.4836
  273MOL0     C35941  10.256   4.649   9.892  0.2750 -0.0190  0.1123
  273MOL0     C35942  10.332   4.520   9.866 -0.5345 -0.6559  0.3055
  273MOL0     C35943  10.471   4.539   9.948  0.8760  0.3294  0.4528
  273MOL0     C35944  10.582   4.438   9.903 -0.2672 -0.3449 -0.0178
  273MOL0     C35945  10.709   4.487   9.986 -0.2397 -0.4645 -0.5591
  273MOL0     C35946  10.830   4.398   9.959 -0.2378  0.5214 -0.2327
  273MOL0     C35947  10.954   4.443  10.036 -0.7094 -0.4006  0.2274
  273MOL0    Cl35948  10.966   4.357  10.181  0.3666  0.0948 -0.2385
  273MOL0     C35949   9.855   4.474   9.747 -0.2294  0.2587  0.2185
  273MOL0     C35950   9.736   4.449   9.662  0.4249  0.1683  0.4517
  273MOL0     O35951   9.714   4.410   9.284 -0.4256 -0.8545 -0.1553
  273MOL0     C35952   9.471   4.413   9.129 -0.2342 -0.5364  0.5437
  273MOL0     C35953   9.350   4.384   9.071 -0.4403  0.2293  0.5458
  273MOL0     N35954   8.617   4.797   8.964 -0.1016 -0.0595  0.5024
  273MOL0     N35955   8.646   4.893   8.878 -0.1428  0.3870  0.3890
  273MOL0     C35956   9.648   5.472   8.737 -0.2409 -0.2618 -0.7351
  273MOL0     C35957   9.724   5.556   8.824  0.3075  0.4361  0.3617
  273MOL0     C35958  10.067   5.809   8.975  0.3627  0.2688  0.8920
  273MOL0     C35959  10.195   5.760   8.948 -0.4145  0.1103 -1.0053
  273MOL0     C35960  10.309   5.841   8.982  0.5189 -0.4410  0.5574
  273MOL0     C35961  10.298   5.967   9.048  0.3447  0.0783 -0.5051
  273MOL0     O35962  10.396   6.055   9.088 -0.1214  0.3320  0.0676
  273MOL0     C35963  10.524   5.994   9.091 -0.4774 -0.4499 -0.4568
  273MOL0     C35964  10.616   6.110   9.116  0.7410 -0.0037 -0.0517
  273MOL0     C35965  10.761   6.061   9.141 -0.5015 -0.6592 -0.2551
  273MOL0     C35966  10.854   6.177   9.167  0.7548  0.6305  0.1551
  273MOL0     C35967  10.992   6.132   9.197 -0.6476 -0.0866 -0.4234
  273MOL0     C35968  11.099   6.081   9.204 -0.3802  0.2539 -0.1500
  273MOL0     C35969  10.171   6.010   9.068 -0.2783 -0.6360 -0.2034
  273MOL0     C35970  10.059   5.940   9.024  0.2148  1.1797  0.3945
  273MOL0     H35971  10.014   5.394   8.771  0.4950  3.1080 -1.0225
  273MOL0     H35972   9.860   5.239   8.656 -0.0204 -1.2651  3.6050
  273MOL0     H35973   9.655   5.122   8.747 -2.6596 -2.9309  0.4486
  273MOL0     H35974   9.716   5.090   8.585  0.9605  1.3495 -1.0549
  273MOL0     H35975   9.509   4.956   8.659  0.6567 -0.4041 -0.2341
  273MOL0     H35976   9.464   5.048   8.512 -0.9344  0.3612  0.5859
  273MOL0     H35977   9.387   5.227   8.664  5.2084 -0.4757 -2.8085
  273MOL0     H35978   9.412   5.127   8.806  1.5502 -0.0136  0.4472
  273MOL0     H35979   9.232   5.048   8.587  0.8090 -1.9416  1.2184
  273MOL0     H35980   9.247   4.965   8.742  0.3782  0.8347  2.3002
  273MOL0     H35981   9.155   5.261   8.709 -2.2420  0.6956  2.3400
  273MOL0     H35982   9.153   5.167   8.852  1.1913 -2.1608  0.4272
  273MOL0     H35983   9.023   5.085   8.593  0.1298  1.2375 -0.2840
  273MOL0     H35984   8.949   5.211   8.690 -0.5829 -0.8664  2.1743
  273MOL0     H35985   9.019   4.940   8.799  2.9018  4.1623  1.3335
  273MOL0     H35986   8.908   5.055   8.871  0.3887  0.9096 -0.1116
  273MOL0     H35987   8.864   4.894   8.623  0.1371  0.8300 -0.6154
  273MOL0     H35988   8.750   5.023   8.685 -0.6874  0.4216 -0.6664
  273MOL0     H35989   8.877   4.674   8.783 -1.1334  0.5705 -3.4266
  273MOL0     H35990   8.657   4.484   8.936 -0.7468  2.1040 -2.2032
  273MOL0     H35991   8.634   4.575   9.087  0.1573 -3.9643 -0.1803
  273MOL0     H35992   8.857   4.582   9.138  0.0297  0.6262 -0.1613
  273MOL0     H35993   8.917   4.529   8.972  0.5021  0.1789  1.6101
  273MOL0     H35994   8.779   4.352   9.173  0.6467  2.4589  1.2340
  273MOL0     H35995   8.822   4.315   8.995 -0.0373  0.5627 -0.4275
  273MOL0     H35996   8.985   4.212   9.121 -1.4481  0.8120 -5.3728
  273MOL0     H35997   8.997   4.346   9.239  0.7064 -1.1359  0.0925
  273MOL0     H35998   9.137   4.467   9.320  0.3736  1.7414 -0.1014
  273MOL0     H35999   9.356   4.501   9.440 -1.6798 -3.9708  1.7076
  273MOL0     H36000   9.831   4.619   9.393 -0.3869 -3.1184 -1.5355
  273MOL0     H36001  10.048   4.623   9.531 -1.4108 -0.4878 -2.4623
  273MOL0     H36002  10.095   4.753   9.811  1.8295  1.2213 -0.1629
  273MOL0     H36003  10.209   4.683   9.690 -0.2560  0.3178 -0.9358
  273MOL0     H36004  10.201   4.636   9.986 -0.5754 -0.5379 -0.4410
  273MOL0     H36005  10.325   4.733   9.879 -1.0007  0.7705 -2.0470
  273MOL0     H36006  10.352   4.526   9.759  0.9800 -1.2640  0.5341
  273MOL0     H36007  10.273   4.430   9.890 -1.4741 -0.3457 -0.7652
  273MOL0     H36008  10.506   4.642   9.939 -1.0841  1.2401  2.2134
  273MOL0     H36009  10.447   4.529  10.055  0.8888 -0.1714  0.4148
  273MOL0     H36010  10.609   4.438   9.797  0.7466 -2.5367  0.1764
  273MOL0     H36011  10.552   4.338   9.938  0.1515  0.2368  2.1983
  273MOL0     H36012  10.690   4.467  10.092 -1.4722 -1.8803 -1.0038
  273MOL0     H36013  10.728   4.593   9.970 -1.5079  0.0809  1.1402
  273MOL0     H36014  10.798   4.295   9.977  1.1877 -0.1312 -1.1992
  273MOL0     H36015  10.861   4.391   9.854  0.6084 -0.8904  0.0927
  273MOL0     H36016  10.943   4.550  10.056  0.4403 -0.1476 -0.4038
  273MOL0     H36017  11.048   4.422   9.984 -0.6731  0.6823 -0.1703
  273MOL0     H36018   9.858   4.462   9.855 -1.0448 -2.3362  0.0074
  273MOL0     H36019   9.644   4.419   9.712 -0.0936  3.1316  1.5029
  273MOL0     H36020   9.567   4.394   9.083  0.1255  0.2477  0.9522
  273MOL0     H36021   9.350   4.350   8.968  1.9368 -0.1520  0.6216
  273MOL0     H36022   9.541   5.489   8.729 -0.4237  0.2992  2.0478
  273MOL0     H36023   9.680   5.641   8.874 -0.0495  0.6906 -0.3667
  273MOL0     H36024  10.210   5.672   8.887  3.2693  0.3616 -0.6651
  273MOL0     H36025  10.401   5.802   8.940 -0.2712 -4.4241  2.0895
  273MOL0     H36026  10.552   5.951   8.995  1.1226  0.7705 -0.5849
  273MOL0     H36027  10.541   5.920   9.170  1.8599  1.9921  1.5760
  273MOL0     H36028  10.618   6.179   9.031 -1.0106 -0.5122 -0.5655
  273MOL0     H36029  10.579   6.160   9.206 -1.3834 -2.9804  0.9039
  273MOL0     H36030  10.779   5.997   9.054 -0.0381 -0.0495 -0.6177
  273MOL0     H36031  10.758   6.001   9.232  0.6335  1.2086  1.0779
  273MOL0     H36032  10.865   6.240   9.078 -1.4687 -0.3771 -0.9046
  273MOL0     H36033  10.815   6.241   9.246  0.1989 -0.0999  0.4847
  273MOL0     H36034  11.189   6.026   9.224 -1.8725 -1.2111  3.4150
  273MOL0     H36035  10.159   6.114   9.096 -0.2556 -1.3035  2.6108
  273MOL0     H36036   9.964   5.991   9.039 -0.9840 -1.5437  3.5807
  274MOL0     O36037  10.982  10.277   4.442 -0.5110 -0.4730 -0.7246
  274MOL0     C36038  11.063  10.258   4.354  0.1744 -0.1983 -0.6732
  274MOL0     O36039  11.036  10.262   4.219  0.6386  0.0073 -0.5670
  274MOL0     C36040  10.907  10.279   4.158 -0.2626 -0.4704 -0.7261
  274MOL0     C36041  10.906  10.285   4.016 -0.4279  0.6661 -0.0129
  274MOL0     C36042  10.790  10.328   3.953 -0.2619  1.0115  0.0504
  274MOL0     C36043  10.673  10.330   4.020  0.0142 -0.1279 -0.1797
  274MOL0     O36044  10.564  10.341   3.935  0.2899 -0.2049 -0.7148
  274MOL0     C36045  10.438  10.284   3.983 -0.0540 -0.7168 -0.2140
  274MOL0     C36046  10.359  10.261   3.862  0.0795 -0.7666  0.2901
  274MOL0     C36047  10.231  10.188   3.903  0.9378 -0.5216  0.2736
  274MOL0     C36048  10.138  10.197   3.782  0.0658  0.8741  0.2789
  274MOL0     C36049  10.042  10.080   3.783 -0.2967  0.4277  0.0170
  274MOL0     C36050   9.938  10.096   3.680  0.6905 -0.1342 -0.6173
  274MOL0     C36051   9.816   9.996   3.692 -0.0233  0.8191 -0.5814
  274MOL0     C36052   9.716  10.028   3.797 -0.6383  0.6992 -0.3880
  274MOL0     N36053   9.668  10.168   3.779 -0.2955 -0.3656 -0.5760
  274MOL0     C36054   9.708  10.280   3.856  0.2770 -0.7748 -0.3038
  274MOL0     C36055   9.616  10.375   3.820 -0.5944  0.5045 -0.0663
  274MOL0     C36056   9.593  10.506   3.888  0.1272 -0.7135 -1.1266
  274MOL0     C36057   9.602  10.628   3.797  0.7170 -0.1805 -0.3941
  274MOL0     C36058   9.596  10.757   3.877 -0.5269  0.3302 -0.1705
  274MOL0     C36059   9.615  10.884   3.800 -0.3544  1.0497 -0.6166
  274MOL0     O36060   9.572  10.990   3.885 -0.2484 -0.3906  0.1374
  274MOL0     C36061   9.441  11.035   3.904  0.0219  0.6532  0.1305
  274MOL0     C36062   9.444  11.147   3.977 -0.0456  0.6271 -0.7281
  274MOL0     C36063   9.326  11.219   3.988  0.4612  0.9632  0.3913
  274MOL0     C36064   9.212  11.185   3.911  0.0014 -1.1705 -0.6171
  274MOL0     C36065   9.096  11.273   3.926  1.1624 -0.3491 -0.1993
  274MOL0     O36066   9.102  11.398   3.996 -0.2008 -0.7412  0.7053
  274MOL0     C36067   8.985  11.466   4.042  0.3153  0.0457  0.0250
  274MOL0     C36068   9.004  11.586   4.111  0.6492  0.7037 -0.1120
  274MOL0     C36069   8.898  11.654   4.166 -0.5241 -0.5140  0.3477
  274MOL0     C36070   8.758  11.618   4.156 -0.0528  0.7254  0.5917
  274MOL0     O36071   8.653  11.688   4.220 -0.1601  1.1308  0.0952
  274MOL0     C36072   8.666  11.707   4.359 -0.0622  0.3738 -0.2568
  274MOL0     C36073   8.566  11.810   4.419  0.4655 -0.8451  0.2647
  274MOL0     C36074   8.423  11.791   4.385 -0.0841  1.1985 -0.9670
  274MOL0     C36075   8.331  11.846   4.495 -0.0900  0.9044  0.3924
  274MOL0     C36076   8.183  11.854   4.471  0.1443  0.2994  0.6995
  274MOL0     C36077   8.120  11.921   4.592  0.1933 -0.5100 -0.4197
  274MOL0     C36078   7.983  11.961   4.562  0.3333 -0.4477  0.0385
  274MOL0     C36079   7.965  12.062   4.452 -0.2930  0.4661 -0.3774
  274MOL0    Cl36080   7.803  12.135   4.445 -0.1909  0.1042 -0.1715
  274MOL0     C36081   8.739  11.498   4.082  0.2330 -0.1775  0.0878
  274MOL0     C36082   8.849  11.424   4.027  0.3050  0.0124  0.0965
  274MOL0     O36083   9.001  11.221   3.873 -0.5595 -0.4342 -0.1322
  274MOL0     C36084   9.218  11.074   3.825  0.2649 -0.0874 -0.4797
  274MOL0     C36085   9.331  10.996   3.826 -0.9460  0.0250  0.2503
  274MOL0     N36086   9.515  10.321   3.738 -0.5780  0.1353 -0.2720
  274MOL0     N36087   9.551  10.201   3.716 -0.0599  0.4743 -0.0606
  274MOL0     C36088  10.662  10.322   4.154 -0.1014  0.6895  0.1271
  274MOL0     C36089  10.785  10.302   4.224  0.3497 -0.0221 -0.2026
  274MOL0     C36090  11.206  10.235   4.389  0.0205 -0.0062 -0.2968
  274MOL0     C36091  11.253  10.249   4.521 -0.3609  0.0196  0.0907
  274MOL0     C36092  11.384  10.211   4.563 -0.6149 -0.7429 -0.2305
  274MOL0     C36093  11.472  10.154   4.471  0.0773 -0.0141 -0.4187
  274MOL0     O36094  11.595  10.122   4.519  0.0064 -0.5569  0.3569
  274MOL0     C36095  11.699  10.076   4.421  0.5335  0.8959 -0.6535
  274MOL0     C36096  11.840  10.050   4.486  0.5233  0.0742  0.3210
  274MOL0     C36097  11.835   9.926   4.574 -0.3934  0.2909 -0.5626
  274MOL0     C36098  11.982   9.885   4.598 -0.8115 -0.8467 -1.1579
  274MOL0     C36099  12.045   9.962   4.713 -0.2212  0.3496  0.1881
  274MOL0     C36100  12.091  10.021   4.804  0.7731 -0.4302  0.7975
  274MOL0     C36101  11.426  10.141   4.336 -0.1855  0.1299 -0.0476
  274MOL0     C36102  11.295  10.176   4.301 -0.4146  0.1181 -0.7019
  274MOL0     H36103  11.005  10.284   3.970 -0.3918  1.1754  0.0410
  274MOL0     H36104  10.801  10.324   3.845 -2.7486 -1.3049 -0.2302
  274MOL0     H36105  10.388  10.354   4.050  2.1340 -0.3526  1.1615
  274MOL0     H36106  10.432  10.196   4.048  1.0435  0.4200  1.5164
  274MOL0     H36107  10.410  10.195   3.791 -3.2474 -3.2778  0.0025
  274MOL0     H36108  10.337  10.347   3.798 -0.0388  1.0024  2.5792
  274MOL0     H36109  10.187  10.241   3.987 -0.0548  2.0619 -1.7295
  274MOL0     H36110  10.258  10.084   3.926 -0.4191 -0.5110  2.0907
  274MOL0     H36111  10.086  10.293   3.781 -0.9383  0.3744 -1.6312
  274MOL0     H36112  10.191  10.187   3.686 -2.2047  4.8484 -1.6410
  274MOL0     H36113  10.000  10.083   3.883  1.4542  2.5251  0.7752
  274MOL0     H36114  10.093   9.987   3.757 -0.4426  0.4659 -0.4291
  274MOL0     H36115   9.984  10.068   3.585 -0.5452 -1.4505 -0.8559
  274MOL0     H36116   9.910  10.202   3.683  0.0823 -0.1611 -3.1499
  274MOL0     H36117   9.766   9.996   3.594 -0.0977 -2.6379 -0.6864
  274MOL0     H36118   9.843   9.891   3.709 -3.4051 -0.1502 -0.4267
  274MOL0     H36119   9.742  10.009   3.902 -1.2095 -2.7934 -0.7600
  274MOL0     H36120   9.629   9.962   3.787  0.2446 -0.4815 -0.4886
  274MOL0     H36121   9.782  10.299   3.934  1.9908  0.7338 -2.1760
  274MOL0     H36122   9.655  10.527   3.976  0.6026  0.1968 -1.6557
  274MOL0     H36123   9.493  10.503   3.933  1.2330 -2.9122  1.4754
  274MOL0     H36124   9.514  10.626   3.732  0.3316  0.2598  0.1001
  274MOL0     H36125   9.701  10.620   3.753  1.4515 -1.3400  1.3558
  274MOL0     H36126   9.498  10.751   3.925  1.2023  2.0393  4.0431
  274MOL0     H36127   9.666  10.768   3.960  1.6197  1.1717 -1.9878
  274MOL0     H36128   9.557  10.871   3.708  0.8981 -3.5053 -1.0249
  274MOL0     H36129   9.720  10.898   3.771 -0.4851 -0.3826 -1.9205
  274MOL0     H36130   9.532  11.198   4.015 -0.6258  0.2943  1.1739
  274MOL0     H36131   9.326  11.313   4.042 -0.7164 -0.9792  4.1444
  274MOL0     H36132   9.104  11.627   4.119  0.8728  0.3483 -0.9586
  274MOL0     H36133   8.912  11.750   4.214  1.0163 -0.1124 -0.8179
  274MOL0     H36134   8.763  11.751   4.380 -0.4676  0.5160  1.4070
  274MOL0     H36135   8.658  11.612   4.413  1.1431  1.2325  1.5298
  274MOL0     H36136   8.594  11.913   4.392  0.6627 -1.4041 -1.8180
  274MOL0     H36137   8.579  11.808   4.528 -1.0749 -2.3150  0.4463
  274MOL0     H36138   8.411  11.682   4.385  2.0623  0.9227 -1.4894
  274MOL0     H36139   8.402  11.824   4.282  0.0071  3.5388 -0.2982
  274MOL0     H36140   8.357  11.786   4.583  1.0545 -0.3689 -0.7674
  274MOL0     H36141   8.355  11.950   4.517  1.2243  0.6984 -0.0021
  274MOL0     H36142   8.141  11.753   4.473  1.6899 -0.3689  0.5328
  274MOL0     H36143   8.173  11.895   4.371  1.9402 -1.4543 -0.2760
  274MOL0     H36144   8.170  12.016   4.614  0.1559 -0.5460 -0.1703
  274MOL0     H36145   8.132  11.863   4.684 -2.4548 -0.5325 -0.0007
  274MOL0     H36146   7.919  11.877   4.533 -0.2894  0.2398 -0.5789
  274MOL0     H36147   7.940  12.013   4.648  0.9209  1.4934 -0.7873
  274MOL0     H36148   7.979  12.010   4.356  0.6943  0.0297 -0.0038
  274MOL0     H36149   8.049  12.131   4.458  0.5429 -0.5764  0.2642
  274MOL0     H36150   8.641  11.454   4.067 -0.2479  0.9432 -0.1299
  274MOL0     H36151   8.821  11.347   3.957 -1.6523 -1.6528  2.5322
  274MOL0     H36152   9.139  11.047   3.756 -0.1556 -1.8601  0.6092
  274MOL0     H36153   9.333  10.899   3.778 -2.1445  0.2521 -0.2983
  274MOL0     H36154  10.571  10.325   4.213  0.3325  2.4402  0.7720
  274MOL0     H36155  10.777  10.312   4.332  2.2671 -0.1899 -0.0104
  274MOL0     H36156  11.175  10.267   4.594 -2.5087 -1.4095 -1.7311
  274MOL0     H36157  11.407  10.220   4.668 -0.8902 -4.0554  0.2153
  274MOL0     H36158  11.717  10.159   4.351 -2.5424  1.3462 -1.0552
  274MOL0     H36159  11.669   9.982   4.373  3.6960 -1.3234  1.3738
  274MOL0     H36160  11.906  10.033   4.401  1.2432 -0.5888  1.0014
  274MOL0     H36161  11.854  10.152   4.523  1.1131  0.2953 -0.4820
  274MOL0     H36162  11.794   9.840   4.521  1.5265 -1.8694  1.2541
  274MOL0     H36163  11.769   9.935   4.660 -2.4355 -0.1478 -2.0121
  274MOL0     H36164  11.978   9.779   4.624  2.7945 -1.1677 -1.4353
  274MOL0     H36165  12.041   9.900   4.507 -0.4200 -0.0409 -0.7858
  274MOL0     H36166  12.119  10.087   4.884  1.1790 -0.5679  0.7730
  274MOL0     H36167  11.488  10.109   4.254 -0.2370 -0.0220 -0.0278
  274MOL0     H36168  11.277  10.146   4.198  4.5007 -2.3009 -1.1411
  275MOL0     O36169  10.478   5.752   5.917 -0.9539  0.4581 -0.9432
  275MOL0     C36170  10.523   5.864   5.935 -0.2535 -0.4184  0.0578
  275MOL0     O36171  10.458   5.986   5.913  0.8014  1.0029 -0.1504
  275MOL0     C36172  10.340   5.977   5.833 -0.7238  0.5662 -0.6400
  275MOL0     C36173  10.363   5.977   5.698 -0.0490 -0.3798  0.1037
  275MOL0     C36174  10.262   5.952   5.597  0.3047 -0.6818  0.0808
  275MOL0     C36175  10.134   5.922   5.651 -0.4822  0.5627  0.3470
  275MOL0     O36176  10.032   5.912   5.562 -0.0761  0.0044 -0.5854
  275MOL0     C36177   9.896   5.943   5.596 -0.0724  0.6615  0.3343
  275MOL0     C36178   9.808   5.860   5.507 -0.1291  0.4078  0.3736
  275MOL0     C36179   9.666   5.886   5.532 -0.6732 -0.5451 -0.8854
  275MOL0     C36180   9.574   5.788   5.468 -0.0277  0.4549 -0.3462
  275MOL0     C36181   9.432   5.824   5.489 -0.2574 -0.2415 -0.3005
  275MOL0     C36182   9.340   5.744   5.398 -0.3796  0.2301  0.2094
  275MOL0     C36183   9.188   5.791   5.385 -0.1078 -0.4218  0.3221
  275MOL0     C36184   9.111   5.680   5.300  1.1028  0.3635  0.2576
  275MOL0     N36185   9.088   5.557   5.379  1.1375 -0.2421 -0.2046
  275MOL0     C36186   9.178   5.465   5.425  0.9862 -0.5080 -0.0836
  275MOL0     C36187   9.102   5.371   5.479 -0.3849 -0.4048  1.1146
  275MOL0     C36188   9.135   5.248   5.534 -0.4736  0.1766  0.6795
  275MOL0     C36189   9.103   5.124   5.442  0.2383  0.4541  0.3864
  275MOL0     C36190   9.095   4.994   5.514  0.4861 -0.7797 -1.0974
  275MOL0     C36191   9.060   4.879   5.425  0.1460 -0.0020  0.0110
  275MOL0     O36192   9.160   4.881   5.329  0.0614  0.5238  0.6268
  275MOL0     C36193   9.138   4.798   5.223  0.0170 -0.9902 -0.6200
  275MOL0     C36194   9.059   4.842   5.117 -0.1987  0.0445  0.4271
  275MOL0     C36195   9.051   4.767   4.994  0.2803  0.5032 -0.1379
  275MOL0     C36196   9.111   4.636   4.979 -1.2905 -0.1773  0.0544
  275MOL0     C36197   9.055   4.544   4.882 -1.0369 -0.3213 -0.0421
  275MOL0     O36198   9.010   4.594   4.759  0.1994  0.3085  0.2874
  275MOL0     C36199   9.000   4.504   4.656 -0.4002 -0.3715  0.3686
  275MOL0     C36200   8.931   4.379   4.658 -0.5592 -1.0431  0.6928
  275MOL0     C36201   8.882   4.320   4.533  0.4316 -0.6454 -0.1199
  275MOL0     C36202   8.897   4.391   4.412 -0.8556  0.1737 -0.0559
  275MOL0     O36203   8.853   4.335   4.289  0.4347 -0.6049  0.8102
  275MOL0     C36204   8.721   4.282   4.274  0.1126 -0.7178 -0.5067
  275MOL0     C36205   8.730   4.126   4.247 -0.4560 -0.1116 -0.1479
  275MOL0     C36206   8.591   4.068   4.242 -0.9976  1.2427  0.0095
  275MOL0     C36207   8.572   3.936   4.171  0.1086 -0.3727 -0.1790
  275MOL0     C36208   8.684   3.827   4.205  0.4281 -0.6776  0.4568
  275MOL0     C36209   8.644   3.768   4.343  0.0999  0.1918  0.5011
  275MOL0     C36210   8.754   3.677   4.386  0.0790  0.5320 -0.0698
  275MOL0     C36211   8.702   3.624   4.520 -0.1608  0.0518  0.0260
  275MOL0    Cl36212   8.538   3.658   4.574  0.0097 -0.0417 -0.4633
  275MOL0     C36213   8.969   4.510   4.409  0.1176 -0.1380  0.0276
  275MOL0     C36214   9.009   4.564   4.530 -0.4440 -0.3427 -0.2766
  275MOL0     O36215   9.055   4.428   4.913 -0.4940  0.2163  0.1045
  275MOL0     C36216   9.191   4.592   5.092 -0.0512  0.2397 -0.1653
  275MOL0     C36217   9.202   4.674   5.210 -0.3394  0.8892  0.3391
  275MOL0     N36218   8.975   5.410   5.478 -0.3256  0.4461  1.0826
  275MOL0     N36219   8.962   5.517   5.416 -0.4503  0.2786 -0.4092
  275MOL0     C36220  10.117   5.907   5.793 -0.3440  1.1363  1.0401
  275MOL0     C36221  10.216   5.944   5.886 -0.3742 -0.2523 -0.4455
  275MOL0     C36222  10.662   5.872   5.976  1.0662 -0.4821 -0.2902
  275MOL0     C36223  10.708   5.994   6.037  0.0050 -0.1047  1.1127
  275MOL0     C36224  10.850   6.000   6.070  0.5804  1.0533 -0.8426
  275MOL0     C36225  10.936   5.886   6.051  0.2381  0.1378 -0.3353
  275MOL0     O36226  11.066   5.897   6.092 -0.4990  0.2734  0.4469
  275MOL0     C36227  11.159   5.914   5.983  0.1421  0.4550 -0.3395
  275MOL0     C36228  11.295   5.863   6.018 -0.0449  0.2620  0.2663
  275MOL0     C36229  11.367   5.817   5.886 -0.2323 -0.8913  0.1790
  275MOL0     C36230  11.506   5.765   5.922  0.1407 -0.5700 -0.6975
  275MOL0     C36231  11.572   5.668   5.832 -0.6233 -0.0041 -0.5662
  275MOL0     C36232  11.642   5.608   5.753 -0.1883  0.2833  0.1959
  275MOL0     C36233  10.891   5.769   5.993 -0.5684 -0.4019  0.5279
  275MOL0     C36234  10.752   5.762   5.962 -0.6581  0.7863  1.2817
  275MOL0     H36235  10.463   6.003   5.666 -0.2758 -2.9120 -3.2125
  275MOL0     H36236  10.284   5.949   5.491  2.7712  1.7897  0.4091
  275MOL0     H36237   9.876   6.048   5.573 -1.8868  0.3423  0.3040
  275MOL0     H36238   9.874   5.920   5.700  0.4911 -1.7760 -0.0257
  275MOL0     H36239   9.832   5.753   5.512 -2.5529 -0.1994  0.4701
  275MOL0     H36240   9.837   5.892   5.406 -1.7785  2.9260  0.6259
  275MOL0     H36241   9.639   5.984   5.491  0.9848  0.1396 -0.4046
  275MOL0     H36242   9.649   5.879   5.640  0.4759 -4.8011 -0.8222
  275MOL0     H36243   9.603   5.772   5.364  2.3608  0.2675  0.2959
  275MOL0     H36244   9.590   5.695   5.522  1.2486  1.3953  0.9843
  275MOL0     H36245   9.423   5.929   5.462  0.1944 -0.6216 -2.0272
  275MOL0     H36246   9.406   5.819   5.595  0.8634 -1.8550 -0.0507
  275MOL0     H36247   9.337   5.643   5.440 -0.4521  0.0546 -0.2084
  275MOL0     H36248   9.376   5.745   5.294  1.4763 -1.5764  0.7756
  275MOL0     H36249   9.142   5.786   5.484  1.3388 -1.3151  0.9758
  275MOL0     H36250   9.185   5.889   5.337 -2.1815  0.5005  2.1471
  275MOL0     H36251   9.167   5.671   5.206  2.4196  2.9769  0.6647
  275MOL0     H36252   9.010   5.721   5.291  0.2409 -1.4874  1.1166
  275MOL0     H36253   9.285   5.465   5.408  1.3131  0.8562  1.6481
  275MOL0     H36254   9.074   5.238   5.625 -0.2314 -1.5536  0.6785
  275MOL0     H36255   9.239   5.224   5.558  0.0823  0.6862 -1.0774
  275MOL0     H36256   9.194   5.120   5.380  1.6995  4.2671  1.9958
  275MOL0     H36257   9.013   5.145   5.383  1.9265  0.5627 -2.3350
  275MOL0     H36258   9.195   4.971   5.552  0.7182  0.9451 -0.5732
  275MOL0     H36259   9.016   5.015   5.587  0.3131 -0.9139 -1.2424
  275MOL0     H36260   8.958   4.879   5.384  0.4549 -0.4752 -0.7937
  275MOL0     H36261   9.064   4.782   5.475 -0.8394 -0.0740 -0.0349
  275MOL0     H36262   8.998   4.931   5.119 -0.0697  0.1393  0.1061
  275MOL0     H36263   8.978   4.800   4.921  0.6829  2.0827  0.1276
  275MOL0     H36264   8.906   4.333   4.753 -0.6409  0.6783  1.5432
  275MOL0     H36265   8.822   4.229   4.540 -0.7792  0.2591  2.7632
  275MOL0     H36266   8.674   4.334   4.190 -0.0877  0.0257  0.0546
  275MOL0     H36267   8.655   4.304   4.358 -1.5683  0.5780 -2.0807
  275MOL0     H36268   8.794   4.075   4.320  0.5751  0.7022 -0.4591
  275MOL0     H36269   8.780   4.119   4.151  0.3865  3.2741 -0.0746
  275MOL0     H36270   8.518   4.136   4.197 -3.3134  0.6183  2.6019
  275MOL0     H36271   8.571   4.053   4.348  3.1163 -0.1097  0.8004
  275MOL0     H36272   8.470   3.902   4.192 -1.0663  3.0026  0.0564
  275MOL0     H36273   8.576   3.957   4.063 -2.1130  1.8793  0.1038
  275MOL0     H36274   8.786   3.865   4.199  0.4695 -0.7773  0.5135
  275MOL0     H36275   8.660   3.751   4.130 -1.3087 -0.1437  0.4269
  275MOL0     H36276   8.549   3.716   4.327 -1.4004  2.2734  2.0762
  275MOL0     H36277   8.620   3.836   4.425 -0.4959 -0.5788  0.9796
  275MOL0     H36278   8.758   3.588   4.322 -1.4807 -0.3656  1.0159
  275MOL0     H36279   8.850   3.727   4.402 -0.2676  1.5791 -1.1234
  275MOL0     H36280   8.765   3.663   4.601  0.4633 -1.1705  0.1423
  275MOL0     H36281   8.728   3.518   4.521 -0.3705 -0.0075 -0.5890
  275MOL0     H36282   8.988   4.567   4.319  2.1556  0.6490  0.8947
  275MOL0     H36283   9.056   4.661   4.526 -1.0450  0.0423  1.2560
  275MOL0     H36284   9.238   4.494   5.088 -1.6222 -0.5285 -3.9599
  275MOL0     H36285   9.267   4.644   5.292 -0.3872  0.3188  0.1709
  275MOL0     H36286  10.025   5.867   5.836 -1.0464 -0.6710 -1.8453
  275MOL0     H36287  10.210   5.944   5.994  0.3854  0.6296 -0.3971
  275MOL0     H36288  10.652   6.087   6.042 -1.7354 -1.0748  0.4664
  275MOL0     H36289  10.888   6.090   6.118  0.5008  0.7294 -0.1506
  275MOL0     H36290  11.176   6.017   5.950 -2.1005  0.2906 -2.2654
  275MOL0     H36291  11.129   5.854   5.897  1.3882 -2.8476  1.3290
  275MOL0     H36292  11.350   5.952   6.051 -3.7371  1.9070  2.7156
  275MOL0     H36293  11.281   5.791   6.099 -0.5180  2.4934  2.3084
  275MOL0     H36294  11.393   5.898   5.817  0.8841 -1.1137  0.3224
  275MOL0     H36295  11.315   5.742   5.825 -1.1494 -0.6262  0.6133
  275MOL0     H36296  11.583   5.836   5.954  0.8043 -0.6518 -2.0221
  275MOL0     H36297  11.496   5.709   6.016  0.2670  1.3781  0.5230
  275MOL0     H36298  11.674   5.546   5.672 -0.5709  0.3998 -0.0469
  275MOL0     H36299  10.962   5.687   5.984  1.9549  1.7454 -0.2104
  275MOL0     H36300  10.721   5.663   5.929  1.0918  0.2693  1.0867
  276MOL0     O36301   7.567   3.585   5.924 -0.3276 -0.0545 -0.6570
  276MOL0     C36302   7.596   3.462   5.945 -0.5720 -0.8139 -0.2923
  276MOL0     O36303   7.507   3.366   5.994  0.1281  0.0910  0.3756
  276MOL0     C36304   7.393   3.406   6.053  0.3625  0.0051 -0.1945
  276MOL0     C36305   7.384   3.508   6.150 -0.3077  0.3587 -0.2253
  276MOL0     C36306   7.260   3.558   6.206 -0.0454 -0.2126  0.0469
  276MOL0     C36307   7.148   3.497   6.156  1.6384 -0.3879 -0.6446
  276MOL0     O36308   7.029   3.548   6.192  0.8444  0.6288  0.2181
  276MOL0     C36309   6.910   3.537   6.107 -0.5107  1.2310  0.2613
  276MOL0     C36310   6.793   3.600   6.187 -0.1216  0.0189  0.3205
  276MOL0     C36311   6.670   3.594   6.096 -0.5001  0.2379 -0.5167
  276MOL0     C36312   6.563   3.687   6.164  0.4573  0.3675 -1.2413
  276MOL0     C36313   6.435   3.721   6.086 -0.6133  0.9911  0.0436
  276MOL0     C36314   6.347   3.820   6.157 -0.7162  0.0194 -0.5914
  276MOL0     C36315   6.235   3.874   6.072 -0.1639 -0.3342  0.6196
  276MOL0     C36316   6.156   3.764   6.014  0.1793 -0.6356  0.5668
  276MOL0     N36317   6.019   3.792   5.987 -0.3659  0.3809  0.2369
  276MOL0     C36318   5.960   3.912   5.946  0.7464  0.6479  0.8665
  276MOL0     C36319   5.827   3.908   5.975  0.2370  1.0723  0.1482
  276MOL0     C36320   5.725   4.009   5.947  0.2709 -0.0606 -0.2951
  276MOL0     C36321   5.643   3.954   5.833  0.3628 -0.3896 -0.4881
  276MOL0     C36322   5.534   3.846   5.873  0.1838  0.0720 -0.6349
  276MOL0     C36323   5.422   3.895   5.958  0.8306  0.5419  0.1472
  276MOL0     O36324   5.358   4.007   5.891 -0.2423  0.9845  0.6681
  276MOL0     C36325   5.257   4.077   5.948 -0.3400 -0.3504  0.8380
  276MOL0     C36326   5.174   4.020   6.045 -0.4042  0.4087 -0.8784
  276MOL0     C36327   5.072   4.087   6.115 -0.2139  0.1606  0.1949
  276MOL0     C36328   5.037   4.220   6.084 -0.1651  0.0027  0.0838
  276MOL0     C36329   4.931   4.297   6.158 -0.2371  0.2692  0.3701
  276MOL0     O36330   4.922   4.432   6.141  0.0015  0.1864 -0.4677
  276MOL0     C36331   4.818   4.505   6.187 -0.4716 -0.4314 -0.9704
  276MOL0     C36332   4.685   4.466   6.163  0.2166  0.5479  0.8864
  276MOL0     C36333   4.581   4.554   6.204  0.0335 -0.7751  0.2145
  276MOL0     C36334   4.601   4.670   6.278  0.2627 -0.6256 -0.7372
  276MOL0     O36335   4.501   4.743   6.339 -0.4965  0.9534  0.0491
  276MOL0     C36336   4.364   4.734   6.295 -0.0076 -0.5492  0.1348
  276MOL0     C36337   4.271   4.680   6.405  0.4315  1.0313  0.5471
  276MOL0     C36338   4.126   4.678   6.358 -0.5751 -0.3159 -0.4497
  276MOL0     C36339   4.027   4.600   6.452 -0.1274 -0.0479 -1.0371
  276MOL0     C36340   3.888   4.638   6.411 -0.8273  0.6538 -0.3135
  276MOL0     C36341   3.768   4.558   6.471  0.4958 -0.5137 -0.9922
  276MOL0     C36342   3.786   4.520   6.622 -0.2821  0.6451  0.1427
  276MOL0     C36343   3.662   4.467   6.695  0.4356 -0.3032 -0.7950
  276MOL0    Cl36344   3.622   4.300   6.663  0.2588  0.2153 -0.2627
  276MOL0     C36345   4.745   4.696   6.304 -0.4271  0.1283  0.1087
  276MOL0     C36346   4.844   4.616   6.259 -0.9942 -0.4879 -0.7060
  276MOL0     O36347   4.854   4.232   6.223 -0.3407  0.2643  0.3681
  276MOL0     C36348   5.118   4.286   5.986 -0.1248  0.7337 -0.1393
  276MOL0     C36349   5.222   4.211   5.920 -0.0869 -0.0550  0.7516
  276MOL0     N36350   5.818   3.795   6.051  0.1940  0.5708  0.6143
  276MOL0     N36351   5.922   3.726   6.059  1.0817  0.0372  0.3273
  276MOL0     C36352   7.154   3.386   6.073 -0.3965 -0.0522  0.7515
  276MOL0     C36353   7.271   3.340   6.018  0.1186 -0.2409  0.0085
  276MOL0     C36354   7.737   3.417   5.925 -0.2055  0.7412  0.2618
  276MOL0     C36355   7.767   3.284   5.931  0.4449 -0.6655 -0.1549
  276MOL0     C36356   7.898   3.243   5.950 -0.0359  0.2584 -0.5234
  276MOL0     C36357   8.007   3.337   5.943  1.3176 -0.1597 -0.1854
  276MOL0     O36358   8.132   3.292   5.971  0.9035  0.3836 -0.2516
  276MOL0     C36359   8.208   3.303   5.853  0.9843 -0.0000 -0.4751
  276MOL0     C36360   8.354   3.256   5.873  0.0515 -0.8325  0.5236
  276MOL0     C36361   8.411   3.300   6.011 -0.1629  0.6291  0.2951
  276MOL0     C36362   8.563   3.282   6.025 -0.0703  0.1782  0.5528
  276MOL0     C36363   8.637   3.402   5.984  0.1660  0.9579 -0.3404
  276MOL0     C36364   8.700   3.492   5.940 -0.8626 -0.1104 -0.7051
  276MOL0     C36365   7.984   3.475   5.939 -0.6737  0.1958  0.2041
  276MOL0     C36366   7.847   3.507   5.936 -0.9547 -0.1395  0.0293
  276MOL0     H36367   7.475   3.565   6.161 -0.2039  0.3200 -0.8332
  276MOL0     H36368   7.270   3.638   6.278  0.7793  2.1359 -2.4802
  276MOL0     H36369   6.875   3.437   6.080  0.6262  1.0316 -0.5548
  276MOL0     H36370   6.922   3.602   6.020  1.1961  0.6771  0.0418
  276MOL0     H36371   6.823   3.704   6.197  1.0582 -0.0227 -2.2146
  276MOL0     H36372   6.764   3.550   6.281  1.8178 -1.4354  0.2115
  276MOL0     H36373   6.651   3.486   6.096  2.9299 -0.5792  2.0230
  276MOL0     H36374   6.697   3.639   6.001 -1.2103  1.1096 -0.3188
  276MOL0     H36375   6.548   3.650   6.265 -0.6080 -0.9661 -1.8524
  276MOL0     H36376   6.606   3.787   6.173 -1.2508  1.0367 -0.0042
  276MOL0     H36377   6.383   3.626   6.074 -0.1313  0.7053  0.1954
  276MOL0     H36378   6.462   3.761   5.988 -0.6916  3.0929  0.8162
  276MOL0     H36379   6.415   3.899   6.190  2.4949 -1.2388 -3.4876
  276MOL0     H36380   6.302   3.774   6.245  1.5040  0.5695  0.9311
  276MOL0     H36381   6.174   3.951   6.120 -0.6015  0.1580 -0.6824
  276MOL0     H36382   6.285   3.917   5.985  0.3433  0.7164  1.4102
  276MOL0     H36383   6.153   3.687   6.092  0.3887 -0.7321  0.4810
  276MOL0     H36384   6.204   3.712   5.930  1.3146  1.8253 -0.4139
  276MOL0     H36385   6.002   4.002   5.902 -0.7064  1.7239  1.6010
  276MOL0     H36386   5.780   4.099   5.919 -2.2734  2.5427  2.4263
  276MOL0     H36387   5.664   4.035   6.034 -2.1674 -2.3011 -1.1896
  276MOL0     H36388   5.713   3.908   5.763  0.8166 -1.4475  0.6536
  276MOL0     H36389   5.580   4.029   5.783 -0.0399  0.5925  1.3950
  276MOL0     H36390   5.491   3.814   5.778  0.7091  2.4016 -1.7347
  276MOL0     H36391   5.568   3.752   5.918 -1.1711  0.7382  1.9172
  276MOL0     H36392   5.463   3.940   6.049  0.7352  2.3115 -0.6636
  276MOL0     H36393   5.355   3.809   5.970  1.6896 -0.2862 -0.7996
  276MOL0     H36394   5.193   3.920   6.082 -1.5666 -0.1217 -1.6591
  276MOL0     H36395   5.014   4.031   6.188 -0.6631 -2.4732 -2.0111
  276MOL0     H36396   4.662   4.379   6.103 -1.2764  1.9798 -0.7177
  276MOL0     H36397   4.486   4.525   6.160 -0.4924  2.3627 -1.0482
  276MOL0     H36398   4.348   4.675   6.204 -0.6898 -0.6512  0.3141
  276MOL0     H36399   4.337   4.838   6.275  2.0860  0.2480  1.2178
  276MOL0     H36400   4.276   4.730   6.502  2.1307 -0.7386  1.4581
  276MOL0     H36401   4.300   4.578   6.434 -3.6307 -0.0218  1.4804
  276MOL0     H36402   4.111   4.634   6.260 -1.3045 -0.8144 -0.1197
  276MOL0     H36403   4.097   4.783   6.345  1.8528  0.5410  0.5055
  276MOL0     H36404   4.034   4.491   6.461  0.3572 -0.1833 -2.6617
  276MOL0     H36405   4.062   4.636   6.549 -0.2030  2.2095 -1.7867
  276MOL0     H36406   3.888   4.633   6.301 -1.5707  1.4166 -0.3635
  276MOL0     H36407   3.884   4.745   6.432  0.5968  0.3910  1.5818
  276MOL0     H36408   3.764   4.467   6.411  2.3134  0.5951 -2.9574
  276MOL0     H36409   3.670   4.605   6.459  0.6152  0.3530  1.0566
  276MOL0     H36410   3.866   4.447   6.639  0.3024  1.6683  2.1380
  276MOL0     H36411   3.822   4.612   6.671  4.2655 -0.5706 -0.4058
  276MOL0     H36412   3.571   4.522   6.667 -1.3426 -2.9424 -0.6320
  276MOL0     H36413   3.686   4.473   6.801 -0.4186  0.9969 -0.6555
  276MOL0     H36414   4.773   4.783   6.363  0.9084 -2.5708  3.8390
  276MOL0     H36415   4.947   4.647   6.273 -0.9450 -1.3037  0.9206
  276MOL0     H36416   5.102   4.391   5.965 -0.9689  0.4257 -1.1663
  276MOL0     H36417   5.285   4.258   5.846  0.4302 -1.4602  0.2611
  276MOL0     H36418   7.065   3.326   6.055  0.1347 -0.7194  0.3332
  276MOL0     H36419   7.279   3.249   5.960  0.5549 -1.5628  2.0359
  276MOL0     H36420   7.698   3.201   5.927 -2.3570  1.4923 -0.3399
  276MOL0     H36421   7.926   3.141   5.976 -0.5840  0.0819 -0.6121
  276MOL0     H36422   8.203   3.401   5.806 -0.7999 -1.3587 -3.4206
  276MOL0     H36423   8.154   3.256   5.770 -0.9731  1.1145  0.0868
  276MOL0     H36424   8.369   3.148   5.881  1.4963 -0.5874  1.7090
  276MOL0     H36425   8.418   3.308   5.801  0.9662 -0.6798  1.4228
  276MOL0     H36426   8.370   3.234   6.088 -0.3236 -1.7377 -1.7101
  276MOL0     H36427   8.366   3.395   6.041 -2.7775 -0.9903  1.9654
  276MOL0     H36428   8.599   3.281   6.128  1.5890  1.1084  0.0371
  276MOL0     H36429   8.604   3.200   5.964  3.5869  1.2674  1.3028
  276MOL0     H36430   8.763   3.572   5.907 -1.4641 -0.0799 -1.8465
  276MOL0     H36431   8.071   3.540   5.945  2.8778 -2.8870 -6.5092
  276MOL0     H36432   7.834   3.615   5.930  2.1708  0.3020 -0.6663
  277MOL0     O36433   5.693   6.396   6.320 -0.5528 -0.0360  0.3142
  277MOL0     C36434   5.751   6.300   6.269  0.0433  0.3257 -0.2766
  277MOL0     O36435   5.693   6.193   6.211  0.4493 -0.0765 -0.2917
  277MOL0     C36436   5.560   6.178   6.228 -0.3121 -1.1880 -0.7102
  277MOL0     C36437   5.491   6.179   6.106  0.8925  0.4755 -0.3474
  277MOL0     C36438   5.353   6.150   6.116  0.4945  0.3680  0.2974
  277MOL0     C36439   5.275   6.136   6.235  0.8670 -0.2701 -0.5545
  277MOL0     O36440   5.140   6.129   6.254  0.6475  0.1700 -0.6935
  277MOL0     C36441   5.054   6.131   6.137 -1.0015 -0.6242 -0.1915
  277MOL0     C36442   4.932   6.025   6.133 -0.4403 -0.7055 -1.2500
  277MOL0     C36443   4.878   5.984   6.271 -0.1656  0.3310  0.1220
  277MOL0     C36444   4.729   5.935   6.266  0.0266 -0.0778 -0.6500
  277MOL0     C36445   4.674   5.875   6.401  0.0139  0.7930 -0.2583
  277MOL0     C36446   4.551   5.784   6.364  0.1570 -0.4583 -0.4955
  277MOL0     C36447   4.480   5.709   6.483  0.8632  0.0802 -0.8258
  277MOL0     C36448   4.578   5.631   6.567 -0.1231  0.0419 -0.2598
  277MOL0     N36449   4.516   5.516   6.633 -1.5806  0.3442  0.0397
  277MOL0     C36450   4.447   5.515   6.754 -0.4720 -1.4877  0.2416
  277MOL0     C36451   4.377   5.409   6.750  0.3089  0.4486 -0.8616
  277MOL0     C36452   4.290   5.379   6.869  0.3166 -0.5636 -1.3003
  277MOL0     C36453   4.159   5.450   6.858 -0.0781  0.8372  0.2087
  277MOL0     C36454   4.038   5.381   6.932 -0.0544 -0.5842  0.0234
  277MOL0     C36455   3.908   5.439   6.887 -0.5890  0.9393 -0.0627
  277MOL0     O36456   3.799   5.389   6.965 -0.3423 -0.5109  0.0799
  277MOL0     C36457   3.676   5.416   6.913 -0.5702 -0.7198 -0.3523
  277MOL0     C36458   3.637   5.372   6.785  0.2804 -0.5321  0.0639
  277MOL0     C36459   3.506   5.389   6.746  0.2723  0.9736 -0.1105
  277MOL0     C36460   3.413   5.431   6.840  1.0458  0.6599 -0.3534
  277MOL0     C36461   3.268   5.440   6.805 -0.1296  0.4753 -0.4381
  277MOL0     O36462   3.190   5.499   6.904  0.3546 -0.0555 -0.3468
  277MOL0     C36463   3.056   5.515   6.870 -0.3480 -0.6287 -1.1456
  277MOL0     C36464   3.014   5.649   6.851 -0.6228  0.4824  0.6240
  277MOL0     C36465   2.880   5.672   6.821  0.3071 -0.6979 -0.8767
  277MOL0     C36466   2.789   5.566   6.840  0.8534  0.2756  0.6070
  277MOL0     O36467   2.663   5.604   6.846  0.1592 -0.0741 -0.4729
  277MOL0     C36468   2.578   5.564   6.733  0.2597 -0.4427  0.0117
  277MOL0     C36469   2.448   5.628   6.745 -0.2832 -1.3083 -0.5195
  277MOL0     C36470   2.335   5.569   6.676 -0.4981  0.0464 -0.0602
  277MOL0     C36471   2.214   5.649   6.700  0.5414 -1.4762  0.2029
  277MOL0     C36472   2.085   5.562   6.671 -0.5013 -0.1410 -0.4872
  277MOL0     C36473   1.949   5.640   6.685  0.2494 -0.1641 -0.4728
  277MOL0     C36474   1.838   5.592   6.591 -0.0011 -0.2842  0.5602
  277MOL0     C36475   1.715   5.689   6.571  0.1617  0.0811  0.6919
  277MOL0    Cl36476   1.571   5.593   6.487 -0.2645 -0.1464 -0.1848
  277MOL0     C36477   2.829   5.439   6.878  0.4587  0.3294  0.4013
  277MOL0     C36478   2.967   5.405   6.889  0.0593 -0.4855 -0.6887
  277MOL0     O36479   3.222   5.396   6.698  0.0376 -0.2822  0.1551
  277MOL0     C36480   3.451   5.487   6.961 -1.2955  0.1018  0.2751
  277MOL0     C36481   3.584   5.477   6.999  0.3175  0.3858  0.5545
  277MOL0     N36482   4.402   5.339   6.634  0.6187  0.5708 -0.2052
  277MOL0     N36483   4.479   5.404   6.562 -0.3986  0.0599  0.4583
  277MOL0     C36484   5.353   6.152   6.351 -0.4339 -0.4808  0.7035
  277MOL0     C36485   5.486   6.176   6.346 -0.7290  0.5031 -0.5397
  277MOL0     C36486   5.894   6.295   6.281  0.0462 -0.3962  0.9791
  277MOL0     C36487   5.974   6.232   6.179  0.4243  0.3837 -0.2847
  277MOL0     C36488   6.110   6.257   6.185 -0.1471  0.6117 -0.0628
  277MOL0     C36489   6.167   6.333   6.286  0.0814 -0.0518 -0.5144
  277MOL0     O36490   6.304   6.354   6.278 -0.4293  0.8594 -0.6169
  277MOL0     C36491   6.389   6.425   6.370 -0.2657 -0.9986  0.1098
  277MOL0     C36492   6.504   6.472   6.284  0.0667  0.5479  0.8606
  277MOL0     C36493   6.642   6.474   6.353 -0.4374  0.0347  0.5045
  277MOL0     C36494   6.747   6.518   6.251  0.0911 -0.2001 -0.4607
  277MOL0     C36495   6.879   6.486   6.303  0.5142 -0.4547 -0.2749
  277MOL0     C36496   6.982   6.451   6.339 -0.1359 -1.4547 -0.2981
  277MOL0     C36497   6.089   6.392   6.387  0.4549  0.0756 -1.3166
  277MOL0     C36498   5.955   6.377   6.390  0.4122 -0.5643  0.9663
  277MOL0     H36499   5.554   6.182   6.017  0.7242 -0.7740 -0.5284
  277MOL0     H36500   5.311   6.128   6.018  2.8787  0.4362 -0.8042
  277MOL0     H36501   5.109   6.130   6.043  1.2969  0.8888  1.0580
  277MOL0     H36502   5.009   6.230   6.143  2.6370  1.0783  1.5713
  277MOL0     H36503   4.960   5.932   6.083 -1.9259 -2.0421  0.2625
  277MOL0     H36504   4.854   6.057   6.063 -1.4209  0.2730  0.2419
  277MOL0     H36505   4.870   6.081   6.323 -2.1583  0.7807 -0.9320
  277MOL0     H36506   4.952   5.923   6.324  2.5148  2.9036 -0.4149
  277MOL0     H36507   4.666   6.009   6.216 -1.6977 -2.3167 -2.0318
  277MOL0     H36508   4.744   5.853   6.195  0.8499 -0.1943 -0.3451
  277MOL0     H36509   4.649   5.954   6.472 -0.6944 -0.2671  0.7181
  277MOL0     H36510   4.758   5.811   6.430 -0.0418 -0.0947 -1.9059
  277MOL0     H36511   4.589   5.718   6.286  1.2702  0.7644 -1.0216
  277MOL0     H36512   4.478   5.853   6.322 -0.0638  0.6154  1.5138
  277MOL0     H36513   4.415   5.778   6.538 -0.9455 -1.0457 -1.4697
  277MOL0     H36514   4.410   5.641   6.435 -0.1618  1.8449 -1.9279
  277MOL0     H36515   4.629   5.697   6.639  1.6430 -1.1444 -0.3725
  277MOL0     H36516   4.660   5.593   6.505 -0.0256 -1.2675  0.6270
  277MOL0     H36517   4.459   5.584   6.837 -0.9072 -1.5532  0.3631
  277MOL0     H36518   4.337   5.391   6.967 -1.3761  1.2974 -0.6290
  277MOL0     H36519   4.269   5.272   6.862  1.0158 -0.9472  1.4597
  277MOL0     H36520   4.147   5.459   6.750  1.6930 -0.4432 -0.1409
  277MOL0     H36521   4.169   5.553   6.896  0.2998  1.5735 -1.7735
  277MOL0     H36522   4.047   5.277   6.898 -0.3924  0.2452 -2.8553
  277MOL0     H36523   4.032   5.397   7.040 -1.8477  0.1533 -0.1548
  277MOL0     H36524   3.894   5.424   6.779  2.9969 -0.2240 -0.5219
  277MOL0     H36525   3.904   5.547   6.902  1.2216  0.9531  0.5569
  277MOL0     H36526   3.716   5.329   6.723  0.1219 -1.6063  0.5825
  277MOL0     H36527   3.478   5.355   6.647 -0.7152  1.7980 -0.1171
  277MOL0     H36528   3.078   5.737   6.852 -1.2515  1.1704 -3.2036
  277MOL0     H36529   2.843   5.772   6.799 -2.2220 -1.6869 -1.4546
  277MOL0     H36530   2.560   5.456   6.736  0.7258 -0.5795 -1.4197
  277MOL0     H36531   2.618   5.596   6.636 -0.8525  2.3718  0.3774
  277MOL0     H36532   2.455   5.734   6.720 -0.2537 -0.7404  1.6338
  277MOL0     H36533   2.417   5.636   6.850 -1.6020  0.7717 -1.0108
  277MOL0     H36534   2.325   5.467   6.715 -1.8706  1.3620  3.3482
  277MOL0     H36535   2.355   5.560   6.569  0.6125 -1.6254  0.2408
  277MOL0     H36536   2.206   5.680   6.805 -1.1756 -1.1604  0.0052
  277MOL0     H36537   2.211   5.743   6.645  0.2425 -0.8417  1.2821
  277MOL0     H36538   2.096   5.479   6.742 -0.9439  1.0295  1.0273
  277MOL0     H36539   2.098   5.523   6.570 -0.2090 -0.5513 -0.2983
  277MOL0     H36540   1.968   5.745   6.662 -0.2817  0.5736  2.0322
  277MOL0     H36541   1.926   5.629   6.792  2.9900 -0.7650  0.1307
  277MOL0     H36542   1.888   5.572   6.496 -0.9318 -1.3864  0.2818
  277MOL0     H36543   1.809   5.493   6.626  1.4442 -1.6152 -1.7701
  277MOL0     H36544   1.744   5.771   6.504  0.9946 -1.0680 -0.3971
  277MOL0     H36545   1.688   5.729   6.669  1.2124 -1.0781  1.4731
  277MOL0     H36546   2.755   5.365   6.906  0.5679  0.5840  1.3897
  277MOL0     H36547   3.006   5.317   6.938 -1.5621  1.1948  4.2006
  277MOL0     H36548   3.390   5.555   7.020 -0.8046  0.5539  0.2731
  277MOL0     H36549   3.626   5.513   7.092  3.1742  1.0787 -0.8981
  277MOL0     H36550   5.301   6.157   6.446 -0.5358  1.8997  0.5887
  277MOL0     H36551   5.548   6.163   6.435 -0.3475 -2.0645 -1.1168
  277MOL0     H36552   5.919   6.166   6.113  0.7921 -0.3473  0.1222
  277MOL0     H36553   6.172   6.219   6.104 -2.0125 -1.6616 -0.5206
  277MOL0     H36554   6.416   6.356   6.451  1.2552  1.6764  2.0500
  277MOL0     H36555   6.346   6.517   6.409 -1.1269 -0.1364 -2.6702
  277MOL0     H36556   6.509   6.426   6.184 -0.3320  3.2344 -0.4676
  277MOL0     H36557   6.485   6.572   6.245 -0.0383 -0.2349 -1.2373
  277MOL0     H36558   6.670   6.377   6.397 -0.2161  0.1591  0.6401
  277MOL0     H36559   6.638   6.546   6.435  1.4862  1.9083 -0.9422
  277MOL0     H36560   6.731   6.472   6.152 -2.9897 -0.8834  0.2312
  277MOL0     H36561   6.749   6.626   6.239 -1.5473 -0.0239  0.5845
  277MOL0     H36562   7.086   6.426   6.348  0.2787 -0.0187 -0.8178
  277MOL0     H36563   6.125   6.449   6.472 -0.8720 -2.2070  0.9292
  277MOL0     H36564   5.892   6.440   6.452  0.7424  1.2904 -0.5197
  278MOL0     O36565   4.494   1.428   1.291  0.9431 -0.3424 -0.3689
  278MOL0     C36566   4.533   1.480   1.399  0.3121  0.4435  0.3137
  278MOL0     O36567   4.665   1.510   1.437 -0.4599  0.0126  0.7261
  278MOL0     C36568   4.758   1.488   1.337 -0.0240 -0.7835 -0.3604
  278MOL0     C36569   4.740   1.549   1.209  1.3001  0.7508  0.1936
  278MOL0     C36570   4.847   1.539   1.117 -0.4924  0.2209  0.0983
  278MOL0     C36571   4.974   1.486   1.146  0.2344 -0.4507  0.3047
  278MOL0     O36572   5.062   1.470   1.040 -0.5181 -0.0090  0.8652
  278MOL0     C36573   5.194   1.484   1.084  0.6730 -0.4900  0.1589
  278MOL0     C36574   5.301   1.474   0.985  0.1535  0.4557  0.0838
  278MOL0     C36575   5.320   1.590   0.893 -0.5432 -0.2604  0.5742
  278MOL0     C36576   5.417   1.688   0.958  0.1943  0.1904 -0.6407
  278MOL0     C36577   5.415   1.814   0.871  0.4803 -0.1816  0.6904
  278MOL0     C36578   5.505   1.923   0.932 -0.9989 -0.1317  0.0454
  278MOL0     C36579   5.663   1.899   0.939  0.6064  0.2899 -0.4580
  278MOL0     C36580   5.733   1.880   0.808  0.0704 -0.6871 -0.0060
  278MOL0     N36581   5.758   2.000   0.734  0.1824  0.2263  0.0106
  278MOL0     C36582   5.662   2.050   0.654  0.1223 -0.1239  0.4943
  278MOL0     C36583   5.711   2.171   0.614 -0.1651  0.5193  0.6032
  278MOL0     C36584   5.635   2.258   0.523  0.3045  0.4026 -0.0141
  278MOL0     C36585   5.598   2.204   0.381  0.3120  0.4829  0.5917
  278MOL0     C36586   5.471   2.114   0.377  0.2835  0.1488  0.1974
  278MOL0     C36587   5.334   2.156   0.440  0.1467  0.9871  0.6921
  278MOL0     O36588   5.267   2.252   0.353 -0.1751 -1.1553  0.1317
  278MOL0     C36589   5.156   2.316   0.392  0.7572  0.1907  0.0536
  278MOL0     C36590   5.081   2.385   0.289 -1.0420 -0.1690  0.5975
  278MOL0     C36591   4.966   2.461   0.314  0.0852  1.2047 -1.1218
  278MOL0     C36592   4.919   2.465   0.448 -0.5556  0.0867 -0.4556
  278MOL0     C36593   4.788   2.527   0.487 -0.4727 -1.1274  0.4112
  278MOL0     O36594   4.750   2.514   0.620 -0.1024  0.6811  0.6799
  278MOL0     C36595   4.611   2.530   0.645  0.4366  0.2906 -0.0602
  278MOL0     C36596   4.572   2.630   0.740  0.7553 -0.4951  0.0096
  278MOL0     C36597   4.436   2.641   0.767 -0.8750 -0.0330 -1.0761
  278MOL0     C36598   4.345   2.550   0.711  0.6872 -0.0129 -0.6115
  278MOL0     O36599   4.207   2.551   0.752 -0.6117  0.4062  0.6077
  278MOL0     C36600   4.172   2.621   0.868  0.0886 -0.7364  0.2099
  278MOL0     C36601   4.032   2.562   0.914  0.5387  1.1002  0.9782
  278MOL0     C36602   3.920   2.587   0.816  0.9224 -0.6155  0.4193
  278MOL0     C36603   3.794   2.522   0.867 -0.3803 -0.2512  0.0492
  278MOL0     C36604   3.665   2.572   0.798 -0.0654  0.2554  0.6029
  278MOL0     C36605   3.535   2.532   0.855 -0.4574 -0.0609  0.2444
  278MOL0     C36606   3.416   2.588   0.778  0.2951 -0.7234 -0.6599
  278MOL0     C36607   3.407   2.525   0.639 -0.4577  0.1178 -0.5465
  278MOL0    Cl36608   3.241   2.545   0.570  0.1393 -0.0383 -0.2415
  278MOL0     C36609   4.382   2.464   0.611  0.8853 -0.6158 -0.1035
  278MOL0     C36610   4.511   2.459   0.572  0.2425  0.2077 -0.4246
  278MOL0     O36611   4.724   2.588   0.404 -0.1117 -0.6328 -0.5402
  278MOL0     C36612   4.995   2.406   0.552  0.7472  0.2794 -0.1620
  278MOL0     C36613   5.110   2.331   0.525 -0.1344 -1.5096 -0.1448
  278MOL0     N36614   5.834   2.186   0.674  0.3077 -0.4136 -0.2718
  278MOL0     N36615   5.863   2.087   0.742  0.4603  0.3962 -0.6674
  278MOL0     C36616   4.990   1.435   1.271 -0.5652  0.0431  1.2201
  278MOL0     C36617   4.886   1.421   1.359  0.9620  0.2504 -0.1439
  278MOL0     C36618   4.427   1.512   1.498 -0.3914 -0.0842  0.4148
  278MOL0     C36619   4.294   1.494   1.471 -0.1493  0.2652  0.3732
  278MOL0     C36620   4.195   1.523   1.558  0.1895  0.2356 -0.5282
  278MOL0     C36621   4.222   1.583   1.680  0.0230 -0.1785 -0.0459
  278MOL0     O36622   4.111   1.605   1.755  0.6343 -0.0156  0.1343
  278MOL0     C36623   4.128   1.604   1.893 -0.3869 -0.1674  1.1013
  278MOL0     C36624   4.006   1.665   1.956  0.6483 -0.7444  0.9107
  278MOL0     C36625   3.875   1.616   1.894  0.1621 -0.4057 -1.2790
  278MOL0     C36626   3.764   1.680   1.973 -0.4895  0.6274 -0.2383
  278MOL0     C36627   3.716   1.596   2.078 -0.0627 -0.3624  0.2554
  278MOL0     C36628   3.657   1.535   2.167 -0.0512 -0.1127 -0.1149
  278MOL0     C36629   4.353   1.620   1.705  0.4107  0.3842 -0.3021
  278MOL0     C36630   4.459   1.585   1.620  0.6165  0.0707 -0.1288
  278MOL0     H36631   4.648   1.606   1.199 -1.0264 -2.5880  0.8890
  278MOL0     H36632   4.820   1.557   1.013 -2.0912 -0.0308  0.4390
  278MOL0     H36633   5.202   1.399   1.152 -1.9530 -1.6574 -0.8361
  278MOL0     H36634   5.207   1.582   1.132  2.3705 -1.1878  1.2185
  278MOL0     H36635   5.278   1.376   0.940 -3.1239  0.5480  1.3062
  278MOL0     H36636   5.387   1.464   1.052 -1.6330  1.6282  2.7299
  278MOL0     H36637   5.218   1.623   0.871 -0.6751 -0.4361  0.9253
  278MOL0     H36638   5.366   1.549   0.802 -0.9146 -2.7700  1.4552
  278MOL0     H36639   5.380   1.717   1.057  0.8316 -0.6456 -0.1483
  278MOL0     H36640   5.514   1.641   0.976 -1.4671 -2.6196  1.9118
  278MOL0     H36641   5.308   1.836   0.865 -0.4090 -3.3734  2.5810
  278MOL0     H36642   5.451   1.805   0.768  0.3573  2.9352  0.2804
  278MOL0     H36643   5.472   1.952   1.033  0.6824  0.5521  0.4369
  278MOL0     H36644   5.489   2.011   0.869 -0.4899  2.5489  3.3320
  278MOL0     H36645   5.719   1.967   1.003  2.2645  0.2290 -1.7800
  278MOL0     H36646   5.675   1.802   0.988 -1.6377 -0.6956 -1.6930
  278MOL0     H36647   5.680   1.804   0.749  0.8099 -1.4974  0.3433
  278MOL0     H36648   5.832   1.839   0.832  2.2301  3.2335 -1.3434
  278MOL0     H36649   5.566   2.008   0.624  0.8498 -0.1127 -2.0719
  278MOL0     H36650   5.701   2.344   0.506 -0.7894  0.7564 -3.1575
  278MOL0     H36651   5.548   2.290   0.582 -0.2020 -0.5134 -0.2356
  278MOL0     H36652   5.683   2.148   0.341  1.1156  1.4491  0.8878
  278MOL0     H36653   5.576   2.290   0.316 -4.1736 -1.2909 -0.5542
  278MOL0     H36654   5.465   2.097   0.269  2.7361 -2.7343  0.3781
  278MOL0     H36655   5.506   2.016   0.409  0.0608  0.5258  1.6681
  278MOL0     H36656   5.338   2.192   0.544  2.8729 -0.7662  1.3069
  278MOL0     H36657   5.265   2.071   0.440  0.1979  0.9399 -0.3027
  278MOL0     H36658   5.114   2.379   0.186  0.5152 -0.4769  1.0852
  278MOL0     H36659   4.898   2.501   0.240 -4.0915 -0.3343  1.5134
  278MOL0     H36660   4.648   2.685   0.794  1.9041 -0.9802 -1.0687
  278MOL0     H36661   4.407   2.720   0.835 -1.1331  0.5188 -1.8238
  278MOL0     H36662   4.167   2.726   0.840 -0.2398 -0.7582  0.1809
  278MOL0     H36663   4.252   2.592   0.937  1.0655 -4.1351 -2.0441
  278MOL0     H36664   4.002   2.619   1.003 -0.8750  0.9918  0.5947
  278MOL0     H36665   4.030   2.455   0.937  1.6421  1.0402  0.8452
  278MOL0     H36666   3.947   2.553   0.715  1.1175 -3.4971  1.3647
  278MOL0     H36667   3.907   2.696   0.817  1.9495 -0.3251 -3.1212
  278MOL0     H36668   3.794   2.412   0.862 -1.5651 -0.3456  1.3793
  278MOL0     H36669   3.790   2.562   0.969  1.9725  0.0980  0.0666
  278MOL0     H36670   3.668   2.545   0.692 -1.4873 -1.7301  1.0145
  278MOL0     H36671   3.665   2.681   0.807  0.6293  0.1985  1.4202
  278MOL0     H36672   3.537   2.554   0.962 -1.8854 -2.5097  0.8588
  278MOL0     H36673   3.529   2.424   0.839  0.3124 -0.2365  1.0928
  278MOL0     H36674   3.325   2.563   0.834 -0.3367  2.2928 -0.1336
  278MOL0     H36675   3.414   2.697   0.788 -0.0304 -0.9290  2.5110
  278MOL0     H36676   3.440   2.421   0.646 -0.1487  0.0288 -2.6669
  278MOL0     H36677   3.480   2.572   0.573  1.2753 -0.2620  1.0066
  278MOL0     H36678   4.311   2.408   0.552  0.3094  2.2795 -2.4299
  278MOL0     H36679   4.544   2.402   0.486 -0.9033 -2.8417  1.0099
  278MOL0     H36680   4.972   2.421   0.657  3.3979 -3.5706  1.1845
  278MOL0     H36681   5.158   2.291   0.613 -2.2286 -2.4267  0.6438
  278MOL0     H36682   5.063   1.366   1.311  0.2420  0.5221  0.5953
  278MOL0     H36683   4.908   1.376   1.456  1.1734  1.6147  0.4708
  278MOL0     H36684   4.275   1.452   1.373  1.1563  2.1502 -0.7480
  278MOL0     H36685   4.090   1.504   1.534 -0.2805  1.4118  0.4858
  278MOL0     H36686   4.220   1.654   1.925  1.6691 -1.7015 -1.9186
  278MOL0     H36687   4.143   1.498   1.919  0.1198 -0.0196  1.4383
  278MOL0     H36688   4.008   1.625   2.057  2.6170 -0.7188  0.9182
  278MOL0     H36689   4.009   1.775   1.959  0.3646 -0.7592  1.9179
  278MOL0     H36690   3.869   1.507   1.906 -3.0343 -0.3609 -1.5231
  278MOL0     H36691   3.862   1.646   1.790  0.9370  4.0160 -0.2966
  278MOL0     H36692   3.786   1.781   2.008 -0.2516  1.8821 -3.6070
  278MOL0     H36693   3.681   1.701   1.906  0.1510  2.2638 -0.5605
  278MOL0     H36694   3.626   1.497   2.263  0.5264  1.1251  0.5795
  278MOL0     H36695   4.369   1.691   1.786 -0.8171 -0.7029  0.9319
  278MOL0     H36696   4.561   1.612   1.644  0.7550 -1.4538  1.1356
  279MOL0     O36697   3.938   5.714   0.673 -0.3078  0.0625  0.3813
  279MOL0     C36698   3.970   5.611   0.610  0.4786  0.4913 -0.2349
  279MOL0     O36699   3.874   5.514   0.580 -0.0881 -0.3084  0.7287
  279MOL0     C36700   3.744   5.530   0.614 -0.7252 -0.1444  0.3309
  279MOL0     C36701   3.640   5.482   0.525 -1.0403 -0.8515  0.2229
  279MOL0     C36702   3.504   5.505   0.557  0.1187  0.3171  1.5582
  279MOL0     C36703   3.460   5.580   0.673 -0.4679  0.9789  0.1145
  279MOL0     O36704   3.324   5.593   0.683 -0.3099  0.4333  1.1355
  279MOL0     C36705   3.277   5.731   0.702 -0.3509  0.4371 -0.2915
  279MOL0     C36706   3.261   5.781   0.847  1.0989  0.5197  0.0029
  279MOL0     C36707   3.175   5.691   0.932  0.1036 -0.7192  0.7122
  279MOL0     C36708   3.030   5.738   0.916  0.0858 -0.2989 -0.3734
  279MOL0     C36709   2.930   5.644   0.982  0.5592 -0.3910  1.0511
  279MOL0     C36710   2.794   5.712   0.996 -1.6769 -0.2035  0.6922
  279MOL0     C36711   2.691   5.623   1.063  0.0934  0.1243 -0.5938
  279MOL0     C36712   2.557   5.685   1.079  0.0643  0.1615 -0.5476
  279MOL0     N36713   2.459   5.601   1.145  0.1118 -0.4229  1.2690
  279MOL0     C36714   2.324   5.627   1.170 -0.1228  0.9967  0.3226
  279MOL0     C36715   2.281   5.503   1.198 -0.4341  0.5871  0.3584
  279MOL0     C36716   2.138   5.494   1.236  0.0801  0.5563  0.4643
  279MOL0     C36717   2.047   5.510   1.119  0.3818  0.8768  0.2199
  279MOL0     C36718   1.901   5.503   1.175 -0.1048  0.1618 -0.0082
  279MOL0     C36719   1.791   5.507   1.063 -0.2899 -0.3832  0.5072
  279MOL0     O36720   1.671   5.585   1.091  0.0829  0.8807 -0.2937
  279MOL0     C36721   1.574   5.525   1.178 -0.0402  0.8981 -0.0647
  279MOL0     C36722   1.459   5.603   1.194  0.7484  0.5007 -0.2512
  279MOL0     C36723   1.354   5.561   1.278 -0.1576  0.3215 -0.0151
  279MOL0     C36724   1.377   5.444   1.357  0.0085 -0.5765  0.0915
  279MOL0     C36725   1.270   5.384   1.442  0.2711 -1.5755  0.0017
  279MOL0     O36726   1.183   5.472   1.488  0.0459 -0.1852  0.3265
  279MOL0     C36727   1.104   5.435   1.591 -0.6703 -1.2704 -0.3890
  279MOL0     C36728   1.144   5.448   1.729 -0.2097 -0.2773 -0.3867
  279MOL0     C36729   1.059   5.416   1.832 -0.4420 -0.2984 -0.1062
  279MOL0     C36730   0.932   5.353   1.814  0.2907 -0.1957  1.4175
  279MOL0     O36731   0.836   5.317   1.907  0.2619 -0.0469 -0.2746
  279MOL0     C36732   0.871   5.325   2.045 -0.5462  0.5009 -0.4978
  279MOL0     C36733   0.802   5.204   2.116 -0.2336 -0.5810 -0.5524
  279MOL0     C36734   0.655   5.186   2.074 -0.0948  0.8633  0.7298
  279MOL0     C36735   0.587   5.085   2.165 -0.6199  0.5166  0.4776
  279MOL0     C36736   0.433   5.084   2.140  0.2185  0.1638 -0.5501
  279MOL0     C36737   0.361   4.972   2.216  0.9136  0.0989 -0.4222
  279MOL0     C36738   0.208   5.002   2.215 -0.4681  0.8958 -0.9973
  279MOL0     C36739   0.150   4.900   2.305  0.0299  0.3038 -1.0089
  279MOL0    Cl36740   0.165   4.727   2.232 -0.2351  0.0310 -0.4912
  279MOL0     C36741   0.903   5.323   1.679  0.5349 -0.8414 -0.2547
  279MOL0     C36742   0.985   5.367   1.571  1.5474 -0.0789 -0.3488
  279MOL0     O36743   1.271   5.263   1.480  0.2231 -0.0828  0.6251
  279MOL0     C36744   1.493   5.370   1.341 -0.5203  0.0654 -0.2025
  279MOL0     C36745   1.583   5.408   1.252 -1.4297 -0.6877 -0.3892
  279MOL0     N36746   2.379   5.414   1.208 -1.0068  0.7962  0.0555
  279MOL0     N36747   2.490   5.480   1.193  0.1794  0.0016  0.0439
  279MOL0     C36748   3.561   5.618   0.765 -0.4433 -0.1637  0.3698
  279MOL0     C36749   3.691   5.586   0.737 -0.3431  0.0942  0.2099
  279MOL0     C36750   4.106   5.589   0.560 -0.1144 -0.3215  0.3783
  279MOL0     C36751   4.199   5.702   0.555  0.7243  0.1654  1.1600
  279MOL0     C36752   4.328   5.683   0.513  0.0349 -0.5108  0.0208
  279MOL0     C36753   4.367   5.560   0.466 -0.4673 -0.7430 -0.1784
  279MOL0     O36754   4.495   5.523   0.425 -0.7442 -0.0603  0.4018
  279MOL0     C36755   4.609   5.610   0.431 -1.1311  0.3002  0.4032
  279MOL0     C36756   4.750   5.546   0.431  0.4596  0.2424  0.9842
  279MOL0     C36757   4.779   5.452   0.539 -0.3167 -0.0649  0.1601
  279MOL0     C36758   4.904   5.367   0.507  0.0820 -0.4926 -0.3930
  279MOL0     C36759   4.956   5.295   0.628 -0.0325 -0.8578  0.6459
  279MOL0     C36760   4.996   5.246   0.736 -0.1993 -0.3075 -1.0009
  279MOL0     C36761   4.275   5.456   0.447  0.3160 -0.1525 -0.4216
  279MOL0     C36762   4.144   5.472   0.499  0.2448  0.8909 -0.1521
  279MOL0     H36763   3.678   5.450   0.429  1.4001  1.7016  0.1936
  279MOL0     H36764   3.439   5.486   0.472  0.9143 -0.4272  1.1064
  279MOL0     H36765   3.192   5.755   0.637 -1.3466  2.4947  1.6315
  279MOL0     H36766   3.355   5.792   0.656  0.2300  1.6790  2.1753
  279MOL0     H36767   3.229   5.886   0.852 -0.2269  0.0694  2.5107
  279MOL0     H36768   3.360   5.785   0.895  0.4514 -0.8136  1.5323
  279MOL0     H36769   3.204   5.699   1.037  0.2160 -1.6008  0.7562
  279MOL0     H36770   3.180   5.588   0.896 -0.2441 -0.5433  0.1430
  279MOL0     H36771   3.022   5.832   0.971 -0.5766 -1.2252  1.1567
  279MOL0     H36772   3.007   5.754   0.810  1.8104 -0.5901 -0.8136
  279MOL0     H36773   2.960   5.617   1.083  0.2597  0.1986  1.3046
  279MOL0     H36774   2.922   5.556   0.919 -2.1978  0.5639 -0.0966
  279MOL0     H36775   2.756   5.728   0.894 -2.5469 -1.2680  0.8293
  279MOL0     H36776   2.805   5.807   1.049  0.8287 -0.7353  1.2628
  279MOL0     H36777   2.657   5.538   1.003 -1.5049 -0.7206  1.4081
  279MOL0     H36778   2.738   5.582   1.153  1.0007 -0.4360 -1.3087
  279MOL0     H36779   2.515   5.708   0.980 -0.4673 -0.1797 -0.4045
  279MOL0     H36780   2.565   5.770   1.147  1.0858  0.1214 -0.5963
  279MOL0     H36781   2.268   5.717   1.148  3.8556  3.7388  0.4356
  279MOL0     H36782   2.112   5.568   1.312 -0.8891  0.8587 -0.1479
  279MOL0     H36783   2.119   5.397   1.283 -2.1350  0.5395 -0.3516
  279MOL0     H36784   2.061   5.438   1.038 -1.6337  0.8183 -0.1204
  279MOL0     H36785   2.050   5.609   1.072 -2.0896  1.1770  0.5801
  279MOL0     H36786   1.887   5.416   1.240 -1.6823 -1.3116 -2.1622
  279MOL0     H36787   1.891   5.595   1.233  3.9117 -0.4187  2.0177
  279MOL0     H36788   1.762   5.409   1.025  1.4094 -1.1661  1.1185
  279MOL0     H36789   1.843   5.566   0.987  0.7917  0.1316  1.5993
  279MOL0     H36790   1.451   5.685   1.123  1.3155  1.2357  0.5170
  279MOL0     H36791   1.267   5.624   1.286  1.3667  2.7988 -1.6479
  279MOL0     H36792   1.244   5.483   1.750 -0.0650  0.0620 -1.5557
  279MOL0     H36793   1.092   5.450   1.930  1.0751  1.1931 -1.0931
  279MOL0     H36794   0.841   5.419   2.092  0.6361  1.5867 -1.8549
  279MOL0     H36795   0.980   5.319   2.049 -0.5363  0.0415 -1.2755
  279MOL0     H36796   0.816   5.219   2.223  0.1510 -1.4661 -0.4759
  279MOL0     H36797   0.858   5.112   2.096 -1.2009 -1.2579 -0.2173
  279MOL0     H36798   0.642   5.143   1.974  0.6018 -2.3905  1.9138
  279MOL0     H36799   0.606   5.283   2.067 -0.1357  0.7396 -2.1942
  279MOL0     H36800   0.630   4.986   2.145 -0.9010  0.3739  0.5691
  279MOL0     H36801   0.602   5.112   2.270  4.8332  0.7001 -0.0736
  279MOL0     H36802   0.413   5.070   2.033 -2.4727  1.7016 -0.3220
  279MOL0     H36803   0.393   5.184   2.158  3.0171  1.1289  0.8873
  279MOL0     H36804   0.403   4.991   2.316 -0.7728  1.2098  0.1204
  279MOL0     H36805   0.380   4.873   2.174  1.8112 -1.4502  3.2615
  279MOL0     H36806   0.192   5.097   2.266  1.9426 -0.1959  2.1205
  279MOL0     H36807   0.169   4.991   2.113  0.9113  2.0143 -1.6790
  279MOL0     H36808   0.044   4.923   2.316  0.1706  0.4610  0.2451
  279MOL0     H36809   0.190   4.911   2.407 -1.1239  0.7396 -0.5884
  279MOL0     H36810   0.809   5.277   1.651 -0.1686 -0.4237  1.3424
  279MOL0     H36811   0.947   5.345   1.472 -2.1799  0.0607  0.8912
  279MOL0     H36812   1.531   5.288   1.401 -2.2630  2.1857  4.2524
  279MOL0     H36813   1.678   5.356   1.246  0.2583  2.2239 -1.3444
  279MOL0     H36814   3.549   5.657   0.866 -0.4869  2.8196 -0.7144
  279MOL0     H36815   3.775   5.613   0.799  0.8277  1.4080 -1.8176
  279MOL0     H36816   4.167   5.799   0.591  1.0841 -0.1580  2.3948
  279MOL0     H36817   4.390   5.771   0.528  0.0120 -0.2570 -1.2460
  279MOL0     H36818   4.600   5.663   0.526  0.8015  1.0031  0.2260
  279MOL0     H36819   4.604   5.681   0.348 -1.9775 -3.8671 -3.5095
  279MOL0     H36820   4.758   5.499   0.332  1.3170  0.2009  1.0672
  279MOL0     H36821   4.827   5.624   0.441  1.0408 -0.3295  1.0360
  279MOL0     H36822   4.696   5.381   0.542 -0.3431 -0.0968 -0.9629
  279MOL0     H36823   4.784   5.500   0.637 -0.2193 -2.1701  1.2383
  279MOL0     H36824   4.890   5.284   0.437  2.7866 -1.0971 -0.3149
  279MOL0     H36825   4.976   5.438   0.466 -2.0823  0.5972 -2.5589
  279MOL0     H36826   5.042   5.210   0.827  2.1897  3.1386 -0.6392
  279MOL0     H36827   4.299   5.359   0.405  0.0692 -0.8386  0.9402
  279MOL0     H36828   4.074   5.389   0.490  0.3971  0.9174 -2.1095
  280MOL0     O36829   3.168   5.600   1.512  0.0369  0.2489 -0.3446
  280MOL0     C36830   3.201   5.530   1.414  0.3692  0.4068  0.1256
  280MOL0     O36831   3.130   5.425   1.362  0.4551  0.4330  0.1523
  280MOL0     C36832   3.019   5.380   1.428 -0.1283  0.0479  0.2438
  280MOL0     C36833   3.023   5.342   1.561  0.0654 -0.5177  0.1001
  280MOL0     C36834   2.911   5.303   1.636  0.6153 -0.8281  0.2999
  280MOL0     C36835   2.798   5.276   1.564  0.2832 -1.1370  0.4833
  280MOL0     O36836   2.700   5.219   1.634 -0.0597 -0.0225  0.5510
  280MOL0     C36837   2.585   5.170   1.564  0.3082 -0.3710 -0.5592
  280MOL0     C36838   2.528   5.044   1.629  1.1115 -0.1136  0.7791
  280MOL0     C36839   2.624   4.933   1.683  1.1709  0.2285 -1.2346
  280MOL0     C36840   2.538   4.813   1.728  0.6068 -0.9152 -0.0156
  280MOL0     C36841   2.501   4.809   1.882 -0.3033 -0.1130  0.6819
  280MOL0     C36842   2.607   4.768   1.978  0.4684 -0.8981  0.0552
  280MOL0     C36843   2.655   4.627   1.944 -0.2602 -0.2531 -0.6546
  280MOL0     C36844   2.716   4.561   2.074 -0.8589 -0.1604 -0.1640
  280MOL0     N36845   2.605   4.518   2.162  0.5540 -0.2493 -0.2482
  280MOL0     C36846   2.555   4.390   2.190 -0.3740 -0.0261 -0.3446
  280MOL0     C36847   2.472   4.416   2.300 -0.2507 -0.7750  1.0898
  280MOL0     C36848   2.400   4.304   2.369  0.3439 -0.4177 -0.0880
  280MOL0     C36849   2.300   4.340   2.478  0.2085  0.6502 -0.1442
  280MOL0     C36850   2.198   4.232   2.518 -1.0072  0.0978 -0.3232
  280MOL0     C36851   2.278   4.115   2.589 -0.4293 -0.6318 -0.3805
  280MOL0     O36852   2.297   4.008   2.494 -0.2737  0.3009 -0.0273
  280MOL0     C36853   2.202   3.916   2.469  1.0553  0.0010 -0.3721
  280MOL0     C36854   2.223   3.811   2.378  0.2592  0.5544  1.6213
  280MOL0     C36855   2.124   3.737   2.314  0.0568  0.3820 -0.1689
  280MOL0     C36856   1.990   3.751   2.360 -0.2641 -0.5528  0.1226
  280MOL0     C36857   1.882   3.657   2.313 -0.0804  0.3206  0.4856
  280MOL0     O36858   1.761   3.660   2.386 -0.4192 -0.3436  0.0297
  280MOL0     C36859   1.664   3.567   2.356  0.4648 -0.3020 -0.4992
  280MOL0     C36860   1.557   3.584   2.444  0.6388 -0.6974 -0.4931
  280MOL0     C36861   1.439   3.499   2.443 -0.7482 -0.0741  0.2449
  280MOL0     C36862   1.438   3.391   2.356  0.4668 -0.7822  0.3517
  280MOL0     O36863   1.324   3.316   2.346 -0.4491  0.9887  0.2965
  280MOL0     C36864   1.226   3.333   2.449 -0.3356 -0.8859 -0.0401
  280MOL0     C36865   1.126   3.219   2.433 -0.1805  0.3077  0.2171
  280MOL0     C36866   1.193   3.073   2.412  0.0997 -0.6402 -0.9133
  280MOL0     C36867   1.095   2.967   2.450  0.9906  0.1964 -0.3464
  280MOL0     C36868   1.142   2.832   2.404 -0.1600 -0.1003  0.0378
  280MOL0     C36869   1.260   2.779   2.484 -0.2732 -0.1923  0.7995
  280MOL0     C36870   1.223   2.740   2.624 -0.6203  0.1249 -0.8370
  280MOL0     C36871   1.329   2.653   2.681 -0.4335 -0.4233  0.0436
  280MOL0    Cl36872   1.485   2.730   2.701  0.5024 -0.2532 -0.0058
  280MOL0     C36873   1.546   3.375   2.262  0.9306  0.7462 -0.5333
  280MOL0     C36874   1.663   3.455   2.262 -0.4536  0.0313 -0.1924
  280MOL0     O36875   1.909   3.596   2.208  0.6666  0.5154  0.2615
  280MOL0     C36876   1.956   3.846   2.461 -0.4206 -0.2312 -0.9016
  280MOL0     C36877   2.063   3.925   2.508 -0.6246  0.4107 -0.7936
  280MOL0     N36878   2.455   4.552   2.325 -0.1221  0.1409  0.3095
  280MOL0     N36879   2.534   4.610   2.240  0.7067  1.0934 -0.3607
  280MOL0     C36880   2.793   5.312   1.425  0.2041  0.6156 -0.3907
  280MOL0     C36881   2.899   5.359   1.359 -0.7048  0.2786  0.5953
  280MOL0     C36882   3.325   5.565   1.350  0.7603  0.7162 -0.2836
  280MOL0     C36883   3.350   5.519   1.214  0.3383  0.8866  0.9167
  280MOL0     C36884   3.472   5.540   1.147  0.0110 -0.0230  0.2224
  280MOL0     C36885   3.571   5.614   1.207  0.5732  0.3489  0.0563
  280MOL0     O36886   3.688   5.616   1.132 -0.6496  0.5038 -0.7272
  280MOL0     C36887   3.807   5.669   1.189 -0.1453  0.3852 -0.0103
  280MOL0     C36888   3.895   5.737   1.081 -0.1383 -1.1353 -0.2624
  280MOL0     C36889   4.018   5.818   1.144 -0.4239  1.2925 -0.0137
  280MOL0     C36890   4.119   5.845   1.029 -0.7925  0.0284  0.4061
  280MOL0     C36891   4.214   5.963   1.053 -0.3486  0.7375 -0.3073
  280MOL0     C36892   4.279   6.058   1.101 -0.6707 -0.1075  0.1913
  280MOL0     C36893   3.533   5.685   1.329 -0.8219 -0.9312  1.0987
  280MOL0     C36894   3.419   5.650   1.402 -0.0252  0.3133 -0.2510
  280MOL0     H36895   3.117   5.347   1.615  1.0620  0.8034 -1.6399
  280MOL0     H36896   2.913   5.295   1.744  0.0376  1.3901  0.5320
  280MOL0     H36897   2.606   5.139   1.462 -0.5660 -0.8342 -0.6111
  280MOL0     H36898   2.511   5.249   1.577  0.4468 -0.0500 -1.6968
  280MOL0     H36899   2.457   4.999   1.560 -0.0065 -1.4262  2.6838
  280MOL0     H36900   2.481   5.081   1.721  2.4105  1.6832  0.7839
  280MOL0     H36901   2.682   4.966   1.769  1.1147  3.9260 -2.4076
  280MOL0     H36902   2.690   4.897   1.603 -1.5942 -3.4644 -2.1273
  280MOL0     H36903   2.444   4.814   1.672 -1.1529 -0.8197  2.7782
  280MOL0     H36904   2.588   4.717   1.720  0.8482 -0.9021  1.1825
  280MOL0     H36905   2.408   4.752   1.898  0.0253 -0.7151  0.4874
  280MOL0     H36906   2.456   4.903   1.916 -1.1163 -0.6542  1.1479
  280MOL0     H36907   2.564   4.778   2.078 -0.6450 -1.5675 -0.3415
  280MOL0     H36908   2.696   4.831   1.980  0.9371 -1.4832 -1.3794
  280MOL0     H36909   2.572   4.565   1.907 -0.3838 -0.5300  0.0568
  280MOL0     H36910   2.733   4.636   1.869  0.5652 -1.2425  0.0621
  280MOL0     H36911   2.775   4.638   2.124 -0.4579 -0.3195 -0.3881
  280MOL0     H36912   2.786   4.479   2.051 -0.6546 -0.1675  0.4538
  280MOL0     H36913   2.580   4.293   2.148  0.6357 -0.4042  1.0382
  280MOL0     H36914   2.477   4.237   2.408 -0.3877 -1.9345 -1.1536
  280MOL0     H36915   2.350   4.252   2.287 -1.2723  0.6455  0.1610
  280MOL0     H36916   2.240   4.422   2.438  0.4675  0.2989 -1.2868
  280MOL0     H36917   2.363   4.369   2.563 -0.9732  1.7326  0.4023
  280MOL0     H36918   2.114   4.273   2.575 -1.7286 -0.7798 -0.7214
  280MOL0     H36919   2.149   4.197   2.427 -0.8904  2.4209 -1.3492
  280MOL0     H36920   2.229   4.080   2.680  0.4287  0.4010  0.5103
  280MOL0     H36921   2.374   4.156   2.623 -0.3562 -1.8252  0.9478
  280MOL0     H36922   2.328   3.802   2.350 -0.5478  1.1181 -2.2842
  280MOL0     H36923   2.161   3.667   2.240 -1.2473 -3.4096  2.4581
  280MOL0     H36924   1.569   3.665   2.515  3.8321 -1.6572  0.2400
  280MOL0     H36925   1.354   3.532   2.503 -0.5441  0.6435  0.1494
  280MOL0     H36926   1.184   3.432   2.431  2.7761  0.7936  1.1912
  280MOL0     H36927   1.282   3.314   2.541 -2.6030 -4.9562  0.7546
  280MOL0     H36928   1.067   3.239   2.343  0.7759 -1.0085 -0.7505
  280MOL0     H36929   1.056   3.224   2.517 -1.2468  2.8964 -0.7380
  280MOL0     H36930   1.274   3.067   2.486 -1.1103 -1.8032  0.3651
  280MOL0     H36931   1.235   3.059   2.312  4.4037 -1.4302  0.7517
  280MOL0     H36932   1.074   2.964   2.557 -0.1923  0.8912 -0.5374
  280MOL0     H36933   1.003   2.990   2.395  0.6845 -0.7127 -0.2369
  280MOL0     H36934   1.177   2.830   2.300 -0.9160  0.3067 -0.2343
  280MOL0     H36935   1.060   2.760   2.420 -0.0867  0.2410  2.1105
  280MOL0     H36936   1.350   2.838   2.467  0.6647 -1.4968  1.0745
  280MOL0     H36937   1.293   2.686   2.436 -0.8166  0.4580 -0.8639
  280MOL0     H36938   1.206   2.826   2.690 -0.5831 -1.1420  0.9240
  280MOL0     H36939   1.129   2.685   2.627 -2.3110  2.8601  1.2810
  280MOL0     H36940   1.333   2.559   2.626  1.2061 -1.0821  1.1867
  280MOL0     H36941   1.287   2.630   2.779 -2.2719 -1.6677 -0.9791
  280MOL0     H36942   1.535   3.299   2.184  1.9865 -0.2662  0.2792
  280MOL0     H36943   1.738   3.443   2.185  2.3698 -0.5978  2.4539
  280MOL0     H36944   1.854   3.864   2.493 -0.1610 -1.0178  0.4518
  280MOL0     H36945   2.047   4.019   2.559  3.6441  0.2338  1.2839
  280MOL0     H36946   2.697   5.305   1.374 -0.0981 -0.5798  0.3038
  280MOL0     H36947   2.899   5.401   1.258  2.1622  1.2081  0.9024
  280MOL0     H36948   3.278   5.463   1.155  0.3375  2.6790 -0.9112
  280MOL0     H36949   3.483   5.515   1.042  0.9535 -0.4614  0.4192
  280MOL0     H36950   3.855   5.588   1.244  2.5833  1.1169 -1.1263
  280MOL0     H36951   3.791   5.737   1.273 -0.5024 -2.4803  2.3917
  280MOL0     H36952   3.935   5.657   1.017  0.0604  0.2019 -1.8983
  280MOL0     H36953   3.847   5.815   1.021  3.0162  1.4852  0.3101
  280MOL0     H36954   4.064   5.753   1.219  0.1514  0.8468 -0.7382
  280MOL0     H36955   3.977   5.903   1.198 -1.3952 -0.4482  2.1312
  280MOL0     H36956   4.182   5.757   1.015  0.4474  1.0175 -0.4139
  280MOL0     H36957   4.072   5.849   0.930 -4.0166 -2.7674  1.6238
  280MOL0     H36958   4.328   6.144   1.142  0.4994 -1.2398  1.2762
  280MOL0     H36959   3.596   5.764   1.368  0.8462 -2.7010  2.2026
  280MOL0     H36960   3.404   5.687   1.503 -0.9738 -0.9225  0.0903
  281MOL0     O36961   3.713   1.521   9.468 -0.3003 -0.1421  0.3451
  281MOL0     C36962   3.789   1.616   9.472  0.5075  0.5967  0.3663
  281MOL0     O36963   3.822   1.687   9.362  0.5571  1.0548  0.7462
  281MOL0     C36964   3.745   1.674   9.251  1.0488  0.5119  1.0737
  281MOL0     C36965   3.768   1.574   9.154  1.0446  0.0073 -0.0217
  281MOL0     C36966   3.705   1.585   9.034 -0.4068 -0.1229  0.8310
  281MOL0     C36967   3.593   1.663   9.018  0.2037 -1.1183 -0.5147
  281MOL0     O36968   3.503   1.658   8.913 -0.0861 -0.2449  0.0844
  281MOL0     C36969   3.410   1.561   8.941 -0.0743 -0.3509 -0.6109
  281MOL0     C36970   3.292   1.576   8.839 -0.4359 -0.5742 -0.6752
  281MOL0     C36971   3.204   1.706   8.878  0.1539 -0.4852  0.9485
  281MOL0     C36972   3.132   1.688   9.016  0.3936  0.1735 -0.2592
  281MOL0     C36973   3.028   1.799   9.051  0.5071  0.5529  0.4267
  281MOL0     C36974   2.911   1.829   8.955 -0.8140 -0.2670 -0.2599
  281MOL0     C36975   2.839   1.704   8.907  0.5493 -0.4148  0.9039
  281MOL0     C36976   2.797   1.610   9.023 -0.0203 -0.5986 -0.9801
  281MOL0     N36977   2.692   1.511   8.994 -0.3842 -0.7682 -0.0618
  281MOL0     C36978   2.562   1.543   8.998  0.6726 -0.7805  0.1129
  281MOL0     C36979   2.500   1.420   8.975  1.2601  0.7316  0.9175
  281MOL0     C36980   2.361   1.365   8.994 -0.5436  0.2720 -0.0748
  281MOL0     C36981   2.255   1.475   8.986  0.2088  0.6156 -0.3215
  281MOL0     C36982   2.120   1.428   9.045 -0.4712  0.8042 -0.2947
  281MOL0     C36983   2.063   1.284   9.043 -0.2457  0.3277 -0.0201
  281MOL0     O36984   2.055   1.238   8.897  0.0468  0.3832 -0.1097
  281MOL0     C36985   1.937   1.259   8.829 -0.2719  0.1784 -0.5395
  281MOL0     C36986   1.928   1.369   8.743  0.4856 -0.2890  0.8450
  281MOL0     C36987   1.812   1.381   8.680 -0.1551  0.3862 -0.2615
  281MOL0     C36988   1.687   1.299   8.706 -0.2415 -0.2329  0.5444
  281MOL0     C36989   1.565   1.338   8.643  0.0117  0.0582  0.9920
  281MOL0     O36990   1.570   1.444   8.563  0.3552  0.4040  0.8391
  281MOL0     C36991   1.455   1.502   8.520  0.2775 -0.1973 -0.5777
  281MOL0     C36992   1.372   1.441   8.423  1.1577  0.7410 -0.5174
  281MOL0     C36993   1.265   1.515   8.378 -0.1968 -0.1037  0.6095
  281MOL0     C36994   1.244   1.646   8.424 -0.3865 -0.2996  0.5762
  281MOL0     O36995   1.153   1.733   8.386  0.7491  0.3358 -0.3556
  281MOL0     C36996   1.073   1.689   8.277 -0.1198  0.0567  0.7814
  281MOL0     C36997   0.968   1.793   8.244  0.6551 -0.2168  0.0987
  281MOL0     C36998   0.856   1.811   8.364 -0.2965 -0.8640 -0.4912
  281MOL0     C36999   0.737   1.876   8.311 -0.1898 -0.4678  0.1987
  281MOL0     C37000   0.637   1.923   8.418  0.0984  1.6503  0.4340
  281MOL0     C37001   0.582   1.812   8.510 -0.2444  1.0058  0.4750
  281MOL0     C37002   0.451   1.752   8.442 -0.0191  0.6203 -0.5864
  281MOL0     C37003   0.319   1.800   8.494 -0.0869  0.4648  0.2200
  281MOL0    Cl37004   0.320   1.973   8.476  0.0085 -0.3039  0.3110
  281MOL0     C37005   1.327   1.697   8.518  0.4367  0.4019  0.5292
  281MOL0     C37006   1.424   1.622   8.570  0.6756 -0.5078 -1.1355
  281MOL0     O37007   1.468   1.267   8.664  0.8615 -0.7999 -0.5758
  281MOL0     C37008   1.699   1.204   8.793 -0.2791  0.4467 -0.4359
  281MOL0     C37009   1.831   1.181   8.847 -0.3401 -1.2276  0.2293
  281MOL0     N37010   2.597   1.330   8.941  0.7194  0.1470  0.1366
  281MOL0     N37011   2.711   1.384   8.956  0.1871  0.4015  0.0909
  281MOL0     C37012   3.564   1.766   9.111 -0.3892 -1.0605 -0.8688
  281MOL0     C37013   3.636   1.767   9.234 -0.3651  0.4732  0.4438
  281MOL0     C37014   3.855   1.643   9.611  1.0804 -1.1581 -0.0902
  281MOL0     C37015   3.800   1.586   9.721  0.2834 -1.0815  0.4246
  281MOL0     C37016   3.849   1.626   9.838  0.6234 -0.5018 -0.4872
  281MOL0     C37017   3.949   1.714   9.850 -0.1228 -0.3112 -0.4363
  281MOL0     O37018   3.994   1.745   9.980 -0.2957 -0.3263 -0.4416
  281MOL0     C37019   4.103   1.836   9.991 -0.2818 -0.0106  0.2616
  281MOL0     C37020   4.147   1.844  10.137  0.8013  0.4891  0.3671
  281MOL0     C37021   4.042   1.923  10.224 -0.1911  0.5023  0.2695
  281MOL0     C37022   4.069   1.908  10.374  0.8389  0.2973  0.1533
  281MOL0     C37023   4.055   1.764  10.416 -0.0667 -0.8130 -0.4606
  281MOL0     C37024   4.039   1.649  10.443 -0.4085 -0.0200 -0.2175
  281MOL0     C37025   4.003   1.775   9.738 -0.3059  0.2509  0.4720
  281MOL0     C37026   3.960   1.727   9.613 -0.2296  0.2863 -0.6972
  281MOL0     H37027   3.852   1.512   9.180  0.5552  0.7012  3.7316
  281MOL0     H37028   3.727   1.520   8.950 -3.3268  0.8674 -0.8523
  281MOL0     H37029   3.365   1.568   9.041  0.3607 -1.6066 -0.3044
  281MOL0     H37030   3.456   1.462   8.929 -1.1857 -0.8980 -0.4528
  281MOL0     H37031   3.217   1.498   8.856 -1.3288 -0.0157 -1.8906
  281MOL0     H37032   3.337   1.573   8.740  1.2208  0.2123  0.0055
  281MOL0     H37033   3.131   1.723   8.798 -1.9781  1.7804  3.1909
  281MOL0     H37034   3.272   1.791   8.893 -1.7764  0.9424  2.1636
  281MOL0     H37035   3.087   1.590   9.035 -2.1813  1.3567  0.1392
  281MOL0     H37036   3.213   1.699   9.089 -1.9238 -1.4769  2.8074
  281MOL0     H37037   3.078   1.896   9.066  0.6857  0.5003  0.1717
  281MOL0     H37038   2.990   1.757   9.145  3.0226  0.0765  1.3246
  281MOL0     H37039   2.936   1.892   8.870 -5.3569 -0.4770 -2.0481
  281MOL0     H37040   2.847   1.889   9.022  0.2478 -1.4876  1.9541
  281MOL0     H37041   2.752   1.739   8.851  1.1264  0.0899  0.3020
  281MOL0     H37042   2.894   1.650   8.829 -0.9064  0.6785 -0.9594
  281MOL0     H37043   2.758   1.683   9.095  2.0613  1.3294 -1.6952
  281MOL0     H37044   2.884   1.566   9.072 -0.8347  0.4389  1.5604
  281MOL0     H37045   2.515   1.638   9.025  1.3768 -0.6627  0.9784
  281MOL0     H37046   2.361   1.311   9.089 -0.3769  0.9672  0.3285
  281MOL0     H37047   2.347   1.281   8.926 -2.7132  1.0386 -0.6382
  281MOL0     H37048   2.234   1.498   8.881 -2.3137 -1.7822 -0.4640
  281MOL0     H37049   2.287   1.568   9.034  2.5055 -0.6920  0.8443
  281MOL0     H37050   2.118   1.445   9.153 -2.1620 -0.1558 -0.1502
  281MOL0     H37051   2.051   1.495   8.993  0.2364  1.1459 -0.8223
  281MOL0     H37052   1.963   1.286   9.086 -0.7678  4.2364 -1.0032
  281MOL0     H37053   2.129   1.224   9.106 -1.6913 -1.3975 -0.0765
  281MOL0     H37054   2.009   1.438   8.723  1.7177 -1.2441  2.3637
  281MOL0     H37055   1.816   1.466   8.612 -4.7074  0.7673 -0.3502
  281MOL0     H37056   1.401   1.340   8.395  0.9749  1.0535 -1.9311
  281MOL0     H37057   1.208   1.475   8.295 -0.8211  0.1061  0.9363
  281MOL0     H37058   1.028   1.591   8.297 -0.8326  0.3319  0.5454
  281MOL0     H37059   1.137   1.673   8.190  2.0755 -1.1521  2.4954
  281MOL0     H37060   0.922   1.773   8.147 -1.7647 -0.6125  1.2518
  281MOL0     H37061   1.017   1.891   8.237 -1.5515  1.1491  2.2909
  281MOL0     H37062   0.900   1.867   8.447  1.4655  0.6971 -2.3544
  281MOL0     H37063   0.823   1.717   8.407  0.2323 -1.4853 -1.4050
  281MOL0     H37064   0.770   1.965   8.256 -0.4078 -0.6398 -0.2190
  281MOL0     H37065   0.695   1.807   8.237 -0.9186  0.9730 -0.7789
  281MOL0     H37066   0.552   1.980   8.380 -2.1442  0.3132  3.0837
  281MOL0     H37067   0.686   1.990   8.489 -1.0413  2.4484  0.4871
  281MOL0     H37068   0.547   1.847   8.608 -0.8904 -2.6388  1.7168
  281MOL0     H37069   0.657   1.733   8.524 -1.8532 -0.5645  0.5633
  281MOL0     H37070   0.457   1.770   8.334 -0.4589 -1.5794 -1.0174
  281MOL0     H37071   0.444   1.643   8.447 -1.7291  0.6722  4.5297
  281MOL0     H37072   0.300   1.774   8.598 -1.5702 -0.2632 -0.2079
  281MOL0     H37073   0.243   1.758   8.427 -0.0505 -2.0715  1.6426
  281MOL0     H37074   1.307   1.796   8.558 -3.0274  0.7576 -1.6324
  281MOL0     H37075   1.485   1.665   8.649 -1.9541  1.1698  0.1324
  281MOL0     H37076   1.619   1.133   8.811  1.1249 -1.4321 -1.2508
  281MOL0     H37077   1.837   1.101   8.920 -1.0719 -1.5372 -0.0395
  281MOL0     H37078   3.477   1.824   9.083  1.0125  0.5481 -2.0690
  281MOL0     H37079   3.632   1.845   9.310 -1.3882  1.0265 -0.1556
  281MOL0     H37080   3.714   1.520   9.726 -0.3273 -0.6442 -2.5308
  281MOL0     H37081   3.809   1.578   9.927 -1.1479 -0.0251 -0.9835
  281MOL0     H37082   4.078   1.936   9.955  0.4539 -1.1633 -3.9429
  281MOL0     H37083   4.192   1.799   9.940 -0.7807  1.7922 -2.0729
  281MOL0     H37084   4.160   1.743  10.176  0.1863  0.0539 -0.5069
  281MOL0     H37085   4.241   1.900  10.135  1.4420 -0.5367  0.7369
  281MOL0     H37086   3.948   1.870  10.206  0.9588 -1.3226 -0.6229
  281MOL0     H37087   4.038   2.030  10.203  2.8010  0.7503  0.4818
  281MOL0     H37088   4.167   1.950  10.400  0.8529  1.5903 -1.8177
  281MOL0     H37089   3.985   1.959  10.421 -1.6791 -1.8700 -1.7300
  281MOL0     H37090   4.024   1.546  10.469 -1.6165 -1.3013 -5.0272
  281MOL0     H37091   4.084   1.846   9.754  0.3888 -1.2454  5.0608
  281MOL0     H37092   4.004   1.761   9.519 -1.3951  1.6230 -0.7821
  282MOL0     O37093   5.093  10.039   9.143 -0.3115  0.2055  0.5388
  282MOL0     C37094   5.018  10.127   9.106 -0.1328 -0.2533  0.3145
  282MOL0     O37095   4.884  10.143   9.130 -0.1502  0.3711 -0.2687
  282MOL0     C37096   4.811  10.063   9.211 -0.8444  0.1007 -0.3662
  282MOL0     C37097   4.679  10.042   9.166 -0.2937  0.7418  0.8285
  282MOL0     C37098   4.583   9.996   9.248 -0.4839  0.4984 -1.1692
  282MOL0     C37099   4.615   9.960   9.378  0.6188 -0.9085  1.1131
  282MOL0     O37100   4.522   9.905   9.465 -0.1683 -0.9447 -0.7503
  282MOL0     C37101   4.461   9.999   9.552  0.0108 -0.0172  0.0629
  282MOL0     C37102   4.376   9.925   9.659 -1.0799  0.5296 -0.5173
  282MOL0     C37103   4.291  10.023   9.741 -0.1962  0.1282  0.1483
  282MOL0     C37104   4.225   9.942   9.851  1.2115 -0.2878 -0.3498
  282MOL0     C37105   4.107  10.016   9.913 -1.0844 -0.0294 -0.2831
  282MOL0     C37106   4.145  10.155   9.970  0.1063 -0.6039 -0.4063
  282MOL0     C37107   4.034  10.218  10.054  0.2347 -0.1850  0.9401
  282MOL0     C37108   4.042  10.144  10.189 -0.3360  0.3764  0.3782
  282MOL0     N37109   3.933  10.193  10.268 -0.7108 -0.3865  0.1788
  282MOL0     C37110   3.797  10.177  10.256  0.1542 -0.2995 -1.1690
  282MOL0     C37111   3.728  10.256  10.346 -0.9969  0.1048  0.4898
  282MOL0     C37112   3.583  10.274  10.368  1.3989  0.4052 -0.3894
  282MOL0     C37113   3.555  10.355  10.493 -0.4000  0.7264  0.1688
  282MOL0     C37114   3.404  10.377  10.505 -0.2231  0.3413 -0.6299
  282MOL0     C37115   3.333  10.258  10.548  0.2834  0.2338 -0.3936
  282MOL0     O37116   3.210  10.305  10.604 -0.3043 -0.5244  0.0165
  282MOL0     C37117   3.116  10.208  10.639  0.0320 -0.0186  1.3020
  282MOL0     C37118   3.115  10.080  10.597  0.2181  0.2631 -0.0473
  282MOL0     C37119   3.020   9.983  10.644  0.0674  0.3153 -0.3488
  282MOL0     C37120   2.919  10.028  10.728  0.6754 -1.4230 -1.4366
  282MOL0     C37121   2.827   9.930  10.787 -0.0237  0.0698 -0.7924
  282MOL0     O37122   2.802   9.817  10.717 -0.7788 -0.4425 -1.0332
  282MOL0     C37123   2.693   9.736  10.763 -0.5636  0.2485  0.0935
  282MOL0     C37124   2.703   9.654  10.876  0.0670  0.0430  0.0158
  282MOL0     C37125   2.606   9.561  10.916  0.6780 -0.8283 -0.1821
  282MOL0     C37126   2.499   9.547  10.830  0.5725  0.2992 -0.4896
  282MOL0     O37127   2.422   9.440  10.857 -0.5612 -0.1049  0.8204
  282MOL0     C37128   2.335   9.386  10.757 -0.0132  0.1530 -0.5322
  282MOL0     C37129   2.302   9.242  10.805  0.6543 -0.4394  1.0141
  282MOL0     C37130   2.236   9.252  10.940 -0.1908 -0.5813 -0.2970
  282MOL0     C37131   2.216   9.108  10.981  0.3793 -0.5890  0.0509
  282MOL0     C37132   2.323   9.048  11.064 -0.8766  0.3978  0.4607
  282MOL0     C37133   2.300   8.899  11.079 -0.1886  0.0697  0.9404
  282MOL0     C37134   2.426   8.817  11.127  0.6165 -0.5334 -0.4105
  282MOL0     C37135   2.394   8.780  11.273 -1.4105 -0.4470 -0.3500
  282MOL0    Cl37136   2.361   8.920  11.384 -0.1690  0.0813  0.5036
  282MOL0     C37137   2.477   9.637  10.724  0.9695  0.2264  0.4087
  282MOL0     C37138   2.580   9.728  10.690 -0.0585  0.2354 -0.4462
  282MOL0     O37139   2.768   9.963  10.894 -0.8660  0.4265 -0.2585
  282MOL0     C37140   2.917  10.170  10.762 -0.3137 -0.7698 -0.0202
  282MOL0     C37141   3.011  10.257  10.708  0.3301  0.3104 -0.5250
  282MOL0     N37142   3.836  10.315  10.413  0.7288  0.1092 -0.3398
  282MOL0     N37143   3.958  10.287  10.365 -1.0218  1.0339 -0.7342
  282MOL0     C37144   4.746   9.971   9.421 -0.0542  0.8735 -0.7499
  282MOL0     C37145   4.838  10.027   9.337 -1.1533 -0.1034  0.1347
  282MOL0     C37146   5.082  10.227   9.009  0.3891  0.1527 -0.7486
  282MOL0     C37147   5.202  10.203   8.950  0.2603 -0.3930  1.1659
  282MOL0     C37148   5.252  10.287   8.851  0.2944 -0.2031 -0.5097
  282MOL0     C37149   5.184  10.397   8.815  0.4198 -0.2616  0.2682
  282MOL0     O37150   5.251  10.497   8.744  0.0622  0.2417  0.7592
  282MOL0     C37151   5.232  10.632   8.771 -0.4973  0.1438  0.4148
  282MOL0     C37152   5.365  10.709   8.752 -0.8510  0.7672 -0.8369
  282MOL0     C37153   5.467  10.667   8.869  0.2801 -0.0541  0.0288
  282MOL0     C37154   5.575  10.765   8.886 -1.2325 -0.8670  0.1302
  282MOL0     C37155   5.655  10.736   9.007 -0.4497 -0.5110 -0.6399
  282MOL0     C37156   5.726  10.700   9.102  0.0800 -0.4275  1.1914
  282MOL0     C37157   5.058  10.419   8.868  0.0671  0.0633  0.5044
  282MOL0     C37158   5.002  10.334   8.960 -0.2211  0.1864 -0.1716
  282MOL0     H37159   4.651  10.078   9.068  0.5740 -1.0841 -0.1483
  282MOL0     H37160   4.484  10.003   9.202 -1.3820  0.4240  0.6610
  282MOL0     H37161   4.396  10.061   9.489  0.9433 -1.0728 -2.0513
  282MOL0     H37162   4.535  10.066   9.596  2.1812 -0.7861 -2.1488
  282MOL0     H37163   4.438   9.869   9.728 -0.6389  2.6548  0.9079
  282MOL0     H37164   4.323   9.844   9.607  0.9023 -1.4885  0.4640
  282MOL0     H37165   4.220  10.072   9.673  0.3503 -1.7105 -1.8536
  282MOL0     H37166   4.361  10.094   9.787  2.0098 -1.9943  0.2514
  282MOL0     H37167   4.182   9.851   9.808  1.1049 -0.6936  0.5721
  282MOL0     H37168   4.294   9.910   9.931  2.0690  3.5468  0.6586
  282MOL0     H37169   4.060   9.955   9.991 -1.0138  0.9392  0.5323
  282MOL0     H37170   4.033  10.039   9.836 -0.5490  2.2953 -0.1851
  282MOL0     H37171   4.174  10.225   9.891 -1.2514  2.3553  1.5445
  282MOL0     H37172   4.231  10.138  10.035 -0.3387  1.7365  0.8577
  282MOL0     H37173   4.057  10.325  10.066 -0.0221  0.3000 -2.0558
  282MOL0     H37174   3.937  10.210  10.004  0.1398 -0.5914  1.1894
  282MOL0     H37175   4.139  10.167  10.235 -0.6035 -0.7727  1.5820
  282MOL0     H37176   4.042  10.037  10.167 -1.0616  0.9847 -3.2580
  282MOL0     H37177   3.743  10.116  10.184 -0.1404 -1.1866 -0.2159
  282MOL0     H37178   3.527  10.180  10.369  1.1573  0.5414  0.8200
  282MOL0     H37179   3.549  10.330  10.281  1.3112 -0.8876 -1.1983
  282MOL0     H37180   3.615  10.446  10.480  2.8649 -1.4668 -1.5171
  282MOL0     H37181   3.591  10.304  10.583  1.2778  0.7592 -0.4599
  282MOL0     H37182   3.376  10.451  10.581 -0.1425  1.1153 -1.3303
  282MOL0     H37183   3.359  10.400  10.407 -0.5135 -3.6121 -1.5750
  282MOL0     H37184   3.388  10.204  10.625  0.2070  2.1772  1.1151
  282MOL0     H37185   3.311  10.187  10.467  3.1106 -0.7275 -0.4130
  282MOL0     H37186   3.201  10.044  10.541 -1.6414 -1.4380 -1.9391
  282MOL0     H37187   3.019   9.882  10.605  0.6025 -0.9144  2.5014
  282MOL0     H37188   2.797   9.658  10.931 -0.7835  0.1982  1.5047
  282MOL0     H37189   2.616   9.490  10.998  1.3968 -0.5095  0.0087
  282MOL0     H37190   2.393   9.388  10.664  1.3979  1.1701  0.3265
  282MOL0     H37191   2.250   9.455  10.752 -0.4779 -0.4638 -1.3788
  282MOL0     H37192   2.397   9.189  10.804  0.9775  0.1267  1.3596
  282MOL0     H37193   2.240   9.195  10.728  1.2899  1.0204 -0.4515
  282MOL0     H37194   2.141   9.306  10.932  1.0385  1.6472 -0.6750
  282MOL0     H37195   2.304   9.300  11.010  0.7583  0.4412 -1.8424
  282MOL0     H37196   2.119   9.099  11.030  0.6646 -0.2216  0.7069
  282MOL0     H37197   2.191   9.055  10.889 -5.1084  1.1346  0.2140
  282MOL0     H37198   2.321   9.096  11.163  0.0745  0.5238  0.4218
  282MOL0     H37199   2.420   9.066  11.018 -2.3873 -0.2854 -3.3829
  282MOL0     H37200   2.277   8.862  10.979  0.5155  1.9646  0.0368
  282MOL0     H37201   2.206   8.880  11.132 -0.3717  1.1033  1.0111
  282MOL0     H37202   2.442   8.727  11.066 -0.7415 -0.6339 -0.6359
  282MOL0     H37203   2.507   8.891  11.122 -0.9445  1.2245 -0.8947
  282MOL0     H37204   2.474   8.717  11.311 -0.8440  0.5177  0.0719
  282MOL0     H37205   2.299   8.726  11.281 -1.0436 -1.3423 -1.6151
  282MOL0     H37206   2.387   9.637  10.663  0.0910  0.0939  1.6688
  282MOL0     H37207   2.572   9.796  10.606 -0.6955  2.5777  1.3933
  282MOL0     H37208   2.844  10.216  10.828  0.3123  2.4606 -1.3799
  282MOL0     H37209   3.016  10.363  10.731  2.8161  0.3623 -1.0419
  282MOL0     H37210   4.786   9.942   9.518 -0.1558  0.2846 -0.8797
  282MOL0     H37211   4.941  10.042   9.367 -0.5643 -1.0278 -1.2586
  282MOL0     H37212   5.259  10.113   8.969 -0.2323 -0.6509  1.4295
  282MOL0     H37213   5.345  10.270   8.798  0.9126  1.9333 -0.1936
  282MOL0     H37214   5.205  10.647   8.876 -1.9651  0.5344 -0.0068
  282MOL0     H37215   5.157  10.677   8.705 -0.0791 -2.0147 -1.7025
  282MOL0     H37216   5.414  10.678   8.659 -0.5318 -1.2245 -0.0597
  282MOL0     H37217   5.344  10.814   8.773  1.2202  0.4026  4.8635
  282MOL0     H37218   5.503  10.567   8.842  1.1882  0.6502 -1.4588
  282MOL0     H37219   5.409  10.660   8.961 -1.0026 -0.1284 -0.7622
  282MOL0     H37220   5.648  10.758   8.805  0.7877 -0.8680  1.8766
  282MOL0     H37221   5.534  10.866   8.886 -0.5464 -0.5286 -1.9303
  282MOL0     H37222   5.774  10.663   9.190 -2.4659 -1.7285  2.1232
  282MOL0     H37223   5.023  10.519   8.842 -0.2923  0.2683  1.7160
  282MOL0     H37224   4.899  10.336   8.993 -0.2434 -2.5236  0.1579
  283MOL0     O37225   3.486   0.387   1.881 -0.5561  0.5577  0.7052
  283MOL0     C37226   3.484   0.408   1.758 -0.0324  0.5458 -0.4866
  283MOL0     O37227   3.392   0.484   1.696  0.7901 -0.2985  0.0848
  283MOL0     C37228   3.293   0.548   1.767  0.3280 -0.4439 -0.6165
  283MOL0     C37229   3.164   0.484   1.776 -0.0794 -0.0009  0.4478
  283MOL0     C37230   3.063   0.531   1.853  0.6635  0.2550 -0.1406
  283MOL0     C37231   3.076   0.649   1.917  0.0303  0.6614 -0.1275
  283MOL0     O37232   2.961   0.700   1.975  0.1063 -0.3918  0.1465
  283MOL0     C37233   2.954   0.788   2.091 -0.3557  0.0149 -0.4756
  283MOL0     C37234   2.803   0.819   2.124 -0.3576  0.3701 -1.1258
  283MOL0     C37235   2.718   0.694   2.171  0.4337 -0.8804  0.3852
  283MOL0     C37236   2.594   0.752   2.244 -0.2001 -0.4561 -0.1419
  283MOL0     C37237   2.501   0.835   2.160  1.3906  0.3692 -1.1593
  283MOL0     C37238   2.384   0.899   2.246  0.6028 -0.1975  0.5553
  283MOL0     C37239   2.283   0.799   2.302  0.2515  0.7461  0.1657
  283MOL0     C37240   2.179   0.761   2.197  0.9205 -0.2843 -0.0748
  283MOL0     N37241   2.068   0.673   2.234 -0.4418 -0.0637  0.5105
  283MOL0     C37242   2.061   0.577   2.326  0.4664  0.1757 -0.1406
  283MOL0     C37243   1.930   0.537   2.317 -0.6279  0.4582 -0.6732
  283MOL0     C37244   1.858   0.426   2.388  0.7864  0.6754 -0.1035
  283MOL0     C37245   1.831   0.300   2.307  0.1192  0.0484 -0.6746
  283MOL0     C37246   1.729   0.198   2.358  0.0507  0.7476 -0.9978
  283MOL0     C37247   1.724   0.064   2.296 -0.1762  0.8053 -0.0269
  283MOL0     O37248   1.850   0.003   2.316 -0.2306  0.6913 -0.0114
  283MOL0     C37249   1.907  -0.091   2.233 -0.2786  0.7716 -0.1160
  283MOL0     C37250   2.044  -0.100   2.220  0.3467  0.2683 -0.1739
  283MOL0     C37251   2.109  -0.204   2.155  0.0301  0.6460  0.4148
  283MOL0     C37252   2.033  -0.298   2.089  0.2815 -0.4978 -0.7290
  283MOL0     C37253   2.103  -0.413   2.027 -0.3248 -0.7819 -0.4229
  283MOL0     O37254   2.225  -0.395   1.962  0.8545 -0.3123 -0.4255
  283MOL0     C37255   2.291  -0.513   1.937 -0.9437 -0.3904 -0.0389
  283MOL0     C37256   2.343  -0.591   2.036  0.9375  0.1992 -0.1698
  283MOL0     C37257   2.407  -0.708   2.004 -0.5976  0.0509  0.2998
  283MOL0     C37258   2.426  -0.748   1.873 -0.1486 -0.2778  0.5954
  283MOL0     O37259   2.517  -0.839   1.828  0.3099  0.2827  0.2301
  283MOL0     C37260   2.577  -0.922   1.927 -0.1413 -0.2504 -0.1691
  283MOL0     C37261   2.685  -0.996   1.842  0.3473 -0.7259  0.1266
  283MOL0     C37262   2.812  -0.908   1.848 -0.8053 -0.6464  0.7249
  283MOL0     C37263   2.934  -0.977   1.799  1.0213  0.3933  0.0885
  283MOL0     C37264   3.032  -0.877   1.731 -0.8038 -0.0954  0.1186
  283MOL0     C37265   3.173  -0.935   1.762  0.2409 -1.4256  0.1118
  283MOL0     C37266   3.211  -1.045   1.659 -0.3954  0.7993 -0.2456
  283MOL0     C37267   3.356  -1.093   1.687  0.3891  0.2800  0.0409
  283MOL0    Cl37268   3.444  -1.194   1.558 -0.0115 -0.0832  0.0613
  283MOL0     C37269   2.360  -0.674   1.768 -0.2289  0.2831  0.9351
  283MOL0     C37270   2.297  -0.550   1.802 -0.0206 -0.3826  0.1822
  283MOL0     O37271   2.024  -0.504   2.010  0.2734  0.8504  0.3823
  283MOL0     C37272   1.889  -0.286   2.093 -0.7613 -0.1604  0.3917
  283MOL0     C37273   1.821  -0.181   2.165 -0.1224  0.2066 -0.4568
  283MOL0     N37274   1.875   0.607   2.222  0.3083  0.5280 -0.0013
  283MOL0     N37275   1.948   0.695   2.177 -0.3816  0.8302  0.1403
  283MOL0     C37276   3.201   0.712   1.918 -0.7004  0.1082  0.0100
  283MOL0     C37277   3.316   0.655   1.850  0.0820 -0.4215  0.5152
  283MOL0     C37278   3.597   0.372   1.678 -0.2811 -0.3668 -0.5088
  283MOL0     C37279   3.700   0.288   1.723 -0.7106 -0.1153  0.7225
  283MOL0     C37280   3.795   0.237   1.638  0.2648  0.0965 -0.5678
  283MOL0     C37281   3.818   0.282   1.505  0.8982  0.0512 -1.6208
  283MOL0     O37282   3.923   0.229   1.435  0.8760 -0.0757 -0.5508
  283MOL0     C37283   3.917   0.226   1.292 -0.2508  0.3055  0.0091
  283MOL0     C37284   4.055   0.212   1.229  0.8557 -0.1706  0.2568
  283MOL0     C37285   4.138   0.082   1.259  0.4077 -0.0422 -0.1047
  283MOL0     C37286   4.235   0.097   1.384  1.2325  0.8044  0.5290
  283MOL0     C37287   4.318   0.210   1.394  0.0467 -0.5931  0.8964
  283MOL0     C37288   4.373   0.311   1.408 -0.4730 -0.7672  1.0071
  283MOL0     C37289   3.722   0.372   1.463  0.2463 -0.1897  1.8013
  283MOL0     C37290   3.616   0.412   1.539 -0.7638 -0.3766  0.5129
  283MOL0     H37291   3.144   0.395   1.717 -0.5608  1.1923 -1.2651
  283MOL0     H37292   2.964   0.489   1.843  0.0633  1.0332  2.0810
  283MOL0     H37293   3.002   0.884   2.070 -0.9091 -0.0832 -2.3558
  283MOL0     H37294   3.003   0.738   2.175 -1.3731 -1.6151 -0.8115
  283MOL0     H37295   2.756   0.877   2.044 -0.2900  1.8739 -0.1077
  283MOL0     H37296   2.804   0.883   2.213 -5.1212 -0.9345  0.1658
  283MOL0     H37297   2.787   0.641   2.237 -0.3774  1.3176  3.2166
  283MOL0     H37298   2.692   0.628   2.089  0.3322 -1.1931  0.6684
  283MOL0     H37299   2.540   0.667   2.286 -3.1056  2.1242  1.7824
  283MOL0     H37300   2.629   0.817   2.325 -2.3373 -0.4892  0.8628
  283MOL0     H37301   2.455   0.762   2.093 -1.1322  0.6761  0.1213
  283MOL0     H37302   2.548   0.909   2.095  0.1997  1.3201 -0.9812
  283MOL0     H37303   2.326   0.963   2.178  2.0495 -0.1274 -0.6571
  283MOL0     H37304   2.438   0.960   2.320  2.2169 -2.0050  0.9276
  283MOL0     H37305   2.327   0.705   2.338  1.1392  1.0334 -0.1347
  283MOL0     H37306   2.238   0.836   2.395 -2.4053  2.0650 -1.5199
  283MOL0     H37307   2.240   0.698   2.132  1.2187  1.2417 -1.3247
  283MOL0     H37308   2.153   0.844   2.131  0.4862 -2.3631 -2.6545
  283MOL0     H37309   2.140   0.540   2.391 -0.1934 -1.0587 -0.0104
  283MOL0     H37310   1.759   0.464   2.414  0.3352 -0.2230 -0.4542
  283MOL0     H37311   1.910   0.402   2.481  0.9298  0.7648 -0.1604
  283MOL0     H37312   1.926   0.245   2.314 -0.5287 -0.8964  1.4866
  283MOL0     H37313   1.791   0.330   2.209 -1.2732  0.6824  0.0671
  283MOL0     H37314   1.732   0.190   2.467  0.8143  0.4039 -1.0387
  283MOL0     H37315   1.623   0.219   2.342 -0.9290 -3.1728 -0.7498
  283MOL0     H37316   1.694   0.073   2.191  0.3336 -0.2515 -0.2728
  283MOL0     H37317   1.649  -0.001   2.343  3.3547 -2.8107  1.1161
  283MOL0     H37318   2.100  -0.015   2.258  1.6232 -0.4194 -0.4515
  283MOL0     H37319   2.217  -0.202   2.146 -0.0464 -0.1193 -0.7737
  283MOL0     H37320   2.321  -0.580   2.142 -0.0401  1.1585 -0.4451
  283MOL0     H37321   2.451  -0.767   2.084  3.1335 -0.2776 -1.7790
  283MOL0     H37322   2.510  -0.991   1.978  1.2676 -1.2180  0.4240
  283MOL0     H37323   2.631  -0.863   2.001 -0.9209 -1.2120  1.2196
  283MOL0     H37324   2.650  -1.011   1.740 -2.9997  3.1228  0.4831
  283MOL0     H37325   2.705  -1.092   1.891 -0.0249 -0.2976  1.1568
  283MOL0     H37326   2.834  -0.882   1.952  0.9788  2.4489 -0.3117
  283MOL0     H37327   2.803  -0.817   1.788  0.2592 -1.1484 -0.2460
  283MOL0     H37328   2.985  -1.025   1.883  1.9132 -0.8741 -1.1109
  283MOL0     H37329   2.915  -1.058   1.727 -0.6976 -2.9260  3.9002
  283MOL0     H37330   3.026  -0.779   1.779  4.1288  1.6981 -2.2086
  283MOL0     H37331   3.023  -0.875   1.622  0.2113 -5.0137 -0.2684
  283MOL0     H37332   3.189  -0.975   1.863 -0.3322  0.7603  1.1326
  283MOL0     H37333   3.236  -0.846   1.760 -3.1435  1.1657 -0.8625
  283MOL0     H37334   3.150  -1.136   1.663  0.7288 -0.2535 -3.4095
  283MOL0     H37335   3.208  -1.010   1.555 -1.4658 -1.0192 -0.8962
  283MOL0     H37336   3.333  -1.153   1.776 -2.0049  4.4671  2.6076
  283MOL0     H37337   3.421  -1.008   1.711  1.6232  0.6114 -3.8197
  283MOL0     H37338   2.366  -0.696   1.662 -4.7281  1.3671  0.2447
  283MOL0     H37339   2.251  -0.484   1.728 -1.0745  0.1806  1.2938
  283MOL0     H37340   1.831  -0.366   2.049 -1.8965  1.0981 -0.4882
  283MOL0     H37341   1.716  -0.189   2.194  0.7293  1.3560  3.5016
  283MOL0     H37342   3.222   0.788   1.992  2.8002  0.5318 -1.2522
  283MOL0     H37343   3.416   0.692   1.869  0.4966 -1.9035  1.4004
  283MOL0     H37344   3.713   0.260   1.827  1.0191  2.2345  1.2363
  283MOL0     H37345   3.858   0.169   1.694  0.8453  0.8494 -0.3005
  283MOL0     H37346   3.879   0.318   1.245 -2.4750 -1.4861 -1.9965
  283MOL0     H37347   3.853   0.144   1.257  1.6622 -1.3247  0.1614
  283MOL0     H37348   4.042   0.218   1.121  2.5981  0.3219  0.0472
  283MOL0     H37349   4.115   0.301   1.250  0.3940 -0.2583  2.1207
  283MOL0     H37350   4.199   0.054   1.174 -3.4114 -0.0329 -3.1252
  283MOL0     H37351   4.079  -0.009   1.274  0.5733 -0.1552 -0.1460
  283MOL0     H37352   4.185   0.095   1.482  0.6166 -1.4123  0.2094
  283MOL0     H37353   4.300   0.009   1.388 -0.4114 -0.4070  2.8194
  283MOL0     H37354   4.443   0.390   1.389 -1.8512  1.0857  3.1215
  283MOL0     H37355   3.738   0.403   1.360  3.4480  1.2045  2.6032
  283MOL0     H37356   3.547   0.483   1.495  2.3989  0.9244 -2.8394
  284MOL0     O37357   7.819   2.774   0.454  0.4958 -0.6296  0.0049
  284MOL0     C37358   7.804   2.898   0.486  0.6576 -0.2639 -0.2246
  284MOL0     O37359   7.695   2.950   0.561  0.1761 -0.1379  0.2857
  284MOL0     C37360   7.598   2.863   0.603 -0.1562 -0.6554  0.0441
  284MOL0     C37361   7.513   2.782   0.527  0.4486 -1.1494  0.1367
  284MOL0     C37362   7.404   2.708   0.586 -0.2568  0.1862 -0.2681
  284MOL0     C37363   7.374   2.714   0.721 -0.4698  0.1377 -0.2902
  284MOL0     O37364   7.263   2.656   0.763  0.0243  0.4089 -0.3704
  284MOL0     C37365   7.252   2.515   0.783 -0.1465  0.3389  0.1611
  284MOL0     C37366   7.124   2.485   0.862  0.3243 -0.5315  0.1257
  284MOL0     C37367   6.989   2.538   0.803 -0.0931 -0.0610 -0.3075
  284MOL0     C37368   6.870   2.478   0.878  0.5125 -0.2347 -0.1365
  284MOL0     C37369   6.733   2.497   0.805 -0.4463 -0.1873  0.0436
  284MOL0     C37370   6.715   2.416   0.679 -0.3859  0.5411 -0.1248
  284MOL0     C37371   6.590   2.430   0.611  0.0184  0.2853 -0.0320
  284MOL0     C37372   6.454   2.414   0.683 -0.6058  0.8192  0.3996
  284MOL0     N37373   6.429   2.269   0.714 -0.3405  0.7598  0.2824
  284MOL0     C37374   6.304   2.225   0.729  0.1837  0.4807  0.0324
  284MOL0     C37375   6.319   2.096   0.762  0.9471  0.0131 -1.0745
  284MOL0     C37376   6.200   2.016   0.811 -0.0609 -0.1063 -0.2137
  284MOL0     C37377   6.239   1.867   0.801 -0.0389  0.5225  0.7816
  284MOL0     C37378   6.271   1.816   0.655  0.5812  0.4233  0.5368
  284MOL0     C37379   6.146   1.828   0.565  0.0526 -0.3340 -0.4429
  284MOL0     O37380   6.164   1.778   0.435 -0.4916 -0.0742  0.4889
  284MOL0     C37381   6.236   1.842   0.334  0.5790 -0.7796  0.4095
  284MOL0     C37382   6.297   1.962   0.372  0.5903 -0.3074 -0.3347
  284MOL0     C37383   6.383   2.027   0.283  0.4238  0.9860  1.0740
  284MOL0     C37384   6.411   1.969   0.161  0.3902  0.5568 -0.1055
  284MOL0     C37385   6.501   2.037   0.064  0.1610 -0.2701  0.1092
  284MOL0     O37386   6.562   1.968  -0.037  0.1662  0.1376 -0.5198
  284MOL0     C37387   6.631   2.050  -0.127  0.8281  0.8151 -0.2320
  284MOL0     C37388   6.580   2.058  -0.258 -0.6072 -1.1279  0.0469
  284MOL0     C37389   6.638   2.140  -0.351 -0.2932 -0.1440  0.2806
  284MOL0     C37390   6.761   2.194  -0.325  0.3580 -0.4906  0.9400
  284MOL0     O37391   6.820   2.266  -0.421 -0.1101  0.8274  0.0329
  284MOL0     C37392   6.919   2.365  -0.383  0.0533 -0.0155  0.5864
  284MOL0     C37393   6.950   2.455  -0.507  0.0744 -0.7650 -0.3244
  284MOL0     C37394   7.047   2.572  -0.476  0.2963 -0.7449  0.0731
  284MOL0     C37395   7.183   2.521  -0.428 -0.6151  0.3230  0.2972
  284MOL0     C37396   7.265   2.482  -0.553  0.2771  0.0155 -1.1580
  284MOL0     C37397   7.401   2.420  -0.513  0.4088 -0.0265  0.1184
  284MOL0     C37398   7.489   2.398  -0.640  0.2805  0.1640 -0.9940
  284MOL0     C37399   7.559   2.531  -0.669  0.5356  0.6338  0.0896
  284MOL0    Cl37400   7.668   2.592  -0.544  0.4690  0.1560  0.5774
  284MOL0     C37401   6.824   2.169  -0.203 -0.1190  0.6027 -0.1900
  284MOL0     C37402   6.747   2.112  -0.097  0.2002  0.4864  0.1246
  284MOL0     O37403   6.512   2.161   0.086  0.2268  0.5668 -0.0565
  284MOL0     C37404   6.348   1.846   0.127  0.0387 -0.2747 -0.3276
  284MOL0     C37405   6.259   1.785   0.209 -0.2342 -0.5566  0.3304
  284MOL0     N37406   6.449   2.061   0.778 -0.0237 -0.2154 -0.7613
  284MOL0     N37407   6.517   2.161   0.729  0.3809 -0.8285  0.2306
  284MOL0     C37408   7.460   2.796   0.798  1.1916  0.1480 -1.0274
  284MOL0     C37409   7.570   2.866   0.746  0.4316 -0.1988  0.2927
  284MOL0     C37410   7.918   2.983   0.443  0.1189 -0.0099 -0.5084
  284MOL0     C37411   7.924   3.119   0.472  0.1136  0.9333 -0.0283
  284MOL0     C37412   8.037   3.196   0.454 -0.5487 -1.4254  0.9472
  284MOL0     C37413   8.153   3.142   0.382  0.3197 -1.1067 -0.2966
  284MOL0     O37414   8.268   3.212   0.353 -0.4460 -0.5480 -0.1870
  284MOL0     C37415   8.250   3.360   0.357 -0.4315  0.4466 -0.3857
  284MOL0     C37416   8.367   3.436   0.284  0.7232 -0.3199  0.5061
  284MOL0     C37417   8.468   3.487   0.381 -0.2485 -0.0253  0.1169
  284MOL0     C37418   8.539   3.368   0.451  0.8320  0.6967  0.1125
  284MOL0     C37419   8.638   3.300   0.361 -0.1561 -0.0125 -1.0567
  284MOL0     C37420   8.694   3.232   0.278  0.9862  0.3735 -0.1070
  284MOL0     C37421   8.146   3.008   0.341 -0.7667  0.1429 -0.8632
  284MOL0     C37422   8.032   2.932   0.375  0.4984  1.3256  0.3916
  284MOL0     H37423   7.533   2.769   0.421  0.5043 -1.1845  0.1517
  284MOL0     H37424   7.326   2.656   0.530 -3.8952  1.0973  3.4328
  284MOL0     H37425   7.344   2.471   0.823 -0.5397  0.0894  0.8175
  284MOL0     H37426   7.247   2.467   0.684  3.2751 -1.6716  0.7887
  284MOL0     H37427   7.135   2.535   0.958 -0.6483 -0.9851  0.4855
  284MOL0     H37428   7.111   2.377   0.874 -2.6000 -0.4417 -1.2772
  284MOL0     H37429   6.979   2.530   0.695 -0.3752  0.3575 -0.3159
  284MOL0     H37430   6.980   2.645   0.828 -0.4581 -0.5010  1.6418
  284MOL0     H37431   6.875   2.369   0.883 -0.5956 -0.3273 -0.5993
  284MOL0     H37432   6.860   2.513   0.981 -0.4771  0.5819 -0.4905
  284MOL0     H37433   6.724   2.604   0.781  0.6486 -0.1858 -0.3721
  284MOL0     H37434   6.661   2.464   0.881 -1.4629 -1.1682 -1.2986
  284MOL0     H37435   6.736   2.312   0.705 -3.6807 -0.3347 -0.5073
  284MOL0     H37436   6.789   2.443   0.602  2.6423 -1.2110  1.9271
  284MOL0     H37437   6.590   2.531   0.569  2.5752 -0.3824 -1.8874
  284MOL0     H37438   6.603   2.357   0.531 -0.4219 -0.1440  0.2759
  284MOL0     H37439   6.367   2.460   0.634 -1.7067  2.0102  3.2396
  284MOL0     H37440   6.465   2.469   0.778  2.6624 -0.9349  1.1762
  284MOL0     H37441   6.208   2.277   0.724  1.4580  3.0838  0.7768
  284MOL0     H37442   6.108   2.036   0.755 -0.1248 -1.3979 -0.6048
  284MOL0     H37443   6.174   2.029   0.916 -1.2222 -2.0022 -0.2113
  284MOL0     H37444   6.159   1.808   0.844  1.4090 -1.6435  0.6688
  284MOL0     H37445   6.332   1.850   0.857 -0.0674 -0.6106  0.5075
  284MOL0     H37446   6.354   1.878   0.619  2.2105 -1.9206  0.0345
  284MOL0     H37447   6.309   1.714   0.657 -1.6175 -0.4677  3.0727
  284MOL0     H37448   6.118   1.933   0.561  1.3363  0.0474  0.2202
  284MOL0     H37449   6.067   1.777   0.622  0.9272  0.0190  1.1508
  284MOL0     H37450   6.278   2.002   0.471 -0.1332 -1.2211 -0.0905
  284MOL0     H37451   6.432   2.121   0.305  2.8884  0.8449 -2.8134
  284MOL0     H37452   6.483   2.016  -0.281 -1.8065  2.8058 -3.2167
  284MOL0     H37453   6.586   2.161  -0.444  1.4087  0.2098 -0.6287
  284MOL0     H37454   7.015   2.318  -0.359  0.7204 -0.7291 -2.8890
  284MOL0     H37455   6.886   2.426  -0.299  0.4687 -0.3066  0.9654
  284MOL0     H37456   6.855   2.485  -0.553 -0.2592 -3.4533 -1.6290
  284MOL0     H37457   6.985   2.385  -0.584  1.5073  1.1943 -1.5403
  284MOL0     H37458   7.000   2.645  -0.409  0.6839 -1.6140  1.3306
  284MOL0     H37459   7.060   2.648  -0.553 -1.2033  0.4312  0.9204
  284MOL0     H37460   7.230   2.602  -0.373  0.2127 -0.5010  0.8420
  284MOL0     H37461   7.182   2.440  -0.353  1.5587  1.1316  1.2866
  284MOL0     H37462   7.280   2.569  -0.617  0.5149  1.0239  0.2202
  284MOL0     H37463   7.219   2.410  -0.622 -0.2379 -0.6827 -0.1208
  284MOL0     H37464   7.381   2.324  -0.465  1.9803 -0.0890  0.7305
  284MOL0     H37465   7.448   2.479  -0.433  2.9652  2.7862 -3.1417
  284MOL0     H37466   7.557   2.316  -0.612  0.1231  1.2990  3.6146
  284MOL0     H37467   7.425   2.370  -0.724  0.1512  0.8674 -1.1365
  284MOL0     H37468   7.487   2.611  -0.688 -2.0069 -1.7382 -0.9247
  284MOL0     H37469   7.611   2.518  -0.764 -1.6171 -0.4444 -1.0256
  284MOL0     H37470   6.921   2.213  -0.184 -0.8498  2.8622 -1.2884
  284MOL0     H37471   6.794   2.093  -0.001  0.0246 -0.7206 -0.0109
  284MOL0     H37472   6.351   1.807   0.025 -0.2245  1.0811 -0.8776
  284MOL0     H37473   6.204   1.693   0.190 -3.4332  0.9322  1.5583
  284MOL0     H37474   7.417   2.811   0.897  2.7287 -1.0340 -0.1348
  284MOL0     H37475   7.611   2.940   0.814 -1.8468 -1.4012  3.1575
  284MOL0     H37476   7.832   3.150   0.520  0.6277  2.6522 -0.0721
  284MOL0     H37477   8.040   3.294   0.500 -0.3050 -1.4605  1.0097
  284MOL0     H37478   8.248   3.388   0.462 -0.8839 -1.5597  0.1903
  284MOL0     H37479   8.160   3.404   0.313 -1.2189  0.3799  1.1110
  284MOL0     H37480   8.404   3.365   0.209 -3.1349 -0.9657 -0.9789
  284MOL0     H37481   8.315   3.519   0.237  0.5864 -0.2381  0.7988
  284MOL0     H37482   8.415   3.552   0.451 -0.2120  0.0725  0.0547
  284MOL0     H37483   8.536   3.544   0.318 -0.4286  1.0835  0.8838
  284MOL0     H37484   8.588   3.403   0.543 -3.6442  2.4327  2.1143
  284MOL0     H37485   8.467   3.292   0.481 -0.2438  0.9736 -1.6379
  284MOL0     H37486   8.744   3.174   0.203 -2.1117 -0.7893 -1.4323
  284MOL0     H37487   8.232   2.965   0.290 -0.7362 -0.5934 -0.1916
  284MOL0     H37488   8.040   2.829   0.342 -0.7091  1.3356  0.0261
  285MOL0     O37489   9.931   6.447   1.939 -0.0608  0.9834  0.5295
  285MOL0     C37490   9.963   6.446   2.055 -0.2025  0.1337 -0.2316
  285MOL0     O37491   9.875   6.414   2.155  0.0012 -0.2294  0.0642
  285MOL0     C37492   9.735   6.417   2.126 -0.4650 -0.3413  0.3351
  285MOL0     C37493   9.675   6.520   2.184  0.8436  0.3778 -0.3540
  285MOL0     C37494   9.530   6.547   2.154  0.0141  0.4664 -0.0445
  285MOL0     C37495   9.467   6.460   2.060  0.5866 -0.7483  0.4090
  285MOL0     O37496   9.340   6.503   2.026 -0.1279  0.3379  0.1405
  285MOL0     C37497   9.256   6.396   1.992  0.1013 -0.8127 -0.0657
  285MOL0     C37498   9.117   6.461   1.963 -0.7465  0.2162 -0.2917
  285MOL0     C37499   9.046   6.518   2.091  0.2258  1.0567  0.5230
  285MOL0     C37500   8.895   6.514   2.076  0.4012 -0.3454  0.3816
  285MOL0     C37501   8.822   6.566   2.207  0.3376  0.7465 -0.0909
  285MOL0     C37502   8.679   6.520   2.218  0.1631  1.1006  1.1818
  285MOL0     C37503   8.607   6.574   2.343 -0.2275 -0.0025  0.4949
  285MOL0     C37504   8.630   6.488   2.467  0.0773 -0.6599  0.4370
  285MOL0     N37505   8.767   6.506   2.515  0.1632  0.4138 -0.8693
  285MOL0     C37506   8.849   6.410   2.569  0.0780 -0.3272 -0.2266
  285MOL0     C37507   8.948   6.480   2.625 -0.0346 -0.4148  0.2925
  285MOL0     C37508   9.056   6.409   2.700 -0.8702  0.2965 -0.1963
  285MOL0     C37509   9.005   6.354   2.836 -0.3028  0.5807  0.1498
  285MOL0     C37510   9.014   6.468   2.936 -0.0160 -0.6522 -0.2223
  285MOL0     C37511   9.149   6.481   3.004  0.7896  0.0665  0.3180
  285MOL0     O37512   9.195   6.372   3.083 -0.2163 -0.3423  0.0337
  285MOL0     C37513   9.331   6.346   3.093  0.8607 -0.0155 -0.2197
  285MOL0     C37514   9.365   6.234   3.177 -0.3226 -0.2608  0.8798
  285MOL0     C37515   9.503   6.190   3.172  0.6584 -0.1909 -0.3640
  285MOL0     C37516   9.602   6.267   3.106 -0.3764 -0.4956 -0.2730
  285MOL0     C37517   9.738   6.215   3.101 -0.1161 -0.0810 -0.3311
  285MOL0     O37518   9.809   6.263   2.995 -0.2203  0.0468 -0.1796
  285MOL0     C37519   9.935   6.217   2.960 -0.8647  0.0569 -0.2988
  285MOL0     C37520   9.975   6.086   2.982 -0.8896  0.3994 -0.2283
  285MOL0     C37521  10.107   6.049   2.956 -0.5433  1.1736  0.5629
  285MOL0     C37522  10.211   6.144   2.939  0.3237  0.4528 -0.1581
  285MOL0     O37523  10.341   6.096   2.930  0.1526  0.2508 -0.4329
  285MOL0     C37524  10.408   6.143   2.813 -0.0473  0.2225  0.1371
  285MOL0     C37525  10.510   6.028   2.772  0.2715  0.0567 -0.1230
  285MOL0     C37526  10.631   6.046   2.852  0.3513  0.7533 -0.3716
  285MOL0     C37527  10.726   5.943   2.803  0.0340  0.0062 -0.1790
  285MOL0     C37528  10.858   5.956   2.887 -0.3817  0.5237  0.3159
  285MOL0     C37529  10.979   5.867   2.856  0.2494 -0.0026  0.0819
  285MOL0     C37530  11.100   5.929   2.924  0.4285  0.0323 -0.5303
  285MOL0     C37531  11.227   5.858   2.867  0.2313 -0.1487  0.1639
  285MOL0    Cl37532  11.196   5.678   2.847 -0.1420  0.2687  0.1580
  285MOL0     C37533  10.173   6.277   2.927  0.2703  0.2484 -0.3037
  285MOL0     C37534  10.034   6.305   2.936  0.0511 -1.1852 -0.7342
  285MOL0     O37535   9.770   6.125   3.177  0.6917  0.4140 -0.4104
  285MOL0     C37536   9.566   6.392   3.055  0.2202  0.0741 -0.0497
  285MOL0     C37537   9.431   6.424   3.043 -0.2507 -0.2967 -0.3666
  285MOL0     N37538   8.932   6.621   2.599 -0.6231  0.1023 -0.0597
  285MOL0     N37539   8.821   6.626   2.534 -0.3760 -0.4962  0.6130
  285MOL0     C37540   9.534   6.348   2.007 -0.2585 -0.3249  0.2895
  285MOL0     C37541   9.668   6.335   2.039  1.1791  0.1871  0.0571
  285MOL0     C37542  10.091   6.496   2.100 -0.8436 -0.2564 -0.0073
  285MOL0     C37543  10.112   6.527   2.239  0.9252  0.0230  0.8634
  285MOL0     C37544  10.234   6.567   2.296 -0.2537  0.5852  0.2573
  285MOL0     C37545  10.339   6.577   2.207 -1.1130  0.2027  0.6117
  285MOL0     O37546  10.463   6.629   2.243 -0.2059  0.3572  0.0147
  285MOL0     C37547  10.571   6.533   2.272  0.7412 -0.3625 -0.5788
  285MOL0     C37548  10.678   6.540   2.155 -0.2484 -0.3097 -0.0464
  285MOL0     C37549  10.749   6.410   2.147  0.8120  0.8771 -0.5170
  285MOL0     C37550  10.876   6.407   2.070 -0.6906 -0.5564  0.1718
  285MOL0     C37551  10.934   6.273   2.075  0.2128  0.1499 -0.2348
  285MOL0     C37552  10.969   6.155   2.066  0.6741 -0.4639 -0.2493
  285MOL0     C37553  10.326   6.548   2.068  0.2316 -0.3353 -0.5947
  285MOL0     C37554  10.205   6.508   2.012 -0.1305 -0.7548 -1.0690
  285MOL0     H37555   9.715   6.584   2.262  0.6956 -0.3350  0.3258
  285MOL0     H37556   9.481   6.633   2.198  2.3837  1.6934  0.3534
  285MOL0     H37557   9.258   6.330   2.079 -0.6669  1.9841  2.1889
  285MOL0     H37558   9.282   6.351   1.895  0.0220  2.3187 -1.6821
  285MOL0     H37559   9.048   6.385   1.925 -0.0346  0.0630 -1.3110
  285MOL0     H37560   9.129   6.543   1.892 -3.4634  1.6893  0.7594
  285MOL0     H37561   9.074   6.623   2.098  1.2899  0.7660  0.8940
  285MOL0     H37562   9.081   6.475   2.186  3.2607  0.9249 -0.5419
  285MOL0     H37563   8.854   6.583   2.001 -1.7926 -0.1412  1.6672
  285MOL0     H37564   8.868   6.411   2.051 -0.4630  0.1026 -0.5996
  285MOL0     H37565   8.813   6.675   2.200 -1.9570  0.4998 -2.9255
  285MOL0     H37566   8.886   6.528   2.287  0.8977 -2.0823 -1.7584
  285MOL0     H37567   8.683   6.411   2.224  3.7450  1.0190 -0.3425
  285MOL0     H37568   8.626   6.559   2.131  3.1799  2.1898 -0.3017
  285MOL0     H37569   8.638   6.678   2.359  0.4865 -0.4343  2.1222
  285MOL0     H37570   8.502   6.571   2.312 -0.3601 -2.0084  1.0226
  285MOL0     H37571   8.622   6.384   2.436  1.3518 -0.3873 -0.9663
  285MOL0     H37572   8.548   6.515   2.534 -1.7375  1.7070 -2.4908
  285MOL0     H37573   8.823   6.305   2.583  0.9733 -0.7954 -1.8431
  285MOL0     H37574   9.133   6.483   2.726 -0.9628 -0.0110  1.0475
  285MOL0     H37575   9.105   6.332   2.641  1.2247  0.7760  0.7908
  285MOL0     H37576   9.060   6.267   2.873  0.7137  1.2757  0.3144
  285MOL0     H37577   8.901   6.321   2.828 -0.4093  1.0625 -0.4923
  285MOL0     H37578   9.001   6.562   2.883  0.0873 -1.2335 -1.3191
  285MOL0     H37579   8.936   6.454   3.011 -1.5433 -2.4962 -2.0412
  285MOL0     H37580   9.146   6.577   3.057 -0.0926  0.7188 -0.8527
  285MOL0     H37581   9.225   6.496   2.927  0.6026 -0.2379  0.0739
  285MOL0     H37582   9.303   6.167   3.237 -2.5763 -0.5934 -1.6021
  285MOL0     H37583   9.522   6.096   3.222  0.4275  0.0140  0.1172
  285MOL0     H37584   9.906   6.010   3.014 -1.6019  1.0129 -0.2736
  285MOL0     H37585  10.139   5.946   2.963 -0.1371  1.4351  3.8655
  285MOL0     H37586  10.463   6.233   2.842  2.9753 -1.6466  0.6879
  285MOL0     H37587  10.339   6.164   2.731  1.4890 -2.2634 -1.9737
  285MOL0     H37588  10.542   6.025   2.668  2.0973  0.7971  0.3766
  285MOL0     H37589  10.460   5.936   2.804 -1.4147  0.1677 -2.2238
  285MOL0     H37590  10.614   6.040   2.960  2.8815  5.2581  0.5024
  285MOL0     H37591  10.661   6.150   2.838 -0.4134  0.9847 -0.3653
  285MOL0     H37592  10.678   5.844   2.808 -3.9946  1.7080 -1.0088
  285MOL0     H37593  10.766   5.966   2.704  2.2932  2.9311  1.2732
  285MOL0     H37594  10.829   5.939   2.991 -1.5912 -0.5286 -0.1725
  285MOL0     H37595  10.878   6.064   2.885 -1.3954  0.8515  3.3977
  285MOL0     H37596  10.998   5.854   2.749  1.1462 -3.4870  0.5613
  285MOL0     H37597  10.959   5.768   2.897  0.1174  0.4667  1.1919
  285MOL0     H37598  11.114   6.035   2.905  2.2794 -0.0488  0.1997
  285MOL0     H37599  11.094   5.914   3.032  2.9267  1.6068 -0.1094
  285MOL0     H37600  11.320   5.879   2.920  0.9506  0.2239 -1.2088
  285MOL0     H37601  11.253   5.900   2.769  3.9091  2.2571  1.9392
  285MOL0     H37602  10.243   6.358   2.911  3.2064 -2.3935 -1.8981
  285MOL0     H37603   9.990   6.402   2.917 -1.8766 -1.9576 -0.4394
  285MOL0     H37604   9.643   6.465   3.034 -2.0578  2.8776  0.7061
  285MOL0     H37605   9.406   6.521   3.002  0.4168  0.3196  0.6311
  285MOL0     H37606   9.478   6.286   1.938  0.4406 -0.2467 -0.3648
  285MOL0     H37607   9.722   6.257   1.986  1.8922  0.1399  0.8282
  285MOL0     H37608  10.028   6.513   2.306  0.1639  0.7546  0.1010
  285MOL0     H37609  10.248   6.587   2.402 -2.0711 -2.0819  1.1204
  285MOL0     H37610  10.539   6.428   2.277  0.8602 -0.4325 -1.1941
  285MOL0     H37611  10.602   6.549   2.375  2.2870 -0.2411 -1.0471
  285MOL0     H37612  10.628   6.560   2.060 -2.6104 -2.2600  0.6805
  285MOL0     H37613  10.755   6.618   2.162 -0.1106 -0.5720  2.6318
  285MOL0     H37614  10.687   6.336   2.095 -0.7944  1.2595  0.7727
  285MOL0     H37615  10.772   6.372   2.247 -0.1267 -0.6263 -0.8291
  285MOL0     H37616  10.874   6.440   1.966 -1.6516 -2.2532 -0.3973
  285MOL0     H37617  10.950   6.467   2.124 -2.3236 -0.7359  2.8339
  285MOL0     H37618  11.001   6.054   2.051  2.4633  0.2820 -1.8275
  285MOL0     H37619  10.410   6.574   2.004  0.5287 -4.0953 -1.9317
  285MOL0     H37620  10.191   6.479   1.909 -0.8893 -1.9788 -0.6533
  286MOL0     O37621   9.254   5.658   2.158  0.0713 -0.2897  0.1014
  286MOL0     C37622   9.291   5.603   2.048  0.2873 -0.1117 -0.4370
  286MOL0     O37623   9.201   5.561   1.945 -0.6925 -0.4032 -0.1706
  286MOL0     C37624   9.069   5.569   1.977 -0.5220  0.6480 -0.0765
  286MOL0     C37625   8.990   5.688   1.966  0.5439  0.7337  0.5884
  286MOL0     C37626   8.857   5.681   1.999  0.3934 -0.4423  0.0506
  286MOL0     C37627   8.797   5.560   2.039  0.6652 -0.5363  0.1131
  286MOL0     O37628   8.667   5.563   2.081 -0.2189  0.2906  0.0963
  286MOL0     C37629   8.570   5.570   1.978  0.3569 -1.0491  0.1455
  286MOL0     C37630   8.450   5.594   2.060  0.2241 -0.0250 -0.9742
  286MOL0     C37631   8.323   5.604   1.978 -0.4291 -0.2298  0.5612
  286MOL0     C37632   8.200   5.600   2.073  0.2051 -0.3285 -0.0336
  286MOL0     C37633   8.085   5.637   1.994  1.3627  0.1678  0.7365
  286MOL0     C37634   7.953   5.637   2.069  0.1778  0.0596 -0.6419
  286MOL0     C37635   7.831   5.701   1.990  0.9234  0.0958 -0.1614
  286MOL0     C37636   7.799   5.621   1.867 -0.1840  1.3131  0.5941
  286MOL0     N37637   7.665   5.649   1.817 -0.0057 -0.2593  0.4493
  286MOL0     C37638   7.544   5.591   1.848 -0.7746  0.0615  0.0855
  286MOL0     C37639   7.451   5.644   1.767 -0.5436  0.5997 -0.1791
  286MOL0     C37640   7.307   5.595   1.776  1.0701  0.8406  0.1333
  286MOL0     C37641   7.272   5.508   1.646 -1.2493  0.3528  0.0316
  286MOL0     C37642   7.129   5.441   1.655 -0.3522 -1.0070 -0.5236
  286MOL0     C37643   7.027   5.542   1.615  0.1372 -0.0277  0.2209
  286MOL0     O37644   6.905   5.470   1.580  0.8047 -0.2915 -0.6241
  286MOL0     C37645   6.785   5.534   1.563  0.5660  0.5080  0.4007
  286MOL0     C37646   6.671   5.458   1.571  0.6174 -0.9743  0.4708
  286MOL0     C37647   6.545   5.519   1.592 -0.5034  0.4610 -0.3005
  286MOL0     C37648   6.534   5.664   1.598  0.9726  0.9175 -0.0740
  286MOL0     C37649   6.396   5.720   1.615 -1.0834 -1.0068  0.2777
  286MOL0     O37650   6.291   5.650   1.576  0.3708  0.2076  0.0738
  286MOL0     C37651   6.170   5.716   1.572 -0.0252  0.3752  0.5748
  286MOL0     C37652   6.093   5.712   1.695 -0.1218  0.9861 -0.3852
  286MOL0     C37653   5.970   5.781   1.701  0.1408 -1.3846 -0.0155
  286MOL0     C37654   5.927   5.864   1.595  0.7618 -0.2927  0.5712
  286MOL0     O37655   5.808   5.940   1.598  0.2879  0.7025 -0.1967
  286MOL0     C37656   5.723   5.887   1.495  0.1789  0.0089  0.3351
  286MOL0     C37657   5.577   5.874   1.540  0.2887 -0.0874  0.6838
  286MOL0     C37658   5.572   5.795   1.671  0.1849  0.9403 -0.0739
  286MOL0     C37659   5.435   5.760   1.712  0.6268  0.2609  0.0526
  286MOL0     C37660   5.435   5.709   1.860 -0.6724 -0.2632 -0.3823
  286MOL0     C37661   5.308   5.712   1.933  1.3897 -0.3975 -0.0183
  286MOL0     C37662   5.307   5.663   2.079  0.7741  0.2517 -0.2485
  286MOL0     C37663   5.168   5.648   2.134  0.0493  0.0659 -0.3423
  286MOL0    Cl37664   5.085   5.811   2.154  0.0243  0.0030  0.1039
  286MOL0     C37665   6.005   5.863   1.484  0.3295 -0.2564  0.0334
  286MOL0     C37666   6.126   5.787   1.461 -0.0767  1.4484 -0.4411
  286MOL0     O37667   6.395   5.830   1.669  0.6390  0.0090  0.1690
  286MOL0     C37668   6.647   5.736   1.604 -0.4849 -0.1493 -0.3710
  286MOL0     C37669   6.776   5.677   1.583 -0.2339 -0.4243  0.2987
  286MOL0     N37670   7.516   5.745   1.690  0.0961  0.2909 -0.4594
  286MOL0     N37671   7.636   5.748   1.729  0.4795 -0.7673 -0.4534
  286MOL0     C37672   8.871   5.444   2.044 -0.2478  0.5006 -0.3865
  286MOL0     C37673   9.013   5.450   2.021  0.3428  0.3238 -0.1387
  286MOL0     C37674   9.442   5.607   2.018 -0.1135 -1.2605 -0.1751
  286MOL0     C37675   9.545   5.637   2.115 -0.1082  0.0782 -0.4753
  286MOL0     C37676   9.684   5.618   2.087 -0.5039 -1.0024 -0.4720
  286MOL0     C37677   9.719   5.580   1.957 -0.2286  0.2059 -0.0772
  286MOL0     O37678   9.840   5.553   1.891 -0.4845  0.1935 -0.1257
  286MOL0     C37679   9.961   5.557   1.967  0.0477 -0.9388 -0.0636
  286MOL0     C37680  10.076   5.594   1.874 -0.5216 -0.1023  0.3593
  286MOL0     C37681  10.189   5.631   1.962 -0.4877 -0.3087 -0.0261
  286MOL0     C37682  10.332   5.627   1.893  0.0895 -0.3657 -0.1272
  286MOL0     C37683  10.324   5.731   1.783  0.2983 -0.2579  0.1161
  286MOL0     C37684  10.327   5.807   1.695  0.1134  0.2098  0.6023
  286MOL0     C37685   9.617   5.570   1.857  0.5967  0.4259 -0.3423
  286MOL0     C37686   9.481   5.573   1.889  0.5893  0.3693 -0.6294
  286MOL0     H37687   9.026   5.784   1.931  0.7969 -0.4865 -2.9896
  286MOL0     H37688   8.800   5.772   2.005 -0.2109 -0.5820 -2.4115
  286MOL0     H37689   8.563   5.474   1.926 -1.0580 -2.0463  2.0704
  286MOL0     H37690   8.589   5.638   1.894 -0.2372 -0.7426  0.2584
  286MOL0     H37691   8.459   5.690   2.112 -1.7814  0.7125 -1.8881
  286MOL0     H37692   8.434   5.529   2.147  0.8891  1.4540  0.2990
  286MOL0     H37693   8.316   5.515   1.916 -0.7644 -0.5085  0.9908
  286MOL0     H37694   8.334   5.691   1.912  0.6096 -1.4167 -0.8873
  286MOL0     H37695   8.183   5.499   2.110  0.0859  0.5185  2.4311
  286MOL0     H37696   8.208   5.676   2.152  0.1536 -0.0482 -0.2937
  286MOL0     H37697   8.076   5.572   1.906  0.0347  0.6568  0.4925
  286MOL0     H37698   8.095   5.743   1.968 -2.0969  0.4507  0.0419
  286MOL0     H37699   7.970   5.692   2.162  0.0596 -0.1172 -0.5148
  286MOL0     H37700   7.912   5.538   2.093 -0.9330  0.1992 -1.8681
  286MOL0     H37701   7.748   5.718   2.059 -0.6266  0.7629 -2.1194
  286MOL0     H37702   7.848   5.804   1.957 -1.4241  0.8732  0.8697
  286MOL0     H37703   7.809   5.516   1.896  0.1602  1.3605  0.6594
  286MOL0     H37704   7.872   5.622   1.786  2.3593 -2.1291  2.5325
  286MOL0     H37705   7.531   5.505   1.913 -0.0201  0.0573  0.2318
  286MOL0     H37706   7.238   5.679   1.778 -4.3482 -3.0631  0.7003
  286MOL0     H37707   7.285   5.542   1.869 -3.8802  1.5805 -0.3577
  286MOL0     H37708   7.346   5.427   1.635 -1.4891 -0.1890  1.9449
  286MOL0     H37709   7.295   5.573   1.562 -1.7676 -0.6608 -0.9182
  286MOL0     H37710   7.124   5.358   1.584 -2.0423  0.9229 -2.8357
  286MOL0     H37711   7.115   5.400   1.756 -0.3728  1.4813  0.5687
  286MOL0     H37712   7.051   5.606   1.530 -2.8341  0.2584 -0.5033
  286MOL0     H37713   7.010   5.625   1.684 -2.2885  2.4331 -3.0236
  286MOL0     H37714   6.688   5.351   1.566  0.9393 -0.8570 -1.5273
  286MOL0     H37715   6.451   5.465   1.603 -1.0111  1.0786 -1.4670
  286MOL0     H37716   6.116   5.636   1.769 -1.2785  0.2569 -0.7435
  286MOL0     H37717   5.895   5.767   1.779 -1.7602  1.5199 -1.1402
  286MOL0     H37718   5.753   5.795   1.443  0.6023  2.7547 -5.0143
  286MOL0     H37719   5.719   5.959   1.412 -1.3243 -1.0560 -0.5785
  286MOL0     H37720   5.525   5.817   1.463  0.7418 -2.2551  1.8978
  286MOL0     H37721   5.519   5.967   1.542 -0.6521 -0.6563  0.5268
  286MOL0     H37722   5.620   5.850   1.753  1.3144 -1.1890  0.7640
  286MOL0     H37723   5.635   5.707   1.656 -1.3758 -0.0295 -1.1415
  286MOL0     H37724   5.385   5.857   1.708 -0.5815 -0.3729 -1.8035
  286MOL0     H37725   5.383   5.681   1.655 -1.2166 -0.8538  3.0350
  286MOL0     H37726   5.498   5.781   1.914 -1.5123  1.3506 -1.4765
  286MOL0     H37727   5.484   5.614   1.882  2.0484  1.1629  0.2730
  286MOL0     H37728   5.237   5.655   1.872 -1.1209  0.5202  1.8779
  286MOL0     H37729   5.274   5.816   1.930 -0.0692 -0.7203 -5.5732
  286MOL0     H37730   5.364   5.569   2.083  2.9059  1.5233  1.8086
  286MOL0     H37731   5.360   5.741   2.133 -0.5409  1.0304 -0.0445
  286MOL0     H37732   5.186   5.606   2.233 -1.6102 -1.6661 -0.7169
  286MOL0     H37733   5.110   5.567   2.088  0.2228 -1.5560  2.0942
  286MOL0     H37734   5.965   5.925   1.405 -1.4169 -2.9841 -1.3661
  286MOL0     H37735   6.178   5.794   1.366  1.2345 -0.7808  0.0447
  286MOL0     H37736   6.650   5.844   1.621  1.3411 -0.2565  0.2413
  286MOL0     H37737   6.851   5.753   1.602  0.2612 -0.4255 -1.4821
  286MOL0     H37738   8.804   5.362   2.066 -1.4985  1.0977 -1.8036
  286MOL0     H37739   9.077   5.362   2.020  1.7170  1.2267  1.8534
  286MOL0     H37740   9.507   5.672   2.210 -1.3092  1.0757 -1.3003
  286MOL0     H37741   9.762   5.632   2.161  0.4901 -0.1665 -1.6493
  286MOL0     H37742   9.977   5.466   2.027 -0.4260  0.8731  3.0196
  286MOL0     H37743   9.955   5.641   2.036 -0.7816  0.9173 -2.2911
  286MOL0     H37744  10.109   5.515   1.807 -3.1382 -2.3033  1.4989
  286MOL0     H37745  10.053   5.682   1.813  0.3944 -0.0282  0.1149
  286MOL0     H37746  10.198   5.549   2.034 -3.1683 -1.4032 -0.8303
  286MOL0     H37747  10.183   5.733   2.002 -0.0344 -0.6298  0.8883
  286MOL0     H37748  10.414   5.642   1.963 -0.7044  2.7395  0.2855
  286MOL0     H37749  10.348   5.532   1.841 -0.9324 -1.0606  0.7841
  286MOL0     H37750  10.323   5.876   1.613 -0.2204  0.8189  1.1254
  286MOL0     H37751   9.646   5.552   1.754 -2.5009 -0.8634 -1.0948
  286MOL0     H37752   9.410   5.556   1.809  1.6482  2.3046 -2.0643
  287MOL0     O37753   2.931   0.475   0.960  0.4750 -0.5467 -0.5257
  287MOL0     C37754   2.895   0.456   0.842 -0.1356 -0.2656 -0.0238
  287MOL0     O37755   2.772   0.416   0.802  0.3238  0.4918 -0.9439
  287MOL0     C37756   2.667   0.442   0.878 -0.2695 -0.0479 -0.3339
  287MOL0     C37757   2.575   0.546   0.838 -1.1601  0.4818 -0.6567
  287MOL0     C37758   2.452   0.564   0.903 -0.7596  0.3072  0.0768
  287MOL0     C37759   2.419   0.484   1.015 -0.3524 -0.2434  0.2304
  287MOL0     O37760   2.315   0.512   1.102 -0.2732  0.1724 -0.4035
  287MOL0     C37761   2.182   0.527   1.047 -0.5041 -0.5039 -0.3920
  287MOL0     C37762   2.138   0.382   1.004  0.2224 -0.1256 -0.0462
  287MOL0     C37763   2.003   0.374   0.940  0.2335 -0.4569  0.9785
  287MOL0     C37764   1.899   0.377   1.054  0.2178 -0.3734 -0.7209
  287MOL0     C37765   1.745   0.389   1.008 -0.4241 -0.2982  0.6102
  287MOL0     C37766   1.672   0.435   1.130  0.3174 -0.0325 -0.6472
  287MOL0     C37767   1.529   0.466   1.092  0.1483 -0.3163  0.8169
  287MOL0     C37768   1.446   0.522   1.209 -0.4986 -0.1967 -0.2190
  287MOL0     N37769   1.345   0.604   1.146  0.1567  0.1492 -0.9961
  287MOL0     C37770   1.210   0.580   1.147  0.7344  0.1630 -0.1705
  287MOL0     C37771   1.159   0.681   1.075 -0.2252  0.0858  0.1288
  287MOL0     C37772   1.003   0.692   1.063  0.0498  0.2015 -0.7730
  287MOL0     C37773   0.943   0.810   0.974  0.9457  0.2332 -0.5247
  287MOL0     C37774   0.798   0.866   1.002 -0.7687 -0.0513 -0.3150
  287MOL0     C37775   0.690   0.763   1.022 -0.4255  0.1340 -0.0473
  287MOL0     O37776   0.560   0.820   1.030 -0.2112  0.3300 -0.0383
  287MOL0     C37777   0.474   0.812   0.924  0.4317  0.1248 -0.6982
  287MOL0     C37778   0.486   0.901   0.816 -0.2872  0.8378  0.0255
  287MOL0     C37779   0.381   0.901   0.722 -0.1978 -0.6378  0.4459
  287MOL0     C37780   0.275   0.809   0.727  0.4237  0.0549  0.1621
  287MOL0     C37781   0.169   0.814   0.625 -0.0966  0.2462  0.4374
  287MOL0     O37782   0.181   0.913   0.526 -0.0677  0.1932  0.5518
  287MOL0     C37783   0.084   0.921   0.430 -0.7692  0.9148  0.6739
  287MOL0     C37784   0.034   1.049   0.396 -0.3018  0.2859  0.1448
  287MOL0     C37785  -0.048   1.071   0.287  0.8061 -0.1598 -0.5611
  287MOL0     C37786  -0.083   0.961   0.203  0.1596 -0.6671 -0.3351
  287MOL0     O37787  -0.140   0.994   0.083  0.2792  0.2664  0.7329
  287MOL0     C37788  -0.231   1.104   0.075 -0.2416  0.0054  0.1300
  287MOL0     C37789  -0.322   1.059  -0.039  0.0927  0.0957  0.1473
  287MOL0     C37790  -0.266   1.075  -0.188  0.2601  1.2250  0.0151
  287MOL0     C37791  -0.374   1.034  -0.292  0.7111  0.0958 -0.2712
  287MOL0     C37792  -0.323   1.035  -0.436 -0.7057 -0.7851  0.7408
  287MOL0     C37793  -0.396   0.934  -0.523 -0.2445 -0.1063  0.1488
  287MOL0     C37794  -0.378   0.954  -0.671  0.1922  0.2631 -0.2653
  287MOL0     C37795  -0.507   0.909  -0.740 -0.2618  0.0054 -0.3680
  287MOL0    Cl37796  -0.661   1.003  -0.720 -0.2865  0.1871  0.3143
  287MOL0     C37797  -0.046   0.830   0.243  0.4676 -0.2138  0.7173
  287MOL0     C37798   0.038   0.809   0.358  1.0925  0.1635  0.7773
  287MOL0     O37799   0.074   0.733   0.630  0.7144 -0.1362  0.4751
  287MOL0     C37800   0.266   0.724   0.835  0.2916  0.2287 -0.3239
  287MOL0     C37801   0.370   0.726   0.934 -0.2170 -0.3878 -0.2006
  287MOL0     N37802   1.259   0.772   1.036  0.3177 -0.4538 -0.6835
  287MOL0     N37803   1.371   0.724   1.082  0.2064 -0.7684  0.8117
  287MOL0     C37804   2.513   0.388   1.057  0.1685 -0.3986  0.0479
  287MOL0     C37805   2.640   0.366   0.995 -0.3414  0.5866 -0.1432
  287MOL0     C37806   2.998   0.464   0.737  0.0938  1.2321 -0.0338
  287MOL0     C37807   2.962   0.451   0.596 -0.1071 -0.3123 -0.2473
  287MOL0     C37808   3.065   0.465   0.504 -0.0326  0.3092  0.5942
  287MOL0     C37809   3.197   0.506   0.539  0.2134  0.5686  0.5137
  287MOL0     O37810   3.296   0.525   0.441  0.6083  0.7109 -0.2849
  287MOL0     C37811   3.278   0.521   0.302  0.0094  0.1463  0.4428
  287MOL0     C37812   3.314   0.378   0.260  0.8732  0.0844  0.7380
  287MOL0     C37813   3.384   0.369   0.122  0.2674  0.2876  0.6146
  287MOL0     C37814   3.310   0.416  -0.005 -0.9188  0.6994 -0.2532
  287MOL0     C37815   3.180   0.352  -0.012 -0.3947  0.6634  0.8306
  287MOL0     C37816   3.082   0.279  -0.020  0.3762  0.9869  0.1228
  287MOL0     C37817   3.220   0.544   0.676 -0.3322 -0.0003  0.3559
  287MOL0     C37818   3.125   0.516   0.775  0.2422  0.4398 -0.1017
  287MOL0     H37819   2.607   0.621   0.766  0.0117  2.3500  1.7126
  287MOL0     H37820   2.390   0.648   0.875  2.3914  2.7265 -0.2483
  287MOL0     H37821   2.181   0.597   0.963  1.7007  0.5155  0.3692
  287MOL0     H37822   2.128   0.570   1.133  0.7669  1.3205 -0.4522
  287MOL0     H37823   2.133   0.309   1.085 -1.2763 -0.5005 -0.4376
  287MOL0     H37824   2.205   0.335   0.931 -2.2966 -3.8173 -0.2729
  287MOL0     H37825   2.000   0.281   0.882  0.8590 -0.9492  1.7173
  287MOL0     H37826   2.000   0.459   0.872  2.2479 -1.5427 -0.5903
  287MOL0     H37827   1.904   0.296   1.128  2.8482 -0.4883 -0.9520
  287MOL0     H37828   1.928   0.468   1.107  0.2752  0.1712 -1.6776
  287MOL0     H37829   1.701   0.296   0.970 -1.8200  0.7661 -0.5174
  287MOL0     H37830   1.734   0.467   0.932 -0.6873  1.3531  2.2599
  287MOL0     H37831   1.716   0.516   1.189  0.8933 -1.8271  1.5181
  287MOL0     H37832   1.653   0.351   1.198 -2.2907  1.4681  0.6243
  287MOL0     H37833   1.524   0.524   1.000  1.4191 -1.3137  0.0785
  287MOL0     H37834   1.489   0.367   1.068  0.3966  0.0124 -1.0537
  287MOL0     H37835   1.500   0.591   1.273 -1.9543  1.4648 -0.7117
  287MOL0     H37836   1.396   0.443   1.265 -0.2488  0.6548  1.2391
  287MOL0     H37837   1.151   0.511   1.206 -0.7606  0.9682 -0.6542
  287MOL0     H37838   0.963   0.718   1.162 -0.6742  0.7767 -1.2092
  287MOL0     H37839   0.966   0.594   1.033 -2.6171  1.8308 -3.2879
  287MOL0     H37840   0.947   0.773   0.871  0.9243 -2.3926  0.3379
  287MOL0     H37841   1.001   0.899   0.998 -1.2899  1.5725  0.1953
  287MOL0     H37842   0.799   0.930   1.091  1.9952 -1.9429  1.1489
  287MOL0     H37843   0.781   0.928   0.913 -1.2035 -3.3799 -2.7152
  287MOL0     H37844   0.714   0.714   1.117 -3.0095  0.3172  0.7900
  287MOL0     H37845   0.697   0.686   0.945 -1.3313  1.9067 -2.0150
  287MOL0     H37846   0.580   0.954   0.806  0.6782 -0.5374  1.4325
  287MOL0     H37847   0.391   0.963   0.633 -0.0949 -1.5639 -0.2053
  287MOL0     H37848   0.077   1.129   0.455 -0.2089 -0.9710  1.8670
  287MOL0     H37849  -0.057   1.175   0.259  1.2457  0.3526  1.0709
  287MOL0     H37850  -0.181   1.200   0.061  0.7866 -0.6034 -0.4487
  287MOL0     H37851  -0.299   1.124   0.159  0.3744 -0.5836  0.7823
  287MOL0     H37852  -0.414   1.118  -0.037 -0.5494 -0.8822  0.1600
  287MOL0     H37853  -0.365   0.959  -0.029  0.9164 -0.5665 -2.2617
  287MOL0     H37854  -0.179   1.012  -0.210 -0.1170 -0.1018  2.1118
  287MOL0     H37855  -0.242   1.179  -0.212 -2.6336  2.5105  2.1366
  287MOL0     H37856  -0.408   0.934  -0.265  0.3996  0.2875  0.0501
  287MOL0     H37857  -0.462   1.099  -0.288 -0.8617 -1.9645  0.5248
  287MOL0     H37858  -0.219   1.001  -0.441 -0.5803 -0.3366  0.2096
  287MOL0     H37859  -0.329   1.133  -0.484  1.8345 -1.1887 -0.6152
  287MOL0     H37860  -0.498   0.944  -0.486 -0.0623  3.1745  0.0390
  287MOL0     H37861  -0.364   0.833  -0.498 -3.5308 -0.9252  1.6210
  287MOL0     H37862  -0.354   1.057  -0.700  1.5174  0.3222  0.9510
  287MOL0     H37863  -0.299   0.888  -0.707  2.1386  3.2678 -1.9722
  287MOL0     H37864  -0.526   0.806  -0.708 -0.4236  0.6273  1.6940
  287MOL0     H37865  -0.486   0.908  -0.847  2.3016 -3.1837  0.0092
  287MOL0     H37866  -0.075   0.746   0.180 -2.0746  0.7417  0.4891
  287MOL0     H37867   0.075   0.708   0.375  3.1469  1.0345  1.8237
  287MOL0     H37868   0.180   0.661   0.855  0.4886  0.4025  1.2508
  287MOL0     H37869   0.358   0.651   1.012 -0.0043 -0.0028  0.2010
  287MOL0     H37870   2.496   0.322   1.142  1.5754 -0.4116  0.3377
  287MOL0     H37871   2.713   0.297   1.036 -0.5496  1.0585  1.0644
  287MOL0     H37872   2.860   0.438   0.561 -0.2366  0.2142 -0.0797
  287MOL0     H37873   3.042   0.446   0.400 -1.3593  0.5880  0.8250
  287MOL0     H37874   3.346   0.594   0.257  0.5796 -1.0786 -0.7834
  287MOL0     H37875   3.174   0.536   0.272 -0.3414  1.5203  2.2235
  287MOL0     H37876   3.376   0.342   0.342  1.0590  1.1568  1.0884
  287MOL0     H37877   3.224   0.315   0.265  2.0254 -1.7755 -0.6596
  287MOL0     H37878   3.417   0.266   0.102  2.6840  1.2203 -0.7370
  287MOL0     H37879   3.474   0.430   0.137  0.3983  0.1351  0.4647
  287MOL0     H37880   3.295   0.524   0.007 -1.7157  0.7098 -1.1809
  287MOL0     H37881   3.355   0.395  -0.103 -3.0971 -0.2596 -1.1217
  287MOL0     H37882   2.989   0.231  -0.045  1.1172  0.6105 -2.1315
  287MOL0     H37883   3.321   0.572   0.704  0.3565  0.2850 -2.1845
  287MOL0     H37884   3.150   0.532   0.879 -3.4577 -0.3310  1.0162
  288MOL0     O37885   9.859   2.506   1.283 -0.4302  0.6479 -0.6508
  288MOL0     C37886   9.878   2.569   1.185 -0.5905 -0.1274 -1.1957
  288MOL0     O37887   9.781   2.629   1.105 -0.1042 -0.5307  0.1214
  288MOL0     C37888   9.646   2.606   1.122  0.1026  0.3066  0.4975
  288MOL0     C37889   9.569   2.661   1.223 -0.3229  0.3154  0.2754
  288MOL0     C37890   9.427   2.632   1.229 -0.5095 -0.2823  0.0638
  288MOL0     C37891   9.373   2.543   1.143 -0.0518 -0.0687 -0.1167
  288MOL0     O37892   9.236   2.514   1.154  0.2949 -0.7762 -0.0136
  288MOL0     C37893   9.205   2.381   1.102  0.4586  1.0657  1.0042
  288MOL0     C37894   9.255   2.279   1.198 -0.1870  0.2363  0.1272
  288MOL0     C37895   9.236   2.308   1.347 -0.1618  0.0256 -0.0998
  288MOL0     C37896   9.310   2.209   1.445  0.4704  0.9859  0.7124
  288MOL0     C37897   9.244   2.073   1.461  0.5285 -0.7144 -1.3340
  288MOL0     C37898   9.117   2.082   1.544  0.2572 -0.0429 -0.1260
  288MOL0     C37899   9.052   1.947   1.582 -0.0788  0.2889  0.0753
  288MOL0     C37900   8.988   1.876   1.463 -0.0506  0.1485 -0.4642
  288MOL0     N37901   8.918   1.762   1.512  0.1818  0.2138 -0.0560
  288MOL0     C37902   8.956   1.633   1.480  0.2066  0.4020 -0.3910
  288MOL0     C37903   8.847   1.553   1.504 -0.5651 -0.5781 -0.4979
  288MOL0     C37904   8.826   1.405   1.494  0.4059  0.2594 -0.2726
  288MOL0     C37905   8.835   1.354   1.352 -1.2865  0.3943 -0.2229
  288MOL0     C37906   8.807   1.204   1.342 -0.1617 -0.9795  0.2285
  288MOL0     C37907   8.665   1.161   1.372  0.2258 -0.6528  0.0254
  288MOL0     O37908   8.580   1.190   1.257  0.2485  0.3012 -0.1675
  288MOL0     C37909   8.446   1.180   1.267  0.3003 -1.1730 -0.1602
  288MOL0     C37910   8.376   1.156   1.389 -0.2992  0.7262  0.7954
  288MOL0     C37911   8.235   1.163   1.394 -0.1206 -0.6975  0.3050
  288MOL0     C37912   8.162   1.182   1.271  1.2298  0.2372  0.6997
  288MOL0     C37913   8.012   1.180   1.272  0.4742  0.6328  0.4462
  288MOL0     O37914   7.962   1.149   1.391 -0.1200  0.4570  0.1679
  288MOL0     C37915   7.829   1.148   1.429  0.8617 -0.5217  0.2030
  288MOL0     C37916   7.728   1.204   1.362  0.8535  0.0970 -0.0519
  288MOL0     C37917   7.592   1.199   1.406 -0.3014  0.3692 -1.0516
  288MOL0     C37918   7.562   1.133   1.527 -0.1175  0.2199  1.0105
  288MOL0     O37919   7.431   1.132   1.564  0.5764  0.2629  0.0717
  288MOL0     C37920   7.410   1.098   1.702  0.0680  0.3062  0.0704
  288MOL0     C37921   7.253   1.107   1.710 -0.1354 -0.4893  0.3013
  288MOL0     C37922   7.217   1.055   1.856 -0.3656  0.2042  0.3478
  288MOL0     C37923   7.074   1.096   1.884 -0.2306  0.6466 -0.4931
  288MOL0     C37924   7.016   1.034   2.006  1.0678 -0.2264  0.0836
  288MOL0     C37925   6.866   1.088   2.028  0.2910 -0.4582 -0.5697
  288MOL0     C37926   6.813   1.022   2.160  0.5804 -1.2307 -0.0328
  288MOL0     C37927   6.662   1.070   2.178 -0.0848  0.1665 -0.0568
  288MOL0    Cl37928   6.616   1.015   2.341 -0.3236  0.0062  0.0815
  288MOL0     C37929   7.662   1.062   1.586 -0.2670 -0.3126  0.8425
  288MOL0     C37930   7.792   1.078   1.541 -0.2451  0.4142 -0.1948
  288MOL0     O37931   7.956   1.232   1.174  0.3992  0.0999  0.1205
  288MOL0     C37932   8.234   1.214   1.161  0.0663 -0.3035 -0.7215
  288MOL0     C37933   8.375   1.222   1.155 -0.7406  0.8608 -0.1299
  288MOL0     N37934   8.738   1.637   1.527  0.6499  0.1573 -0.5413
  288MOL0     N37935   8.784   1.749   1.552  0.0599 -0.2224  0.2086
  288MOL0     C37936   9.453   2.484   1.036 -0.0504 -0.2968 -0.0372
  288MOL0     C37937   9.586   2.525   1.025  0.1213 -0.0593 -0.9247
  288MOL0     C37938  10.022   2.589   1.150  0.2155  0.5773 -0.0964
  288MOL0     C37939  10.071   2.662   1.033  0.2725  0.1119 -0.3675
  288MOL0     C37940  10.209   2.698   1.017  0.4075  0.1883 -1.1316
  288MOL0     C37941  10.310   2.660   1.105  0.4574 -0.1414 -0.4822
  288MOL0     O37942  10.445   2.679   1.087 -0.2383  0.4225  0.2678
  288MOL0     C37943  10.513   2.733   0.973  0.0292  0.5707 -0.0938
  288MOL0     C37944  10.661   2.743   1.012  0.4614 -0.0998 -0.0592
  288MOL0     C37945  10.733   2.813   0.901  0.9469  0.4545 -0.7269
  288MOL0     C37946  10.878   2.794   0.912 -0.3061  0.1781 -0.5102
  288MOL0     C37947  10.944   2.852   0.799 -0.4820 -0.1524  0.5588
  288MOL0     C37948  10.992   2.919   0.710  0.3693 -0.3076  0.5774
  288MOL0     C37949  10.259   2.589   1.219  0.4833  0.1084 -0.2367
  288MOL0     C37950  10.124   2.552   1.244 -0.4628 -0.0057 -0.0228
  288MOL0     H37951   9.625   2.724   1.292  0.0405 -0.2184  0.4684
  288MOL0     H37952   9.362   2.677   1.304  0.3315  0.6301  0.2683
  288MOL0     H37953   9.229   2.354   0.999 -0.3129 -2.6333  1.6568
  288MOL0     H37954   9.096   2.378   1.110  0.5130 -0.1671  1.4262
  288MOL0     H37955   9.363   2.268   1.183  0.1012 -0.5282  2.3798
  288MOL0     H37956   9.207   2.184   1.174  2.5074 -0.9839 -0.7961
  288MOL0     H37957   9.128   2.320   1.359 -0.2886 -0.5544 -0.5729
  288MOL0     H37958   9.286   2.402   1.369  3.5509 -1.6899 -0.4448
  288MOL0     H37959   9.412   2.191   1.410  0.2968 -3.5110  1.8568
  288MOL0     H37960   9.316   2.248   1.547  0.5373 -2.4051  2.1490
  288MOL0     H37961   9.311   2.018   1.528  1.7024  2.2767  0.1133
  288MOL0     H37962   9.235   2.021   1.365  2.4524 -1.1103 -1.3440
  288MOL0     H37963   9.039   2.136   1.490  0.8668 -1.0341 -2.0976
  288MOL0     H37964   9.140   2.132   1.638  1.5049 -0.0942 -0.3943
  288MOL0     H37965   9.126   1.889   1.638  3.2501  1.0361 -3.1762
  288MOL0     H37966   8.968   1.965   1.650  0.5274  2.3713  0.3582
  288MOL0     H37967   9.058   1.833   1.391 -2.6464 -1.6231 -2.1105
  288MOL0     H37968   8.919   1.945   1.414  0.9522 -0.8552 -3.5235
  288MOL0     H37969   9.046   1.592   1.436  0.0876 -2.2314  1.6005
  288MOL0     H37970   8.728   1.381   1.537 -0.0239  0.2369 -1.2383
  288MOL0     H37971   8.907   1.350   1.543  1.6613  0.9895 -1.4410
  288MOL0     H37972   8.929   1.385   1.306 -1.8302  3.0988  0.3274
  288MOL0     H37973   8.768   1.407   1.285 -0.4803 -0.2708 -1.5990
  288MOL0     H37974   8.838   1.171   1.243  1.8099  2.6469 -0.5607
  288MOL0     H37975   8.875   1.160   1.416 -0.4744  0.2596  1.2841
  288MOL0     H37976   8.629   1.201   1.467  1.8865 -1.1839  0.9186
  288MOL0     H37977   8.666   1.052   1.366  2.8543 -0.6739 -0.1716
  288MOL0     H37978   8.435   1.108   1.467 -0.0578 -0.4208 -0.0744
  288MOL0     H37979   8.183   1.150   1.488  1.9153 -1.9251  1.3191
  288MOL0     H37980   7.741   1.264   1.272  1.8053  0.1008  0.0761
  288MOL0     H37981   7.507   1.238   1.350 -0.4888  1.0900 -0.2948
  288MOL0     H37982   7.454   1.169   1.773 -1.1707 -0.2378  1.4212
  288MOL0     H37983   7.453   1.002   1.731 -0.8857  0.8158  3.5865
  288MOL0     H37984   7.194   1.059   1.631  1.6172  1.4652 -2.3644
  288MOL0     H37985   7.225   1.212   1.717 -1.4138 -0.7854 -0.0334
  288MOL0     H37986   7.280   1.112   1.924  1.1539  3.0176 -3.0616
  288MOL0     H37987   7.226   0.946   1.863 -1.4165  0.1529  1.1042
  288MOL0     H37988   7.076   1.204   1.899 -1.0304  0.3680  2.0902
  288MOL0     H37989   7.019   1.078   1.791 -0.1731  2.6533 -0.9588
  288MOL0     H37990   7.075   1.061   2.094 -1.0368 -1.5295  2.0145
  288MOL0     H37991   7.012   0.925   1.999 -1.9038 -0.3384  1.7552
  288MOL0     H37992   6.791   1.065   1.953 -1.0009 -0.8171  0.7940
  288MOL0     H37993   6.862   1.198   2.029 -0.3625 -0.4789 -0.5828
  288MOL0     H37994   6.810   0.915   2.140 -3.7909 -0.8869 -2.4200
  288MOL0     H37995   6.873   1.051   2.247 -0.0485 -2.4425  0.8323
  288MOL0     H37996   6.591   1.032   2.104 -0.7980  3.1865 -1.0740
  288MOL0     H37997   6.647   1.179   2.180  0.0178  0.2504  3.8753
  288MOL0     H37998   7.653   0.999   1.674 -2.1612 -1.9974 -0.4787
  288MOL0     H37999   7.872   1.019   1.586  0.2675 -0.1174 -1.7194
  288MOL0     H38000   8.178   1.237   1.071 -0.8134  1.7475  0.2910
  288MOL0     H38001   8.428   1.267   1.071 -2.2507  0.4593 -1.3441
  288MOL0     H38002   9.418   2.408   0.966  0.7416 -2.7410  2.0704
  288MOL0     H38003   9.647   2.489   0.942 -0.5063 -4.1847  0.1989
  288MOL0     H38004   9.995   2.697   0.964 -0.7990 -2.3483 -0.5416
  288MOL0     H38005  10.238   2.758   0.932  1.6221 -1.0424 -1.6243
  288MOL0     H38006  10.479   2.833   0.944 -1.9204  0.0102  0.1297
  288MOL0     H38007  10.491   2.676   0.882 -0.4247  2.8976 -1.5527
  288MOL0     H38008  10.674   2.804   1.102  2.8225 -0.5323 -0.0407
  288MOL0     H38009  10.716   2.649   1.024 -0.0853 -0.4515 -0.2946
  288MOL0     H38010  10.708   2.917   0.879 -0.7520  0.0299 -0.9167
  288MOL0     H38011  10.696   2.765   0.809  2.1263 -0.3303 -0.8236
  288MOL0     H38012  10.916   2.823   1.011  1.7272 -0.0761 -1.1798
  288MOL0     H38013  10.904   2.688   0.906  0.1629  0.2557  0.0162
  288MOL0     H38014  11.031   2.980   0.630 -1.2390  0.6755  0.5065
  288MOL0     H38015  10.332   2.557   1.293  1.4570 -1.4793 -1.8162
  288MOL0     H38016  10.078   2.511   1.334 -2.3429  3.1922  0.6352
  289MOL0     O38017   0.586   7.149   7.280 -0.3719 -0.0548  0.0081
  289MOL0     C38018   0.660   7.095   7.200  0.4413 -0.5539  0.2633
  289MOL0     O38019   0.627   6.996   7.114 -0.2667 -0.8019  0.3359
  289MOL0     C38020   0.499   6.953   7.093  0.4821  0.6560  0.3455
  289MOL0     C38021   0.394   7.032   7.038  0.2480 -0.1878  0.5853
  289MOL0     C38022   0.268   6.972   7.013  0.6927 -0.1761  0.2026
  289MOL0     C38023   0.250   6.838   7.042 -0.0631  0.2129  0.0005
  289MOL0     O38024   0.137   6.760   7.041 -0.0588  0.3013 -0.0115
  289MOL0     C38025   0.011   6.838   7.049  0.0288  0.7783  0.0198
  289MOL0     C38026  -0.107   6.738   7.052  0.3521 -0.6446 -0.3943
  289MOL0     C38027  -0.138   6.660   7.177 -0.6145  0.7323 -1.0343
  289MOL0     C38028  -0.031   6.555   7.209 -0.0744  0.3361 -0.6584
  289MOL0     C38029  -0.090   6.426   7.281  0.4529  0.2736 -0.0293
  289MOL0     C38030   0.024   6.340   7.338  0.5173  0.4631 -0.4981
  289MOL0     C38031   0.038   6.364   7.491  0.9838 -0.0853 -0.6391
  289MOL0     C38032   0.148   6.291   7.550  0.7101 -0.5745  0.5274
  289MOL0     N38033   0.266   6.356   7.506 -0.7674 -0.0724  0.3801
  289MOL0     C38034   0.330   6.440   7.596  0.3544 -0.2024 -0.4461
  289MOL0     C38035   0.456   6.429   7.565  0.2437  0.1787  0.1976
  289MOL0     C38036   0.570   6.512   7.613  0.4359 -0.3169 -0.4705
  289MOL0     C38037   0.657   6.439   7.712 -0.3423  0.7578 -0.2717
  289MOL0     C38038   0.585   6.431   7.847  0.3124  0.2201  0.3817
  289MOL0     C38039   0.573   6.558   7.928  0.4707 -0.4533 -0.3329
  289MOL0     O38040   0.462   6.631   7.873 -0.3316 -0.5024 -0.0716
  289MOL0     C38041   0.333   6.609   7.923 -0.0304  0.5298  0.9847
  289MOL0     C38042   0.289   6.494   7.994 -0.4522  0.6048  0.6665
  289MOL0     C38043   0.156   6.474   8.028  0.8957 -1.1244  0.3235
  289MOL0     C38044   0.057   6.555   7.977 -0.3303  0.0050  0.3293
  289MOL0     C38045  -0.089   6.526   8.011 -0.6196 -0.3656 -0.5114
  289MOL0     O38046  -0.183   6.589   7.934  0.4482  0.8145 -0.9842
  289MOL0     C38047  -0.318   6.571   7.975  0.0547 -0.6187 -0.4572
  289MOL0     C38048  -0.389   6.453   7.995  0.1384  0.2354  0.3595
  289MOL0     C38049  -0.531   6.453   8.035 -1.6116 -0.6181  0.2941
  289MOL0     C38050  -0.597   6.576   8.059 -0.2201 -0.1739 -0.8378
  289MOL0     O38051  -0.730   6.573   8.063  0.3014  0.8638  0.2915
  289MOL0     C38052  -0.810   6.507   7.962 -0.4089  0.0431  0.4348
  289MOL0     C38053  -0.939   6.487   8.045  0.4858 -0.2464  0.3549
  289MOL0     C38054  -0.924   6.364   8.135 -0.0526  0.2095  0.3762
  289MOL0     C38055  -1.055   6.340   8.211 -0.3803  0.2406  0.4444
  289MOL0     C38056  -1.050   6.243   8.321 -0.8883  0.1834  0.4165
  289MOL0     C38057  -1.179   6.217   8.386  0.5325  0.3783  0.1141
  289MOL0     C38058  -1.285   6.329   8.399 -0.0011  0.0643  0.0007
  289MOL0     C38059  -1.383   6.309   8.515 -0.1875  0.4459 -0.0100
  289MOL0    Cl38060  -1.514   6.197   8.479 -0.2212 -0.2411  0.2446
  289MOL0     C38061  -0.524   6.692   8.043 -0.5401  0.2905 -0.7221
  289MOL0     C38062  -0.394   6.690   7.995 -0.1077  0.3794 -0.7231
  289MOL0     O38063  -0.112   6.467   8.112  1.0996 -0.0327  0.6049
  289MOL0     C38064   0.093   6.669   7.899  0.1060  0.2471  0.5403
  289MOL0     C38065   0.225   6.681   7.869 -0.8581 -0.1919 -0.3856
  289MOL0     N38066   0.465   6.358   7.443 -0.8525  0.0537 -0.5148
  289MOL0     N38067   0.350   6.313   7.404  0.6871 -0.8380 -0.5567
  289MOL0     C38068   0.355   6.756   7.084  0.0084  0.5309  0.8069
  289MOL0     C38069   0.482   6.812   7.107 -0.0186  0.2710 -0.1046
  289MOL0     C38070   0.794   7.158   7.187 -0.1154  0.0961  0.1394
  289MOL0     C38071   0.884   7.131   7.083  0.0672  0.1229  0.4241
  289MOL0     C38072   0.998   7.203   7.062 -0.7774 -0.4141  0.4063
  289MOL0     C38073   1.035   7.312   7.145  0.0400  0.6645 -0.9619
  289MOL0     O38074   1.148   7.381   7.113 -0.6603  0.0440 -0.5323
  289MOL0     C38075   1.234   7.400   7.230  0.4162  0.3736  0.0932
  289MOL0     C38076   1.374   7.361   7.191 -0.7143 -0.3303  0.3716
  289MOL0     C38077   1.463   7.477   7.157  0.8438  0.1217 -1.0483
  289MOL0     C38078   1.613   7.430   7.115  0.5835  0.3860 -0.0335
  289MOL0     C38079   1.699   7.541   7.107  0.0833  0.3988  0.2851
  289MOL0     C38080   1.762   7.642   7.115 -0.0301  0.6963  0.0699
  289MOL0     C38081   0.955   7.339   7.257 -0.6708  0.5523 -0.3386
  289MOL0     C38082   0.840   7.259   7.280  0.8014 -0.3610 -0.2014
  289MOL0     H38083   0.416   7.135   7.014 -2.9744  0.3554 -0.5412
  289MOL0     H38084   0.183   7.031   6.979 -1.8776 -3.4509  0.4278
  289MOL0     H38085  -0.009   6.908   6.968 -0.0676  0.3518 -0.3313
  289MOL0     H38086   0.014   6.900   7.139  0.5179 -0.0825  0.6253
  289MOL0     H38087  -0.097   6.661   6.975 -1.2244 -0.9853 -0.2738
  289MOL0     H38088  -0.196   6.801   7.040  2.0177  2.6159  2.5705
  289MOL0     H38089  -0.234   6.607   7.172 -0.1400 -0.0923 -1.9103
  289MOL0     H38090  -0.152   6.726   7.262  0.2910  0.3559 -0.5815
  289MOL0     H38091   0.033   6.526   7.125  0.7620 -0.4042  0.2227
  289MOL0     H38092   0.046   6.608   7.267  0.2680  0.8860 -1.5821
  289MOL0     H38093  -0.157   6.369   7.216  0.2875  1.3166 -0.7905
  289MOL0     H38094  -0.147   6.451   7.372  0.4655 -0.1470  0.0972
  289MOL0     H38095   0.119   6.352   7.286  1.2833 -2.6416 -0.0558
  289MOL0     H38096   0.001   6.233   7.331  1.4046  0.2582 -0.3577
  289MOL0     H38097   0.045   6.469   7.520  1.6488 -0.5011  0.7962
  289MOL0     H38098  -0.047   6.316   7.541  0.9706  0.0615 -0.5214
  289MOL0     H38099   0.137   6.188   7.515 -3.6444 -0.1000  0.0330
  289MOL0     H38100   0.145   6.283   7.659 -0.4298 -1.7874  0.4273
  289MOL0     H38101   0.282   6.499   7.674  0.7743 -0.4639  0.0155
  289MOL0     H38102   0.527   6.601   7.659  1.3649  0.9291 -1.9004
  289MOL0     H38103   0.619   6.532   7.517  1.4419 -3.2071 -0.6410
  289MOL0     H38104   0.746   6.503   7.720 -0.0127  0.2949 -0.1622
  289MOL0     H38105   0.690   6.340   7.676 -0.7910  0.1340  0.9776
  289MOL0     H38106   0.487   6.385   7.833  0.7784 -0.8252  0.4067
  289MOL0     H38107   0.638   6.364   7.916 -2.1255 -1.1417  1.0519
  289MOL0     H38108   0.666   6.616   7.925 -0.7578  1.6839  0.6490
  289MOL0     H38109   0.551   6.529   8.031  1.4388 -0.5685 -0.1500
  289MOL0     H38110   0.358   6.415   8.022 -1.1143  0.2038  1.1905
  289MOL0     H38111   0.133   6.383   8.082 -2.4908 -0.9829 -0.6822
  289MOL0     H38112  -0.330   6.364   7.979 -0.1466 -0.0620  0.9453
  289MOL0     H38113  -0.577   6.355   8.043 -0.1423 -1.3606  0.0267
  289MOL0     H38114  -0.763   6.422   7.912  2.3787  2.3539 -1.2230
  289MOL0     H38115  -0.838   6.579   7.884  2.4604  1.6491  0.7481
  289MOL0     H38116  -1.016   6.462   7.971  1.6115  0.6492 -1.1946
  289MOL0     H38117  -0.963   6.575   8.105  1.5151 -0.1137  0.5902
  289MOL0     H38118  -0.847   6.382   8.211  0.6410  0.0059 -0.2552
  289MOL0     H38119  -0.899   6.274   8.078 -4.9358 -0.7972 -0.6249
  289MOL0     H38120  -1.093   6.438   8.241 -0.3361  0.7881 -1.1571
  289MOL0     H38121  -1.124   6.298   8.136  2.1815 -0.2121 -1.7971
  289MOL0     H38122  -0.970   6.284   8.383 -0.0169  1.5411 -1.4813
  289MOL0     H38123  -1.016   6.149   8.278 -3.0769  0.0310 -1.1467
  289MOL0     H38124  -1.153   6.192   8.489  2.4103 -0.0047 -0.4079
  289MOL0     H38125  -1.220   6.126   8.343  0.7372  0.2005  0.2957
  289MOL0     H38126  -1.225   6.416   8.426  0.7661  0.1730 -1.8978
  289MOL0     H38127  -1.334   6.351   8.304  2.5801  0.4677 -1.3532
  289MOL0     H38128  -1.411   6.407   8.553  3.0929  1.1662  0.8197
  289MOL0     H38129  -1.331   6.260   8.598 -0.3913  0.9873  0.4407
  289MOL0     H38130  -0.571   6.790   8.053 -2.5691 -0.5638 -1.4262
  289MOL0     H38131  -0.332   6.779   7.990 -0.4946  0.6823 -0.2340
  289MOL0     H38132   0.019   6.738   7.858 -2.6636 -3.0665 -0.5879
  289MOL0     H38133   0.255   6.763   7.804 -0.8710  0.1565  0.0411
  289MOL0     H38134   0.346   6.653   7.118  2.1402 -0.6706 -1.8982
  289MOL0     H38135   0.549   6.746   7.162  0.1756  0.3191 -0.2845
  289MOL0     H38136   0.855   7.051   7.016 -2.9574 -1.0280  2.8484
  289MOL0     H38137   1.060   7.177   6.978  0.0863  2.2936  0.0990
  289MOL0     H38138   1.202   7.339   7.315  0.8373 -0.5225 -0.3709
  289MOL0     H38139   1.233   7.503   7.267 -1.2496  0.6712 -0.6528
  289MOL0     H38140   1.421   7.292   7.261  1.2346 -2.4915 -2.7833
  289MOL0     H38141   1.362   7.301   7.100 -1.6393  4.3172 -2.9374
  289MOL0     H38142   1.469   7.536   7.249 -0.0079 -1.8156  0.3352
  289MOL0     H38143   1.417   7.534   7.077 -0.6955 -3.0558 -2.6199
  289MOL0     H38144   1.649   7.352   7.183 -0.8800 -2.0155 -1.8328
  289MOL0     H38145   1.602   7.373   7.023 -1.4312 -0.9014  0.9292
  289MOL0     H38146   1.827   7.727   7.104 -0.5514  0.8948 -1.9777
  289MOL0     H38147   0.977   7.422   7.323 -0.2845 -0.2203  0.5213
  289MOL0     H38148   0.801   7.271   7.381  1.4185  0.3589 -0.0407
  290MOL0     O38149   7.953   9.726   1.112  0.4560  0.2103  0.3286
  290MOL0     C38150   7.959   9.750   0.997 -0.1495 -0.6439  0.5350
  290MOL0     O38151   7.869   9.723   0.897 -0.6574 -0.0142  0.0191
  290MOL0     C38152   7.745   9.664   0.926  0.3476  0.1552 -1.0498
  290MOL0     C38153   7.670   9.658   1.045  0.6256  0.4597  1.0669
  290MOL0     C38154   7.546   9.594   1.052 -0.5389 -0.3429  0.9011
  290MOL0     C38155   7.485   9.558   0.930 -0.2966 -0.3928  0.9607
  290MOL0     O38156   7.361   9.507   0.915  0.1754 -0.4337  0.1208
  290MOL0     C38157   7.289   9.472   1.036  0.1512 -0.3665 -1.2448
  290MOL0     C38158   7.146   9.429   1.005 -0.0222  0.6289 -0.0364
  290MOL0     C38159   7.065   9.536   0.930  0.0667 -0.0524 -0.8719
  290MOL0     C38160   6.925   9.501   0.900  0.7253 -0.1927  0.2944
  290MOL0     C38161   6.824   9.621   0.940  0.8316 -0.0530 -0.2308
  290MOL0     C38162   6.676   9.564   0.920 -1.0286 -0.3500  0.5869
  290MOL0     C38163   6.581   9.679   0.909  0.9269 -0.6343 -0.1683
  290MOL0     C38164   6.439   9.624   0.901  1.1323 -0.3301  0.4463
  290MOL0     N38165   6.329   9.718   0.917  0.2289  0.5536 -0.8188
  290MOL0     C38166   6.309   9.807   1.020  0.2671  0.5778 -0.1748
  290MOL0     C38167   6.197   9.865   0.989  1.0824 -0.9521  1.1806
  290MOL0     C38168   6.128   9.981   1.052 -0.2382 -0.3234 -0.5552
  290MOL0     C38169   6.033   9.944   1.156 -0.5949  0.1282 -0.3295
  290MOL0     C38170   5.916   9.844   1.134 -1.0122 -0.0278 -0.9481
  290MOL0     C38171   5.841   9.810   1.261  0.1265 -0.6418  0.0681
  290MOL0     O38172   5.735   9.715   1.235  0.4986 -0.1623  0.2995
  290MOL0     C38173   5.617   9.706   1.311 -0.7281 -0.0722  0.4487
  290MOL0     C38174   5.531   9.605   1.272 -0.8746 -0.1685 -0.5823
  290MOL0     C38175   5.414   9.575   1.347  0.3860  0.5169  1.0746
  290MOL0     C38176   5.388   9.654   1.464 -0.1545 -0.5991  0.1976
  290MOL0     C38177   5.279   9.625   1.561 -0.3562  0.2477 -0.7437
  290MOL0     O38178   5.250   9.721   1.659  0.4553 -0.0229  0.2475
  290MOL0     C38179   5.142   9.713   1.746 -0.5053 -0.0254 -0.3724
  290MOL0     C38180   5.084   9.836   1.787  0.6754  0.1955  0.1802
  290MOL0     C38181   4.975   9.830   1.879  0.5549 -1.0239  0.4215
  290MOL0     C38182   4.919   9.712   1.931 -0.6346 -0.5193  0.5102
  290MOL0     O38183   4.823   9.712   2.029 -0.3702 -0.2910 -0.1453
  290MOL0     C38184   4.716   9.800   2.015 -0.4399  0.1240  1.0496
  290MOL0     C38185   4.691   9.875   2.148 -1.3307  0.3066 -0.5208
  290MOL0     C38186   4.560   9.959   2.146 -0.3200 -0.3192 -0.4914
  290MOL0     C38187   4.541  10.041   2.279  0.4770  0.1960  0.6910
  290MOL0     C38188   4.421  10.133   2.255  0.0777  0.3402  0.1877
  290MOL0     C38189   4.282  10.069   2.225 -0.1954  0.4999 -0.6499
  290MOL0     C38190   4.215   9.994   2.345  0.5550 -0.2209 -0.3025
  290MOL0     C38191   4.200  10.086   2.461 -0.9018 -0.0353  0.5488
  290MOL0    Cl38192   4.080  10.013   2.582  0.6556 -0.7413 -0.1528
  290MOL0     C38193   4.985   9.594   1.898  0.0495  0.9099 -0.2214
  290MOL0     C38194   5.095   9.596   1.804  0.8312 -0.7954 -0.1591
  290MOL0     O38195   5.217   9.519   1.548  0.5530 -1.2732  0.7198
  290MOL0     C38196   5.479   9.755   1.491  0.3882 -0.6140 -1.0301
  290MOL0     C38197   5.596   9.787   1.420 -0.2253  0.7180 -0.3397
  290MOL0     N38198   6.158   9.833   0.857  0.1811  0.1444  0.4333
  290MOL0     N38199   6.231   9.735   0.819  0.0624 -0.1988 -0.2387
  290MOL0     C38200   7.563   9.573   0.813 -0.5044  0.2967 -0.0919
  290MOL0     C38201   7.689   9.616   0.811 -0.8541 -0.0930 -0.9748
  290MOL0     C38202   8.091   9.810   0.963 -0.3260 -0.0497 -0.2358
  290MOL0     C38203   8.133   9.831   0.830  0.6597  0.6916 -0.5187
  290MOL0     C38204   8.263   9.868   0.795 -0.4087 -0.0056 -0.4583
  290MOL0     C38205   8.355   9.887   0.897  0.3192 -0.1599  0.0039
  290MOL0     O38206   8.487   9.919   0.859  0.2022 -0.3054 -0.3754
  290MOL0     C38207   8.597   9.918   0.962 -0.0052  0.1025 -0.4634
  290MOL0     C38208   8.737   9.935   0.904  0.1625 -0.9963  0.0851
  290MOL0     C38209   8.745  10.068   0.815  0.0489  0.4537 -0.2291
  290MOL0     C38210   8.889  10.099   0.775  0.1618 -0.8752  0.3389
  290MOL0     C38211   8.961   9.979   0.729 -0.1593  0.2303 -0.2405
  290MOL0     C38212   9.025   9.884   0.684  0.0821  0.8674  0.3206
  290MOL0     C38213   8.318   9.870   1.031 -0.0873 -0.4624 -0.7360
  290MOL0     C38214   8.185   9.842   1.063 -0.4927  0.1380 -1.1862
  290MOL0     H38215   7.707   9.697   1.139 -1.4174  1.9010  1.3565
  290MOL0     H38216   7.505   9.577   1.151 -3.0002 -2.3029 -0.3350
  290MOL0     H38217   7.289   9.556   1.106  3.7296 -0.5619 -0.8314
  290MOL0     H38218   7.341   9.392   1.089 -2.5890 -1.9461 -0.7389
  290MOL0     H38219   7.090   9.407   1.097 -2.5735  2.1439 -1.1197
  290MOL0     H38220   7.156   9.342   0.940  3.5461  1.2142 -0.4433
  290MOL0     H38221   7.109   9.571   0.836  0.7530  1.9606  0.1357
  290MOL0     H38222   7.064   9.627   0.991 -2.4736  0.6526 -1.8523
  290MOL0     H38223   6.921   9.469   0.795  0.1469  0.7284  0.0238
  290MOL0     H38224   6.894   9.419   0.965 -1.9393  0.7359  0.2981
  290MOL0     H38225   6.851   9.704   0.874 -0.4300  0.5755 -0.0039
  290MOL0     H38226   6.839   9.668   1.037  0.8978  1.6345 -1.0112
  290MOL0     H38227   6.663   9.510   1.014  0.3993  0.0754  1.0485
  290MOL0     H38228   6.674   9.502   0.830  4.0785  0.6276 -0.4887
  290MOL0     H38229   6.604   9.737   0.999 -0.0851 -3.0980  1.8139
  290MOL0     H38230   6.598   9.731   0.814  0.3216 -0.6590 -0.2928
  290MOL0     H38231   6.425   9.553   0.983 -0.9694  1.3772  1.6556
  290MOL0     H38232   6.403   9.576   0.810  1.0214  0.0022  0.3139
  290MOL0     H38233   6.353   9.834   1.115 -1.5970  1.9365  0.3560
  290MOL0     H38234   6.072  10.026   0.971  0.6221 -0.4508 -1.2356
  290MOL0     H38235   6.206  10.048   1.091 -1.3445 -0.1929  1.5890
  290MOL0     H38236   5.986  10.034   1.198  1.8942  0.6367  1.6289
  290MOL0     H38237   6.095   9.897   1.233 -0.7519 -3.1472 -2.0445
  290MOL0     H38238   5.843   9.874   1.058 -1.6551  0.4681 -0.1431
  290MOL0     H38239   5.959   9.752   1.094  4.3020  0.2577  2.9611
  290MOL0     H38240   5.812   9.905   1.306  1.8740  1.8944 -3.7307
  290MOL0     H38241   5.909   9.760   1.331 -0.3168  1.7779  2.4010
  290MOL0     H38242   5.564   9.558   1.179  1.5057 -0.8217  0.5198
  290MOL0     H38243   5.343   9.498   1.318  0.6317 -0.0782  2.0284
  290MOL0     H38244   5.120   9.933   1.753  0.1605 -0.1446 -1.4420
  290MOL0     H38245   4.939   9.926   1.914 -1.1520 -1.9605  1.3629
  290MOL0     H38246   4.634   9.741   1.973  0.9727 -0.0298 -1.7151
  290MOL0     H38247   4.739   9.871   1.935  1.1079 -1.5758 -0.1145
  290MOL0     H38248   4.774   9.934   2.187 -2.4318  0.1004  2.4430
  290MOL0     H38249   4.675   9.807   2.233 -1.1329  1.3052  0.3289
  290MOL0     H38250   4.481   9.884   2.135 -1.4570  0.6830  0.4567
  290MOL0     H38251   4.569  10.024   2.058  1.6634 -1.1271 -0.9401
  290MOL0     H38252   4.511   9.987   2.370  0.2575  0.3151  0.6917
  290MOL0     H38253   4.627  10.103   2.305  1.1589 -0.8405  0.9424
  290MOL0     H38254   4.451  10.210   2.183 -1.3827  1.5155  0.7888
  290MOL0     H38255   4.416  10.184   2.351  0.0326  0.8102 -0.0617
  290MOL0     H38256   4.281  10.003   2.138  1.0715 -0.4549  0.0136
  290MOL0     H38257   4.226  10.156   2.191 -0.7771 -0.2119 -1.5390
  290MOL0     H38258   4.117   9.958   2.313  0.9391 -2.7327  1.1025
  290MOL0     H38259   4.263   9.906   2.387 -1.4241 -0.5068  1.5595
  290MOL0     H38260   4.164  10.183   2.425 -1.1162 -1.0413 -2.1518
  290MOL0     H38261   4.298  10.110   2.502 -0.3218  1.5029 -1.5741
  290MOL0     H38262   4.951   9.498   1.936  3.0142  0.2889  1.1797
  290MOL0     H38263   5.150   9.506   1.778  0.2794 -0.4292 -2.8261
  290MOL0     H38264   5.458   9.813   1.581 -2.3817 -1.3458 -1.1067
  290MOL0     H38265   5.664   9.867   1.448  1.0708 -0.5071  0.1258
  290MOL0     H38266   7.514   9.572   0.716  2.0921  1.8233 -1.5425
  290MOL0     H38267   7.755   9.604   0.726  0.0281 -1.8444 -0.1119
  290MOL0     H38268   8.058   9.832   0.751  0.7036  0.3116 -0.5633
  290MOL0     H38269   8.277   9.883   0.689 -3.2842 -0.3878 -0.9650
  290MOL0     H38270   8.584   9.826   1.020 -1.1610  0.5441 -0.0038
  290MOL0     H38271   8.586  10.002   1.031  0.6995 -2.0231  2.4357
  290MOL0     H38272   8.811   9.946   0.983 -2.8352  1.0095  2.8787
  290MOL0     H38273   8.769   9.844   0.851  1.8510 -1.0340  1.0999
  290MOL0     H38274   8.706  10.156   0.868 -0.8073 -1.1693  1.9625
  290MOL0     H38275   8.691  10.056   0.721  1.3799  2.6216 -1.3525
  290MOL0     H38276   8.900  10.186   0.709  1.5572 -0.0304  1.6245
  290MOL0     H38277   8.944  10.128   0.865  3.2277  0.7663 -1.8959
  290MOL0     H38278   9.099   9.810   0.659  0.7264  0.3793  3.3063
  290MOL0     H38279   8.383   9.891   1.115 -1.3628  1.2893 -0.1425
  290MOL0     H38280   8.159   9.819   1.166  3.4079 -0.6989 -0.2241
  291MOL0     O38281   1.832   2.149   6.163  0.4141 -0.6703 -0.3451
  291MOL0     C38282   1.866   2.205   6.266 -0.3040 -0.1327 -0.9205
  291MOL0     O38283   1.782   2.270   6.354  0.0490 -0.1553  0.6241
  291MOL0     C38284   1.645   2.282   6.343 -0.7193  0.2949 -0.6621
  291MOL0     C38285   1.558   2.175   6.373 -0.1316  0.5194 -0.2233
  291MOL0     C38286   1.418   2.182   6.374 -0.6278  0.1136  0.2254
  291MOL0     C38287   1.356   2.310   6.360 -0.1779  0.2033 -0.6457
  291MOL0     O38288   1.225   2.341   6.370 -0.2787  0.5874  0.2851
  291MOL0     C38289   1.125   2.236   6.349 -0.3428 -0.1855 -0.5641
  291MOL0     C38290   0.997   2.301   6.326 -1.0439 -0.4988  0.2108
  291MOL0     C38291   0.935   2.289   6.189  0.1151 -0.4229  0.8409
  291MOL0     C38292   0.812   2.378   6.174  0.1035 -0.2755  0.2148
  291MOL0     C38293   0.845   2.519   6.110  0.3775 -0.4093  0.2741
  291MOL0     C38294   0.714   2.602   6.088 -0.1127  0.7533  0.6624
  291MOL0     C38295   0.737   2.734   6.009 -0.1615  0.2812  0.2267
  291MOL0     C38296   0.834   2.835   6.076  0.1830 -0.6107 -0.1805
  291MOL0     N38297   0.784   2.886   6.209  0.2518  0.6528 -0.2439
  291MOL0     C38298   0.652   2.909   6.244  0.3616  0.1848 -0.2790
  291MOL0     C38299   0.662   2.935   6.375  0.3442  0.4366 -0.3209
  291MOL0     C38300   0.551   2.954   6.474  0.1972  0.4490 -0.1547
  291MOL0     C38301   0.485   3.089   6.448  0.0348  0.0625  0.0993
  291MOL0     C38302   0.350   3.112   6.524  0.1052 -0.5115  0.5068
  291MOL0     C38303   0.281   3.223   6.458 -0.3144  0.5355  0.3345
  291MOL0     O38304   0.184   3.269   6.556  0.0615  0.2237 -0.1794
  291MOL0     C38305   0.054   3.269   6.510 -0.4489  1.0298 -0.0196
  291MOL0     C38306  -0.045   3.207   6.586 -1.1546  0.4366  1.0339
  291MOL0     C38307  -0.178   3.210   6.556  1.1435 -0.5857  0.8991
  291MOL0     C38308  -0.221   3.251   6.430 -0.7086 -0.0940 -0.2228
  291MOL0     C38309  -0.357   3.237   6.388  0.0627  0.6800 -0.7167
  291MOL0     O38310  -0.393   3.284   6.266 -0.2503  0.1685  0.5708
  291MOL0     C38311  -0.527   3.268   6.233 -0.0860  0.0606  0.1001
  291MOL0     C38312  -0.569   3.213   6.111 -0.8479  0.0246  0.3973
  291MOL0     C38313  -0.700   3.208   6.060 -0.2019 -0.2537 -0.4780
  291MOL0     C38314  -0.806   3.261   6.137  0.3296 -0.3850 -0.2558
  291MOL0     O38315  -0.929   3.248   6.090 -0.2473 -0.1770 -0.4374
  291MOL0     C38316  -1.036   3.349   6.123 -0.9360  0.1927  1.7376
  291MOL0     C38317  -1.137   3.376   6.014  0.0219  0.6242 -0.1680
  291MOL0     C38318  -1.072   3.414   5.878  0.1800 -0.8443  0.3513
  291MOL0     C38319  -1.184   3.407   5.770  0.2249 -0.1691  0.3140
  291MOL0     C38320  -1.146   3.505   5.662  0.5175 -0.1421  0.9168
  291MOL0     C38321  -1.247   3.490   5.548  0.1328 -0.3545 -0.2318
  291MOL0     C38322  -1.226   3.611   5.452  0.0834 -1.3080 -0.2937
  291MOL0     C38323  -1.314   3.619   5.327 -0.3923 -0.0058  0.7521
  291MOL0    Cl38324  -1.485   3.643   5.367  0.1056 -0.0899 -0.2758
  291MOL0     C38325  -0.770   3.328   6.260 -0.2680  0.0818 -0.3097
  291MOL0     C38326  -0.632   3.327   6.302 -0.8749 -0.1248 -0.0425
  291MOL0     O38327  -0.433   3.167   6.461  0.1300 -0.5731 -0.2181
  291MOL0     C38328  -0.128   3.316   6.347  0.4058 -0.2242  0.2533
  291MOL0     C38329   0.008   3.325   6.391  0.8258 -0.2230  0.1761
  291MOL0     N38330   0.798   2.949   6.413 -0.9787  0.2895  0.0849
  291MOL0     N38331   0.868   2.907   6.310  0.0823 -0.0426  0.3041
  291MOL0     C38332   1.442   2.419   6.332  0.4793 -0.5182  0.2782
  291MOL0     C38333   1.578   2.408   6.329  0.1810  0.8398  1.2205
  291MOL0     C38334   2.015   2.212   6.285  0.6247 -1.2112 -0.5485
  291MOL0     C38335   2.067   2.224   6.415 -0.0495  0.4834 -0.0080
  291MOL0     C38336   2.208   2.223   6.437  0.2227 -0.2569  0.4401
  291MOL0     C38337   2.299   2.212   6.327 -0.3843 -0.7143 -1.1150
  291MOL0     O38338   2.444   2.217   6.324 -0.5175  0.2191  0.2193
  291MOL0     C38339   2.509   2.180   6.445 -0.4154  0.4606  0.0622
  291MOL0     C38340   2.656   2.182   6.452  0.1774  0.2797 -0.0643
  291MOL0     C38341   2.701   2.121   6.585 -0.6312 -0.0127 -0.3341
  291MOL0     C38342   2.856   2.135   6.594  0.0426 -0.3268 -0.6051
  291MOL0     C38343   2.903   2.275   6.583  0.3003 -0.5690  0.2018
  291MOL0     C38344   2.952   2.389   6.573 -0.3368 -0.2041 -1.1991
  291MOL0     C38345   2.247   2.206   6.205  0.2842  0.3868  0.4719
  291MOL0     C38346   2.113   2.209   6.183 -0.4524  1.1772 -0.5073
  291MOL0     H38347   1.603   2.080   6.399  1.2098  1.0668 -0.4730
  291MOL0     H38348   1.355   2.100   6.408 -0.3708  0.7273  2.3381
  291MOL0     H38349   1.129   2.166   6.434 -0.8608  0.2955 -0.1333
  291MOL0     H38350   1.148   2.169   6.266  0.8224 -1.0007  0.3713
  291MOL0     H38351   1.014   2.407   6.347  3.8480 -0.5152 -2.1970
  291MOL0     H38352   0.929   2.261   6.402  0.1506 -0.5812  1.2599
  291MOL0     H38353   0.903   2.184   6.181  0.2765 -0.6342  2.6330
  291MOL0     H38354   1.014   2.313   6.117  1.2486  0.1304  2.2315
  291MOL0     H38355   0.756   2.313   6.107 -1.6460 -0.5632  1.8972
  291MOL0     H38356   0.757   2.384   6.268  1.8283 -0.6870  1.2970
  291MOL0     H38357   0.915   2.515   6.026  0.8003  0.7078  0.5515
  291MOL0     H38358   0.907   2.563   6.189  4.6128 -2.2436 -1.6836
  291MOL0     H38359   0.672   2.621   6.188 -0.8158  0.5732  0.4039
  291MOL0     H38360   0.647   2.533   6.037  2.2795 -1.4603  0.3197
  291MOL0     H38361   0.766   2.702   5.908 -4.7483  0.7165 -1.4411
  291MOL0     H38362   0.642   2.786   5.999 -0.2044  1.4775  4.8415
  291MOL0     H38363   0.843   2.920   6.007  0.5028 -2.0662 -2.0370
  291MOL0     H38364   0.932   2.787   6.078  0.0930 -0.7940  2.7145
  291MOL0     H38365   0.557   2.896   6.192 -0.2149 -0.2108  0.8498
  291MOL0     H38366   0.593   2.958   6.576  3.8344 -0.7338 -1.4252
  291MOL0     H38367   0.485   2.868   6.459  1.1980 -0.0585 -2.0093
  291MOL0     H38368   0.459   3.097   6.342 -2.7816  0.3852  0.7304
  291MOL0     H38369   0.555   3.169   6.475  0.1607  0.6560 -1.8180
  291MOL0     H38370   0.285   3.024   6.524 -0.5387 -0.0441 -0.3783
  291MOL0     H38371   0.379   3.148   6.623  1.7679  2.3298 -0.8837
  291MOL0     H38372   0.243   3.182   6.364  0.3412 -3.3827  1.6098
  291MOL0     H38373   0.350   3.305   6.435  1.5589 -0.9482  0.4838
  291MOL0     H38374  -0.033   3.155   6.681 -1.0097 -0.6296  0.4470
  291MOL0     H38375  -0.251   3.165   6.623 -1.5939 -0.7894 -1.9888
  291MOL0     H38376  -0.485   3.177   6.052 -2.2062 -1.7270 -0.5581
  291MOL0     H38377  -0.716   3.175   5.958  1.7646  1.7828 -1.5217
  291MOL0     H38378  -0.989   3.447   6.140 -1.7938  1.1785 -1.1032
  291MOL0     H38379  -1.084   3.317   6.216 -2.2733 -1.1495  0.6339
  291MOL0     H38380  -1.209   3.452   6.043 -3.8414 -1.3501 -3.5506
  291MOL0     H38381  -1.186   3.279   6.007  1.5435 -0.4322  2.4603
  291MOL0     H38382  -0.993   3.341   5.862 -1.4536 -2.3065 -1.4635
  291MOL0     H38383  -1.026   3.513   5.890  0.4945 -0.6863 -1.7300
  291MOL0     H38384  -1.195   3.303   5.736 -3.7558 -0.3333  1.5523
  291MOL0     H38385  -1.279   3.440   5.813 -0.8721 -3.1330  0.4358
  291MOL0     H38386  -1.040   3.491   5.640  1.4826  2.5477  3.2947
  291MOL0     H38387  -1.150   3.609   5.696 -2.6495  0.0364  0.2585
  291MOL0     H38388  -1.350   3.491   5.587 -0.5844 -3.0618 -1.7344
  291MOL0     H38389  -1.234   3.398   5.489  0.8944  0.1054 -0.8009
  291MOL0     H38390  -1.240   3.701   5.511 -0.1541 -1.9059  0.5823
  291MOL0     H38391  -1.122   3.617   5.419 -0.3399  1.5884 -1.3423
  291MOL0     H38392  -1.285   3.527   5.274  0.3410 -0.1300  1.3535
  291MOL0     H38393  -1.274   3.695   5.259  1.0098 -2.5172 -1.4832
  291MOL0     H38394  -0.853   3.370   6.315  1.3167 -1.0064  3.2153
  291MOL0     H38395  -0.599   3.357   6.401  1.6584  1.4535 -1.2629
  291MOL0     H38396  -0.166   3.356   6.254  0.6239  2.5048  1.2471
  291MOL0     H38397   0.062   3.383   6.317 -0.5972  0.2151 -0.5470
  291MOL0     H38398   1.392   2.510   6.302  2.7312 -0.2124 -3.0609
  291MOL0     H38399   1.631   2.498   6.300 -0.4929  0.7472 -0.3551
  291MOL0     H38400   1.996   2.243   6.495  0.0340  0.8567 -0.0215
  291MOL0     H38401   2.240   2.254   6.536 -1.7355  1.9296  0.4996
  291MOL0     H38402   2.469   2.080   6.465 -3.7413  1.6507  0.1218
  291MOL0     H38403   2.477   2.236   6.533 -0.8870 -2.5928  1.9952
  291MOL0     H38404   2.686   2.131   6.360 -1.2347  0.2205 -0.5078
  291MOL0     H38405   2.682   2.288   6.445  0.8694  0.0207 -2.0658
  291MOL0     H38406   2.674   2.015   6.586  1.6986 -0.6624  0.5786
  291MOL0     H38407   2.656   2.169   6.672 -0.5672  0.0493 -0.3348
  291MOL0     H38408   2.888   2.093   6.690  2.7845  1.6504 -0.5394
  291MOL0     H38409   2.901   2.074   6.515  1.9264 -4.1117  2.9947
  291MOL0     H38410   2.998   2.480   6.541 -2.1173 -0.1344 -3.8952
  291MOL0     H38411   2.303   2.193   6.112 -2.0956  2.3847 -1.3903
  291MOL0     H38412   2.076   2.185   6.084  1.7228 -2.6394 -0.5736
  292MOL0     O38413   5.153   0.163   0.936  0.5872 -0.3995  0.6024
  292MOL0     C38414   5.162   0.099   0.837  0.1851 -0.1437  0.5467
  292MOL0     O38415   5.064   0.091   0.736 -0.6726 -0.1791  0.1922
  292MOL0     C38416   4.938   0.120   0.755 -0.4137  0.4926 -0.0840
  292MOL0     C38417   4.865   0.156   0.639  0.0920 -0.0917  0.1972
  292MOL0     C38418   4.725   0.157   0.641  0.1283 -0.0740 -0.1483
  292MOL0     C38419   4.653   0.133   0.758 -0.5031  0.3029 -0.5791
  292MOL0     O38420   4.516   0.150   0.755 -0.3185 -0.0340  0.2583
  292MOL0     C38421   4.435   0.139   0.871 -0.0238  0.4400  0.7500
  292MOL0     C38422   4.285   0.113   0.836  0.0858  0.2403 -0.0464
  292MOL0     C38423   4.206   0.236   0.799 -0.4111 -0.1418 -0.5416
  292MOL0     C38424   4.058   0.208   0.757 -0.2833  0.5450 -0.4740
  292MOL0     C38425   3.987   0.339   0.721 -0.0587  0.5309 -0.3643
  292MOL0     C38426   3.838   0.326   0.693 -0.6403 -0.5026  0.4038
  292MOL0     C38427   3.776   0.455   0.653 -0.5031  0.3601  0.2574
  292MOL0     C38428   3.804   0.508   0.514  0.2827 -0.2799  0.5850
  292MOL0     N38429   3.767   0.417   0.401  0.1486 -1.6366  0.2772
  292MOL0     C38430   3.803   0.442   0.272  0.0396  0.2665 -0.1589
  292MOL0     C38431   3.744   0.341   0.199 -0.0934 -0.1670  0.3373
  292MOL0     C38432   3.749   0.326   0.045  0.8300 -0.2035  0.0947
  292MOL0     C38433   3.861   0.232  -0.015 -0.2027  0.1656 -0.3460
  292MOL0     C38434   3.878   0.101   0.067  0.7891  0.2537  0.3229
  292MOL0     C38435   3.972   0.010  -0.018 -0.1446  0.0715 -0.8139
  292MOL0     O38436   4.104   0.073  -0.014 -0.9117  0.2483 -0.5303
  292MOL0     C38437   4.202   0.055  -0.104  0.6760 -0.0132  0.7210
  292MOL0     C38438   4.171   0.002  -0.236 -0.3930  0.2254  0.5903
  292MOL0     C38439   4.278  -0.007  -0.322 -0.5031 -0.0943  0.0115
  292MOL0     C38440   4.412   0.015  -0.287  0.4159  0.2019  0.4021
  292MOL0     C38441   4.513  -0.021  -0.386  0.6359 -0.0320  0.5080
  292MOL0     O38442   4.636  -0.047  -0.333 -0.5046 -0.3576 -0.0372
  292MOL0     C38443   4.748  -0.074  -0.395 -0.5888 -1.0349 -0.0546
  292MOL0     C38444   4.839  -0.136  -0.309 -0.2014  0.6679  0.0949
  292MOL0     C38445   4.959  -0.189  -0.355  0.0505  0.4250  0.0143
  292MOL0     C38446   4.993  -0.171  -0.493  1.3467  0.9283 -0.2186
  292MOL0     O38447   5.102  -0.226  -0.557  0.3611 -0.1217  0.0964
  292MOL0     C38448   5.196  -0.130  -0.609  0.6877 -1.7022  0.3522
  292MOL0     C38449   5.338  -0.187  -0.611 -0.3867  0.3661  0.6990
  292MOL0     C38450   5.440  -0.086  -0.667 -0.0291 -0.0035  0.0821
  292MOL0     C38451   5.414  -0.045  -0.814  0.3889  0.7945  0.6554
  292MOL0     C38452   5.533   0.041  -0.869  0.2504  0.4714  0.2730
  292MOL0     C38453   5.672  -0.019  -0.888 -0.1398  0.2937  0.6834
  292MOL0     C38454   5.768   0.077  -0.952 -0.0628 -0.1355  0.0389
  292MOL0     C38455   5.908   0.030  -0.967 -0.2086  0.2426  0.0004
  292MOL0    Cl38456   6.004   0.029  -0.811  0.1335  0.0450  0.1699
  292MOL0     C38457   4.902  -0.109  -0.575 -1.3618  0.5348  0.2934
  292MOL0     C38458   4.779  -0.062  -0.531 -0.5107 -0.5872 -0.2428
  292MOL0     O38459   4.482  -0.041  -0.507  0.1522 -0.2787 -0.2901
  292MOL0     C38460   4.434   0.070  -0.159  0.0159 -0.2991 -0.7847
  292MOL0     C38461   4.330   0.085  -0.068  1.0340  0.3596  0.5886
  292MOL0     N38462   3.685   0.259   0.284  0.9198 -0.2533  0.0517
  292MOL0     N38463   3.675   0.318   0.398 -0.1411  0.1639 -0.0827
  292MOL0     C38464   4.727   0.097   0.874 -0.0759  0.1713  0.2169
  292MOL0     C38465   4.866   0.098   0.877  0.2769  0.6477  0.5487
  292MOL0     C38466   5.282   0.010   0.832 -0.6355 -0.5987 -0.6578
  292MOL0     C38467   5.367  -0.005   0.944  0.1762  0.4609 -0.9262
  292MOL0     C38468   5.481  -0.078   0.933 -0.1076 -0.3615 -0.5490
  292MOL0     C38469   5.533  -0.132   0.818  0.2149  0.5839  1.0645
  292MOL0     O38470   5.662  -0.162   0.792  0.0790 -0.2615 -0.5512
  292MOL0     C38471   5.724  -0.255   0.879  0.1207 -0.0211 -0.1769
  292MOL0     C38472   5.799  -0.364   0.798 -0.2947  0.7151  0.7358
  292MOL0     C38473   5.701  -0.466   0.726  0.1006 -0.6349  1.0244
  292MOL0     C38474   5.653  -0.424   0.577  0.0132 -0.0671 -0.3639
  292MOL0     C38475   5.630  -0.548   0.497 -0.2587 -0.7086 -0.5429
  292MOL0     C38476   5.586  -0.651   0.456  0.3521  0.3324  0.4091
  292MOL0     C38477   5.453  -0.106   0.705  0.0062 -0.4637  0.5235
  292MOL0     C38478   5.329  -0.043   0.711  0.1382  0.0956 -0.0002
  292MOL0     H38479   4.914   0.196   0.550 -0.8770 -1.5257 -1.0221
  292MOL0     H38480   4.664   0.203   0.564 -3.4355  1.2715  3.2022
  292MOL0     H38481   4.451   0.227   0.935 -0.8139  0.5502  0.8087
  292MOL0     H38482   4.478   0.061   0.934  1.3769  0.6039  0.0251
  292MOL0     H38483   4.252   0.063   0.928  1.0650  1.2785  0.8987
  292MOL0     H38484   4.280   0.039   0.756 -2.4326 -0.6970  0.8892
  292MOL0     H38485   4.260   0.284   0.717  1.1444 -2.6120 -1.0632
  292MOL0     H38486   4.195   0.294   0.891 -0.2417 -2.6290  1.1142
  292MOL0     H38487   4.057   0.131   0.679 -1.8759  1.7858 -1.7521
  292MOL0     H38488   4.020   0.173   0.853 -0.0710 -0.8093 -0.8673
  292MOL0     H38489   4.037   0.367   0.628 -0.0221 -0.5197 -0.6742
  292MOL0     H38490   4.009   0.413   0.799  1.5674 -2.0970  1.8922
  292MOL0     H38491   3.796   0.294   0.789 -0.1861  1.9815  1.5048
  292MOL0     H38492   3.814   0.245   0.623  1.8299 -0.3087 -0.7788
  292MOL0     H38493   3.671   0.425   0.667 -0.5049  0.4917  0.5389
  292MOL0     H38494   3.812   0.530   0.724  1.5691 -0.1101 -0.2273
  292MOL0     H38495   3.901   0.558   0.500 -0.9888  2.1752 -0.0210
  292MOL0     H38496   3.734   0.591   0.508  1.2227  0.5719  1.0756
  292MOL0     H38497   3.853   0.527   0.228 -0.9320  0.8505 -0.1682
  292MOL0     H38498   3.755   0.419  -0.012 -1.8258  0.3944  0.6669
  292MOL0     H38499   3.656   0.282   0.008  1.3070 -1.6706  0.5692
  292MOL0     H38500   3.959   0.281  -0.012  1.3181 -2.6466  1.6160
  292MOL0     H38501   3.837   0.203  -0.118 -2.3450  0.6517 -0.0153
  292MOL0     H38502   3.918   0.117   0.168  0.5462  1.9888  0.1700
  292MOL0     H38503   3.791   0.041   0.093  0.6395  0.4175  0.2008
  292MOL0     H38504   3.933  -0.009  -0.119 -1.6567 -0.2132 -0.1966
  292MOL0     H38505   3.990  -0.091   0.020  5.8159  1.0208 -0.0191
  292MOL0     H38506   4.079  -0.028  -0.285  1.1979 -2.1760 -1.1536
  292MOL0     H38507   4.239  -0.059  -0.408 -2.6983 -2.2712  2.1620
  292MOL0     H38508   4.808  -0.162  -0.208  0.2283 -1.5363 -0.3077
  292MOL0     H38509   5.025  -0.246  -0.290 -0.4462 -1.8885 -1.4012
  292MOL0     H38510   5.186  -0.037  -0.552 -1.2509 -0.0832 -2.4029
  292MOL0     H38511   5.165  -0.102  -0.710 -0.6237  0.1520  1.2137
  292MOL0     H38512   5.338  -0.284  -0.661  0.5012  0.6863  0.0468
  292MOL0     H38513   5.375  -0.212  -0.511  1.6291 -0.0384 -0.1058
  292MOL0     H38514   5.545  -0.113  -0.653  0.0232 -0.7312 -1.5047
  292MOL0     H38515   5.440  -0.004  -0.594  2.0984  0.4161 -0.3190
  292MOL0     H38516   5.417  -0.135  -0.877  3.0646  2.3810 -1.7042
  292MOL0     H38517   5.317   0.003  -0.830 -1.1199 -1.8151  1.3711
  292MOL0     H38518   5.556   0.119  -0.795  1.2913  0.7858 -0.3760
  292MOL0     H38519   5.510   0.090  -0.964 -0.4535 -0.6634 -0.1612
  292MOL0     H38520   5.664  -0.102  -0.959 -0.3648 -0.0535  1.1063
  292MOL0     H38521   5.709  -0.085  -0.809 -1.3399 -2.0254 -0.5439
  292MOL0     H38522   5.732   0.099  -1.053  0.3070  4.1239  0.6517
  292MOL0     H38523   5.757   0.182  -0.921 -3.3328 -0.2925 -0.2352
  292MOL0     H38524   5.957   0.097  -1.038 -0.2414  1.8259  1.4149
  292MOL0     H38525   5.910  -0.069  -1.014  0.4843  0.3904 -0.2797
  292MOL0     H38526   4.929  -0.084  -0.677  0.4125  1.3748  0.9334
  292MOL0     H38527   4.710  -0.008  -0.596  0.2743  1.6432  0.6827
  292MOL0     H38528   4.536   0.096  -0.133  0.3156 -1.2198 -0.9596
  292MOL0     H38529   4.346   0.110   0.036  2.2668  0.3556  0.4192
  292MOL0     H38530   4.668   0.083   0.964 -0.1720 -2.0724 -0.1242
  292MOL0     H38531   4.931   0.063   0.956  1.6855 -2.9829 -1.9195
  292MOL0     H38532   5.337   0.043   1.037 -1.1168  0.4026 -1.2964
  292MOL0     H38533   5.539  -0.087   1.024 -2.8936 -0.2440  1.3421
  292MOL0     H38534   5.658  -0.312   0.946 -0.3914 -2.1671 -2.3792
  292MOL0     H38535   5.792  -0.189   0.933 -0.3123 -0.4758  0.9764
  292MOL0     H38536   5.868  -0.322   0.725 -0.3192  0.1306  0.3675
  292MOL0     H38537   5.868  -0.419   0.863  1.0505 -2.9399 -3.2731
  292MOL0     H38538   5.609  -0.461   0.786  0.2167 -2.0673  1.3574
  292MOL0     H38539   5.735  -0.570   0.729  1.5258 -0.2547 -0.7879
  292MOL0     H38540   5.557  -0.373   0.592 -0.6629 -1.9542  2.5104
  292MOL0     H38541   5.723  -0.364   0.519  0.4264 -2.5733 -2.6447
  292MOL0     H38542   5.562  -0.755   0.446  4.8043 -0.7518 -1.7115
  292MOL0     H38543   5.476  -0.130   0.602 -0.1966 -1.7531  0.7689
  292MOL0     H38544   5.280  -0.029   0.615 -0.6692  1.7945  0.6323
  293MOL0     O38545   8.925   7.333   6.851  0.2298  0.5374 -0.6325
  293MOL0     C38546   9.004   7.318   6.941 -0.9319  0.8467 -0.8425
  293MOL0     O38547   8.989   7.228   7.044 -0.4273  0.1832 -0.1952
  293MOL0     C38548   8.862   7.183   7.072  0.1228  0.6740 -0.5981
  293MOL0     C38549   8.763   7.263   7.126 -0.2972 -0.1189  0.2307
  293MOL0     C38550   8.639   7.221   7.160  0.2379 -0.3466 -0.0327
  293MOL0     C38551   8.610   7.088   7.134 -0.2851  0.2964 -0.1354
  293MOL0     O38552   8.479   7.050   7.156  0.0868  0.1834 -0.0051
  293MOL0     C38553   8.376   7.081   7.059 -0.0338 -0.3450 -0.4909
  293MOL0     C38554   8.236   7.020   7.090 -0.5039  0.1869 -0.4359
  293MOL0     C38555   8.152   7.088   7.206  0.1323  0.4637 -0.2119
  293MOL0     C38556   8.142   7.241   7.191  1.1255  0.3421  0.4311
  293MOL0     C38557   8.034   7.317   7.275 -0.3876 -0.4557 -0.2486
  293MOL0     C38558   8.015   7.253   7.416 -0.2109  0.6859 -0.8096
  293MOL0     C38559   7.936   7.350   7.512 -0.2164 -0.3658  0.2814
  293MOL0     C38560   7.894   7.282   7.643 -0.0693 -0.9220  0.4751
  293MOL0     N38561   7.758   7.235   7.636  0.1155  0.2020  0.8442
  293MOL0     C38562   7.700   7.120   7.686 -0.3832  0.8541 -0.7379
  293MOL0     C38563   7.567   7.122   7.664 -0.4258  0.6578  0.1962
  293MOL0     C38564   7.463   7.016   7.703  0.0517  0.3656 -0.6113
  293MOL0     C38565   7.443   6.906   7.594 -0.2478 -0.4929 -0.0586
  293MOL0     C38566   7.327   6.954   7.505 -0.0556 -0.0819 -0.5590
  293MOL0     C38567   7.187   6.902   7.550 -0.4871 -0.6625  0.4298
  293MOL0     O38568   7.080   6.964   7.476  0.4284  0.1340  0.1557
  293MOL0     C38569   6.954   6.907   7.492 -0.7104 -0.3543  0.3873
  293MOL0     C38570   6.863   6.946   7.394 -0.1400 -0.0885  0.2367
  293MOL0     C38571   6.733   6.892   7.407  0.2036 -0.1792  0.6063
  293MOL0     C38572   6.699   6.798   7.501 -0.6535  0.3777  0.3089
  293MOL0     C38573   6.569   6.730   7.498  0.4733  0.9792  0.3311
  293MOL0     O38574   6.554   6.615   7.575 -0.6144  0.3564 -0.2694
  293MOL0     C38575   6.446   6.534   7.563 -0.1136 -0.0124  0.5931
  293MOL0     C38576   6.395   6.483   7.684 -0.0844  0.3364  0.3785
  293MOL0     C38577   6.293   6.394   7.691  0.2114 -0.7537  0.2646
  293MOL0     C38578   6.216   6.371   7.578  0.7360 -0.0831  0.5830
  293MOL0     O38579   6.104   6.297   7.594 -0.0415 -0.2563  0.4300
  293MOL0     C38580   5.992   6.324   7.503 -0.7898  0.5528 -0.4694
  293MOL0     C38581   5.873   6.274   7.570  0.3011 -0.4576  0.1410
  293MOL0     C38582   5.834   6.353   7.695  0.3626  0.1900 -0.6430
  293MOL0     C38583   5.716   6.279   7.750  0.0665 -0.7060 -0.4567
  293MOL0     C38584   5.590   6.298   7.672 -0.2041 -0.0535  0.1432
  293MOL0     C38585   5.469   6.332   7.751  0.7151 -0.7598  0.3536
  293MOL0     C38586   5.385   6.206   7.797  0.0890  0.7104  0.1578
  293MOL0     C38587   5.259   6.235   7.876  0.2056 -0.5832 -0.5673
  293MOL0    Cl38588   5.286   6.314   8.036  0.2537  0.0454  0.6624
  293MOL0     C38589   6.257   6.424   7.456 -0.5664  0.5404  0.5553
  293MOL0     C38590   6.371   6.500   7.450 -0.5331  0.6363  0.4725
  293MOL0     O38591   6.485   6.782   7.426  0.9242  0.3158 -0.6247
  293MOL0     C38592   6.790   6.751   7.595  0.7285 -0.2217  1.0776
  293MOL0     C38593   6.921   6.801   7.585 -0.5631 -0.7617 -0.3198
  293MOL0     N38594   7.535   7.236   7.591 -0.1537 -0.2435 -0.4714
  293MOL0     N38595   7.645   7.300   7.581  0.5182  0.5235 -0.2072
  293MOL0     C38596   8.705   7.000   7.074 -0.2999 -0.0060  0.1160
  293MOL0     C38597   8.832   7.048   7.039 -0.6672 -0.9671  0.7727
  293MOL0     C38598   9.129   7.399   6.952 -0.0104  0.1800  0.4611
  293MOL0     C38599   9.232   7.368   7.046  0.2162 -0.0947  0.6514
  293MOL0     C38600   9.342   7.459   7.054 -0.9903  0.0027  0.4659
  293MOL0     C38601   9.348   7.579   6.981 -0.1848 -0.0771  0.4968
  293MOL0     O38602   9.450   7.665   7.018 -0.9672 -0.6759 -0.0993
  293MOL0     C38603   9.464   7.792   6.949  0.5557 -0.5494  1.1715
  293MOL0     C38604   9.608   7.860   6.984  0.8681 -0.0290  0.0948
  293MOL0     C38605   9.628   8.004   6.950 -0.6665  0.2213  0.1530
  293MOL0     C38606   9.721   8.078   7.042  1.1370  0.2024  0.6956
  293MOL0     C38607   9.777   8.192   6.970  1.0633 -0.5148 -0.1316
  293MOL0     C38608   9.838   8.290   6.931 -0.7286  0.2998  0.0833
  293MOL0     C38609   9.243   7.610   6.893  0.3558  1.1384 -0.4680
  293MOL0     C38610   9.139   7.522   6.874  0.0070 -0.8558  0.1419
  293MOL0     H38611   8.799   7.362   7.152  0.9627 -0.8144  1.3143
  293MOL0     H38612   8.573   7.282   7.220 -1.5878 -0.3279 -1.9456
  293MOL0     H38613   8.401   7.058   6.955  0.4461  5.2456 -1.9078
  293MOL0     H38614   8.357   7.188   7.044 -3.0103 -0.2569  2.5800
  293MOL0     H38615   8.258   6.914   7.109 -0.7054 -0.0547 -1.5093
  293MOL0     H38616   8.177   7.007   6.999 -1.5269 -1.1115  0.3676
  293MOL0     H38617   8.199   7.064   7.302  1.6566 -0.5969 -1.1833
  293MOL0     H38618   8.056   7.035   7.210  0.8495 -1.1144 -2.2519
  293MOL0     H38619   8.239   7.289   7.206  0.3164  2.0965  0.3486
  293MOL0     H38620   8.120   7.278   7.091 -0.5215 -0.6834  0.3668
  293MOL0     H38621   7.938   7.321   7.223 -0.5700 -1.5958 -0.0222
  293MOL0     H38622   8.067   7.421   7.275 -3.4602  0.7250 -3.5339
  293MOL0     H38623   8.110   7.244   7.469 -1.4396  0.4367  1.4850
  293MOL0     H38624   7.960   7.160   7.403  1.0554 -0.0578 -0.9792
  293MOL0     H38625   7.998   7.435   7.540  0.9308 -0.6410 -1.2337
  293MOL0     H38626   7.860   7.411   7.462  3.0445  0.3490 -4.5388
  293MOL0     H38627   7.876   7.358   7.719 -1.9851 -3.1134  2.3990
  293MOL0     H38628   7.958   7.198   7.674 -1.5046 -1.3646  2.4761
  293MOL0     H38629   7.744   7.047   7.753  1.0380  1.4704 -0.9674
  293MOL0     H38630   7.368   7.068   7.714 -0.6086 -0.3081 -2.6423
  293MOL0     H38631   7.485   6.976   7.803  3.2907  2.5127 -0.3163
  293MOL0     H38632   7.410   6.818   7.650  0.2478 -0.2301  0.6645
  293MOL0     H38633   7.540   6.894   7.545  1.3160  2.6991  1.9108
  293MOL0     H38634   7.327   7.063   7.508 -1.2869 -0.0726  2.8666
  293MOL0     H38635   7.355   6.924   7.403 -3.1792  2.6205 -2.4081
  293MOL0     H38636   7.176   6.936   7.653  1.9558  2.3204 -0.1518
  293MOL0     H38637   7.190   6.792   7.551 -3.6628 -0.9913 -2.8752
  293MOL0     H38638   6.889   7.019   7.318  1.7613  2.4369  3.1057
  293MOL0     H38639   6.662   6.928   7.333 -1.7672 -0.8270  2.0901
  293MOL0     H38640   6.441   6.515   7.777  0.8801 -0.9280  0.3522
  293MOL0     H38641   6.256   6.362   7.788 -0.0809 -2.7789 -0.4511
  293MOL0     H38642   6.001   6.270   7.408 -0.7161  1.1067 -0.7816
  293MOL0     H38643   5.977   6.431   7.481 -2.0246  0.8896  1.7777
  293MOL0     H38644   5.899   6.178   7.615  0.1011  1.0891  3.8640
  293MOL0     H38645   5.786   6.262   7.505 -1.8990 -0.1208  2.8395
  293MOL0     H38646   5.814   6.455   7.659  2.3623  0.3498 -1.3880
  293MOL0     H38647   5.911   6.361   7.773  1.0744  1.4202 -1.4416
  293MOL0     H38648   5.723   6.170   7.760 -1.0894 -0.6200  2.1795
  293MOL0     H38649   5.699   6.325   7.847  0.4678 -0.4945 -0.4834
  293MOL0     H38650   5.576   6.217   7.600 -2.4408 -0.2593  0.7344
  293MOL0     H38651   5.601   6.382   7.602 -1.9473 -1.0468 -1.4147
  293MOL0     H38652   5.407   6.390   7.683 -1.5496 -2.8156  0.4926
  293MOL0     H38653   5.502   6.385   7.841  2.3987 -4.0660  1.8783
  293MOL0     H38654   5.352   6.144   7.713 -1.1951  1.2102  0.2625
  293MOL0     H38655   5.457   6.147   7.853  0.4197  0.5759 -0.4025
  293MOL0     H38656   5.199   6.144   7.890  2.7573 -2.2530  0.2416
  293MOL0     H38657   5.193   6.299   7.817  0.0163  0.2442  0.5123
  293MOL0     H38658   6.206   6.407   7.361  0.9811 -1.0282 -0.0560
  293MOL0     H38659   6.401   6.540   7.353 -0.6823 -0.3428  0.0111
  293MOL0     H38660   6.767   6.677   7.671 -2.4140 -0.6499 -0.1257
  293MOL0     H38661   6.982   6.753   7.661 -4.1517  0.3259  3.6097
  293MOL0     H38662   8.676   6.899   7.050  4.7382 -1.1717 -2.6148
  293MOL0     H38663   8.895   6.982   6.979 -0.4593  0.0002 -0.1113
  293MOL0     H38664   9.228   7.282   7.111 -1.9758 -1.8726 -1.6099
  293MOL0     H38665   9.414   7.435   7.132  0.5502 -0.9888 -1.2042
  293MOL0     H38666   9.379   7.844   6.994  1.4654 -0.4175  2.8171
  293MOL0     H38667   9.449   7.783   6.841 -1.0170 -0.7599  1.3861
  293MOL0     H38668   9.618   7.832   7.089 -1.4783 -2.2537 -0.1925
  293MOL0     H38669   9.686   7.802   6.933  1.6562 -0.1278  1.3541
  293MOL0     H38670   9.533   8.058   6.959  1.7993  5.1237  0.2658
  293MOL0     H38671   9.665   7.999   6.848 -1.5309 -1.5016 -0.0930
  293MOL0     H38672   9.657   8.108   7.125 -1.0439 -3.9520  0.8016
  293MOL0     H38673   9.792   8.013   7.095  2.1646  0.9677  0.2970
  293MOL0     H38674   9.891   8.369   6.881 -2.3843 -0.1687 -2.6464
  293MOL0     H38675   9.227   7.712   6.861 -0.6159  1.0276 -0.3816
  293MOL0     H38676   9.051   7.564   6.827 -0.4158  0.8412  2.2981
  294MOL0     O38677   7.730   8.977   7.773  0.8510  0.0325  0.8665
  294MOL0     C38678   7.726   8.977   7.893 -0.8068 -0.9546 -0.2064
  294MOL0     O38679   7.618   8.986   7.966  0.2731 -0.1544  0.0414
  294MOL0     C38680   7.489   8.982   7.919  0.6905  0.5089  0.2453
  294MOL0     C38681   7.386   8.915   7.991  0.0676  0.0781 -0.2325
  294MOL0     C38682   7.254   8.904   7.949  0.0682 -0.5403  0.9259
  294MOL0     C38683   7.223   8.964   7.824  0.2103  0.3268  0.5902
  294MOL0     O38684   7.096   8.938   7.782 -0.6236 -0.2537  0.3730
  294MOL0     C38685   7.040   9.028   7.678 -0.0897 -0.2796 -0.6694
  294MOL0     C38686   6.897   8.981   7.655  0.3634 -0.3164  0.4730
  294MOL0     C38687   6.907   8.847   7.581  0.4468 -0.4794  0.0553
  294MOL0     C38688   6.771   8.792   7.526  0.3570  0.4642  1.1274
  294MOL0     C38689   6.777   8.666   7.434 -0.8756  0.7743 -0.2270
  294MOL0     C38690   6.642   8.605   7.428  0.0651 -0.9894 -0.7309
  294MOL0     C38691   6.625   8.476   7.364  0.2944  0.1752  0.0868
  294MOL0     C38692   6.482   8.461   7.308 -0.2406  0.1627 -0.7507
  294MOL0     N38693   6.374   8.462   7.412  0.4658 -0.3399  0.2334
  294MOL0     C38694   6.310   8.356   7.479 -0.5611 -0.7008 -0.0708
  294MOL0     C38695   6.214   8.404   7.566  0.6175 -0.4809 -0.2320
  294MOL0     C38696   6.126   8.320   7.655  0.9508 -0.5880 -1.2218
  294MOL0     C38697   5.985   8.290   7.604 -0.0550 -0.1523  0.0318
  294MOL0     C38698   5.902   8.424   7.587  0.1346 -1.0931 -0.2875
  294MOL0     C38699   5.743   8.400   7.593 -0.2664  0.3965 -0.9231
  294MOL0     O38700   5.679   8.397   7.721 -0.2097  0.7124 -0.1604
  294MOL0     C38701   5.555   8.344   7.737  0.6435  1.0155 -0.2742
  294MOL0     C38702   5.451   8.345   7.641 -1.0992  0.2131  0.0238
  294MOL0     C38703   5.334   8.281   7.665  0.2035  0.7668  0.1311
  294MOL0     C38704   5.293   8.241   7.796 -0.3200  0.6152  0.1355
  294MOL0     C38705   5.164   8.180   7.827  0.1463 -0.4874 -0.4530
  294MOL0     O38706   5.135   8.162   7.965  0.4580  0.1479  0.2867
  294MOL0     C38707   5.008   8.154   8.011 -1.0711 -0.3184 -0.8056
  294MOL0     C38708   4.985   8.228   8.130  0.3335 -0.6971 -0.6745
  294MOL0     C38709   4.857   8.237   8.181  0.5035  0.9547 -0.4184
  294MOL0     C38710   4.755   8.148   8.147  0.9038  0.3748  0.4504
  294MOL0     O38711   4.629   8.156   8.203 -0.3213  0.4767 -0.4790
  294MOL0     C38712   4.508   8.111   8.137  0.3849  0.9517 -0.1172
  294MOL0     C38713   4.392   8.133   8.235  0.8934 -0.8047  0.4019
  294MOL0     C38714   4.253   8.079   8.174 -0.9061 -0.8902 -0.2623
  294MOL0     C38715   4.150   8.087   8.287  0.2910  0.2724  0.3347
  294MOL0     C38716   4.008   8.083   8.247 -0.1297 -0.4811  0.5886
  294MOL0     C38717   3.980   7.967   8.148 -0.3117 -0.6795 -0.5831
  294MOL0     C38718   3.831   7.954   8.148  1.1956 -0.4832 -0.6800
  294MOL0     C38719   3.770   7.838   8.068 -0.2747 -0.3531  0.1705
  294MOL0    Cl38720   3.587   7.851   8.032 -0.3007 -0.1307  0.0863
  294MOL0     C38721   4.785   8.078   8.027 -0.1952  1.0380  0.0453
  294MOL0     C38722   4.910   8.063   7.965 -0.2491  0.1467  0.4816
  294MOL0     O38723   5.081   8.172   7.739 -0.1969 -0.0464 -0.0077
  294MOL0     C38724   5.388   8.239   7.895 -0.0553 -0.2938  0.5724
  294MOL0     C38725   5.518   8.285   7.866 -0.1092 -0.5797  0.6938
  294MOL0     N38726   6.217   8.541   7.546  0.4101  0.2970  1.0091
  294MOL0     N38727   6.311   8.572   7.463 -1.0622  0.8566 -0.4279
  294MOL0     C38728   7.318   9.048   7.760 -1.3875 -1.7352 -0.2752
  294MOL0     C38729   7.447   9.050   7.801 -0.1438  0.5154  0.6789
  294MOL0     C38730   7.859   8.980   7.967  0.5906  0.2324  0.0267
  294MOL0     C38731   7.976   9.012   7.893  0.8504 -0.3452 -0.5159
  294MOL0     C38732   8.100   9.015   7.952  0.6125  0.3173  0.3831
  294MOL0     C38733   8.123   8.996   8.090  0.1072  0.4290  0.2323
  294MOL0     O38734   8.255   8.998   8.138 -0.5118 -0.2838 -0.4318
  294MOL0     C38735   8.272   9.018   8.274 -0.6580  0.0447 -0.7723
  294MOL0     C38736   8.432   9.026   8.307  0.3360  0.1415 -0.5338
  294MOL0     C38737   8.477   9.179   8.287  0.0288  0.6377 -0.3613
  294MOL0     C38738   8.627   9.204   8.312  0.4463 -0.5779  0.7704
  294MOL0     C38739   8.656   9.193   8.450 -0.0878 -0.4734 -0.6782
  294MOL0     C38740   8.676   9.194   8.574 -0.1196  0.3943 -0.3424
  294MOL0     C38741   8.002   8.959   8.164 -0.5662 -0.0891 -0.2203
  294MOL0     C38742   7.870   8.959   8.098 -1.4617  0.6968 -0.2987
  294MOL0     H38743   7.413   8.860   8.080  1.8547  1.2887  0.0150
  294MOL0     H38744   7.189   8.831   7.996 -0.7432 -1.5322 -1.5610
  294MOL0     H38745   7.103   9.025   7.589  2.4789 -1.4505  1.0366
  294MOL0     H38746   7.046   9.132   7.713 -1.0890 -0.8234  1.3169
  294MOL0     H38747   6.855   9.055   7.587  3.6816  1.9577  0.6984
  294MOL0     H38748   6.840   8.962   7.747  2.2811 -2.2117  1.3821
  294MOL0     H38749   6.955   8.776   7.649 -0.8583 -0.3327  1.1804
  294MOL0     H38750   6.975   8.855   7.496  1.8586 -1.6093  1.0496
  294MOL0     H38751   6.697   8.770   7.603  0.8863 -3.8703  0.6450
  294MOL0     H38752   6.731   8.876   7.468  0.7960  0.6442  1.0778
  294MOL0     H38753   6.841   8.590   7.481  0.5963  2.7757  1.1541
  294MOL0     H38754   6.821   8.676   7.335  1.2122  1.9751  0.7611
  294MOL0     H38755   6.574   8.673   7.376 -0.9400  0.2031  1.9528
  294MOL0     H38756   6.606   8.609   7.532  0.5486  2.5702 -0.6082
  294MOL0     H38757   6.686   8.466   7.273 -0.2479 -0.2048 -0.2384
  294MOL0     H38758   6.635   8.391   7.432  2.8946 -2.0781 -2.8433
  294MOL0     H38759   6.474   8.368   7.251 -2.1044 -0.1441 -0.0843
  294MOL0     H38760   6.460   8.531   7.228 -2.4574 -0.4598 -0.7598
  294MOL0     H38761   6.331   8.253   7.453  2.0710 -0.2396 -0.0852
  294MOL0     H38762   6.111   8.364   7.754  2.4810 -2.0974 -0.2579
  294MOL0     H38763   6.178   8.224   7.659  1.7179 -0.3454 -3.4878
  294MOL0     H38764   5.932   8.239   7.685 -1.8875  2.4504  0.6223
  294MOL0     H38765   5.988   8.229   7.513 -0.4300  0.6631 -0.5390
  294MOL0     H38766   5.920   8.494   7.670 -0.1236 -1.3081 -0.0482
  294MOL0     H38767   5.933   8.479   7.498  1.4540  0.7659  1.2248
  294MOL0     H38768   5.725   8.305   7.542 -0.8022 -0.5100  0.8688
  294MOL0     H38769   5.699   8.485   7.540 -0.1795  1.2666  0.3645
  294MOL0     H38770   5.456   8.395   7.544 -1.3207  0.0535 -0.0700
  294MOL0     H38771   5.257   8.294   7.589  0.3460  0.9573  0.0168
  294MOL0     H38772   5.060   8.291   8.176 -0.1202 -0.8612  0.3122
  294MOL0     H38773   4.829   8.319   8.245 -1.2515  3.0848 -3.6355
  294MOL0     H38774   4.513   8.006   8.107  0.2161  1.2321 -1.1646
  294MOL0     H38775   4.501   8.170   8.045  1.5519  0.4595 -0.5304
  294MOL0     H38776   4.395   8.237   8.271  0.5627  0.0411 -1.8794
  294MOL0     H38777   4.420   8.078   8.325  4.5298  0.6208  0.2805
  294MOL0     H38778   4.271   7.980   8.130  1.9309  0.5965 -2.7512
  294MOL0     H38779   4.213   8.139   8.093  1.5803 -1.2821 -1.8865
  294MOL0     H38780   4.175   8.000   8.348 -0.6340 -1.8514 -2.1301
  294MOL0     H38781   4.165   8.175   8.350 -3.0497  0.8701  0.4955
  294MOL0     H38782   3.977   8.178   8.204 -3.2635 -1.5318  0.2304
  294MOL0     H38783   3.960   8.063   8.343  2.3485 -2.2351  1.5701
  294MOL0     H38784   4.035   7.880   8.183  1.6927  0.9254  0.5141
  294MOL0     H38785   4.008   7.990   8.045 -0.5411 -0.3809 -0.5818
  294MOL0     H38786   3.793   7.950   8.250 -1.5040  2.6824 -1.3738
  294MOL0     H38787   3.796   8.050   8.107 -0.2734 -0.6311  0.1579
  294MOL0     H38788   3.783   7.745   8.123 -0.9353  1.0985  2.9670
  294MOL0     H38789   3.818   7.825   7.970  2.1371  3.2148  0.6780
  294MOL0     H38790   4.706   8.026   7.974  0.7841  0.1890 -0.6385
  294MOL0     H38791   4.917   8.013   7.869 -0.3111 -0.2338  0.6726
  294MOL0     H38792   5.369   8.217   7.999  2.1466  3.3590  1.9302
  294MOL0     H38793   5.587   8.291   7.951  1.1842  0.3896 -0.3794
  294MOL0     H38794   7.292   9.088   7.662 -0.1084 -0.9228 -0.2987
  294MOL0     H38795   7.524   9.091   7.737  0.6882 -0.0698  1.2903
  294MOL0     H38796   7.981   9.033   7.787 -1.8468 -1.4446 -0.9436
  294MOL0     H38797   8.177   9.047   7.883 -0.5747  1.4132 -0.4767
  294MOL0     H38798   8.236   8.938   8.339 -0.7932  1.4063  0.8957
  294MOL0     H38799   8.215   9.105   8.308 -2.7006 -1.5676  0.1761
  294MOL0     H38800   8.462   8.996   8.407  0.4832 -0.8123 -0.8563
  294MOL0     H38801   8.483   8.953   8.244  1.5485 -1.4358  2.1256
  294MOL0     H38802   8.413   9.240   8.352 -2.1958 -0.8211 -1.0670
  294MOL0     H38803   8.442   9.215   8.190 -0.5228 -2.6354 -1.4953
  294MOL0     H38804   8.689   9.133   8.257  1.4177  1.8141 -1.4334
  294MOL0     H38805   8.662   9.301   8.275  0.1720 -0.9381 -0.4962
  294MOL0     H38806   8.698   9.195   8.679  3.5217 -0.9102 -0.9770
  294MOL0     H38807   8.004   8.951   8.272 -2.3133 -0.3781 -0.1760
  294MOL0     H38808   7.779   8.942   8.154 -1.0762  3.7735  1.5287
  295MOL0     O38809   6.121  10.476   6.206 -0.7993 -0.2027  0.6323
  295MOL0     C38810   6.201  10.394   6.152  0.2631  0.8832 -0.6480
  295MOL0     O38811   6.334  10.403   6.152 -0.9483  0.3310  0.0744
  295MOL0     C38812   6.399  10.486   6.250  0.6630  0.8129  0.4080
  295MOL0     C38813   6.351  10.542   6.370 -0.4162 -0.6231  0.8394
  295MOL0     C38814   6.435  10.617   6.450  0.0580 -0.3823 -0.1243
  295MOL0     C38815   6.568  10.633   6.429 -0.0841  0.6715  0.9303
  295MOL0     O38816   6.647  10.698   6.518 -0.3996 -0.2519 -0.6321
  295MOL0     C38817   6.786  10.724   6.491 -0.7888 -0.8784 -0.0638
  295MOL0     C38818   6.865  10.765   6.623  0.3422 -0.1248 -0.6289
  295MOL0     C38819   6.998  10.843   6.593  0.2558  0.4681 -0.1152
  295MOL0     C38820   7.123  10.743   6.578 -1.1450  0.2789  0.4837
  295MOL0     C38821   7.252  10.819   6.552 -0.2623  0.2603 -0.1392
  295MOL0     C38822   7.284  10.907   6.677  0.5870 -0.2527 -0.3549
  295MOL0     C38823   7.427  10.950   6.689 -0.3253 -0.1457 -0.6957
  295MOL0     C38824   7.508  10.841   6.773  0.0799  0.0474  0.6019
  295MOL0     N38825   7.655  10.864   6.753  0.4144  0.0792 -0.5189
  295MOL0     C38826   7.723  10.961   6.822 -0.4510  0.4046 -0.6977
  295MOL0     C38827   7.847  10.970   6.774 -0.1218 -0.6583 -0.4455
  295MOL0     C38828   7.948  11.072   6.820  0.5463 -0.2754  0.1832
  295MOL0     C38829   7.886  11.213   6.841 -0.0198 -0.0771  0.0799
  295MOL0     C38830   7.849  11.289   6.718  0.3875 -0.5897  0.1943
  295MOL0     C38831   7.698  11.294   6.689  1.1277  0.1770 -0.2959
  295MOL0     O38832   7.625  11.341   6.801  0.0405 -0.0678 -0.4741
  295MOL0     C38833   7.496  11.361   6.781  0.3979  0.1308  0.1677
  295MOL0     C38834   7.411  11.308   6.683 -0.2917 -0.5282  0.9803
  295MOL0     C38835   7.278  11.354   6.668  0.3160 -0.3239 -0.4816
  295MOL0     C38836   7.224  11.448   6.759  0.0838 -0.7204 -0.2081
  295MOL0     C38837   7.071  11.474   6.772  0.7715  0.3902 -0.5958
  295MOL0     O38838   7.028  11.550   6.880 -0.4130  0.5426 -0.1243
  295MOL0     C38839   6.901  11.592   6.885  0.7295  0.4179 -0.1620
  295MOL0     C38840   6.858  11.696   6.795  0.9817 -0.2116  0.0540
  295MOL0     C38841   6.742  11.764   6.802  0.2722  0.0137  0.2341
  295MOL0     C38842   6.642  11.716   6.895 -0.1288 -0.3202 -0.4038
  295MOL0     O38843   6.532  11.798   6.897  0.3555  0.2341 -0.3889
  295MOL0     C38844   6.436  11.765   7.004 -0.4398  0.1911  0.2087
  295MOL0     C38845   6.329  11.868   6.998 -0.8843  0.2303  1.6094
  295MOL0     C38846   6.239  11.871   7.128 -0.7276  0.3252  0.9325
  295MOL0     C38847   6.159  11.998   7.149  0.2275 -0.3252  0.6462
  295MOL0     C38848   6.052  12.036   7.043  0.2857 -0.6491 -0.1860
  295MOL0     C38849   5.962  11.919   7.011  0.0071 -0.0606  0.6966
  295MOL0     C38850   5.833  11.955   6.929 -0.7469 -0.0068  0.1399
  295MOL0     C38851   5.736  12.033   7.013 -0.8438 -0.2290  0.6247
  295MOL0    Cl38852   5.664  11.930   7.146  0.2640 -0.2418  0.4918
  295MOL0     C38853   6.676  11.606   6.978  0.4362  0.6646 -1.2701
  295MOL0     C38854   6.805  11.551   6.980  0.5781 -0.4833  0.4043
  295MOL0     O38855   7.000  11.437   6.678 -0.4981  0.1609  0.6751
  295MOL0     C38856   7.307  11.496   6.852 -0.8789 -1.0400  0.5072
  295MOL0     C38857   7.443  11.463   6.862 -0.3285 -0.6129  0.3569
  295MOL0     N38858   7.852  10.865   6.689 -0.3696 -0.0901 -0.0665
  295MOL0     N38859   7.738  10.796   6.677  0.6479  0.2636 -0.7314
  295MOL0     C38860   6.611  10.584   6.304 -0.6274  0.1784 -0.2698
  295MOL0     C38861   6.532  10.508   6.220  0.1466 -0.5885 -0.2733
  295MOL0     C38862   6.130  10.277   6.104 -0.3412 -0.5460 -0.1096
  295MOL0     C38863   6.195  10.168   6.044  0.0429 -0.6941 -0.9495
  295MOL0     C38864   6.134  10.061   5.978 -0.0194 -0.6035  0.1952
  295MOL0     C38865   5.998  10.044   6.001 -0.2593 -0.1944 -0.2155
  295MOL0     O38866   5.942   9.933   5.950 -0.1190 -0.2948 -0.6706
  295MOL0     C38867   5.799   9.919   5.933 -0.3252 -0.4469  0.5006
  295MOL0     C38868   5.750   9.985   5.804  0.3345 -0.4849 -0.2680
  295MOL0     C38869   5.609   9.940   5.777  0.1341  1.3448 -0.3334
  295MOL0     C38870   5.541  10.011   5.658  0.1718  0.2683 -1.2520
  295MOL0     C38871   5.394  10.030   5.680  0.7507 -0.0303 -0.3585
  295MOL0     C38872   5.281  10.048   5.720  0.5060 -0.0576  0.9154
  295MOL0     C38873   5.933  10.144   6.073  0.0642 -0.2833  0.2136
  295MOL0     C38874   5.993  10.260   6.122 -0.4359  0.2469 -0.3336
  295MOL0     H38875   6.245  10.540   6.395 -0.5266 -3.2898  0.4077
  295MOL0     H38876   6.389  10.667   6.535  1.6988  0.5710  0.2581
  295MOL0     H38877   6.809  10.803   6.419  0.9929  1.9996  3.3610
  295MOL0     H38878   6.847  10.636   6.471  0.8132  0.1517  0.1257
  295MOL0     H38879   6.893  10.674   6.677  1.2395  1.1728  1.2032
  295MOL0     H38880   6.813  10.823   6.700  1.8062  1.3853 -0.7311
  295MOL0     H38881   7.010  10.912   6.677 -0.1911  0.9662 -0.4482
  295MOL0     H38882   6.986  10.908   6.506  0.7753  1.1825  0.3327
  295MOL0     H38883   7.130  10.674   6.663 -2.4240  1.0822  1.2812
  295MOL0     H38884   7.104  10.678   6.492 -0.5278 -1.3451  1.5294
  295MOL0     H38885   7.225  10.889   6.472 -4.2538  0.6219  1.3166
  295MOL0     H38886   7.335  10.753   6.525 -1.5499 -1.8648  0.8856
  295MOL0     H38887   7.248  10.855   6.766 -2.5919 -3.2460 -3.1293
  295MOL0     H38888   7.218  10.995   6.678  0.3911 -0.2255  3.7223
  295MOL0     H38889   7.476  10.982   6.597  1.2299  2.1080  0.8195
  295MOL0     H38890   7.418  11.039   6.752 -0.7516 -0.3811 -0.4181
  295MOL0     H38891   7.476  10.742   6.738  0.4652  0.1281  0.0022
  295MOL0     H38892   7.470  10.849   6.875  1.4802 -0.5047  1.1856
  295MOL0     H38893   7.691  11.031   6.899  0.4300 -2.7785  2.8405
  295MOL0     H38894   8.036  11.066   6.755  2.0303 -0.8202  2.1491
  295MOL0     H38895   7.989  11.041   6.917  0.9874  1.7766  0.7181
  295MOL0     H38896   7.968  11.269   6.886 -0.4345  0.1491  0.5585
  295MOL0     H38897   7.808  11.207   6.917 -1.7213  0.6541 -1.5448
  295MOL0     H38898   7.881  11.391   6.741  1.5800 -0.1978 -2.7582
  295MOL0     H38899   7.908  11.263   6.629 -1.8437  1.5769 -2.0795
  295MOL0     H38900   7.661  11.193   6.668 -0.6849  0.7209  0.0938
  295MOL0     H38901   7.676  11.359   6.604  0.1434  0.7236  0.3499
  295MOL0     H38902   7.450  11.233   6.615 -1.3175  1.0185 -1.4516
  295MOL0     H38903   7.211  11.300   6.602  0.1248 -1.6682  0.7594
  295MOL0     H38904   6.938  11.718   6.724  1.9760  1.1764  1.5242
  295MOL0     H38905   6.722  11.851   6.739  0.1173  0.5194  0.9715
  295MOL0     H38906   6.484  11.766   7.103 -3.7016 -0.3744  1.9385
  295MOL0     H38907   6.393  11.665   6.998 -1.6493  0.7221 -0.4697
  295MOL0     H38908   6.275  11.848   6.905  1.0841 -1.3574  0.7192
  295MOL0     H38909   6.380  11.964   6.987 -1.0009  0.0321 -1.5126
  295MOL0     H38910   6.313  11.864   7.208  0.5975 -1.3703 -0.3689
  295MOL0     H38911   6.173  11.785   7.134 -2.2386  0.9389 -3.3546
  295MOL0     H38912   6.115  11.992   7.249  3.8321 -0.6464  2.3645
  295MOL0     H38913   6.228  12.083   7.155 -2.1872  1.7639  0.2859
  295MOL0     H38914   6.095  12.065   6.947 -0.0605 -0.9936 -0.4493
  295MOL0     H38915   5.990  12.117   7.081  2.2265  0.4642  0.7343
  295MOL0     H38916   5.941  11.868   7.105  3.7552 -0.8531  1.2914
  295MOL0     H38917   6.033  11.853   6.959 -3.0043 -1.8998 -1.3878
  295MOL0     H38918   5.867  12.016   6.845 -2.3382  0.9706  0.1643
  295MOL0     H38919   5.781  11.866   6.892 -1.2166 -0.1177  1.0338
  295MOL0     H38920   5.650  12.067   6.955 -0.0768  0.5828 -0.0642
  295MOL0     H38921   5.777  12.128   7.048 -2.4494  0.5630  0.4474
  295MOL0     H38922   6.604  11.557   7.042  1.7532 -2.3182 -1.9113
  295MOL0     H38923   6.827  11.476   7.056  0.2621  1.5255  2.6179
  295MOL0     H38924   7.263  11.574   6.915 -0.7597  0.4693 -1.1824
  295MOL0     H38925   7.515  11.508   6.929  2.4102 -1.1202 -2.0459
  295MOL0     H38926   6.714  10.599   6.271 -0.4397 -1.4917 -0.5418
  295MOL0     H38927   6.564  10.463   6.127  0.0594 -0.8892 -0.1584
  295MOL0     H38928   6.303  10.176   6.034  0.0491  1.8888  0.3313
  295MOL0     H38929   6.191   9.996   5.911  0.9751  0.2783  0.1509
  295MOL0     H38930   5.744   9.969   6.014  1.4613 -1.4300  2.4229
  295MOL0     H38931   5.772   9.813   5.931 -0.1202 -0.4963  0.2420
  295MOL0     H38932   5.759  10.094   5.808 -1.2727 -0.3583  0.6123
  295MOL0     H38933   5.807   9.944   5.720 -3.0732 -1.4848 -2.3067
  295MOL0     H38934   5.556   9.954   5.871  0.0446  1.8333 -0.4511
  295MOL0     H38935   5.603   9.831   5.769 -0.7563  1.2251  1.5810
  295MOL0     H38936   5.581  10.110   5.638  2.5907  0.1102  2.0459
  295MOL0     H38937   5.548   9.953   5.566 -0.1870 -0.3541 -0.8973
  295MOL0     H38938   5.188  10.061   5.771  1.7956  3.5158  2.7397
  295MOL0     H38939   5.827  10.133   6.094  0.3682 -1.6343  1.1271
  295MOL0     H38940   5.928  10.336   6.164  1.3223  2.5858 -1.5540
  296MOL0     O38941   7.242   3.905  11.121 -0.8904 -0.2870  0.0031
  296MOL0     C38942   7.277   3.900  11.002 -1.5086  0.0806 -0.2083
  296MOL0     O38943   7.206   3.830  10.900 -0.1739 -0.0887 -0.0132
  296MOL0     C38944   7.083   3.781  10.913  0.8731  0.2777  0.4137
  296MOL0     C38945   7.020   3.726  11.025 -1.1086 -1.1596  0.2592
  296MOL0     C38946   6.893   3.686  11.022  0.3559  0.7826 -0.2889
  296MOL0     C38947   6.806   3.691  10.909  0.7843  0.7176 -1.0391
  296MOL0     O38948   6.681   3.638  10.937  0.4693  0.1680  0.4073
  296MOL0     C38949   6.592   3.639  10.827  0.0421  0.3823 -0.5298
  296MOL0     C38950   6.455   3.578  10.875 -0.6201 -0.4379 -0.4539
  296MOL0     C38951   6.348   3.575  10.765 -0.4683 -0.1452 -0.3814
  296MOL0     C38952   6.363   3.469  10.655  0.1781 -0.4330 -0.0891
  296MOL0     C38953   6.278   3.481  10.521 -0.0728 -0.9348  0.1291
  296MOL0     C38954   6.304   3.588  10.421  0.0192  0.6626  0.8720
  296MOL0     C38955   6.454   3.577  10.360 -0.0868 -0.2431  0.3335
  296MOL0     C38956   6.499   3.688  10.259 -0.0877  0.1968  0.5110
  296MOL0     N38957   6.527   3.819  10.323 -0.1239 -0.0799 -0.6170
  296MOL0     C38958   6.652   3.865  10.376 -0.0910  0.1062 -0.3490
  296MOL0     C38959   6.638   3.995  10.394  0.1828 -0.8898  0.9940
  296MOL0     C38960   6.757   4.082  10.430 -0.6207 -0.2832  1.0435
  296MOL0     C38961   6.773   4.077  10.578  0.1702 -0.8690  0.1968
  296MOL0     C38962   6.799   4.220  10.630  0.2464  0.4206  0.3436
  296MOL0     C38963   6.933   4.280  10.585 -0.4849  0.7674 -0.0962
  296MOL0     O38964   7.048   4.217  10.651  0.0843 -0.2099 -0.1893
  296MOL0     C38965   7.166   4.217  10.586 -1.2872 -0.2869 -0.2870
  296MOL0     C38966   7.193   4.310  10.483 -0.1111  0.4517 -0.6124
  296MOL0     C38967   7.310   4.309  10.405 -0.2182 -0.2766 -0.3849
  296MOL0     C38968   7.402   4.221  10.441 -0.8331 -0.0926  0.3008
  296MOL0     C38969   7.531   4.210  10.367  0.3683 -0.4646 -0.0336
  296MOL0     O38970   7.568   4.317  10.283 -0.1291 -0.2486 -0.2963
  296MOL0     C38971   7.694   4.321  10.225 -1.0388 -0.5932  0.8123
  296MOL0     C38972   7.809   4.375  10.271  0.4648  0.1097 -0.2094
  296MOL0     C38973   7.929   4.377  10.202  0.4133  0.7129  1.2547
  296MOL0     C38974   7.951   4.285  10.094  0.2476 -0.0482 -0.0189
  296MOL0     O38975   8.072   4.278  10.027  0.4582 -0.6179  0.6872
  296MOL0     C38976   8.105   4.401   9.964  0.7507 -0.1951 -0.0282
  296MOL0     C38977   8.230   4.358   9.895 -0.3811  0.2387 -0.1378
  296MOL0     C38978   8.306   4.468   9.818 -0.0457 -0.1807  0.2455
  296MOL0     C38979   8.421   4.403   9.738 -0.4075 -0.6584  0.3629
  296MOL0     C38980   8.518   4.494   9.652  0.6794 -0.0943 -0.4896
  296MOL0     C38981   8.601   4.402   9.568  0.4283  0.0929 -0.0017
  296MOL0     C38982   8.703   4.471   9.484  0.3541 -0.2446 -0.9861
  296MOL0     C38983   8.811   4.503   9.587 -0.3608 -0.2613 -0.5431
  296MOL0    Cl38984   8.962   4.556   9.512  0.6514  0.5145 -0.5882
  296MOL0     C38985   7.837   4.227  10.032  0.8181  0.8283 -0.0873
  296MOL0     C38986   7.712   4.248  10.099  0.0694  0.4142 -0.5180
  296MOL0     O38987   7.600   4.112  10.394 -0.2729  0.5183 -0.8369
  296MOL0     C38988   7.382   4.130  10.548 -0.6688  0.2337  0.4592
  296MOL0     C38989   7.261   4.125  10.614 -0.6532 -0.5523 -0.0736
  296MOL0     N38990   6.518   4.033  10.335  0.6508  0.6038  0.0080
  296MOL0     N38991   6.442   3.926  10.305 -0.6229 -0.6309 -0.0890
  296MOL0     C38992   6.863   3.755  10.799  0.5420  0.1399 -0.2925
  296MOL0     C38993   6.992   3.801  10.802 -1.1834 -0.0914 -0.2371
  296MOL0     C38994   7.401   3.977  10.954  1.5231  0.5735 -0.2321
  296MOL0     C38995   7.471   4.062  11.039  0.1306  0.0277  0.3919
  296MOL0     C38996   7.588   4.123  11.005 -0.3680 -0.1819 -0.0023
  296MOL0     C38997   7.640   4.108  10.884  0.4363 -0.2703  0.9266
  296MOL0     O38998   7.754   4.189  10.850 -0.0921 -0.1294 -0.1020
  296MOL0     C38999   7.815   4.157  10.724  0.6898  0.0074  0.2711
  296MOL0     C39000   7.932   4.247  10.683 -0.2160 -0.4642  0.5612
  296MOL0     C39001   8.018   4.195  10.559  0.1707  0.3029 -0.6886
  296MOL0     C39002   8.140   4.277  10.525  1.0185 -0.2630 -0.1049
  296MOL0     C39003   8.263   4.217  10.584  0.3881  0.9223  0.6690
  296MOL0     C39004   8.368   4.183  10.631 -0.0959  0.4045  0.0469
  296MOL0     C39005   7.578   4.017  10.801 -0.7058  0.2171  0.2240
  296MOL0     C39006   7.466   3.946  10.834  0.1996 -0.4097 -0.5814
  296MOL0     H39007   7.077   3.707  11.115 -1.3052 -1.1715  0.3817
  296MOL0     H39008   6.858   3.640  11.114 -0.5592 -3.7892 -2.6109
  296MOL0     H39009   6.621   3.581  10.739 -1.9283 -0.9539 -0.3521
  296MOL0     H39010   6.577   3.744  10.799  1.7922  0.0305 -3.1059
  296MOL0     H39011   6.422   3.639  10.959  1.6983  0.0684  0.1744
  296MOL0     H39012   6.459   3.474  10.910 -4.2715  0.1577  2.3181
  296MOL0     H39013   6.348   3.679  10.731 -0.5350 -0.1245 -0.3195
  296MOL0     H39014   6.251   3.574  10.816 -0.9385 -2.5387 -1.1827
  296MOL0     H39015   6.470   3.466  10.630  0.5498 -0.5526  1.4152
  296MOL0     H39016   6.335   3.369  10.689 -3.1223  0.7320  0.9365
  296MOL0     H39017   6.179   3.505  10.560  1.3127  0.7830  2.8902
  296MOL0     H39018   6.267   3.390  10.461 -0.4074 -1.4199  0.9175
  296MOL0     H39019   6.300   3.686  10.470 -2.0914  0.4416  1.2150
  296MOL0     H39020   6.223   3.592  10.349 -0.1479  2.3587  1.1017
  296MOL0     H39021   6.520   3.597  10.446 -0.4441  1.5217  0.2468
  296MOL0     H39022   6.466   3.477  10.318  0.4514 -0.3438  0.7064
  296MOL0     H39023   6.429   3.689  10.175  0.2775 -1.0714  0.1748
  296MOL0     H39024   6.596   3.664  10.216 -0.6710 -0.1087 -0.6746
  296MOL0     H39025   6.742   3.811  10.400 -0.6980 -0.5191  0.5897
  296MOL0     H39026   6.733   4.181  10.391  1.7003  0.4786  1.4178
  296MOL0     H39027   6.848   4.044  10.384 -2.3536 -0.8694 -2.2254
  296MOL0     H39028   6.858   4.016  10.610  1.1388  0.5822  0.5019
  296MOL0     H39029   6.686   4.039  10.632 -0.8250  1.7537  0.5851
  296MOL0     H39030   6.717   4.281  10.591  0.0278 -0.1059 -0.0268
  296MOL0     H39031   6.805   4.213  10.739  3.4695  0.4126  0.2574
  296MOL0     H39032   6.934   4.381  10.627  0.8218 -0.5406  3.3390
  296MOL0     H39033   6.938   4.286  10.476  1.6783 -1.8569 -0.2476
  296MOL0     H39034   7.116   4.382  10.458 -1.5174 -1.2029 -1.2234
  296MOL0     H39035   7.324   4.388  10.333 -1.2032  1.9922  1.7486
  296MOL0     H39036   7.808   4.438  10.359 -2.1536 -0.9670  0.6462
  296MOL0     H39037   8.012   4.431  10.248  0.6239  1.6096 -0.1357
  296MOL0     H39038   8.109   4.483  10.035 -5.8549  0.1983  0.5104
  296MOL0     H39039   8.023   4.424   9.895  0.2354 -1.5172  0.1095
  296MOL0     H39040   8.211   4.273   9.828 -0.0995  0.6045 -0.6932
  296MOL0     H39041   8.292   4.315   9.974  0.8004  3.8786  1.1085
  296MOL0     H39042   8.361   4.523   9.895 -0.3175 -1.3377  1.2914
  296MOL0     H39043   8.245   4.538   9.761  0.1267  3.2132  3.8406
  296MOL0     H39044   8.484   4.333   9.793 -0.4168 -1.4148 -0.5701
  296MOL0     H39045   8.366   4.338   9.670  0.0551 -1.8645  1.1209
  296MOL0     H39046   8.575   4.554   9.724  2.2414 -1.2044 -0.7475
  296MOL0     H39047   8.463   4.563   9.587  2.7923  0.7066 -1.5339
  296MOL0     H39048   8.532   4.349   9.501  0.1682 -0.0469  0.3724
  296MOL0     H39049   8.650   4.331   9.636 -0.2350 -1.6502 -1.2572
  296MOL0     H39050   8.739   4.393   9.416  0.2908 -1.7802  0.6772
  296MOL0     H39051   8.659   4.558   9.435 -1.5341 -0.5660  0.0326
  296MOL0     H39052   8.835   4.415   9.646 -1.1765  0.4066  0.8404
  296MOL0     H39053   8.789   4.591   9.648  0.3006  1.9576 -3.2841
  296MOL0     H39054   7.851   4.170   9.941  0.7586  0.2330  0.2706
  296MOL0     H39055   7.627   4.190  10.066 -0.3939 -0.7473  2.4373
  296MOL0     H39056   7.463   4.066  10.581  0.9829  1.3441 -1.2312
  296MOL0     H39057   7.244   4.058  10.699 -1.4429  1.6404  1.5899
  296MOL0     H39058   6.816   3.764  10.702 -1.3746 -2.6115  0.2297
  296MOL0     H39059   7.028   3.860  10.718  1.0825 -2.0955 -0.8084
  296MOL0     H39060   7.429   4.075  11.139  1.6194 -0.3387  1.0959
  296MOL0     H39061   7.656   4.185  11.062  2.6651 -1.5158 -1.9196
  296MOL0     H39062   7.741   4.160  10.643 -1.2269 -1.1512  1.8851
  296MOL0     H39063   7.851   4.054  10.721  0.9778  0.0511  1.5957
  296MOL0     H39064   7.903   4.349  10.659  4.3215  0.5900 -1.4720
  296MOL0     H39065   8.006   4.246  10.762  1.3277 -0.0961 -0.8321
  296MOL0     H39066   7.954   4.214  10.473 -3.1154  1.7122  1.8530
  296MOL0     H39067   8.042   4.090  10.574  1.8279  0.5351 -1.4405
  296MOL0     H39068   8.164   4.274  10.419  1.3399  0.3815 -0.0607
  296MOL0     H39069   8.120   4.378  10.563 -1.1757 -1.9791  4.0005
  296MOL0     H39070   8.461   4.171  10.683  0.6881  0.0955 -1.3586
  296MOL0     H39071   7.635   3.988  10.713  2.4115  1.9253  1.5159
  296MOL0     H39072   7.421   3.868  10.774  1.8305 -0.2889 -2.0326
  297MOL0     O39073   2.262   1.556   9.614  0.0694  0.3141  0.7486
  297MOL0     C39074   2.288   1.500   9.507  0.1906 -0.3725 -0.4859
  297MOL0     O39075   2.196   1.464   9.419 -0.3398 -0.2111 -0.0930
  297MOL0     C39076   2.062   1.456   9.449 -0.0685 -0.2964 -0.3619
  297MOL0     C39077   1.980   1.547   9.528  0.0778 -0.3013 -0.5611
  297MOL0     C39078   1.848   1.522   9.563  0.2111 -0.4381 -0.5458
  297MOL0     C39079   1.792   1.408   9.509 -0.0261  0.0840 -0.0404
  297MOL0     O39080   1.654   1.385   9.532 -0.2043 -0.1148 -0.0882
  297MOL0     C39081   1.592   1.258   9.521  0.7849 -0.0154  0.2232
  297MOL0     C39082   1.458   1.230   9.585  0.0073  0.3061  0.0511
  297MOL0     C39083   1.356   1.296   9.498  0.1552 -0.5749 -0.3805
  297MOL0     C39084   1.224   1.315   9.566  0.5025 -0.0150  0.0892
  297MOL0     C39085   1.112   1.405   9.501 -0.6523  0.3880  0.4558
  297MOL0     C39086   1.060   1.316   9.389  0.6680 -0.4122  0.6656
  297MOL0     C39087   0.927   1.377   9.339 -0.6207  0.6454 -0.4247
  297MOL0     C39088   0.874   1.267   9.242  0.3075  0.3667  0.3167
  297MOL0     N39089   0.736   1.304   9.198  0.4084 -0.1359 -0.3160
  297MOL0     C39090   0.625   1.304   9.273  0.8677  0.1804 -0.1849
  297MOL0     C39091   0.527   1.336   9.184 -1.1641 -0.4514 -1.3944
  297MOL0     C39092   0.388   1.360   9.227 -0.0203 -0.0909 -0.1352
  297MOL0     C39093   0.298   1.331   9.101  0.3227  0.8687  0.5675
  297MOL0     C39094   0.158   1.307   9.146 -0.0115 -0.0691  0.2477
  297MOL0     C39095   0.063   1.278   9.025 -0.5604  0.1675 -1.1271
  297MOL0     O39096  -0.061   1.257   9.070 -0.4851  1.1470 -0.7928
  297MOL0     C39097  -0.160   1.264   8.979 -0.0877  0.4316  0.2570
  297MOL0     C39098  -0.288   1.243   9.019 -0.1856 -0.0609  0.0822
  297MOL0     C39099  -0.403   1.230   8.926 -0.9319  0.6346  0.0890
  297MOL0     C39100  -0.371   1.243   8.794  0.5831  0.2228 -1.2387
  297MOL0     C39101  -0.474   1.232   8.691  0.5997 -0.6111  0.5927
  297MOL0     O39102  -0.600   1.212   8.738  0.3527 -0.8395 -0.4845
  297MOL0     C39103  -0.717   1.239   8.664  0.2244  0.2745 -0.0801
  297MOL0     C39104  -0.743   1.353   8.588  0.1935 -0.5150  0.1481
  297MOL0     C39105  -0.867   1.370   8.524 -1.2496 -0.1483  0.6629
  297MOL0     C39106  -0.966   1.276   8.531  0.2000  1.0918 -0.0778
  297MOL0     O39107  -1.079   1.284   8.456 -0.3789  0.0060  0.7840
  297MOL0     C39108  -1.210   1.236   8.500 -0.2792  0.0421 -0.0230
  297MOL0     C39109  -1.274   1.335   8.603 -0.8231 -0.1991  0.1249
  297MOL0     C39110  -1.424   1.303   8.631  0.1926 -0.3972  0.1299
  297MOL0     C39111  -1.450   1.214   8.749  0.0895 -0.0012  0.0456
  297MOL0     C39112  -1.394   1.265   8.886  0.2833 -0.3057  0.1977
  297MOL0     C39113  -1.479   1.208   8.999 -0.2234  0.0191  0.2844
  297MOL0     C39114  -1.411   1.253   9.129 -0.1686  0.0541 -0.2666
  297MOL0     C39115  -1.479   1.209   9.261  0.4069  0.5875 -0.2319
  297MOL0    Cl39116  -1.357   1.217   9.393 -0.2547  0.3489  0.3738
  297MOL0     C39117  -0.950   1.167   8.624  0.1213 -1.2549 -0.4679
  297MOL0     C39118  -0.825   1.145   8.688 -0.0513 -0.3132  0.1991
  297MOL0     O39119  -0.439   1.226   8.574 -0.2447  1.0638  0.0547
  297MOL0     C39120  -0.239   1.260   8.751 -1.2530  0.4056  0.2610
  297MOL0     C39121  -0.136   1.270   8.838 -0.9222 -0.1895 -0.1607
  297MOL0     N39122   0.571   1.330   9.060 -0.1727  0.3850  0.9147
  297MOL0     N39123   0.700   1.322   9.065  0.5153 -0.4825  0.0767
  297MOL0     C39124   1.867   1.321   9.417  0.3260 -0.7442 -0.1358
  297MOL0     C39125   1.995   1.353   9.383 -0.3318  0.6661  0.3344
  297MOL0     C39126   2.429   1.488   9.483 -1.2032 -1.1729  0.7192
  297MOL0     C39127   2.486   1.427   9.369  0.4660 -0.0791  0.6372
  297MOL0     C39128   2.625   1.434   9.342  0.1379 -0.6121  0.5716
  297MOL0     C39129   2.715   1.496   9.434  0.7136 -0.8296 -0.3326
  297MOL0     O39130   2.853   1.513   9.418 -0.2765 -0.0430  0.1345
  297MOL0     C39131   2.922   1.412   9.351  0.7691  0.2394 -0.3708
  297MOL0     C39132   3.060   1.399   9.401  0.2715  0.4848  0.5765
  297MOL0     C39133   3.141   1.530   9.374  0.0112  0.4865 -0.0198
  297MOL0     C39134   3.291   1.523   9.415 -0.4457  0.8861  0.1412
  297MOL0     C39135   3.361   1.434   9.320 -0.3823 -0.0161 -0.4205
  297MOL0     C39136   3.424   1.360   9.248  0.3131 -0.4626 -0.4712
  297MOL0     C39137   2.655   1.554   9.543  0.5592  0.6436 -0.1589
  297MOL0     C39138   2.519   1.551   9.577  0.9012 -0.5532 -0.2660
  297MOL0     H39139   2.030   1.637   9.563  1.0403 -0.8081 -0.5710
  297MOL0     H39140   1.789   1.600   9.610 -0.7245  0.5333 -3.1750
  297MOL0     H39141   1.655   1.178   9.560 -0.3244 -0.6757  0.7061
  297MOL0     H39142   1.589   1.245   9.412 -3.3104 -1.3353  0.3124
  297MOL0     H39143   1.469   1.273   9.685  4.6324  3.9612 -1.7072
  297MOL0     H39144   1.429   1.124   9.581  0.5337  0.1529  0.1964
  297MOL0     H39145   1.344   1.235   9.408  2.2286 -0.0859 -1.0575
  297MOL0     H39146   1.378   1.402   9.477 -1.8007 -0.2100 -0.8055
  297MOL0     H39147   1.175   1.224   9.602 -0.9731 -0.0413 -1.8161
  297MOL0     H39148   1.250   1.367   9.658 -0.9426 -0.9825  1.0732
  297MOL0     H39149   1.154   1.492   9.449  3.2904 -2.2227 -1.2635
  297MOL0     H39150   1.036   1.437   9.573 -2.6651  0.3136 -1.5254
  297MOL0     H39151   1.042   1.215   9.426  1.3617 -1.5948 -1.9709
  297MOL0     H39152   1.126   1.309   9.302 -2.2469  3.5955 -2.2338
  297MOL0     H39153   0.860   1.404   9.421  1.4836  1.7167  1.0338
  297MOL0     H39154   0.945   1.464   9.274 -1.1153 -1.0269 -2.9620
  297MOL0     H39155   0.868   1.168   9.288 -1.1868 -0.7770 -2.0887
  297MOL0     H39156   0.928   1.262   9.147 -0.4217  3.0173 -0.3227
  297MOL0     H39157   0.616   1.289   9.380 -2.5238  2.5190 -0.0079
  297MOL0     H39158   0.388   1.464   9.262  0.4104  0.8381 -2.7168
  297MOL0     H39159   0.359   1.293   9.309 -1.4757 -0.3086 -0.8019
  297MOL0     H39160   0.328   1.234   9.061  2.4750  2.1507 -1.2367
  297MOL0     H39161   0.304   1.409   9.023  0.4519 -0.0732 -0.3927
  297MOL0     H39162   0.158   1.220   9.212 -0.5476 -0.1918  0.0877
  297MOL0     H39163   0.126   1.391   9.207  2.3838  2.2918 -1.5171
  297MOL0     H39164   0.099   1.195   8.963 -1.5823 -1.1295 -0.0137
  297MOL0     H39165   0.065   1.372   8.968 -2.1877  0.1219 -1.3035
  297MOL0     H39166  -0.314   1.237   9.124 -2.8986  2.5473 -0.3011
  297MOL0     H39167  -0.505   1.207   8.955 -0.9873 -1.0053 -1.2317
  297MOL0     H39168  -0.663   1.425   8.580 -0.1041 -0.0982  0.8673
  297MOL0     H39169  -0.881   1.454   8.457 -0.8463  0.3030  1.1346
  297MOL0     H39170  -1.206   1.139   8.549 -1.2229 -0.6385 -1.2481
  297MOL0     H39171  -1.271   1.238   8.409  0.6089  1.3473 -0.6284
  297MOL0     H39172  -1.259   1.434   8.559  0.0332 -0.7120 -0.7748
  297MOL0     H39173  -1.218   1.328   8.697 -2.7565 -0.0323  1.3397
  297MOL0     H39174  -1.471   1.259   8.543  3.7235 -2.2300 -1.0240
  297MOL0     H39175  -1.475   1.398   8.651  0.6683 -0.2282  0.5772
  297MOL0     H39176  -1.559   1.209   8.758 -0.0324  2.0310  0.3130
  297MOL0     H39177  -1.433   1.109   8.725 -3.2066 -1.1007  1.8745
  297MOL0     H39178  -1.404   1.374   8.887  0.8533 -0.2362 -0.6456
  297MOL0     H39179  -1.289   1.236   8.892  0.6619  0.6035 -1.4738
  297MOL0     H39180  -1.485   1.100   8.984 -0.7746  0.3490 -2.3003
  297MOL0     H39181  -1.582   1.245   8.994 -0.6990 -1.0144  1.6493
  297MOL0     H39182  -1.308   1.216   9.122 -0.2945 -0.5574  0.8722
  297MOL0     H39183  -1.411   1.363   9.129  1.0725  0.1061 -2.0600
  297MOL0     H39184  -1.511   1.105   9.245  1.9377 -0.4179  2.6009
  297MOL0     H39185  -1.570   1.269   9.268  1.5181  2.4285 -0.9120
  297MOL0     H39186  -1.037   1.106   8.650 -1.9225  0.7138 -2.2321
  297MOL0     H39187  -0.819   1.052   8.743 -0.6287  1.1134  2.8480
  297MOL0     H39188  -0.196   1.281   8.653  1.5594  0.4916  1.4170
  297MOL0     H39189  -0.042   1.277   8.784 -1.0060 -1.3744 -0.4919
  297MOL0     H39190   1.813   1.239   9.370  0.7952 -0.9819 -0.2583
  297MOL0     H39191   2.047   1.283   9.318 -0.8064 -0.4299  1.0961
  297MOL0     H39192   2.436   1.366   9.294  2.0519 -2.4392  1.3728
  297MOL0     H39193   2.676   1.384   9.261  2.0786  0.0515  1.3415
  297MOL0     H39194   2.909   1.420   9.243  0.7190 -2.9708 -0.7106
  297MOL0     H39195   2.877   1.319   9.388 -0.2326  0.8463 -0.0219
  297MOL0     H39196   3.057   1.375   9.508  4.0853  1.4262  1.0561
  297MOL0     H39197   3.107   1.315   9.349  1.6537  0.4604  1.8239
  297MOL0     H39198   3.099   1.614   9.431 -0.7147 -0.7649  1.3418
  297MOL0     H39199   3.134   1.552   9.267 -5.0073  1.9167  0.3357
  297MOL0     H39200   3.318   1.629   9.417 -2.2413  1.3633  1.0702
  297MOL0     H39201   3.308   1.475   9.512 -0.6655  1.7304  0.6066
  297MOL0     H39202   3.475   1.285   9.190  0.3889  1.1421 -2.6076
  297MOL0     H39203   2.721   1.607   9.611  0.8079  1.2876 -0.8789
  297MOL0     H39204   2.475   1.605   9.660 -3.1437 -1.2558 -1.7169
  298MOL0     O39205   1.674   0.114   1.952 -0.2093 -0.5133  0.8681
  298MOL0     C39206   1.713   0.228   1.950  0.9921 -0.7786 -0.3659
  298MOL0     O39207   1.633   0.338   1.957 -0.6060  0.7837  0.2349
  298MOL0     C39208   1.498   0.319   1.982 -0.1794 -0.0840 -0.0656
  298MOL0     C39209   1.463   0.355   2.110  0.0746  0.1339 -0.1872
  298MOL0     C39210   1.337   0.325   2.147  0.5760  0.3548  0.0731
  298MOL0     C39211   1.243   0.270   2.048 -0.1074  0.4790  0.6738
  298MOL0     O39212   1.116   0.247   2.097  0.2148  0.0398  0.0346
  298MOL0     C39213   1.011   0.216   2.001  0.1165  0.2155 -0.7456
  298MOL0     C39214   0.887   0.231   2.090  0.2511  1.0874  0.2131
  298MOL0     C39215   0.760   0.202   2.007 -0.3265  0.7168 -0.3856
  298MOL0     C39216   0.638   0.186   2.097  0.6775 -0.3473  0.4759
  298MOL0     C39217   0.513   0.178   2.019  0.5284  0.2397  0.3848
  298MOL0     C39218   0.377   0.166   2.105  0.2004 -0.0157  0.3581
  298MOL0     C39219   0.332   0.295   2.161 -0.3346 -0.2311  0.0914
  298MOL0     C39220   0.209   0.278   2.244  0.0380 -0.0522 -0.7229
  298MOL0     N39221   0.084   0.321   2.169  0.4492 -0.7763 -0.2690
  298MOL0     C39222  -0.005   0.233   2.102 -0.1025 -0.4428 -0.0163
  298MOL0     C39223  -0.108   0.307   2.066  0.6941 -0.3106  0.2138
  298MOL0     C39224  -0.226   0.271   1.972  0.2342  0.4924 -0.6468
  298MOL0     C39225  -0.352   0.220   2.035 -0.4552 -0.0172  0.3492
  298MOL0     C39226  -0.434   0.180   1.914 -0.1360  0.7440 -0.4868
  298MOL0     C39227  -0.552   0.096   1.955  0.3941  0.0611  0.2873
  298MOL0     O39228  -0.645   0.190   2.010  0.7604  0.0445  0.1258
  298MOL0     C39229  -0.768   0.143   2.067  0.8746  0.5240 -1.0085
  298MOL0     C39230  -0.799   0.003   2.103  0.5884 -0.9336 -0.0219
  298MOL0     C39231  -0.933  -0.016   2.149 -0.8104 -0.4866 -0.2031
  298MOL0     C39232  -1.036   0.077   2.140  0.8455 -0.2377  0.3499
  298MOL0     C39233  -1.173   0.054   2.192 -0.8018 -0.5137  0.2689
  298MOL0     O39234  -1.261   0.161   2.181 -1.1405 -0.3486  0.0542
  298MOL0     C39235  -1.379   0.150   2.245  0.0042  0.7193 -0.5646
  298MOL0     C39236  -1.490   0.086   2.191  0.1498 -0.0763  0.1805
  298MOL0     C39237  -1.611   0.070   2.261 -0.0067  0.8054 -0.0310
  298MOL0     C39238  -1.628   0.126   2.391 -0.2831  0.5224  0.1762
  298MOL0     O39239  -1.742   0.117   2.470  0.0219 -0.2507  0.3391
  298MOL0     C39240  -1.849   0.027   2.434 -0.2486  0.4726  0.9125
  298MOL0     C39241  -1.946   0.010   2.552  0.4475 -0.1329  0.2438
  298MOL0     C39242  -2.045  -0.105   2.530 -0.3345  0.3298 -0.1814
  298MOL0     C39243  -2.167  -0.068   2.446  0.0629  0.2809  0.4552
  298MOL0     C39244  -2.263  -0.183   2.439  0.0838  0.2855  0.6473
  298MOL0     C39245  -2.380  -0.146   2.358 -0.6235 -0.6512  0.9639
  298MOL0     C39246  -2.420  -0.267   2.260  0.6323  0.0356 -0.0014
  298MOL0     C39247  -2.554  -0.233   2.190  1.0137 -0.2943 -1.0461
  298MOL0    Cl39248  -2.531  -0.102   2.079  0.2225  0.0147  0.1906
  298MOL0     C39249  -1.517   0.184   2.447  0.0444  0.2346  0.2155
  298MOL0     C39250  -1.400   0.206   2.378 -0.0072  0.0898  0.0996
  298MOL0     O39251  -1.203  -0.055   2.239  0.1217  0.3007 -0.0356
  298MOL0     C39252  -1.001   0.205   2.094  0.5880 -0.8275 -0.1586
  298MOL0     C39253  -0.869   0.236   2.068  0.4903 -0.6050 -0.0020
  298MOL0     N39254  -0.086   0.440   2.100  0.5586 -0.8611 -0.1121
  298MOL0     N39255   0.019   0.446   2.171 -0.3165  0.0090 -0.3724
  298MOL0     C39256   1.279   0.242   1.915  1.7298  0.1133  0.3641
  298MOL0     C39257   1.412   0.270   1.884  0.4331 -0.1806  0.1608
  298MOL0     C39258   1.856   0.261   1.950  1.1133 -0.1319  0.6349
  298MOL0     C39259   1.951   0.161   1.978 -0.6748 -0.4011  0.5111
  298MOL0     C39260   2.086   0.198   2.009  0.1814  0.0122  0.2325
  298MOL0     C39261   2.122   0.327   2.022  0.0761  0.4544  0.5317
  298MOL0     O39262   2.249   0.359   2.059  0.0133 -0.7270  0.0503
  298MOL0     C39263   2.352   0.349   1.957  0.0470 -0.3235  0.2135
  298MOL0     C39264   2.480   0.404   2.010  0.0106  0.8464  0.7295
  298MOL0     C39265   2.595   0.398   1.912 -0.2450 -0.5172  0.4094
  298MOL0     C39266   2.697   0.287   1.955  0.3368 -0.0139  0.5467
  298MOL0     C39267   2.804   0.269   1.862 -0.4005 -0.5606 -0.0934
  298MOL0     C39268   2.895   0.254   1.782  0.0254 -0.1491 -0.2464
  298MOL0     C39269   2.028   0.424   1.978  0.6115  0.3580  0.1073
  298MOL0     C39270   1.902   0.394   1.942  0.0322 -0.5124 -0.5359
  298MOL0     H39271   1.531   0.387   2.188 -1.4618  5.2280 -0.5831
  298MOL0     H39272   1.310   0.337   2.251 -3.1776 -2.9061 -0.2993
  298MOL0     H39273   1.023   0.112   1.970  0.1542  0.2402 -0.8152
  298MOL0     H39274   1.004   0.289   1.920  0.3152  0.4934 -0.5137
  298MOL0     H39275   0.870   0.335   2.121  0.3504  2.0051 -2.4987
  298MOL0     H39276   0.899   0.165   2.176  4.2273  1.1668 -0.1112
  298MOL0     H39277   0.785   0.103   1.969  4.4345  1.9694 -1.2398
  298MOL0     H39278   0.742   0.268   1.922 -0.9676 -1.4004 -1.9963
  298MOL0     H39279   0.653   0.104   2.167  0.8463 -0.8030 -0.0860
  298MOL0     H39280   0.637   0.271   2.166 -1.3275 -1.1809  1.5417
  298MOL0     H39281   0.522   0.093   1.950 -3.7618 -1.2310  1.2742
  298MOL0     H39282   0.499   0.253   1.941  1.6205 -1.2569 -1.3293
  298MOL0     H39283   0.380   0.086   2.181 -0.8536 -0.8874 -0.4893
  298MOL0     H39284   0.299   0.143   2.032 -1.0382 -1.0604  1.9183
  298MOL0     H39285   0.410   0.323   2.233 -1.1320  0.7680  0.5988
  298MOL0     H39286   0.323   0.382   2.095 -1.5066 -0.1937  0.2743
  298MOL0     H39287   0.222   0.335   2.337 -4.0495 -1.5558  1.0074
  298MOL0     H39288   0.184   0.177   2.278  1.5551 -0.4407 -0.6814
  298MOL0     H39289   0.008   0.131   2.066 -0.2521  0.0875 -1.6618
  298MOL0     H39290  -0.183   0.217   1.887  1.7675  1.5958 -0.6118
  298MOL0     H39291  -0.254   0.363   1.922  1.0033  0.6437 -0.8123
  298MOL0     H39292  -0.401   0.295   2.098 -1.4248 -2.1547  2.3092
  298MOL0     H39293  -0.321   0.137   2.100  3.1855  0.6214 -0.3326
  298MOL0     H39294  -0.469   0.272   1.867  0.9051  0.4061 -1.9918
  298MOL0     H39295  -0.374   0.115   1.850  0.1431  1.8234 -1.3554
  298MOL0     H39296  -0.517   0.019   2.024 -0.3372  0.2605  0.8995
  298MOL0     H39297  -0.588   0.049   1.863  3.1495 -1.7069 -0.0033
  298MOL0     H39298  -0.722  -0.073   2.107  1.0442 -0.4246  1.2501
  298MOL0     H39299  -0.955  -0.110   2.197  1.5096 -2.1571 -2.1618
  298MOL0     H39300  -1.480   0.049   2.090  1.9705  1.5348 -0.2977
  298MOL0     H39301  -1.690   0.017   2.209  1.6494  0.5052 -2.3996
  298MOL0     H39302  -1.791  -0.062   2.408  1.8443  1.6773  1.2665
  298MOL0     H39303  -1.898   0.067   2.344  0.6141 -0.8504 -0.1966
  298MOL0     H39304  -2.003   0.101   2.567 -2.2211 -1.7631  0.6105
  298MOL0     H39305  -1.885  -0.007   2.641  3.0619 -0.2414 -1.4453
  298MOL0     H39306  -2.083  -0.131   2.629  0.9078  0.3925  0.3316
  298MOL0     H39307  -2.000  -0.199   2.498 -1.9131 -0.7475  0.6083
  298MOL0     H39308  -2.219   0.017   2.492 -2.1819  0.8263 -2.7610
  298MOL0     H39309  -2.131  -0.046   2.345  2.2057 -0.6875  0.9412
  298MOL0     H39310  -2.295  -0.210   2.540 -2.8402  2.6468  0.4851
  298MOL0     H39311  -2.211  -0.264   2.386  0.8143  0.9550  0.3271
  298MOL0     H39312  -2.348  -0.057   2.302  2.2952 -1.1967  1.6422
  298MOL0     H39313  -2.464  -0.103   2.414 -0.9932  1.4979 -1.0430
  298MOL0     H39314  -2.348  -0.278   2.179 -2.8255 -0.8547 -3.2279
  298MOL0     H39315  -2.425  -0.359   2.319 -1.5472  0.0197 -0.1316
  298MOL0     H39316  -2.635  -0.207   2.259  0.2754 -1.4204 -1.4708
  298MOL0     H39317  -2.574  -0.326   2.138 -0.0563 -1.2553  0.9623
  298MOL0     H39318  -1.517   0.206   2.554  2.3359  2.0721 -0.0711
  298MOL0     H39319  -1.318   0.266   2.418  0.7812 -0.0408 -1.2341
  298MOL0     H39320  -1.072   0.287   2.096  2.8286  1.4269 -3.1810
  298MOL0     H39321  -0.841   0.337   2.039  1.4931 -0.7573  0.3802
  298MOL0     H39322   1.206   0.198   1.848  2.3916 -1.6429  0.7369
  298MOL0     H39323   1.444   0.257   1.780 -1.1173  0.3039 -0.4014
  298MOL0     H39324   1.929   0.055   1.983  0.4225 -0.6568  0.2677
  298MOL0     H39325   2.171   0.134   2.030 -0.3959 -1.2054 -0.9704
  298MOL0     H39326   2.328   0.415   1.873  1.2915  2.7095  2.0638
  298MOL0     H39327   2.368   0.247   1.922  0.8680 -0.6377  1.4564
  298MOL0     H39328   2.459   0.509   2.032  3.1635  1.3929  1.5604
  298MOL0     H39329   2.502   0.351   2.104 -4.4641  0.4377  1.7935
  298MOL0     H39330   2.656   0.489   1.911  3.8831 -3.0301 -0.9665
  298MOL0     H39331   2.563   0.374   1.810 -0.0331  0.9174 -0.0080
  298MOL0     H39332   2.738   0.318   2.052 -0.1097 -1.3003  1.1713
  298MOL0     H39333   2.642   0.192   1.960 -1.3483  0.4649 -3.9777
  298MOL0     H39334   2.972   0.243   1.708 -0.8406  1.9278 -1.5581
  298MOL0     H39335   2.049   0.530   1.976  0.8223  0.3088 -0.5672
  298MOL0     H39336   1.829   0.473   1.927 -0.1299 -0.2976  1.1879
  299MOL0     O39337   6.884   2.660   6.180 -0.0685 -0.5949  0.0264
  299MOL0     C39338   6.879   2.598   6.282  0.5202 -0.2930  0.2440
  299MOL0     O39339   6.782   2.614   6.386 -0.4958  0.3746  0.6191
  299MOL0     C39340   6.673   2.697   6.368  0.7827 -1.0665  1.0479
  299MOL0     C39341   6.624   2.763   6.480  0.5183  0.3994  0.4727
  299MOL0     C39342   6.494   2.815   6.487 -0.9532  0.3539 -0.0615
  299MOL0     C39343   6.424   2.822   6.362  0.2744  0.4079 -0.4858
  299MOL0     O39344   6.299   2.878   6.348  0.3007  0.1045  0.2540
  299MOL0     C39345   6.228   2.942   6.452  0.0098  0.3008 -0.9836
  299MOL0     C39346   6.125   3.036   6.399  0.1299 -0.0709  0.0933
  299MOL0     C39347   6.020   2.960   6.317  0.4717 -0.5939  0.3947
  299MOL0     C39348   5.888   3.045   6.310 -0.1162  0.0088  0.5233
  299MOL0     C39349   5.774   2.946   6.279 -0.2360 -0.4395 -0.5286
  299MOL0     C39350   5.653   3.014   6.214 -0.1566  0.3366  0.5801
  299MOL0     C39351   5.582   3.117   6.298 -0.6100  0.0964 -0.6776
  299MOL0     C39352   5.423   3.101   6.286  0.1641 -0.6008  0.3124
  299MOL0     N39353   5.373   2.993   6.373 -0.6449 -0.0060  0.4750
  299MOL0     C39354   5.254   2.938   6.360  0.2167 -0.2150  0.9147
  299MOL0     C39355   5.244   2.854   6.464  0.3501  0.5434 -0.0328
  299MOL0     C39356   5.131   2.759   6.480 -0.3712  0.5333 -0.4455
  299MOL0     C39357   5.005   2.829   6.530 -0.3665  0.0110 -0.5015
  299MOL0     C39358   4.878   2.746   6.501  0.4137 -0.3797  0.3082
  299MOL0     C39359   4.739   2.785   6.552 -0.6175  0.1243 -0.3207
  299MOL0     O39360   4.705   2.922   6.522  0.0134 -0.2060  0.3557
  299MOL0     C39361   4.586   2.957   6.581  0.1095  0.4140  0.7586
  299MOL0     C39362   4.564   3.096   6.584 -0.1486  0.2087 -0.3535
  299MOL0     C39363   4.446   3.140   6.643 -0.1010  0.4701 -0.2828
  299MOL0     C39364   4.360   3.044   6.703  0.3413 -0.6865 -0.3128
  299MOL0     C39365   4.232   3.083   6.771  0.1702 -0.6048  0.0614
  299MOL0     O39366   4.223   3.215   6.804  0.3052  0.2678  0.9907
  299MOL0     C39367   4.103   3.275   6.825  0.4472 -0.0687  0.1990
  299MOL0     C39368   4.053   3.308   6.947  0.1816  0.2956  0.6180
  299MOL0     C39369   3.934   3.373   6.971 -0.0474 -1.1197 -0.6252
  299MOL0     C39370   3.873   3.433   6.864  1.5762  0.3747  0.8695
  299MOL0     O39371   3.753   3.514   6.878 -0.6541  0.1273  0.0926
  299MOL0     C39372   3.684   3.578   6.769 -1.0813  0.8632 -0.2602
  299MOL0     C39373   3.575   3.677   6.828 -1.0199 -0.6795 -0.2458
  299MOL0     C39374   3.639   3.810   6.852 -0.4479  0.0528 -0.6452
  299MOL0     C39375   3.537   3.912   6.908 -0.4414 -0.4927 -0.8815
  299MOL0     C39376   3.604   4.040   6.960  0.5430  0.5204 -0.1322
  299MOL0     C39377   3.495   4.126   7.021 -0.1617  0.3906  0.4725
  299MOL0     C39378   3.416   4.050   7.127 -0.0472  0.9212 -1.5144
  299MOL0     C39379   3.373   4.143   7.236  0.1461 -0.0919  0.0309
  299MOL0    Cl39380   3.523   4.185   7.328 -0.5840 -0.3351  0.1509
  299MOL0     C39381   3.927   3.408   6.730 -0.7195 -0.3310  0.1611
  299MOL0     C39382   4.030   3.312   6.712  0.1419 -0.0455  0.7812
  299MOL0     O39383   4.147   3.000   6.802  0.0440  0.1742 -0.3248
  299MOL0     C39384   4.391   2.907   6.709 -0.7598 -0.5533 -0.2404
  299MOL0     C39385   4.503   2.867   6.649  0.5409  1.0235 -0.1727
  299MOL0     N39386   5.355   2.868   6.542 -0.3535 -0.5925 -0.5336
  299MOL0     N39387   5.434   2.948   6.487  0.3368  0.4462  0.4339
  299MOL0     C39388   6.478   2.773   6.246  0.0855 -0.3208 -0.1813
  299MOL0     C39389   6.603   2.710   6.241  0.6226  0.5529  0.1465
  299MOL0     C39390   7.000   2.526   6.326 -0.0360  0.4798  0.0906
  299MOL0     C39391   7.108   2.508   6.238 -0.1539  0.6669 -0.3875
  299MOL0     C39392   7.220   2.427   6.276 -0.0530 -0.4316  0.3990
  299MOL0     C39393   7.235   2.385   6.405 -0.3888  1.0883 -0.3969
  299MOL0     O39394   7.344   2.310   6.440 -0.6206  0.1329  0.3928
  299MOL0     C39395   7.438   2.374   6.529  0.1192  0.4267  0.5831
  299MOL0     C39396   7.567   2.285   6.533 -0.2868 -0.3143 -0.6870
  299MOL0     C39397   7.551   2.161   6.635 -0.5674 -0.2082  0.3853
  299MOL0     C39398   7.678   2.088   6.664  0.1604  0.5478  0.3408
  299MOL0     C39399   7.714   2.035   6.536 -0.8955 -0.4391 -0.3836
  299MOL0     C39400   7.739   1.994   6.429  0.8322  0.2530  0.6053
  299MOL0     C39401   7.128   2.399   6.495 -0.6371  0.1913 -0.0479
  299MOL0     C39402   7.017   2.472   6.452  0.3403 -0.2704  0.1982
  299MOL0     H39403   6.683   2.752   6.570  0.2046 -1.5943  0.4815
  299MOL0     H39404   6.441   2.849   6.575 -1.3353 -1.1910  0.3400
  299MOL0     H39405   6.289   2.994   6.526 -2.5135  4.1604 -1.3145
  299MOL0     H39406   6.178   2.873   6.521  0.8844  0.2294 -0.4062
  299MOL0     H39407   6.165   3.118   6.338  1.9462 -1.7106 -1.0541
  299MOL0     H39408   6.080   3.082   6.488 -3.7653 -1.7286 -0.7885
  299MOL0     H39409   6.011   2.865   6.370 -2.5686 -0.1343  0.8383
  299MOL0     H39410   6.054   2.921   6.220  1.7771 -0.3415  0.7325
  299MOL0     H39411   5.868   3.092   6.407  0.2983  4.5891 -1.3495
  299MOL0     H39412   5.902   3.132   6.245  0.5788 -1.4880 -1.4094
  299MOL0     H39413   5.752   2.899   6.376  1.7092 -0.9484 -0.2909
  299MOL0     H39414   5.805   2.865   6.213  2.0913 -0.2205  0.2063
  299MOL0     H39415   5.576   2.938   6.205  0.4544 -0.5985  2.8084
  299MOL0     H39416   5.676   3.041   6.110 -3.2049 -1.9293 -0.8379
  299MOL0     H39417   5.620   3.108   6.400 -0.1218  1.3029 -0.7316
  299MOL0     H39418   5.616   3.207   6.245  1.7608 -0.1805  0.2709
  299MOL0     H39419   5.390   3.094   6.182  3.4473 -1.1169 -0.8055
  299MOL0     H39420   5.371   3.196   6.302 -0.6899 -0.1703 -3.8844
  299MOL0     H39421   5.189   2.944   6.273  1.2475  2.6627  0.2284
  299MOL0     H39422   5.148   2.681   6.555  0.4103  2.0284  1.0106
  299MOL0     H39423   5.123   2.707   6.384  1.0876 -0.7823  0.1074
  299MOL0     H39424   4.988   2.922   6.475 -1.7617 -0.5918 -1.1494
  299MOL0     H39425   5.011   2.847   6.638  1.3586  0.8880 -0.7065
  299MOL0     H39426   4.867   2.727   6.394  3.9258 -4.0441  0.3404
  299MOL0     H39427   4.886   2.646   6.546 -4.0787  0.7361  4.5421
  299MOL0     H39428   4.758   2.767   6.658 -1.5138 -2.0867 -0.4761
  299MOL0     H39429   4.667   2.709   6.519  1.5285 -3.0470  1.6603
  299MOL0     H39430   4.640   3.160   6.541 -1.2370  0.4898 -1.9317
  299MOL0     H39431   4.424   3.246   6.640 -1.0256  0.3560  1.5078
  299MOL0     H39432   4.109   3.265   7.029 -0.1752 -0.6826  0.3602
  299MOL0     H39433   3.880   3.397   7.062  1.6252  1.3773 -0.1767
  299MOL0     H39434   3.634   3.499   6.711 -0.5238  1.1917 -1.2095
  299MOL0     H39435   3.742   3.635   6.696  1.9308 -2.7078 -0.9583
  299MOL0     H39436   3.528   3.634   6.918 -2.1239 -0.2996 -0.6236
  299MOL0     H39437   3.492   3.705   6.763 -1.7436 -0.2541  0.8219
  299MOL0     H39438   3.696   3.846   6.766 -0.8089  0.1001 -0.8686
  299MOL0     H39439   3.707   3.800   6.937  0.1994  1.2108 -1.0014
  299MOL0     H39440   3.459   3.931   6.833  0.4876  0.5251 -1.6363
  299MOL0     H39441   3.481   3.864   6.988 -0.4952 -0.7098 -1.0497
  299MOL0     H39442   3.652   4.091   6.875 -1.7727 -0.2968 -2.0279
  299MOL0     H39443   3.685   4.014   7.028  0.1644  2.3303  1.0857
  299MOL0     H39444   3.429   4.165   6.943  1.5982  1.3601 -0.6279
  299MOL0     H39445   3.551   4.212   7.059 -1.6820  2.2137 -1.2147
  299MOL0     H39446   3.321   4.010   7.087  1.3978 -0.9516 -3.3384
  299MOL0     H39447   3.473   3.967   7.170 -0.7934  0.4585 -1.3899
  299MOL0     H39448   3.306   4.089   7.304  1.2069  0.8149  1.8903
  299MOL0     H39449   3.322   4.228   7.190 -0.0546 -0.6255 -0.7444
  299MOL0     H39450   3.867   3.442   6.646 -0.4075  1.4160  0.6106
  299MOL0     H39451   4.053   3.276   6.612 -0.7568 -2.4535  1.3858
  299MOL0     H39452   4.323   2.838   6.757  0.0592 -0.1943  1.5230
  299MOL0     H39453   4.533   2.770   6.689 -1.3760  0.5102  0.1287
  299MOL0     H39454   6.419   2.775   6.155 -2.7193 -2.8416  1.3903
  299MOL0     H39455   6.648   2.674   6.149 -0.5239 -3.1047  0.8634
  299MOL0     H39456   7.097   2.537   6.134  0.1042 -0.7710 -0.8284
  299MOL0     H39457   7.291   2.412   6.195 -3.4261  0.6350 -3.0745
  299MOL0     H39458   7.393   2.376   6.629  0.2264 -4.7065  0.9881
  299MOL0     H39459   7.457   2.479   6.503  2.0259  0.9149  3.4531
  299MOL0     H39460   7.596   2.247   6.435  1.6185 -4.3227  1.1996
  299MOL0     H39461   7.654   2.348   6.551 -0.0101 -0.3501 -1.8546
  299MOL0     H39462   7.473   2.099   6.589  0.3217  1.7335 -4.3682
  299MOL0     H39463   7.532   2.190   6.739  1.6677 -0.6926  0.9787
  299MOL0     H39464   7.758   2.154   6.698  0.0557  2.4322 -2.6712
  299MOL0     H39465   7.655   2.005   6.732 -0.1585 -0.9507 -1.5205
  299MOL0     H39466   7.767   1.946   6.337 -1.9240 -3.7555  1.5869
  299MOL0     H39467   7.130   2.365   6.598  1.9084  1.3488  0.3697
  299MOL0     H39468   6.934   2.486   6.521 -1.3975 -0.1113 -1.8178
  300MOL0     O39469   4.564   7.668  10.379 -0.3012  0.0850 -0.5895
  300MOL0     C39470   4.513   7.600  10.291 -0.1088 -0.0712  0.1041
  300MOL0     O39471   4.401   7.528  10.305  0.5087  0.1391  0.2177
  300MOL0     C39472   4.332   7.502  10.422 -0.2547  0.5850 -0.5264
  300MOL0     C39473   4.193   7.477  10.418  0.0785 -0.1422  0.6019
  300MOL0     C39474   4.112   7.453  10.527 -0.0468  0.5202 -0.3079
  300MOL0     C39475   4.177   7.458  10.656 -0.4904  0.0480 -0.3740
  300MOL0     O39476   4.095   7.462  10.773 -1.1246  0.8464  0.2241
  300MOL0     C39477   4.144   7.436  10.908 -0.3981 -0.2225  0.0050
  300MOL0     C39478   4.161   7.283  10.913  0.0575 -0.5960  0.8477
  300MOL0     C39479   4.032   7.203  10.876  0.3888  0.2374  0.8391
  300MOL0     C39480   3.912   7.238  10.956  0.3449 -0.6142 -0.1583
  300MOL0     C39481   3.793   7.158  10.912  0.0883 -0.2353 -0.2139
  300MOL0     C39482   3.684   7.187  11.007  0.2140  0.0197  0.3514
  300MOL0     C39483   3.549   7.135  10.953  0.1305 -0.2644 -0.6024
  300MOL0     C39484   3.421   7.225  10.993 -0.4503  0.5396 -0.8015
  300MOL0     N39485   3.312   7.187  10.909 -0.0107  1.0016 -0.1270
  300MOL0     C39486   3.201   7.117  10.956 -0.0029 -0.2380  0.7868
  300MOL0     C39487   3.128   7.106  10.835 -1.0451 -1.2490 -0.1453
  300MOL0     C39488   3.003   7.027  10.842  0.3245  0.2427  0.4403
  300MOL0     C39489   2.892   7.103  10.755 -0.5914  0.8519 -0.1999
  300MOL0     C39490   2.773   7.014  10.727  0.8752 -0.0946  1.0276
  300MOL0     C39491   2.657   7.095  10.653  0.2660  0.6273  0.1401
  300MOL0     O39492   2.537   7.016  10.637  0.1098  0.3033  0.5247
  300MOL0     C39493   2.459   6.979  10.750 -0.6587  0.4237  0.8849
  300MOL0     C39494   2.481   7.031  10.879 -0.3387 -1.2033 -0.5190
  300MOL0     C39495   2.406   6.978  10.993 -0.0866  0.2055  0.0966
  300MOL0     C39496   2.309   6.879  10.977  0.0141  0.0039  0.7309
  300MOL0     C39497   2.224   6.827  11.091 -0.9613 -0.1838 -0.2649
  300MOL0     O39498   2.270   6.853  11.214 -0.4902  0.0301 -0.5074
  300MOL0     C39499   2.200   6.834  11.334 -0.0876 -0.0613 -0.6546
  300MOL0     C39500   2.283   6.846  11.447  0.8403 -0.1705 -0.7697
  300MOL0     C39501   2.237   6.830  11.578  1.0831 -0.1320  0.6594
  300MOL0     C39502   2.098   6.815  11.601 -0.5876 -0.0366  0.0552
  300MOL0     O39503   2.040   6.821  11.723 -0.1489  0.7663 -0.3601
  300MOL0     C39504   2.128   6.814  11.843  0.0603 -0.2176  0.5114
  300MOL0     C39505   2.034   6.771  11.954  0.6114 -0.1047 -0.0371
  300MOL0     C39506   1.933   6.880  11.993  0.3785 -0.1369 -0.2850
  300MOL0     C39507   1.896   6.869  12.143  0.2813  0.2773 -0.0337
  300MOL0     C39508   1.818   6.998  12.186  0.9436 -0.2793  0.4629
  300MOL0     C39509   1.676   6.976  12.230 -0.5543 -0.0551  0.6587
  300MOL0     C39510   1.617   7.105  12.294 -0.4411 -0.1109  1.3246
  300MOL0     C39511   1.635   7.104  12.441 -0.2373 -0.2713  0.2243
  300MOL0    Cl39512   1.527   7.227  12.520 -0.1143 -0.4067  0.2760
  300MOL0     C39513   2.009   6.806  11.488 -0.2026 -0.3816  0.4030
  300MOL0     C39514   2.062   6.802  11.352  0.0474 -0.5846 -0.2246
  300MOL0     O39515   2.126   6.756  11.066  0.2419  0.2230 -0.0635
  300MOL0     C39516   2.282   6.838  10.841 -0.8148  0.4361  0.0957
  300MOL0     C39517   2.360   6.879  10.735  0.2879  0.4669  0.7168
  300MOL0     N39518   3.210   7.154  10.730  0.3606 -0.3168  0.4205
  300MOL0     N39519   3.312   7.212  10.777 -0.0723  0.7273  0.4239
  300MOL0     C39520   4.317   7.471  10.661  0.5853 -0.0299 -0.2801
  300MOL0     C39521   4.395   7.494  10.548 -0.1674 -0.3445  0.0735
  300MOL0     C39522   4.576   7.593  10.159 -0.6198 -0.4806 -0.7693
  300MOL0     C39523   4.520   7.529  10.048  0.0090 -0.6548  0.9764
  300MOL0     C39524   4.593   7.521   9.923  0.1506 -0.2662 -0.3253
  300MOL0     C39525   4.726   7.566   9.912 -0.1742 -0.5516  1.1591
  300MOL0     O39526   4.803   7.533   9.804 -0.1214 -0.2927 -0.0909
  300MOL0     C39527   4.805   7.399   9.755 -0.2760 -1.1443  0.1974
  300MOL0     C39528   4.916   7.369   9.648  0.1747 -0.8945  0.6071
  300MOL0     C39529   5.060   7.388   9.700  0.7773  0.2601  0.6705
  300MOL0     C39530   5.158   7.303   9.613  0.4204  0.3370 -0.2920
  300MOL0     C39531   5.139   7.163   9.639  0.6408 -0.4367  0.1103
  300MOL0     C39532   5.117   7.043   9.668  0.7053 -0.0879  0.3147
  300MOL0     C39533   4.779   7.634  10.022 -0.4700  0.2340 -0.6311
  300MOL0     C39534   4.704   7.642  10.142  0.3461 -0.8212  1.0570
  300MOL0     H39535   4.151   7.476  10.318  2.0341  0.6145 -0.2843
  300MOL0     H39536   4.005   7.434  10.522  0.5549 -4.7139  0.8672
  300MOL0     H39537   4.066   7.474  10.976 -1.2277  0.3070 -1.2076
  300MOL0     H39538   4.235   7.491  10.931 -2.7119  3.8137  0.5019
  300MOL0     H39539   4.187   7.262  11.017 -2.2003 -0.2533  1.5514
  300MOL0     H39540   4.241   7.245  10.849 -1.1121  0.3964 -1.3121
  300MOL0     H39541   4.053   7.099  10.901 -0.3839 -0.1781 -0.1650
  300MOL0     H39542   4.018   7.228  10.770 -2.3151  2.4872  1.6070
  300MOL0     H39543   3.933   7.220  11.061 -1.7935 -0.4068  0.3643
  300MOL0     H39544   3.888   7.344  10.943  1.3232 -0.2782  0.7387
  300MOL0     H39545   3.818   7.052  10.909  0.2092 -0.2756  1.2941
  300MOL0     H39546   3.768   7.196  10.813 -0.2294 -2.7143 -1.1607
  300MOL0     H39547   3.681   7.294  11.026  1.6440  0.1202  0.0918
  300MOL0     H39548   3.698   7.142  11.106 -0.0144 -1.3897 -0.2328
  300MOL0     H39549   3.555   7.125  10.844 -0.7711 -1.5947 -0.5540
  300MOL0     H39550   3.532   7.034  10.991 -0.2464  0.5256  1.4861
  300MOL0     H39551   3.450   7.327  10.967 -1.6558  0.5406 -2.2899
  300MOL0     H39552   3.401   7.204  11.098 -1.1583 -0.1710 -1.0664
  300MOL0     H39553   3.187   7.082  11.058  1.1013 -0.1056  1.0017
  300MOL0     H39554   2.967   7.021  10.945 -0.5809 -2.9786  0.0485
  300MOL0     H39555   3.012   6.925  10.802 -1.7973  0.5994 -1.1063
  300MOL0     H39556   2.931   7.143  10.661 -0.2870 -0.4190 -0.6318
  300MOL0     H39557   2.859   7.190  10.814 -2.0669  1.6301 -2.0448
  300MOL0     H39558   2.800   6.927  10.665 -1.7379 -0.8244  0.7719
  300MOL0     H39559   2.750   6.973  10.826 -0.5192  0.7193  1.0562
  300MOL0     H39560   2.700   7.128  10.558 -0.8972 -0.4082 -0.7680
  300MOL0     H39561   2.639   7.191  10.701  2.1911  0.7482  0.7091
  300MOL0     H39562   2.565   7.099  10.893 -0.8410 -0.5604 -0.5936
  300MOL0     H39563   2.436   7.014  11.090  0.8441 -1.7959  0.6044
  300MOL0     H39564   2.389   6.852  11.428  0.5343 -0.1077 -2.6245
  300MOL0     H39565   2.305   6.834  11.662 -1.4594 -1.0987  2.9235
  300MOL0     H39566   2.174   6.911  11.862 -3.3155  1.5068  0.6830
  300MOL0     H39567   2.195   6.731  11.818 -0.4138 -0.5302  0.2482
  300MOL0     H39568   2.097   6.739  12.038 -1.6928 -2.7558  0.8552
  300MOL0     H39569   1.981   6.678  11.932 -3.4431  1.8646  0.5613
  300MOL0     H39570   1.845   6.871  11.929  1.1784 -2.6114 -1.1157
  300MOL0     H39571   1.981   6.979  11.990  5.2771 -2.1775  1.1992
  300MOL0     H39572   1.848   6.777  12.179  0.4319 -0.1645 -0.9346
  300MOL0     H39573   1.996   6.870  12.186  1.6302 -0.1642 -2.9308
  300MOL0     H39574   1.813   7.070  12.104  0.0021 -1.7446 -0.8225
  300MOL0     H39575   1.877   7.049  12.264 -0.4450 -2.3535  3.0131
  300MOL0     H39576   1.674   6.898  12.307  1.4972 -1.3843 -0.5510
  300MOL0     H39577   1.620   6.953  12.139 -0.5929  0.8881  0.4360
  300MOL0     H39578   1.657   7.198  12.251 -3.4670  1.3593  1.3689
  300MOL0     H39579   1.510   7.111  12.274  0.0664  2.5375 -1.2744
  300MOL0     H39580   1.735   7.141  12.463 -1.0210  1.1166  1.7779
  300MOL0     H39581   1.610   7.008  12.487 -1.2026 -0.4699 -0.6760
  300MOL0     H39582   1.901   6.802  11.496 -0.5921  2.9922 -1.3918
  300MOL0     H39583   1.994   6.796  11.268  0.4868  0.6896 -0.6823
  300MOL0     H39584   2.200   6.767  10.830  0.3201 -1.3070  2.2460
  300MOL0     H39585   2.337   6.842  10.636  1.6421 -2.6657  1.4377
  300MOL0     H39586   4.369   7.495  10.753 -1.9876  0.6481  1.0810
  300MOL0     H39587   4.502   7.510  10.557 -0.2703  0.0669  0.6267
  300MOL0     H39588   4.418   7.492  10.051 -1.7019  3.1863 -1.5345
  300MOL0     H39589   4.561   7.462   9.838  1.8511  0.2889 -1.3972
  300MOL0     H39590   4.715   7.389   9.694 -0.1573  0.1640 -0.2268
  300MOL0     H39591   4.799   7.325   9.835  1.1898  1.8523  3.3462
  300MOL0     H39592   4.903   7.265   9.617 -1.7753 -0.3607 -0.4781
  300MOL0     H39593   4.892   7.432   9.563 -2.5552 -4.0939 -1.2424
  300MOL0     H39594   5.079   7.356   9.803  1.9311 -1.7127 -0.1050
  300MOL0     H39595   5.099   7.489   9.687  0.3201  0.5231  1.2799
  300MOL0     H39596   5.127   7.322   9.509 -0.8253 -0.4315 -0.0788
  300MOL0     H39597   5.261   7.333   9.634  0.2651  1.0032 -0.4570
  300MOL0     H39598   5.113   6.937   9.676  2.2125 -0.1254  0.8627
  300MOL0     H39599   4.882   7.669  10.017 -0.0737 -0.4244  1.8099
  300MOL0     H39600   4.743   7.694  10.229 -4.1803  0.6097  2.5317
  301MOL0     O39601  10.768   8.803   4.640 -0.2977 -0.9260 -0.5546
  301MOL0     C39602  10.784   8.854   4.751  1.0004 -0.1032 -0.1219
  301MOL0     O39603  10.688   8.922   4.814  0.1147 -0.1895 -0.2034
  301MOL0     C39604  10.582   8.985   4.740 -0.5995  1.1067 -0.0418
  301MOL0     C39605  10.485   9.032   4.820  1.2152 -1.0174  0.1408
  301MOL0     C39606  10.379   9.096   4.768  0.3352  0.3598  0.3686
  301MOL0     C39607  10.364   9.123   4.634  1.1933  0.4197 -0.2593
  301MOL0     O39608  10.237   9.178   4.591  0.0098 -0.8466  0.2204
  301MOL0     C39609  10.237   9.243   4.468 -0.0595 -0.2672 -0.0843
  301MOL0     C39610  10.141   9.355   4.480 -0.2457  0.0051 -1.0051
  301MOL0     C39611   9.993   9.307   4.478  0.3327  1.1133  0.3677
  301MOL0     C39612   9.906   9.432   4.482 -0.3231  0.2877  0.0001
  301MOL0     C39613   9.771   9.389   4.468  0.3777  0.1618  0.2809
  301MOL0     C39614   9.672   9.515   4.495  0.5319 -0.1042 -0.0175
  301MOL0     C39615   9.528   9.497   4.428  0.4718  0.3581 -0.5140
  301MOL0     C39616   9.453   9.367   4.464  0.1839  0.7593 -0.9393
  301MOL0     N39617   9.310   9.355   4.429 -0.1042 -0.4279  0.3791
  301MOL0     C39618   9.206   9.385   4.510 -0.1187 -0.7911  0.7099
  301MOL0     C39619   9.099   9.328   4.447 -0.7327 -0.4781 -0.4055
  301MOL0     C39620   8.955   9.341   4.484  0.6130 -0.3929 -0.6969
  301MOL0     C39621   8.920   9.220   4.568  0.4370  0.1684 -0.1929
  301MOL0     C39622   8.773   9.232   4.622 -0.0243  0.2084  0.6949
  301MOL0     C39623   8.659   9.220   4.516  1.1914 -0.6494 -0.4307
  301MOL0     O39624   8.540   9.159   4.581 -0.1456 -0.7869  0.0159
  301MOL0     C39625   8.427   9.146   4.519 -0.5268 -0.5421  0.4230
  301MOL0     C39626   8.401   9.160   4.380 -0.6507 -1.2715  0.2037
  301MOL0     C39627   8.278   9.138   4.325 -0.2724 -0.4844  0.9528
  301MOL0     C39628   8.178   9.103   4.404 -0.3293  0.3360 -0.7305
  301MOL0     C39629   8.046   9.062   4.351 -0.3345  0.1262  0.0375
  301MOL0     O39630   7.934   9.059   4.430  0.4377  0.1123 -0.8577
  301MOL0     C39631   7.801   9.028   4.386 -0.7425  0.0520  0.6894
  301MOL0     C39632   7.701   9.009   4.484 -0.0396 -0.5307 -0.6909
  301MOL0     C39633   7.568   8.973   4.455  0.3704  0.2347 -0.2281
  301MOL0     C39634   7.526   8.958   4.326  1.4258 -0.1218 -0.1728
  301MOL0     O39635   7.383   8.909   4.314 -1.0337 -0.5570 -0.0577
  301MOL0     C39636   7.336   8.880   4.182 -0.8647  0.4344 -1.1646
  301MOL0     C39637   7.202   8.802   4.186 -1.2164  0.1023  0.0861
  301MOL0     C39638   7.087   8.901   4.218  0.0722 -1.0487  0.1171
  301MOL0     C39639   6.950   8.838   4.202 -0.5573 -0.1708  0.7843
  301MOL0     C39640   6.923   8.716   4.278  0.0848  0.6973 -0.1211
  301MOL0     C39641   6.772   8.693   4.275 -0.2706 -0.2640  0.0900
  301MOL0     C39642   6.721   8.583   4.375 -1.5979  0.5553  0.3631
  301MOL0     C39643   6.577   8.545   4.349 -0.6192  0.2603 -0.7435
  301MOL0    Cl39644   6.472   8.683   4.375 -0.2137  0.0953 -0.3653
  301MOL0     C39645   7.612   9.000   4.219 -0.5688  1.3307 -0.6099
  301MOL0     C39646   7.749   9.039   4.248 -0.0565  0.6576 -0.4943
  301MOL0     O39647   8.050   9.023   4.231 -0.0587  0.6681 -0.4007
  301MOL0     C39648   8.197   9.091   4.545  0.3299  0.3327  0.8997
  301MOL0     C39649   8.318   9.114   4.601 -0.6270  0.2911  0.6102
  301MOL0     N39650   9.142   9.243   4.349  0.0400 -0.1768 -0.0461
  301MOL0     N39651   9.274   9.256   4.344  0.3685  0.2750  0.4164
  301MOL0     C39652  10.464   9.076   4.549  0.2267 -0.1245  0.3602
  301MOL0     C39653  10.578   9.008   4.602 -0.2799  0.2544  0.2752
  301MOL0     C39654  10.925   8.857   4.800 -0.7813 -0.5931 -0.3786
  301MOL0     C39655  10.950   8.898   4.930 -0.6256 -0.3800 -0.0360
  301MOL0     C39656  11.075   8.928   4.984 -0.5017  0.4035 -0.3076
  301MOL0     C39657  11.188   8.882   4.911  0.1991 -0.2869 -0.6696
  301MOL0     O39658  11.312   8.886   4.969  0.0672 -0.0790 -0.6565
  301MOL0     C39659  11.419   8.801   4.936  0.3100 -0.3559  0.4069
  301MOL0     C39660  11.512   8.861   4.836  0.8871 -0.1940  0.4304
  301MOL0     C39661  11.594   8.984   4.886 -0.1866  0.7118 -0.8552
  301MOL0     C39662  11.664   9.065   4.782  0.7317 -0.1331  0.0840
  301MOL0     C39663  11.791   9.000   4.734  0.6589  0.0306  0.2569
  301MOL0     C39664  11.900   8.955   4.706 -1.0903  0.5425  0.4008
  301MOL0     C39665  11.170   8.808   4.789 -0.0403  0.6809 -0.5443
  301MOL0     C39666  11.041   8.809   4.730  0.0725 -0.2590  0.3065
  301MOL0     H39667  10.489   9.013   4.927 -1.0363 -3.3735 -0.1017
  301MOL0     H39668  10.311   9.128   4.847 -0.2761 -1.5677  0.6764
  301MOL0     H39669  10.208   9.171   4.391 -0.3978  0.5306 -0.7121
  301MOL0     H39670  10.338   9.277   4.442 -0.5408  1.6727  0.4044
  301MOL0     H39671  10.161   9.415   4.392 -2.9255  2.9935  0.2188
  301MOL0     H39672  10.159   9.413   4.571  1.8908  1.6717 -2.4178
  301MOL0     H39673   9.966   9.244   4.563  1.8213 -0.2787 -0.1538
  301MOL0     H39674   9.979   9.238   4.394  2.8784  2.2395 -1.0888
  301MOL0     H39675   9.922   9.479   4.580  1.2745 -0.2501  0.0239
  301MOL0     H39676   9.934   9.502   4.402  0.6506 -0.9532 -0.7768
  301MOL0     H39677   9.757   9.312   4.544 -1.4970  1.0205  0.8757
  301MOL0     H39678   9.764   9.350   4.366  1.9258  2.2932 -0.7305
  301MOL0     H39679   9.713   9.614   4.475 -0.7037  0.6723  1.1374
  301MOL0     H39680   9.658   9.499   4.603  0.9668 -2.5843 -0.2632
  301MOL0     H39681   9.467   9.581   4.464 -2.1674 -0.4782 -2.7024
  301MOL0     H39682   9.551   9.520   4.324  0.6805  2.9429  0.0323
  301MOL0     H39683   9.458   9.360   4.573  2.3193  1.4650 -0.9526
  301MOL0     H39684   9.517   9.286   4.427  0.7286 -0.3837  2.2123
  301MOL0     H39685   9.200   9.433   4.607 -0.4002 -1.6576  1.1362
  301MOL0     H39686   8.904   9.333   4.388  0.5990  1.9010 -0.9379
  301MOL0     H39687   8.931   9.437   4.530 -0.6350 -0.2712 -1.5734
  301MOL0     H39688   8.989   9.208   4.652 -0.4239 -1.7124  0.3002
  301MOL0     H39689   8.936   9.129   4.509  3.5251  0.0982  0.6121
  301MOL0     H39690   8.762   9.148   4.691 -1.6638  0.4421  0.7572
  301MOL0     H39691   8.757   9.324   4.680 -1.6118 -0.9187  2.1569
  301MOL0     H39692   8.690   9.168   4.425 -0.9771 -1.5945 -0.6898
  301MOL0     H39693   8.632   9.323   4.490  3.1531  0.2632  0.9440
  301MOL0     H39694   8.473   9.200   4.310 -2.1214  0.1595 -0.5432
  301MOL0     H39695   8.257   9.155   4.220 -3.1568 -1.8188  1.2045
  301MOL0     H39696   7.735   9.038   4.583  1.2194  2.2588 -1.8461
  301MOL0     H39697   7.498   8.966   4.538 -0.1614  1.6956 -0.5158
  301MOL0     H39698   7.411   8.831   4.119  0.2233  0.9303 -0.2946
  301MOL0     H39699   7.312   8.975   4.132 -1.0261  0.9284 -0.1662
  301MOL0     H39700   7.214   8.727   4.265  1.8716  1.2842  0.9062
  301MOL0     H39701   7.180   8.747   4.094 -4.1248 -0.6534  1.1372
  301MOL0     H39702   7.092   8.984   4.147 -1.1201  0.7076  1.9708
  301MOL0     H39703   7.100   8.937   4.320  1.6421 -1.7155  0.1806
  301MOL0     H39704   6.888   8.923   4.234  0.8100  1.1241  0.1102
  301MOL0     H39705   6.919   8.810   4.102 -2.6139  1.1968  0.9749
  301MOL0     H39706   6.947   8.729   4.384  0.9112 -2.1439  0.1217
  301MOL0     H39707   6.975   8.626   4.245  0.7729  1.0243  0.0414
  301MOL0     H39708   6.755   8.654   4.175  1.5774 -1.1985  0.0971
  301MOL0     H39709   6.724   8.787   4.304  0.1570 -0.5195  1.7418
  301MOL0     H39710   6.779   8.491   4.363  0.2457  1.6966  0.0936
  301MOL0     H39711   6.724   8.611   4.481  0.1500  1.6770  0.0555
  301MOL0     H39712   6.550   8.466   4.419 -0.9968  1.8811  1.0241
  301MOL0     H39713   6.556   8.504   4.250 -1.5396 -1.3470  0.0737
  301MOL0     H39714   7.576   9.003   4.117 -2.1710 -0.5016 -0.1479
  301MOL0     H39715   7.813   9.061   4.163 -0.1740  0.8214 -0.5396
  301MOL0     H39716   8.116   9.067   4.613  0.9130 -2.7706  0.6494
  301MOL0     H39717   8.326   9.114   4.709 -1.6036  1.7574  0.7203
  301MOL0     H39718  10.466   9.091   4.442  0.8323  2.5720  0.6896
  301MOL0     H39719  10.661   8.997   4.533 -0.2771  2.9769 -0.2441
  301MOL0     H39720  10.871   8.928   4.998 -1.6105  2.3957 -2.2559
  301MOL0     H39721  11.084   8.985   5.076  1.2661 -2.5628  1.5054
  301MOL0     H39722  11.391   8.700   4.907  1.8268 -0.6290 -0.2060
  301MOL0     H39723  11.472   8.790   5.031  0.8519  1.7610  0.4017
  301MOL0     H39724  11.575   8.787   4.786 -0.0713  1.6118 -3.9655
  301MOL0     H39725  11.448   8.895   4.753 -1.2529 -1.6931  1.3957
  301MOL0     H39726  11.655   8.951   4.971 -2.1686 -0.3224  0.2428
  301MOL0     H39727  11.530   9.057   4.935  1.7529  2.0547 -0.2142
  301MOL0     H39728  11.596   9.090   4.701 -0.2658  0.7257  1.1485
  301MOL0     H39729  11.690   9.155   4.838  1.3418  0.3479 -0.9467
  301MOL0     H39730  11.993   8.914   4.672 -1.8254 -1.3832  0.5750
  301MOL0     H39731  11.250   8.750   4.743  0.5480 -1.1518  2.4873
  301MOL0     H39732  11.029   8.754   4.637 -1.4448 -1.7064  1.2888
  302MOL0     O39733   1.534   6.296  10.536 -0.0288 -0.1560  0.6649
  302MOL0     C39734   1.477   6.204  10.592 -0.4933 -0.3624  0.5168
  302MOL0     O39735   1.368   6.220  10.679  0.2326  0.3582  0.2058
  302MOL0     C39736   1.299   6.336  10.681 -0.9437 -1.2386 -0.7175
  302MOL0     C39737   1.165   6.326  10.709  0.0369 -0.9521  0.6503
  302MOL0     C39738   1.080   6.436  10.713  0.3560 -0.9356  0.1067
  302MOL0     C39739   1.123   6.570  10.695 -0.5889  1.1984 -0.0746
  302MOL0     O39740   1.044   6.668  10.699 -0.2821 -0.6005 -0.6535
  302MOL0     C39741   0.995   6.694  10.830 -0.3691  0.3175 -0.3187
  302MOL0     C39742   0.848   6.699  10.834  0.0955  0.6765  0.6180
  302MOL0     C39743   0.798   6.689  10.978 -0.3338 -0.7578  0.0448
  302MOL0     C39744   0.649   6.687  10.972 -0.4597 -0.6617 -0.9876
  302MOL0     C39745   0.590   6.679  11.121  0.5267 -0.3958 -0.0243
  302MOL0     C39746   0.441   6.649  11.111 -0.6834 -1.0617 -0.2634
  302MOL0     C39747   0.372   6.639  11.251 -0.1175 -0.1549 -0.0889
  302MOL0     C39748   0.331   6.783  11.291 -1.1388  1.1456 -0.5299
  302MOL0     N39749   0.273   6.783  11.424 -0.2199 -0.1914  0.0937
  302MOL0     C39750   0.331   6.732  11.539  0.2067  0.7889 -0.2638
  302MOL0     C39751   0.234   6.739  11.635 -0.0741 -0.3016  0.4940
  302MOL0     C39752   0.258   6.662  11.770  0.1712  0.6377  0.0603
  302MOL0     C39753   0.298   6.515  11.761  0.0370  0.5696 -0.2987
  302MOL0     C39754   0.301   6.452  11.900 -0.1568  0.5406  0.7602
  302MOL0     C39755   0.181   6.376  11.949  0.0912  0.3071 -0.3150
  302MOL0     O39756   0.062   6.451  11.941 -0.9406  0.3622  0.3655
  302MOL0     C39757  -0.053   6.392  11.981  0.7467  0.0366  0.4446
  302MOL0     C39758  -0.164   6.473  11.983  0.1298  0.1641 -1.0402
  302MOL0     C39759  -0.285   6.408  12.013  0.4789 -0.3145  1.1734
  302MOL0     C39760  -0.293   6.271  12.035  0.5758  0.0621  0.3171
  302MOL0     C39761  -0.425   6.203  12.058  0.3622 -0.2936  1.1694
  302MOL0     O39762  -0.419   6.067  12.095  0.0237  1.5246  0.1775
  302MOL0     C39763  -0.539   6.000  12.109 -0.2596 -0.1810  0.3488
  302MOL0     C39764  -0.647   6.046  12.189  0.2715  0.4308 -0.8104
  302MOL0     C39765  -0.769   5.970  12.180  0.3575 -0.3458 -0.3540
  302MOL0     C39766  -0.777   5.864  12.089  0.1295 -0.4572 -0.4881
  302MOL0     O39767  -0.897   5.806  12.065 -0.0517  0.0241  0.2635
  302MOL0     C39768  -1.010   5.893  12.039  0.4457 -0.2094 -0.2188
  302MOL0     C39769  -1.072   5.831  11.912 -0.3605 -0.9221  0.0174
  302MOL0     C39770  -1.209   5.870  11.886  0.3452  0.0781 -0.2754
  302MOL0     C39771  -1.283   5.816  11.760  0.1552  0.3991  0.2143
  302MOL0     C39772  -1.432   5.797  11.794 -0.1996  0.3876 -0.4724
  302MOL0     C39773  -1.512   5.758  11.669 -0.3016  0.0923  0.5459
  302MOL0     C39774  -1.630   5.672  11.704 -0.2833 -0.6519 -0.3557
  302MOL0     C39775  -1.727   5.737  11.798  0.2704  0.0607  0.5949
  302MOL0    Cl39776  -1.868   5.618  11.834  0.1896 -0.1245  0.3460
  302MOL0     C39777  -0.667   5.810  12.031 -0.3746 -0.5404  0.0936
  302MOL0     C39778  -0.545   5.872  12.046 -0.6238 -0.4579  0.5468
  302MOL0     O39779  -0.529   6.258  12.029  0.0785 -0.0084  0.0454
  302MOL0     C39780  -0.183   6.190  12.019 -0.1939 -0.1103  0.4720
  302MOL0     C39781  -0.056   6.250  12.004  0.1990  0.3281 -0.9631
  302MOL0     N39782   0.136   6.820  11.590  0.1104 -1.0175  0.1542
  302MOL0     N39783   0.156   6.844  11.459 -0.4695  0.5464  0.0307
  302MOL0     C39784   1.261   6.585  10.665 -0.0455  0.7217 -0.6023
  302MOL0     C39785   1.353   6.474  10.655  1.0190 -0.1945  1.1390
  302MOL0     C39786   1.517   6.068  10.554 -0.4121 -0.9168  0.7405
  302MOL0     C39787   1.634   6.048  10.480  1.4945  0.2713  1.0571
  302MOL0     C39788   1.662   5.918  10.443  0.0599  1.1870  0.2449
  302MOL0     C39789   1.581   5.805  10.488  0.8128  0.5646  0.3102
  302MOL0     O39790   1.597   5.670  10.449  0.4788 -0.3909  0.1570
  302MOL0     C39791   1.715   5.640  10.372 -0.1690  0.2724  0.2411
  302MOL0     C39792   1.839   5.618  10.460  0.7482  0.0126  0.0914
  302MOL0     C39793   1.832   5.477  10.522 -0.0449 -0.9042  1.1677
  302MOL0     C39794   1.705   5.439  10.590  0.0557  0.6048  1.0419
  302MOL0     C39795   1.728   5.311  10.656 -0.0612 -0.8053 -0.4030
  302MOL0     C39796   1.746   5.217  10.727 -0.5365  0.4558 -0.0618
  302MOL0     C39797   1.476   5.835  10.570  0.6818  1.3256  0.0893
  302MOL0     C39798   1.432   5.958  10.597 -0.4154  0.4806  0.1079
  302MOL0     H39799   1.114   6.232  10.730 -0.8502 -0.1750  2.1508
  302MOL0     H39800   0.974   6.419  10.728  0.5860 -1.5724  1.1090
  302MOL0     H39801   1.031   6.788  10.872  0.8685  0.2585 -1.1813
  302MOL0     H39802   1.034   6.617  10.897 -3.0217 -1.1831 -0.3681
  302MOL0     H39803   0.810   6.620  10.768 -0.7425  1.3517  0.2789
  302MOL0     H39804   0.803   6.787  10.787 -0.9388 -0.6192 -0.9161
  302MOL0     H39805   0.841   6.771  11.038  2.0806 -1.8247 -0.0984
  302MOL0     H39806   0.852   6.602  11.018  1.1291 -0.4862 -1.2334
  302MOL0     H39807   0.607   6.777  10.927 -0.0327  1.6180  2.7301
  302MOL0     H39808   0.622   6.589  10.932  1.2152 -1.3236 -0.5799
  302MOL0     H39809   0.602   6.773  11.177 -4.2004  0.1302  0.4942
  302MOL0     H39810   0.650   6.605  11.174  0.1956 -0.7359 -0.1168
  302MOL0     H39811   0.439   6.563  11.044 -1.7839  1.2333 -3.4298
  302MOL0     H39812   0.402   6.725  11.042  0.4021 -0.1674  0.0643
  302MOL0     H39813   0.283   6.577  11.237 -0.4922  0.9725 -3.8613
  302MOL0     H39814   0.439   6.602  11.329 -3.6724 -0.2494  3.1807
  302MOL0     H39815   0.260   6.804  11.211 -0.5965  0.6685 -1.1533
  302MOL0     H39816   0.414   6.855  11.288 -1.4648  1.5421 -0.0995
  302MOL0     H39817   0.421   6.672  11.544 -0.3647 -0.1467 -0.8917
  302MOL0     H39818   0.174   6.687  11.835  0.8352  1.8253  0.4922
  302MOL0     H39819   0.348   6.698  11.821 -1.9703  1.3368  3.6816
  302MOL0     H39820   0.400   6.512  11.720  0.9602  0.3343  1.8749
  302MOL0     H39821   0.222   6.457  11.707 -2.2182  0.7317  2.4654
  302MOL0     H39822   0.390   6.390  11.891 -1.1761 -0.6823 -2.1015
  302MOL0     H39823   0.311   6.526  11.980  1.1266 -0.4505  1.5522
  302MOL0     H39824   0.197   6.331  12.048  2.0094  0.9841 -0.2727
  302MOL0     H39825   0.174   6.289  11.883  0.9967  0.2650 -0.3706
  302MOL0     H39826  -0.157   6.581  11.970  0.8556  0.5464  1.8119
  302MOL0     H39827  -0.375   6.467  12.032 -0.0402  0.1393 -2.1237
  302MOL0     H39828  -0.629   6.130  12.256  0.2507  1.2286 -1.7714
  302MOL0     H39829  -0.855   6.007  12.234  1.0810  0.9269 -0.0315
  302MOL0     H39830  -0.982   5.997  12.024  3.0636 -0.3598  2.6676
  302MOL0     H39831  -1.077   5.889  12.125  1.5679  1.5958  0.7824
  302MOL0     H39832  -1.070   5.723  11.930  0.3064 -1.0616 -0.8254
  302MOL0     H39833  -1.008   5.849  11.826 -1.1748 -0.5637 -0.5288
  302MOL0     H39834  -1.227   5.978  11.876  0.6412  0.2251  0.6774
  302MOL0     H39835  -1.271   5.840  11.970 -1.5234  1.1195 -1.2165
  302MOL0     H39836  -1.278   5.893  11.683  0.4137  2.1297  1.8851
  302MOL0     H39837  -1.237   5.718  11.738 -2.6397 -1.5949  2.4748
  302MOL0     H39838  -1.473   5.884  11.846  2.7243  1.1134  0.8453
  302MOL0     H39839  -1.442   5.714  11.865  0.8789  0.0733 -0.6779
  302MOL0     H39840  -1.443   5.703  11.604 -1.6239  0.1930 -1.0092
  302MOL0     H39841  -1.544   5.850  11.619  1.5803 -0.5354 -2.0332
  302MOL0     H39842  -1.685   5.649  11.612 -0.2732  0.5383 -0.6841
  302MOL0     H39843  -1.592   5.581  11.750  0.7258 -0.0834 -0.0389
  302MOL0     H39844  -1.773   5.823  11.751 -0.7461 -0.5495  0.4519
  302MOL0     H39845  -1.683   5.773  11.892  1.0300 -1.3230  0.8040
  302MOL0     H39846  -0.677   5.722  11.968 -1.3323 -0.6627  0.4086
  302MOL0     H39847  -0.461   5.826  11.996 -4.2392 -5.7185 -1.5992
  302MOL0     H39848  -0.189   6.081  12.025  0.1194 -0.0598  2.2352
  302MOL0     H39849   0.038   6.196  12.004  0.6174  1.0429 -1.8608
  302MOL0     H39850   1.309   6.682  10.652  2.4771 -0.1760  1.1263
  302MOL0     H39851   1.454   6.501  10.629  0.5010  0.5239 -0.1628
  302MOL0     H39852   1.699   6.130  10.451 -0.4532  2.7759  3.1999
  302MOL0     H39853   1.758   5.897  10.398 -0.5560 -1.3287 -0.0326
  302MOL0     H39854   1.727   5.715  10.293 -0.9223 -0.6629 -0.7871
  302MOL0     H39855   1.693   5.557  10.304 -2.0669  2.4057 -1.9739
  302MOL0     H39856   1.922   5.634  10.391 -0.0045 -0.8096 -1.0325
  302MOL0     H39857   1.854   5.696  10.535  2.0940  2.5402 -2.5976
  302MOL0     H39858   1.926   5.465  10.577  0.5096 -3.3946 -0.1882
  302MOL0     H39859   1.843   5.407  10.439  2.3032  3.5176 -2.7268
  302MOL0     H39860   1.652   5.510  10.653 -1.1719 -0.2821  1.0370
  302MOL0     H39861   1.629   5.443  10.512  0.7529  0.8441  0.3587
  302MOL0     H39862   1.766   5.134  10.792 -2.0518  0.9154  1.0501
  302MOL0     H39863   1.410   5.757  10.609  1.5311 -0.5614 -1.9938
  302MOL0     H39864   1.348   5.985  10.660  1.6338  1.1647  2.7385
  303MOL0     O39865   5.847   6.834   3.216 -0.4274 -0.5880 -0.4884
  303MOL0     C39866   5.856   6.803   3.099  0.0922 -0.1754  0.0056
  303MOL0     O39867   5.746   6.789   3.017  0.8897  0.2774 -0.6844
  303MOL0     C39868   5.613   6.767   3.067 -0.3009 -0.5986 -0.2380
  303MOL0     C39869   5.534   6.871   3.120  0.8645 -0.9833 -0.9310
  303MOL0     C39870   5.404   6.829   3.168 -0.2452 -0.6902  0.6027
  303MOL0     C39871   5.348   6.706   3.143 -0.4498 -0.5899 -0.1589
  303MOL0     O39872   5.211   6.699   3.180  0.1426 -0.2203 -1.0306
  303MOL0     C39873   5.150   6.591   3.107  0.2992  0.2036 -1.2488
  303MOL0     C39874   5.142   6.466   3.201 -0.8664 -0.5637 -0.6010
  303MOL0     C39875   5.033   6.479   3.294  0.3894  0.6974 -0.2457
  303MOL0     C39876   5.008   6.353   3.376  0.0044 -0.3860 -0.5462
  303MOL0     C39877   4.908   6.392   3.484  0.8931  0.0862 -0.5256
  303MOL0     C39878   4.863   6.266   3.564  0.0388 -0.3054  0.5612
  303MOL0     C39879   4.769   6.306   3.672  0.8373 -0.7753  0.8592
  303MOL0     C39880   4.736   6.175   3.761 -0.1421 -0.3940  0.3867
  303MOL0     N39881   4.653   6.083   3.689 -0.7948  0.0022 -0.0302
  303MOL0     C39882   4.517   6.112   3.649 -0.2962  0.0934  0.3539
  303MOL0     C39883   4.487   6.004   3.572  0.5709  0.1219 -0.0394
  303MOL0     C39884   4.344   5.968   3.519  0.0412  0.2878  1.1174
  303MOL0     C39885   4.276   5.838   3.562 -0.6870  0.7481 -0.5311
  303MOL0     C39886   4.125   5.846   3.556 -0.4681 -0.0855  0.4717
  303MOL0     C39887   4.056   5.718   3.597 -0.1186 -1.0645  0.5503
  303MOL0     O39888   4.048   5.719   3.740 -0.6606  0.3567 -0.0098
  303MOL0     C39889   3.929   5.786   3.785  0.5115 -0.0403 -0.3026
  303MOL0     C39890   3.807   5.722   3.752 -0.1722  0.0705 -0.3368
  303MOL0     C39891   3.684   5.771   3.800 -0.6239  0.2086 -0.1365
  303MOL0     C39892   3.684   5.899   3.860 -0.4744 -0.8458 -0.5320
  303MOL0     C39893   3.561   5.972   3.882  0.0903  0.1790 -0.0741
  303MOL0     O39894   3.451   5.899   3.857 -0.3525 -0.3810 -0.0806
  303MOL0     C39895   3.332   5.955   3.884  0.1216  0.0306  0.2985
  303MOL0     C39896   3.234   5.877   3.940  0.7273  0.0598  1.4575
  303MOL0     C39897   3.097   5.916   3.955  0.2007  0.4831 -0.4493
  303MOL0     C39898   3.056   6.036   3.903  0.3381  0.0508  0.0979
  303MOL0     O39899   2.928   6.070   3.915  0.3573  0.2423 -0.3835
  303MOL0     C39900   2.862   6.091   3.785 -1.0819 -0.2785 -0.0166
  303MOL0     C39901   2.706   6.083   3.800  0.2077 -0.0423  0.7651
  303MOL0     C39902   2.635   6.068   3.663  0.5475 -0.7265 -0.8014
  303MOL0     C39903   2.480   6.035   3.677  0.0741  0.0901  1.0412
  303MOL0     C39904   2.426   5.951   3.548 -0.7109  0.8635 -1.1770
  303MOL0     C39905   2.285   5.874   3.558 -0.3586 -0.0240 -0.9586
  303MOL0     C39906   2.193   5.956   3.654  0.0897 -0.1155 -0.4320
  303MOL0     C39907   2.049   5.913   3.667  0.5656 -0.0818 -0.5389
  303MOL0    Cl39908   1.964   5.898   3.511 -0.6282 -0.0455  0.2695
  303MOL0     C39909   3.149   6.124   3.831  0.5413  0.7002  0.2935
  303MOL0     C39910   3.287   6.077   3.835 -0.0700  0.2546 -0.1637
  303MOL0     O39911   3.566   6.089   3.913  0.1100  0.1422  0.5545
  303MOL0     C39912   3.804   5.955   3.904 -0.5252  0.7468 -0.8376
  303MOL0     C39913   3.923   5.903   3.863 -0.4736 -0.7306  0.6386
  303MOL0     N39914   4.597   5.917   3.561  0.2789  0.1724 -0.9684
  303MOL0     N39915   4.694   5.973   3.618 -0.2584  0.1479 -0.7945
  303MOL0     C39916   5.434   6.603   3.091  0.5514 -0.5595  0.1185
  303MOL0     C39917   5.560   6.638   3.048 -0.4151 -0.0412 -0.3840
  303MOL0     C39918   5.988   6.791   3.033  1.2309 -0.3211 -0.5443
  303MOL0     C39919   6.004   6.795   2.897  0.5811 -0.1172  0.5711
  303MOL0     C39920   6.128   6.801   2.841  0.9636  0.1704  0.7924
  303MOL0     C39921   6.238   6.770   2.923  0.6089  0.2423  0.8880
  303MOL0     O39922   6.358   6.767   2.861 -0.8952  0.1503 -0.5842
  303MOL0     C39923   6.453   6.670   2.911  0.0416 -0.6078  0.1688
  303MOL0     C39924   6.581   6.676   2.837  0.2598 -0.1359 -0.5187
  303MOL0     C39925   6.643   6.824   2.821  0.1500 -0.4338  0.7283
  303MOL0     C39926   6.773   6.833   2.749 -1.1923  0.2189 -0.3094
  303MOL0     C39927   6.867   6.758   2.832 -0.5013  0.2173  0.5615
  303MOL0     C39928   6.954   6.705   2.889 -0.6398  0.2162  0.3586
  303MOL0     C39929   6.224   6.769   3.057  0.0480 -0.1193 -0.0984
  303MOL0     C39930   6.099   6.774   3.110 -0.0262  0.0904 -0.5635
  303MOL0     H39931   5.573   6.969   3.143  0.5221 -1.0679  0.0775
  303MOL0     H39932   5.347   6.909   3.216  2.5037  1.2381  0.8653
  303MOL0     H39933   5.202   6.568   3.013  1.7354 -1.9204 -0.0299
  303MOL0     H39934   5.049   6.623   3.080 -1.0570 -2.0206  0.8312
  303MOL0     H39935   5.237   6.453   3.254 -0.4420 -1.2498 -1.5124
  303MOL0     H39936   5.122   6.382   3.134  2.8012 -0.2531 -2.3224
  303MOL0     H39937   4.945   6.499   3.232 -0.3339  0.1044  0.5670
  303MOL0     H39938   5.057   6.564   3.359 -0.8982  1.0503 -0.2118
  303MOL0     H39939   4.975   6.260   3.327 -1.7117 -0.0886 -0.0480
  303MOL0     H39940   5.099   6.317   3.426  0.1271  0.5725 -0.0627
  303MOL0     H39941   4.825   6.441   3.432  1.1987 -1.6666 -2.8326
  303MOL0     H39942   4.944   6.464   3.557  0.2101  1.7986 -1.8020
  303MOL0     H39943   4.953   6.218   3.605  1.5639  1.0726 -0.9980
  303MOL0     H39944   4.818   6.195   3.494  1.1053 -0.5915  0.1320
  303MOL0     H39945   4.816   6.389   3.725  0.8451 -0.1640 -0.0850
  303MOL0     H39946   4.673   6.343   3.637  1.6392  0.4613 -0.1100
  303MOL0     H39947   4.682   6.200   3.853  2.2627  1.2908  1.4261
  303MOL0     H39948   4.829   6.123   3.787  0.6763  1.1093  0.5839
  303MOL0     H39949   4.454   6.195   3.679  2.8934  2.7247  0.4041
  303MOL0     H39950   4.350   5.970   3.410 -0.8708  3.7895  1.0042
  303MOL0     H39951   4.278   6.053   3.537 -0.3694  1.0464 -3.0608
  303MOL0     H39952   4.311   5.815   3.663 -0.1047 -0.9943 -1.1112
  303MOL0     H39953   4.316   5.759   3.498 -2.1366 -1.4117  1.0982
  303MOL0     H39954   4.090   5.929   3.617 -1.0203 -0.5363  0.7717
  303MOL0     H39955   4.108   5.872   3.451  2.7081 -1.5324 -0.5489
  303MOL0     H39956   4.112   5.627   3.576  0.1008 -0.8484  0.1754
  303MOL0     H39957   3.957   5.711   3.551  0.3543 -1.1780 -0.4749
  303MOL0     H39958   3.797   5.618   3.724  1.1885 -0.5506  1.3246
  303MOL0     H39959   3.591   5.721   3.775 -1.5714  1.6409  0.4282
  303MOL0     H39960   3.263   5.776   3.965  0.3338  0.1585  2.3405
  303MOL0     H39961   3.024   5.846   3.995 -2.1898  2.6482 -0.7768
  303MOL0     H39962   2.899   6.022   3.710  1.2795 -0.3406  1.1111
  303MOL0     H39963   2.891   6.188   3.743  0.2201 -2.1529 -3.8041
  303MOL0     H39964   2.662   6.167   3.855  0.2682 -0.7971  2.0093
  303MOL0     H39965   2.670   5.994   3.852 -3.4409  0.7820 -0.0877
  303MOL0     H39966   2.683   5.986   3.610  0.5264 -0.9800 -0.4266
  303MOL0     H39967   2.636   6.153   3.594  0.8961 -0.9739 -1.1034
  303MOL0     H39968   2.469   5.963   3.759  0.4218 -2.2221 -0.8225
  303MOL0     H39969   2.421   6.122   3.707  1.0740  0.5364  1.7489
  303MOL0     H39970   2.505   5.884   3.512  0.7453  1.2776  1.0638
  303MOL0     H39971   2.403   6.022   3.468  0.4435 -0.4892 -2.7821
  303MOL0     H39972   2.318   5.776   3.596 -0.0027  0.9377  1.3554
  303MOL0     H39973   2.236   5.861   3.461 -2.1654 -0.0473 -0.0830
  303MOL0     H39974   2.226   5.954   3.759 -2.2453  1.6593  0.4078
  303MOL0     H39975   2.184   6.062   3.628 -2.5071  0.7440  3.1642
  303MOL0     H39976   1.985   5.977   3.728 -2.3638 -2.9756 -0.3197
  303MOL0     H39977   2.034   5.822   3.725 -1.9604  0.2745 -0.4968
  303MOL0     H39978   3.120   6.221   3.792  0.7479  0.7944  0.3772
  303MOL0     H39979   3.353   6.146   3.783 -1.5655  2.5192  0.8147
  303MOL0     H39980   3.808   6.047   3.960 -1.4195  0.8579 -0.9406
  303MOL0     H39981   4.008   5.964   3.894 -0.0777  0.8078 -2.9103
  303MOL0     H39982   5.389   6.505   3.099 -1.1795  0.2060  0.2301
  303MOL0     H39983   5.630   6.569   3.001  1.5496  0.7098  1.3097
  303MOL0     H39984   5.917   6.806   2.834  0.3287  0.4761  1.0177
  303MOL0     H39985   6.137   6.807   2.733  1.4679 -3.8496  0.4718
  303MOL0     H39986   6.409   6.570   2.904 -0.0361 -0.5398 -0.3375
  303MOL0     H39987   6.470   6.691   3.017  0.1141  0.4722 -0.0424
  303MOL0     H39988   6.644   6.609   2.895  0.3626  1.3867  1.2139
  303MOL0     H39989   6.560   6.632   2.739 -1.3606 -0.9580  0.1744
  303MOL0     H39990   6.654   6.874   2.917 -1.4185 -0.2011  0.8077
  303MOL0     H39991   6.566   6.882   2.770  1.4968  0.8119  0.0236
  303MOL0     H39992   6.765   6.785   2.651  0.9013 -2.0912  0.5431
  303MOL0     H39993   6.796   6.939   2.733 -2.4292  0.6607  0.6787
  303MOL0     H39994   7.018   6.650   2.956 -1.9408 -2.0163 -0.1451
  303MOL0     H39995   6.298   6.746   3.133  0.4435 -0.2827 -0.5234
  303MOL0     H39996   6.089   6.758   3.217 -1.3554  0.1613 -0.6648
  304MOL0     O39997   3.621   2.289   4.551 -0.3724 -0.0500 -0.0806
  304MOL0     C39998   3.676   2.400   4.555  0.3193 -0.0141 -0.2538
  304MOL0     O39999   3.608   2.519   4.555  0.7613 -0.5434  0.0532
  304MOL0     C40000   3.475   2.513   4.558  0.3423 -0.1330  0.3907
  304MOL0     C40001   3.399   2.475   4.672 -0.3987  0.5820  0.9999
  304MOL0     C40002   3.258   2.478   4.669 -0.9049 -1.1081  0.0558
  304MOL0     C40003   3.191   2.515   4.554  0.6359  0.3466 -0.2124
  304MOL0     O40004   3.052   2.503   4.550 -0.0814 -0.9988 -0.1832
  304MOL0     C40005   2.977   2.578   4.447 -0.8637 -0.5272  0.0174
  304MOL0     C40006   2.836   2.527   4.444  0.0267  0.2581 -1.1782
  304MOL0     C40007   2.744   2.585   4.341  0.3438 -0.5015  1.1198
  304MOL0     C40008   2.600   2.551   4.374 -0.3419  0.3848  0.6505
  304MOL0     C40009   2.512   2.603   4.266 -0.3349 -0.7137 -0.9238
  304MOL0     C40010   2.370   2.571   4.297  0.4731 -0.4025 -0.9378
  304MOL0     C40011   2.295   2.647   4.190  1.3201  0.3907  0.3923
  304MOL0     C40012   2.149   2.616   4.209 -0.1646 -0.0148  0.0066
  304MOL0     N40013   2.067   2.690   4.105  0.3495  0.2831  0.0234
  304MOL0     C40014   1.993   2.798   4.128  0.5668 -0.4980  0.3557
  304MOL0     C40015   1.927   2.817   4.014  0.1466  0.0548 -0.0600
  304MOL0     C40016   1.846   2.936   3.984 -0.1728  0.7033 -0.3617
  304MOL0     C40017   1.692   2.906   3.980  0.0598 -0.1015 -0.7257
  304MOL0     C40018   1.639   3.001   3.873 -0.9559  0.6151 -0.3111
  304MOL0     C40019   1.485   2.993   3.864  0.5732  0.1950  0.1286
  304MOL0     O40020   1.422   3.054   3.977 -0.5458 -0.2448  0.7386
  304MOL0     C40021   1.282   3.058   3.989  0.1711 -0.3664 -0.4666
  304MOL0     C40022   1.200   3.011   3.887  0.2480 -0.4681  0.7107
  304MOL0     C40023   1.059   3.019   3.896 -0.1643  0.7635 -0.3852
  304MOL0     C40024   1.000   3.064   4.015 -0.3084 -0.3141 -0.3020
  304MOL0     C40025   0.852   3.065   4.028  0.4349 -0.0771  0.0540
  304MOL0     O40026   0.782   3.012   3.924 -0.5566  0.0296 -0.2390
  304MOL0     C40027   0.651   3.038   3.927 -0.3730  0.4934 -0.5944
  304MOL0     C40028   0.592   3.134   3.846 -0.2505 -0.2345  0.7717
  304MOL0     C40029   0.450   3.154   3.855  0.8994 -0.0803  0.0914
  304MOL0     C40030   0.366   3.080   3.952  0.3966 -0.1011 -0.7808
  304MOL0     O40031   0.237   3.111   3.988 -0.6629  0.4030  0.1142
  304MOL0     C40032   0.162   3.208   3.911 -0.5722  0.3782  0.7056
  304MOL0     C40033   0.012   3.195   3.959 -0.3319  0.4809  0.1959
  304MOL0     C40034  -0.042   3.057   3.917 -0.1125 -0.2675  0.1579
  304MOL0     C40035  -0.177   3.030   3.973  1.0125  0.8102  0.3353
  304MOL0     C40036  -0.204   2.880   3.955 -0.0878  0.0822 -0.2538
  304MOL0     C40037  -0.344   2.842   4.008  0.1670 -0.0667  0.1153
  304MOL0     C40038  -0.434   2.786   3.897 -0.0332  0.7434  0.5257
  304MOL0     C40039  -0.558   2.721   3.961 -0.9659  0.2712  0.2369
  304MOL0    Cl40040  -0.663   2.677   3.823 -0.6572  0.0391 -0.2119
  304MOL0     C40041   0.433   2.984   4.022 -0.2119  0.6952  0.1699
  304MOL0     C40042   0.571   2.961   4.013 -0.6806 -0.3498  0.2242
  304MOL0     O40043   0.795   3.129   4.121  0.0723  0.1283 -0.6275
  304MOL0     C40044   1.088   3.098   4.120  0.7979  0.4049 -0.5051
  304MOL0     C40045   1.222   3.090   4.109 -0.5502 -0.3581  0.6430
  304MOL0     N40046   1.969   2.724   3.920 -0.0264 -0.9190 -0.5338
  304MOL0     N40047   2.040   2.636   3.984  0.5065 -0.2819 -0.1830
  304MOL0     C40048   3.268   2.560   4.451  1.0848  0.6804  0.5279
  304MOL0     C40049   3.405   2.556   4.457  0.4755  0.5197 -0.8595
  304MOL0     C40050   3.827   2.420   4.576  1.5397  0.2610  0.2653
  304MOL0     C40051   3.908   2.323   4.519  0.1380  0.4972  0.6191
  304MOL0     C40052   4.047   2.338   4.545  0.0192  0.4242 -0.1972
  304MOL0     C40053   4.095   2.439   4.622 -0.4370 -0.3891 -0.8171
  304MOL0     O40054   4.233   2.433   4.642  0.0349  0.5513 -0.7302
  304MOL0     C40055   4.302   2.551   4.685 -0.6456 -0.0609  0.1500
  304MOL0     C40056   4.448   2.516   4.722 -0.8826  0.9051  0.5131
  304MOL0     C40057   4.554   2.622   4.707  0.2091  0.2599 -0.3243
  304MOL0     C40058   4.683   2.572   4.776 -0.4565 -0.2661  0.7282
  304MOL0     C40059   4.800   2.647   4.729 -0.4440  0.0417 -0.0574
  304MOL0     C40060   4.904   2.705   4.693 -0.4243  0.5827  0.3184
  304MOL0     C40061   4.013   2.546   4.656  0.1425  0.6750 -0.5100
  304MOL0     C40062   3.878   2.535   4.643  0.7906  0.4774  0.5871
  304MOL0     H40063   3.457   2.435   4.754 -1.0076 -3.2693 -0.2623
  304MOL0     H40064   3.221   2.444   4.765 -0.9521 -0.1018  0.4008
  304MOL0     H40065   3.012   2.562   4.345 -0.1937 -0.1274  0.1786
  304MOL0     H40066   2.968   2.687   4.457  0.0763 -0.4745  0.3798
  304MOL0     H40067   2.794   2.559   4.540  0.9005  3.6306 -1.8057
  304MOL0     H40068   2.846   2.418   4.440  2.2308  0.4063 -1.0326
  304MOL0     H40069   2.766   2.540   4.244 -2.0785 -1.2796  0.8654
  304MOL0     H40070   2.757   2.694   4.332 -0.2143 -0.3713  1.7364
  304MOL0     H40071   2.586   2.443   4.386 -1.1800  0.6438  2.3116
  304MOL0     H40072   2.579   2.593   4.473 -0.6281 -2.4874  1.9032
  304MOL0     H40073   2.538   2.573   4.164  4.4473 -0.5156  0.0050
  304MOL0     H40074   2.529   2.711   4.267 -4.0545  0.0353 -2.6910
  304MOL0     H40075   2.350   2.601   4.400  3.1233 -4.2422  0.9265
  304MOL0     H40076   2.355   2.464   4.316  1.0233 -0.0804  1.7675
  304MOL0     H40077   2.319   2.754   4.196  1.6293  0.4715 -1.6329
  304MOL0     H40078   2.317   2.613   4.089 -1.9591  1.8107 -0.9615
  304MOL0     H40079   2.125   2.626   4.315  3.3798  1.7667  0.8202
  304MOL0     H40080   2.135   2.511   4.183  0.6104  0.5647 -3.3366
  304MOL0     H40081   1.982   2.873   4.207 -2.0161  0.5343 -0.8506
  304MOL0     H40082   1.889   2.978   3.893  3.2919 -1.4762  0.0739
  304MOL0     H40083   1.866   3.003   4.068 -0.1080 -0.7540  0.8474
  304MOL0     H40084   1.644   2.933   4.074  0.0830  2.9738 -1.4770
  304MOL0     H40085   1.689   2.801   3.950  1.8023 -0.0790 -1.0795
  304MOL0     H40086   1.683   3.096   3.904 -1.9088  1.9957 -2.9358
  304MOL0     H40087   1.687   2.978   3.778 -0.8916 -1.8246  0.2519
  304MOL0     H40088   1.463   2.886   3.866  0.5708  0.1864 -0.3672
  304MOL0     H40089   1.446   3.036   3.771  0.9050 -3.8555 -2.0789
  304MOL0     H40090   1.233   2.975   3.790 -1.4611 -1.1227  0.3408
  304MOL0     H40091   1.001   2.987   3.810 -2.0590  1.7169  0.4789
  304MOL0     H40092   0.666   3.192   3.792  1.1068 -0.2028  2.5652
  304MOL0     H40093   0.398   3.231   3.798 -0.5938 -0.0161  1.4785
  304MOL0     H40094   0.181   3.193   3.805  1.0392 -1.4080  1.1963
  304MOL0     H40095   0.198   3.308   3.940 -1.1013  1.2501 -1.4866
  304MOL0     H40096  -0.048   3.274   3.914 -0.2188  0.0876 -0.6517
  304MOL0     H40097   0.012   3.210   4.068  1.8330 -0.2742  0.3518
  304MOL0     H40098   0.027   2.976   3.943  1.7024  0.7753 -1.1226
  304MOL0     H40099  -0.050   3.050   3.808  0.4141 -0.8332  0.1468
  304MOL0     H40100  -0.183   3.067   4.075  1.6642  5.8454 -1.1881
  304MOL0     H40101  -0.254   3.090   3.924 -1.8815  0.1803  3.7488
  304MOL0     H40102  -0.130   2.816   4.004  1.1207 -0.7547 -2.9992
  304MOL0     H40103  -0.197   2.846   3.852  2.3703 -0.8694  0.1661
  304MOL0     H40104  -0.390   2.931   4.050  1.2234 -0.5897  2.5410
  304MOL0     H40105  -0.333   2.772   4.091 -0.3661  1.2798  1.3554
  304MOL0     H40106  -0.473   2.862   3.828 -1.3457 -1.3592 -1.1584
  304MOL0     H40107  -0.383   2.704   3.846 -3.4491 -2.6326  2.0803
  304MOL0     H40108  -0.605   2.797   4.024  0.6570  1.3152  0.2353
  304MOL0     H40109  -0.518   2.634   4.012  2.7302  1.4055 -0.4096
  304MOL0     H40110   0.393   2.904   4.084 -1.2067 -0.7190 -2.1235
  304MOL0     H40111   0.620   2.885   4.074  1.3277  0.1224 -0.7279
  304MOL0     H40112   1.029   3.117   4.209  0.3807  1.8951 -1.0671
  304MOL0     H40113   1.284   3.101   4.197  1.6373 -0.0768 -0.8397
  304MOL0     H40114   3.214   2.604   4.368  0.0277 -4.0878 -1.6768
  304MOL0     H40115   3.479   2.588   4.385  3.9872  0.1943  2.2782
  304MOL0     H40116   3.884   2.241   4.452  2.3394 -0.5451  1.0278
  304MOL0     H40117   4.113   2.263   4.503  0.9464  2.8143 -3.3894
  304MOL0     H40118   4.261   2.594   4.777 -0.5424  1.9427 -0.6898
  304MOL0     H40119   4.290   2.623   4.603 -2.1512  2.8133  2.6604
  304MOL0     H40120   4.432   2.471   4.820 -2.7665 -2.4654 -1.1570
  304MOL0     H40121   4.472   2.423   4.668 -0.2251  1.4944 -0.2400
  304MOL0     H40122   4.513   2.712   4.753  0.6094 -0.4592  1.5640
  304MOL0     H40123   4.572   2.649   4.603 -0.1831  2.0963  0.0416
  304MOL0     H40124   4.670   2.580   4.885  0.5113 -3.6339  1.1829
  304MOL0     H40125   4.713   2.470   4.755  1.6337 -0.0530  2.3007
  304MOL0     H40126   5.002   2.739   4.669 -0.1837  0.4337  1.0706
  304MOL0     H40127   4.046   2.636   4.708 -0.0844  0.6123 -0.2536
  304MOL0     H40128   3.816   2.616   4.682 -0.8527 -0.2795 -0.3413
  305MOL0     O40129   2.158   1.566  10.468  0.0052  0.0426 -0.2344
  305MOL0     C40130   2.182   1.444  10.461  0.9566  0.5948  0.5468
  305MOL0     O40131   2.090   1.340  10.468 -0.3238  0.4339 -0.0877
  305MOL0     C40132   1.961   1.371  10.485 -0.5019 -0.1549 -0.3139
  305MOL0     C40133   1.904   1.316  10.602  0.2154 -0.4674  0.5820
  305MOL0     C40134   1.768   1.336  10.640 -0.1332 -1.0338 -0.3764
  305MOL0     C40135   1.687   1.413  10.554  0.2371  0.2922  0.8521
  305MOL0     O40136   1.546   1.402  10.558  0.0087 -0.6126  0.0870
  305MOL0     C40137   1.495   1.494  10.658  0.1608 -0.4493 -0.4343
  305MOL0     C40138   1.361   1.455  10.716 -0.5707  0.1717 -0.7324
  305MOL0     C40139   1.329   1.539  10.841  0.0572  0.0003  0.2526
  305MOL0     C40140   1.293   1.691  10.814  0.3617  0.5936  0.6023
  305MOL0     C40141   1.189   1.743  10.896 -0.2308  1.0644  0.5261
  305MOL0     C40142   1.138   1.874  10.850 -0.3286  0.3684  0.3793
  305MOL0     C40143   1.055   1.934  10.958  1.1446 -0.4061 -0.3677
  305MOL0     C40144   0.983   2.057  10.903 -0.8090 -0.0352  0.4512
  305MOL0     N40145   0.861   2.027  10.829 -0.0466  0.2847 -0.8112
  305MOL0     C40146   0.753   1.971  10.899  0.7375  0.4108  0.5733
  305MOL0     C40147   0.645   1.980  10.810 -0.5667 -0.4755 -0.4028
  305MOL0     C40148   0.512   1.917  10.828 -0.0058 -0.0278  0.7356
  305MOL0     C40149   0.530   1.763  10.792  0.1556  0.5624 -0.0283
  305MOL0     C40150   0.388   1.706  10.816  1.1166 -0.0444  0.7341
  305MOL0     C40151   0.354   1.563  10.759 -0.0729 -0.6507  0.4928
  305MOL0     O40152   0.430   1.461  10.827 -0.7135 -0.6524 -0.2504
  305MOL0     C40153   0.561   1.422  10.780  0.1185  0.1556 -0.9908
  305MOL0     C40154   0.622   1.319  10.847  0.0917 -1.0299 -0.6203
  305MOL0     C40155   0.745   1.273  10.806  0.7052 -0.4247  0.1661
  305MOL0     C40156   0.805   1.314  10.684  0.0647  0.2002  0.4428
  305MOL0     C40157   0.938   1.256  10.638  0.4309  0.4215 -0.2303
  305MOL0     O40158   0.962   1.125  10.659 -0.8708  0.2107  0.1001
  305MOL0     C40159   1.084   1.064  10.629  0.4637  0.4605  0.0552
  305MOL0     C40160   1.114   0.941  10.695 -0.4909  0.4745  0.4831
  305MOL0     C40161   1.233   0.869  10.683 -0.7834 -0.6175  0.4544
  305MOL0     C40162   1.339   0.924  10.613 -0.4090  0.1606  0.9463
  305MOL0     O40163   1.457   0.853  10.619  0.2467  0.6829  0.3706
  305MOL0     C40164   1.556   0.928  10.694  0.4162  0.2685  0.1719
  305MOL0     C40165   1.663   0.820  10.702  0.0594 -1.0156 -0.6740
  305MOL0     C40166   1.759   0.877  10.804  0.3517 -1.1501 -0.8809
  305MOL0     C40167   1.875   0.783  10.835  1.0063 -0.2111  0.5033
  305MOL0     C40168   1.965   0.851  10.944 -0.9087  0.4713 -0.7364
  305MOL0     C40169   2.099   0.770  10.961  0.2258  0.2512  0.3295
  305MOL0     C40170   2.190   0.817  11.076  0.4758  0.5671  0.0952
  305MOL0     C40171   2.323   0.730  11.091  0.2724 -0.2974  0.9958
  305MOL0    Cl40172   2.445   0.840  11.153  0.2951 -0.4426  0.4891
  305MOL0     C40173   1.319   1.043  10.539 -0.0710 -0.0805 -0.2273
  305MOL0     C40174   1.191   1.115  10.551 -0.1212 -0.2925 -0.3935
  305MOL0     O40175   1.020   1.338  10.586 -0.3098  0.8650  0.6493
  305MOL0     C40176   0.742   1.415  10.605 -0.7610 -0.5436 -0.3277
  305MOL0     C40177   0.618   1.466  10.657 -0.6387  0.4620 -0.1728
  305MOL0     N40178   0.693   2.030  10.690  0.8555  0.6870 -0.2265
  305MOL0     N40179   0.812   2.069  10.707 -0.4722  0.0094 -0.5830
  305MOL0     C40180   1.747   1.467  10.434 -0.4910  0.9165  0.3402
  305MOL0     C40181   1.885   1.449  10.410  0.6658  0.5494 -0.5264
  305MOL0     C40182   2.323   1.401  10.452  0.7663  0.6366 -0.1906
  305MOL0     C40183   2.360   1.267  10.426 -0.0532  0.3362  0.6252
  305MOL0     C40184   2.496   1.231  10.418  0.7186 -0.3521  0.5911
  305MOL0     C40185   2.603   1.323  10.455 -0.0072 -0.2857  0.2720
  305MOL0     O40186   2.735   1.279  10.443  0.7993 -0.0408 -0.5261
  305MOL0     C40187   2.822   1.327  10.537  0.5777 -0.2832  0.4029
  305MOL0     C40188   2.935   1.232  10.567 -1.0538  0.7863 -0.9281
  305MOL0     C40189   3.062   1.258  10.478  0.3680  0.4161 -0.0372
  305MOL0     C40190   3.181   1.163  10.517  0.1438 -0.2832  0.4715
  305MOL0     C40191   3.292   1.191  10.417 -0.3102  0.2895 -0.6398
  305MOL0     C40192   3.385   1.212  10.344 -0.2891  0.8072 -0.2585
  305MOL0     C40193   2.566   1.452  10.492 -0.7531  0.1855  0.3050
  305MOL0     C40194   2.432   1.488  10.487  0.1450 -0.3314  0.4184
  305MOL0     H40195   1.962   1.256  10.671 -0.2029 -1.4861  0.0687
  305MOL0     H40196   1.730   1.285  10.727 -0.9199  0.0819 -0.0385
  305MOL0     H40197   1.502   1.597  10.623  0.8666 -0.2704  0.2005
  305MOL0     H40198   1.564   1.499  10.743 -0.0317  0.2136 -0.3112
  305MOL0     H40199   1.374   1.351  10.748 -0.4673 -0.2844 -2.2106
  305MOL0     H40200   1.283   1.446  10.640  0.2685 -1.6499 -1.4277
  305MOL0     H40201   1.412   1.529  10.912  0.8090 -2.6504 -0.8974
  305MOL0     H40202   1.254   1.480  10.894 -0.4107 -1.3779 -1.8185
  305MOL0     H40203   1.379   1.759  10.813  0.8970 -0.0613 -1.2211
  305MOL0     H40204   1.259   1.700  10.711  0.0750 -1.7817  0.4277
  305MOL0     H40205   1.232   1.760  10.995 -0.6334 -0.5759  1.0082
  305MOL0     H40206   1.112   1.666  10.904  1.3428 -0.5301  0.8737
  305MOL0     H40207   1.073   1.854  10.764 -0.7354 -1.0476  0.9860
  305MOL0     H40208   1.220   1.936  10.813  0.3286  0.1803  1.4588
  305MOL0     H40209   0.979   1.862  10.990 -0.0214  0.9293 -0.0416
  305MOL0     H40210   1.113   1.963  11.046 -1.9601  2.3457  0.9659
  305MOL0     H40211   1.055   2.105  10.836 -1.7510  0.1777 -0.4432
  305MOL0     H40212   0.972   2.131  10.982 -1.3055  2.2831 -1.6667
  305MOL0     H40213   0.755   1.925  10.997  0.5927  1.3044  1.0055
  305MOL0     H40214   0.431   1.962  10.769 -2.6920 -3.4436  1.4604
  305MOL0     H40215   0.481   1.917  10.933 -0.0148  0.0516  0.7329
  305MOL0     H40216   0.606   1.713  10.853  0.8869 -0.2772 -1.5771
  305MOL0     H40217   0.555   1.748  10.687 -0.3249  1.7451 -0.3187
  305MOL0     H40218   0.373   1.710  10.924  1.9163 -1.8834  0.9557
  305MOL0     H40219   0.319   1.770  10.761 -0.0182 -1.6197  0.2298
  305MOL0     H40220   0.362   1.569  10.650 -0.4915  0.9152  0.5243
  305MOL0     H40221   0.257   1.527  10.792  0.4870 -1.7459  0.9934
  305MOL0     H40222   0.584   1.303  10.947 -3.7170  1.0460 -1.5168
  305MOL0     H40223   0.789   1.194  10.866  1.8731  0.2046  0.1569
  305MOL0     H40224   1.033   0.892  10.748 -2.3079  2.2467 -0.5144
  305MOL0     H40225   1.256   0.767  10.712  0.9407  0.1861  2.0449
  305MOL0     H40226   1.519   0.978  10.784 -0.5034  0.7379 -0.4486
  305MOL0     H40227   1.606   1.011  10.643 -1.2296  1.0584 -0.2432
  305MOL0     H40228   1.706   0.794  10.604  0.8217  2.1174 -1.2620
  305MOL0     H40229   1.630   0.722  10.738  1.3776 -1.4661 -0.6346
  305MOL0     H40230   1.713   0.911  10.897  0.3260  0.3983 -1.4201
  305MOL0     H40231   1.800   0.970  10.761 -0.4714 -0.9474 -1.2436
  305MOL0     H40232   1.833   0.687  10.866 -1.9149  0.1707 -1.8487
  305MOL0     H40233   1.937   0.765  10.746  0.4757  0.1509  0.0488
  305MOL0     H40234   1.913   0.847  11.040  0.4377 -1.6245 -0.0365
  305MOL0     H40235   1.996   0.952  10.916  0.9033 -0.3465 -1.8682
  305MOL0     H40236   2.145   0.759  10.862  1.0207  0.2187  0.6919
  305MOL0     H40237   2.067   0.668  10.986 -0.2873  0.9658  2.8339
  305MOL0     H40238   2.220   0.921  11.060 -0.6087  1.1882  1.7851
  305MOL0     H40239   2.141   0.805  11.173  2.0945 -0.0074  0.8704
  305MOL0     H40240   2.364   0.694  10.996  2.0481 -0.4723  1.7869
  305MOL0     H40241   2.294   0.640  11.146 -1.5759 -0.7508 -0.5994
  305MOL0     H40242   1.408   1.087  10.495  0.0143  1.1225  1.0498
  305MOL0     H40243   1.193   1.210  10.498 -4.6672  0.3009  0.1029
  305MOL0     H40244   0.772   1.469  10.515 -3.6046  1.8382 -0.0101
  305MOL0     H40245   0.577   1.546  10.596 -1.7819  0.2653  0.3097
  305MOL0     H40246   1.680   1.526  10.371 -0.4117 -1.3596 -2.0388
  305MOL0     H40247   1.922   1.492  10.317  0.7285  2.0038  0.1391
  305MOL0     H40248   2.284   1.196  10.396 -0.6676  1.5259 -0.7948
  305MOL0     H40249   2.525   1.132  10.385 -2.5494 -0.7428 -1.6153
  305MOL0     H40250   2.771   1.356  10.630  1.6091  1.5542  0.4316
  305MOL0     H40251   2.853   1.424  10.498  0.5900 -0.1439  0.7509
  305MOL0     H40252   2.967   1.255  10.669 -0.2533 -2.4964 -0.3191
  305MOL0     H40253   2.906   1.127  10.558  1.6466 -0.2331  0.7756
  305MOL0     H40254   3.088   1.361  10.502 -0.5497  0.5344  0.4672
  305MOL0     H40255   3.040   1.250  10.372  0.6089  0.8458 -0.1200
  305MOL0     H40256   3.212   1.173  10.621  0.6545 -1.5283  0.4605
  305MOL0     H40257   3.150   1.059  10.502 -3.5365  0.9606 -1.5757
  305MOL0     H40258   3.472   1.228  10.283 -0.2339 -4.0914 -1.9117
  305MOL0     H40259   2.645   1.522  10.518 -0.8913  0.8948 -1.0793
  305MOL0     H40260   2.403   1.589  10.515  0.9686 -0.4120  1.6402
  306MOL0     O40261   3.606   0.512   9.662 -0.1898 -0.0585  0.2929
  306MOL0     C40262   3.656   0.532   9.555  0.1725 -0.6586 -0.4406
  306MOL0     O40263   3.711   0.438   9.475 -0.1806 -0.4202 -0.0768
  306MOL0     C40264   3.739   0.312   9.520  0.5546 -0.2311 -0.1159
  306MOL0     C40265   3.646   0.204   9.547  0.3048 -0.3739 -0.4986
  306MOL0     C40266   3.700   0.083   9.594  1.2257 -0.6128  0.1601
  306MOL0     C40267   3.832   0.067   9.613 -0.1378  0.2630  0.9154
  306MOL0     O40268   3.861  -0.061   9.652  0.0885  0.9501  0.2490
  306MOL0     C40269   3.986  -0.103   9.713 -0.4869  0.1483  0.4751
  306MOL0     C40270   3.991  -0.254   9.756 -0.4076  0.1824  0.1999
  306MOL0     C40271   4.129  -0.282   9.824 -0.0655  0.2816 -0.1162
  306MOL0     C40272   4.178  -0.428   9.806  0.5089 -0.1509  0.2153
  306MOL0     C40273   4.074  -0.530   9.855 -0.7479 -0.1670 -0.9181
  306MOL0     C40274   4.059  -0.523  10.002 -0.4098  0.2086  0.7682
  306MOL0     C40275   3.986  -0.650  10.051  0.2748  0.3844  0.4115
  306MOL0     C40276   3.949  -0.673  10.196 -0.9909  0.0221 -0.4591
  306MOL0     N40277   3.884  -0.563  10.272 -0.1832  0.0325  0.0903
  306MOL0     C40278   3.793  -0.584  10.364  0.1405  0.9909  0.1336
  306MOL0     C40279   3.756  -0.465  10.411  0.3980  0.5658 -0.0086
  306MOL0     C40280   3.663  -0.429  10.528  1.1577 -0.9942  0.4096
  306MOL0     C40281   3.672  -0.516  10.646 -0.1852 -0.1364  0.4609
  306MOL0     C40282   3.537  -0.564  10.687  0.1877  0.1050  0.3765
  306MOL0     C40283   3.543  -0.649  10.816  0.2807 -0.3104 -0.2917
  306MOL0     O40284   3.416  -0.695  10.852 -0.0444  1.0519  0.1620
  306MOL0     C40285   3.400  -0.826  10.893  0.8248 -0.4532  0.8694
  306MOL0     C40286   3.503  -0.906  10.939 -0.4036  0.5808 -0.3003
  306MOL0     C40287   3.467  -1.032  11.003 -0.4911 -0.8499 -0.0279
  306MOL0     C40288   3.333  -1.088  10.997  0.1382 -0.6211  0.6341
  306MOL0     C40289   3.308  -1.231  11.035 -0.3788 -1.1232 -0.1591
  306MOL0     O40290   3.176  -1.258  11.032 -0.2449  0.4512  0.3965
  306MOL0     C40291   3.143  -1.390  11.027 -0.0925 -0.0007  0.3742
  306MOL0     C40292   3.168  -1.468  10.910  0.9556  0.4774  0.0408
  306MOL0     C40293   3.146  -1.608  10.923  0.2902  0.1280  0.8610
  306MOL0     C40294   3.089  -1.671  11.038  0.8117 -0.5906 -0.4296
  306MOL0     O40295   3.049  -1.801  11.036 -0.4808 -0.1169 -0.7807
  306MOL0     C40296   3.025  -1.876  11.160  0.7632  0.4498  0.3123
  306MOL0     C40297   2.971  -2.019  11.105 -0.4507 -0.4846  0.3976
  306MOL0     C40298   2.818  -2.015  11.067  0.5083 -0.8137 -0.8380
  306MOL0     C40299   2.766  -2.152  11.032  0.2830  0.4379 -0.2684
  306MOL0     C40300   2.683  -2.153  10.905  0.6840  0.3297 -0.0355
  306MOL0     C40301   2.752  -2.114  10.781  0.0553 -0.6388 -0.1792
  306MOL0     C40302   2.669  -2.163  10.655 -0.2834 -0.2265  0.6007
  306MOL0     C40303   2.722  -2.097  10.523 -0.1191 -0.3433 -0.1638
  306MOL0    Cl40304   2.864  -2.163  10.450 -0.3556 -0.0001  0.3087
  306MOL0     C40305   3.046  -1.583  11.141 -0.1734  0.7868  0.1798
  306MOL0     C40306   3.066  -1.441  11.134  0.1438  0.4292  0.9610
  306MOL0     O40307   3.400  -1.301  11.078 -0.3735  0.2628  0.1336
  306MOL0     C40308   3.229  -0.999  10.953  0.1218 -0.2156  0.5811
  306MOL0     C40309   3.268  -0.868  10.900  0.0377  0.1714 -0.1922
  306MOL0     N40310   3.831  -0.371  10.349  0.1356 -0.2530  0.5278
  306MOL0     N40311   3.906  -0.433  10.262  0.0666 -0.3482  0.5306
  306MOL0     C40312   3.920   0.173   9.597 -0.1149 -0.4320  0.6802
  306MOL0     C40313   3.872   0.295   9.547 -0.6139 -0.1379 -0.5989
  306MOL0     C40314   3.643   0.664   9.508 -0.1219 -0.2284 -0.3258
  306MOL0     C40315   3.559   0.750   9.565  1.1834  0.6474  0.5019
  306MOL0     C40316   3.543   0.884   9.516  0.0122  0.0264 -0.0711
  306MOL0     C40317   3.628   0.932   9.412 -0.3122  0.0325 -0.3637
  306MOL0     O40318   3.616   1.061   9.373  0.1932  0.0858  0.4444
  306MOL0     C40319   3.706   1.112   9.281 -0.8325  0.4701 -0.5130
  306MOL0     C40320   3.844   1.143   9.339  0.7671 -0.0356 -0.2684
  306MOL0     C40321   3.965   1.124   9.253  0.1692  0.0883 -0.8495
  306MOL0     C40322   4.102   1.172   9.314 -0.5208 -0.6900  0.0842
  306MOL0     C40323   4.103   1.309   9.366  0.1845 -0.2371  0.4365
  306MOL0     C40324   4.108   1.427   9.407 -0.5938  0.0860  0.3520
  306MOL0     C40325   3.724   0.841   9.360  0.3152 -0.0025  1.3591
  306MOL0     C40326   3.731   0.710   9.403 -0.3072  0.5942 -0.3791
  306MOL0     H40327   3.540   0.224   9.547  0.2040 -0.7033  1.5001
  306MOL0     H40328   3.637  -0.005   9.589 -0.2460  0.4668 -1.4954
  306MOL0     H40329   3.998  -0.040   9.802 -1.5096 -1.7747  2.0429
  306MOL0     H40330   4.066  -0.084   9.641 -0.2792 -2.9850 -0.2430
  306MOL0     H40331   3.978  -0.316   9.667 -1.3506 -1.1955  1.2557
  306MOL0     H40332   3.906  -0.278   9.820 -0.4142 -3.0846 -0.8419
  306MOL0     H40333   4.136  -0.253   9.930 -0.3768 -0.6584  0.1761
  306MOL0     H40334   4.212  -0.233   9.772  0.5288 -1.3514 -0.7889
  306MOL0     H40335   4.202  -0.439   9.699  4.7568  1.8616  0.7675
  306MOL0     H40336   4.276  -0.440   9.854  0.7543 -1.0117 -0.4527
  306MOL0     H40337   4.116  -0.628   9.830  1.8396  0.5474  0.2752
  306MOL0     H40338   3.977  -0.520   9.805 -0.0072  0.2330 -2.3460
  306MOL0     H40339   4.013  -0.429  10.034 -1.0181  0.3069 -0.3648
  306MOL0     H40340   4.161  -0.522  10.041 -0.0294 -4.1458  0.4474
  306MOL0     H40341   3.896  -0.657   9.990  0.8305  2.0545 -0.6939
  306MOL0     H40342   4.048  -0.737  10.031 -3.1035 -1.6439 -2.4192
  306MOL0     H40343   4.044  -0.691  10.247 -1.0426  1.0814  0.0319
  306MOL0     H40344   3.896  -0.769  10.202 -1.0735  0.1353  0.7783
  306MOL0     H40345   3.743  -0.672  10.404 -0.5545  1.2916 -0.0646
  306MOL0     H40346   3.561  -0.426  10.489  0.8296 -0.2801  1.3020
  306MOL0     H40347   3.688  -0.330  10.566 -1.2218 -0.5214  0.8804
  306MOL0     H40348   3.724  -0.482  10.736  1.7073  0.4903 -0.8176
  306MOL0     H40349   3.734  -0.603  10.623  2.7456  0.6595  4.3573
  306MOL0     H40350   3.469  -0.480  10.702 -2.3135 -1.3806 -1.6147
  306MOL0     H40351   3.485  -0.616  10.605  0.4413 -0.6328  0.6685
  306MOL0     H40352   3.611  -0.609  10.892 -1.7037  0.7296  1.0067
  306MOL0     H40353   3.595  -0.739  10.781  0.5789 -0.7688  1.2506
  306MOL0     H40354   3.606  -0.871  10.944 -0.5392  0.9951 -0.3705
  306MOL0     H40355   3.556  -1.084  11.039 -0.5819 -1.2425 -0.3581
  306MOL0     H40356   3.199  -1.421  10.817  0.3014 -2.6221 -1.9064
  306MOL0     H40357   3.146  -1.657  10.826 -0.7424  1.6785  0.0261
  306MOL0     H40358   2.947  -1.836  11.226 -0.1955  1.2605 -1.2355
  306MOL0     H40359   3.120  -1.890  11.213  1.3010 -3.4896 -1.3289
  306MOL0     H40360   3.000  -2.092  11.181 -0.4312  1.4524  2.3273
  306MOL0     H40361   3.024  -2.061  11.018  1.6643 -1.3673  2.0238
  306MOL0     H40362   2.813  -1.937  10.991  0.2432  0.5226  0.5057
  306MOL0     H40363   2.768  -1.967  11.152 -0.3405 -2.8344 -0.1303
  306MOL0     H40364   2.860  -2.203  11.008  1.1732  1.7223  0.3488
  306MOL0     H40365   2.722  -2.197  11.121  1.6950 -0.6831 -0.1039
  306MOL0     H40366   2.603  -2.081  10.925  1.5077  0.7010  2.0977
  306MOL0     H40367   2.629  -2.248  10.902 -0.2692  0.6577  3.3407
  306MOL0     H40368   2.847  -2.166  10.766  1.2949  1.2822  0.6319
  306MOL0     H40369   2.770  -2.006  10.776  1.1360 -0.8636 -2.4759
  306MOL0     H40370   2.682  -2.272  10.657  0.4015 -0.2518 -2.0633
  306MOL0     H40371   2.561  -2.147  10.655 -0.2280  0.7264 -2.1371
  306MOL0     H40372   2.732  -1.988  10.532  0.5629 -0.2665 -1.5737
  306MOL0     H40373   2.645  -2.113  10.446  0.4350 -1.8192 -0.4504
  306MOL0     H40374   2.982  -1.616  11.222 -0.5958 -1.8375 -1.1281
  306MOL0     H40375   3.011  -1.375  11.200 -0.9461  0.2897  0.2131
  306MOL0     H40376   3.125  -1.030  10.952  0.2158 -0.6926  2.3192
  306MOL0     H40377   3.191  -0.804  10.858 -0.0804 -1.6475 -3.0166
  306MOL0     H40378   4.025   0.152   9.615 -0.2988 -0.2132  2.1661
  306MOL0     H40379   3.952   0.366   9.530  1.5231 -1.8228  1.7951
  306MOL0     H40380   3.498   0.720   9.649  0.1973 -0.6991 -0.6356
  306MOL0     H40381   3.475   0.954   9.565  0.9192 -0.5248  2.1087
  306MOL0     H40382   3.673   1.211   9.249 -0.1796  0.7758 -0.2676
  306MOL0     H40383   3.717   1.044   9.197 -1.3118 -1.4150  0.8709
  306MOL0     H40384   3.838   1.238   9.393 -0.9664 -1.6625  2.6759
  306MOL0     H40385   3.852   1.083   9.430  0.4379 -0.4267 -0.4946
  306MOL0     H40386   3.951   1.164   9.152  1.0281 -1.9384 -1.8203
  306MOL0     H40387   3.969   1.016   9.239  1.1158  0.2208 -1.7291
  306MOL0     H40388   4.134   1.106   9.394  0.8084 -1.4713 -1.0410
  306MOL0     H40389   4.174   1.156   9.233 -0.6162 -1.3114  0.1225
  306MOL0     H40390   4.124   1.525   9.448  3.0534  1.0089 -2.6685
  306MOL0     H40391   3.797   0.874   9.287 -0.7054 -1.1763 -0.2408
  306MOL0     H40392   3.804   0.639   9.367  3.4493  1.6050  4.3648
  307MOL0     O40393   4.423   0.853   1.827 -0.6984  0.0063  0.1264
  307MOL0     C40394   4.416   0.929   1.927  0.0479  1.1985  0.9140
  307MOL0     O40395   4.505   1.033   1.962 -0.1384  0.2474  0.3602
  307MOL0     C40396   4.604   1.048   1.870 -0.0576 -0.9338  0.4546
  307MOL0     C40397   4.729   1.002   1.899 -0.1964  0.2100  0.9011
  307MOL0     C40398   4.834   1.034   1.816 -0.2735  0.4385 -0.3806
  307MOL0     C40399   4.822   1.114   1.698  0.5009 -0.5928 -0.0703
  307MOL0     O40400   4.929   1.161   1.627  0.1355  0.2341  0.1754
  307MOL0     C40401   5.062   1.126   1.673 -1.0081 -0.8344 -0.0671
  307MOL0     C40402   5.167   1.199   1.597  0.6695 -0.1365 -0.7284
  307MOL0     C40403   5.162   1.345   1.631 -1.2731  0.0593  0.2504
  307MOL0     C40404   5.290   1.415   1.582  0.0514  0.1680  0.4872
  307MOL0     C40405   5.334   1.379   1.439 -0.5946 -0.4987  0.2105
  307MOL0     C40406   5.462   1.428   1.388 -0.2947  0.7099  0.2905
  307MOL0     C40407   5.589   1.392   1.465 -0.2434 -0.3126 -0.7079
  307MOL0     C40408   5.703   1.460   1.402  0.2534 -0.4479  0.0390
  307MOL0     N40409   5.819   1.409   1.468 -0.4413 -0.3865 -0.1963
  307MOL0     C40410   5.852   1.450   1.594 -0.1266 -1.0679  0.0489
  307MOL0     C40411   5.970   1.395   1.609 -0.0807  0.2731 -0.1713
  307MOL0     C40412   6.070   1.413   1.729  0.0309  0.1024  0.1749
  307MOL0     C40413   6.136   1.277   1.781  0.5445  0.2379  0.9701
  307MOL0     C40414   6.045   1.156   1.789 -1.4160  0.4622  0.3934
  307MOL0     C40415   5.914   1.175   1.859 -0.7232 -0.4804 -1.3394
  307MOL0     O40416   5.942   1.211   1.992 -0.3436 -0.6516  0.3454
  307MOL0     C40417   5.824   1.226   2.062  0.4818  0.2261  0.7963
  307MOL0     C40418   5.831   1.296   2.187  0.0429 -0.4786  0.1889
  307MOL0     C40419   5.724   1.313   2.277  0.1049 -0.1218  0.3099
  307MOL0     C40420   5.605   1.244   2.252 -0.5447  0.0788 -0.1759
  307MOL0     C40421   5.498   1.241   2.350 -0.5101 -0.4198 -0.7315
  307MOL0     O40422   5.379   1.204   2.306 -0.7197  0.0167 -0.6443
  307MOL0     C40423   5.269   1.235   2.382  0.0235  0.3021 -0.1082
  307MOL0     C40424   5.247   1.365   2.424  0.2762  0.1506 -0.6040
  307MOL0     C40425   5.127   1.405   2.477  0.0419  0.7195 -0.0424
  307MOL0     C40426   5.035   1.307   2.515  0.2596  0.3502 -0.1823
  307MOL0     O40427   4.918   1.326   2.582  0.2042 -0.0924  0.0936
  307MOL0     C40428   4.871   1.463   2.596 -0.8557 -0.4914  0.2636
  307MOL0     C40429   4.839   1.529   2.465 -0.9580 -0.3570  0.5827
  307MOL0     C40430   4.772   1.671   2.489 -0.2054 -0.1821  0.4839
  307MOL0     C40431   4.630   1.651   2.528  0.0562 -0.2148 -0.1316
  307MOL0     C40432   4.549   1.785   2.511 -0.1121 -0.3998 -0.5342
  307MOL0     C40433   4.605   1.909   2.588 -0.3770 -0.0628 -0.8146
  307MOL0     C40434   4.597   1.890   2.744 -1.3892  0.2459  0.0700
  307MOL0     C40435   4.638   2.007   2.825  0.0112 -0.0967 -0.2605
  307MOL0    Cl40436   4.533   2.159   2.780 -0.1365 -0.1286  0.0605
  307MOL0     C40437   5.068   1.169   2.479 -0.0695 -0.0755 -0.3852
  307MOL0     C40438   5.176   1.134   2.401 -0.1969 -0.5777  0.1107
  307MOL0     O40439   5.528   1.303   2.455 -0.5364  0.3995  0.1208
  307MOL0     C40440   5.596   1.162   2.132 -0.1631  0.0066  0.1742
  307MOL0     C40441   5.707   1.142   2.045 -0.5937 -0.5605  0.2648
  307MOL0     N40442   5.997   1.310   1.514 -0.3056  0.2874  0.7813
  307MOL0     N40443   5.912   1.317   1.425  0.7770 -0.0684  0.6759
  307MOL0     C40444   4.692   1.149   1.664  0.4772 -0.0910  0.0639
  307MOL0     C40445   4.583   1.122   1.748  0.4999  0.8604  0.7318
  307MOL0     C40446   4.315   0.896   2.030 -0.4068 -0.3250  0.3757
  307MOL0     C40447   4.219   0.795   2.002  0.6281  0.2937  0.8177
  307MOL0     C40448   4.136   0.750   2.105  0.1560  0.9171  0.5267
  307MOL0     C40449   4.132   0.809   2.221 -0.3783 -0.2465 -0.3670
  307MOL0     O40450   4.040   0.761   2.308  0.1474  0.0061  0.7773
  307MOL0     C40451   4.003   0.847   2.417 -1.1907  0.3926 -0.1073
  307MOL0     C40452   3.899   0.770   2.500 -0.4217  0.3548  0.7152
  307MOL0     C40453   3.842   0.860   2.616 -0.1127  1.1095  1.0344
  307MOL0     C40454   3.740   0.763   2.687  0.1547  0.3489  0.9425
  307MOL0     C40455   3.652   0.833   2.769  0.4065  0.0732  0.0403
  307MOL0     C40456   3.580   0.896   2.844  0.2777 -0.3181 -0.0557
  307MOL0     C40457   4.218   0.911   2.250 -0.1947  0.3694  0.8664
  307MOL0     C40458   4.314   0.956   2.152 -0.8839  0.4119 -0.5472
  307MOL0     H40459   4.757   0.955   1.993  0.7103 -0.8590  0.1194
  307MOL0     H40460   4.927   1.002   1.861 -0.4427 -0.6510 -0.7753
  307MOL0     H40461   5.083   1.019   1.663  1.7317 -0.3715 -0.0099
  307MOL0     H40462   5.074   1.145   1.780  1.3157 -1.3306 -0.1880
  307MOL0     H40463   5.144   1.171   1.494  1.2602  1.9623 -1.4961
  307MOL0     H40464   5.263   1.162   1.634 -0.1782  0.1788  2.0532
  307MOL0     H40465   5.155   1.351   1.740 -1.9552 -0.9806  0.2818
  307MOL0     H40466   5.071   1.382   1.584 -1.9446  1.3898  2.4651
  307MOL0     H40467   5.274   1.523   1.592 -1.9766  0.5617 -4.0790
  307MOL0     H40468   5.373   1.394   1.650  1.3511 -0.6883 -1.2707
  307MOL0     H40469   5.262   1.404   1.362  0.4899 -1.2334 -1.0775
  307MOL0     H40470   5.345   1.270   1.441  0.4268 -0.4082  0.1785
  307MOL0     H40471   5.446   1.536   1.381  0.6537  0.9284  1.2567
  307MOL0     H40472   5.478   1.397   1.285 -0.6385 -0.0344  0.4569
  307MOL0     H40473   5.582   1.421   1.570 -2.2674 -1.5203 -0.4467
  307MOL0     H40474   5.592   1.283   1.460 -2.0435 -0.4227 -0.3211
  307MOL0     H40475   5.699   1.567   1.423 -2.8457 -0.0636 -1.8135
  307MOL0     H40476   5.694   1.450   1.294 -1.0699 -1.8419  0.2322
  307MOL0     H40477   5.789   1.506   1.663 -2.0891  0.1437 -2.5376
  307MOL0     H40478   6.026   1.463   1.816 -0.9113 -0.5253  0.0752
  307MOL0     H40479   6.148   1.473   1.683 -2.5078  1.3825 -2.8072
  307MOL0     H40480   6.181   1.313   1.875  1.7192  0.2870  0.4014
  307MOL0     H40481   6.222   1.253   1.718  0.6585 -0.0031  1.2133
  307MOL0     H40482   6.028   1.111   1.691  1.0982 -0.5959  0.3411
  307MOL0     H40483   6.102   1.085   1.850 -1.9435  1.4898  2.1529
  307MOL0     H40484   5.869   1.076   1.850 -2.0962  0.0730 -0.7947
  307MOL0     H40485   5.848   1.246   1.807  0.8986  2.8808  0.8475
  307MOL0     H40486   5.923   1.344   2.219 -0.2680  0.4824 -0.2884
  307MOL0     H40487   5.741   1.376   2.364  1.2811 -0.8709  0.6541
  307MOL0     H40488   5.322   1.443   2.429  1.7264 -1.2262  0.1137
  307MOL0     H40489   5.100   1.507   2.502 -0.0082  0.8527 -0.6289
  307MOL0     H40490   4.940   1.526   2.653 -1.0665  0.6421 -0.6818
  307MOL0     H40491   4.787   1.467   2.665  0.5712 -1.0059  2.1260
  307MOL0     H40492   4.771   1.466   2.406  0.3574  1.0094 -2.5797
  307MOL0     H40493   4.919   1.528   2.391  0.4371 -6.2841  1.6021
  307MOL0     H40494   4.776   1.732   2.398 -1.3969 -2.7039 -1.3818
  307MOL0     H40495   4.828   1.723   2.567 -0.0894  1.3666 -0.5731
  307MOL0     H40496   4.589   1.574   2.461  1.7991 -0.0063 -1.5310
  307MOL0     H40497   4.623   1.615   2.631 -0.2303  2.5261  0.8813
  307MOL0     H40498   4.444   1.773   2.539  0.7375  0.3049  3.8725
  307MOL0     H40499   4.549   1.823   2.409  3.4784  1.1993 -0.1135
  307MOL0     H40500   4.552   1.998   2.554 -2.2194 -0.2820  1.2282
  307MOL0     H40501   4.710   1.929   2.566 -0.3967  1.5820  0.4060
  307MOL0     H40502   4.495   1.864   2.773 -2.3906  1.0165 -2.4746
  307MOL0     H40503   4.661   1.810   2.779 -1.1265  0.8098  0.9145
  307MOL0     H40504   4.745   2.027   2.816 -0.1810  2.6718  2.0951
  307MOL0     H40505   4.615   1.979   2.928  0.0150 -1.5060 -0.6259
  307MOL0     H40506   5.003   1.086   2.503 -0.6292  0.4023 -0.2218
  307MOL0     H40507   5.190   1.034   2.363 -1.2846 -0.1104 -1.5937
  307MOL0     H40508   5.510   1.108   2.094 -0.4038  2.3529 -3.0929
  307MOL0     H40509   5.700   1.061   1.973 -0.4632  0.5031 -0.9655
  307MOL0     H40510   4.668   1.194   1.568  2.0044 -0.9275 -0.7383
  307MOL0     H40511   4.480   1.144   1.722  0.6058  0.5149  0.0041
  307MOL0     H40512   4.212   0.744   1.906 -1.5131  0.9336  0.5851
  307MOL0     H40513   4.078   0.663   2.073 -0.9586  1.3120  1.4172
  307MOL0     H40514   3.967   0.942   2.377 -0.8365  0.6846  0.2597
  307MOL0     H40515   4.089   0.869   2.481 -3.5242  3.5790  2.2830
  307MOL0     H40516   3.814   0.744   2.437 -0.3565  0.5128  0.5626
  307MOL0     H40517   3.938   0.677   2.543 -1.9349 -0.8148 -0.3458
  307MOL0     H40518   3.782   0.940   2.571 -3.4922 -0.9787  1.5219
  307MOL0     H40519   3.922   0.881   2.688  1.0700  0.1152  0.0299
  307MOL0     H40520   3.679   0.707   2.614  2.2892 -0.4236 -0.3481
  307MOL0     H40521   3.802   0.697   2.749  0.7329 -0.4477 -0.4312
  307MOL0     H40522   3.511   0.951   2.904 -1.0517 -0.8094 -1.0769
  307MOL0     H40523   4.227   0.952   2.350  1.4605 -2.4141  1.9565
  307MOL0     H40524   4.387   1.033   2.174 -1.3286  0.2705  1.6446
  308MOL0     O40525   7.325   4.416  10.062 -0.4231 -0.3887 -0.6941
  308MOL0     C40526   7.397   4.499  10.011 -0.1301 -0.8876 -0.6256
  308MOL0     O40527   7.435   4.622  10.067 -0.2558 -0.5796  0.4448
  308MOL0     C40528   7.389   4.654  10.195  0.1577  0.0147  0.8232
  308MOL0     C40529   7.464   4.648  10.313 -0.5604 -0.9327  0.2440
  308MOL0     C40530   7.413   4.697  10.433 -0.1532  0.4979  0.2196
  308MOL0     C40531   7.277   4.747  10.441 -0.8984  0.6075  0.5238
  308MOL0     O40532   7.219   4.798  10.552 -0.4193  0.3487  0.3799
  308MOL0     C40533   7.206   4.702  10.664 -0.4182  0.3464  0.5725
  308MOL0     C40534   7.058   4.665  10.681 -0.5763 -0.8272 -0.5168
  308MOL0     C40535   6.986   4.779  10.760 -0.0081  0.7508  0.6511
  308MOL0     C40536   6.839   4.727  10.782  0.1787  0.6614 -0.1065
  308MOL0     C40537   6.766   4.835  10.861  0.4652 -0.2106 -0.2636
  308MOL0     C40538   6.627   4.786  10.896  0.5442 -0.8125 -0.1498
  308MOL0     C40539   6.526   4.822  10.782  0.2672  0.8479  0.5175
  308MOL0     C40540   6.382   4.777  10.825  0.1998 -0.5988 -0.4640
  308MOL0     N40541   6.297   4.894  10.858 -1.2949  0.4664  0.9505
  308MOL0     C40542   6.237   4.969  10.765 -0.0671  0.1853  0.2760
  308MOL0     C40543   6.143   5.036  10.834  0.1611  0.9717 -0.1997
  308MOL0     C40544   6.055   5.135  10.771  0.0896  1.1536 -0.3473
  308MOL0     C40545   5.908   5.107  10.829  0.3175  0.4083 -0.3146
  308MOL0     C40546   5.816   5.218  10.772  0.9775 -0.3176 -0.1401
  308MOL0     C40547   5.662   5.191  10.765 -0.4196 -0.1527 -0.2501
  308MOL0     O40548   5.609   5.285  10.857 -0.2274 -0.0756  0.1728
  308MOL0     C40549   5.477   5.300  10.854 -0.6464  0.4717  0.0980
  308MOL0     C40550   5.424   5.413  10.915  0.0598 -0.0708 -0.8001
  308MOL0     C40551   5.287   5.437  10.909 -0.3144 -0.7535  0.7649
  308MOL0     C40552   5.201   5.352  10.853  0.3713 -0.1433  0.0126
  308MOL0     C40553   5.058   5.379  10.850 -0.2005 -0.2503  0.7960
  308MOL0     O40554   4.979   5.293  10.779  0.1304 -0.0478  0.0069
  308MOL0     C40555   4.846   5.300  10.794  0.7183  0.2406  0.0595
  308MOL0     C40556   4.772   5.404  10.724  0.1494 -0.4135 -0.4899
  308MOL0     C40557   4.637   5.401  10.741  0.3495 -1.3074 -0.5489
  308MOL0     C40558   4.570   5.304  10.815 -0.3754  0.1281 -0.3399
  308MOL0     O40559   4.435   5.289  10.837  0.1081 -0.6741 -0.3849
  308MOL0     C40560   4.349   5.404  10.824  0.5250  0.1339  0.8954
  308MOL0     C40561   4.206   5.358  10.844  0.7048  0.9743 -0.0318
  308MOL0     C40562   4.179   5.299  10.982 -0.2494  0.5005 -0.2613
  308MOL0     C40563   4.025   5.282  10.998  0.1765  1.4512 -0.7764
  308MOL0     C40564   3.992   5.194  11.124  0.4512 -0.1248 -0.2886
  308MOL0     C40565   4.038   5.250  11.259  0.4386  0.1583 -0.3324
  308MOL0     C40566   4.013   5.151  11.373 -0.1911 -0.0080  0.5144
  308MOL0     C40567   4.006   5.216  11.510  0.8298 -0.9448 -0.3438
  308MOL0    Cl40568   3.853   5.322  11.538  0.4558  0.0303 -0.0043
  308MOL0     C40569   4.636   5.203  10.871  0.4901  0.1318 -1.2826
  308MOL0     C40570   4.777   5.199  10.869  0.0416 -0.1795 -0.2601
  308MOL0     O40571   5.022   5.478  10.907  0.8795 -0.5272 -0.2913
  308MOL0     C40572   5.256   5.234  10.792 -1.1487 -0.1174 -0.7375
  308MOL0     C40573   5.392   5.203  10.794  0.2947 -1.0279  0.7363
  308MOL0     N40574   6.146   4.998  10.968 -0.4110 -0.9240 -1.0032
  308MOL0     N40575   6.243   4.919  10.982  1.0069 -0.2217  0.1019
  308MOL0     C40576   7.204   4.751  10.327  0.2060 -0.0592  0.2828
  308MOL0     C40577   7.258   4.703  10.202  0.0137  0.0577 -0.6319
  308MOL0     C40578   7.478   4.456   9.901  0.6440  0.0024  0.7239
  308MOL0     C40579   7.615   4.485   9.881  0.6025  0.0133  0.1183
  308MOL0     C40580   7.678   4.453   9.764  0.3218  0.8745 -0.1171
  308MOL0     C40581   7.611   4.390   9.660 -0.2264 -0.2360  0.1239
  308MOL0     O40582   7.679   4.366   9.544 -0.1114 -0.1466  0.9280
  308MOL0     C40583   7.657   4.251   9.456 -0.3572  0.4587  0.2140
  308MOL0     C40584   7.800   4.189   9.420  0.0179 -1.0716 -0.4672
  308MOL0     C40585   7.908   4.289   9.364  0.2406  0.9115 -0.1317
  308MOL0     C40586   8.020   4.317   9.470 -0.1919 -0.5390  0.8971
  308MOL0     C40587   8.134   4.387   9.412  0.5397  0.1309  0.3943
  308MOL0     C40588   8.233   4.447   9.369 -0.2643  0.5747  0.3880
  308MOL0     C40589   7.479   4.369   9.672  0.3459 -0.2294  1.1451
  308MOL0     C40590   7.408   4.402   9.791  0.4521 -0.1890  0.5599
  308MOL0     H40591   7.562   4.600  10.314 -0.1459 -0.1062  1.1490
  308MOL0     H40592   7.477   4.689  10.521 -0.9275 -1.1925  0.6751
  308MOL0     H40593   7.238   4.755  10.754 -0.6446  4.5247 -1.5856
  308MOL0     H40594   7.262   4.611  10.640 -2.8717 -1.2965  0.7350
  308MOL0     H40595   7.049   4.573  10.740  1.6651 -0.8724 -0.1551
  308MOL0     H40596   7.017   4.648  10.581 -0.1607  3.6413 -1.6604
  308MOL0     H40597   6.978   4.872  10.702 -1.0173 -0.8869 -1.9901
  308MOL0     H40598   7.034   4.807  10.855 -0.5072  2.2099  0.5001
  308MOL0     H40599   6.791   4.710  10.685 -2.4492  2.2122  0.8352
  308MOL0     H40600   6.840   4.633  10.837  0.7708  0.0160 -1.1874
  308MOL0     H40601   6.777   4.932  10.812 -1.6832 -2.0606 -4.9760
  308MOL0     H40602   6.831   4.842  10.950  0.2343 -1.2306 -0.0001
  308MOL0     H40603   6.595   4.842  10.985  0.5993 -4.2824  2.2801
  308MOL0     H40604   6.622   4.682  10.931  1.5343 -0.1997  2.0220
  308MOL0     H40605   6.520   4.925  10.746 -0.1469 -0.0976 -2.4581
  308MOL0     H40606   6.548   4.763  10.692  0.9175 -1.0056  1.8136
  308MOL0     H40607   6.395   4.710  10.910  0.0505 -0.7718 -0.5755
  308MOL0     H40608   6.327   4.717  10.752  0.0973 -2.2318  0.8929
  308MOL0     H40609   6.267   4.978  10.661  1.7884  0.9846  0.8279
  308MOL0     H40610   6.056   5.116  10.663 -2.3355  1.5323 -0.5018
  308MOL0     H40611   6.098   5.233  10.792 -1.1945  1.9916 -1.4342
  308MOL0     H40612   5.902   5.103  10.938  2.0794 -1.7542 -0.2289
  308MOL0     H40613   5.875   5.009  10.794 -1.1670  0.3057  1.2627
  308MOL0     H40614   5.828   5.309  10.832  0.3629 -0.1339 -0.2968
  308MOL0     H40615   5.840   5.243  10.668 -0.0116  0.5518 -0.1762
  308MOL0     H40616   5.625   5.091  10.787 -0.9627  0.3863  1.4047
  308MOL0     H40617   5.637   5.206  10.659  1.6594  0.0847 -0.7598
  308MOL0     H40618   5.499   5.479  10.957  0.6693 -1.5354  0.5274
  308MOL0     H40619   5.254   5.532  10.951 -2.6057 -1.0626 -0.2073
  308MOL0     H40620   4.809   5.489  10.667  0.6941 -0.6877 -0.5492
  308MOL0     H40621   4.578   5.482  10.701  0.9589  1.2688  3.2221
  308MOL0     H40622   4.366   5.443  10.723  2.0155  0.2603  1.1662
  308MOL0     H40623   4.372   5.486  10.893  1.1903 -1.3896  2.5693
  308MOL0     H40624   4.186   5.267  10.787 -0.9163  0.2488  1.5856
  308MOL0     H40625   4.144   5.445  10.822  2.6281  3.5687  3.6766
  308MOL0     H40626   4.207   5.371  11.060 -0.9993 -1.4769  1.9879
  308MOL0     H40627   4.235   5.206  10.995  4.6674  3.2480  0.6111
  308MOL0     H40628   3.973   5.379  11.000 -0.1830  1.2726 -1.2621
  308MOL0     H40629   3.975   5.233  10.913 -1.4628 -0.0240  0.9586
  308MOL0     H40630   4.037   5.095  11.121  1.2339  0.2141  0.0742
  308MOL0     H40631   3.883   5.189  11.120  0.4072  0.9791 -1.1167
  308MOL0     H40632   3.983   5.343  11.274 -0.4317 -0.7033  2.1983
  308MOL0     H40633   4.146   5.266  11.255  0.4152  0.0764 -2.8252
  308MOL0     H40634   3.912   5.110  11.369  0.2530 -1.3745  2.1636
  308MOL0     H40635   4.093   5.076  11.370 -0.4079 -0.3849  2.4093
  308MOL0     H40636   4.103   5.268  11.514  0.6763 -0.6421 -0.4679
  308MOL0     H40637   4.004   5.145  11.593  1.5818 -1.2532 -0.5812
  308MOL0     H40638   4.583   5.125  10.924 -0.7480  3.4320  2.9663
  308MOL0     H40639   4.845   5.124  10.907 -0.1682  0.9796  2.6920
  308MOL0     H40640   5.183   5.158  10.766  0.0043 -1.9681  1.0929
  308MOL0     H40641   5.414   5.100  10.769 -1.5921 -1.5163  0.9678
  308MOL0     H40642   7.102   4.786  10.334  0.1229 -0.5835  2.8073
  308MOL0     H40643   7.199   4.699  10.111 -5.5324 -0.9180  2.5374
  308MOL0     H40644   7.676   4.530   9.958  0.2625  1.8323 -0.6294
  308MOL0     H40645   7.782   4.481   9.747  0.6724 -0.3026 -0.0283
  308MOL0     H40646   7.614   4.283   9.361  0.7238  1.1747 -0.0534
  308MOL0     H40647   7.595   4.170   9.495  1.1035 -0.7397  0.1500
  308MOL0     H40648   7.834   4.148   9.516  0.3314  0.9010  0.3127
  308MOL0     H40649   7.784   4.111   9.345 -2.2638  0.3480 -1.5580
  308MOL0     H40650   7.861   4.377   9.318  0.4449  1.2264  0.2559
  308MOL0     H40651   7.943   4.240   9.272 -0.1138 -2.1708  1.2481
  308MOL0     H40652   7.982   4.384   9.548  1.5152  2.2174 -0.4671
  308MOL0     H40653   8.052   4.229   9.526  0.1274  0.2250  1.9543
  308MOL0     H40654   8.326   4.483   9.333  0.5123 -3.2756 -2.0870
  308MOL0     H40655   7.426   4.341   9.581  0.3423 -4.9625  2.3782
  308MOL0     H40656   7.304   4.374   9.804  0.2490 -1.6756 -3.1503
  309MOL0     O40657   8.475   0.684   7.257  0.3835  0.5354  0.4602
  309MOL0     C40658   8.529   0.569   7.251 -0.9015 -0.0025  0.8252
  309MOL0     O40659   8.511   0.461   7.329  0.1336 -1.7180  0.5230
  309MOL0     C40660   8.408   0.448   7.422 -0.6149  0.2274  0.1938
  309MOL0     C40661   8.277   0.512   7.412 -0.4178  0.6601 -0.1680
  309MOL0     C40662   8.180   0.476   7.505 -0.0696  1.0050 -0.7739
  309MOL0     C40663   8.197   0.378   7.600  0.1119 -0.5606 -0.0677
  309MOL0     O40664   8.110   0.332   7.689  0.7276 -0.4410 -0.5806
  309MOL0     C40665   8.118   0.423   7.807  0.7268  0.0927 -0.0884
  309MOL0     C40666   8.018   0.536   7.789  0.3936 -0.0697  0.1757
  309MOL0     C40667   7.873   0.499   7.751 -0.4970  0.4888 -0.3284
  309MOL0     C40668   7.820   0.370   7.822 -0.2746  1.0972 -0.4345
  309MOL0     C40669   7.675   0.368   7.847  1.0781 -0.0226 -0.2647
  309MOL0     C40670   7.599   0.355   7.718  0.7947 -0.4044  0.0322
  309MOL0     C40671   7.450   0.308   7.715 -0.0207 -0.0591  0.8311
  309MOL0     C40672   7.356   0.376   7.821 -0.2333 -0.2676  0.7243
  309MOL0     N40673   7.222   0.333   7.785  1.1688 -0.0467  0.0297
  309MOL0     C40674   7.174   0.203   7.792  0.4708 -0.4178  0.6988
  309MOL0     C40675   7.060   0.194   7.709 -0.9500 -0.2247 -0.7279
  309MOL0     C40676   6.961   0.084   7.688 -0.2645 -0.4437  0.2345
  309MOL0     C40677   6.810   0.139   7.701 -0.9214  0.0699 -0.4915
  309MOL0     C40678   6.706   0.040   7.660 -0.2592 -0.1005 -0.6807
  309MOL0     C40679   6.566   0.097   7.653 -0.0803  0.1181  0.0412
  309MOL0     O40680   6.516   0.151   7.772  0.7353  0.1156  0.4244
  309MOL0     C40681   6.377   0.133   7.792  0.8459 -0.0122  0.5549
  309MOL0     C40682   6.333   0.168   7.920  0.5965 -0.2929 -0.4655
  309MOL0     C40683   6.199   0.143   7.961 -0.6769 -0.7663  0.6950
  309MOL0     C40684   6.100   0.102   7.864 -0.7164 -0.1568  0.0520
  309MOL0     C40685   5.959   0.081   7.889  0.0097 -0.1930 -0.1338
  309MOL0     O40686   5.912   0.150   7.994 -0.7450  0.3946 -0.0935
  309MOL0     C40687   5.803   0.112   8.061 -0.0556  0.3005  0.4422
  309MOL0     C40688   5.763  -0.022   8.070  0.5826  0.3478 -0.5647
  309MOL0     C40689   5.641  -0.053   8.133 -0.7941  0.0760 -0.0620
  309MOL0     C40690   5.567   0.037   8.201 -1.3164 -0.5175  0.4195
  309MOL0     O40691   5.450  -0.002   8.257 -0.8406 -0.2973 -0.0233
  309MOL0     C40692   5.365   0.087   8.333  0.9663 -0.1951 -0.3684
  309MOL0     C40693   5.252   0.007   8.414  0.7575  0.4431 -0.4900
  309MOL0     C40694   5.175  -0.098   8.331 -0.6001 -0.4301  1.0263
  309MOL0     C40695   5.051  -0.152   8.395 -0.1555 -0.1977 -0.4462
  309MOL0     C40696   4.975  -0.249   8.310 -0.0989 -0.5887 -0.5101
  309MOL0     C40697   4.868  -0.181   8.232 -0.2672  0.1026 -0.1033
  309MOL0     C40698   4.766  -0.272   8.176 -0.2569  0.0425  0.5627
  309MOL0     C40699   4.633  -0.193   8.146 -1.0008 -0.1021 -0.3639
  309MOL0    Cl40700   4.497  -0.319   8.143  0.2236 -0.0980 -0.1878
  309MOL0     C40701   5.609   0.167   8.188  0.0660 -0.6870  0.7978
  309MOL0     C40702   5.726   0.204   8.121  0.7539  0.7048 -0.3573
  309MOL0     O40703   5.900   0.002   7.817 -0.1033  0.3661 -0.0799
  309MOL0     C40704   6.152   0.060   7.740  0.0441 -0.5119  0.0282
  309MOL0     C40705   6.284   0.088   7.706  0.5492 -0.3827  0.1559
  309MOL0     N40706   7.040   0.322   7.659 -0.3998  0.1460  0.0182
  309MOL0     N40707   7.147   0.394   7.692 -0.3481  0.3545  0.0830
  309MOL0     C40708   8.323   0.319   7.606 -0.0782  0.0102  0.6481
  309MOL0     C40709   8.437   0.368   7.529  0.7381  0.2856  0.3186
  309MOL0     C40710   8.618   0.549   7.130  0.0932  0.0596  0.5359
  309MOL0     C40711   8.679   0.656   7.077  0.9492 -0.2942 -0.1374
  309MOL0     C40712   8.787   0.645   6.986 -0.1373 -0.1467 -0.9780
  309MOL0     C40713   8.831   0.518   6.943  0.4880  0.2607  0.1463
  309MOL0     O40714   8.934   0.495   6.855  0.2504  0.7210  0.3215
  309MOL0     C40715   8.950   0.595   6.751 -0.5962  0.3557  0.1340
  309MOL0     C40716   8.920   0.542   6.611 -0.3712 -0.4682  0.7108
  309MOL0     C40717   8.991   0.413   6.583  0.1021 -0.1739  0.0212
  309MOL0     C40718   9.148   0.428   6.573 -0.1300 -0.4313  0.0361
  309MOL0     C40719   9.184   0.515   6.457 -0.4755 -0.2380  0.4744
  309MOL0     C40720   9.233   0.580   6.364 -1.2019  0.5921 -0.4928
  309MOL0     C40721   8.754   0.407   6.980  0.2822  0.8289 -0.3956
  309MOL0     C40722   8.659   0.416   7.080  0.3723  0.4429 -0.3298
  309MOL0     H40723   8.260   0.589   7.338 -0.6023  0.4320 -0.3632
  309MOL0     H40724   8.083   0.521   7.487 -1.7829 -2.4634 -1.1044
  309MOL0     H40725   8.215   0.471   7.823  1.1789 -1.1038  0.9174
  309MOL0     H40726   8.093   0.374   7.902  1.3601  1.3695  0.7534
  309MOL0     H40727   8.052   0.597   7.705  0.2449 -0.8191 -0.4425
  309MOL0     H40728   8.015   0.590   7.884 -5.5087  1.6990 -0.6018
  309MOL0     H40729   7.864   0.489   7.643 -0.2606 -1.2669 -0.2200
  309MOL0     H40730   7.802   0.577   7.776  1.5295  2.0923  0.7361
  309MOL0     H40731   7.849   0.285   7.760 -0.8648  0.8545 -0.3947
  309MOL0     H40732   7.863   0.354   7.922 -1.1213 -1.5083 -0.4069
  309MOL0     H40733   7.636   0.454   7.901  0.2339 -1.0834  0.8868
  309MOL0     H40734   7.674   0.277   7.908 -2.1783  0.1722  0.1474
  309MOL0     H40735   7.658   0.293   7.649 -0.7799 -0.5771 -1.2318
  309MOL0     H40736   7.599   0.452   7.668 -0.5292 -0.7247 -0.6435
  309MOL0     H40737   7.410   0.317   7.613 -1.3969 -2.0394  1.1260
  309MOL0     H40738   7.455   0.202   7.743 -1.0178 -1.3040 -3.0591
  309MOL0     H40739   7.366   0.484   7.812 -1.6989 -0.1603  0.0665
  309MOL0     H40740   7.388   0.349   7.922  3.5745  0.3054 -0.1530
  309MOL0     H40741   7.215   0.137   7.868 -0.7441  0.0007  1.7331
  309MOL0     H40742   6.981   0.010   7.765  0.5026  0.7753  1.2349
  309MOL0     H40743   6.975   0.035   7.591  0.2470  0.8771 -0.3903
  309MOL0     H40744   6.807   0.217   7.624 -3.3706  0.9710  0.4040
  309MOL0     H40745   6.787   0.175   7.802 -0.4312  0.2001 -0.4252
  309MOL0     H40746   6.741  -0.007   7.568  1.5224 -1.4774  0.6281
  309MOL0     H40747   6.707  -0.043   7.731 -0.9689  2.6518  2.8227
  309MOL0     H40748   6.502   0.017   7.614 -0.4134 -0.3806  1.5530
  309MOL0     H40749   6.565   0.175   7.577 -0.5315  1.3936  1.3218
  309MOL0     H40750   6.404   0.206   7.993 -0.3538  1.9887 -0.6202
  309MOL0     H40751   6.172   0.142   8.066  0.8363 -4.3782  1.2012
  309MOL0     H40752   5.822  -0.104   8.032  3.0427  1.6145  0.3135
  309MOL0     H40753   5.615  -0.158   8.122 -0.5881  0.1509 -1.4349
  309MOL0     H40754   5.314   0.148   8.258 -0.1671 -2.5929 -1.6511
  309MOL0     H40755   5.428   0.132   8.410  0.5324  0.1237 -0.1954
  309MOL0     H40756   5.188   0.079   8.465  1.2322  1.1356 -0.8572
  309MOL0     H40757   5.292  -0.049   8.500 -0.5440  0.5822  0.2321
  309MOL0     H40758   5.244  -0.181   8.314 -1.1543 -0.0813 -5.5808
  309MOL0     H40759   5.147  -0.050   8.236  1.1384  1.7331  1.5378
  309MOL0     H40760   5.083  -0.192   8.491 -2.4655 -0.7812  0.1458
  309MOL0     H40761   4.987  -0.069   8.426 -1.0737 -0.5032 -1.4632
  309MOL0     H40762   4.935  -0.320   8.384 -0.0287 -3.4921 -3.0564
  309MOL0     H40763   5.038  -0.301   8.236  0.7086  0.1405 -0.3512
  309MOL0     H40764   4.912  -0.129   8.147 -1.3416  1.2878  0.0332
  309MOL0     H40765   4.817  -0.102   8.289  0.7788 -0.2203  1.3529
  309MOL0     H40766   4.802  -0.314   8.081 -1.5870 -2.4916  1.0920
  309MOL0     H40767   4.744  -0.360   8.236 -3.8276 -1.3058 -2.3187
  309MOL0     H40768   4.633  -0.142   8.050 -1.9391 -1.0410 -0.8779
  309MOL0     H40769   4.628  -0.122   8.229  2.6873 -0.9571  0.7851
  309MOL0     H40770   5.551   0.248   8.231 -1.9810 -1.7433  0.1706
  309MOL0     H40771   5.754   0.308   8.133 -3.3082  1.7415  1.9603
  309MOL0     H40772   6.086   0.000   7.679  0.2652 -0.6454 -0.0812
  309MOL0     H40773   6.306   0.063   7.603 -1.4739  1.7393 -0.9093
  309MOL0     H40774   8.345   0.235   7.671  2.5817  1.1804  1.4074
  309MOL0     H40775   8.535   0.322   7.542 -0.0236 -1.1471  1.1714
  309MOL0     H40776   8.637   0.750   7.112  0.4335 -0.6119  0.1182
  309MOL0     H40777   8.829   0.737   6.947  0.5558 -0.4115 -0.8631
  309MOL0     H40778   9.054   0.630   6.754  0.3017 -2.1823  1.8821
  309MOL0     H40779   8.877   0.675   6.763  0.6792  1.3714  1.3868
  309MOL0     H40780   8.814   0.521   6.598 -0.2369 -1.2463  0.7926
  309MOL0     H40781   8.952   0.624   6.545  3.8246 -0.8872  1.9029
  309MOL0     H40782   8.948   0.378   6.489 -0.0095 -0.8681  0.3221
  309MOL0     H40783   8.973   0.340   6.662 -1.3050  0.7003  0.5558
  309MOL0     H40784   9.195   0.473   6.662 -0.3740  3.2080 -1.4944
  309MOL0     H40785   9.190   0.330   6.550 -1.4895 -0.9442 -0.3429
  309MOL0     H40786   9.274   0.637   6.282 -0.0722  1.5402  0.6913
  309MOL0     H40787   8.769   0.306   6.942  0.2550  1.1663 -1.3145
  309MOL0     H40788   8.608   0.330   7.123  1.8641  0.6815  2.1077
  310MOL0     O40789   1.033   0.282   7.866 -0.4992  0.7351 -0.4505
  310MOL0     C40790   1.060   0.292   7.980  0.4117  0.2744 -1.3066
  310MOL0     O40791   0.984   0.241   8.087  0.0591  0.0522  0.1118
  310MOL0     C40792   0.866   0.166   8.079  0.4589  0.6645  0.1063
  310MOL0     C40793   0.831   0.113   8.197  0.5440  0.5740  0.4586
  310MOL0     C40794   0.710   0.049   8.214  0.5029 -1.0414  0.4047
  310MOL0     C40795   0.622   0.025   8.112  0.0863 -0.9485  0.0518
  310MOL0     O40796   0.522  -0.063   8.133 -0.2954  0.4415  0.0708
  310MOL0     C40797   0.413  -0.083   8.040  0.4751 -0.6904  0.8274
  310MOL0     C40798   0.349  -0.223   8.078  0.0539 -0.3595  0.1901
  310MOL0     C40799   0.444  -0.342   8.064 -0.6451  0.3574  0.1730
  310MOL0     C40800   0.367  -0.473   8.088 -0.9026 -0.0342  0.1195
  310MOL0     C40801   0.455  -0.590   8.057 -0.2182 -0.6674  0.9344
  310MOL0     C40802   0.396  -0.721   8.109 -0.5179 -0.3797  0.7372
  310MOL0     C40803   0.492  -0.838   8.108  0.7556  0.5110  0.1156
  310MOL0     C40804   0.538  -0.885   7.964  0.5246 -0.5998  0.1096
  310MOL0     N40805   0.562  -1.025   7.968  0.4187 -0.9511 -0.0254
  310MOL0     C40806   0.486  -1.123   7.910 -0.3218  1.4069  1.0951
  310MOL0     C40807   0.535  -1.234   7.962 -0.7000  0.1420  1.0393
  310MOL0     C40808   0.483  -1.372   7.951  0.3696  0.1099  0.2642
  310MOL0     C40809   0.334  -1.375   7.992 -0.0562  0.8551 -0.4644
  310MOL0     C40810   0.297  -1.523   8.035 -0.1020 -0.4992  0.3938
  310MOL0     C40811   0.279  -1.616   7.921  0.9895  0.1093  0.6755
  310MOL0     O40812   0.163  -1.579   7.843  0.1852  0.2324 -0.6987
  310MOL0     C40813   0.039  -1.626   7.884  0.1359 -0.1543  0.1974
  310MOL0     C40814   0.001  -1.706   7.989  1.0646 -0.9403 -0.0899
  310MOL0     C40815  -0.133  -1.742   7.997 -0.0644  0.9571 -0.0115
  310MOL0     C40816  -0.235  -1.700   7.903 -0.6715 -0.4914  0.3801
  310MOL0     C40817  -0.367  -1.756   7.914  0.1490 -0.0536  0.4368
  310MOL0     O40818  -0.457  -1.711   7.831  0.9893  0.3906 -0.1089
  310MOL0     C40819  -0.577  -1.773   7.827  0.0952  0.7085  0.0249
  310MOL0     C40820  -0.594  -1.905   7.811 -0.4936  0.1476 -0.0004
  310MOL0     C40821  -0.718  -1.958   7.768 -0.5198 -0.6132  0.2622
  310MOL0     C40822  -0.832  -1.881   7.778 -0.4864 -0.1806  0.5333
  310MOL0     O40823  -0.960  -1.925   7.748  0.2295 -0.0479  0.2021
  310MOL0     C40824  -1.074  -1.840   7.785 -0.3458  0.6868 -0.2236
  310MOL0     C40825  -1.210  -1.907   7.797  0.6721  0.5759  0.2206
  310MOL0     C40826  -1.216  -1.997   7.928 -0.4089 -0.0886 -0.0988
  310MOL0     C40827  -1.341  -2.083   7.950  0.8406  0.6925  0.3089
  310MOL0     C40828  -1.356  -2.152   8.088 -1.0695 -0.0283  0.3840
  310MOL0     C40829  -1.251  -2.260   8.121  0.5438 -0.3122 -0.9816
  310MOL0     C40830  -1.259  -2.293   8.274  0.7299  0.6501 -0.5629
  310MOL0     C40831  -1.182  -2.425   8.300 -0.0424 -0.2139 -0.3555
  310MOL0    Cl40832  -1.196  -2.460   8.475  0.1582  0.3074  0.1590
  310MOL0     C40833  -0.817  -1.736   7.801 -0.3846  1.0067 -0.1386
  310MOL0     C40834  -0.689  -1.689   7.809  0.3288 -0.1031 -0.2051
  310MOL0     O40835  -0.382  -1.841   7.993 -0.3743 -0.2740  0.0826
  310MOL0     C40836  -0.197  -1.608   7.816 -0.3636  0.0571  0.3627
  310MOL0     C40837  -0.060  -1.581   7.793  0.6105  0.7720 -0.3228
  310MOL0     N40838   0.654  -1.198   8.034  0.0959 -0.1684  0.7907
  310MOL0     N40839   0.668  -1.080   8.025 -0.2855 -0.7300 -0.6699
  310MOL0     C40840   0.657   0.081   7.989 -0.5887  0.0106 -0.5801
  310MOL0     C40841   0.778   0.152   7.969 -0.2540  0.3302  0.3056
  310MOL0     C40842   1.194   0.355   8.005  0.0653 -0.3415  0.4532
  310MOL0     C40843   1.247   0.354   8.138  0.7553  0.7260 -0.0597
  310MOL0     C40844   1.384   0.386   8.156 -0.3859 -0.2060 -0.1797
  310MOL0     C40845   1.465   0.440   8.046 -1.0681  0.3356 -0.8933
  310MOL0     O40846   1.592   0.494   8.067  0.5967 -0.6901 -0.0743
  310MOL0     C40847   1.595   0.574   8.189 -0.2317 -0.7471  0.8362
  310MOL0     C40848   1.730   0.644   8.189 -0.6877 -0.8432  0.9636
  310MOL0     C40849   1.746   0.719   8.055 -0.6159 -0.8325  0.1498
  310MOL0     C40850   1.847   0.828   8.063 -0.3078  0.8262 -0.6609
  310MOL0     C40851   1.978   0.771   8.083 -0.7709 -0.4582  0.1282
  310MOL0     C40852   2.093   0.720   8.095 -1.3552  0.3644 -0.5717
  310MOL0     C40853   1.411   0.442   7.921  0.4602  0.3437  0.0306
  310MOL0     C40854   1.274   0.409   7.895  0.6794 -0.0948 -0.0914
  310MOL0     H40855   0.896   0.123   8.283  0.9500 -3.4478  0.8199
  310MOL0     H40856   0.684   0.005   8.310 -0.7754  1.2643  1.1766
  310MOL0     H40857   0.436  -0.072   7.933 -0.8016  0.6586  0.6571
  310MOL0     H40858   0.348  -0.001   8.072  0.8048 -0.3274  0.5681
  310MOL0     H40859   0.263  -0.231   8.011  0.4485  0.4032 -0.4230
  310MOL0     H40860   0.298  -0.213   8.174 -0.5238 -2.3089  0.1146
  310MOL0     H40861   0.519  -0.341   8.144 -1.6950 -1.7240  1.2452
  310MOL0     H40862   0.497  -0.336   7.968 -1.7901  3.8235 -0.4176
  310MOL0     H40863   0.339  -0.464   8.193  1.4337  1.1970  0.7060
  310MOL0     H40864   0.285  -0.479   8.015  0.2307  1.1806 -1.3125
  310MOL0     H40865   0.548  -0.573   8.113 -0.0218  2.5218 -0.1696
  310MOL0     H40866   0.477  -0.592   7.950 -1.0707  0.0327  0.7374
  310MOL0     H40867   0.305  -0.742   8.052 -0.2556 -0.3867  0.3145
  310MOL0     H40868   0.372  -0.706   8.215 -1.2801  3.7279  0.1264
  310MOL0     H40869   0.578  -0.815   8.171  0.3981 -0.9107  1.1548
  310MOL0     H40870   0.437  -0.915   8.161  1.0027 -0.5546 -1.1232
  310MOL0     H40871   0.626  -0.823   7.945  0.4575 -0.5516 -0.0501
  310MOL0     H40872   0.458  -0.857   7.894 -0.2598 -3.0404 -0.0487
  310MOL0     H40873   0.388  -1.120   7.861 -0.0555 -2.3399  0.0454
  310MOL0     H40874   0.543  -1.434   8.018 -1.1906  0.7704  2.4093
  310MOL0     H40875   0.486  -1.399   7.845 -3.7468  0.2272 -0.0554
  310MOL0     H40876   0.266  -1.356   7.909 -0.1999 -1.5187 -0.9554
  310MOL0     H40877   0.309  -1.315   8.080 -2.3550 -1.2409  0.4500
  310MOL0     H40878   0.383  -1.552   8.097 -0.3552 -2.1686  0.0245
  310MOL0     H40879   0.203  -1.523   8.090 -1.5378  0.3082 -1.9569
  310MOL0     H40880   0.260  -1.720   7.950  0.1556  0.0096 -0.1816
  310MOL0     H40881   0.375  -1.628   7.870  0.8507 -2.0412  0.8103
  310MOL0     H40882   0.068  -1.745   8.065  1.2808  1.1429  0.8338
  310MOL0     H40883  -0.164  -1.802   8.082 -1.0168 -2.6514 -2.6748
  310MOL0     H40884  -0.514  -1.974   7.835 -1.0921 -0.9886 -1.1270
  310MOL0     H40885  -0.723  -2.065   7.753 -2.8301 -0.3506 -1.4486
  310MOL0     H40886  -1.093  -1.758   7.716 -3.5886 -1.8792 -2.7503
  310MOL0     H40887  -1.055  -1.796   7.883  2.7085 -3.7206  1.4934
  310MOL0     H40888  -1.233  -1.965   7.707  1.3580 -1.1607  1.1112
  310MOL0     H40889  -1.277  -1.822   7.810 -0.8602 -0.3583 -1.1737
  310MOL0     H40890  -1.201  -1.924   8.008 -0.3762 -0.5856  0.3576
  310MOL0     H40891  -1.133  -2.067   7.940 -0.0838  0.4622  1.0338
  310MOL0     H40892  -1.432  -2.024   7.942  0.9126  0.6348 -1.1526
  310MOL0     H40893  -1.345  -2.156   7.869 -2.0992 -1.3778  2.0993
  310MOL0     H40894  -1.460  -2.185   8.105 -1.0042 -0.2337  0.3926
  310MOL0     H40895  -1.340  -2.081   8.170 -1.0200 -0.5710  0.8568
  310MOL0     H40896  -1.151  -2.227   8.091  1.1309  0.3314  1.4461
  310MOL0     H40897  -1.273  -2.353   8.068  1.5861 -0.3577 -1.3637
  310MOL0     H40898  -1.216  -2.206   8.323  0.6095  0.2029  0.3423
  310MOL0     H40899  -1.363  -2.312   8.300  1.7724 -1.0701  2.8656
  310MOL0     H40900  -1.075  -2.408   8.289  0.0787 -0.2668  0.6670
  310MOL0     H40901  -1.214  -2.500   8.227 -0.2666  0.7219 -1.2630
  310MOL0     H40902  -0.894  -1.659   7.805 -1.5035 -0.0823  0.1409
  310MOL0     H40903  -0.682  -1.581   7.802  0.8735 -0.2345 -2.5558
  310MOL0     H40904  -0.273  -1.570   7.749 -3.4960 -0.5953  3.3161
  310MOL0     H40905  -0.028  -1.510   7.717 -1.5706  1.3256 -0.7848
  310MOL0     H40906   0.600   0.066   7.898 -1.2936  0.3289 -0.1997
  310MOL0     H40907   0.822   0.196   7.880 -0.4636  0.0354  0.0545
  310MOL0     H40908   1.190   0.318   8.223  0.6395 -1.6110 -1.0357
  310MOL0     H40909   1.432   0.375   8.253  3.5761  0.6849 -1.8432
  310MOL0     H40910   1.599   0.524   8.286  1.8510  1.4539  1.9967
  310MOL0     H40911   1.512   0.645   8.193  0.9425  0.9256 -1.7031
  310MOL0     H40912   1.736   0.712   8.275 -3.3918 -1.6644  1.8812
  310MOL0     H40913   1.813   0.572   8.194  1.5243  1.5305  0.5591
  310MOL0     H40914   1.652   0.766   8.026 -1.1503 -2.5923 -1.1204
  310MOL0     H40915   1.786   0.657   7.974 -1.1365 -0.8899 -0.0698
  310MOL0     H40916   1.845   0.903   7.983 -0.8342  2.3316  0.7132
  310MOL0     H40917   1.835   0.892   8.150 -1.2684 -0.5400  0.2581
  310MOL0     H40918   2.188   0.670   8.097 -0.3640  2.1065 -1.5005
  310MOL0     H40919   1.482   0.489   7.854  0.6039 -2.6522 -2.0980
  310MOL0     H40920   1.250   0.407   7.789  1.0316 -0.5190 -0.1658
  311MOL0     O40921   1.476   4.123   2.142  0.4036  0.7485 -0.8045
  311MOL0     C40922   1.541   4.098   2.247 -0.0490 -1.2942  0.2230
  311MOL0     O40923   1.541   3.981   2.323  0.5546 -0.6950  0.1163
  311MOL0     C40924   1.447   3.897   2.276  0.2910 -0.6107 -0.3422
  311MOL0     C40925   1.328   3.889   2.344 -1.1194 -0.2550 -0.2034
  311MOL0     C40926   1.245   3.782   2.311  0.1696 -0.0135  0.2914
  311MOL0     C40927   1.281   3.682   2.216  0.6033  0.0065 -0.4455
  311MOL0     O40928   1.189   3.581   2.210  0.0930 -0.2826 -0.1006
  311MOL0     C40929   1.178   3.497   2.091 -1.1026  0.1912 -0.9647
  311MOL0     C40930   1.047   3.421   2.092 -0.7271  0.4949 -0.2735
  311MOL0     C40931   0.935   3.511   2.054  0.6001 -0.6584 -0.5363
  311MOL0     C40932   0.812   3.440   2.015 -0.8433 -0.1000  0.7020
  311MOL0     C40933   0.712   3.552   1.972 -0.3796 -0.9073 -0.1603
  311MOL0     C40934   0.581   3.503   1.930  0.5458  0.5830  0.4122
  311MOL0     C40935   0.588   3.402   1.814  0.2703  0.0072 -0.5062
  311MOL0     C40936   0.626   3.465   1.684 -0.1111  0.3459 -0.4796
  311MOL0     N40937   0.763   3.509   1.655  0.0528  0.3486 -0.1276
  311MOL0     C40938   0.875   3.430   1.666 -0.1269  0.6077  0.3895
  311MOL0     C40939   0.977   3.507   1.616  0.3006  0.1309 -0.1935
  311MOL0     C40940   1.119   3.466   1.613 -0.6913 -0.0786 -0.4956
  311MOL0     C40941   1.172   3.441   1.472  0.7555  0.5868 -1.0078
  311MOL0     C40942   1.199   3.573   1.396 -0.5748 -0.1473  1.1765
  311MOL0     C40943   1.346   3.610   1.413  0.0449 -1.1803 -0.3602
  311MOL0     O40944   1.419   3.539   1.317 -0.0176 -0.3359  0.2001
  311MOL0     C40945   1.549   3.559   1.297 -0.3605 -0.5564  0.3117
  311MOL0     C40946   1.626   3.654   1.370 -0.8783 -0.5414 -0.6684
  311MOL0     C40947   1.760   3.677   1.325  0.4301  0.5971 -0.8129
  311MOL0     C40948   1.812   3.611   1.213  0.0639 -0.8041  0.9781
  311MOL0     C40949   1.955   3.606   1.187 -0.2738  0.5526  0.2144
  311MOL0     O40950   2.026   3.718   1.219 -0.4075  0.4942 -0.4477
  311MOL0     C40951   2.172   3.723   1.230  0.8730 -0.6660 -0.6169
  311MOL0     C40952   2.229   3.848   1.225 -0.1440  0.1874  0.3691
  311MOL0     C40953   2.368   3.859   1.248  0.2956  0.0510 -0.5075
  311MOL0     C40954   2.445   3.751   1.288 -0.2875  0.2161  0.1576
  311MOL0     O40955   2.575   3.779   1.336 -0.0027 -0.0875 -0.1849
  311MOL0     C40956   2.667   3.678   1.298 -1.2135  0.2541 -0.0751
  311MOL0     C40957   2.807   3.711   1.334 -0.2596  0.2284  0.5489
  311MOL0     C40958   2.901   3.590   1.322  0.3962 -1.1114  0.3900
  311MOL0     C40959   3.052   3.634   1.320  0.8856  0.1492 -0.1544
  311MOL0     C40960   3.137   3.514   1.305 -1.5823 -0.4567 -1.0650
  311MOL0     C40961   3.154   3.438   1.434 -0.3376 -0.1885  0.0744
  311MOL0     C40962   3.187   3.299   1.418  0.6966  0.1771 -0.3784
  311MOL0     C40963   3.321   3.253   1.364  0.0303 -0.4212 -0.3128
  311MOL0    Cl40964   3.316   3.077   1.356 -0.0188  0.0637 -0.5276
  311MOL0     C40965   2.381   3.623   1.299 -0.5948  0.3324  0.7780
  311MOL0     C40966   2.245   3.611   1.265 -0.2129  0.2360  0.3686
  311MOL0     O40967   1.999   3.503   1.128 -0.4728  0.5682 -0.0354
  311MOL0     C40968   1.730   3.523   1.133 -0.1635 -0.2862  0.7685
  311MOL0     C40969   1.599   3.497   1.178 -0.8402  0.0080 -0.6380
  311MOL0     N40970   0.926   3.631   1.587 -0.2869 -0.3719  1.0107
  311MOL0     N40971   0.796   3.632   1.609  0.4728 -0.6793 -1.2011
  311MOL0     C40972   1.394   3.694   2.147 -0.3264 -0.4612  0.3201
  311MOL0     C40973   1.486   3.801   2.180 -0.1700  0.7712 -0.1573
  311MOL0     C40974   1.651   4.194   2.277 -0.1393  0.2712  0.2095
  311MOL0     C40975   1.749   4.171   2.377 -0.4929 -0.2581 -0.0730
  311MOL0     C40976   1.855   4.264   2.385  0.8410  0.5620 -0.1738
  311MOL0     C40977   1.881   4.366   2.297 -0.1440 -0.3348  0.0440
  311MOL0     O40978   2.004   4.438   2.319  0.7962 -0.2106  0.5169
  311MOL0     C40979   2.046   4.524   2.213 -0.4006 -0.3005 -0.2109
  311MOL0     C40980   2.103   4.438   2.093  0.7298 -0.3389 -0.1302
  311MOL0     C40981   2.177   4.539   2.001  0.8276 -0.0192  0.6919
  311MOL0     C40982   2.235   4.483   1.869  0.1371  0.0930  1.1461
  311MOL0     C40983   2.340   4.384   1.888  0.1723  0.4957 -0.9098
  311MOL0     C40984   2.435   4.301   1.902  0.0107 -0.2963 -0.2027
  311MOL0     C40985   1.782   4.386   2.203 -0.0261 -0.4945  0.3138
  311MOL0     C40986   1.663   4.306   2.200 -1.4372 -0.3881  0.4174
  311MOL0     H40987   1.305   3.963   2.420  1.2164  0.8974 -0.5352
  311MOL0     H40988   1.147   3.775   2.357 -0.2565 -2.6859 -0.8649
  311MOL0     H40989   1.260   3.426   2.099 -1.9361 -0.9415 -2.1291
  311MOL0     H40990   1.183   3.562   2.003  0.9019  0.3577 -0.7716
  311MOL0     H40991   1.029   3.366   2.185 -0.0594  1.7401  0.6205
  311MOL0     H40992   1.065   3.347   2.014  0.6268  0.4544  0.0636
  311MOL0     H40993   0.969   3.577   1.973 -0.5717 -1.7747 -2.0034
  311MOL0     H40994   0.924   3.578   2.140 -0.1572 -2.1762  0.5769
  311MOL0     H40995   0.837   3.385   1.924  0.4901  2.8266 -0.8747
  311MOL0     H40996   0.782   3.368   2.091 -0.7038 -1.5248 -0.5399
  311MOL0     H40997   0.748   3.624   1.897 -1.8120 -0.5540 -0.5439
  311MOL0     H40998   0.702   3.605   2.067  3.5746 -2.1872  1.1719
  311MOL0     H40999   0.514   3.586   1.907 -0.8258 -1.0172 -1.7506
  311MOL0     H41000   0.536   3.448   2.013 -0.7798  1.9485  0.6508
  311MOL0     H41001   0.658   3.320   1.829  1.8183  0.8911 -2.4529
  311MOL0     H41002   0.488   3.361   1.799  0.2358 -1.3067  2.5790
  311MOL0     H41003   0.562   3.551   1.663  0.4834  0.2954 -2.6861
  311MOL0     H41004   0.622   3.387   1.608  5.5158 -0.7589 -0.0710
  311MOL0     H41005   0.887   3.328   1.702  0.9093 -0.7101 -3.2800
  311MOL0     H41006   1.117   3.370   1.665  1.0707  1.0992  1.9683
  311MOL0     H41007   1.187   3.528   1.673 -0.9559 -1.9380  1.8995
  311MOL0     H41008   1.099   3.387   1.412  0.6646  0.4761 -0.7980
  311MOL0     H41009   1.263   3.382   1.468  0.7420  0.4651  0.1600
  311MOL0     H41010   1.196   3.561   1.287  1.4939  0.5216  1.0022
  311MOL0     H41011   1.127   3.650   1.426 -0.0037  0.1180  1.9047
  311MOL0     H41012   1.385   3.583   1.511 -0.2211 -2.1211 -0.5000
  311MOL0     H41013   1.352   3.719   1.402 -0.1608 -1.0493  0.7188
  311MOL0     H41014   1.597   3.723   1.448  1.3059  1.6918 -1.7077
  311MOL0     H41015   1.814   3.751   1.383  0.4560  1.6005 -2.0546
  311MOL0     H41016   2.178   3.939   1.194  0.8470  0.5018 -0.4009
  311MOL0     H41017   2.414   3.957   1.262 -0.1839 -0.1689  4.8018
  311MOL0     H41018   2.659   3.650   1.192  1.7236  1.3976 -0.6951
  311MOL0     H41019   2.645   3.591   1.361 -1.2010  1.7859  2.1308
  311MOL0     H41020   2.822   3.754   1.434 -1.1536  3.0694 -0.4491
  311MOL0     H41021   2.838   3.791   1.267  4.0823 -0.7580  1.0668
  311MOL0     H41022   2.874   3.533   1.232 -1.4313 -0.8277  0.7252
  311MOL0     H41023   2.884   3.535   1.414 -0.3904  3.0889  3.0265
  311MOL0     H41024   3.059   3.701   1.234 -1.5512 -0.2478 -0.7364
  311MOL0     H41025   3.066   3.676   1.420 -1.6576  0.3938  0.1681
  311MOL0     H41026   3.231   3.554   1.265 -2.4056  2.1724 -0.5347
  311MOL0     H41027   3.094   3.453   1.225 -0.2615 -2.3256 -0.4180
  311MOL0     H41028   3.062   3.441   1.492 -1.9520 -0.3166 -2.3346
  311MOL0     H41029   3.236   3.487   1.487 -0.7256  1.3812 -0.7047
  311MOL0     H41030   3.170   3.255   1.516 -0.0037  0.6623 -0.2732
  311MOL0     H41031   3.121   3.243   1.351 -2.2876  2.1303  0.7290
  311MOL0     H41032   3.407   3.284   1.424  0.4959 -3.6115  0.8762
  311MOL0     H41033   3.321   3.291   1.261 -0.8181 -2.2474 -1.0220
  311MOL0     H41034   2.437   3.543   1.347 -1.7533  0.0076  1.6439
  311MOL0     H41035   2.196   3.515   1.283 -3.1231  1.8654  1.9036
  311MOL0     H41036   1.767   3.475   1.043  3.1172  0.3960  1.5904
  311MOL0     H41037   1.526   3.437   1.125  0.4500 -1.8739 -0.3501
  311MOL0     H41038   1.422   3.626   2.068 -2.3284  0.5691 -1.3524
  311MOL0     H41039   1.586   3.806   2.138  0.3977 -2.3062  0.5713
  311MOL0     H41040   1.731   4.086   2.441 -2.4449 -0.2775 -0.5974
  311MOL0     H41041   1.925   4.254   2.468  1.5553 -0.9526 -0.9120
  311MOL0     H41042   2.125   4.593   2.241  1.3548 -1.1444 -2.7150
  311MOL0     H41043   1.962   4.588   2.185  0.8165  0.1805 -3.1896
  311MOL0     H41044   2.170   4.360   2.131 -3.2662 -3.7028  0.7489
  311MOL0     H41045   2.015   4.392   2.047  0.2821  0.6581 -0.3023
  311MOL0     H41046   2.247   4.608   2.049 -0.1185  0.9868  0.6684
  311MOL0     H41047   2.098   4.607   1.968 -0.2013 -2.0788 -1.3709
  311MOL0     H41048   2.152   4.443   1.810  2.5645 -0.5626 -2.0632
  311MOL0     H41049   2.279   4.568   1.815  1.6111  0.1400  2.3582
  311MOL0     H41050   2.518   4.234   1.913  1.7548  1.7446 -0.3545
  311MOL0     H41051   1.779   4.472   2.137  0.8842  0.5155  1.5467
  311MOL0     H41052   1.584   4.326   2.128  0.6257  0.1579 -1.8315
  312MOL0     O41053   5.087   1.132   0.845  0.1822  0.1478 -0.0460
  312MOL0     C41054   5.055   1.220   0.763 -0.2060  0.5877 -0.4740
  312MOL0     O41055   5.137   1.286   0.675  0.0319 -0.0257 -0.2862
  312MOL0     C41056   5.276   1.281   0.658  0.7566 -0.1511 -0.0900
  312MOL0     C41057   5.364   1.201   0.733  1.6402 -0.4770  0.1701
  312MOL0     C41058   5.499   1.216   0.710 -0.0225  0.3745 -0.0681
  312MOL0     C41059   5.549   1.298   0.606 -1.0812  0.2963 -0.8736
  312MOL0     O41060   5.683   1.300   0.587 -0.6224  0.7707  0.3645
  312MOL0     C41061   5.751   1.421   0.577  0.4108  0.4772  0.7377
  312MOL0     C41062   5.729   1.509   0.700 -0.2333  0.4010  0.1702
  312MOL0     C41063   5.760   1.441   0.839  0.7429  0.0799  0.8824
  312MOL0     C41064   5.908   1.417   0.851 -0.2737 -0.4164  0.0884
  312MOL0     C41065   5.972   1.463   0.983  0.0416  0.2257 -0.1547
  312MOL0     C41066   6.108   1.410   1.022 -0.4757 -0.7689  0.0570
  312MOL0     C41067   6.159   1.467   1.154 -0.4109  0.5371 -0.0909
  312MOL0     C41068   6.302   1.416   1.182  0.2413  1.1333 -0.8720
  312MOL0     N41069   6.302   1.272   1.204  0.1900 -0.4223  0.3592
  312MOL0     C41070   6.263   1.208   1.313 -1.1613 -0.4919 -0.4353
  312MOL0     C41071   6.301   1.080   1.295 -0.3745 -0.1545  0.0720
  312MOL0     C41072   6.278   0.989   1.413  0.6345  0.0003 -0.8514
  312MOL0     C41073   6.145   0.910   1.394 -0.3251  0.3440  0.2287
  312MOL0     C41074   6.115   0.838   1.523 -0.3582  1.5741  0.6464
  312MOL0     C41075   5.966   0.801   1.527  0.5329 -0.1649 -0.2945
  312MOL0     O41076   5.907   0.918   1.564 -0.4967 -1.0401 -0.3439
  312MOL0     C41077   5.776   0.917   1.614  0.0665 -0.2518  1.3526
  312MOL0     C41078   5.712   1.036   1.625 -0.3355  0.0210 -0.6896
  312MOL0     C41079   5.582   1.035   1.675 -0.8591  0.1931  0.6951
  312MOL0     C41080   5.502   0.919   1.711 -1.1558  0.2125  0.2939
  312MOL0     C41081   5.372   0.915   1.779  0.2162  0.3340 -0.2334
  312MOL0     O41082   5.315   0.789   1.791 -0.3763 -0.2997  0.4058
  312MOL0     C41083   5.200   0.764   1.876  0.0070  0.1636  0.3818
  312MOL0     C41084   5.114   0.662   1.840  0.1956 -1.1300 -0.7165
  312MOL0     C41085   4.993   0.640   1.917  0.2462 -0.3314 -0.0288
  312MOL0     C41086   4.965   0.709   2.036  0.0730 -0.7066  0.1888
  312MOL0     O41087   4.845   0.711   2.099  0.3770  0.4293  0.8821
  312MOL0     C41088   4.736   0.653   2.025  0.0518 -0.2481  0.9383
  312MOL0     C41089   4.610   0.662   2.101  0.4748 -0.3207 -0.6029
  312MOL0     C41090   4.603   0.556   2.210 -0.8805  0.3055 -0.5728
  312MOL0     C41091   4.475   0.574   2.287  0.5405 -0.7274  0.0607
  312MOL0     C41092   4.458   0.479   2.410  0.6913 -0.2513  0.0418
  312MOL0     C41093   4.303   0.484   2.454 -0.2306 -0.6021 -0.6208
  312MOL0     C41094   4.274   0.378   2.557 -0.1563 -0.2201 -0.3644
  312MOL0     C41095   4.131   0.362   2.609 -0.0590  0.2746  0.3707
  312MOL0    Cl41096   4.135   0.222   2.717  0.0673  0.5626 -0.4942
  312MOL0     C41097   5.061   0.805   2.077  0.9143 -0.3913  0.3806
  312MOL0     C41098   5.172   0.831   1.991  0.7127  0.9829 -0.4895
  312MOL0     O41099   5.317   1.017   1.819  0.5400  0.8948 -0.3001
  312MOL0     C41100   5.571   0.796   1.689 -0.1105  0.0372  0.7665
  312MOL0     C41101   5.704   0.795   1.643  0.3695  0.0551 -0.1601
  312MOL0     N41102   6.362   1.067   1.174 -0.2791  0.4295 -0.3268
  312MOL0     N41103   6.350   1.185   1.119 -0.6005 -0.5633  0.1488
  312MOL0     C41104   5.462   1.380   0.534 -0.3207  0.4136 -0.5996
  312MOL0     C41105   5.326   1.366   0.562  0.7222 -0.1967 -0.1186
  312MOL0     C41106   4.921   1.279   0.762 -0.5157 -0.1276  0.1301
  312MOL0     C41107   4.828   1.243   0.864  0.1888  0.1985  0.5347
  312MOL0     C41108   4.700   1.293   0.876 -0.1951 -0.3577 -0.4768
  312MOL0     C41109   4.652   1.388   0.789 -0.4190 -0.2322  0.3159
  312MOL0     O41110   4.524   1.443   0.793 -0.4214  0.0574 -0.0804
  312MOL0     C41111   4.466   1.486   0.925 -0.1491 -0.2539 -0.4931
  312MOL0     C41112   4.467   1.640   0.927  0.4202  0.0301 -0.3745
  312MOL0     C41113   4.346   1.694   0.839 -0.5697 -0.6235  0.6540
  312MOL0     C41114   4.211   1.673   0.915 -0.4997  0.2900 -0.2023
  312MOL0     C41115   4.112   1.771   0.888  0.2426 -0.8069 -0.4916
  312MOL0     C41116   4.038   1.843   0.826 -0.0734 -0.2009 -1.1760
  312MOL0     C41117   4.740   1.422   0.682 -1.2950  0.2224  0.2214
  312MOL0     C41118   4.871   1.371   0.666 -0.2756 -0.8251 -0.5522
  312MOL0     H41119   5.329   1.131   0.808 -0.6924  0.2942 -0.0902
  312MOL0     H41120   5.561   1.164   0.781 -2.1244  2.2695  3.4115
  312MOL0     H41121   5.706   1.472   0.492 -0.3384  0.2867  1.0117
  312MOL0     H41122   5.857   1.395   0.571 -0.1901 -1.7320 -1.8802
  312MOL0     H41123   5.623   1.536   0.715  0.3664  2.5724  0.9307
  312MOL0     H41124   5.786   1.601   0.685 -1.0092  1.1853  1.7191
  312MOL0     H41125   5.719   1.340   0.845  0.4400  0.2492  1.7845
  312MOL0     H41126   5.716   1.496   0.923  0.9297 -2.5895  2.8826
  312MOL0     H41127   5.925   1.309   0.844 -0.2359 -0.3372 -1.2524
  312MOL0     H41128   5.965   1.453   0.765 -0.4187 -0.9875 -0.2517
  312MOL0     H41129   5.904   1.419   1.057  0.8822  1.3666  1.3449
  312MOL0     H41130   5.973   1.572   0.973  0.2565  0.1334 -1.2433
  312MOL0     H41131   6.184   1.444   0.952 -0.5475  1.2836  0.9184
  312MOL0     H41132   6.115   1.301   1.014  0.6879 -0.6041 -2.0160
  312MOL0     H41133   6.159   1.576   1.139 -1.6977  0.4784 -0.6788
  312MOL0     H41134   6.099   1.439   1.241  0.2312  0.3029  0.2742
  312MOL0     H41135   6.334   1.469   1.272 -1.2559 -1.6459  1.4875
  312MOL0     H41136   6.362   1.440   1.094  1.7865 -0.5363 -0.3230
  312MOL0     H41137   6.211   1.254   1.396 -0.4643  1.5129 -1.0494
  312MOL0     H41138   6.279   1.035   1.512  1.9351  1.0915 -1.3429
  312MOL0     H41139   6.354   0.912   1.402  3.3897  2.2400  0.9527
  312MOL0     H41140   6.157   0.852   1.302  0.9958 -0.8886  1.1341
  312MOL0     H41141   6.068   0.985   1.373 -1.2047 -0.2074  1.3986
  312MOL0     H41142   6.170   0.744   1.509 -1.3707  1.2987 -2.1215
  312MOL0     H41143   6.163   0.897   1.601  2.0592  0.5524  0.0394
  312MOL0     H41144   5.938   0.725   1.601 -0.1652  0.2508 -0.1268
  312MOL0     H41145   5.939   0.761   1.429 -3.8848 -0.2620  0.7518
  312MOL0     H41146   5.765   1.127   1.600 -0.7102  0.2180 -0.7691
  312MOL0     H41147   5.522   1.125   1.687 -0.9682 -0.0475  2.1208
  312MOL0     H41148   5.142   0.609   1.749  0.6732  1.7173 -2.3308
  312MOL0     H41149   4.916   0.570   1.885  0.1118  0.5844 -1.8628
  312MOL0     H41150   4.744   0.547   1.999 -0.0138 -0.4987  1.9124
  312MOL0     H41151   4.725   0.714   1.935  0.5784  1.8776  2.2637
  312MOL0     H41152   4.526   0.646   2.034  0.5087 -0.5910 -0.5837
  312MOL0     H41153   4.591   0.753   2.160  0.6275 -1.4950  1.3539
  312MOL0     H41154   4.691   0.559   2.275 -1.0838  0.2733 -0.2940
  312MOL0     H41155   4.614   0.454   2.172  0.7534  0.4236 -0.4589
  312MOL0     H41156   4.464   0.681   2.309 -0.7617 -1.2375  2.1623
  312MOL0     H41157   4.394   0.552   2.216  0.4073 -0.1632  0.0334
  312MOL0     H41158   4.523   0.513   2.491  0.1664 -1.6912  1.1099
  312MOL0     H41159   4.482   0.376   2.380 -5.4170 -2.0787  0.1124
  312MOL0     H41160   4.231   0.469   2.372 -0.2864 -0.0579 -0.6769
  312MOL0     H41161   4.286   0.585   2.493  1.3983 -0.9814  1.2030
  312MOL0     H41162   4.322   0.287   2.520  0.7372  0.1805 -0.1895
  312MOL0     H41163   4.334   0.406   2.643 -0.2227 -0.6584 -0.1719
  312MOL0     H41164   4.060   0.329   2.533 -2.9414  2.8140  1.7480
  312MOL0     H41165   4.093   0.446   2.668  0.2175 -0.7591  2.1172
  312MOL0     H41166   5.038   0.867   2.163 -1.0892  0.7364 -0.8945
  312MOL0     H41167   5.247   0.899   2.030  0.5680  0.5907  0.4953
  312MOL0     H41168   5.528   0.700   1.714 -0.2840  0.5977  2.8538
  312MOL0     H41169   5.751   0.700   1.619  1.5877  0.2762  1.1947
  312MOL0     H41170   5.517   1.434   0.457  1.3867  3.1230  2.2699
  312MOL0     H41171   5.264   1.429   0.500  1.4494  0.3229 -0.3244
  312MOL0     H41172   4.858   1.168   0.936  2.3678  1.1793  0.7261
  312MOL0     H41173   4.635   1.256   0.956 -0.4448  1.6623  0.3096
  312MOL0     H41174   4.528   1.456   1.010  0.7365 -0.1765 -1.0954
  312MOL0     H41175   4.368   1.439   0.934  0.2132 -1.6501 -2.9140
  312MOL0     H41176   4.450   1.673   1.029  1.1894 -0.8783  0.0640
  312MOL0     H41177   4.565   1.676   0.892  0.6647  2.7884  2.6920
  312MOL0     H41178   4.350   1.650   0.739 -2.6085  0.3815  0.0877
  312MOL0     H41179   4.360   1.802   0.834  2.1015 -0.9238  0.2668
  312MOL0     H41180   4.172   1.575   0.886 -2.3778  0.9888 -0.2032
  312MOL0     H41181   4.239   1.676   1.021 -0.2868 -0.1477 -0.2459
  312MOL0     H41182   3.951   1.892   0.787  0.3388  0.1639 -1.6439
  312MOL0     H41183   4.709   1.490   0.604 -1.2830  0.9359  0.8291
  312MOL0     H41184   4.936   1.399   0.584  0.5498 -1.9970 -0.3238
  313MOL0     O41185   4.890   7.280   8.335 -0.0657  0.6258  0.4935
  313MOL0     C41186   4.952   7.174   8.322  0.7276  0.0862  0.2410
  313MOL0     O41187   4.894   7.051   8.332 -0.5452 -1.2501 -0.8917
  313MOL0     C41188   4.772   7.048   8.374  0.3479  0.7101 -0.2509
  313MOL0     C41189   4.726   6.982   8.496  1.0221  1.1866  0.4006
  313MOL0     C41190   4.591   6.971   8.530  0.4072 -0.1699 -0.3929
  313MOL0     C41191   4.485   7.023   8.451  0.4690 -0.3231 -0.3365
  313MOL0     O41192   4.357   6.988   8.493 -0.2667 -0.9079 -0.1265
  313MOL0     C41193   4.254   6.987   8.394  0.8265  0.2880  0.0550
  313MOL0     C41194   4.196   7.131   8.352  0.4444  0.2016 -0.9356
  313MOL0     C41195   4.042   7.139   8.346 -0.3927  1.4911  1.1720
  313MOL0     C41196   3.983   7.060   8.230  0.3517  0.4231  0.7863
  313MOL0     C41197   3.841   7.036   8.258  0.0186 -1.0208  0.6013
  313MOL0     C41198   3.764   7.009   8.124  0.1456 -0.3455  0.9422
  313MOL0     C41199   3.636   6.929   8.157 -0.1354 -0.0831  0.4892
  313MOL0     C41200   3.542   6.930   8.038  0.0273  0.4629  0.6542
  313MOL0     N41201   3.448   6.814   8.037  1.7083 -0.8390 -0.2188
  313MOL0     C41202   3.378   6.766   8.147  0.1478 -0.1494  0.3393
  313MOL0     C41203   3.293   6.671   8.096  0.2251  0.1689 -0.2810
  313MOL0     C41204   3.195   6.608   8.184 -0.6143 -0.4502  0.1283
  313MOL0     C41205   3.255   6.536   8.309  1.1087 -0.7776  0.0706
  313MOL0     C41206   3.307   6.401   8.288  0.1691  0.5205 -0.7921
  313MOL0     C41207   3.354   6.345   8.420 -0.5099 -0.1120 -0.6645
  313MOL0     O41208   3.433   6.223   8.400  0.4686 -0.0756  0.6407
  313MOL0     C41209   3.569   6.228   8.375  0.1448 -0.3156 -0.5957
  313MOL0     C41210   3.639   6.107   8.380  0.5166 -0.2711 -0.6544
  313MOL0     C41211   3.779   6.105   8.366  0.7722  0.5573  0.2158
  313MOL0     C41212   3.848   6.221   8.342  0.0748 -0.6421 -0.1978
  313MOL0     C41213   3.994   6.221   8.333 -0.2714  0.5681 -0.1286
  313MOL0     O41214   4.052   6.321   8.266  0.3036 -1.0222  0.5370
  313MOL0     C41215   4.181   6.325   8.218 -0.7843 -0.3648  0.5261
  313MOL0     C41216   4.273   6.222   8.227 -1.0883 -0.0094 -0.0784
  313MOL0     C41217   4.400   6.232   8.162 -0.6495  1.3275  0.1187
  313MOL0     C41218   4.420   6.326   8.067 -0.4572 -0.2085 -0.6768
  313MOL0     O41219   4.521   6.316   7.983  1.2814  0.0411 -0.3449
  313MOL0     C41220   4.633   6.410   8.013  0.2543  0.1063 -0.1169
  313MOL0     C41221   4.766   6.389   7.927  0.8276  0.4421  0.0485
  313MOL0     C41222   4.747   6.425   7.779  0.5522 -0.1278 -0.4432
  313MOL0     C41223   4.712   6.578   7.765  0.2534  0.8011  0.3909
  313MOL0     C41224   4.701   6.630   7.621 -0.4343  0.3327 -0.4576
  313MOL0     C41225   4.816   6.591   7.535  0.2765  0.7691 -0.0851
  313MOL0     C41226   4.958   6.639   7.583 -0.1085  0.3123 -0.3636
  313MOL0     C41227   5.058   6.546   7.517 -0.0560 -0.7214  0.0528
  313MOL0    Cl41228   5.220   6.607   7.561  0.8554  0.0974  0.4340
  313MOL0     C41229   4.322   6.430   8.052  0.3684  0.0343  0.2981
  313MOL0     C41230   4.217   6.440   8.135 -0.1395  0.4495 -0.3656
  313MOL0     O41231   4.055   6.133   8.394  0.3972 -0.0316  0.1047
  313MOL0     C41232   3.772   6.345   8.311 -0.2701  0.3788  0.5693
  313MOL0     C41233   3.636   6.349   8.340  0.3843  0.0823  0.1309
  313MOL0     N41234   3.315   6.663   7.964  0.7938  0.7053  1.1710
  313MOL0     N41235   3.407   6.744   7.938  0.5327  0.1755 -0.0248
  313MOL0     C41236   4.522   7.100   8.339  0.4906 -0.1225 -0.5275
  313MOL0     C41237   4.665   7.113   8.306  0.0385  0.0762  0.0803
  313MOL0     C41238   5.093   7.172   8.278  0.4378  0.0816  0.2209
  313MOL0     C41239   5.176   7.291   8.270  0.5828  0.2423 -0.1571
  313MOL0     C41240   5.307   7.272   8.229  0.1389 -0.3970  0.0774
  313MOL0     C41241   5.364   7.150   8.214 -0.0221 -0.1344  0.3048
  313MOL0     O41242   5.500   7.148   8.183  0.2671 -0.0274 -0.6906
  313MOL0     C41243   5.580   7.032   8.214 -0.5125  0.6287 -0.1866
  313MOL0     C41244   5.725   7.054   8.168 -1.3123 -0.8519 -0.4909
  313MOL0     C41245   5.731   7.080   8.019  0.3691 -0.7968 -0.3531
  313MOL0     C41246   5.860   7.156   7.996  0.1526  0.0958 -0.0398
  313MOL0     C41247   5.874   7.147   7.847 -0.5999  0.3327 -0.5272
  313MOL0     C41248   5.877   7.133   7.728 -0.0458 -0.1751 -0.3533
  313MOL0     C41249   5.283   7.035   8.229 -0.1200  0.0314  0.3697
  313MOL0     C41250   5.159   7.044   8.271 -0.2387 -0.3058  0.2047
  313MOL0     H41251   4.803   6.923   8.546  1.4612  1.6130  0.2432
  313MOL0     H41252   4.573   6.907   8.615 -1.3559 -1.0085 -1.3640
  313MOL0     H41253   4.170   6.931   8.436  2.0319 -2.6820 -1.2124
  313MOL0     H41254   4.275   6.927   8.305  0.0226  4.1032 -3.0006
  313MOL0     H41255   4.244   7.165   8.259  1.0949  2.2630  0.0903
  313MOL0     H41256   4.236   7.199   8.428  2.7340  0.0100 -1.9035
  313MOL0     H41257   4.015   7.245   8.333 -2.6655  0.9027  0.5992
  313MOL0     H41258   4.011   7.100   8.443 -2.2860 -2.3827 -0.7791
  313MOL0     H41259   3.996   7.123   8.141 -1.3512  2.0342  1.6054
  313MOL0     H41260   4.033   6.965   8.212 -0.6460  0.1927 -1.0475
  313MOL0     H41261   3.796   7.123   8.307  0.4394 -0.8668  0.7131
  313MOL0     H41262   3.833   6.953   8.328  0.3354 -0.5633  1.1857
  313MOL0     H41263   3.823   6.960   8.047 -0.0468  0.6161  0.1642
  313MOL0     H41264   3.750   7.109   8.083  3.4414 -0.0665  0.2306
  313MOL0     H41265   3.667   6.824   8.165  3.0669  0.8746  2.8003
  313MOL0     H41266   3.581   6.964   8.245 -0.2724  1.7273 -0.2855
  313MOL0     H41267   3.602   6.922   7.947 -1.4101  0.8629 -0.3558
  313MOL0     H41268   3.497   7.030   8.035 -1.1694 -0.0336  1.4564
  313MOL0     H41269   3.369   6.804   8.249 -0.6726 -1.7777  0.9163
  313MOL0     H41270   3.131   6.541   8.126  2.6390 -0.6771 -3.6466
  313MOL0     H41271   3.130   6.689   8.219  2.3764  2.2680 -0.1442
  313MOL0     H41272   3.179   6.537   8.387  1.3557 -2.3625  0.3614
  313MOL0     H41273   3.334   6.605   8.341  2.1617  0.9623 -5.2571
  313MOL0     H41274   3.227   6.330   8.265 -1.0977  1.7326 -0.2393
  313MOL0     H41275   3.379   6.402   8.206  1.0292 -0.7410 -0.0862
  313MOL0     H41276   3.268   6.316   8.481 -0.2294  1.5709  0.5851
  313MOL0     H41277   3.406   6.415   8.486 -0.0360  0.7521 -1.9124
  313MOL0     H41278   3.582   6.022   8.416 -1.7733  1.7244  0.7180
  313MOL0     H41279   3.823   6.007   8.376  1.3835  0.8965  1.0838
  313MOL0     H41280   4.255   6.135   8.290 -1.4503  1.9624  2.7369
  313MOL0     H41281   4.477   6.160   8.189 -0.1487  2.6635  2.4969
  313MOL0     H41282   4.660   6.403   8.119  1.1081  3.4381  0.0139
  313MOL0     H41283   4.603   6.515   7.999  2.5988  0.6719 -1.4475
  313MOL0     H41284   4.772   6.280   7.936 -4.1250 -0.1497 -0.7732
  313MOL0     H41285   4.860   6.430   7.964 -0.1638  1.4905  1.5675
  313MOL0     H41286   4.663   6.365   7.743  0.3600 -0.0580 -0.1119
  313MOL0     H41287   4.837   6.399   7.723  2.2375  1.1936  1.4917
  313MOL0     H41288   4.623   6.613   7.817 -0.3637  0.8295 -0.6537
  313MOL0     H41289   4.805   6.627   7.793  0.7281  0.8644 -1.1805
  313MOL0     H41290   4.697   6.739   7.615 -4.8870  0.6331  2.6762
  313MOL0     H41291   4.603   6.595   7.586 -3.4721  4.6493  2.7272
  313MOL0     H41292   4.790   6.632   7.437 -3.3792 -1.3331 -0.1934
  313MOL0     H41293   4.815   6.482   7.532 -0.2736  0.7677 -0.0920
  313MOL0     H41294   4.972   6.745   7.557 -2.4832  0.7767  0.0127
  313MOL0     H41295   4.967   6.631   7.691 -1.9909 -0.9927 -0.2487
  313MOL0     H41296   5.058   6.541   7.408  0.0424  2.7823 -0.2176
  313MOL0     H41297   5.036   6.448   7.562 -0.4510  0.2060  2.0158
  313MOL0     H41298   4.338   6.512   7.982 -1.6398  1.6358  1.5810
  313MOL0     H41299   4.144   6.520   8.133 -1.8916 -0.9969  1.4127
  313MOL0     H41300   3.824   6.428   8.265 -1.7519  0.0954 -1.8167
  313MOL0     H41301   3.586   6.446   8.347 -0.8846 -0.4452 -1.1243
  313MOL0     H41302   4.454   7.153   8.273  1.4275 -0.0552 -1.4506
  313MOL0     H41303   4.687   7.167   8.214  1.1239  0.6098  0.6390
  313MOL0     H41304   5.152   7.395   8.289  0.0347 -0.1269  1.3095
  313MOL0     H41305   5.361   7.362   8.203  0.3181 -1.2388 -2.7445
  313MOL0     H41306   5.532   6.954   8.154 -3.9870  2.5500 -0.1493
  313MOL0     H41307   5.569   7.012   8.321  2.3013  0.3855  0.1127
  313MOL0     H41308   5.761   7.145   8.217 -1.7549 -0.4393 -0.9176
  313MOL0     H41309   5.778   6.962   8.197 -0.6891  0.3818  2.7545
  313MOL0     H41310   5.647   7.143   7.988  0.2561 -0.8995 -0.2559
  313MOL0     H41311   5.733   6.982   7.972 -2.2974 -1.8447  1.4479
  313MOL0     H41312   5.844   7.260   8.026 -1.5156 -0.5716  1.6076
  313MOL0     H41313   5.944   7.109   8.049  0.9336 -0.5587 -1.7611
  313MOL0     H41314   5.875   7.111   7.623 -2.4924  1.9135 -0.8564
  313MOL0     H41315   5.320   6.937   8.200 -1.9881 -1.4192  2.4716
  313MOL0     H41316   5.117   6.945   8.287  2.1244 -1.4450 -0.2094
  314MOL0     O41317  10.994   2.008   6.590  0.3900  0.2864  1.1204
  314MOL0     C41318  11.033   2.072   6.680 -0.6135 -1.0878 -1.0432
  314MOL0     O41319  10.959   2.097   6.794 -0.2305  0.1926 -0.1301
  314MOL0     C41320  10.828   2.066   6.800 -0.5944 -0.4755  0.3849
  314MOL0     C41321  10.771   2.008   6.913  0.1350  0.1423 -0.4236
  314MOL0     C41322  10.642   1.962   6.919  0.4287 -0.5770 -0.1162
  314MOL0     C41323  10.562   1.979   6.806  0.1953  0.4040  0.3623
  314MOL0     O41324  10.432   1.932   6.801 -0.1355  0.0586  0.3719
  314MOL0     C41325  10.381   1.879   6.678 -0.6093 -0.1190 -0.2788
  314MOL0     C41326  10.276   1.778   6.706 -0.1388  0.3204  0.5412
  314MOL0     C41327  10.157   1.815   6.797  0.0551 -0.2597 -0.2209
  314MOL0     C41328  10.056   1.698   6.825  0.6435 -0.5291  0.0099
  314MOL0     C41329   9.936   1.745   6.909  0.6115 -0.1997  0.1120
  314MOL0     C41330   9.833   1.634   6.942  0.0861 -0.7148  0.5037
  314MOL0     C41331   9.894   1.512   7.023 -0.2104  0.0448  0.4205
  314MOL0     C41332   9.952   1.576   7.150  0.4201  0.9856 -0.0222
  314MOL0     N41333  10.009   1.468   7.231 -0.3968 -0.7555 -0.4040
  314MOL0     C41334  10.122   1.412   7.202 -0.2382  0.3300  0.7501
  314MOL0     C41335  10.136   1.308   7.288  0.5423  0.7250  0.8848
  314MOL0     C41336  10.237   1.194   7.267  0.0906 -0.8589  0.5205
  314MOL0     C41337  10.362   1.230   7.190  0.3958 -0.4642 -0.3847
  314MOL0     C41338  10.449   1.337   7.248 -0.1246 -0.1859 -0.6963
  314MOL0     C41339  10.583   1.335   7.184  0.4071  0.3757  0.0407
  314MOL0     O41340  10.659   1.423   7.269 -0.0438 -1.3979  0.3735
  314MOL0     C41341  10.800   1.423   7.271  0.2002  0.4831 -0.1334
  314MOL0     C41342  10.854   1.509   7.373 -0.7092  0.4681  0.6680
  314MOL0     C41343  10.991   1.501   7.398 -0.3490  0.9839 -0.1401
  314MOL0     C41344  11.080   1.408   7.339  0.6035 -0.4709 -0.1077
  314MOL0     C41345  11.226   1.421   7.361 -0.5219 -0.1945 -0.0481
  314MOL0     O41346  11.268   1.519   7.450 -0.2659 -0.3104  0.1492
  314MOL0     C41347  11.403   1.556   7.456  0.4029  0.4835  0.6752
  314MOL0     C41348  11.500   1.465   7.495  0.4858 -0.6718  0.5445
  314MOL0     C41349  11.633   1.510   7.512 -1.0363 -0.1256 -0.0604
  314MOL0     C41350  11.675   1.644   7.496 -0.6403  0.0972  0.4271
  314MOL0     O41351  11.810   1.685   7.502 -0.1170 -0.0821 -1.0793
  314MOL0     C41352  11.849   1.759   7.386 -0.8110 -0.1127 -0.2398
  314MOL0     C41353  11.968   1.843   7.431  0.3890  0.1658  0.6362
  314MOL0     C41354  12.087   1.760   7.484 -0.4798 -0.5541  0.1467
  314MOL0     C41355  12.210   1.826   7.410 -0.3374  0.6250  0.4115
  314MOL0     C41356  12.348   1.800   7.470 -0.5136  0.2210 -0.4846
  314MOL0     C41357  12.386   1.649   7.455  0.8488 -1.4798 -0.7422
  314MOL0     C41358  12.499   1.643   7.566  0.2334 -1.2393  0.1161
  314MOL0     C41359  12.554   1.501   7.565 -0.3466 -0.0594 -0.6506
  314MOL0    Cl41360  12.659   1.461   7.425  0.1269  0.1091  0.0083
  314MOL0     C41361  11.566   1.734   7.470 -0.1920 -0.5247 -0.1620
  314MOL0     C41362  11.434   1.694   7.446  0.0909 -0.1955 -0.1581
  314MOL0     O41363  11.305   1.351   7.295 -0.1316  0.2856 -0.0501
  314MOL0     C41364  11.015   1.317   7.253  0.3217  0.1282  0.5402
  314MOL0     C41365  10.882   1.321   7.210  0.6230  0.1258 -0.4568
  314MOL0     N41366  10.025   1.299   7.368  0.4330 -0.1402  0.5356
  314MOL0     N41367   9.948   1.394   7.327  0.2327 -0.5777 -0.7099
  314MOL0     C41368  10.616   2.040   6.695  0.0031  1.2817 -0.0083
  314MOL0     C41369  10.744   2.083   6.687  0.3246  0.2409 -0.5782
  314MOL0     C41370  11.177   2.137   6.676  0.7137  0.7888  0.0324
  314MOL0     C41371  11.266   2.105   6.566 -0.1847  0.8079 -0.2308
  314MOL0     C41372  11.384   2.174   6.555  0.0833  0.2029 -0.9004
  314MOL0     C41373  11.432   2.269   6.646  0.3364  0.3367  0.0910
  314MOL0     O41374  11.542   2.347   6.643 -0.4136  0.6084 -0.6288
  314MOL0     C41375  11.597   2.370   6.514 -0.4309  0.1941 -0.1016
  314MOL0     C41376  11.717   2.460   6.518 -1.0079 -0.4468 -0.1151
  314MOL0     C41377  11.836   2.407   6.592 -0.1890  0.4194  0.1845
  314MOL0     C41378  11.933   2.533   6.611  0.6883 -0.7785 -1.1377
  314MOL0     C41379  12.035   2.487   6.707 -0.3424 -0.2773  0.0394
  314MOL0     C41380  12.127   2.453   6.786 -0.3855 -0.0258 -0.6312
  314MOL0     C41381  11.342   2.297   6.756 -0.4029  0.4097  1.6555
  314MOL0     C41382  11.222   2.226   6.769  0.1953 -0.2351 -0.1207
  314MOL0     H41383  10.845   2.005   6.992  3.0100  4.8539 -2.4986
  314MOL0     H41384  10.607   1.913   7.010  3.7375 -0.6344  1.2588
  314MOL0     H41385  10.453   1.830   6.612 -0.8301 -2.6267  1.2127
  314MOL0     H41386  10.337   1.965   6.625 -1.9167 -1.7917 -2.0543
  314MOL0     H41387  10.319   1.684   6.741 -0.7775 -0.8448 -1.6195
  314MOL0     H41388  10.239   1.754   6.605  3.2128 -0.0265 -0.7295
  314MOL0     H41389  10.129   1.913   6.756  1.4388 -0.5385 -1.9495
  314MOL0     H41390  10.206   1.835   6.893 -0.2887 -0.9754  0.1067
  314MOL0     H41391  10.021   1.659   6.728  1.7150  4.5274 -2.7930
  314MOL0     H41392  10.117   1.624   6.876  1.1916 -0.2328 -0.2113
  314MOL0     H41393   9.875   1.811   6.847  0.6404  1.1443  1.4658
  314MOL0     H41394   9.968   1.811   6.991 -1.0777  0.3911  0.3246
  314MOL0     H41395   9.794   1.591   6.849  0.9889 -0.0254 -0.2154
  314MOL0     H41396   9.749   1.672   7.001  0.2660 -1.7671  1.4567
  314MOL0     H41397   9.829   1.426   7.043  1.1642 -0.4285  3.4342
  314MOL0     H41398   9.970   1.466   6.959  0.4901  1.5748  0.1213
  314MOL0     H41399   9.874   1.622   7.211 -0.5577 -0.9429  0.2674
  314MOL0     H41400  10.025   1.654   7.126  0.4202  0.8165 -0.5648
  314MOL0     H41401  10.175   1.446   7.114  0.1782 -2.3982 -0.1487
  314MOL0     H41402  10.181   1.109   7.228  0.4746 -2.2293  2.7558
  314MOL0     H41403  10.291   1.154   7.353  0.9061 -0.2288  0.3216
  314MOL0     H41404  10.327   1.260   7.091  2.7017  2.1550 -0.5018
  314MOL0     H41405  10.426   1.143   7.177  1.0989 -0.3826  2.0456
  314MOL0     H41406  10.401   1.434   7.230  1.4654  1.2040  1.7853
  314MOL0     H41407  10.459   1.332   7.357 -1.5544  0.6362 -0.5054
  314MOL0     H41408  10.576   1.379   7.084  0.8780 -0.3627 -0.3215
  314MOL0     H41409  10.622   1.233   7.174 -1.0613 -0.1990 -0.1326
  314MOL0     H41410  10.814   1.573   7.451  1.9024 -0.0071  2.5326
  314MOL0     H41411  11.045   1.549   7.479  0.4159 -4.9890  3.4921
  314MOL0     H41412  11.483   1.360   7.521 -0.5248 -1.1371 -1.7944
  314MOL0     H41413  11.706   1.435   7.540  0.7971  1.5377 -0.1857
  314MOL0     H41414  11.770   1.819   7.339  0.9832  1.1268 -1.8047
  314MOL0     H41415  11.888   1.686   7.314  1.9373 -0.1999  1.2279
  314MOL0     H41416  11.925   1.901   7.514  0.8695  2.3937 -0.6067
  314MOL0     H41417  11.993   1.911   7.350 -1.0595  1.3881  1.1646
  314MOL0     H41418  12.077   1.651   7.475  1.8477 -1.2915  4.1467
  314MOL0     H41419  12.086   1.774   7.592 -2.9779  0.9105  0.0005
  314MOL0     H41420  12.211   1.794   7.306  2.5621 -0.4676  0.6822
  314MOL0     H41421  12.192   1.933   7.402  0.1209  0.5612 -2.3086
  314MOL0     H41422  12.352   1.837   7.573 -0.7623  2.3830 -1.1888
  314MOL0     H41423  12.432   1.858   7.430  0.6430 -0.7906  0.4065
  314MOL0     H41424  12.428   1.627   7.356  0.7571 -0.9513 -0.9044
  314MOL0     H41425  12.311   1.575   7.482 -0.3600 -0.9719 -2.5201
  314MOL0     H41426  12.571   1.724   7.548  1.6438 -1.9406  2.1893
  314MOL0     H41427  12.457   1.669   7.663 -0.8709  4.5740 -1.5763
  314MOL0     H41428  12.468   1.434   7.571 -0.0525 -0.3230  0.9205
  314MOL0     H41429  12.618   1.495   7.654 -0.0095 -1.4104 -0.9554
  314MOL0     H41430  11.583   1.841   7.480 -0.9640 -0.2751 -1.3378
  314MOL0     H41431  11.356   1.766   7.425  1.0118  1.2523  1.1118
  314MOL0     H41432  11.078   1.232   7.227  1.0453  0.6657  0.4917
  314MOL0     H41433  10.834   1.249   7.145  2.2456  0.5481 -2.2108
  314MOL0     H41434  10.547   2.053   6.612 -0.6637 -0.6915  0.1769
  314MOL0     H41435  10.777   2.120   6.590  1.9052  1.6579  0.4387
  314MOL0     H41436  11.230   2.031   6.494 -0.8078  2.5418 -1.7888
  314MOL0     H41437  11.449   2.165   6.468  0.4134  3.1252 -1.0500
  314MOL0     H41438  11.528   2.401   6.436  0.0383 -2.0869 -1.5408
  314MOL0     H41439  11.628   2.267   6.490  0.0771  0.2349  0.3635
  314MOL0     H41440  11.751   2.474   6.415 -2.3058  1.0218 -0.3891
  314MOL0     H41441  11.681   2.554   6.561 -1.9688 -1.4291  1.3312
  314MOL0     H41442  11.892   2.334   6.533 -1.1938  1.3136 -1.9939
  314MOL0     H41443  11.806   2.358   6.685  1.3625  0.6964  0.8687
  314MOL0     H41444  11.970   2.572   6.516 -1.0993  1.4342 -0.9951
  314MOL0     H41445  11.878   2.614   6.661 -0.0331 -0.4291 -2.4658
  314MOL0     H41446  12.204   2.429   6.857  0.3699  0.9543 -1.0851
  314MOL0     H41447  11.377   2.373   6.826  2.5022 -0.7325  1.5921
  314MOL0     H41448  11.154   2.268   6.843 -0.8737 -0.2052 -1.0986
  315MOL0     O41449   0.028   0.820   2.679  0.3216  0.1722  0.2039
  315MOL0     C41450   0.026   0.944   2.667 -0.6199 -0.0195 -0.6224
  315MOL0     O41451  -0.078   1.031   2.701 -0.6220  0.6457  0.1486
  315MOL0     C41452  -0.192   0.965   2.743 -0.8852  0.1385 -0.2325
  315MOL0     C41453  -0.193   0.906   2.870 -0.1472 -0.4088 -1.2909
  315MOL0     C41454  -0.313   0.859   2.917  0.3056 -0.2634  0.2893
  315MOL0     C41455  -0.427   0.841   2.833 -0.1218  0.5698  0.5401
  315MOL0     O41456  -0.535   0.769   2.872 -0.0811 -0.3978  0.3841
  315MOL0     C41457  -0.584   0.800   3.000 -0.0927  0.0720  0.2789
  315MOL0     C41458  -0.632   0.940   3.031  0.1908 -0.1726 -0.6746
  315MOL0     C41459  -0.720   1.018   2.924 -0.2308  0.1992 -0.0348
  315MOL0     C41460  -0.722   1.175   2.961 -0.3351  0.2028  0.3296
  315MOL0     C41461  -0.668   1.253   2.834  0.6106 -0.6644 -0.5735
  315MOL0     C41462  -0.521   1.239   2.809  0.0349  0.0186  1.3055
  315MOL0     C41463  -0.488   1.312   2.671 -0.1491 -0.2096 -0.0590
  315MOL0     C41464  -0.349   1.325   2.629 -0.0300 -0.0988 -0.2969
  315MOL0     N41465  -0.248   1.371   2.729 -0.2801 -0.4241 -0.3385
  315MOL0     C41466  -0.203   1.292   2.837  0.5022 -0.7323  0.2138
  315MOL0     C41467  -0.109   1.363   2.899  0.3765  0.0374  0.4216
  315MOL0     C41468  -0.024   1.319   3.015 -0.9805 -0.0080 -0.2459
  315MOL0     C41469   0.115   1.282   2.960  0.3747 -0.3814  0.1646
  315MOL0     C41470   0.194   1.198   3.056 -0.8671  0.3233  0.1497
  315MOL0     C41471   0.320   1.144   2.989 -0.2152  0.5335  0.6015
  315MOL0     O41472   0.426   1.245   2.972 -0.1881  0.4194 -1.4467
  315MOL0     C41473   0.527   1.193   2.899  0.2087  0.7090  0.2686
  315MOL0     C41474   0.608   1.293   2.850 -0.8172 -1.1630  0.2361
  315MOL0     C41475   0.715   1.268   2.769  0.8800 -0.4347 -0.1375
  315MOL0     C41476   0.754   1.134   2.748  0.8149 -0.2237  1.0165
  315MOL0     C41477   0.892   1.101   2.689  0.6679 -0.0651  0.2884
  315MOL0     O41478   0.942   1.211   2.620 -0.4528 -0.7894 -1.8730
  315MOL0     C41479   1.066   1.200   2.559  0.7092  0.1076  0.1961
  315MOL0     C41480   1.176   1.117   2.603 -0.6320  0.3306 -0.0557
  315MOL0     C41481   1.304   1.116   2.541  0.1023  0.0189 -0.2223
  315MOL0     C41482   1.326   1.196   2.429 -0.0233 -0.3371 -0.4316
  315MOL0     O41483   1.449   1.200   2.368  1.5055 -0.0622  0.2621
  315MOL0     C41484   1.474   1.279   2.251  0.1430  0.3220  0.4477
  315MOL0     C41485   1.625   1.271   2.232  0.0871 -0.0302  0.3549
  315MOL0     C41486   1.697   1.361   2.339 -0.6112  0.9551 -0.4528
  315MOL0     C41487   1.848   1.358   2.348 -0.4078  0.0652 -0.0622
  315MOL0     C41488   1.899   1.224   2.419  0.5880 -0.4813  0.7908
  315MOL0     C41489   2.034   1.247   2.490 -0.2950 -0.2806  0.5889
  315MOL0     C41490   2.152   1.205   2.403 -0.5392 -0.0105 -0.0057
  315MOL0     C41491   2.289   1.236   2.467 -0.1052 -0.0952  0.4277
  315MOL0    Cl41492   2.338   1.395   2.389 -0.1449 -0.1598  0.2570
  315MOL0     C41493   1.224   1.285   2.389  0.3023  0.1901 -0.2654
  315MOL0     C41494   1.098   1.285   2.445 -1.2488  0.1381  0.0575
  315MOL0     O41495   0.939   0.987   2.687  0.0576 -0.0714 -0.5556
  315MOL0     C41496   0.674   1.029   2.794  0.1018 -1.0078 -0.0397
  315MOL0     C41497   0.556   1.061   2.865  0.1769 -0.1877 -0.1962
  315MOL0     N41498  -0.092   1.484   2.837  0.6276 -0.2201  0.1658
  315MOL0     N41499  -0.174   1.480   2.728  0.1008 -0.6359 -0.0398
  315MOL0     C41500  -0.421   0.887   2.702  0.1036  0.2948  0.2599
  315MOL0     C41501  -0.303   0.953   2.652  0.4736 -0.3727 -0.8654
  315MOL0     C41502   0.141   1.004   2.612  1.0035 -0.1642  0.4867
  315MOL0     C41503   0.157   1.144   2.603 -0.2999  1.2112  0.9029
  315MOL0     C41504   0.289   1.195   2.567 -0.3249  0.4585  0.7795
  315MOL0     C41505   0.399   1.109   2.536 -0.0927  0.2680 -1.0143
  315MOL0     O41506   0.522   1.170   2.506  0.0622 -0.1089 -0.3639
  315MOL0     C41507   0.614   1.085   2.436 -0.3911  1.2839  0.3708
  315MOL0     C41508   0.712   1.168   2.347 -0.4927  1.0125  0.1753
  315MOL0     C41509   0.833   1.096   2.277 -0.5385 -0.2169 -0.8033
  315MOL0     C41510   0.887   1.186   2.169  0.1619  0.1479 -0.4434
  315MOL0     C41511   1.004   1.122   2.103 -0.1164 -0.1237  0.0989
  315MOL0     C41512   1.095   1.075   2.036  0.4283 -0.3756 -0.2095
  315MOL0     C41513   0.377   0.971   2.544 -0.0289  0.2409  0.3036
  315MOL0     C41514   0.251   0.916   2.575 -0.2580  1.1358 -0.2651
  315MOL0     H41515  -0.105   0.900   2.934 -1.1030 -2.2179 -0.0788
  315MOL0     H41516  -0.320   0.829   3.021  1.0397 -1.0477  0.1326
  315MOL0     H41517  -0.524   0.757   3.081  1.2817 -0.6127 -1.0510
  315MOL0     H41518  -0.676   0.742   3.001 -0.3750  0.5339  0.9645
  315MOL0     H41519  -0.544   1.004   3.039 -2.8217  4.7861 -2.6613
  315MOL0     H41520  -0.693   0.946   3.122 -0.1894  0.8638 -0.9873
  315MOL0     H41521  -0.823   0.981   2.922  0.9756 -3.5232 -0.4944
  315MOL0     H41522  -0.681   0.988   2.826 -1.9473 -0.6205 -0.5010
  315MOL0     H41523  -0.830   1.188   2.970 -0.0677  2.3229  1.2040
  315MOL0     H41524  -0.678   1.194   3.059 -0.4730 -1.2923  0.7089
  315MOL0     H41525  -0.687   1.355   2.868 -0.1221 -1.5122  1.8045
  315MOL0     H41526  -0.725   1.228   2.744  0.8482  0.2635 -0.9917
  315MOL0     H41527  -0.488   1.136   2.793 -2.3603 -0.2795 -3.3990
  315MOL0     H41528  -0.458   1.289   2.883  0.6347  1.1187  0.0949
  315MOL0     H41529  -0.537   1.261   2.587  1.3735 -1.5599 -0.1654
  315MOL0     H41530  -0.531   1.412   2.662  1.0621  0.1693 -2.4877
  315MOL0     H41531  -0.335   1.382   2.537  2.2507 -2.2001 -1.3708
  315MOL0     H41532  -0.320   1.226   2.593 -0.0182  0.4777 -1.9355
  315MOL0     H41533  -0.249   1.201   2.874  1.3285 -0.3604  2.2673
  315MOL0     H41534  -0.080   1.239   3.064 -1.9236  0.2851 -0.8171
  315MOL0     H41535  -0.006   1.399   3.088 -2.8809 -1.9746  2.5584
  315MOL0     H41536   0.165   1.376   2.934 -0.6014  0.5367  1.5117
  315MOL0     H41537   0.106   1.232   2.863  2.3564 -0.4723 -0.0167
  315MOL0     H41538   0.220   1.260   3.143 -0.8469 -1.6622  1.6480
  315MOL0     H41539   0.147   1.102   3.078 -1.5012 -0.1197 -2.7902
  315MOL0     H41540   0.290   1.097   2.895  0.2699  2.9613 -0.8671
  315MOL0     H41541   0.358   1.069   3.059 -0.2647 -0.9360 -0.8867
  315MOL0     H41542   0.576   1.397   2.858  1.8535  0.1025 -3.0322
  315MOL0     H41543   0.767   1.356   2.734  1.7930 -1.1971 -0.7444
  315MOL0     H41544   1.167   1.055   2.691  0.3954 -0.4778 -0.5089
  315MOL0     H41545   1.384   1.055   2.582 -0.6529  0.0484  1.3422
  315MOL0     H41546   1.427   1.378   2.253 -2.9337 -1.0042 -0.9463
  315MOL0     H41547   1.422   1.229   2.169  1.6608 -2.4616  1.0843
  315MOL0     H41548   1.652   1.312   2.134 -3.6459  0.3757 -0.6839
  315MOL0     H41549   1.662   1.169   2.239  3.0920  0.9986  0.6525
  315MOL0     H41550   1.652   1.333   2.435  1.9329  2.6256  1.3514
  315MOL0     H41551   1.664   1.463   2.318 -1.6197  0.7654  0.1173
  315MOL0     H41552   1.886   1.365   2.245  0.6996 -2.4092  0.1285
  315MOL0     H41553   1.890   1.451   2.387 -0.1291  0.8419 -2.0585
  315MOL0     H41554   1.918   1.148   2.343  3.7114 -1.9405  2.7824
  315MOL0     H41555   1.835   1.177   2.494 -1.2210 -0.2931 -0.5893
  315MOL0     H41556   2.040   1.194   2.585  1.5679  2.8464  2.3802
  315MOL0     H41557   2.048   1.354   2.510  1.3653  0.0697 -1.9897
  315MOL0     H41558   2.141   1.097   2.386 -1.3015  0.1212 -0.3787
  315MOL0     H41559   2.150   1.251   2.304  2.3603 -1.3926 -0.8067
  315MOL0     H41560   2.361   1.158   2.441  0.3683  0.3945  0.2585
  315MOL0     H41561   2.285   1.240   2.576  0.2777  0.9263  0.4101
  315MOL0     H41562   1.230   1.343   2.297  0.8289 -0.3545 -0.5849
  315MOL0     H41563   1.034   1.357   2.395 -1.4941 -0.8620 -1.1141
  315MOL0     H41564   0.687   0.925   2.765  1.2378 -0.8031 -0.3267
  315MOL0     H41565   0.495   0.980   2.903  0.9016 -1.0501 -0.8419
  315MOL0     H41566  -0.500   0.873   2.628  1.1127  2.1304 -1.2684
  315MOL0     H41567  -0.308   0.994   2.552 -1.4189  0.7250 -0.3714
  315MOL0     H41568   0.077   1.207   2.642 -0.6104  0.6193  1.2332
  315MOL0     H41569   0.322   1.298   2.571  2.3673 -0.3227  1.0311
  315MOL0     H41570   0.561   1.009   2.378  1.9059 -0.9443  0.9937
  315MOL0     H41571   0.675   1.022   2.502 -1.8254  1.1195  1.5886
  315MOL0     H41572   0.648   1.217   2.273 -0.4389  1.5365  0.4720
  315MOL0     H41573   0.754   1.243   2.415 -0.4841 -0.4384  1.8508
  315MOL0     H41574   0.808   1.003   2.224 -3.0558 -0.9477  1.4669
  315MOL0     H41575   0.904   1.077   2.357 -0.1585  1.6207 -0.6654
  315MOL0     H41576   0.810   1.208   2.094 -0.3107 -1.0888 -0.3560
  315MOL0     H41577   0.917   1.279   2.217 -0.0377  0.1031 -0.2272
  315MOL0     H41578   1.168   1.020   1.980 -0.9265 -1.4731 -0.9615
  315MOL0     H41579   0.439   0.890   2.508 -1.4229 -0.5046 -0.5040
  315MOL0     H41580   0.246   0.809   2.564 -0.7909  1.0509  0.6694
  316MOL0     O41581   9.849   1.798   1.628 -1.0865 -0.2431 -0.2031
  316MOL0     C41582   9.939   1.810   1.713  0.0499  0.2139  0.1246
  316MOL0     O41583   9.912   1.814   1.838  1.0742 -0.3752 -0.0569
  316MOL0     C41584   9.794   1.764   1.887 -0.0552  0.0129  0.4405
  316MOL0     C41585   9.764   1.621   1.887 -0.8241 -0.5304 -0.5573
  316MOL0     C41586   9.639   1.590   1.943 -0.7991  0.6192  0.3156
  316MOL0     C41587   9.556   1.683   2.015  0.8081 -0.0458 -0.0339
  316MOL0     O41588   9.446   1.628   2.079 -0.0528 -0.2845 -0.7986
  316MOL0     C41589   9.366   1.711   2.168 -0.0265 -0.7082 -0.2482
  316MOL0     C41590   9.248   1.651   2.238 -0.3375  0.5606 -0.0833
  316MOL0     C41591   9.130   1.757   2.262  1.1972  0.4993  0.4143
  316MOL0     C41592   9.124   1.798   2.405  0.4342  0.3943  0.3190
  316MOL0     C41593   9.244   1.878   2.458  0.3266 -0.3854 -0.5214
  316MOL0     C41594   9.213   1.931   2.599  0.0739  0.4160  0.3764
  316MOL0     C41595   9.125   2.047   2.617  0.1941 -0.1771  0.0582
  316MOL0     C41596   9.184   2.167   2.548 -0.1591 -0.3125  0.8037
  316MOL0     N41597   9.245   2.261   2.643 -0.3743  0.2999  0.4364
  316MOL0     C41598   9.366   2.325   2.634  0.1985 -0.4044  0.3725
  316MOL0     C41599   9.376   2.415   2.729  0.2328 -0.1226 -0.2066
  316MOL0     C41600   9.515   2.451   2.776  1.0924  0.5061 -0.4260
  316MOL0     C41601   9.594   2.344   2.867 -0.7365 -1.0311 -0.1613
  316MOL0     C41602   9.729   2.385   2.934 -0.5409  0.3983  1.2246
  316MOL0     C41603   9.792   2.269   3.016  0.1431 -0.2133  0.4992
  316MOL0     O41604   9.898   2.323   3.099 -0.2707  0.6488  0.8405
  316MOL0     C41605   9.983   2.228   3.152  0.4698  0.9428  0.6156
  316MOL0     C41606   9.967   2.087   3.146 -0.5034  0.2605 -0.1153
  316MOL0     C41607  10.059   2.010   3.212 -1.0347 -0.4283 -0.2151
  316MOL0     C41608  10.161   2.060   3.296 -0.0217 -0.1328  1.2224
  316MOL0     C41609  10.256   1.965   3.363 -0.3788 -0.5909  0.2394
  316MOL0     O41610  10.349   2.019   3.452  0.0731 -0.2838  0.5113
  316MOL0     C41611  10.447   1.937   3.487 -1.6331  0.1935 -0.2400
  316MOL0     C41612  10.433   1.812   3.555  0.1723 -0.1942  0.5265
  316MOL0     C41613  10.541   1.722   3.582  0.8292  0.1541 -0.4093
  316MOL0     C41614  10.676   1.781   3.565  0.8826  0.8345 -0.8436
  316MOL0     O41615  10.792   1.719   3.592  0.5333  0.7391 -0.0243
  316MOL0     C41616  10.779   1.604   3.678  0.3634 -0.5555  0.4278
  316MOL0     C41617  10.905   1.553   3.745 -0.2141  0.0388 -0.2098
  316MOL0     C41618  10.900   1.401   3.751  0.9593 -0.2294  0.3360
  316MOL0     C41619  11.013   1.336   3.814  0.2888  0.8235  0.1673
  316MOL0     C41620  10.994   1.183   3.808  0.2455  0.6750 -0.0348
  316MOL0     C41621  11.116   1.113   3.863  0.1108 -0.2712 -0.5337
  316MOL0     C41622  11.086   0.969   3.895  0.5416 -0.1582 -0.6764
  316MOL0     C41623  11.211   0.898   3.943  0.0954  0.7789  0.2706
  316MOL0    Cl41624  11.254   0.936   4.112 -0.4939  0.2616  0.7795
  316MOL0     C41625  10.691   1.910   3.514 -0.3636 -0.0567 -0.9370
  316MOL0     C41626  10.588   1.978   3.457 -0.3987 -0.8640 -0.3018
  316MOL0     O41627  10.247   1.852   3.326 -0.6147  0.0681  0.2097
  316MOL0     C41628  10.173   2.197   3.307 -0.4253 -0.4925 -0.0731
  316MOL0     C41629  10.086   2.281   3.235 -0.3258  0.8543 -0.2651
  316MOL0     N41630   9.255   2.430   2.791  0.1027 -0.4305  0.3991
  316MOL0     N41631   9.182   2.342   2.742 -0.0191  0.5562 -0.5691
  316MOL0     C41632   9.597   1.822   2.023 -0.5175 -0.2136  1.1811
  316MOL0     C41633   9.715   1.858   1.960 -0.0251  0.4096 -0.2216
  316MOL0     C41634  10.074   1.817   1.676 -0.6708  0.4996 -0.0043
  316MOL0     C41635  10.170   1.833   1.778 -0.4454 -0.2555 -0.2947
  316MOL0     C41636  10.306   1.834   1.747 -0.7502 -0.6246  0.9337
  316MOL0     C41637  10.346   1.820   1.618  0.5428 -0.1197  0.5736
  316MOL0     O41638  10.482   1.808   1.591  0.2054  0.1316  0.2109
  316MOL0     C41639  10.522   1.829   1.453 -0.0692  0.1772 -0.2244
  316MOL0     C41640  10.640   1.920   1.436  0.4403  0.5820  0.2559
  316MOL0     C41641  10.747   1.883   1.531  0.1585 -0.7869  0.2474
  316MOL0     C41642  10.877   1.859   1.459  0.2595  0.0044  0.1790
  316MOL0     C41643  10.927   1.984   1.403 -0.5557  0.3855  0.1678
  316MOL0     C41644  10.977   2.072   1.338 -0.5922  1.0192 -0.1053
  316MOL0     C41645  10.243   1.791   1.520  0.4367 -0.0799  0.4824
  316MOL0     C41646  10.113   1.800   1.540  1.0179  0.2392  0.5009
  316MOL0     H41647   9.834   1.546   1.852  0.5084  0.8662 -1.0269
  316MOL0     H41648   9.612   1.485   1.952  3.3359 -0.4628  3.8467
  316MOL0     H41649   9.324   1.801   2.121 -0.3365  0.3328  1.8918
  316MOL0     H41650   9.441   1.738   2.242 -0.6574  0.5348 -0.0226
  316MOL0     H41651   9.266   1.590   2.326 -1.0021  0.6727  0.1360
  316MOL0     H41652   9.217   1.578   2.163  0.5209  0.9719 -0.8549
  316MOL0     H41653   9.042   1.701   2.231 -0.0178  1.8352  1.3186
  316MOL0     H41654   9.139   1.842   2.195 -1.4556 -0.2612 -1.0617
  316MOL0     H41655   9.034   1.859   2.414 -0.4394 -0.2160 -3.0823
  316MOL0     H41656   9.123   1.705   2.463 -1.4217  0.7674  0.9342
  316MOL0     H41657   9.266   1.960   2.388  1.1530  0.7033  0.9473
  316MOL0     H41658   9.333   1.815   2.457  0.7299  0.0297  1.9018
  316MOL0     H41659   9.311   1.952   2.643  1.5784  0.7169 -2.8353
  316MOL0     H41660   9.174   1.847   2.656 -4.3831  1.4090 -0.8239
  316MOL0     H41661   9.032   2.023   2.563  1.0746  0.5466 -1.8704
  316MOL0     H41662   9.099   2.074   2.720  0.5649  1.1897 -0.1770
  316MOL0     H41663   9.102   2.220   2.499  3.1006  4.2209 -0.4500
  316MOL0     H41664   9.254   2.140   2.469 -1.2491  5.3814 -2.7022
  316MOL0     H41665   9.452   2.291   2.576  1.9204  2.6227  0.9316
  316MOL0     H41666   9.510   2.539   2.840 -0.1937 -0.1527  0.4408
  316MOL0     H41667   9.567   2.474   2.683 -0.9787 -0.6854 -1.9674
  316MOL0     H41668   9.615   2.261   2.799  1.1760 -0.1081 -0.7846
  316MOL0     H41669   9.525   2.311   2.945  0.2940  1.3756  1.9240
  316MOL0     H41670   9.801   2.407   2.855  0.2957 -1.8423  1.2875
  316MOL0     H41671   9.715   2.467   3.005  2.0699  2.5287 -0.5170
  316MOL0     H41672   9.834   2.200   2.941 -1.0710 -1.4279  0.8854
  316MOL0     H41673   9.727   2.200   3.071  1.1148 -1.0582  0.6206
  316MOL0     H41674   9.913   2.041   3.064  1.2381 -1.0405 -0.6111
  316MOL0     H41675  10.054   1.902   3.201  2.0410 -0.4306 -3.0651
  316MOL0     H41676  10.329   1.806   3.587  0.0305 -2.0452 -0.1672
  316MOL0     H41677  10.524   1.621   3.617  1.6400  0.1977  0.1387
  316MOL0     H41678  10.740   1.521   3.617  1.0114 -1.7024  1.5205
  316MOL0     H41679  10.700   1.626   3.750 -3.1597 -1.0194 -2.9683
  316MOL0     H41680  10.918   1.618   3.831  1.7222  1.5419 -1.5347
  316MOL0     H41681  10.988   1.581   3.679 -1.3950  0.2309 -1.6682
  316MOL0     H41682  10.892   1.373   3.645  0.7535 -2.2400  0.8356
  316MOL0     H41683  10.806   1.390   3.805 -0.4673  2.7256 -1.3205
  316MOL0     H41684  11.111   1.370   3.777  0.0066 -2.0780 -3.9079
  316MOL0     H41685  11.018   1.358   3.921  2.7223 -0.1688  0.3294
  316MOL0     H41686  10.957   1.156   3.709  0.0925 -2.3241  0.7431
  316MOL0     H41687  10.911   1.153   3.873  2.4911 -3.7689  1.1297
  316MOL0     H41688  11.152   1.167   3.950 -0.1499 -1.0469  0.0673
  316MOL0     H41689  11.203   1.119   3.797 -0.3395  1.8648 -1.0075
  316MOL0     H41690  11.008   0.969   3.971  0.9398  0.5275 -0.2596
  316MOL0     H41691  11.057   0.908   3.809  0.3256 -2.0899  0.7187
  316MOL0     H41692  11.292   0.935   3.880 -1.7951  5.1799  0.0675
  316MOL0     H41693  11.198   0.789   3.939 -1.6343  0.9326  1.0301
  316MOL0     H41694  10.790   1.951   3.498 -0.4592  0.4902 -0.1813
  316MOL0     H41695  10.616   2.075   3.417 -0.6325  0.5425  2.7239
  316MOL0     H41696  10.255   2.238   3.365 -0.6338 -1.5863  1.0318
  316MOL0     H41697  10.102   2.388   3.236 -1.3176  1.0215  0.9726
  316MOL0     H41698   9.548   1.900   2.080 -2.5036  0.2515 -0.9910
  316MOL0     H41699   9.746   1.961   1.942 -2.5090  0.7651 -3.4134
  316MOL0     H41700  10.142   1.859   1.879 -0.8224  0.7202 -0.6470
  316MOL0     H41701  10.378   1.861   1.823 -0.4686 -0.7720  0.7210
  316MOL0     H41702  10.448   1.876   1.388 -0.7965  0.3105  0.6753
  316MOL0     H41703  10.551   1.731   1.414 -1.1733 -0.9626  1.6430
  316MOL0     H41704  10.665   1.902   1.331 -2.0387 -1.8632 -0.0174
  316MOL0     H41705  10.612   2.024   1.459  1.3209  1.2614 -1.5717
  316MOL0     H41706  10.727   1.790   1.585 -2.0829 -0.5864 -0.1460
  316MOL0     H41707  10.749   1.949   1.619  1.2707 -3.5346  2.4396
  316MOL0     H41708  10.946   1.818   1.533  1.3619 -0.2045 -0.9269
  316MOL0     H41709  10.861   1.784   1.381  2.6936 -0.1715 -0.2446
  316MOL0     H41710  11.028   2.157   1.297 -0.8367  1.4326  0.4258
  316MOL0     H41711  10.267   1.771   1.416  0.1081  1.8710  0.0033
  316MOL0     H41712  10.039   1.799   1.461 -0.5907 -1.5526  1.9277
  317MOL0     O41713   9.374   9.583   0.778  0.6145 -0.4176  0.4797
  317MOL0     C41714   9.378   9.579   0.657  1.4583  0.1448  0.7138
  317MOL0     O41715   9.486   9.601   0.571 -0.4214 -0.1853 -0.6908
  317MOL0     C41716   9.601   9.629   0.640  0.2771 -0.4029 -0.1982
  317MOL0     C41717   9.670   9.522   0.700  0.5147  0.4693 -1.0482
  317MOL0     C41718   9.784   9.546   0.780  0.6031  0.7656  0.2376
  317MOL0     C41719   9.823   9.675   0.795 -0.3698 -0.3884 -0.8126
  317MOL0     O41720   9.951   9.683   0.853 -0.2487 -0.3956 -0.3044
  317MOL0     C41721  10.012   9.817   0.856  0.6883 -0.4212  0.5547
  317MOL0     C41722  10.142   9.817   0.933  0.2558 -0.2452 -0.2636
  317MOL0     C41723  10.262   9.743   0.862  0.5555  0.4655 -0.0786
  317MOL0     C41724  10.378   9.728   0.967  0.3209 -0.7551 -0.2936
  317MOL0     C41725  10.463   9.599   0.940 -0.7611  0.5932 -0.6915
  317MOL0     C41726  10.543   9.610   0.807  0.9812 -0.5346  0.1450
  317MOL0     C41727  10.645   9.505   0.786 -0.1040 -0.4782 -0.5816
  317MOL0     C41728  10.712   9.517   0.652  0.1059 -0.1201 -0.2326
  317MOL0     N41729  10.810   9.621   0.645 -1.4186 -0.3896 -0.0890
  317MOL0     C41730  10.865   9.658   0.526  0.7997  0.2331  0.3701
  317MOL0     C41731  10.955   9.756   0.558  0.3936 -0.1873 -0.8332
  317MOL0     C41732  11.056   9.811   0.468  0.6705  0.2554  0.0287
  317MOL0     C41733  11.151   9.702   0.401 -0.1510 -1.2634 -0.7877
  317MOL0     C41734  11.235   9.756   0.289  0.0272  0.1579 -0.1467
  317MOL0     C41735  11.335   9.647   0.242 -0.0752  0.4552 -0.9942
  317MOL0     O41736  11.444   9.629   0.338  0.2228 -1.2334  0.0801
  317MOL0     C41737  11.562   9.604   0.276  0.2457 -0.6752  0.1117
  317MOL0     C41738  11.578   9.507   0.172 -0.0856  0.4911 -0.7158
  317MOL0     C41739  11.704   9.478   0.123  0.3661 -0.0002 -0.0387
  317MOL0     C41740  11.818   9.546   0.180 -0.7625  0.3801  0.5182
  317MOL0     C41741  11.948   9.510   0.130 -0.0842  0.9665  0.2968
  317MOL0     O41742  12.045   9.554   0.202 -0.4129 -0.3173  0.4275
  317MOL0     C41743  12.174   9.545   0.168 -0.3809  0.2160  0.5249
  317MOL0     C41744  12.254   9.630   0.244  0.6827 -0.3576 -0.2031
  317MOL0     C41745  12.397   9.637   0.227  0.4466 -0.4184 -0.4433
  317MOL0     C41746  12.458   9.568   0.125 -0.5198  0.3616  0.1511
  317MOL0     O41747  12.590   9.574   0.084  0.1090  0.3620 -0.5382
  317MOL0     C41748  12.656   9.692   0.119 -0.4135 -0.3337 -0.5877
  317MOL0     C41749  12.740   9.676   0.243  0.1777  0.1322 -0.3697
  317MOL0     C41750  12.862   9.583   0.230  0.4345 -0.0381  0.6220
  317MOL0     C41751  12.957   9.581   0.350 -0.1563  1.1718 -0.1904
  317MOL0     C41752  13.061   9.470   0.342  0.4314 -0.5356  0.1825
  317MOL0     C41753  13.151   9.443   0.463 -0.5804 -0.8933  0.3990
  317MOL0     C41754  13.068   9.391   0.575 -0.0934  0.1286  0.4130
  317MOL0     C41755  13.148   9.328   0.689  1.0295 -0.5663  0.1629
  317MOL0    Cl41756  13.248   9.472   0.740  0.2380 -0.0628  0.1321
  317MOL0     C41757  12.377   9.490   0.049 -0.9974 -0.6248  1.0328
  317MOL0     C41758  12.247   9.479   0.060  1.4675 -0.3989 -0.1018
  317MOL0     O41759  11.955   9.440   0.032  1.6566 -0.0082 -0.7019
  317MOL0     C41760  11.799   9.631   0.287 -0.3664 -0.9769  0.1981
  317MOL0     C41761  11.677   9.666   0.336  0.1048 -0.3186  1.2056
  317MOL0     N41762  10.939   9.795   0.694  0.0694  0.4976 -0.0667
  317MOL0     N41763  10.849   9.713   0.740  0.0240 -0.0042 -0.0053
  317MOL0     C41764   9.750   9.786   0.745 -0.5007 -0.2560 -0.5377
  317MOL0     C41765   9.644   9.754   0.662 -1.0608  0.3140 -1.4023
  317MOL0     C41766   9.246   9.537   0.593 -0.2504  0.5174  0.3688
  317MOL0     C41767   9.234   9.544   0.451 -0.3865 -0.4450 -0.3523
  317MOL0     C41768   9.111   9.512   0.385 -0.2102 -0.4636  0.8983
  317MOL0     C41769   8.997   9.457   0.458 -1.3517 -0.0890 -0.9631
  317MOL0     O41770   8.882   9.413   0.405 -0.6574  1.0309 -1.0619
  317MOL0     C41771   8.868   9.387   0.265  0.3770 -1.0330  0.1414
  317MOL0     C41772   8.934   9.259   0.215  0.7716 -0.1593  0.3655
  317MOL0     C41773   8.976   9.277   0.067 -0.9275 -0.2954 -0.4510
  317MOL0     C41774   8.869   9.306  -0.040  0.7219  0.2585 -0.4459
  317MOL0     C41775   8.934   9.349  -0.165 -0.2449 -0.0323 -0.4414
  317MOL0     C41776   8.999   9.387  -0.262 -0.3423  0.2565 -0.2964
  317MOL0     C41777   9.022   9.441   0.598 -1.1500 -0.3175 -1.4211
  317MOL0     C41778   9.146   9.477   0.665  0.1389  0.5955 -0.1971
  317MOL0     H41779   9.621   9.426   0.713  0.2179  0.3836 -2.6317
  317MOL0     H41780   9.837   9.465   0.829 -0.5096  0.5651  1.1552
  317MOL0     H41781   9.954   9.895   0.906  1.8268 -1.0630  2.9735
  317MOL0     H41782  10.012   9.842   0.749 -3.9977 -0.1597  0.4243
  317MOL0     H41783  10.125   9.772   1.032  3.7330 -0.9319  0.1349
  317MOL0     H41784  10.169   9.922   0.943  0.3428 -0.2709 -0.2322
  317MOL0     H41785  10.307   9.787   0.773  0.8613  1.6578  0.6392
  317MOL0     H41786  10.234   9.645   0.823 -0.9343  1.4449 -1.6083
  317MOL0     H41787  10.441   9.817   0.978  0.6839 -0.7807 -1.8984
  317MOL0     H41788  10.335   9.708   1.065 -1.0164 -3.4190 -1.3236
  317MOL0     H41789  10.392   9.516   0.931 -1.1388  0.9453 -1.0096
  317MOL0     H41790  10.531   9.582   1.024 -1.4826 -2.1465 -0.5597
  317MOL0     H41791  10.584   9.711   0.804 -3.4580  1.5884  1.9819
  317MOL0     H41792  10.469   9.604   0.726 -0.0724 -2.3437  1.1648
  317MOL0     H41793  10.716   9.512   0.869 -1.9944  2.7543  0.9258
  317MOL0     H41794  10.595   9.407   0.786 -0.9620 -0.0515 -1.3226
  317MOL0     H41795  10.638   9.536   0.574 -0.2666  2.9954  0.7581
  317MOL0     H41796  10.767   9.425   0.633  2.4445  1.2662 -0.4586
  317MOL0     H41797  10.869   9.613   0.427 -0.0254 -0.5949  0.6965
  317MOL0     H41798  11.126   9.881   0.514 -0.1226  0.8756  0.3065
  317MOL0     H41799  10.996   9.864   0.394 -0.9508  3.6999  3.5062
  317MOL0     H41800  11.085   9.627   0.358 -0.4045 -0.4832 -1.8044
  317MOL0     H41801  11.220   9.663   0.477  3.8103  1.1611 -2.8083
  317MOL0     H41802  11.169   9.787   0.207  1.9588 -0.1906 -1.9083
  317MOL0     H41803  11.297   9.840   0.321  2.2592 -0.7777 -1.7959
  317MOL0     H41804  11.357   9.660   0.136 -0.9559 -2.5077 -1.6377
  317MOL0     H41805  11.288   9.549   0.229  1.3502 -0.1166 -2.0309
  317MOL0     H41806  11.493   9.448   0.139  0.1540 -0.4047  0.2366
  317MOL0     H41807  11.707   9.405   0.043 -2.9052  0.9020 -1.1183
  317MOL0     H41808  12.200   9.676   0.327  2.4986 -1.0259  1.4165
  317MOL0     H41809  12.459   9.699   0.290 -1.3300 -0.0488  1.0171
  317MOL0     H41810  12.595   9.782   0.129  1.2482  1.2034 -3.0041
  317MOL0     H41811  12.707   9.736   0.033  2.5129 -1.6262  0.3376
  317MOL0     H41812  12.679   9.637   0.325  2.1479 -3.4840 -0.3957
  317MOL0     H41813  12.772   9.774   0.279 -2.0089  0.4941  0.7841
  317MOL0     H41814  12.923   9.610   0.143  0.9646  1.1178  1.3164
  317MOL0     H41815  12.819   9.484   0.216  0.6977 -0.0036 -0.5895
  317MOL0     H41816  13.010   9.675   0.368 -0.7584  0.8981  4.0207
  317MOL0     H41817  12.902   9.567   0.443  2.6295  0.8907  1.5478
  317MOL0     H41818  13.133   9.510   0.270 -1.2246  1.8758 -0.2357
  317MOL0     H41819  13.008   9.381   0.307 -0.8905  1.5464 -3.7906
  317MOL0     H41820  13.204   9.535   0.486  0.2479 -0.9019 -1.2752
  317MOL0     H41821  13.223   9.363   0.440 -3.3600 -3.0859 -1.4184
  317MOL0     H41822  13.015   9.481   0.608  0.4708  0.1332  1.3390
  317MOL0     H41823  13.010   9.306   0.538  1.8535 -1.2954  0.4698
  317MOL0     H41824  13.209   9.247   0.647  3.0562  0.7423  0.4260
  317MOL0     H41825  13.079   9.288   0.764 -1.0834 -1.8377 -2.2828
  317MOL0     H41826  12.427   9.451  -0.039 -0.2404  4.1200 -0.9120
  317MOL0     H41827  12.191   9.432  -0.020 -1.0519  2.8062 -0.4423
  317MOL0     H41828  11.887   9.687   0.318  0.0434 -1.4520 -0.0891
  317MOL0     H41829  11.647   9.746   0.403 -2.6723  0.6636 -1.0486
  317MOL0     H41830   9.764   9.882   0.793 -0.1803 -0.2390 -0.6622
  317MOL0     H41831   9.610   9.840   0.604  0.7524  2.0883  0.0171
  317MOL0     H41832   9.322   9.572   0.394 -1.2290  0.0563 -1.4392
  317MOL0     H41833   9.122   9.532   0.278  2.3771 -0.8949  1.0096
  317MOL0     H41834   8.897   9.475   0.207  0.1998 -0.7466  0.4777
  317MOL0     H41835   8.759   9.375   0.257  0.3240 -1.0118  0.7395
  317MOL0     H41836   9.024   9.237   0.273  0.9223  0.5559  0.4112
  317MOL0     H41837   8.874   9.168   0.228 -2.3693  1.5065 -1.1692
  317MOL0     H41838   9.023   9.184   0.034  1.4983  0.7766 -0.2571
  317MOL0     H41839   9.058   9.349   0.060  0.3661 -1.4479  1.8416
  317MOL0     H41840   8.821   9.212  -0.067 -1.2592  0.9643  0.4398
  317MOL0     H41841   8.799   9.388  -0.020  0.6435  0.1011 -0.0657
  317MOL0     H41842   9.048   9.399  -0.356  1.9080 -2.3312  0.4395
  317MOL0     H41843   8.942   9.402   0.661  0.2819  0.3793  0.9791
  317MOL0     H41844   9.157   9.470   0.772  4.7177 -0.7071 -0.5396
  318MOL0     O41845   8.614   5.878   8.172  0.0933  1.0835 -0.0834
  318MOL0     C41846   8.542   5.821   8.247  0.1136 -0.7914 -0.9142
  318MOL0     O41847   8.582   5.737   8.348  0.4123  0.4247 -0.2638
  318MOL0     C41848   8.707   5.673   8.356 -0.3820  1.0993 -0.3994
  318MOL0     C41849   8.730   5.621   8.486 -0.3766 -0.1471 -0.0710
  318MOL0     C41850   8.854   5.559   8.520  0.2625 -0.8240 -0.0464
  318MOL0     C41851   8.953   5.548   8.425 -0.7522 -0.2623 -1.0932
  318MOL0     O41852   9.083   5.510   8.451  0.4846  0.2125  0.3758
  318MOL0     C41853   9.148   5.563   8.574  0.8013  0.5190 -0.1468
  318MOL0     C41854   9.208   5.702   8.554 -0.4896  0.6423 -0.0253
  318MOL0     C41855   9.247   5.751   8.691  0.2026 -0.2702 -0.3968
  318MOL0     C41856   9.302   5.898   8.687 -0.0057  0.6133  0.4822
  318MOL0     C41857   9.370   5.938   8.816 -0.4404  0.9339  0.3414
  318MOL0     C41858   9.457   6.057   8.780 -0.1393 -0.2350 -0.2830
  318MOL0     C41859   9.525   6.090   8.909 -0.9206 -0.0976  0.9371
  318MOL0     C41860   9.668   6.165   8.896 -0.9272 -0.2201 -0.3674
  318MOL0     N41861   9.697   6.236   9.020  0.0099  0.5195  0.2075
  318MOL0     C41862   9.652   6.364   9.052  0.0403 -0.6142  0.3654
  318MOL0     C41863   9.718   6.411   9.161 -0.5988  0.5868  0.1270
  318MOL0     C41864   9.728   6.549   9.209  0.1101 -0.4588 -0.1682
  318MOL0     C41865   9.609   6.583   9.299  0.6340  0.1388 -0.8884
  318MOL0     C41866   9.627   6.513   9.435  0.0008  0.4957  0.0461
  318MOL0     C41867   9.508   6.515   9.531  0.2524 -0.1734 -0.1335
  318MOL0     O41868   9.449   6.644   9.521 -0.0591  0.1925  0.1808
  318MOL0     C41869   9.326   6.655   9.578  0.1700  0.0232  0.4722
  318MOL0     C41870   9.291   6.595   9.701  0.2857  0.1233  0.4127
  318MOL0     C41871   9.163   6.603   9.759  0.6942 -0.8262 -0.0405
  318MOL0     C41872   9.067   6.690   9.704 -1.0878  1.1422  0.1111
  318MOL0     C41873   8.926   6.708   9.749 -0.5072 -0.7938 -0.5774
  318MOL0     O41874   8.886   6.617   9.845  0.3036 -0.0703  0.5330
  318MOL0     C41875   8.761   6.602   9.899  0.3328  0.5503  0.2227
  318MOL0     C41876   8.679   6.713   9.935  0.0537 -0.5648 -0.0257
  318MOL0     C41877   8.543   6.691   9.979  0.2848  0.3579  0.3425
  318MOL0     C41878   8.495   6.560   9.996  0.2387  0.1095  0.0311
  318MOL0     O41879   8.378   6.518  10.046 -1.5102  0.2373 -0.3051
  318MOL0     C41880   8.271   6.610  10.064 -0.8843  0.2936  0.1114
  318MOL0     C41881   8.138   6.533  10.095 -1.2644 -0.1024  0.1388
  318MOL0     C41882   8.088   6.450   9.976 -0.2423  0.3638 -0.2377
  318MOL0     C41883   7.937   6.446   9.971  0.3591  0.0091 -0.5534
  318MOL0     C41884   7.881   6.345   9.861 -0.1668 -0.4350  0.0251
  318MOL0     C41885   7.903   6.404   9.720  0.0042 -0.0416  0.1865
  318MOL0     C41886   7.866   6.287   9.627 -0.1185  0.4926 -0.3764
  318MOL0     C41887   7.833   6.345   9.492  0.1552 -0.0823  0.3883
  318MOL0    Cl41888   7.922   6.476   9.436  0.5150 -0.0915  0.1943
  318MOL0     C41889   8.580   6.452   9.958  0.4927 -0.5128  0.4875
  318MOL0     C41890   8.704   6.468   9.912 -0.1391  0.1838 -0.2377
  318MOL0     O41891   8.861   6.801   9.704  0.2108  0.1439 -0.0056
  318MOL0     C41892   9.100   6.756   9.583  1.0151 -0.5459 -0.0725
  318MOL0     C41893   9.218   6.729   9.514 -0.2135  0.4291 -0.2980
  318MOL0     N41894   9.795   6.302   9.203 -0.1154  0.5295 -0.8815
  318MOL0     N41895   9.782   6.197   9.119 -0.1580  0.6471 -0.3581
  318MOL0     C41896   8.931   5.598   8.297 -0.5439 -0.2466  0.2568
  318MOL0     C41897   8.806   5.656   8.263 -0.4624  0.2672  0.9269
  318MOL0     C41898   8.397   5.862   8.249  0.0189  0.3451 -0.5127
  318MOL0     C41899   8.306   5.807   8.340 -0.4444  0.2856  0.3006
  318MOL0     C41900   8.177   5.868   8.361 -0.2106  0.7261 -0.6119
  318MOL0     C41901   8.137   5.978   8.280  0.3916  0.3052  0.0402
  318MOL0     O41902   8.007   6.024   8.300  0.2004  0.4758  0.6588
  318MOL0     C41903   7.978   6.156   8.247  0.4843 -0.9968  0.1609
  318MOL0     C41904   7.852   6.205   8.301 -0.6115 -0.6976  0.0358
  318MOL0     C41905   7.846   6.358   8.309  0.5972 -0.3454 -0.4203
  318MOL0     C41906   7.868   6.436   8.176 -0.7838  0.2603 -0.6844
  318MOL0     C41907   7.819   6.565   8.187  0.2789 -0.2196  0.1491
  318MOL0     C41908   7.770   6.673   8.215 -0.0577  0.6565  0.6059
  318MOL0     C41909   8.229   6.025   8.182  0.1438  0.3650 -0.2024
  318MOL0     C41910   8.357   5.971   8.165 -0.3870 -1.3360  0.0044
  318MOL0     H41911   8.651   5.626   8.560 -0.8594  0.2497 -0.6012
  318MOL0     H41912   8.875   5.544   8.626 -1.0616 -0.1920  0.3238
  318MOL0     H41913   9.236   5.501   8.595 -0.0719  0.2158  3.2761
  318MOL0     H41914   9.088   5.556   8.665  2.7892 -3.2793  1.0688
  318MOL0     H41915   9.140   5.769   8.500  1.1228  0.5982 -2.2305
  318MOL0     H41916   9.305   5.693   8.504  0.1659 -1.8926  1.4884
  318MOL0     H41917   9.320   5.680   8.732 -0.4059  0.0121  1.2361
  318MOL0     H41918   9.164   5.754   8.762  1.8218  3.8944  1.6889
  318MOL0     H41919   9.375   5.899   8.605  1.6725 -3.1210  1.7173
  318MOL0     H41920   9.215   5.961   8.668 -2.4966 -2.4797  0.9336
  318MOL0     H41921   9.425   5.848   8.848  2.3952  2.0773 -0.9586
  318MOL0     H41922   9.299   5.974   8.891  1.3974  1.5206  1.8590
  318MOL0     H41923   9.411   6.153   8.756  1.5619  1.0039  1.1103
  318MOL0     H41924   9.531   6.037   8.701 -0.5542 -3.0045 -0.0749
  318MOL0     H41925   9.454   6.132   8.981 -1.3331 -1.0777  1.1173
  318MOL0     H41926   9.554   5.993   8.950  1.2680  0.2338  0.2993
  318MOL0     H41927   9.670   6.239   8.815  0.7749  0.0836 -0.0843
  318MOL0     H41928   9.747   6.093   8.872  0.0106  0.4585  0.5770
  318MOL0     H41929   9.591   6.413   8.978 -0.7226 -1.2945  0.5212
  318MOL0     H41930   9.726   6.605   9.115  0.4965 -0.5555 -0.2352
  318MOL0     H41931   9.827   6.563   9.255 -0.3908 -2.3449  1.6416
  318MOL0     H41932   9.516   6.543   9.258 -0.1066 -0.6792  1.4683
  318MOL0     H41933   9.601   6.690   9.322 -0.1947  0.2420 -1.5906
  318MOL0     H41934   9.655   6.409   9.414  0.1321 -0.3940  3.8629
  318MOL0     H41935   9.711   6.553   9.493  2.6270 -4.6974  0.4543
  318MOL0     H41936   9.534   6.493   9.635 -0.5722 -1.4721 -0.1789
  318MOL0     H41937   9.439   6.442   9.486 -0.5989 -0.4053  1.4739
  318MOL0     H41938   9.365   6.540   9.758  1.4602  1.9844  0.7850
  318MOL0     H41939   9.138   6.540   9.844 -2.3779 -0.5673 -0.6375
  318MOL0     H41940   8.724   6.810   9.913 -0.2577 -0.5393 -0.5524
  318MOL0     H41941   8.479   6.776  10.001 -2.7224 -1.6835  0.2157
  318MOL0     H41942   8.256   6.677   9.979  2.1404 -0.8900 -1.5056
  318MOL0     H41943   8.303   6.669  10.151  1.1530 -1.7978  0.9014
  318MOL0     H41944   8.060   6.604  10.125 -1.4415 -1.4436  3.1479
  318MOL0     H41945   8.156   6.469  10.181 -0.4093  1.5300  1.2259
  318MOL0     H41946   8.123   6.347   9.987 -0.7276  0.2835  0.6448
  318MOL0     H41947   8.122   6.493   9.882  0.1303 -2.6167 -1.5957
  318MOL0     H41948   7.897   6.423  10.070 -1.1541 -0.0603 -1.1589
  318MOL0     H41949   7.886   6.542   9.958 -1.6979 -0.9897 -0.1745
  318MOL0     H41950   7.776   6.326   9.883  0.1579  1.0820  3.5934
  318MOL0     H41951   7.928   6.246   9.868  0.7887 -0.2218 -2.4316
  318MOL0     H41952   8.006   6.435   9.699  0.4145 -0.1983  1.8214
  318MOL0     H41953   7.837   6.492   9.709  0.2134  0.1514  0.4501
  318MOL0     H41954   7.952   6.220   9.632 -1.3798 -1.1331  3.7956
  318MOL0     H41955   7.779   6.233   9.663  1.9460  0.2041  5.2000
  318MOL0     H41956   7.727   6.373   9.492  0.3876  0.8469  0.8767
  318MOL0     H41957   7.847   6.271   9.413 -0.6779 -0.1997  0.3374
  318MOL0     H41958   8.549   6.350   9.979  1.9045 -0.4508  3.4720
  318MOL0     H41959   8.758   6.377   9.888  0.6469  0.7342 -0.5988
  318MOL0     H41960   9.032   6.818   9.527  1.7572  0.7630  0.4394
  318MOL0     H41961   9.217   6.774   9.416 -1.0487 -2.6047 -1.8051
  318MOL0     H41962   9.013   5.618   8.229 -0.9489 -0.9483 -0.4434
  318MOL0     H41963   8.802   5.691   8.161  0.8173  0.0874  0.7951
  318MOL0     H41964   8.328   5.711   8.386  1.6063  0.7499  0.4027
  318MOL0     H41965   8.102   5.827   8.428  1.3626  0.7073  1.2164
  318MOL0     H41966   7.971   6.150   8.138 -0.3096 -0.0563  0.1394
  318MOL0     H41967   8.058   6.228   8.268 -0.0333  1.4783 -4.9285
  318MOL0     H41968   7.770   6.167   8.239 -1.3366 -0.8642  1.0735
  318MOL0     H41969   7.840   6.166   8.402 -0.6066 -0.5663  0.0873
  318MOL0     H41970   7.921   6.389   8.382 -0.6337  0.3923  0.5619
  318MOL0     H41971   7.749   6.390   8.348 -0.9869  0.5256 -4.5916
  318MOL0     H41972   7.974   6.428   8.151  0.0426 -0.6983  2.6603
  318MOL0     H41973   7.825   6.384   8.090  0.3401 -0.6382 -0.7249
  318MOL0     H41974   7.725   6.766   8.244  0.0100  1.3969 -1.5004
  318MOL0     H41975   8.209   6.093   8.100  0.8059 -0.7095 -1.2908
  318MOL0     H41976   8.416   6.030   8.096  0.0112  2.0795  2.9713
  319MOL0     O41977   8.715  11.172   7.763  0.8203 -0.6804  0.0912
  319MOL0     C41978   8.690  11.287   7.740 -0.8750  0.6866 -0.3974
  319MOL0     O41979   8.648  11.337   7.628 -0.1903 -0.1866 -0.1330
  319MOL0     C41980   8.588  11.248   7.547  0.4944 -0.7576 -0.3619
  319MOL0     C41981   8.647  11.175   7.444  1.1826  0.0425  0.0653
  319MOL0     C41982   8.563  11.100   7.363 -1.4939  0.5105  0.6923
  319MOL0     C41983   8.424  11.097   7.381 -1.3361  0.0976  0.6544
  319MOL0     O41984   8.336  11.027   7.301  0.1281  0.1564  0.6887
  319MOL0     C41985   8.393  10.916   7.226 -0.2882  1.3486 -0.2464
  319MOL0     C41986   8.281  10.844   7.156 -0.0567  0.5360  0.0969
  319MOL0     C41987   8.326  10.701   7.117  0.1815  0.0675  0.5688
  319MOL0     C41988   8.208  10.624   7.053  0.6530  0.7215 -0.3485
  319MOL0     C41989   8.242  10.484   7.016 -0.8507  0.5445  0.4752
  319MOL0     C41990   8.134  10.405   6.943 -0.0045  0.0872  1.0347
  319MOL0     C41991   8.194  10.276   6.887 -0.4900 -0.7403 -0.6185
  319MOL0     C41992   8.230  10.164   6.990 -0.0974 -0.2077 -0.2309
  319MOL0     N41993   8.151  10.162   7.115 -0.0420 -0.4277 -0.4829
  319MOL0     C41994   8.029  10.101   7.135  0.2044 -0.6183  1.1049
  319MOL0     C41995   8.000  10.136   7.259 -0.0148 -1.1322 -0.7988
  319MOL0     C41996   7.878  10.094   7.348  0.1447  0.1830  0.2152
  319MOL0     C41997   7.756  10.059   7.268  0.9728  0.0530 -0.6654
  319MOL0     C41998   7.686  10.174   7.202  0.2986  0.0574  0.6113
  319MOL0     C41999   7.568  10.138   7.107  0.0787  0.0873  0.3286
  319MOL0     O42000   7.478  10.066   7.189 -0.3022  0.3873 -0.9336
  319MOL0     C42001   7.348  10.053   7.142  0.2568 -1.0126  0.9528
  319MOL0     C42002   7.240  10.130   7.199  0.0310  0.0893  0.3544
  319MOL0     C42003   7.114  10.122   7.143  0.3472 -0.5068  0.5663
  319MOL0     C42004   7.088  10.033   7.035 -0.2281  0.5404  0.2827
  319MOL0     C42005   6.952  10.042   6.973  0.2119  1.1084 -0.4236
  319MOL0     O42006   6.864  10.109   7.039 -0.4359  0.3569  0.1876
  319MOL0     C42007   6.726  10.120   6.995 -0.7058  0.3384 -0.1587
  319MOL0     C42008   6.669  10.241   7.032  0.4543 -0.5466  0.0513
  319MOL0     C42009   6.530  10.255   7.001  0.3305 -0.3567 -0.2931
  319MOL0     C42010   6.451  10.145   6.963  0.0657  0.1572 -0.1405
  319MOL0     O42011   6.310  10.149   6.969 -0.3832  0.7361  0.6698
  319MOL0     C42012   6.252  10.201   7.091  0.0997  0.1230  1.0451
  319MOL0     C42013   6.262  10.109   7.208  0.1562 -0.9301  0.5603
  319MOL0     C42014   6.216   9.969   7.172 -0.0062  0.4962 -1.0044
  319MOL0     C42015   6.066   9.962   7.137  0.3933  0.8961  0.4020
  319MOL0     C42016   6.019   9.814   7.120 -0.1476 -0.8316 -0.1974
  319MOL0     C42017   5.871   9.819   7.074  0.4762  0.3223  0.1462
  319MOL0     C42018   5.810   9.692   7.122  0.2461 -0.1089 -0.1715
  319MOL0     C42019   5.685   9.646   7.037  0.0957  0.5487  0.4216
  319MOL0    Cl42020   5.554   9.747   7.100  0.0970 -0.0901 -0.4197
  319MOL0     C42021   6.506  10.026   6.937 -0.3980 -0.2157  0.1907
  319MOL0     C42022   6.650  10.014   6.944  0.3250 -0.3521  0.1863
  319MOL0     O42023   6.930   9.975   6.871  0.6507 -0.7560  0.1424
  319MOL0     C42024   7.190   9.952   6.984  0.7863  0.8263 -0.2418
  319MOL0     C42025   7.318   9.962   7.043 -0.1986  0.0272 -0.1369
  319MOL0     N42026   8.103  10.215   7.309  0.4345  0.5807  0.5053
  319MOL0     N42027   8.190  10.222   7.225 -0.1149  0.3977  0.1014
  319MOL0     C42028   8.368  11.165   7.487 -0.9085 -0.0102 -0.5209
  319MOL0     C42029   8.449  11.248   7.565 -0.1084 -0.6408  0.7139
  319MOL0     C42030   8.745  11.373   7.853 -1.3851  0.2301 -0.7378
  319MOL0     C42031   8.814  11.317   7.964 -0.4039 -0.5784 -0.5496
  319MOL0     C42032   8.844  11.388   8.076  0.0159 -1.0368  0.6662
  319MOL0     C42033   8.809  11.519   8.079 -0.4859  0.0170 -0.6516
  319MOL0     O42034   8.833  11.598   8.185 -0.2860 -0.4612 -0.7045
  319MOL0     C42035   8.926  11.565   8.296  0.3562 -0.0070  0.6387
  319MOL0     C42036   9.066  11.539   8.252 -0.4427  0.4063  0.2466
  319MOL0     C42037   9.165  11.513   8.373 -0.2731  1.2607 -0.4524
  319MOL0     C42038   9.297  11.433   8.344  0.9090  0.5054  0.8945
  319MOL0     C42039   9.359  11.391   8.473 -1.0953 -0.4670 -0.4556
  319MOL0     C42040   9.402  11.361   8.584 -0.6527 -0.1139  0.6266
  319MOL0     C42041   8.736  11.580   7.980  0.4674 -0.2513 -0.4804
  319MOL0     C42042   8.699  11.506   7.867 -0.5662 -0.6731 -0.1817
  319MOL0     H42043   8.753  11.173   7.420  0.7845  0.0241 -1.8242
  319MOL0     H42044   8.622  11.045   7.290 -0.0538  0.1937  2.0387
  319MOL0     H42045   8.445  10.850   7.296 -2.2011  1.7245  1.6427
  319MOL0     H42046   8.455  10.965   7.151  0.2035  0.2593 -0.5687
  319MOL0     H42047   8.241  10.905   7.074 -1.5797  2.6251  2.2919
  319MOL0     H42048   8.201  10.828   7.228 -0.2759  1.0718 -0.0302
  319MOL0     H42049   8.358  10.640   7.202 -0.5943 -3.6829 -1.5699
  319MOL0     H42050   8.412  10.702   7.048  1.8970 -2.2429  2.4791
  319MOL0     H42051   8.113  10.622   7.108  0.7181 -1.4124 -0.2299
  319MOL0     H42052   8.180  10.673   6.959 -1.2593 -3.2347 -2.0996
  319MOL0     H42053   8.279  10.425   7.101  0.0059  0.8211  0.3074
  319MOL0     H42054   8.320  10.497   6.940  0.0538  2.2406  1.6298
  319MOL0     H42055   8.096  10.469   6.863  2.6357  0.0368 -0.3574
  319MOL0     H42056   8.045  10.373   6.998  0.3631 -0.9249  1.0486
  319MOL0     H42057   8.102  10.248   6.835  0.4103  0.6268 -3.1479
  319MOL0     H42058   8.277  10.294   6.818  1.0033 -1.6730  0.8652
  319MOL0     H42059   8.333  10.183   7.019  0.5729 -0.0246 -2.5553
  319MOL0     H42060   8.224  10.065   6.945  1.5156  0.3562 -1.7514
  319MOL0     H42061   7.978  10.043   7.058 -0.3156  1.2762 -0.0600
  319MOL0     H42062   7.847  10.177   7.411 -1.3178  0.3258 -0.6544
  319MOL0     H42063   7.901  10.013   7.418  0.1481 -1.3284 -1.4377
  319MOL0     H42064   7.683  10.005   7.328  0.6498  0.3742 -0.7704
  319MOL0     H42065   7.774   9.987   7.188 -2.3568 -2.3703  0.5746
  319MOL0     H42066   7.633  10.229   7.281  1.7181  1.3023  0.7311
  319MOL0     H42067   7.763  10.221   7.139  0.1741 -2.1299 -1.3086
  319MOL0     H42068   7.616  10.083   7.026  3.6037  0.8692  1.6843
  319MOL0     H42069   7.524  10.231   7.070  0.5636 -0.0901 -0.7328
  319MOL0     H42070   7.261  10.202   7.278 -1.0446 -0.0947  0.8338
  319MOL0     H42071   7.043  10.194   7.182  0.1084  1.7204 -3.4159
  319MOL0     H42072   6.726  10.325   7.069 -3.1079  1.5384  1.3700
  319MOL0     H42073   6.487  10.353   7.021  0.1531  0.4682 -4.0923
  319MOL0     H42074   6.149  10.229   7.064  1.3035  1.4275 -2.8658
  319MOL0     H42075   6.297  10.295   7.126  1.1441  0.3224 -0.7162
  319MOL0     H42076   6.206  10.150   7.293 -0.2551 -1.5160  0.5769
  319MOL0     H42077   6.366  10.112   7.240  0.6376  2.0857 -0.8996
  319MOL0     H42078   6.247   9.904   7.254 -0.4312  0.8741 -0.5377
  319MOL0     H42079   6.280   9.921   7.097  0.7929 -4.3868  2.2678
  319MOL0     H42080   6.006  10.020   7.207  0.4889 -0.9977  2.1575
  319MOL0     H42081   6.059  10.017   7.043  0.3321 -0.7542 -0.6101
  319MOL0     H42082   6.033   9.768   7.219 -0.9087 -3.2165 -1.1231
  319MOL0     H42083   6.072   9.753   7.045 -0.7442  1.0963 -2.2816
  319MOL0     H42084   5.855   9.836   6.967 -0.9918  1.9589  0.5698
  319MOL0     H42085   5.820   9.902   7.125 -1.1365  0.8550 -2.1542
  319MOL0     H42086   5.882   9.610   7.125 -1.3089 -1.5716 -1.0201
  319MOL0     H42087   5.785   9.708   7.227 -2.5511  0.2097 -0.7887
  319MOL0     H42088   5.661   9.541   7.053  1.0468  0.3173  0.4243
  319MOL0     H42089   5.703   9.651   6.929  2.1065 -1.2305  0.6214
  319MOL0     H42090   6.445   9.946   6.896  0.2707  0.2611 -1.8667
  319MOL0     H42091   6.691   9.918   6.917 -0.2765 -0.6816  0.4152
  319MOL0     H42092   7.172   9.879   6.905 -0.7829  2.5947 -1.6219
  319MOL0     H42093   7.400   9.895   7.021  0.7708  0.3314  2.1699
  319MOL0     H42094   8.260  11.170   7.492 -1.0736 -3.0020  2.8845
  319MOL0     H42095   8.402  11.312   7.640 -1.1999  1.3151 -1.4980
  319MOL0     H42096   8.840  11.212   7.967 -1.3843 -0.8162  0.9840
  319MOL0     H42097   8.905  11.334   8.148 -0.5227 -2.9490 -0.2620
  319MOL0     H42098   8.887  11.477   8.347  1.5546 -0.8935  0.0897
  319MOL0     H42099   8.937  11.635   8.379 -1.6305  1.0466  0.0702
  319MOL0     H42100   9.075  11.444   8.198 -1.1812 -0.8728  2.2328
  319MOL0     H42101   9.095  11.619   8.184 -1.2858  1.5650  1.2034
  319MOL0     H42102   9.106  11.449   8.439  1.2987 -1.3226 -1.4072
  319MOL0     H42103   9.189  11.609   8.419  1.9370 -1.0091  3.7129
  319MOL0     H42104   9.274  11.341   8.291 -2.3581  0.8056  1.5758
  319MOL0     H42105   9.364  11.485   8.274 -0.9641 -0.6359 -1.9285
  319MOL0     H42106   9.445  11.336   8.678 -1.5073 -3.0365  0.3314
  319MOL0     H42107   8.693  11.679   7.994  1.2224  0.0502 -0.2736
  319MOL0     H42108   8.636  11.547   7.788 -2.4025 -3.0038 -0.0235
  320MOL0     O42109   3.183   9.897   5.292 -0.1454 -0.3408  0.3068
  320MOL0     C42110   3.178  10.005   5.237 -0.5584  0.3083  0.3758
  320MOL0     O42111   3.075  10.064   5.176  0.3166 -0.6918  0.0500
  320MOL0     C42112   2.947  10.014   5.173 -0.3214  0.3840 -0.7468
  320MOL0     C42113   2.871  10.049   5.065 -0.5436 -0.6811  0.3775
  320MOL0     C42114   2.728  10.020   5.060 -0.5689  0.0046  0.1540
  320MOL0     C42115   2.665   9.955   5.169  0.5071 -0.1336  0.9244
  320MOL0     O42116   2.529   9.940   5.147  0.4304 -0.7164  0.4133
  320MOL0     C42117   2.491   9.805   5.109  0.1441  0.2257  0.0623
  320MOL0     C42118   2.354   9.784   5.167  0.0937  0.4554 -0.5910
  320MOL0     C42119   2.257   9.903   5.135  0.3741 -0.9480  0.4162
  320MOL0     C42120   2.108   9.862   5.156 -0.3722  0.2587  0.4156
  320MOL0     C42121   2.007   9.970   5.143 -0.0605 -0.5476 -0.1214
  320MOL0     C42122   1.869   9.917   5.154 -0.3220  0.0755 -0.7962
  320MOL0     C42123   1.833   9.894   5.305  0.1613  0.1479  0.4555
  320MOL0     C42124   1.698   9.821   5.300 -0.7443  0.2087 -0.2941
  320MOL0     N42125   1.648   9.780   5.434 -0.1476 -0.2716  0.0483
  320MOL0     C42126   1.514   9.781   5.472 -0.2981 -0.0263  0.1090
  320MOL0     C42127   1.512   9.718   5.594  0.8486 -0.5633  0.1169
  320MOL0     C42128   1.381   9.701   5.677 -0.6211 -0.6977  0.2292
  320MOL0     C42129   1.296   9.589   5.628  1.0126 -0.1046  0.6106
  320MOL0     C42130   1.177   9.559   5.715 -0.3583 -0.3839  0.8305
  320MOL0     C42131   1.055   9.641   5.685  0.0919 -0.0476 -0.5704
  320MOL0     O42132   0.999   9.608   5.555  0.3543  0.0751 -0.2623
  320MOL0     C42133   0.887   9.523   5.545 -0.6234  0.3661  0.4980
  320MOL0     C42134   0.849   9.450   5.661  0.1198  1.1235  0.2298
  320MOL0     C42135   0.758   9.344   5.654  0.4965  0.3502  0.1613
  320MOL0     C42136   0.691   9.337   5.528  0.3534 -0.4306 -0.2902
  320MOL0     C42137   0.586   9.244   5.503  0.7072  0.2509  0.2248
  320MOL0     O42138   0.497   9.267   5.398 -0.5302  0.1859  0.1262
  320MOL0     C42139   0.376   9.208   5.417  0.7797  0.6700  0.2030
  320MOL0     C42140   0.288   9.234   5.533  0.3240 -0.0520  0.6384
  320MOL0     C42141   0.157   9.183   5.543 -0.1012  0.4168  0.8425
  320MOL0     C42142   0.112   9.093   5.446  0.3010 -0.0193  0.4514
  320MOL0     O42143  -0.014   9.042   5.452  0.4654  0.5208  0.4996
  320MOL0     C42144  -0.029   8.943   5.554 -0.2310 -0.1818 -0.3239
  320MOL0     C42145  -0.137   8.843   5.512  0.0263 -0.0252 -0.0912
  320MOL0     C42146  -0.276   8.898   5.500 -0.4794  1.1205  0.0486
  320MOL0     C42147  -0.378   8.797   5.458  0.7377  0.7612  0.3966
  320MOL0     C42148  -0.513   8.859   5.440 -0.5459  0.4902 -0.0784
  320MOL0     C42149  -0.605   8.759   5.362 -1.0690  0.1964  0.3150
  320MOL0     C42150  -0.752   8.808   5.354  0.5542 -0.0843 -0.7480
  320MOL0     C42151  -0.825   8.755   5.234  0.1914  0.0922 -0.7128
  320MOL0    Cl42152  -0.998   8.764   5.253 -0.0616 -0.1888 -0.1587
  320MOL0     C42153   0.195   9.065   5.338 -0.1579 -0.2842  0.4054
  320MOL0     C42154   0.318   9.125   5.318  1.0335 -0.2907  0.2524
  320MOL0     O42155   0.577   9.155   5.580  0.3361  0.0400 -0.3992
  320MOL0     C42156   0.723   9.421   5.417  0.0505  0.7277 -0.2160
  320MOL0     C42157   0.827   9.506   5.425 -0.2945 -0.3227  0.0747
  320MOL0     N42158   1.643   9.686   5.627  0.1415 -0.5109 -0.3427
  320MOL0     N42159   1.725   9.728   5.535  0.7073 -0.7970  0.0487
  320MOL0     C42160   2.744   9.898   5.273  0.1861 -0.1964  0.4849
  320MOL0     C42161   2.882   9.933   5.276 -0.4586  1.3469 -0.4348
  320MOL0     C42162   3.306  10.078   5.228 -0.1449 -0.2673  0.0884
  320MOL0     C42163   3.302  10.220   5.232 -0.3881 -0.7657 -0.3855
  320MOL0     C42164   3.411  10.308   5.233  0.1614 -0.3995  0.0929
  320MOL0     C42165   3.541  10.261   5.241  0.5019  0.4665 -0.6261
  320MOL0     O42166   3.642  10.345   5.245 -0.1857 -0.4859 -0.2001
  320MOL0     C42167   3.776  10.301   5.225  0.2237  0.6498  0.4669
  320MOL0     C42168   3.867  10.424   5.206  0.1132 -0.4920  0.0891
  320MOL0     C42169   4.012  10.389   5.243 -0.0062 -0.4445  0.9511
  320MOL0     C42170   4.100  10.507   5.198  0.4430 -0.6649  0.0952
  320MOL0     C42171   4.233  10.512   5.265 -0.4152 -0.6605  0.4202
  320MOL0     C42172   4.337  10.556   5.316  0.2803  0.3638 -0.3128
  320MOL0     C42173   3.552  10.121   5.251 -0.6083  0.6902 -0.6348
  320MOL0     C42174   3.438  10.030   5.251 -0.3710  0.2917 -1.1369
  320MOL0     H42175   2.915  10.116   4.992  0.3957  0.4681  1.9511
  320MOL0     H42176   2.669  10.064   4.980 -0.3145  0.5884  0.2801
  320MOL0     H42177   2.565   9.730   5.138  0.7974  0.2500 -1.4613
  320MOL0     H42178   2.495   9.803   5.000  3.2961  4.0356 -0.1438
  320MOL0     H42179   2.385   9.778   5.272 -2.3362 -0.4198  0.1423
  320MOL0     H42180   2.322   9.684   5.139 -2.3347  0.9146  0.3006
  320MOL0     H42181   2.265   9.948   5.035  0.4285  1.6999  1.5210
  320MOL0     H42182   2.287   9.986   5.199  0.4112  0.4398 -1.3126
  320MOL0     H42183   2.093   9.784   5.081 -1.9599  0.1007  0.8707
  320MOL0     H42184   2.112   9.808   5.252  0.7425 -0.1163  0.1768
  320MOL0     H42185   2.014  10.023   5.047 -4.6004  0.9353  0.1451
  320MOL0     H42186   2.034  10.039   5.224  1.6199 -1.3693  0.0636
  320MOL0     H42187   1.864   9.819   5.104  2.0751 -1.1991  1.1809
  320MOL0     H42188   1.807   9.990   5.104 -2.2090 -1.6518 -1.1135
  320MOL0     H42189   1.899   9.830   5.364 -2.0737 -2.1983  0.5806
  320MOL0     H42190   1.805   9.981   5.366 -0.9895 -0.6976  1.1711
  320MOL0     H42191   1.706   9.731   5.240 -0.8945  0.5734 -0.8666
  320MOL0     H42192   1.620   9.878   5.248 -3.4009 -0.7998  2.2808
  320MOL0     H42193   1.427   9.821   5.420 -1.3039 -0.3475  1.4653
  320MOL0     H42194   1.328   9.796   5.676 -0.7496 -0.7720  0.0044
  320MOL0     H42195   1.399   9.678   5.782  1.1110  2.4686  0.7580
  320MOL0     H42196   1.363   9.503   5.621  2.2277  0.8652 -0.0685
  320MOL0     H42197   1.261   9.614   5.528 -0.3811  0.8778  1.3038
  320MOL0     H42198   1.143   9.456   5.701 -0.8862 -0.1586  0.3834
  320MOL0     H42199   1.202   9.581   5.819 -0.9376  0.0224  0.8856
  320MOL0     H42200   1.091   9.745   5.692 -0.3185  0.0959  6.4703
  320MOL0     H42201   0.992   9.656   5.773  1.9100 -0.2228  0.8159
  320MOL0     H42202   0.913   9.448   5.749  1.5629 -0.9133 -0.7850
  320MOL0     H42203   0.727   9.286   5.740  3.4508  2.0565  2.5599
  320MOL0     H42204   0.323   9.313   5.598  0.6871 -1.1858  1.8444
  320MOL0     H42205   0.089   9.211   5.623  1.3512 -0.1425  2.3255
  320MOL0     H42206  -0.059   8.986   5.650  1.2986  1.7706 -0.6493
  320MOL0     H42207   0.067   8.893   5.570 -1.6781 -2.1165  3.7997
  320MOL0     H42208  -0.136   8.765   5.589  2.0047  1.9468  2.0311
  320MOL0     H42209  -0.123   8.798   5.413  0.3053 -0.3763  0.1071
  320MOL0     H42210  -0.268   8.980   5.428  0.9619  0.0801 -1.0310
  320MOL0     H42211  -0.298   8.938   5.599  0.7004  0.8904  0.4102
  320MOL0     H42212  -0.357   8.754   5.359 -0.4690 -3.6585  1.8462
  320MOL0     H42213  -0.383   8.719   5.535 -0.1414 -0.3471 -0.7351
  320MOL0     H42214  -0.512   8.956   5.391  1.9135  0.6973  0.2571
  320MOL0     H42215  -0.556   8.873   5.539  1.5821 -0.0781  0.9966
  320MOL0     H42216  -0.586   8.654   5.386  3.0055 -0.3054 -3.6374
  320MOL0     H42217  -0.560   8.759   5.262  1.3098  0.8151  1.3092
  320MOL0     H42218  -0.809   8.775   5.442  2.2507 -4.5149 -1.0581
  320MOL0     H42219  -0.774   8.915   5.346  2.1879  0.1994 -1.9883
  320MOL0     H42220  -0.799   8.651   5.217  2.3211  0.0186  2.1634
  320MOL0     H42221  -0.797   8.811   5.144  1.4313 -0.5873 -0.7655
  320MOL0     H42222   0.160   8.993   5.265 -2.7327  0.7404  0.5229
  320MOL0     H42223   0.375   9.098   5.229  0.8792  1.0064 -0.2605
  320MOL0     H42224   0.676   9.407   5.321 -2.2564  0.1276  0.9228
  320MOL0     H42225   0.850   9.567   5.338  1.5690  0.5346  1.1166
  320MOL0     H42226   2.695   9.847   5.355 -1.7375  1.7770  0.6711
  320MOL0     H42227   2.937   9.909   5.366 -0.6745  2.2318 -0.0541
  320MOL0     H42228   3.202  10.263   5.228 -0.2658 -0.4073  0.3714
  320MOL0     H42229   3.395  10.415   5.223  3.1947  0.0393 -0.7932
  320MOL0     H42230   3.777  10.234   5.139  2.6051  0.5044  0.5493
  320MOL0     H42231   3.820  10.234   5.299  1.0950 -1.3713 -1.7566
  320MOL0     H42232   3.844  10.468   5.109  1.0291  2.9724  1.2917
  320MOL0     H42233   3.832  10.504   5.272 -2.1501 -2.8350  1.8775
  320MOL0     H42234   4.045  10.298   5.193  1.7827 -0.3949  1.9779
  320MOL0     H42235   4.026  10.378   5.351 -0.3471 -0.4261  1.0001
  320MOL0     H42236   4.105  10.522   5.089 -2.2677  3.4233  0.3326
  320MOL0     H42237   4.061  10.602   5.233  2.1967  1.1128 -2.3984
  320MOL0     H42238   4.425  10.599   5.359  0.3989  0.3326 -0.5250
  320MOL0     H42239   3.654  10.083   5.255 -0.9036 -0.0039  2.8205
  320MOL0     H42240   3.462   9.925   5.262  0.2195 -0.1297 -5.0777
  321MOL0     O42241   8.667   8.744   9.291  0.2597  0.3980 -0.0568
  321MOL0     C42242   8.682   8.622   9.297 -0.4570 -0.9079  0.0608
  321MOL0     O42243   8.653   8.526   9.204 -0.4192 -0.3316  0.2511
  321MOL0     C42244   8.541   8.529   9.113 -0.5688  0.9147 -1.0290
  321MOL0     C42245   8.535   8.417   9.023 -0.4092 -0.4684  0.1177
  321MOL0     C42246   8.433   8.408   8.941 -0.1324  0.3115  0.4061
  321MOL0     C42247   8.332   8.498   8.936  0.0273 -0.8627 -0.4762
  321MOL0     O42248   8.243   8.482   8.833 -0.4944 -0.7601  0.7728
  321MOL0     C42249   8.109   8.492   8.870 -0.1343  0.4015 -1.0672
  321MOL0     C42250   8.025   8.371   8.838 -0.1781  0.1475 -0.2086
  321MOL0     C42251   7.880   8.391   8.803  0.2244 -0.5324  0.2787
  321MOL0     C42252   7.851   8.400   8.650  0.3406 -0.5013  0.5696
  321MOL0     C42253   7.705   8.449   8.624 -0.1964  0.2876  0.3078
  321MOL0     C42254   7.662   8.446   8.477  0.2582 -0.8749  0.0071
  321MOL0     C42255   7.517   8.477   8.453 -0.8278  0.2965 -0.0248
  321MOL0     C42256   7.479   8.488   8.308  1.3051  0.2347 -0.5343
  321MOL0     N42257   7.326   8.488   8.292 -0.9539  0.5502 -0.1231
  321MOL0     C42258   7.238   8.597   8.295  0.2890 -0.1907 -0.0380
  321MOL0     C42259   7.117   8.539   8.308  0.4132  0.7446  0.1535
  321MOL0     C42260   6.997   8.623   8.299  0.1518  0.0001 -0.4765
  321MOL0     C42261   6.866   8.566   8.359 -0.4873 -0.4311 -0.7405
  321MOL0     C42262   6.751   8.666   8.363  0.3043 -0.3615 -1.2655
  321MOL0     C42263   6.678   8.685   8.232 -0.2421 -0.2928 -0.1956
  321MOL0     O42264   6.587   8.787   8.236  0.1003 -0.1151  0.1522
  321MOL0     C42265   6.468   8.774   8.307 -0.1432  0.9043 -1.1256
  321MOL0     C42266   6.425   8.654   8.358  0.2952  0.0471 -1.3228
  321MOL0     C42267   6.297   8.645   8.426 -0.1266 -0.1593  0.3043
  321MOL0     C42268   6.229   8.759   8.461  0.3726 -0.1082  0.5245
  321MOL0     C42269   6.102   8.754   8.531  0.5365  1.1340 -0.3031
  321MOL0     O42270   6.075   8.634   8.600 -0.0635 -0.3797  0.0709
  321MOL0     C42271   5.961   8.608   8.659 -0.1338 -0.8749 -0.4828
  321MOL0     C42272   5.911   8.697   8.760  0.2300  0.7970 -0.5295
  321MOL0     C42273   5.801   8.659   8.839 -0.4596  0.2915  0.8132
  321MOL0     C42274   5.730   8.535   8.808  0.8118 -0.5224 -0.3922
  321MOL0     O42275   5.627   8.484   8.886 -0.2617 -0.4499  1.1273
  321MOL0     C42276   5.562   8.577   8.977 -0.1387 -0.0330 -0.1501
  321MOL0     C42277   5.423   8.527   9.024  0.2655 -0.2543  0.9129
  321MOL0     C42278   5.388   8.566   9.172  0.6095  0.4941 -0.6406
  321MOL0     C42279   5.397   8.720   9.193  1.1650 -0.0757  0.4722
  321MOL0     C42280   5.359   8.764   9.333 -0.7623 -1.0402 -0.1523
  321MOL0     C42281   5.210   8.780   9.344  0.0403 -0.6580 -0.6209
  321MOL0     C42282   5.170   8.766   9.484 -0.2475 -0.7217  0.3137
  321MOL0     C42283   5.016   8.791   9.497 -0.9371  0.5688  0.8765
  321MOL0    Cl42284   4.981   8.778   9.676  0.2201  0.4450 -0.3641
  321MOL0     C42285   5.773   8.459   8.702 -0.3278  0.2382  0.0409
  321MOL0     C42286   5.877   8.498   8.627 -0.3629  0.0734  0.0207
  321MOL0     O42287   6.022   8.843   8.521  0.9424 -0.0980  0.9688
  321MOL0     C42288   6.284   8.883   8.408  0.1209 -0.6349  0.3763
  321MOL0     C42289   6.400   8.888   8.323  0.9172 -0.5821 -0.6434
  321MOL0     N42290   7.127   8.399   8.316  0.3978 -0.1236 -0.4186
  321MOL0     N42291   7.248   8.376   8.300  0.1007  0.2297  0.5602
  321MOL0     C42292   8.322   8.602   9.035  0.1589 -0.2632  1.0999
  321MOL0     C42293   8.437   8.618   9.113 -0.5182 -0.4981 -0.5257
  321MOL0     C42294   8.775   8.588   9.399 -0.6207  0.1236  1.0094
  321MOL0     C42295   8.860   8.464   9.400  0.4333  0.6815 -0.1865
  321MOL0     C42296   8.958   8.445   9.493  0.1375 -0.8142 -0.0455
  321MOL0     C42297   8.980   8.534   9.594  0.7373 -0.9473 -0.1469
  321MOL0     O42298   9.097   8.503   9.672  0.9177  0.0203  0.2354
  321MOL0     C42299   9.119   8.563   9.797 -0.0913 -0.9264  0.1053
  321MOL0     C42300   9.251   8.520   9.871 -0.2978 -0.5795  0.6790
  321MOL0     C42301   9.363   8.554   9.774  0.0566  0.4549 -0.0440
  321MOL0     C42302   9.507   8.535   9.831  0.3084 -0.4058 -0.8850
  321MOL0     C42303   9.527   8.402   9.886 -0.6705  0.4532 -0.0133
  321MOL0     C42304   9.531   8.294   9.933 -0.5206 -0.1084  0.4235
  321MOL0     C42305   8.908   8.659   9.595 -0.1048  0.2200 -0.8250
  321MOL0     C42306   8.802   8.682   9.504 -0.8303 -0.4446  0.6874
  321MOL0     H42307   8.618   8.350   9.003  0.3197  0.8717 -1.6496
  321MOL0     H42308   8.436   8.325   8.871  6.0698 -1.2109  1.8401
  321MOL0     H42309   8.068   8.579   8.818 -0.9059 -0.5780 -2.1322
  321MOL0     H42310   8.093   8.510   8.977 -1.3258  2.7798 -1.5701
  321MOL0     H42311   8.035   8.293   8.914  1.1317 -0.2524 -0.7586
  321MOL0     H42312   8.060   8.323   8.747  0.3904  4.3387 -2.4457
  321MOL0     H42313   7.853   8.491   8.838  1.2966 -0.5442  1.1938
  321MOL0     H42314   7.823   8.313   8.853  0.2967 -2.2646 -2.1848
  321MOL0     H42315   7.925   8.466   8.604  0.9341  0.3179  2.6066
  321MOL0     H42316   7.851   8.302   8.601 -0.1937 -1.7848  3.0158
  321MOL0     H42317   7.683   8.549   8.661 -0.7627  0.1297  0.4130
  321MOL0     H42318   7.636   8.385   8.680  1.4457  0.4398  2.6182
  321MOL0     H42319   7.685   8.349   8.434  0.7934 -0.9677  0.4853
  321MOL0     H42320   7.721   8.525   8.428 -0.4432 -0.2150  0.2077
  321MOL0     H42321   7.470   8.397   8.511  4.1943 -0.7891  3.1509
  321MOL0     H42322   7.486   8.569   8.503 -0.5991 -0.8495  2.3233
  321MOL0     H42323   7.520   8.398   8.260 -0.4804 -0.3212 -1.1247
  321MOL0     H42324   7.528   8.575   8.264  1.1072  1.2179  1.1024
  321MOL0     H42325   7.264   8.703   8.288  2.9185 -0.7899 -0.4625
  321MOL0     H42326   6.971   8.653   8.197  0.9786 -1.0827 -1.0209
  321MOL0     H42327   7.016   8.720   8.347  0.9693 -0.7092  0.6973
  321MOL0     H42328   6.881   8.533   8.462 -2.0300  0.6884 -0.1188
  321MOL0     H42329   6.833   8.476   8.308 -1.1673 -1.4129  1.3230
  321MOL0     H42330   6.695   8.631   8.450 -0.5064  0.4565 -1.4410
  321MOL0     H42331   6.781   8.765   8.396 -3.2131  0.4545 -0.0923
  321MOL0     H42332   6.625   8.595   8.199  2.5423 -1.9526 -0.4843
  321MOL0     H42333   6.750   8.719   8.156 -0.7539  0.3687 -0.3867
  321MOL0     H42334   6.468   8.556   8.340  0.7296  0.0509 -0.3469
  321MOL0     H42335   6.253   8.553   8.462 -0.6041 -0.6104 -1.3489
  321MOL0     H42336   5.962   8.791   8.775  0.3123  0.7520 -0.5300
  321MOL0     H42337   5.770   8.722   8.922 -1.2971 -1.7710  2.1500
  321MOL0     H42338   5.547   8.681   8.946 -2.4461  0.0378  0.9722
  321MOL0     H42339   5.622   8.586   9.068 -0.7112  1.2433  0.1158
  321MOL0     H42340   5.427   8.420   9.001 -0.5349 -0.4785  1.7594
  321MOL0     H42341   5.338   8.568   8.968  0.0802 -1.2901  0.3982
  321MOL0     H42342   5.442   8.506   9.246  1.1037  1.0383 -0.5586
  321MOL0     H42343   5.285   8.531   9.190  1.8008 -1.8399  2.5662
  321MOL0     H42344   5.501   8.745   9.172  1.5933  0.7662  3.2050
  321MOL0     H42345   5.342   8.792   9.132  0.0239 -0.3886  1.0819
  321MOL0     H42346   5.406   8.859   9.361  0.1889 -2.1830  2.4571
  321MOL0     H42347   5.397   8.685   9.399 -0.4687 -0.5765  0.2482
  321MOL0     H42348   5.162   8.705   9.280  3.1928 -3.1077 -0.3855
  321MOL0     H42349   5.194   8.881   9.306  0.7136 -0.3557 -0.1251
  321MOL0     H42350   5.182   8.661   9.513 -0.2694 -0.5689  0.8826
  321MOL0     H42351   5.219   8.834   9.555 -0.1873 -0.2325 -0.1929
  321MOL0     H42352   4.968   8.711   9.440  4.4954 -1.4138 -1.5348
  321MOL0     H42353   4.986   8.887   9.454  0.4241  0.1160 -1.2023
  321MOL0     H42354   5.717   8.368   8.681  0.9638 -0.6027  0.1519
  321MOL0     H42355   5.912   8.434   8.547  0.8843  1.8551 -0.9235
  321MOL0     H42356   6.227   8.975   8.413  2.5311  1.0238 -0.7956
  321MOL0     H42357   6.421   8.982   8.273 -0.2635  0.1626  0.2017
  321MOL0     H42358   8.239   8.672   9.030  0.3624 -0.1111 -1.2523
  321MOL0     H42359   8.437   8.693   9.192 -2.2805 -0.5888 -0.3953
  321MOL0     H42360   8.838   8.389   9.325  0.1354 -0.6028  1.1362
  321MOL0     H42361   9.021   8.357   9.484  2.6394  0.9986 -1.2740
  321MOL0     H42362   9.035   8.555   9.866  0.1449  2.3723  0.9373
  321MOL0     H42363   9.132   8.671   9.785  1.3354 -0.9412  1.2582
  321MOL0     H42364   9.243   8.583   9.960 -2.2784  1.3896 -0.7919
  321MOL0     H42365   9.241   8.411   9.881 -4.8114 -0.3874  0.0820
  321MOL0     H42366   9.348   8.660   9.752 -1.1183  0.6075  1.3329
  321MOL0     H42367   9.356   8.503   9.677  0.1159  4.9067 -2.6295
  321MOL0     H42368   9.584   8.560   9.758  0.0657 -1.0703 -1.3813
  321MOL0     H42369   9.497   8.597   9.920 -3.0444 -2.4669  0.3988
  321MOL0     H42370   9.532   8.201   9.986  2.3496  0.1405  0.9474
  321MOL0     H42371   8.935   8.731   9.671  1.0511 -0.3588 -0.6773
  321MOL0     H42372   8.753   8.773   9.534 -1.4894 -0.6173  0.1541
  322MOL0     O42373   0.402   5.300   6.128 -0.9402  0.0023  0.1189
  322MOL0     C42374   0.368   5.257   6.016 -0.3787 -0.4161  0.6403
  322MOL0     O42375   0.260   5.286   5.954  0.3840  0.6977  0.2009
  322MOL0     C42376   0.147   5.337   6.022  0.9218  0.3365 -0.6052
  322MOL0     C42377   0.072   5.436   5.948  0.6782  0.0939 -0.4357
  322MOL0     C42378  -0.040   5.486   6.010 -0.3360  0.9609  0.1524
  322MOL0     C42379  -0.070   5.460   6.145 -1.0144 -0.3251  0.0730
  322MOL0     O42380  -0.164   5.545   6.200  0.2119  0.1850  0.0952
  322MOL0     C42381  -0.191   5.554   6.344  0.3038 -0.0998  0.7545
  322MOL0     C42382  -0.310   5.660   6.375 -0.3417  0.2194 -0.1890
  322MOL0     C42383  -0.451   5.600   6.331 -0.4278 -0.6311  0.4513
  322MOL0     C42384  -0.552   5.710   6.361 -0.6998 -0.4848  0.0722
  322MOL0     C42385  -0.691   5.659   6.318 -0.6184 -1.1177  0.0552
  322MOL0     C42386  -0.788   5.768   6.379 -0.1195  0.2459  0.4653
  322MOL0     C42387  -0.940   5.737   6.363 -0.5536  0.1220 -0.6345
  322MOL0     C42388  -1.000   5.749   6.214 -0.4473  0.0986 -0.7648
  322MOL0     N42389  -1.141   5.708   6.203  0.5396  0.2255  0.7939
  322MOL0     C42390  -1.226   5.642   6.288  0.7085 -0.2976 -1.0135
  322MOL0     C42391  -1.351   5.697   6.286  0.9203 -0.7112 -0.3665
  322MOL0     C42392  -1.470   5.650   6.365 -0.0708  0.4834 -0.4537
  322MOL0     C42393  -1.575   5.770   6.378  0.3790 -0.0874  0.8322
  322MOL0     C42394  -1.716   5.734   6.434 -1.2655 -0.0952 -0.5986
  322MOL0     C42395  -1.698   5.634   6.556  1.0645 -0.7829  0.0922
  322MOL0     O42396  -1.821   5.608   6.598  0.2176  0.4442  0.4229
  322MOL0     C42397  -1.910   5.521   6.534 -0.8977 -1.2348  1.3492
  322MOL0     C42398  -2.045   5.517   6.576  0.2010 -0.4050 -1.2126
  322MOL0     C42399  -2.136   5.437   6.513  0.4150 -0.4048  0.1908
  322MOL0     C42400  -2.111   5.368   6.397  0.0312  0.7938  0.6609
  322MOL0     C42401  -2.217   5.292   6.322  0.1050  0.3868  0.0701
  322MOL0     O42402  -2.167   5.238   6.205  0.3444  0.2225  0.1654
  322MOL0     C42403  -2.240   5.150   6.134  0.3821 -0.5144  0.1680
  322MOL0     C42404  -2.260   5.179   5.997  0.0749  0.6365  0.0661
  322MOL0     C42405  -2.330   5.090   5.915 -0.0378 -0.2689  0.3219
  322MOL0     C42406  -2.390   4.973   5.974 -1.0634 -0.0119  0.0599
  322MOL0     O42407  -2.440   4.886   5.885  0.0813 -0.1309  0.1964
  322MOL0     C42408  -2.504   4.762   5.921 -0.2780  0.0007  0.7674
  322MOL0     C42409  -2.536   4.679   5.805  0.5084 -0.4852  0.9212
  322MOL0     C42410  -2.637   4.753   5.714 -0.4943  0.3817 -0.1830
  322MOL0     C42411  -2.738   4.674   5.642 -0.2622  0.3843 -0.2165
  322MOL0     C42412  -2.848   4.749   5.569 -0.5974  0.0126 -0.9234
  322MOL0     C42413  -2.929   4.650   5.465 -0.0001  0.2974  0.3391
  322MOL0     C42414  -2.857   4.632   5.325  0.6052 -0.6919  0.2896
  322MOL0     C42415  -2.952   4.588   5.207  0.0636  0.0329 -0.7197
  322MOL0    Cl42416  -3.049   4.728   5.132 -0.2731 -0.3140 -0.2762
  322MOL0     C42417  -2.379   4.954   6.117 -0.0061  0.2805 -0.1772
  322MOL0     C42418  -2.304   5.039   6.196  0.1720  0.0659 -0.3672
  322MOL0     O42419  -2.333   5.270   6.370 -0.5190  0.5347  0.0009
  322MOL0     C42420  -1.979   5.381   6.348 -1.0518  0.4400  0.6164
  322MOL0     C42421  -1.879   5.444   6.422 -0.7187 -0.3089  0.4966
  322MOL0     N42422  -1.342   5.793   6.189 -0.0362 -0.2068 -0.2865
  322MOL0     N42423  -1.220   5.791   6.135  0.6095  0.4301 -0.8313
  322MOL0     C42424   0.005   5.371   6.216  0.7420  0.3719 -0.0098
  322MOL0     C42425   0.110   5.299   6.152  1.0757  0.0840 -0.1404
  322MOL0     C42426   0.468   5.193   5.936  0.1664 -0.4285 -0.4298
  322MOL0     C42427   0.442   5.145   5.808  0.0891  0.7861  1.3445
  322MOL0     C42428   0.537   5.070   5.738 -0.2748 -0.0983 -0.0901
  322MOL0     C42429   0.663   5.044   5.797  0.8127 -0.3425 -0.0033
  322MOL0     O42430   0.746   4.950   5.755 -0.6574 -0.1757  0.5147
  322MOL0     C42431   0.772   4.961   5.625  0.0428 -0.6873  0.7712
  322MOL0     C42432   0.921   4.956   5.602  0.5603 -0.0020  0.0784
  322MOL0     C42433   0.962   4.947   5.455 -0.0562 -0.4141  0.6113
  322MOL0     C42434   1.103   4.895   5.436  0.2199  0.1989  0.2016
  322MOL0     C42435   1.119   4.875   5.290 -0.3184  0.8933  0.4612
  322MOL0     C42436   1.129   4.847   5.170 -0.7527  0.1044  0.0044
  322MOL0     C42437   0.692   5.081   5.929 -0.1505  0.4011  0.1327
  322MOL0     C42438   0.596   5.154   6.004  0.6626 -0.3079  0.1926
  322MOL0     H42439   0.097   5.471   5.848 -0.2229  1.7590 -0.1103
  322MOL0     H42440  -0.112   5.549   5.958 -2.8593 -0.2140  2.0224
  322MOL0     H42441  -0.107   5.581   6.408 -0.0877  2.1376  0.4139
  322MOL0     H42442  -0.230   5.455   6.368 -0.5430  0.1976  0.6723
  322MOL0     H42443  -0.280   5.753   6.326 -0.6759  0.5586  0.2441
  322MOL0     H42444  -0.310   5.679   6.483 -0.1857  2.0597 -0.4753
  322MOL0     H42445  -0.471   5.511   6.393  0.6157  1.0740  3.4512
  322MOL0     H42446  -0.452   5.576   6.225  1.2211  1.3793 -0.0794
  322MOL0     H42447  -0.544   5.730   6.468  1.7986  0.3149 -0.2011
  322MOL0     H42448  -0.528   5.795   6.296 -1.8212 -1.0913 -1.1834
  322MOL0     H42449  -0.710   5.557   6.350  0.9330 -0.8706  1.9366
  322MOL0     H42450  -0.689   5.658   6.209  1.3462 -0.5781  0.0570
  322MOL0     H42451  -0.769   5.863   6.328 -1.1928  0.0868 -0.2620
  322MOL0     H42452  -0.772   5.786   6.486 -1.1801  2.8747  0.2664
  322MOL0     H42453  -0.947   5.639   6.410 -1.0376  1.1523  1.5592
  322MOL0     H42454  -0.993   5.810   6.426 -0.9686 -0.5170 -0.2365
  322MOL0     H42455  -0.942   5.681   6.152  0.8767  2.3073 -2.0698
  322MOL0     H42456  -0.988   5.854   6.187  0.9278  1.3097  3.6596
  322MOL0     H42457  -1.192   5.566   6.358  0.8601 -0.2328 -1.0170
  322MOL0     H42458  -1.443   5.608   6.462 -3.8312 -0.1663  0.4510
  322MOL0     H42459  -1.507   5.567   6.304 -1.2323  0.4781  0.2360
  322MOL0     H42460  -1.584   5.821   6.281  1.2506 -2.2321 -0.4684
  322MOL0     H42461  -1.531   5.850   6.439 -0.7540  1.6112 -0.4954
  322MOL0     H42462  -1.773   5.824   6.461  1.3133  1.6592 -0.6794
  322MOL0     H42463  -1.773   5.693   6.350  2.2211  1.0308 -3.7807
  322MOL0     H42464  -1.634   5.668   6.638 -0.4680 -1.1221  1.4787
  322MOL0     H42465  -1.655   5.538   6.526 -0.0750 -1.0120 -0.9171
  322MOL0     H42466  -2.071   5.582   6.659  0.6152 -2.2656  0.4328
  322MOL0     H42467  -2.238   5.431   6.548 -0.3929  1.7994 -1.5530
  322MOL0     H42468  -2.224   5.275   5.959 -2.6939  1.6230 -0.2867
  322MOL0     H42469  -2.340   5.095   5.807  2.7299 -0.8859 -0.0583
  322MOL0     H42470  -2.598   4.773   5.976 -0.1401 -0.8578  1.1895
  322MOL0     H42471  -2.436   4.703   5.983  2.9200  0.2321 -2.1877
  322MOL0     H42472  -2.589   4.590   5.840  0.1430 -0.2835  0.8891
  322MOL0     H42473  -2.442   4.660   5.752  1.6052 -1.1641  3.0261
  322MOL0     H42474  -2.591   4.824   5.644 -1.1187  0.0887 -0.9078
  322MOL0     H42475  -2.695   4.819   5.779 -0.8277 -1.1550  1.1290
  322MOL0     H42476  -2.684   4.610   5.571  0.9713 -1.3142  2.0776
  322MOL0     H42477  -2.792   4.614   5.716 -0.5341  0.9010  0.0048
  322MOL0     H42478  -2.803   4.834   5.518  1.0635 -0.4194 -0.2617
  322MOL0     H42479  -2.924   4.776   5.643  0.3311 -0.0821  0.0902
  322MOL0     H42480  -3.027   4.696   5.449 -0.6996 -0.3114  2.5601
  322MOL0     H42481  -2.937   4.555   5.519  1.0517  0.2964  0.5183
  322MOL0     H42482  -2.809   4.726   5.299 -0.1051 -0.6350 -0.9079
  322MOL0     H42483  -2.785   4.551   5.342  0.1093 -1.2027 -0.0062
  322MOL0     H42484  -3.019   4.509   5.241  0.5536 -1.2138 -2.5384
  322MOL0     H42485  -2.885   4.542   5.134  1.2210  2.8036 -1.5344
  322MOL0     H42486  -2.436   4.871   6.158 -1.1328  1.0868 -0.0547
  322MOL0     H42487  -2.288   5.015   6.301  1.3459  1.2513 -0.2495
  322MOL0     H42488  -1.959   5.325   6.258 -0.7459  0.2518  0.8004
  322MOL0     H42489  -1.785   5.446   6.366 -1.2523  0.3423 -0.4128
  322MOL0     H42490  -0.020   5.351   6.320 -1.9986  1.7320 -0.3195
  322MOL0     H42491   0.167   5.226   6.209  1.0267  1.8405  2.3415
  322MOL0     H42492   0.346   5.164   5.762 -1.0759 -2.1163  2.4005
  322MOL0     H42493   0.519   5.024   5.641 -2.3795 -0.0692  0.2356
  322MOL0     H42494   0.729   5.050   5.577 -1.2490 -0.9544  1.3947
  322MOL0     H42495   0.716   4.878   5.581  0.3179  0.3758 -1.7643
  322MOL0     H42496   0.970   5.039   5.652  2.1676 -1.1914  0.5861
  322MOL0     H42497   0.955   4.869   5.660  2.2284  2.6443  3.4192
  322MOL0     H42498   0.953   5.046   5.410 -0.4287 -1.6423 -2.2772
  322MOL0     H42499   0.896   4.882   5.396  3.3283 -4.1543  0.4823
  322MOL0     H42500   1.178   4.963   5.478  1.1154 -0.1121 -0.8516
  322MOL0     H42501   1.106   4.796   5.482  3.3178 -2.0496 -4.1585
  322MOL0     H42502   1.124   4.828   5.064 -2.4722 -0.0766  0.0917
  322MOL0     H42503   0.790   5.044   5.960  0.8442  0.6514 -2.4174
  322MOL0     H42504   0.607   5.167   6.111 -0.8048  0.1076  0.3164
  323MOL0     O42505  10.806   9.567   2.855 -0.3851 -0.7765 -0.2800
  323MOL0     C42506  10.908   9.628   2.903 -0.1208 -0.1737 -0.2929
  323MOL0     O42507  10.899   9.719   3.004 -0.2195 -0.6444  0.0653
  323MOL0     C42508  10.773   9.755   3.046 -0.6853  1.1103  0.3056
  323MOL0     C42509  10.738   9.725   3.178 -1.1132 -0.1701  0.2696
  323MOL0     C42510  10.619   9.768   3.227  0.1037  0.2125  0.0236
  323MOL0     C42511  10.532   9.846   3.143  0.1254  0.6326 -0.3728
  323MOL0     O42512  10.433   9.914   3.203  0.3728  0.5478 -0.8261
  323MOL0     C42513  10.295   9.870   3.207  0.2188 -0.3858  0.1850
  323MOL0     C42514  10.222   9.910   3.341 -0.2716  0.6928  0.9233
  323MOL0     C42515  10.096   9.825   3.359 -0.4257 -0.0968 -0.3831
  323MOL0     C42516  10.008   9.790   3.232 -0.6835  0.2812  0.0849
  323MOL0     C42517   9.861   9.776   3.273 -0.1988 -0.4393  0.5709
  323MOL0     C42518   9.770   9.750   3.149  0.0707 -0.1470 -0.4318
  323MOL0     C42519   9.625   9.743   3.190  0.1401 -0.0668 -0.8418
  323MOL0     C42520   9.536   9.723   3.071 -0.0804  0.0693  0.1936
  323MOL0     N42521   9.395   9.694   3.106 -0.7598  0.2934  0.4331
  323MOL0     C42522   9.302   9.750   3.191 -0.8491 -0.9862 -0.1127
  323MOL0     C42523   9.188   9.694   3.157  0.5341  0.9231 -0.5950
  323MOL0     C42524   9.063   9.735   3.231 -0.7467 -0.2682 -0.2197
  323MOL0     C42525   8.938   9.674   3.179  0.1146 -0.6132  0.1469
  323MOL0     C42526   8.905   9.713   3.034 -1.0709 -1.2831 -0.4927
  323MOL0     C42527   8.770   9.654   2.997 -0.0016  0.4449  0.3995
  323MOL0     O42528   8.671   9.755   3.029  0.2870  0.1246 -0.2239
  323MOL0     C42529   8.549   9.717   3.077 -1.1283 -0.5878 -0.1453
  323MOL0     C42530   8.470   9.613   3.035 -0.2059  1.1887  0.9256
  323MOL0     C42531   8.354   9.579   3.115 -0.5562  0.3260 -0.2895
  323MOL0     C42532   8.315   9.656   3.229 -0.0366  0.5243 -0.2922
  323MOL0     C42533   8.192   9.616   3.300  0.1504  0.0341  0.1523
  323MOL0     O42534   8.110   9.528   3.239  0.1204 -0.9766  0.2188
  323MOL0     C42535   8.005   9.467   3.304  0.4606  0.1631  0.0221
  323MOL0     C42536   7.974   9.332   3.271 -0.0204 -0.2957  0.2849
  323MOL0     C42537   7.863   9.257   3.328  0.7645 -1.1058  0.0053
  323MOL0     C42538   7.786   9.325   3.425 -0.0470  0.3662  0.0395
  323MOL0     O42539   7.673   9.270   3.478  0.7829  0.4615 -0.0348
  323MOL0     C42540   7.584   9.193   3.396 -0.3140  0.6760  0.4294
  323MOL0     C42541   7.456   9.147   3.455 -0.4311 -0.2194 -0.4970
  323MOL0     C42542   7.341   9.124   3.353  0.7699 -0.6058 -0.1073
  323MOL0     C42543   7.202   9.112   3.421 -0.2304  0.1764 -0.7248
  323MOL0     C42544   7.096   9.118   3.310  0.0315  1.0744 -0.6729
  323MOL0     C42545   6.955   9.079   3.362 -0.2483 -1.1447 -0.1018
  323MOL0     C42546   6.856   9.066   3.250  0.0667  0.0717 -0.6362
  323MOL0     C42547   6.735   8.989   3.316  0.4798 -0.0771  1.0177
  323MOL0    Cl42548   6.602   8.986   3.198 -0.0564 -0.5948  0.0824
  323MOL0     C42549   7.813   9.457   3.456 -0.0829 -0.0809 -0.8520
  323MOL0     C42550   7.915   9.531   3.388 -0.7621  0.1182  0.2615
  323MOL0     O42551   8.186   9.636   3.417 -0.3546  0.4212 -0.1171
  323MOL0     C42552   8.398   9.767   3.253  0.0808  0.2458 -0.1415
  323MOL0     C42553   8.510   9.798   3.180 -0.5371 -0.0164 -0.0508
  323MOL0     N42554   9.207   9.580   3.086 -0.2325  0.3494 -0.3021
  323MOL0     N42555   9.334   9.582   3.060  0.2221  0.0089 -0.5762
  323MOL0     C42556  10.570   9.867   3.006  0.2006  0.3120  0.6003
  323MOL0     C42557  10.696   9.824   2.967  0.4602 -0.7670  0.4988
  323MOL0     C42558  11.042   9.599   2.836  0.2317 -1.1375 -0.6812
  323MOL0     C42559  11.157   9.679   2.873 -0.2135 -0.5418  0.6374
  323MOL0     C42560  11.281   9.668   2.806 -0.3297 -0.2504 -0.2690
  323MOL0     C42561  11.294   9.569   2.705  0.1302 -0.1405 -0.7328
  323MOL0     O42562  11.408   9.561   2.629  0.5359 -0.6834  0.1822
  323MOL0     C42563  11.506   9.470   2.680 -0.4026  0.7943 -0.4034
  323MOL0     C42564  11.602   9.539   2.774 -0.8022  0.1268 -0.6563
  323MOL0     C42565  11.657   9.672   2.715  0.6951 -0.3931  0.0204
  323MOL0     C42566  11.707   9.671   2.577 -0.8236  0.1509  1.2731
  323MOL0     C42567  11.774   9.800   2.562  0.1960 -0.4897  1.6030
  323MOL0     C42568  11.833   9.909   2.554  0.6197  0.6382  0.2730
  323MOL0     C42569  11.188   9.488   2.676 -0.2222  0.2177 -0.3706
  323MOL0     C42570  11.059   9.507   2.733 -0.4134  0.7707 -0.5861
  323MOL0     H42571  10.809   9.674   3.242 -0.0807  0.0261 -0.6844
  323MOL0     H42572  10.592   9.747   3.330  2.4862  2.0353  1.1193
  323MOL0     H42573  10.289   9.761   3.204 -2.4426 -0.2823 -2.4565
  323MOL0     H42574  10.243   9.923   3.126  0.5436  2.1282  1.5023
  323MOL0     H42575  10.218  10.019   3.340  4.2388  1.1064  3.3676
  323MOL0     H42576  10.291   9.899   3.425  0.2511 -3.6808  0.1549
  323MOL0     H42577  10.042   9.883   3.435  0.8731  0.0284  0.4891
  323MOL0     H42578  10.118   9.733   3.415 -2.6288  0.3719  1.4181
  323MOL0     H42579  10.010   9.875   3.163  0.0035  0.3135  0.1385
  323MOL0     H42580  10.055   9.708   3.177  0.1841  1.2712 -0.6937
  323MOL0     H42581   9.840   9.877   3.310  2.3396  0.5588 -0.5059
  323MOL0     H42582   9.859   9.707   3.359 -0.2016 -0.0241  0.9057
  323MOL0     H42583   9.800   9.652   3.111 -1.6522 -0.7656 -0.2677
  323MOL0     H42584   9.783   9.827   3.072 -3.4310  0.3618 -0.6680
  323MOL0     H42585   9.612   9.660   3.261  2.5397  1.4102  1.5030
  323MOL0     H42586   9.586   9.832   3.239 -0.0211 -1.2457  1.3040
  323MOL0     H42587   9.577   9.658   2.993  1.4540  0.3572  0.7175
  323MOL0     H42588   9.535   9.823   3.027  2.0208  0.5735  1.1482
  323MOL0     H42589   9.315   9.838   3.253 -2.1417 -0.9231  0.1029
  323MOL0     H42590   9.052   9.844   3.231  1.2632 -0.0090  0.9238
  323MOL0     H42591   9.090   9.708   3.334  0.7757 -2.7892 -1.1861
  323MOL0     H42592   8.855   9.703   3.245 -0.2521 -0.4014 -0.4039
  323MOL0     H42593   8.940   9.565   3.185 -2.1774 -0.6339  1.9454
  323MOL0     H42594   8.908   9.820   3.009  2.8222 -0.7346  1.4938
  323MOL0     H42595   8.980   9.662   2.973  2.9976 -0.4919  3.3528
  323MOL0     H42596   8.746   9.562   3.050 -0.7778 -0.5840 -1.6200
  323MOL0     H42597   8.763   9.638   2.889  0.3353  2.4375  0.0347
  323MOL0     H42598   8.496   9.556   2.946  0.8396  1.5310  0.9950
  323MOL0     H42599   8.287   9.496   3.093 -0.2159 -0.0197 -0.0365
  323MOL0     H42600   8.045   9.294   3.198  1.6208  1.8535  0.6475
  323MOL0     H42601   7.842   9.164   3.277 -3.3500 -1.3216  1.7403
  323MOL0     H42602   7.642   9.103   3.371 -0.7839  0.9152 -1.6301
  323MOL0     H42603   7.565   9.253   3.307 -0.4691  1.5132  1.0119
  323MOL0     H42604   7.429   9.225   3.527  1.4417 -0.4191  0.5041
  323MOL0     H42605   7.480   9.062   3.520 -2.0498  1.5468  2.6565
  323MOL0     H42606   7.361   9.035   3.293 -2.3731 -1.0709 -0.6504
  323MOL0     H42607   7.340   9.210   3.284  2.6876 -0.4776 -0.0509
  323MOL0     H42608   7.204   9.017   3.476  0.4682  0.6500  0.1004
  323MOL0     H42609   7.195   9.193   3.495  1.0630  1.2669 -1.7453
  323MOL0     H42610   7.125   9.068   3.217  0.9338  1.4458 -0.6056
  323MOL0     H42611   7.094   9.224   3.282 -1.7206  1.5212  0.9714
  323MOL0     H42612   6.922   9.146   3.442  2.6189  0.6756 -0.3112
  323MOL0     H42613   6.970   8.979   3.404  1.4359 -1.3917 -1.1948
  323MOL0     H42614   6.831   9.158   3.197 -1.2022  0.8071  1.1374
  323MOL0     H42615   6.894   9.002   3.170  0.2839  1.9767 -2.1190
  323MOL0     H42616   6.706   9.037   3.410 -1.9895  1.0280 -0.2307
  323MOL0     H42617   6.770   8.890   3.346 -0.5572 -0.4922  0.8725
  323MOL0     H42618   7.742   9.522   3.507  1.0890  1.3457 -0.9849
  323MOL0     H42619   7.923   9.636   3.414 -2.5540 -0.0594  1.7446
  323MOL0     H42620   8.372   9.840   3.329  2.3221  1.0044 -0.0376
  323MOL0     H42621   8.567   9.883   3.214  0.9949 -0.9239 -0.2645
  323MOL0     H42622  10.512   9.933   2.944 -0.5400 -0.2964  0.6326
  323MOL0     H42623  10.734   9.849   2.868  3.2976 -0.8375  1.4913
  323MOL0     H42624  11.138   9.757   2.946 -0.5272 -0.3372  0.3390
  323MOL0     H42625  11.362   9.738   2.825 -1.8247  2.3263 -2.6033
  323MOL0     H42626  11.558   9.430   2.593 -0.3311 -0.7506  0.3036
  323MOL0     H42627  11.461   9.382   2.728 -0.1809  1.8905  1.9738
  323MOL0     H42628  11.558   9.572   2.868 -0.5349 -0.7200 -0.2206
  323MOL0     H42629  11.687   9.471   2.786 -2.6450 -2.1155  0.7723
  323MOL0     H42630  11.732   9.719   2.778  2.4978  2.7174 -4.0001
  323MOL0     H42631  11.576   9.744   2.728  1.9769  1.0647  0.2390
  323MOL0     H42632  11.782   9.592   2.569 -0.9990  0.0645  0.2979
  323MOL0     H42633  11.630   9.664   2.499 -1.8049  0.0491  2.2288
  323MOL0     H42634  11.888   9.999   2.544  1.1068  0.2515 -0.5960
  323MOL0     H42635  11.202   9.407   2.605  1.1911  0.8079 -0.7951
  323MOL0     H42636  10.981   9.444   2.690  0.5012 -0.8442  0.0706
  324MOL0     O42637  10.148   2.442   5.779 -0.5670  0.4970 -0.3020
  324MOL0     C42638  10.119   2.338   5.721 -0.0046 -0.0890 -0.4790
  324MOL0     O42639  10.207   2.260   5.653  0.6111  0.1912  0.7349
  324MOL0     C42640  10.344   2.284   5.661 -0.2590 -0.8402  0.3356
  324MOL0     C42641  10.428   2.182   5.682  1.2800  0.4880 -0.9743
  324MOL0     C42642  10.566   2.200   5.672 -0.2933  1.0742  0.4472
  324MOL0     C42643  10.623   2.317   5.639  0.7785  0.2686  2.1260
  324MOL0     O42644  10.761   2.318   5.633  0.5834  0.4354  0.5847
  324MOL0     C42645  10.812   2.446   5.684 -0.3988  0.2793 -0.7774
  324MOL0     C42646  10.953   2.432   5.760  0.0198 -1.5727 -0.8052
  324MOL0     C42647  11.063   2.411   5.662 -0.2870  0.9134 -0.6927
  324MOL0     C42648  11.204   2.406   5.732 -0.5158 -0.2111 -0.2452
  324MOL0     C42649  11.317   2.405   5.631  0.5296 -0.1019 -0.4246
  324MOL0     C42650  11.444   2.412   5.717 -0.3034  0.2254  0.3451
  324MOL0     C42651  11.561   2.447   5.636  1.0838 -0.3793 -0.1479
  324MOL0     C42652  11.695   2.452   5.700 -0.3269 -0.3993  0.4251
  324MOL0     N42653  11.700   2.513   5.831  0.2582 -0.3640  0.3800
  324MOL0     C42654  11.707   2.646   5.839 -0.8189  0.9641 -0.7114
  324MOL0     C42655  11.665   2.683   5.956  0.9240 -0.8210  0.7388
  324MOL0     C42656  11.646   2.828   5.996  0.5176  1.0376  0.5431
  324MOL0     C42657  11.496   2.868   6.002  0.8130  0.4861 -0.3310
  324MOL0     C42658  11.419   2.868   5.863 -0.7186  0.3458 -0.1765
  324MOL0     C42659  11.269   2.850   5.884  0.0432 -0.5440 -0.3498
  324MOL0     O42660  11.200   2.863   5.756 -0.0146 -0.4099 -0.2474
  324MOL0     C42661  11.064   2.853   5.749  0.7895 -0.7399  0.0241
  324MOL0     C42662  10.971   2.862   5.862 -0.2144  0.4705  0.5349
  324MOL0     C42663  10.834   2.890   5.839 -0.0506 -0.2360  0.2239
  324MOL0     C42664  10.773   2.861   5.722 -0.0398 -0.3381  0.1171
  324MOL0     C42665  10.627   2.870   5.703  0.4552  0.1490  0.0318
  324MOL0     O42666  10.558   2.901   5.808  0.5452  0.0885 -0.4106
  324MOL0     C42667  10.422   2.889   5.808  0.6818  0.3590 -0.0208
  324MOL0     C42668  10.342   2.988   5.873 -0.7066 -0.1045  0.3614
  324MOL0     C42669  10.199   2.982   5.872 -0.4165 -1.1437 -0.3967
  324MOL0     C42670  10.131   2.870   5.821  1.4305  0.0191 -0.4883
  324MOL0     O42671   9.994   2.888   5.824  0.1819 -0.3321  0.5661
  324MOL0     C42672   9.923   2.793   5.745  0.2474  0.4491 -0.7875
  324MOL0     C42673   9.773   2.818   5.751 -1.0561 -0.8885  0.4111
  324MOL0     C42674   9.723   2.752   5.870  0.4143 -0.4141 -0.3527
  324MOL0     C42675   9.710   2.603   5.850  0.1572 -0.0300  1.4176
  324MOL0     C42676   9.627   2.546   5.962  0.4893 -0.1823 -0.2630
  324MOL0     C42677   9.475   2.557   5.931 -0.4659  0.3886 -0.2890
  324MOL0     C42678   9.410   2.580   6.070  0.5128 -0.9991  0.1941
  324MOL0     C42679   9.259   2.570   6.067  0.7314 -0.1436 -0.2887
  324MOL0    Cl42680   9.204   2.397   6.056  0.5188 -0.3692  0.6151
  324MOL0     C42681  10.207   2.770   5.749  0.3812  0.9195  0.3164
  324MOL0     C42682  10.348   2.776   5.751 -0.4249 -0.4480  1.0017
  324MOL0     O42683  10.583   2.855   5.589 -0.1201  0.5094  0.3986
  324MOL0     C42684  10.863   2.818   5.618  0.2833  0.0359  0.0020
  324MOL0     C42685  11.004   2.814   5.627 -0.0640  1.2819 -1.0170
  324MOL0     N42686  11.644   2.570   6.031  0.4823  0.3131 -0.1655
  324MOL0     N42687  11.655   2.471   5.945  0.2671 -0.1044  0.1469
  324MOL0     C42688  10.532   2.426   5.612  0.0637 -0.7233 -0.7365
  324MOL0     C42689  10.392   2.409   5.617  0.4299 -0.0179  1.3310
  324MOL0     C42690   9.987   2.282   5.751 -0.5808  0.4983  0.1767
  324MOL0     C42691   9.929   2.309   5.868  0.3034 -0.4081 -0.4744
  324MOL0     C42692   9.802   2.252   5.900 -0.1156  0.2833 -0.1138
  324MOL0     C42693   9.739   2.164   5.811  0.2036 -0.0505 -0.2343
  324MOL0     O42694   9.614   2.106   5.821  0.0405 -0.7734 -0.1151
  324MOL0     C42695   9.530   2.148   5.927 -0.9196  0.2655  0.2260
  324MOL0     C42696   9.397   2.082   5.905  0.7629 -2.0815 -0.3566
  324MOL0     C42697   9.404   1.937   5.852 -0.3372 -0.4120  0.0361
  324MOL0     C42698   9.501   1.852   5.935  0.5233  0.5141 -0.0892
  324MOL0     C42699   9.466   1.707   5.918 -0.1081 -0.9178 -0.7935
  324MOL0     C42700   9.446   1.585   5.898 -0.6488  0.0455 -0.3579
  324MOL0     C42701   9.802   2.127   5.692  0.4164  0.1337  0.4787
  324MOL0     C42702   9.929   2.185   5.663 -0.1195 -0.2222  0.6827
  324MOL0     H42703  10.383   2.085   5.701 -2.1902  2.1358 -0.0244
  324MOL0     H42704  10.630   2.114   5.683  0.1470  1.0859 -1.5945
  324MOL0     H42705  10.742   2.487   5.757 -0.8818 -0.4368 -0.8310
  324MOL0     H42706  10.809   2.524   5.607 -1.2066 -0.2670 -1.3143
  324MOL0     H42707  10.951   2.348   5.830 -2.3613  0.8549  2.3768
  324MOL0     H42708  10.965   2.527   5.813  0.2890 -1.3227 -1.3081
  324MOL0     H42709  11.075   2.502   5.604 -1.1657 -0.6450 -3.5181
  324MOL0     H42710  11.039   2.318   5.609 -0.7401 -1.6331  3.4561
  324MOL0     H42711  11.211   2.492   5.800 -3.1293 -1.6118  2.0083
  324MOL0     H42712  11.214   2.314   5.790 -0.3190 -1.1451 -1.7255
  324MOL0     H42713  11.311   2.490   5.562  1.5261  0.4743  0.1629
  324MOL0     H42714  11.313   2.308   5.581  0.5890  0.1757 -0.9741
  324MOL0     H42715  11.452   2.311   5.757  1.4221 -0.7054 -2.1464
  324MOL0     H42716  11.427   2.483   5.799  1.8545 -1.8610  2.7794
  324MOL0     H42717  11.579   2.377   5.554  1.4685 -0.3262 -0.1136
  324MOL0     H42718  11.547   2.545   5.587  3.7091 -1.3787 -3.2655
  324MOL0     H42719  11.759   2.507   5.630 -0.9084  1.0133  0.9762
  324MOL0     H42720  11.728   2.349   5.718  1.1179 -0.0663 -0.1740
  324MOL0     H42721  11.737   2.715   5.761  0.4821  1.0321 -0.1900
  324MOL0     H42722  11.710   2.886   5.929  3.5396 -3.5677 -0.9873
  324MOL0     H42723  11.674   2.830   6.102  0.6349  2.2766  0.5051
  324MOL0     H42724  11.498   2.970   6.043  1.9280  0.5061 -0.4156
  324MOL0     H42725  11.431   2.805   6.062 -0.8643  0.3399 -2.2058
  324MOL0     H42726  11.437   2.964   5.814  0.2543  1.2904  1.9074
  324MOL0     H42727  11.450   2.779   5.807 -3.6369  0.1155 -1.5766
  324MOL0     H42728  11.238   2.930   5.953  2.2536  1.0245 -1.0820
  324MOL0     H42729  11.235   2.754   5.922 -2.1540  0.0919 -0.5516
  324MOL0     H42730  11.010   2.876   5.962 -3.3930  1.3511  1.7760
  324MOL0     H42731  10.768   2.900   5.925  0.2147 -1.3082  0.5549
  324MOL0     H42732  10.392   3.069   5.924 -2.3344  2.7227 -2.2379
  324MOL0     H42733  10.149   3.059   5.930  0.4845 -0.5557 -0.3805
  324MOL0     H42734   9.959   2.699   5.788 -0.9806 -0.3010 -1.3602
  324MOL0     H42735   9.960   2.795   5.642 -0.1397  1.4455 -0.9211
  324MOL0     H42736   9.733   2.786   5.654  2.3402 -0.7844 -1.1432
  324MOL0     H42737   9.757   2.926   5.758  0.3383 -0.5892 -0.7105
  324MOL0     H42738   9.634   2.814   5.884 -0.4234 -1.3820 -1.1999
  324MOL0     H42739   9.788   2.775   5.954 -0.2689  0.9256 -0.1507
  324MOL0     H42740   9.648   2.591   5.760 -1.0412  3.9713  1.5331
  324MOL0     H42741   9.807   2.554   5.838  1.2550  2.2879 -0.0046
  324MOL0     H42742   9.640   2.598   6.057  0.0664  0.3775 -0.5022
  324MOL0     H42743   9.647   2.440   5.977  0.1542 -0.5677 -2.1685
  324MOL0     H42744   9.444   2.461   5.889  1.6254 -0.6500  0.4437
  324MOL0     H42745   9.444   2.646   5.875 -1.3709 -1.3580 -2.7216
  324MOL0     H42746   9.444   2.512   6.149  2.6302  0.9182  1.0312
  324MOL0     H42747   9.440   2.684   6.088  0.7861 -0.4137 -3.0948
  324MOL0     H42748   9.212   2.625   5.984 -1.3361  0.6819  1.3465
  324MOL0     H42749   9.224   2.611   6.162  1.1124 -2.0087  0.6945
  324MOL0     H42750  10.159   2.688   5.696 -0.6799  2.0840 -0.6101
  324MOL0     H42751  10.397   2.707   5.685  0.0838  0.7774  0.0670
  324MOL0     H42752  10.816   2.776   5.530  2.6202  1.3162 -1.9594
  324MOL0     H42753  11.078   2.787   5.552  0.3971  1.8406 -0.7677
  324MOL0     H42754  10.561   2.528   5.589  1.7141 -1.5390 -2.5494
  324MOL0     H42755  10.329   2.486   5.574 -2.3752 -2.8586  0.0035
  324MOL0     H42756   9.985   2.363   5.944 -2.2947  2.1040 -0.1686
  324MOL0     H42757   9.765   2.272   6.000 -2.4286 -0.4705 -0.7516
  324MOL0     H42758   9.524   2.257   5.926  0.1339  0.3745  1.7711
  324MOL0     H42759   9.567   2.118   6.026 -1.7598  0.6388  0.6579
  324MOL0     H42760   9.336   2.088   5.995  1.3219 -1.3094 -0.0184
  324MOL0     H42761   9.348   2.138   5.825  3.0243  0.3133 -0.2238
  324MOL0     H42762   9.424   1.927   5.745 -0.6755  0.1426 -0.0832
  324MOL0     H42763   9.298   1.913   5.866 -1.1872  3.6889  2.6977
  324MOL0     H42764   9.604   1.865   5.900  0.4694 -3.5265 -2.3113
  324MOL0     H42765   9.485   1.875   6.041 -0.5640  0.3069 -0.1927
  324MOL0     H42766   9.417   1.486   5.871  1.4572 -0.4341 -1.0833
  324MOL0     H42767   9.764   2.057   5.619  2.0753  0.0269 -0.3432
  324MOL0     H42768   9.989   2.161   5.576  1.3236 -0.9741  1.8285
  325MOL0     O42769   1.791   6.712   5.050 -0.2635  0.7528  0.3932
  325MOL0     C42770   1.820   6.772   4.947  0.4426  0.3015  0.3076
  325MOL0     O42771   1.742   6.773   4.835 -0.1469 -0.0592 -0.2604
  325MOL0     C42772   1.617   6.726   4.835  0.0401  0.2364  0.2765
  325MOL0     C42773   1.504   6.794   4.892  0.2728 -0.1908 -1.1746
  325MOL0     C42774   1.372   6.753   4.861 -0.3326 -0.3701  0.1481
  325MOL0     C42775   1.353   6.634   4.782  0.3924  0.5997 -0.1558
  325MOL0     O42776   1.223   6.605   4.764 -0.1325  0.1638  0.7316
  325MOL0     C42777   1.185   6.583   4.621 -0.4015 -0.1365  0.1162
  325MOL0     C42778   1.035   6.632   4.612 -0.7231  0.0096  1.0907
  325MOL0     C42779   0.979   6.576   4.487 -0.4616  0.0180  0.1758
  325MOL0     C42780   0.836   6.631   4.471 -0.5114 -0.2681 -0.0832
  325MOL0     C42781   0.780   6.589   4.333  0.4408 -0.4945 -0.2976
  325MOL0     C42782   0.637   6.643   4.328  0.3718 -1.0069 -0.6020
  325MOL0     C42783   0.608   6.684   4.181  1.1302  0.3704 -0.0221
  325MOL0     C42784   0.483   6.774   4.173  0.2615  0.0571  0.0220
  325MOL0     N42785   0.354   6.716   4.205  0.2944  0.0945  0.4365
  325MOL0     C42786   0.303   6.606   4.126  1.1937 -0.3837  0.1405
  325MOL0     C42787   0.191   6.584   4.197  0.5351 -0.4683 -1.4439
  325MOL0     C42788   0.078   6.506   4.148 -0.1647  0.4059 -0.4161
  325MOL0     C42789   0.001   6.570   4.027 -0.3970 -0.2650  0.2550
  325MOL0     C42790  -0.111   6.488   3.970 -0.2053  0.3897  0.2362
  325MOL0     C42791  -0.205   6.536   3.855  0.4616 -0.3655  0.9286
  325MOL0     O42792  -0.299   6.633   3.914 -0.3572  0.4742 -0.7642
  325MOL0     C42793  -0.429   6.605   3.938 -0.2208 -0.2642 -0.1919
  325MOL0     C42794  -0.487   6.476   3.962 -0.3541 -0.2411 -0.1415
  325MOL0     C42795  -0.619   6.468   4.003 -0.5993 -0.7638  0.0727
  325MOL0     C42796  -0.699   6.578   4.011 -0.1983 -0.5960  0.0139
  325MOL0     C42797  -0.844   6.569   4.054 -0.4302  0.0127  0.8107
  325MOL0     O42798  -0.892   6.448   4.086  0.3270  0.2132  0.4640
  325MOL0     C42799  -1.017   6.425   4.133 -0.3344  0.3989  0.6172
  325MOL0     C42800  -1.103   6.526   4.177  0.0992  0.2147 -0.2822
  325MOL0     C42801  -1.240   6.497   4.209  0.7837 -0.0365 -0.4165
  325MOL0     C42802  -1.288   6.365   4.181 -0.6092  0.3992 -0.7819
  325MOL0     O42803  -1.407   6.323   4.229 -0.9002 -0.0118 -0.6060
  325MOL0     C42804  -1.514   6.418   4.202 -0.1695  1.2713 -1.1350
  325MOL0     C42805  -1.645   6.341   4.206 -0.1005 -0.0552 -0.6859
  325MOL0     C42806  -1.767   6.439   4.182 -0.0423  0.0662  0.5694
  325MOL0     C42807  -1.887   6.355   4.135 -0.3124  0.3099 -0.2937
  325MOL0     C42808  -2.008   6.441   4.096 -0.7626  0.3970  0.5384
  325MOL0     C42809  -2.131   6.358   4.056  0.3736  0.6202 -0.3423
  325MOL0     C42810  -2.111   6.207   4.009 -0.8363  0.3711 -0.3620
  325MOL0     C42811  -2.243   6.136   3.991  0.0803 -0.1454  0.4753
  325MOL0    Cl42812  -2.335   6.210   3.842 -0.2502 -0.1830 -0.3967
  325MOL0     C42813  -1.202   6.269   4.133  0.1712 -0.5161  0.2849
  325MOL0     C42814  -1.069   6.295   4.113  0.5419  1.3565  0.4086
  325MOL0     O42815  -0.905   6.674   4.044  0.7149  0.3376  0.2306
  325MOL0     C42816  -0.641   6.706   3.994 -0.1346  0.8607  0.5968
  325MOL0     C42817  -0.507   6.715   3.961 -0.0837 -0.5280 -0.9583
  325MOL0     N42818   0.180   6.651   4.315  0.2045 -0.1482 -0.4195
  325MOL0     N42819   0.278   6.736   4.321 -0.8562 -0.7753  0.3119
  325MOL0     C42820   1.468   6.565   4.738  1.0978 -0.2992 -0.6674
  325MOL0     C42821   1.591   6.614   4.755  1.2551  0.7427 -0.4213
  325MOL0     C42822   1.953   6.840   4.942  0.2931  0.6070  0.5179
  325MOL0     C42823   1.980   6.925   4.838 -0.3097 -0.4130  0.1943
  325MOL0     C42824   2.096   7.006   4.839  0.2260  0.2451 -0.2101
  325MOL0     C42825   2.208   6.982   4.929  0.6501  0.0770  0.3393
  325MOL0     O42826   2.330   7.041   4.926  0.2180  0.5736 -0.3310
  325MOL0     C42827   2.358   7.140   4.824 -0.3186  0.5187 -0.0613
  325MOL0     C42828   2.496   7.205   4.841  0.0438  0.6079 -0.1480
  325MOL0     C42829   2.604   7.119   4.773 -0.5488  0.4925 -0.6242
  325MOL0     C42830   2.744   7.182   4.792  0.7433  0.0129  0.2351
  325MOL0     C42831   2.855   7.097   4.754 -0.0310  0.4164 -0.2003
  325MOL0     C42832   2.942   7.026   4.719  0.1040 -0.2620 -0.5541
  325MOL0     C42833   2.172   6.895   5.037  0.0933  0.0986 -0.3927
  325MOL0     C42834   2.050   6.828   5.048 -0.0666  0.3989 -0.0818
  325MOL0     H42835   1.515   6.882   4.955 -0.4969 -0.5561 -0.5177
  325MOL0     H42836   1.285   6.810   4.890 -0.1007  0.9218 -1.5169
  325MOL0     H42837   1.209   6.480   4.593  1.8048  0.2569  0.3599
  325MOL0     H42838   1.244   6.644   4.552 -2.5530  1.8938 -0.0246
  325MOL0     H42839   1.042   6.741   4.608  1.0271 -0.0857 -2.0050
  325MOL0     H42840   0.974   6.608   4.700 -1.1513  2.8052  1.6420
  325MOL0     H42841   0.986   6.467   4.494 -2.3232 -0.0574  1.6302
  325MOL0     H42842   1.034   6.611   4.399  1.1842 -0.6071  0.9028
  325MOL0     H42843   0.782   6.583   4.553  0.7485  0.6227  1.3042
  325MOL0     H42844   0.839   6.740   4.478  1.8270 -0.2625 -0.6167
  325MOL0     H42845   0.774   6.480   4.330 -0.9091 -0.7542  4.1785
  325MOL0     H42846   0.838   6.631   4.250  2.7156 -0.9387  0.9898
  325MOL0     H42847   0.629   6.730   4.394  1.3291 -0.3903 -1.2663
  325MOL0     H42848   0.565   6.568   4.363 -0.7583 -0.2503 -1.2070
  325MOL0     H42849   0.687   6.742   4.132 -1.8899  3.9786 -1.1586
  325MOL0     H42850   0.584   6.595   4.123 -0.4884 -0.0399  1.1945
  325MOL0     H42851   0.486   6.802   4.067  2.2967 -0.7019 -0.1688
  325MOL0     H42852   0.498   6.868   4.227 -1.0449  1.3750 -1.7710
  325MOL0     H42853   0.349   6.574   4.033 -1.0821  3.2607 -2.5680
  325MOL0     H42854  -0.002   6.492   4.221 -3.6247  1.1072 -3.7628
  325MOL0     H42855   0.098   6.401   4.122 -2.9185 -0.1550 -0.5447
  325MOL0     H42856   0.079   6.584   3.952  0.3520 -0.5033  0.9766
  325MOL0     H42857  -0.039   6.669   4.053  0.0659 -0.5519  2.1816
  325MOL0     H42858  -0.063   6.393   3.942  1.3206  1.4325 -0.8353
  325MOL0     H42859  -0.174   6.466   4.057  1.0986  0.4458  1.2392
  325MOL0     H42860  -0.265   6.451   3.821  0.8351 -1.2225  2.3155
  325MOL0     H42861  -0.151   6.577   3.769 -1.0165  0.3210  0.2864
  325MOL0     H42862  -0.436   6.382   3.942 -1.3040 -0.6897 -0.5359
  325MOL0     H42863  -0.657   6.372   4.037 -0.7863 -0.6746  0.1157
  325MOL0     H42864  -1.073   6.627   4.201  4.6252 -0.8765 -0.5443
  325MOL0     H42865  -1.298   6.577   4.253 -0.5245 -1.8286  1.3071
  325MOL0     H42866  -1.501   6.464   4.103  1.4812  2.4786 -0.4065
  325MOL0     H42867  -1.531   6.495   4.277  0.8991  0.2593  0.1979
  325MOL0     H42868  -1.646   6.299   4.307  1.0456  3.3141  0.8785
  325MOL0     H42869  -1.631   6.267   4.127  3.6799  0.5562 -0.7675
  325MOL0     H42870  -1.738   6.502   4.097 -0.6891 -0.0919  0.2253
  325MOL0     H42871  -1.796   6.499   4.269 -0.9186 -0.1690  0.4477
  325MOL0     H42872  -1.853   6.289   4.055  4.1038  2.9911 -0.9586
  325MOL0     H42873  -1.914   6.285   4.215 -2.5164  0.7909 -0.5584
  325MOL0     H42874  -1.974   6.500   4.011  0.6882  1.6099  1.8858
  325MOL0     H42875  -2.023   6.517   4.174  4.2288  0.6964  1.5855
  325MOL0     H42876  -2.175   6.417   3.975  1.0144  0.5293 -0.7659
  325MOL0     H42877  -2.202   6.350   4.139  2.7661 -1.8698  1.6463
  325MOL0     H42878  -2.059   6.212   3.913 -0.6125  0.8388 -0.2145
  325MOL0     H42879  -2.056   6.141   4.078 -1.0402 -0.2218 -0.7540
  325MOL0     H42880  -2.292   6.145   4.089  0.3537 -1.9845  0.8253
  325MOL0     H42881  -2.227   6.031   3.966  2.7739  0.4101 -0.4663
  325MOL0     H42882  -1.244   6.171   4.109  0.9487 -1.7015  3.2581
  325MOL0     H42883  -1.006   6.210   4.088  0.9671  1.4503  1.1281
  325MOL0     H42884  -0.689   6.802   4.011  0.3028  1.4466 -1.2713
  325MOL0     H42885  -0.473   6.816   3.940  1.9311 -0.7054  1.0853
  325MOL0     H42886   1.452   6.468   4.691  0.7334 -0.6452  0.1652
  325MOL0     H42887   1.688   6.580   4.721  0.8682  2.2670 -3.3660
  325MOL0     H42888   1.913   6.933   4.753  1.0164  0.5953 -0.7991
  325MOL0     H42889   2.111   7.085   4.766  0.6712 -0.5909 -1.0336
  325MOL0     H42890   2.285   7.221   4.834 -1.9451 -0.8946 -0.0750
  325MOL0     H42891   2.342   7.101   4.723 -1.8418 -3.9268  1.6651
  325MOL0     H42892   2.496   7.302   4.792  1.0236 -0.3946 -2.2665
  325MOL0     H42893   2.516   7.210   4.948  0.3756 -1.8030 -0.0281
  325MOL0     H42894   2.589   7.124   4.665  1.5355 -0.5913 -1.0207
  325MOL0     H42895   2.596   7.012   4.795  2.2107 -0.6741 -4.3484
  325MOL0     H42896   2.741   7.277   4.738  0.1308  0.4119  0.9638
  325MOL0     H42897   2.763   7.205   4.897 -2.6727  2.8027  0.4384
  325MOL0     H42898   3.029   6.965   4.707  1.0398  0.5402  1.6620
  325MOL0     H42899   2.251   6.883   5.110  0.1171  0.6635 -0.3182
  325MOL0     H42900   2.042   6.752   5.125 -0.6435 -2.2627 -2.6131
  326MOL0     O42901   5.434   1.796   0.511  0.5586  0.6948  0.0574
  326MOL0     C42902   5.429   1.715   0.419  0.2859 -0.1226 -0.9469
  326MOL0     O42903   5.319   1.651   0.377 -0.2585  0.1227  0.1848
  326MOL0     C42904   5.192   1.668   0.430  0.1931 -0.0839 -0.0303
  326MOL0     C42905   5.165   1.699   0.563  0.1038 -0.1116 -0.5406
  326MOL0     C42906   5.035   1.714   0.615 -0.8812 -1.6024 -0.5987
  326MOL0     C42907   4.930   1.714   0.523 -0.0806  0.3100 -0.8346
  326MOL0     O42908   4.799   1.738   0.558 -0.0520 -0.2822  0.2238
  326MOL0     C42909   4.753   1.816   0.670 -0.0429  0.1100 -0.3306
  326MOL0     C42910   4.603   1.852   0.669 -0.9006 -0.5808 -0.7294
  326MOL0     C42911   4.572   1.954   0.563 -0.2534 -0.3993  0.0768
  326MOL0     C42912   4.421   1.979   0.565 -0.6347 -0.4187  0.3769
  326MOL0     C42913   4.392   2.027   0.430  0.2609  0.4780  0.4955
  326MOL0     C42914   4.245   2.026   0.384 -0.3006  0.2110 -0.1529
  326MOL0     C42915   4.170   2.117   0.480 -1.1182  0.3000 -0.0041
  326MOL0     C42916   4.028   2.125   0.437  0.4380 -0.0314  0.5576
  326MOL0     N42917   3.940   2.031   0.517 -0.5343 -0.7431 -0.2906
  326MOL0     C42918   3.828   2.080   0.588  0.2761 -0.0719 -0.1505
  326MOL0     C42919   3.743   1.981   0.590  0.6357  0.6777 -0.7867
  326MOL0     C42920   3.597   1.993   0.640 -0.3536 -0.6976  0.7585
  326MOL0     C42921   3.502   1.901   0.574 -0.5840 -0.6411  0.2386
  326MOL0     C42922   3.370   1.878   0.646 -0.5925 -0.0100 -0.0811
  326MOL0     C42923   3.299   2.009   0.669  0.2984 -0.9056  0.7539
  326MOL0     O42924   3.172   1.958   0.716 -0.2192 -0.4392  0.6687
  326MOL0     C42925   3.055   1.985   0.651 -0.3024 -0.1413 -0.5097
  326MOL0     C42926   3.039   1.981   0.510 -0.2348 -0.7780  0.0789
  326MOL0     C42927   2.913   1.983   0.445  0.4782  0.2283 -0.6889
  326MOL0     C42928   2.794   2.016   0.529  0.1786  0.7114 -0.0317
  326MOL0     C42929   2.653   2.030   0.475 -0.1660 -0.1537 -0.2243
  326MOL0     O42930   2.555   2.077   0.565 -0.7176 -0.3420 -0.0147
  326MOL0     C42931   2.423   2.059   0.532 -0.1166 -0.6698  0.2554
  326MOL0     C42932   2.371   1.943   0.486  0.1435  0.6353  1.5179
  326MOL0     C42933   2.238   1.938   0.437 -0.0065 -0.1974  0.2061
  326MOL0     C42934   2.150   2.047   0.443 -0.0132 -0.3086 -0.4425
  326MOL0     O42935   2.016   2.038   0.399  0.1518 -0.7171  0.3152
  326MOL0     C42936   1.960   2.150   0.319  0.1335 -0.4933  0.1539
  326MOL0     C42937   1.827   2.087   0.250  0.0897 -0.9968 -0.0877
  326MOL0     C42938   1.742   2.198   0.188  0.0098 -0.2330 -0.5699
  326MOL0     C42939   1.605   2.145   0.148 -0.4998 -0.1327 -0.5112
  326MOL0     C42940   1.497   2.249   0.112  0.4339 -0.8889  0.3616
  326MOL0     C42941   1.356   2.181   0.089  0.1725  0.4813 -0.0008
  326MOL0     C42942   1.250   2.282   0.033  0.2365 -0.1244 -0.4766
  326MOL0     C42943   1.113   2.205   0.013  1.2079 -0.3238 -1.1826
  326MOL0    Cl42944   1.036   2.202   0.168 -0.5311 -0.0914  0.0589
  326MOL0     C42945   2.203   2.165   0.502  0.0056  0.3682 -1.0883
  326MOL0     C42946   2.338   2.165   0.558 -0.6416 -0.4316  0.3069
  326MOL0     O42947   2.630   1.995   0.359 -0.6716 -0.1092 -0.9010
  326MOL0     C42948   2.812   2.020   0.668  1.0895 -0.3057 -0.3066
  326MOL0     C42949   2.940   2.013   0.727  0.2796  0.4810 -0.1172
  326MOL0     N42950   3.796   1.874   0.528 -0.5634  0.3347 -0.3533
  326MOL0     N42951   3.901   1.909   0.472 -0.2430 -0.7911 -0.0776
  326MOL0     C42952   4.959   1.694   0.390  0.5818  0.7334  0.2541
  326MOL0     C42953   5.085   1.669   0.343 -0.1860 -0.2437  0.5366
  326MOL0     C42954   5.569   1.686   0.363  0.5131 -0.3625 -0.0932
  326MOL0     C42955   5.680   1.761   0.399 -1.0718 -0.6706  0.0645
  326MOL0     C42956   5.804   1.725   0.352  0.4088  0.0482  1.1060
  326MOL0     C42957   5.823   1.623   0.255 -0.8957  0.5409 -0.2284
  326MOL0     O42958   5.953   1.612   0.204  0.3017 -0.7409 -0.1848
  326MOL0     C42959   5.969   1.509   0.103  0.2812  0.1254  0.1060
  326MOL0     C42960   6.115   1.481   0.073  1.0614 -0.1580  0.4103
  326MOL0     C42961   6.114   1.366  -0.028 -0.4323 -0.0550 -0.7341
  326MOL0     C42962   6.265   1.341  -0.047  0.0172 -0.3889  1.1839
  326MOL0     C42963   6.285   1.218  -0.123  0.3209 -0.2303  0.6157
  326MOL0     C42964   6.308   1.109  -0.184 -0.2565 -1.3659  0.8918
  326MOL0     C42965   5.712   1.557   0.207 -0.5102  0.7104  0.3537
  326MOL0     C42966   5.590   1.588   0.265 -0.0456  0.3367  0.2236
  326MOL0     H42967   5.251   1.680   0.627  0.8072 -0.8538 -1.6599
  326MOL0     H42968   5.013   1.726   0.721  0.2243 -3.3717 -0.1335
  326MOL0     H42969   4.815   1.906   0.679 -2.4791  1.8809 -0.5091
  326MOL0     H42970   4.765   1.764   0.766  1.0489  3.0883  1.3013
  326MOL0     H42971   4.567   1.896   0.762  0.1635 -0.1037 -0.5285
  326MOL0     H42972   4.547   1.759   0.654  1.6505 -2.4676  0.6826
  326MOL0     H42973   4.602   1.906   0.469  1.6936 -0.9369  0.9314
  326MOL0     H42974   4.633   2.044   0.574  0.8640 -1.3269  1.7878
  326MOL0     H42975   4.367   1.887   0.587  0.4566 -1.1967 -0.1405
  326MOL0     H42976   4.392   2.056   0.637  1.0272  0.1174  0.5203
  326MOL0     H42977   4.444   1.960   0.361  2.8071  1.6758  1.1206
  326MOL0     H42978   4.440   2.126   0.420 -0.5781  1.1728  2.7282
  326MOL0     H42979   4.213   1.923   0.399 -0.6031  0.4993  1.3832
  326MOL0     H42980   4.231   2.051   0.279  1.2654 -0.9424 -0.6734
  326MOL0     H42981   4.175   2.073   0.580  2.3901 -0.8443 -0.5293
  326MOL0     H42982   4.211   2.219   0.483  0.8607 -0.4674  0.6785
  326MOL0     H42983   4.003   2.123   0.330 -1.2301 -0.0098  0.9135
  326MOL0     H42984   3.999   2.229   0.456  2.0882  0.7958 -1.1114
  326MOL0     H42985   3.801   2.178   0.626  1.5092 -1.3957  4.9022
  326MOL0     H42986   3.562   2.093   0.613 -1.1792 -1.5172 -1.4159
  326MOL0     H42987   3.603   1.980   0.748  0.9275  1.6421  1.0191
  326MOL0     H42988   3.543   1.799   0.575 -0.6270 -0.6593  0.1580
  326MOL0     H42989   3.482   1.934   0.471  2.1447  2.6581  0.6035
  326MOL0     H42990   3.308   1.808   0.590 -1.0218  0.1534  0.1764
  326MOL0     H42991   3.388   1.831   0.743 -1.0024 -2.9580 -1.3456
  326MOL0     H42992   3.290   2.076   0.583 -0.1262 -0.1961  1.3275
  326MOL0     H42993   3.362   2.065   0.739  1.8312 -1.1104 -0.4087
  326MOL0     H42994   3.134   1.953   0.465  0.7462 -0.6906  1.9987
  326MOL0     H42995   2.894   1.971   0.338  0.5881  1.7639 -0.9129
  326MOL0     H42996   2.437   1.858   0.471  1.4940  1.8094  0.5705
  326MOL0     H42997   2.200   1.855   0.378  0.0706  0.2052 -0.4323
  326MOL0     H42998   2.033   2.183   0.245 -0.1917 -0.6466 -0.2432
  326MOL0     H42999   1.931   2.237   0.379 -5.3436 -1.9835  0.1824
  326MOL0     H43000   1.766   2.035   0.324 -1.7259  1.5829  0.3682
  326MOL0     H43001   1.851   2.011   0.175  0.5231 -2.7393  1.7366
  326MOL0     H43002   1.796   2.239   0.102  0.0203 -1.4969 -1.1973
  326MOL0     H43003   1.734   2.283   0.256 -1.3683  0.0263 -1.0241
  326MOL0     H43004   1.611   2.080   0.061 -3.0730  0.0274 -0.8701
  326MOL0     H43005   1.583   2.081   0.234  1.5093 -2.6602 -1.7426
  326MOL0     H43006   1.529   2.290   0.016  1.5664 -0.6110  0.8370
  326MOL0     H43007   1.491   2.332   0.183  2.6974 -0.7580  0.4903
  326MOL0     H43008   1.322   2.131   0.180  3.6484  0.6364  1.5417
  326MOL0     H43009   1.380   2.103   0.016 -1.5496 -0.7519  0.6912
  326MOL0     H43010   1.238   2.360   0.109  0.6446 -1.1145  0.6222
  326MOL0     H43011   1.282   2.327  -0.062 -1.3793  0.3056 -0.8607
  326MOL0     H43012   1.124   2.104  -0.028  1.5786 -0.7642 -0.0477
  326MOL0     H43013   1.055   2.276  -0.046  0.1477  0.5312  0.7841
  326MOL0     H43014   2.129   2.244   0.504  0.4121  0.8306  2.9292
  326MOL0     H43015   2.386   2.255   0.595  0.7496 -0.5981 -0.9596
  326MOL0     H43016   2.724   2.033   0.729  2.5607 -1.8769  2.3308
  326MOL0     H43017   2.954   2.033   0.833  2.2987  0.4305 -0.3265
  326MOL0     H43018   4.877   1.690   0.319  0.1219  1.8227  0.6932
  326MOL0     H43019   5.101   1.639   0.240  0.2462 -0.8637  0.7756
  326MOL0     H43020   5.681   1.836   0.477 -1.9418 -0.7498  0.1561
  326MOL0     H43021   5.888   1.789   0.379 -1.0959  1.3660  2.9500
  326MOL0     H43022   5.908   1.523   0.013 -1.2637 -1.0630  0.9246
  326MOL0     H43023   5.936   1.412   0.142  3.4439 -0.8225  0.7025
  326MOL0     H43024   6.160   1.571   0.030  0.5310  0.7292  1.6414
  326MOL0     H43025   6.168   1.461   0.167 -2.1482  2.1141  2.9452
  326MOL0     H43026   6.068   1.402  -0.121  0.6873  5.8572  0.5737
  326MOL0     H43027   6.067   1.272   0.005 -2.4060  0.9550 -0.5134
  326MOL0     H43028   6.323   1.422  -0.094  0.6067 -1.3304  0.2495
  326MOL0     H43029   6.311   1.315   0.048 -2.5709 -3.0724  1.8472
  326MOL0     H43030   6.335   1.042  -0.263  2.2017  0.0082  0.4895
  326MOL0     H43031   5.705   1.480   0.131 -0.5976 -0.6305  1.6785
  326MOL0     H43032   5.504   1.530   0.233  0.8434 -2.7564  2.8796
  327MOL0     O43033   9.352   3.925   8.265  0.5167  0.0757 -0.4887
  327MOL0     C43034   9.417   3.861   8.186 -0.0138  0.0861  0.4325
  327MOL0     O43035   9.367   3.777   8.090 -0.1919  0.2590 -0.4059
  327MOL0     C43036   9.229   3.745   8.093 -1.0959 -0.2417  0.6783
  327MOL0     C43037   9.166   3.727   7.973  0.3844 -0.0896  0.0352
  327MOL0     C43038   9.032   3.688   7.968  0.5955 -0.5381  0.9761
  327MOL0     C43039   8.948   3.684   8.078 -0.0876  0.8482 -0.2338
  327MOL0     O43040   8.807   3.665   8.089 -0.1061  0.2462  0.0371
  327MOL0     C43041   8.753   3.630   7.964  0.2284 -0.5112  0.5009
  327MOL0     C43042   8.605   3.620   8.000 -0.0366 -0.7600  0.4072
  327MOL0     C43043   8.516   3.566   7.874 -0.3304 -0.2713 -0.1158
  327MOL0     C43044   8.375   3.520   7.914 -0.0372  0.9969  0.3194
  327MOL0     C43045   8.256   3.571   7.823 -0.0158  0.1282 -0.6799
  327MOL0     C43046   8.220   3.719   7.868 -0.6291  0.7740 -0.2971
  327MOL0     C43047   8.118   3.779   7.774  0.4994  0.1202  0.6813
  327MOL0     C43048   7.995   3.698   7.750  0.0920 -0.4063 -0.5466
  327MOL0     N43049   7.925   3.650   7.876 -0.3288  0.2699  0.1155
  327MOL0     C43050   7.901   3.725   7.982 -0.0179  0.2312 -1.1485
  327MOL0     C43051   7.860   3.643   8.081  0.2150  0.3899 -0.3698
  327MOL0     C43052   7.829   3.693   8.219 -0.3921 -0.1765  0.1899
  327MOL0     C43053   7.699   3.773   8.221  0.0455 -0.1197 -0.3011
  327MOL0     C43054   7.666   3.803   8.369  0.4632  0.0349  1.4464
  327MOL0     C43055   7.591   3.940   8.397 -0.1923  0.2602 -0.5964
  327MOL0     O43056   7.667   4.056   8.359  0.1372  0.4495 -0.8904
  327MOL0     C43057   7.806   4.057   8.354 -0.5170  0.1421 -0.1264
  327MOL0     C43058   7.887   4.023   8.457 -0.3005  0.1592  0.3578
  327MOL0     C43059   8.024   4.004   8.443 -0.6495 -0.4261  0.4582
  327MOL0     C43060   8.087   4.043   8.316  0.6298 -1.3855 -0.2329
  327MOL0     C43061   8.225   4.020   8.279 -0.7221 -0.3160 -0.0009
  327MOL0     O43062   8.316   4.028   8.387 -0.0503 -0.3731  0.6425
  327MOL0     C43063   8.448   4.045   8.366 -0.0892 -1.3134 -0.1781
  327MOL0     C43064   8.509   4.135   8.457  0.4330  0.0039 -0.0507
  327MOL0     C43065   8.652   4.134   8.462  0.3373 -1.3525 -0.2793
  327MOL0     C43066   8.736   4.050   8.384 -0.3851 -0.6803 -0.3375
  327MOL0     O43067   8.867   4.044   8.398 -0.5729  0.5845  0.4044
  327MOL0     C43068   8.943   4.129   8.314  0.3876  0.0868 -1.2859
  327MOL0     C43069   9.088   4.115   8.355 -0.0168  0.4214  0.1100
  327MOL0     C43070   9.105   4.179   8.494  0.4016 -0.2013 -0.0717
  327MOL0     C43071   9.256   4.192   8.515  0.0257  0.8948 -0.3381
  327MOL0     C43072   9.289   4.266   8.642  0.5585 -0.1711 -0.0093
  327MOL0     C43073   9.428   4.339   8.632  0.2180 -0.7505 -0.5464
  327MOL0     C43074   9.558   4.263   8.675  0.3771 -0.3764 -0.9843
  327MOL0     C43075   9.683   4.344   8.645 -0.4404  0.2814  0.2420
  327MOL0    Cl43076   9.821   4.235   8.623 -0.1073 -0.0371  0.2822
  327MOL0     C43077   8.668   3.963   8.289 -0.3134  0.7039 -0.7845
  327MOL0     C43078   8.530   3.970   8.282 -0.0681  0.2244  0.1375
  327MOL0     O43079   8.255   4.014   8.158 -0.2237 -0.7846 -0.7146
  327MOL0     C43080   8.011   4.103   8.224  0.4565  0.0461  0.2372
  327MOL0     C43081   7.869   4.092   8.236  0.2338 -0.1612 -0.5148
  327MOL0     N43082   7.860   3.511   8.027  1.0592  0.0550  0.5093
  327MOL0     N43083   7.905   3.518   7.908  0.7271  0.5737  0.2415
  327MOL0     C43084   9.013   3.696   8.207 -0.3361  0.2734 -0.3018
  327MOL0     C43085   9.156   3.728   8.209 -0.0774  0.6811  0.1706
  327MOL0     C43086   9.565   3.884   8.191  0.3964  0.6284  0.1297
  327MOL0     C43087   9.652   3.797   8.113  0.3992  0.4438  0.0108
  327MOL0     C43088   9.788   3.811   8.128  0.5838  1.1728 -0.2883
  327MOL0     C43089   9.842   3.886   8.226 -0.9260  0.1641  0.5616
  327MOL0     O43090   9.972   3.897   8.251  0.3472 -0.0082 -0.3107
  327MOL0     C43091  10.065   3.804   8.202 -0.0660  0.0006  0.0220
  327MOL0     C43092  10.191   3.818   8.287  0.0388  0.9268 -0.9014
  327MOL0     C43093  10.285   3.926   8.220  0.6629  0.1877  0.9667
  327MOL0     C43094  10.215   4.063   8.222 -0.0255 -0.5543 -0.2630
  327MOL0     C43095  10.182   4.118   8.351 -0.0169 -0.4909 -0.5759
  327MOL0     C43096  10.155   4.170   8.456 -0.5070 -0.4526  0.0025
  327MOL0     C43097   9.760   3.983   8.289 -0.8149  0.3874  0.3838
  327MOL0     C43098   9.623   3.987   8.270 -0.5758  0.3828 -0.2286
  327MOL0     H43099   9.233   3.720   7.887  0.4414  0.8216 -0.0004
  327MOL0     H43100   9.002   3.651   7.871  4.4063 -3.5677  0.6776
  327MOL0     H43101   8.778   3.531   7.926  3.8850  0.6866 -0.7012
  327MOL0     H43102   8.768   3.705   7.885 -0.6711 -3.0062 -2.1776
  327MOL0     H43103   8.576   3.719   8.036  1.3078 -0.1245 -0.2194
  327MOL0     H43104   8.582   3.551   8.083 -2.0434 -0.7778 -0.1197
  327MOL0     H43105   8.568   3.484   7.824 -2.0065 -1.9247  0.7172
  327MOL0     H43106   8.520   3.652   7.806  0.5117  0.6608  1.0816
  327MOL0     H43107   8.382   3.412   7.901  1.6372  0.5110  3.9844
  327MOL0     H43108   8.349   3.534   8.019 -0.8128 -0.4921  0.3490
  327MOL0     H43109   8.168   3.509   7.839  0.6946 -0.7795 -0.1543
  327MOL0     H43110   8.283   3.570   7.716 -0.5281  0.0377 -0.8076
  327MOL0     H43111   8.315   3.772   7.866 -0.0215 -0.2759 -2.7517
  327MOL0     H43112   8.193   3.717   7.974  1.5168  1.3507  0.3076
  327MOL0     H43113   8.088   3.877   7.814  1.0222  0.6075 -0.0736
  327MOL0     H43114   8.165   3.801   7.678  1.2645 -1.6301  0.6219
  327MOL0     H43115   8.012   3.613   7.684  2.0350 -0.2418 -0.3282
  327MOL0     H43116   7.933   3.772   7.699  1.4832  1.3799  0.2345
  327MOL0     H43117   7.913   3.833   7.988  2.1071 -0.0114 -0.4282
  327MOL0     H43118   7.910   3.760   8.251 -0.3915 -0.7053  1.3549
  327MOL0     H43119   7.820   3.617   8.297  2.8709 -0.2955  0.5708
  327MOL0     H43120   7.612   3.723   8.178  1.4414 -3.0884  0.0709
  327MOL0     H43121   7.708   3.872   8.175  0.9145  0.2738  0.6539
  327MOL0     H43122   7.602   3.723   8.407  1.2407 -0.3596  1.9662
  327MOL0     H43123   7.756   3.795   8.431  1.6453 -0.7661 -0.3170
  327MOL0     H43124   7.571   3.937   8.505  1.3284 -0.6017 -0.3069
  327MOL0     H43125   7.489   3.933   8.358 -1.9054 -3.1794  3.6455
  327MOL0     H43126   7.853   4.002   8.558 -3.2946  1.7619 -0.1949
  327MOL0     H43127   8.080   3.964   8.527  1.3882  0.0191 -0.6154
  327MOL0     H43128   8.441   4.196   8.517 -0.0312  1.8686 -2.3280
  327MOL0     H43129   8.691   4.203   8.537 -0.2715 -0.9050 -0.3623
  327MOL0     H43130   8.897   4.228   8.320 -3.7897 -1.7408  1.3859
  327MOL0     H43131   8.940   4.093   8.210 -0.1254 -1.2996 -0.8181
  327MOL0     H43132   9.160   4.159   8.286  2.2524  0.4184  2.3067
  327MOL0     H43133   9.108   4.009   8.377 -2.7807  0.0586  1.2317
  327MOL0     H43134   9.060   4.110   8.566 -3.7757  0.9018 -1.3560
  327MOL0     H43135   9.063   4.280   8.492  0.9322  0.0111 -0.9387
  327MOL0     H43136   9.310   4.098   8.504  2.4338  2.3078 -1.4295
  327MOL0     H43137   9.297   4.255   8.436  3.9847 -1.0251 -0.0471
  327MOL0     H43138   9.288   4.215   8.739  0.0114  2.3041  1.3744
  327MOL0     H43139   9.210   4.342   8.652 -0.0340 -0.6530 -0.8818
  327MOL0     H43140   9.417   4.425   8.698  1.2798 -0.6523 -0.4797
  327MOL0     H43141   9.434   4.391   8.536 -1.3868  0.0588 -0.2432
  327MOL0     H43142   9.566   4.253   8.783 -0.9752 -0.3592 -0.8748
  327MOL0     H43143   9.557   4.164   8.628 -3.2736 -0.6698 -0.5797
  327MOL0     H43144   9.703   4.426   8.715 -0.0650  0.2819  0.1365
  327MOL0     H43145   9.665   4.385   8.546  1.2146  1.4591  0.3845
  327MOL0     H43146   8.732   3.890   8.239  0.2141  0.8908 -0.3890
  327MOL0     H43147   8.490   3.904   8.206 -0.4627  2.1075 -1.3820
  327MOL0     H43148   8.057   4.138   8.133 -1.6666  1.8146 -0.2582
  327MOL0     H43149   7.806   4.114   8.150 -0.5325 -2.9190 -0.7529
  327MOL0     H43150   8.966   3.665   8.299  2.6327 -3.5950  0.1729
  327MOL0     H43151   9.196   3.743   8.309 -2.1199 -1.0271  1.3298
  327MOL0     H43152   9.604   3.735   8.038  1.9711 -0.0414 -0.6448
  327MOL0     H43153   9.847   3.739   8.073  0.5877  2.2814 -1.8173
  327MOL0     H43154  10.081   3.815   8.094  0.2367 -3.8163 -0.4356
  327MOL0     H43155  10.027   3.704   8.225 -0.0888 -0.7765 -2.9469
  327MOL0     H43156  10.168   3.838   8.392  2.4430  0.2983 -0.1875
  327MOL0     H43157  10.250   3.728   8.309 -1.5361  0.7600  3.7500
  327MOL0     H43158  10.299   3.910   8.113 -2.4479  2.4281  0.0786
  327MOL0     H43159  10.376   3.924   8.281 -0.7769 -0.5206  3.2286
  327MOL0     H43160  10.284   4.125   8.165 -0.3549  0.6025  0.5721
  327MOL0     H43161  10.124   4.050   8.163 -1.1006 -1.4304  1.5226
  327MOL0     H43162  10.145   4.245   8.532  0.0242  0.5224 -0.8605
  327MOL0     H43163   9.811   4.052   8.355  0.0304 -1.3392  1.6272
  327MOL0     H43164   9.558   4.063   8.312  0.7974  1.1938  0.5065
  328MOL0     O43165   3.138   1.370   5.287  0.5539  0.1139 -0.0152
  328MOL0     C43166   3.143   1.301   5.389  0.1072  0.4994 -0.1712
  328MOL0     O43167   3.035   1.262   5.464 -0.8410  0.1787  0.9558
  328MOL0     C43168   2.909   1.305   5.419 -0.3510  0.1432  0.5596
  328MOL0     C43169   2.822   1.389   5.490  1.1879  0.4424  0.5274
  328MOL0     C43170   2.693   1.429   5.448 -0.9788  0.7667 -0.4680
  328MOL0     C43171   2.662   1.388   5.312  0.8437 -0.4106  0.5014
  328MOL0     O43172   2.550   1.435   5.246 -0.3725 -0.0820 -0.4298
  328MOL0     C43173   2.460   1.355   5.171 -0.8897  0.0285  0.0556
  328MOL0     C43174   2.357   1.466   5.128 -0.0059  1.0406  0.2708
  328MOL0     C43175   2.216   1.419   5.081 -0.7248  0.3121 -0.5876
  328MOL0     C43176   2.133   1.539   5.016 -0.1033 -0.3007 -0.6651
  328MOL0     C43177   1.988   1.508   5.005  0.1068 -0.7479 -0.1940
  328MOL0     C43178   1.933   1.606   4.904  0.1569  0.7026  0.5420
  328MOL0     C43179   1.786   1.581   4.861  0.3872 -0.3384 -0.6711
  328MOL0     C43180   1.682   1.630   4.959  0.6214  0.1655 -1.9361
  328MOL0     N43181   1.558   1.656   4.897  0.2112  1.2023  0.2800
  328MOL0     C43182   1.506   1.783   4.865 -0.3771 -0.5148 -0.0048
  328MOL0     C43183   1.386   1.756   4.806  0.5073  0.5129  0.8491
  328MOL0     C43184   1.274   1.855   4.771  0.2101  0.6952  0.0294
  328MOL0     C43185   1.155   1.852   4.874 -0.6726 -0.2192 -0.4656
  328MOL0     C43186   1.056   1.956   4.828  0.2693 -0.0527  1.1082
  328MOL0     C43187   0.927   1.966   4.904 -0.3952  0.0665  0.0604
  328MOL0     O43188   0.944   1.971   5.050 -0.6654 -0.4503 -0.2251
  328MOL0     C43189   0.827   2.014   5.121 -0.2800  0.2339  0.4874
  328MOL0     C43190   0.797   2.145   5.162  0.1760 -0.3794 -0.9449
  328MOL0     C43191   0.685   2.184   5.234  0.2676  0.3138 -0.9968
  328MOL0     C43192   0.603   2.080   5.281  0.3303  0.3621  0.3688
  328MOL0     C43193   0.499   2.113   5.385 -0.4727  0.0910  0.3323
  328MOL0     O43194   0.391   2.025   5.383  0.1976 -0.2371 -0.9763
  328MOL0     C43195   0.302   2.036   5.489  0.3787 -0.3623 -0.5716
  328MOL0     C43196   0.329   2.046   5.622  0.6867 -0.3641 -0.5552
  328MOL0     C43197   0.226   2.059   5.711  0.0069  0.8129 -0.0674
  328MOL0     C43198   0.091   2.048   5.682 -0.0949  0.2486  0.3339
  328MOL0     O43199   0.004   2.058   5.783 -0.1682  0.0511 -0.0482
  328MOL0     C43200  -0.104   1.959   5.802 -0.0333  0.2919  0.4711
  328MOL0     C43201  -0.235   2.019   5.765  0.2618 -0.4266 -0.0037
  328MOL0     C43202  -0.350   1.924   5.805 -0.0734  0.2201  0.3809
  328MOL0     C43203  -0.325   1.788   5.735  0.1713 -0.2592  1.0187
  328MOL0     C43204  -0.455   1.712   5.714  0.0649  0.7162 -0.9378
  328MOL0     C43205  -0.519   1.665   5.837  0.6474  0.8173 -0.1173
  328MOL0     C43206  -0.668   1.610   5.822  0.2245 -0.1855 -0.2307
  328MOL0     C43207  -0.780   1.701   5.783  0.3883 -0.5256 -0.6180
  328MOL0    Cl43208  -0.728   1.879   5.805  0.8624  0.2364  0.7130
  328MOL0     C43209   0.055   2.028   5.540  0.1540 -0.5149 -0.7629
  328MOL0     C43210   0.163   2.032   5.446  0.1529 -0.3485 -0.2877
  328MOL0     O43211   0.523   2.212   5.455 -0.5096 -0.0660  0.0400
  328MOL0     C43212   0.624   1.943   5.229 -0.1643 -0.3709  0.4419
  328MOL0     C43213   0.734   1.912   5.154 -0.4800 -0.1987  0.1051
  328MOL0     N43214   1.365   1.619   4.804  0.1791  0.4746 -0.5364
  328MOL0     N43215   1.468   1.560   4.857 -0.3313  0.4489  0.3605
  328MOL0     C43216   2.741   1.297   5.245  0.4470  0.9894  0.3361
  328MOL0     C43217   2.868   1.258   5.295  0.3372 -0.0061 -0.1620
  328MOL0     C43218   3.272   1.288   5.450 -0.2993 -0.6534  0.3078
  328MOL0     C43219   3.292   1.229   5.575 -0.3366 -0.2304  0.0163
  328MOL0     C43220   3.417   1.234   5.633  0.3598 -0.4790 -0.5257
  328MOL0     C43221   3.524   1.296   5.577  0.1321  0.1266  0.0859
  328MOL0     O43222   3.644   1.298   5.647  0.7034  0.0657 -0.2649
  328MOL0     C43223   3.768   1.351   5.589  0.2826  0.3294  0.3919
  328MOL0     C43224   3.816   1.493   5.626 -0.3111  0.1939 -0.5960
  328MOL0     C43225   3.795   1.500   5.779  0.0434  0.4559 -0.2682
  328MOL0     C43226   3.900   1.423   5.868 -0.6238 -0.4888 -0.4883
  328MOL0     C43227   4.037   1.472   5.831 -0.0013  1.5556  1.1041
  328MOL0     C43228   4.146   1.510   5.806 -0.3491 -1.0350 -0.0305
  328MOL0     C43229   3.512   1.351   5.446 -0.1961  0.3824  0.6351
  328MOL0     C43230   3.387   1.347   5.378  0.0946  0.9094 -0.0816
  328MOL0     H43231   2.858   1.433   5.582 -4.5337  1.8707  2.4806
  328MOL0     H43232   2.633   1.493   5.513 -0.6549  0.9075 -0.3086
  328MOL0     H43233   2.416   1.279   5.236  1.7518 -0.6987  1.1039
  328MOL0     H43234   2.510   1.315   5.082  0.0857  1.1950  0.0446
  328MOL0     H43235   2.400   1.523   5.045  0.4153  1.1893  0.5861
  328MOL0     H43236   2.338   1.532   5.213 -0.9006  0.9372  0.1641
  328MOL0     H43237   2.159   1.386   5.168  0.7970  1.8023  1.0351
  328MOL0     H43238   2.228   1.337   5.010  0.1121  0.7255 -0.9335
  328MOL0     H43239   2.140   1.628   5.080  1.0772 -1.4676  0.9092
  328MOL0     H43240   2.176   1.556   4.917 -1.1133  4.7004 -0.5413
  328MOL0     H43241   1.939   1.544   5.096 -0.1999  2.3933 -1.4677
  328MOL0     H43242   1.957   1.406   4.980 -1.6572  0.0976 -1.6916
  328MOL0     H43243   1.999   1.605   4.817  0.9814  1.3944  1.1416
  328MOL0     H43244   1.943   1.708   4.941  1.2298  1.9186 -2.7011
  328MOL0     H43245   1.780   1.637   4.767 -0.2522 -0.6156 -0.8007
  328MOL0     H43246   1.770   1.474   4.846  1.7931 -0.6191 -0.3212
  328MOL0     H43247   1.706   1.711   5.027  2.3756 -2.9636  1.5209
  328MOL0     H43248   1.665   1.541   5.019 -5.0847  1.7774 -0.6088
  328MOL0     H43249   1.545   1.882   4.884  1.7583 -1.3117 -0.0135
  328MOL0     H43250   1.225   1.816   4.681 -0.8404  1.9180  0.0514
  328MOL0     H43251   1.312   1.956   4.755  0.2874  0.8422  1.0806
  328MOL0     H43252   1.191   1.885   4.972 -0.3358 -0.0650 -0.6367
  328MOL0     H43253   1.111   1.752   4.877  0.7279 -0.8440  0.7162
  328MOL0     H43254   1.100   2.056   4.838  1.2093  0.2240 -3.4843
  328MOL0     H43255   1.041   1.938   4.721  4.0864 -0.8408  0.5343
  328MOL0     H43256   0.870   1.877   4.876 -1.3959  1.5079 -2.9165
  328MOL0     H43257   0.877   2.054   4.861  0.7824 -0.6628 -3.1301
  328MOL0     H43258   0.867   2.221   5.127  0.4109  2.3599  4.4748
  328MOL0     H43259   0.680   2.287   5.266  3.1456  0.2328 -0.0176
  328MOL0     H43260   0.428   2.069   5.658  0.6307  0.6863 -1.0329
  328MOL0     H43261   0.253   2.062   5.816  0.9194 -0.3943 -0.2477
  328MOL0     H43262  -0.125   1.939   5.908 -1.0697  0.7951  0.3701
  328MOL0     H43263  -0.075   1.862   5.761  2.4105 -0.3753  3.3831
  328MOL0     H43264  -0.237   2.053   5.661  0.9234  0.3973  0.2385
  328MOL0     H43265  -0.258   2.111   5.820 -2.0683 -0.5511 -0.6454
  328MOL0     H43266  -0.441   1.970   5.764  1.5109  2.8844 -0.4003
  328MOL0     H43267  -0.356   1.909   5.913 -2.2454  1.0333  0.4302
  328MOL0     H43268  -0.284   1.815   5.638  0.5982  2.6649  1.9373
  328MOL0     H43269  -0.263   1.725   5.799  2.5855 -0.8870 -1.7191
  328MOL0     H43270  -0.435   1.624   5.652  0.0580 -0.4398  0.6346
  328MOL0     H43271  -0.522   1.778   5.658 -1.2956 -0.3776 -0.6518
  328MOL0     H43272  -0.526   1.740   5.916 -2.2881  0.3917  0.1313
  328MOL0     H43273  -0.452   1.586   5.874 -2.3180 -1.2474  1.2271
  328MOL0     H43274  -0.661   1.519   5.761 -1.1479 -0.0074 -0.6829
  328MOL0     H43275  -0.695   1.572   5.920  0.8731 -1.1613 -0.4104
  328MOL0     H43276  -0.861   1.688   5.855 -1.8773  1.6780 -2.5482
  328MOL0     H43277  -0.819   1.682   5.682 -0.4133 -1.2903 -0.1718
  328MOL0     H43278  -0.043   2.005   5.500  0.0967  0.5467 -1.2676
  328MOL0     H43279   0.144   2.045   5.340 -1.1295  3.3808  0.2383
  328MOL0     H43280   0.550   1.869   5.258 -1.8864 -0.4412 -3.4800
  328MOL0     H43281   0.757   1.810   5.124  0.2591 -0.3364  1.0670
  328MOL0     H43282   2.705   1.269   5.147  0.3242  0.2083  0.6019
  328MOL0     H43283   2.936   1.192   5.243  2.0461 -0.9544  3.0712
  328MOL0     H43284   3.209   1.196   5.636 -1.4935  0.6511 -1.0307
  328MOL0     H43285   3.419   1.205   5.737  0.9850 -2.3869 -1.0261
  328MOL0     H43286   3.763   1.332   5.481 -0.1009 -0.9656  0.6091
  328MOL0     H43287   3.842   1.282   5.629  0.0778 -1.4163 -1.9850
  328MOL0     H43288   3.921   1.500   5.598 -0.0864 -1.8638 -0.4266
  328MOL0     H43289   3.747   1.561   5.575  0.3624  3.2289  2.2304
  328MOL0     H43290   3.692   1.484   5.813  0.7353  0.2501  1.9049
  328MOL0     H43291   3.817   1.605   5.802 -0.9008  0.6587 -0.2547
  328MOL0     H43292   3.883   1.444   5.974  2.7467 -1.8706  0.4833
  328MOL0     H43293   3.898   1.314   5.856  1.8067 -0.7571  0.9417
  328MOL0     H43294   4.252   1.521   5.796 -0.4098  0.6603  0.8558
  328MOL0     H43295   3.595   1.397   5.393  0.6248 -0.6522  1.0093
  328MOL0     H43296   3.375   1.404   5.287 -0.0700 -0.7930 -1.1609
  329MOL0     O43297   0.215   8.857   2.663  0.0369  0.2219 -0.4404
  329MOL0     C43298   0.223   8.861   2.782 -0.3026  0.4076 -0.1468
  329MOL0     O43299   0.131   8.915   2.866  0.2927  0.1303 -0.0041
  329MOL0     C43300   0.029   8.975   2.806 -0.2640 -0.2598 -0.1395
  329MOL0     C43301  -0.093   8.932   2.850 -0.7228 -0.7555  0.1321
  329MOL0     C43302  -0.208   8.999   2.795 -0.1708  0.0042 -0.3851
  329MOL0     C43303  -0.194   9.092   2.685  0.5530 -0.4974 -0.1948
  329MOL0     O43304  -0.293   9.174   2.649  0.4216 -0.9659 -0.1347
  329MOL0     C43305  -0.429   9.146   2.682  0.2320 -0.1263 -1.0970
  329MOL0     C43306  -0.539   9.255   2.632 -0.9077  0.4673  0.9478
  329MOL0     C43307  -0.677   9.203   2.638  0.1133 -0.1217 -0.6689
  329MOL0     C43308  -0.745   9.199   2.774  0.7604  0.2307  0.0123
  329MOL0     C43309  -0.894   9.201   2.758 -0.8700  0.0751 -0.0731
  329MOL0     C43310  -0.945   9.077   2.702  0.5041  0.1715  0.1033
  329MOL0     C43311  -1.092   9.084   2.684  0.5973  1.1116  0.5247
  329MOL0     C43312  -1.178   9.070   2.818 -0.1459 -0.4409  0.3733
  329MOL0     N43313  -1.325   9.046   2.789  0.1179 -0.2176  0.3345
  329MOL0     C43314  -1.379   9.051   2.666  0.2665 -0.4432  0.1340
  329MOL0     C43315  -1.512   9.055   2.680  0.1485  0.3280 -0.5007
  329MOL0     C43316  -1.614   9.084   2.569  0.4048 -0.9493  0.5419
  329MOL0     C43317  -1.760   9.080   2.627 -0.3051  0.0487  0.4830
  329MOL0     C43318  -1.869   9.087   2.507 -0.5794  0.2452  0.7058
  329MOL0     C43319  -2.016   9.074   2.552 -0.1055 -0.0260 -0.0039
  329MOL0     O43320  -2.038   9.173   2.656 -0.3187 -0.1135 -0.1184
  329MOL0     C43321  -2.170   9.216   2.675  0.5695  1.1269  0.6918
  329MOL0     C43322  -2.191   9.280   2.799  0.4965 -0.3609  0.1253
  329MOL0     C43323  -2.317   9.307   2.851  0.3621 -0.1206 -0.0838
  329MOL0     C43324  -2.434   9.268   2.788 -0.3225  0.9135  0.5084
  329MOL0     C43325  -2.570   9.287   2.837  0.8521 -1.1972  0.7009
  329MOL0     O43326  -2.681   9.233   2.777 -0.2684  0.2192  0.2074
  329MOL0     C43327  -2.804   9.252   2.823 -0.1226 -0.2341 -0.9156
  329MOL0     C43328  -2.836   9.221   2.955 -0.1360  0.3997 -0.5671
  329MOL0     C43329  -2.961   9.247   3.010  0.1716 -0.2368 -0.7007
  329MOL0     C43330  -3.057   9.292   2.923  0.1177 -0.0383  0.3155
  329MOL0     O43331  -3.184   9.284   2.971 -0.3318  0.0470  0.5958
  329MOL0     C43332  -3.286   9.295   2.879  0.3246  0.3810  0.6579
  329MOL0     C43333  -3.415   9.227   2.942 -0.3653 -0.3100 -0.9317
  329MOL0     C43334  -3.473   9.099   2.873  0.9074  0.3182  0.1749
  329MOL0     C43335  -3.602   9.045   2.934  0.3160 -1.0939  0.0760
  329MOL0     C43336  -3.661   8.924   2.855 -0.7255  0.1328 -0.3708
  329MOL0     C43337  -3.785   8.848   2.912  0.0816 -0.3751  0.1047
  329MOL0     C43338  -3.882   8.939   2.982 -0.2164 -0.0532 -0.9805
  329MOL0     C43339  -4.012   8.866   3.018  0.0033 -0.0603 -0.5365
  329MOL0    Cl43340  -4.109   8.847   2.867 -0.1404  0.1319  0.2567
  329MOL0     C43341  -3.030   9.332   2.797 -0.8309 -0.0105  0.1153
  329MOL0     C43342  -2.901   9.312   2.747  0.1448 -0.7225  0.1621
  329MOL0     O43343  -2.581   9.356   2.941 -0.0501  0.6140 -0.4602
  329MOL0     C43344  -2.412   9.197   2.666 -0.3627 -0.6129  0.2839
  329MOL0     C43345  -2.281   9.163   2.615  0.3668 -0.4429 -0.4541
  329MOL0     N43346  -1.536   9.052   2.820  0.5388  0.7720 -0.1043
  329MOL0     N43347  -1.424   9.042   2.882  0.5891  0.0974 -1.0709
  329MOL0     C43348  -0.065   9.130   2.646  1.2005 -0.7024  0.0102
  329MOL0     C43349   0.042   9.071   2.702  0.5993  0.6525  0.7788
  329MOL0     C43350   0.333   8.787   2.848 -0.1440  0.7925 -0.2488
  329MOL0     C43351   0.360   8.803   2.993 -0.3978 -0.0251 -0.0431
  329MOL0     C43352   0.470   8.746   3.061 -1.3156 -0.1905  0.3890
  329MOL0     C43353   0.574   8.684   2.981 -0.0398 -0.5117  0.0415
  329MOL0     O43354   0.684   8.656   3.056 -0.1730  0.7155 -0.5544
  329MOL0     C43355   0.795   8.602   2.991 -1.2163  0.3209 -0.9095
  329MOL0     C43356   0.903   8.591   3.101 -0.3383 -0.7091 -0.0082
  329MOL0     C43357   0.880   8.487   3.211 -0.3819  0.0487 -0.6894
  329MOL0     C43358   0.897   8.342   3.154 -0.7164  0.1042 -0.3545
  329MOL0     C43359   0.936   8.256   3.262  0.2268  0.3974 -0.1475
  329MOL0     C43360   0.982   8.192   3.355  0.3807  0.6223  0.0822
  329MOL0     C43361   0.548   8.658   2.846  0.5970 -0.4721  0.5501
  329MOL0     C43362   0.430   8.711   2.780 -0.1810  0.2637  0.0402
  329MOL0     H43363  -0.082   8.861   2.931  1.2711 -2.9753 -1.9485
  329MOL0     H43364  -0.303   8.956   2.826 -1.0545  0.0282 -2.8509
  329MOL0     H43365  -0.441   9.140   2.790  0.1719  2.3320 -0.9139
  329MOL0     H43366  -0.454   9.048   2.640  2.9928 -1.3720 -0.0544
  329MOL0     H43367  -0.519   9.273   2.526 -0.4028 -1.4339  0.6707
  329MOL0     H43368  -0.538   9.353   2.681 -2.3671  0.3248  1.3033
  329MOL0     H43369  -0.683   9.102   2.599 -2.0220 -0.4475  0.3452
  329MOL0     H43370  -0.740   9.272   2.580 -0.2858  1.8361  1.8707
  329MOL0     H43371  -0.714   9.116   2.838  2.4324  2.1111  1.7977
  329MOL0     H43372  -0.711   9.279   2.841 -1.2595 -0.3520  1.8253
  329MOL0     H43373  -0.921   9.293   2.704 -0.6503  1.5180  2.1493
  329MOL0     H43374  -0.937   9.217   2.857 -0.1154  3.0332 -0.1150
  329MOL0     H43375  -0.919   8.989   2.762  0.7148 -1.4862 -2.2456
  329MOL0     H43376  -0.899   9.050   2.606  2.1368  0.1883  0.8387
  329MOL0     H43377  -1.111   9.176   2.628 -0.5556 -0.4891 -1.9103
  329MOL0     H43378  -1.118   9.004   2.614 -0.6519  1.3386  0.7009
  329MOL0     H43379  -1.159   9.164   2.870  0.1857  0.0735 -0.6626
  329MOL0     H43380  -1.148   8.979   2.871 -1.2298 -2.0714 -1.6511
  329MOL0     H43381  -1.333   9.064   2.569  2.8726 -0.1082  1.3430
  329MOL0     H43382  -1.611   9.011   2.488 -1.3220 -1.0133  0.4997
  329MOL0     H43383  -1.596   9.180   2.519  4.1231 -1.4436  0.6228
  329MOL0     H43384  -1.772   9.168   2.692 -3.7833 -0.0142  0.1457
  329MOL0     H43385  -1.783   8.999   2.696 -1.4192  0.0130  0.0927
  329MOL0     H43386  -1.849   9.176   2.446 -1.9437 -1.0614 -1.8482
  329MOL0     H43387  -1.854   9.006   2.434 -1.7811 -0.7729  1.5364
  329MOL0     H43388  -2.033   8.968   2.571  0.8151 -0.2827 -0.5342
  329MOL0     H43389  -2.074   9.102   2.464  1.1678 -0.0579 -0.8822
  329MOL0     H43390  -2.109   9.326   2.852  1.6056 -0.3414 -1.5422
  329MOL0     H43391  -2.315   9.361   2.945  2.3330  0.6028 -0.5001
  329MOL0     H43392  -2.756   9.181   3.016 -1.9503 -3.0718 -0.2259
  329MOL0     H43393  -2.980   9.237   3.116 -3.2879 -4.8326 -1.4219
  329MOL0     H43394  -3.267   9.254   2.780  2.6004 -0.9706  1.5596
  329MOL0     H43395  -3.289   9.403   2.860  2.6444  0.4489  0.3318
  329MOL0     H43396  -3.501   9.293   2.927 -2.9815 -3.6491 -1.9227
  329MOL0     H43397  -3.389   9.206   3.046  1.7180  1.9835 -0.8925
  329MOL0     H43398  -3.397   9.022   2.885  0.8078  0.3000  0.7327
  329MOL0     H43399  -3.496   9.119   2.768 -1.7709 -0.8551  0.4726
  329MOL0     H43400  -3.596   9.015   3.039 -0.8240 -1.7097 -0.0203
  329MOL0     H43401  -3.670   9.131   2.927  0.4785 -1.0208 -0.6233
  329MOL0     H43402  -3.585   8.848   2.836 -0.5247  0.1535  0.3418
  329MOL0     H43403  -3.682   8.969   2.757 -0.8407 -1.1707 -0.9645
  329MOL0     H43404  -3.756   8.771   2.984  2.1441 -1.6806 -2.0122
  329MOL0     H43405  -3.831   8.799   2.826  0.6988 -0.6180 -0.0873
  329MOL0     H43406  -3.835   8.988   3.068 -0.7831  0.4563 -0.9483
  329MOL0     H43407  -3.908   9.015   2.908 -3.9052 -3.1576 -3.2629
  329MOL0     H43408  -4.071   8.930   3.084  1.1019 -1.4203  1.8522
  329MOL0     H43409  -3.994   8.770   3.066  1.6848 -1.0523 -2.9795
  329MOL0     H43410  -3.100   9.372   2.725  0.9140  0.4298 -1.4160
  329MOL0     H43411  -2.876   9.365   2.656 -2.3245  0.4793  0.1044
  329MOL0     H43412  -2.502   9.155   2.623 -0.4422  0.4771 -0.6783
  329MOL0     H43413  -2.281   9.099   2.528 -2.1518 -1.4010  0.1662
  329MOL0     H43414  -0.064   9.212   2.575 -0.5572 -0.4902  0.1772
  329MOL0     H43415   0.140   9.104   2.670 -0.4184  3.5218  0.2505
  329MOL0     H43416   0.297   8.871   3.049  2.6685  3.3535 -0.2749
  329MOL0     H43417   0.478   8.753   3.169  0.4099  3.5687  0.1533
  329MOL0     H43418   0.824   8.675   2.915  1.0762 -0.0326 -0.4553
  329MOL0     H43419   0.784   8.498   2.957  0.0988 -0.7909  1.8051
  329MOL0     H43420   1.003   8.569   3.062  1.5545 -1.2396  4.5085
  329MOL0     H43421   0.910   8.685   3.156 -1.2387 -0.6093 -0.0629
  329MOL0     H43422   0.777   8.496   3.247 -0.1031 -0.9666  0.4102
  329MOL0     H43423   0.953   8.502   3.290 -1.5281  0.8003  0.2585
  329MOL0     H43424   0.806   8.301   3.108  0.3764 -3.0550  0.0548
  329MOL0     H43425   0.979   8.340   3.081  1.3196 -1.8265  1.8219
  329MOL0     H43426   1.019   8.148   3.445  1.7071  2.5919  0.5473
  329MOL0     H43427   0.625   8.601   2.795  1.5452  1.5586 -0.3641
  329MOL0     H43428   0.414   8.696   2.674 -0.4304  1.2281 -0.0649
  330MOL0     O43429   1.863   5.251  11.064 -0.3035  0.3980 -0.3632
  330MOL0     C43430   1.935   5.289  11.156  0.3301  0.6305  0.5418
  330MOL0     O43431   1.894   5.349  11.271 -0.0541 -0.7563 -0.2112
  330MOL0     C43432   1.756   5.374  11.285  0.9747  0.2243  0.1384
  330MOL0     C43433   1.675   5.267  11.301  0.2027  0.2581 -0.8323
  330MOL0     C43434   1.544   5.284  11.337  0.3441 -0.3279  0.3513
  330MOL0     C43435   1.498   5.421  11.343 -0.0918 -0.7422  0.7526
  330MOL0     O43436   1.363   5.456  11.334  0.3530  0.3490  0.3524
  330MOL0     C43437   1.290   5.403  11.450 -0.0521  1.3801 -0.3216
  330MOL0     C43438   1.146   5.433  11.447  0.3968  0.3416  0.9549
  330MOL0     C43439   1.096   5.413  11.600  1.1149  0.1342 -0.4117
  330MOL0     C43440   1.008   5.530  11.644  0.2861 -0.4002 -0.4274
  330MOL0     C43441   0.912   5.468  11.754 -0.0447 -0.4741  0.7751
  330MOL0     C43442   0.796   5.555  11.792 -0.3291  0.3341 -0.3029
  330MOL0     C43443   0.695   5.583  11.681 -0.4600  0.2172 -0.0064
  330MOL0     C43444   0.625   5.461  11.624  0.2434 -0.9880  0.1439
  330MOL0     N43445   0.503   5.507  11.559  0.4029 -0.6982 -0.4856
  330MOL0     C43446   0.375   5.525  11.616  0.1888 -0.3308 -0.0151
  330MOL0     C43447   0.286   5.528  11.515 -0.3616 -0.4276  0.2117
  330MOL0     C43448   0.140   5.549  11.536  0.9481  0.6834  0.1754
  330MOL0     C43449   0.067   5.589  11.405 -0.1309  0.5807 -0.1129
  330MOL0     C43450  -0.081   5.598  11.413  1.1652  0.2006 -0.2785
  330MOL0     C43451  -0.146   5.650  11.279 -0.2617  0.3536 -0.5442
  330MOL0     O43452  -0.294   5.652  11.298  0.2056 -1.0084  0.5905
  330MOL0     C43453  -0.373   5.548  11.291  0.4262  0.4454  0.8093
  330MOL0     C43454  -0.337   5.422  11.248 -0.9280  0.1468  0.7908
  330MOL0     C43455  -0.410   5.304  11.254  0.5090  0.6141 -0.1620
  330MOL0     C43456  -0.545   5.325  11.292 -0.1320 -0.6682 -0.6470
  330MOL0     C43457  -0.640   5.206  11.313  0.5955  0.6913  0.6123
  330MOL0     O43458  -0.770   5.234  11.348 -1.3140  0.0275 -0.1028
  330MOL0     C43459  -0.871   5.142  11.362 -0.6832  0.1807 -0.7659
  330MOL0     C43460  -0.884   5.015  11.299 -0.0367  0.0202 -0.4458
  330MOL0     C43461  -1.001   4.945  11.313  1.0981 -0.2227  0.0002
  330MOL0     C43462  -1.093   4.983  11.414  0.3320  0.3078 -0.0175
  330MOL0     O43463  -1.206   4.908  11.428  0.0013 -0.6209  0.3789
  330MOL0     C43464  -1.288   4.913  11.549  0.2879  0.1669 -0.0604
  330MOL0     C43465  -1.411   4.817  11.534 -0.4492 -0.0998 -0.4028
  330MOL0     C43466  -1.514   4.891  11.451  0.8428  0.3443  0.2050
  330MOL0     C43467  -1.651   4.825  11.430  0.2672 -0.5308 -0.6542
  330MOL0     C43468  -1.733   4.936  11.352 -0.0277 -0.3164  0.2574
  330MOL0     C43469  -1.878   4.884  11.320  0.0566  0.0476  0.1225
  330MOL0     C43470  -1.979   4.988  11.270  0.0365 -0.7079  0.5550
  330MOL0     C43471  -2.114   4.920  11.263  0.0896  0.1989  0.2004
  330MOL0    Cl43472  -2.095   4.776  11.149 -0.1051  0.1165  0.2870
  330MOL0     C43473  -1.082   5.110  11.476 -0.1260  0.2430 -0.6266
  330MOL0     C43474  -0.969   5.189  11.458 -0.7331 -0.1071 -0.1279
  330MOL0     O43475  -0.590   5.096  11.294  0.4273 -0.2887 -1.1306
  330MOL0     C43476  -0.597   5.454  11.324 -0.2806 -0.8198  0.2277
  330MOL0     C43477  -0.511   5.566  11.313 -0.2434 -0.2547  0.4416
  330MOL0     N43478   0.360   5.535  11.399  0.1314 -0.3384  0.2527
  330MOL0     N43479   0.485   5.514  11.421 -0.1372  0.0638 -0.1414
  330MOL0     C43480   1.584   5.531  11.333  0.1920 -0.8002  0.1292
  330MOL0     C43481   1.717   5.501  11.293  0.2111 -0.6442  0.5209
  330MOL0     C43482   2.078   5.260  11.148 -0.4817 -0.2244 -0.3002
  330MOL0     C43483   2.161   5.336  11.233 -0.5357 -0.0188  0.4701
  330MOL0     C43484   2.299   5.317  11.227  0.9353 -0.4940  0.0339
  330MOL0     C43485   2.355   5.235  11.127 -0.4178  1.1008 -0.4094
  330MOL0     O43486   2.492   5.211  11.127 -0.4640 -0.4716  0.1658
  330MOL0     C43487   2.583   5.310  11.078 -0.8010  0.4021 -0.0384
  330MOL0     C43488   2.646   5.271  10.950  0.5109 -0.7816  0.0973
  330MOL0     C43489   2.779   5.339  10.918 -0.4770  0.9054  0.2685
  330MOL0     C43490   2.895   5.295  11.008 -1.4819 -0.5262 -0.9898
  330MOL0     C43491   3.007   5.391  10.991  0.7143 -0.4661  0.1023
  330MOL0     C43492   3.099   5.466  10.972 -0.4536  0.0309  0.0215
  330MOL0     C43493   2.271   5.151  11.055  1.0122  0.4810  0.2153
  330MOL0     C43494   2.130   5.167  11.062 -0.8751  0.4358 -0.3622
  330MOL0     H43495   1.715   5.166  11.302  0.7095  0.4477  1.0992
  330MOL0     H43496   1.469   5.206  11.337  1.4144 -1.3869  1.2851
  330MOL0     H43497   1.328   5.444  11.543 -0.2772 -0.5573  0.6722
  330MOL0     H43498   1.286   5.295  11.465 -2.0745  1.2734 -1.2534
  330MOL0     H43499   1.092   5.359  11.388  2.1059 -0.8757  0.8640
  330MOL0     H43500   1.137   5.536  11.411  3.1477  0.5811  0.7369
  330MOL0     H43501   1.175   5.401  11.675  0.7725  0.5120  0.0128
  330MOL0     H43502   1.044   5.317  11.597  2.0669 -0.4014 -0.3032
  330MOL0     H43503   1.075   5.611  11.674  0.8704  0.3698 -3.4766
  330MOL0     H43504   0.946   5.568  11.562 -0.7803 -1.9499 -0.3787
  330MOL0     H43505   0.976   5.463  11.842  1.0093  3.8204  0.4630
  330MOL0     H43506   0.872   5.373  11.719 -1.8269  1.0713 -1.7508
  330MOL0     H43507   0.825   5.650  11.839 -0.7408  1.4904 -2.2630
  330MOL0     H43508   0.749   5.501  11.875  0.2673 -0.0124 -0.1874
  330MOL0     H43509   0.629   5.654  11.731  1.2746 -0.0542  2.9253
  330MOL0     H43510   0.737   5.638  11.596  1.1795  2.6654  2.2118
  330MOL0     H43511   0.607   5.396  11.710  1.3916 -0.1465  1.0422
  330MOL0     H43512   0.673   5.402  11.545 -1.3698  2.0565 -3.4108
  330MOL0     H43513   0.344   5.528  11.720  0.8371  1.2247  0.1615
  330MOL0     H43514   0.131   5.627  11.612 -1.5629  0.0719  0.6015
  330MOL0     H43515   0.087   5.458  11.566 -2.1220  2.1386 -0.4242
  330MOL0     H43516   0.102   5.532  11.319  1.0321  2.0476 -0.6530
  330MOL0     H43517   0.119   5.684  11.387  1.8469  0.3648  3.4372
  330MOL0     H43518  -0.128   5.502  11.436 -1.8440  1.5175 -0.4277
  330MOL0     H43519  -0.108   5.673  11.488  1.5020  2.5264 -2.3458
  330MOL0     H43520  -0.112   5.593  11.192 -0.3715  0.7521 -0.8521
  330MOL0     H43521  -0.106   5.747  11.247  1.4726 -0.6183 -1.4554
  330MOL0     H43522  -0.236   5.394  11.221 -2.7012 -4.1425 -2.6546
  330MOL0     H43523  -0.361   5.210  11.233  1.0515  0.6279  0.9775
  330MOL0     H43524  -0.802   4.990  11.232  1.0072  0.0140  0.8019
  330MOL0     H43525  -1.019   4.853  11.259  1.1620  1.9548 -4.1395
  330MOL0     H43526  -1.343   5.007  11.562  0.2882  0.4382 -1.7258
  330MOL0     H43527  -1.243   4.874  11.640  1.8899  1.0211 -0.4586
  330MOL0     H43528  -1.459   4.778  11.624  0.6316  2.1261  1.2309
  330MOL0     H43529  -1.372   4.735  11.474 -0.3877  1.3118 -2.3829
  330MOL0     H43530  -1.472   4.911  11.352  0.7960 -2.3093 -0.4417
  330MOL0     H43531  -1.537   4.983  11.505 -1.9929 -1.3135  2.0848
  330MOL0     H43532  -1.649   4.748  11.353 -2.7484 -1.0710 -0.3023
  330MOL0     H43533  -1.704   4.803  11.523  2.8751  1.5397  1.5005
  330MOL0     H43534  -1.686   4.956  11.256 -1.4304 -1.4480 -0.7108
  330MOL0     H43535  -1.739   5.024  11.417  0.8239  0.2215 -0.3732
  330MOL0     H43536  -1.908   4.841  11.417  1.5164 -2.1147 -0.2970
  330MOL0     H43537  -1.872   4.802  11.248 -2.5396  1.8187 -2.3034
  330MOL0     H43538  -1.985   5.083  11.325 -2.3815  0.1361 -1.0277
  330MOL0     H43539  -1.950   5.018  11.169  0.3501 -1.7555  0.3264
  330MOL0     H43540  -2.165   5.009  11.226  1.6713  1.4701  0.9593
  330MOL0     H43541  -2.147   4.889  11.362  1.1780 -0.1178  0.4764
  330MOL0     H43542  -1.172   5.148  11.523  0.8855  1.3797  0.4337
  330MOL0     H43543  -0.946   5.285  11.502  3.2898 -1.3022  0.7504
  330MOL0     H43544  -0.702   5.473  11.339  0.1958  1.5618  1.0537
  330MOL0     H43545  -0.549   5.664  11.339  0.8850 -0.2117  2.1367
  330MOL0     H43546   1.549   5.634  11.337 -0.9249 -1.1785  0.4799
  330MOL0     H43547   1.775   5.592  11.284  1.3216 -1.5376 -3.0125
  330MOL0     H43548   2.120   5.413  11.299 -0.2943 -1.6019  2.5876
  330MOL0     H43549   2.361   5.343  11.311 -0.3455  0.5094  0.7121
  330MOL0     H43550   2.666   5.326  11.147  1.5105  0.1361 -2.5733
  330MOL0     H43551   2.541   5.410  11.071  1.6294  1.4353 -0.6688
  330MOL0     H43552   2.648   5.163  10.938 -1.4540 -0.6528 -2.1161
  330MOL0     H43553   2.578   5.292  10.867  2.4204  2.4802 -0.8341
  330MOL0     H43554   2.757   5.446  10.927  0.7929  1.3771 -1.7013
  330MOL0     H43555   2.794   5.329  10.810  1.7788  1.0186  0.5130
  330MOL0     H43556   2.862   5.301  11.112  3.5864  1.1852  0.8016
  330MOL0     H43557   2.926   5.191  10.997 -2.1807 -0.8619  0.1451
  330MOL0     H43558   3.189   5.524  10.970 -0.1429 -0.2013  2.8201
  330MOL0     H43559   2.319   5.076  10.993  0.8236 -0.3989  1.0943
  330MOL0     H43560   2.073   5.096  11.002 -0.5822 -0.1368  0.0266
  331MOL0     O43561   5.966   9.953   4.119  0.2308 -0.2772 -0.5568
  331MOL0     C43562   5.971  10.014   4.008  0.5326 -0.3915  0.0285
  331MOL0     O43563   5.880  10.113   3.973  0.1860 -0.0782 -0.0655
  331MOL0     C43564   5.777  10.145   4.056  0.0784 -0.5848 -0.3372
  331MOL0     C43565   5.780  10.259   4.136  0.1869 -0.1791 -0.1729
  331MOL0     C43566   5.670  10.299   4.217  0.2864  0.7855 -0.2338
  331MOL0     C43567   5.552  10.227   4.203  0.1458 -0.5701  0.2811
  331MOL0     O43568   5.448  10.272   4.280  0.3549 -0.6112  0.4756
  331MOL0     C43569   5.313  10.281   4.225 -0.4947 -0.0791 -0.3658
  331MOL0     C43570   5.221  10.351   4.327  0.0143  0.3341  1.2073
  331MOL0     C43571   5.190  10.244   4.434  0.2839 -0.9377 -0.1402
  331MOL0     C43572   5.096  10.302   4.535  0.7991 -0.1644 -0.0886
  331MOL0     C43573   5.056  10.206   4.655 -0.1420  1.1861  0.1279
  331MOL0     C43574   4.940  10.111   4.611  0.0633 -0.3120  0.5489
  331MOL0     C43575   4.802  10.188   4.587 -0.5345 -0.0584 -0.1558
  331MOL0     C43576   4.734  10.140   4.464  0.4764  0.0295  0.7875
  331MOL0     N43577   4.811  10.158   4.345 -1.0552 -0.0900 -0.1256
  331MOL0     C43578   4.874  10.060   4.281  0.5566 -0.0823  0.0479
  331MOL0     C43579   4.944  10.128   4.186  0.2646  0.3671  0.3302
  331MOL0     C43580   5.022  10.058   4.078 -0.2347 -0.8926 -0.3972
  331MOL0     C43581   4.942   9.937   4.018 -0.0276  0.0197  0.1430
  331MOL0     C43582   4.998   9.905   3.877 -0.1524 -0.1353  0.3931
  331MOL0     C43583   5.128   9.815   3.890  0.3332  0.1306  1.0807
  331MOL0     O43584   5.237   9.913   3.902 -0.2600 -0.1261 -0.3270
  331MOL0     C43585   5.347   9.893   3.827  0.2547 -0.1226  0.6391
  331MOL0     C43586   5.428  10.000   3.779 -0.2342 -0.6139 -0.3705
  331MOL0     C43587   5.539   9.972   3.707 -0.2884  0.2404  0.6701
  331MOL0     C43588   5.585   9.839   3.678  0.6270  0.2643 -0.5123
  331MOL0     C43589   5.697   9.810   3.581 -0.7281  0.0524  0.4726
  331MOL0     O43590   5.786   9.917   3.552  0.1117 -0.4648 -0.3157
  331MOL0     C43591   5.887   9.898   3.467 -0.2635 -1.0062  0.8964
  331MOL0     C43592   5.981   9.790   3.464  0.1461  0.1524 -0.4976
  331MOL0     C43593   6.091   9.791   3.377 -0.3406 -0.3957 -1.4383
  331MOL0     C43594   6.116   9.894   3.286 -0.3704 -0.0778  0.6864
  331MOL0     O43595   6.214   9.901   3.186 -0.2053  0.0137 -0.2410
  331MOL0     C43596   6.335   9.820   3.212  0.1816  0.2616 -0.1946
  331MOL0     C43597   6.426   9.815   3.092  0.6451  0.2569  0.0790
  331MOL0     C43598   6.539   9.717   3.100  0.2448 -0.6808  0.0601
  331MOL0     C43599   6.526   9.591   3.175  0.4893  0.6211 -0.1174
  331MOL0     C43600   6.660   9.511   3.157  1.3110  0.7699 -0.5793
  331MOL0     C43601   6.644   9.371   3.223 -0.4699 -0.4314  0.8965
  331MOL0     C43602   6.734   9.351   3.346  0.2465 -0.0920  0.5591
  331MOL0     C43603   6.705   9.460   3.454 -0.2098 -0.6457 -0.7145
  331MOL0    Cl43604   6.550   9.435   3.533 -0.0660 -0.2115 -0.3177
  331MOL0     C43605   6.016   9.997   3.283 -0.4425  0.7829 -0.1960
  331MOL0     C43606   5.911   9.997   3.374 -0.2981 -0.0645 -0.1753
  331MOL0     O43607   5.710   9.695   3.541  0.1621  0.5967 -0.0438
  331MOL0     C43608   5.501   9.737   3.730 -0.2747 -0.1331 -0.8549
  331MOL0     C43609   5.385   9.758   3.797  0.0107 -0.1848  0.8942
  331MOL0     N43610   4.923  10.269   4.194 -0.7052 -0.2230  0.1351
  331MOL0     N43611   4.846  10.284   4.294 -0.2876 -0.4871  0.2105
  331MOL0     C43612   5.542  10.120   4.113  0.4648  0.0459  0.1990
  331MOL0     C43613   5.658  10.084   4.041 -0.8811 -0.2186  0.5333
  331MOL0     C43614   6.073   9.974   3.915 -0.0514  0.3262 -0.7383
  331MOL0     C43615   6.067  10.022   3.783 -0.5285 -0.0721  0.0453
  331MOL0     C43616   6.168   9.979   3.689  0.0881  0.1295 -0.9163
  331MOL0     C43617   6.270   9.894   3.725  0.2172  0.4025 -0.4175
  331MOL0     O43618   6.355   9.843   3.632 -0.0358  0.1773  0.3558
  331MOL0     C43619   6.486   9.804   3.673  0.0567  0.7419 -0.2649
  331MOL0     C43620   6.575   9.805   3.552  0.6512  0.7599  0.1468
  331MOL0     C43621   6.612   9.942   3.509 -0.1226 -0.7896 -0.8008
  331MOL0     C43622   6.712   9.961   3.385  0.1766  0.6004 -0.5894
  331MOL0     C43623   6.833   9.880   3.400  0.8468 -0.1687  1.2925
  331MOL0     C43624   6.926   9.809   3.412 -0.5625  0.6536 -0.2485
  331MOL0     C43625   6.274   9.847   3.854 -0.2386 -0.1188  0.1508
  331MOL0     C43626   6.178   9.886   3.957  0.3119 -0.5329  0.5603
  331MOL0     H43627   5.867  10.322   4.149  0.5228 -1.0455  2.3356
  331MOL0     H43628   5.669  10.380   4.290 -0.8856  0.3658  0.2241
  331MOL0     H43629   5.279  10.186   4.184 -0.7532 -0.4197  0.5969
  331MOL0     H43630   5.331  10.359   4.151  1.2251  2.4771  2.4891
  331MOL0     H43631   5.126  10.397   4.296 -1.5358 -2.6043  1.2517
  331MOL0     H43632   5.268  10.437   4.376  0.5607 -0.4704  2.1277
  331MOL0     H43633   5.279  10.217   4.491 -1.6322  0.4106  3.8312
  331MOL0     H43634   5.157  10.155   4.379  2.0149 -1.3663 -0.5467
  331MOL0     H43635   5.154  10.378   4.588 -0.0434 -0.8230  1.8719
  331MOL0     H43636   5.009  10.355   4.496  1.7609  2.2470  0.7911
  331MOL0     H43637   5.018  10.267   4.738 -1.3751  2.1573 -1.0905
  331MOL0     H43638   5.142  10.159   4.703  0.5390  3.0299  0.8095
  331MOL0     H43639   4.927  10.035   4.689  0.0145 -0.2474  0.6051
  331MOL0     H43640   4.971  10.063   4.518 -0.2129  0.2947  0.1308
  331MOL0     H43641   4.742  10.158   4.673  1.1103  0.0061  1.0672
  331MOL0     H43642   4.828  10.294   4.592  4.0251 -1.0316  2.2152
  331MOL0     H43643   4.635  10.187   4.460 -0.9486 -2.4432  2.7584
  331MOL0     H43644   4.721  10.031   4.474 -0.8527 -0.0340 -1.1163
  331MOL0     H43645   4.875   9.954   4.304  0.5163  0.1801  1.3585
  331MOL0     H43646   5.110  10.026   4.134 -0.9334 -2.0276  0.1029
  331MOL0     H43647   5.057  10.121   3.996 -1.4918 -1.4391 -1.3804
  331MOL0     H43648   4.838   9.969   4.012 -0.1995 -0.2254  1.4029
  331MOL0     H43649   4.952   9.845   4.077  0.0509 -1.6891 -2.3991
  331MOL0     H43650   4.917   9.842   3.839 -0.6522  1.6865 -1.7693
  331MOL0     H43651   5.010   9.995   3.817 -0.6765 -0.1399  0.2793
  331MOL0     H43652   5.138   9.745   3.807  2.8685  2.0114 -0.3510
  331MOL0     H43653   5.112   9.751   3.977  2.6663 -1.5365  0.3959
  331MOL0     H43654   5.383  10.097   3.798 -0.4863 -0.8508  0.2688
  331MOL0     H43655   5.601  10.051   3.666  0.0481  0.3391  1.3542
  331MOL0     H43656   5.968   9.701   3.524  1.4494  0.1808 -0.1539
  331MOL0     H43657   6.157   9.704   3.372 -1.7545 -1.7287  0.9467
  331MOL0     H43658   6.298   9.719   3.233 -1.9553  1.3562  1.8408
  331MOL0     H43659   6.397   9.845   3.299 -0.9542 -3.2695  1.8175
  331MOL0     H43660   6.465   9.916   3.080 -0.1465  0.4220 -1.3358
  331MOL0     H43661   6.356   9.782   3.014 -3.6713 -0.5669  3.8810
  331MOL0     H43662   6.623   9.768   3.148 -1.7010  0.8763  1.9578
  331MOL0     H43663   6.557   9.688   2.995 -2.0417 -0.7218 -0.3648
  331MOL0     H43664   6.505   9.613   3.280  1.3953  0.7433  0.0448
  331MOL0     H43665   6.440   9.536   3.136  0.2289  1.8958 -1.4634
  331MOL0     H43666   6.745   9.564   3.198  0.9426 -0.3223  1.7506
  331MOL0     H43667   6.677   9.498   3.049 -0.3899  1.0567 -0.9166
  331MOL0     H43668   6.671   9.288   3.156  0.9118 -0.4266  1.4275
  331MOL0     H43669   6.537   9.362   3.241 -1.1459  1.8931 -1.3176
  331MOL0     H43670   6.724   9.255   3.397  0.4012  1.5250  3.8826
  331MOL0     H43671   6.840   9.354   3.316  0.0304  1.6896 -0.2065
  331MOL0     H43672   6.706   9.560   3.410  1.1612 -0.5304 -0.4734
  331MOL0     H43673   6.790   9.463   3.523 -0.9035 -0.2152  0.1401
  331MOL0     H43674   6.025  10.073   3.206 -1.4282  0.0133 -1.1072
  331MOL0     H43675   5.843  10.081   3.375 -3.0903 -2.1603  1.5510
  331MOL0     H43676   5.531   9.635   3.710 -0.8375 -0.6556  0.8384
  331MOL0     H43677   5.337   9.670   3.839 -0.4270 -1.4464 -1.9906
  331MOL0     H43678   5.446  10.070   4.116  0.0372  0.8881  1.1309
  331MOL0     H43679   5.644   9.998   3.977 -0.6025 -0.8212  1.2732
  331MOL0     H43680   5.986  10.080   3.740 -0.2897  0.7293  0.6541
  331MOL0     H43681   6.170  10.014   3.586  0.2668  4.4514  0.3780
  331MOL0     H43682   6.492   9.701   3.709 -0.5903  0.3014 -1.3804
  331MOL0     H43683   6.512   9.864   3.760 -1.3538  0.2744  0.5097
  331MOL0     H43684   6.669   9.750   3.562  1.4822  2.0106 -0.5805
  331MOL0     H43685   6.520   9.741   3.482  2.7302  0.8788 -1.6795
  331MOL0     H43686   6.655   9.979   3.603  1.8046 -0.1384 -1.8913
  331MOL0     H43687   6.532  10.011   3.479  0.1229 -1.2945 -2.7438
  331MOL0     H43688   6.665   9.932   3.291 -1.3373  4.1968 -1.0926
  331MOL0     H43689   6.740  10.067   3.380 -0.9827  0.8495 -3.2247
  331MOL0     H43690   7.004   9.737   3.419 -0.0152  1.3736  1.6669
  331MOL0     H43691   6.344   9.770   3.884  0.1430 -0.3951 -1.3475
  331MOL0     H43692   6.181   9.854   4.061  0.1565  1.3544  1.1813
  332MOL0     O43693   5.160  10.057   6.272  0.2483  0.2065  0.6927
  332MOL0     C43694   5.193   9.941   6.266  0.4366  0.3542  0.7154
  332MOL0     O43695   5.109   9.834   6.236  0.1448  0.0761  0.0632
  332MOL0     C43696   4.974   9.859   6.205  0.7458 -0.5535 -0.5072
  332MOL0     C43697   4.888   9.741   6.221  0.0908  0.5677 -0.0513
  332MOL0     C43698   4.756   9.736   6.186 -0.0377 -0.4071 -0.6141
  332MOL0     C43699   4.695   9.849   6.163  0.6413 -0.5922  0.4682
  332MOL0     O43700   4.559   9.846   6.132 -0.0781 -0.4779  0.5268
  332MOL0     C43701   4.490   9.970   6.142 -0.1956 -0.2673  0.0687
  332MOL0     C43702   4.344   9.956   6.126  0.7181 -0.4470 -1.2157
  332MOL0     C43703   4.262  10.092   6.156  0.1842 -0.9044  0.5573
  332MOL0     C43704   4.107  10.066   6.160  0.5222  0.0240 -0.3932
  332MOL0     C43705   4.025  10.192   6.159  0.7186  0.1011 -0.6409
  332MOL0     C43706   3.877  10.169   6.199 -0.3551 -0.6628  0.3159
  332MOL0     C43707   3.792  10.299   6.218 -0.0321 -0.5556 -0.5253
  332MOL0     C43708   3.661  10.286   6.285 -0.5926 -0.2684 -0.6401
  332MOL0     N43709   3.575  10.181   6.240  0.0229  0.4503 -0.0586
  332MOL0     C43710   3.494  10.202   6.130 -0.5638  0.9040 -0.0537
  332MOL0     C43711   3.444  10.080   6.107  0.1325  0.5891 -0.0249
  332MOL0     C43712   3.371  10.036   5.982 -0.1214  0.4588  0.7631
  332MOL0     C43713   3.258  10.122   5.933 -0.3850 -0.5172 -0.1160
  332MOL0     C43714   3.124  10.075   6.001 -0.3620  0.4022  0.7279
  332MOL0     C43715   3.037   9.990   5.909 -0.1850 -0.0930 -0.5224
  332MOL0     O43716   2.935   9.957   5.999  0.3775 -0.0536  0.2207
  332MOL0     C43717   2.817   9.908   5.952  0.6345 -0.9634  0.2586
  332MOL0     C43718   2.780   9.872   5.813  0.2182 -0.2261  0.5308
  332MOL0     C43719   2.653   9.827   5.782 -0.3991 -0.0092 -0.0008
  332MOL0     C43720   2.554   9.814   5.880  0.3657 -0.2443 -0.7600
  332MOL0     C43721   2.416   9.770   5.843  0.1927  0.3063 -0.2581
  332MOL0     O43722   2.339   9.724   5.943 -0.0735 -0.4315 -0.9283
  332MOL0     C43723   2.214   9.664   5.918  0.5616 -0.0334 -0.5874
  332MOL0     C43724   2.138   9.673   5.792  0.4253 -1.0199 -0.4344
  332MOL0     C43725   2.031   9.586   5.777 -0.6619 -0.0871 -0.0840
  332MOL0     C43726   1.994   9.490   5.870 -0.4894 -0.3403  1.0576
  332MOL0     O43727   1.897   9.398   5.851 -0.3221  0.9473 -0.5745
  332MOL0     C43728   1.767   9.444   5.836 -0.5691  0.8516 -0.6039
  332MOL0     C43729   1.671   9.325   5.885 -0.1132 -0.3365 -0.1521
  332MOL0     C43730   1.517   9.352   5.878  0.1782 -0.4852  0.4815
  332MOL0     C43731   1.425   9.231   5.895  0.1511 -0.8477  0.5475
  332MOL0     C43732   1.273   9.263   5.890  0.1779 -0.3909 -0.3472
  332MOL0     C43733   1.181   9.146   5.930  0.0150  0.0294  1.0011
  332MOL0     C43734   1.036   9.195   5.926  0.2884 -0.0193 -0.0924
  332MOL0     C43735   0.989   9.291   6.042  0.2712 -0.2917  0.2352
  332MOL0    Cl43736   1.005   9.456   6.002  0.8785  0.0209  0.2332
  332MOL0     C43737   2.064   9.478   5.989 -0.8637  0.2931  0.3856
  332MOL0     C43738   2.168   9.569   6.013 -0.0432  0.1213 -0.3736
  332MOL0     O43739   2.393   9.761   5.726  0.2274  0.0914  0.5526
  332MOL0     C43740   2.576   9.858   6.009 -0.0937  0.0515 -0.8132
  332MOL0     C43741   2.704   9.904   6.046 -0.1994  0.4744 -0.6095
  332MOL0     N43742   3.491   9.991   6.206 -0.1025 -0.0924  0.3663
  332MOL0     N43743   3.575  10.056   6.283  1.0007 -0.3984  0.9620
  332MOL0     C43744   4.761   9.976   6.164 -0.7675  0.2775  0.3080
  332MOL0     C43745   4.908   9.980   6.178 -0.2745  0.0851  1.0325
  332MOL0     C43746   5.334   9.904   6.286  0.4462 -0.3049  0.1567
  332MOL0     C43747   5.373   9.768   6.298 -0.2040 -1.4180 -0.5566
  332MOL0     C43748   5.505   9.725   6.310  0.1449 -0.2831 -0.6239
  332MOL0     C43749   5.608   9.822   6.321  0.1204  0.3673  0.4269
  332MOL0     O43750   5.741   9.799   6.336 -0.6748 -0.0194 -0.2367
  332MOL0     C43751   5.785   9.656   6.317 -0.5617  0.3695  0.3740
  332MOL0     C43752   5.941   9.639   6.298  0.1563 -0.5514  0.1290
  332MOL0     C43753   5.999   9.714   6.191 -0.0200 -0.4966  0.6417
  332MOL0     C43754   6.147   9.741   6.183  0.3502  1.1131 -0.3765
  332MOL0     C43755   6.220   9.610   6.171 -0.1933  0.2458 -0.3526
  332MOL0     C43756   6.287   9.506   6.166  0.4501 -0.0641  0.1287
  332MOL0     C43757   5.575   9.948   6.272  0.2622  0.4199 -0.5498
  332MOL0     C43758   5.439   9.992   6.259  0.1601  0.1077  0.7323
  332MOL0     H43759   4.935   9.648   6.251  2.1441  0.6961 -2.5178
  332MOL0     H43760   4.690   9.652   6.202  1.2532 -1.1783  0.9254
  332MOL0     H43761   4.521  10.040   6.064 -0.3789 -0.2223  0.0349
  332MOL0     H43762   4.513  10.018   6.238 -2.3494 -1.5502  1.3109
  332MOL0     H43763   4.313   9.884   6.202  1.2038  0.8313  0.2428
  332MOL0     H43764   4.325   9.921   6.024  0.4581  1.1114 -1.7295
  332MOL0     H43765   4.294  10.160   6.077  2.2544 -1.2292  1.0658
  332MOL0     H43766   4.281  10.141   6.252 -0.9211  0.9665 -0.1241
  332MOL0     H43767   4.066  10.002   6.082 -2.8154 -3.0267  3.4533
  332MOL0     H43768   4.082  10.008   6.249 -2.1776 -2.8026 -2.7775
  332MOL0     H43769   4.018  10.230   6.057 -3.2013  0.9759 -0.2148
  332MOL0     H43770   4.075  10.260   6.229 -2.3406 -0.2558  2.1425
  332MOL0     H43771   3.878  10.103   6.286 -0.0309 -0.2869  0.6066
  332MOL0     H43772   3.822  10.127   6.115 -0.0961 -0.6815  0.1553
  332MOL0     H43773   3.852  10.365   6.282  0.5286 -1.4307 -0.1321
  332MOL0     H43774   3.773  10.341   6.118  1.3154  1.3218 -0.0602
  332MOL0     H43775   3.608  10.380   6.269  0.8377  0.5055 -1.0244
  332MOL0     H43776   3.677  10.275   6.393 -1.6267 -0.7500 -0.5209
  332MOL0     H43777   3.476  10.294   6.075 -2.9509  1.5719  1.6735
  332MOL0     H43778   3.342   9.931   5.977  0.7154  0.2601 -3.9262
  332MOL0     H43779   3.445  10.027   5.902 -1.2117 -0.9136 -0.1422
  332MOL0     H43780   3.257  10.119   5.824  0.1040  1.6964 -0.2274
  332MOL0     H43781   3.278  10.226   5.961  0.6697 -0.1655 -2.0240
  332MOL0     H43782   3.132  10.027   6.099  0.1141 -0.0853  0.4569
  332MOL0     H43783   3.065  10.166   6.013 -1.6428 -0.3592  0.3749
  332MOL0     H43784   3.086   9.899   5.876 -0.2264  0.1481 -1.2688
  332MOL0     H43785   3.007  10.060   5.830  3.3601  2.9560  0.5257
  332MOL0     H43786   2.838   9.896   5.725 -0.5961 -0.7450 -0.1660
  332MOL0     H43787   2.634   9.792   5.681 -1.2281  2.2657 -0.7043
  332MOL0     H43788   2.162   9.741   5.711 -2.1397  2.6260  1.5260
  332MOL0     H43789   1.978   9.595   5.682 -0.3265  0.5444 -0.2211
  332MOL0     H43790   1.747   9.462   5.730 -1.0125  3.9790 -0.0751
  332MOL0     H43791   1.764   9.534   5.897 -2.3690  1.3741 -1.3756
  332MOL0     H43792   1.700   9.313   5.989 -0.8441  0.3877  0.1386
  332MOL0     H43793   1.688   9.230   5.833  0.1433 -1.0772  1.2398
  332MOL0     H43794   1.503   9.389   5.776 -0.6181  1.5315  1.2754
  332MOL0     H43795   1.484   9.429   5.947 -2.0539 -2.5945  1.9235
  332MOL0     H43796   1.449   9.163   5.812  1.6420  3.9117 -3.4234
  332MOL0     H43797   1.442   9.179   5.989 -0.5826 -0.2626  1.0146
  332MOL0     H43798   1.246   9.280   5.785  1.7732 -2.0587 -1.0800
  332MOL0     H43799   1.248   9.348   5.954 -0.8916  0.9251 -2.4098
  332MOL0     H43800   1.195   9.099   6.028 -0.5585 -2.3410  0.0249
  332MOL0     H43801   1.201   9.064   5.860 -1.7758  1.0625 -0.8108
  332MOL0     H43802   1.027   9.245   5.829 -1.7001  2.4236  1.2374
  332MOL0     H43803   0.967   9.111   5.919  0.8589 -0.4513 -0.7311
  332MOL0     H43804   1.048   9.273   6.133  2.2939 -0.2405 -0.9988
  332MOL0     H43805   0.884   9.280   6.070 -0.0586 -0.5207 -1.0453
  332MOL0     H43806   2.042   9.407   6.068  3.8180  0.4925  2.2135
  332MOL0     H43807   2.201   9.566   6.117 -2.3096 -1.8439  0.3816
  332MOL0     H43808   2.501   9.844   6.086  3.1211 -2.0739  2.2426
  332MOL0     H43809   2.726   9.933   6.148  1.7443  4.3529 -1.9115
  332MOL0     H43810   4.721  10.074   6.138  1.3715  0.7567 -1.6023
  332MOL0     H43811   4.943  10.083   6.183 -1.4998  0.7532 -1.8298
  332MOL0     H43812   5.296   9.692   6.290 -1.0152 -1.1330  2.9985
  332MOL0     H43813   5.511   9.617   6.322  3.8073 -0.2362 -0.8605
  332MOL0     H43814   5.728   9.606   6.239 -0.6671 -0.9725  1.2839
  332MOL0     H43815   5.748   9.598   6.402 -4.6889  1.3113 -0.5757
  332MOL0     H43816   5.983   9.666   6.396  0.4732 -1.1759  0.1707
  332MOL0     H43817   5.973   9.537   6.273  0.8892  0.0568 -1.5209
  332MOL0     H43818   5.942   9.807   6.181 -0.4451 -0.7278  0.8980
  332MOL0     H43819   5.986   9.658   6.098  1.8774  0.7262 -0.4295
  332MOL0     H43820   6.179   9.795   6.094 -0.2159  0.5977 -0.8973
  332MOL0     H43821   6.188   9.785   6.274  2.2394 -2.3171  0.6345
  332MOL0     H43822   6.351   9.422   6.155 -0.2167 -0.3260 -2.0954
  332MOL0     H43823   5.654  10.021   6.259  1.6668 -0.9352  0.1362
  332MOL0     H43824   5.433  10.096   6.229 -1.2812 -0.3148 -0.5996
  333MOL0     O43825   5.992   1.820   8.404  0.0415 -0.4303 -0.3632
  333MOL0     C43826   6.020   1.913   8.318 -0.7277  0.7001  0.5409
  333MOL0     O43827   5.929   1.991   8.251  0.4281 -0.4142 -0.1095
  333MOL0     C43828   5.804   2.003   8.313 -0.3526 -0.7137 -0.8398
  333MOL0     C43829   5.712   1.906   8.291 -0.5178 -1.0206 -0.1036
  333MOL0     C43830   5.588   1.908   8.348 -0.3946  0.0325  0.1797
  333MOL0     C43831   5.552   2.017   8.434  0.0618  0.1978 -0.2496
  333MOL0     O43832   5.419   2.031   8.474  0.1625 -0.3187  0.2443
  333MOL0     C43833   5.367   2.162   8.509  0.6020 -0.4704  1.0079
  333MOL0     C43834   5.222   2.141   8.542  0.5479 -0.6138  0.2503
  333MOL0     C43835   5.159   2.271   8.583 -0.0571 -0.0350 -0.9643
  333MOL0     C43836   5.020   2.266   8.635 -0.5913  0.3584  1.1759
  333MOL0     C43837   4.911   2.265   8.532 -0.4032  0.0255  0.2696
  333MOL0     C43838   4.773   2.276   8.607  0.4988  0.3246 -0.5139
  333MOL0     C43839   4.656   2.272   8.510  0.2356 -0.0772 -0.5057
  333MOL0     C43840   4.515   2.330   8.560 -0.2745 -0.2618 -0.2666
  333MOL0     N43841   4.395   2.259   8.512 -0.5950  0.0215  1.2000
  333MOL0     C43842   4.282   2.326   8.463 -0.3557  0.2669  0.7974
  333MOL0     C43843   4.191   2.223   8.450  0.1615  0.0809  0.2823
  333MOL0     C43844   4.052   2.230   8.404 -0.7697  0.1046 -0.2269
  333MOL0     C43845   3.964   2.099   8.417 -0.0814 -0.0925  0.0563
  333MOL0     C43846   3.972   1.985   8.315  0.3360 -0.5031  1.1942
  333MOL0     C43847   4.086   1.882   8.341 -0.5268  0.3306 -0.3277
  333MOL0     O43848   4.067   1.766   8.260 -0.3392  0.2623 -0.1838
  333MOL0     C43849   3.976   1.675   8.319  0.2674 -0.4248  0.1785
  333MOL0     C43850   4.006   1.603   8.429 -0.2636  0.4814 -0.1255
  333MOL0     C43851   3.925   1.501   8.479 -0.2978 -0.7802 -0.4565
  333MOL0     C43852   3.798   1.482   8.421 -0.0428 -1.1734  0.0635
  333MOL0     C43853   3.693   1.405   8.492  0.3827 -0.0370  0.8331
  333MOL0     O43854   3.597   1.355   8.411 -0.2659 -0.3196  0.4317
  333MOL0     C43855   3.510   1.253   8.449 -0.6080 -0.3618 -0.5749
  333MOL0     C43856   3.562   1.135   8.503  0.4176 -0.2052  0.4606
  333MOL0     C43857   3.474   1.040   8.553 -0.0369  0.2312 -0.7484
  333MOL0     C43858   3.334   1.059   8.540  1.0395  0.2448 -0.1933
  333MOL0     O43859   3.235   0.965   8.577 -0.3775  0.9170 -0.5489
  333MOL0     C43860   3.266   0.840   8.628  0.3790 -0.3976  0.1675
  333MOL0     C43861   3.149   0.801   8.718 -0.9041 -0.1577  0.2264
  333MOL0     C43862   3.018   0.760   8.649 -0.2899  0.1841 -0.1603
  333MOL0     C43863   2.920   0.734   8.763 -0.3142 -0.4159 -0.0960
  333MOL0     C43864   2.791   0.684   8.698 -0.1002 -0.0586 -1.1814
  333MOL0     C43865   2.709   0.592   8.786  0.5396 -0.2889 -0.4638
  333MOL0     C43866   2.633   0.674   8.890  0.8547  0.4862 -0.2657
  333MOL0     C43867   2.540   0.568   8.962  0.7330  1.1329 -0.9158
  333MOL0    Cl43868   2.403   0.527   8.865 -0.0522  0.1555 -0.1327
  333MOL0     C43869   3.283   1.173   8.478  0.3328 -0.1570 -0.6892
  333MOL0     C43870   3.375   1.267   8.434  0.3296  0.5844 -0.2854
  333MOL0     O43871   3.705   1.390   8.612 -0.6327  0.3801 -0.6656
  333MOL0     C43872   3.752   1.566   8.316 -0.3302  0.4830  0.7710
  333MOL0     C43873   3.842   1.657   8.258 -0.4256 -0.0343 -0.4204
  333MOL0     N43874   4.251   2.108   8.485  0.4955 -0.2534 -0.1721
  333MOL0     N43875   4.373   2.127   8.517 -0.8542 -0.5315 -0.4086
  333MOL0     C43876   5.654   2.107   8.468 -0.0410  0.2039 -0.4031
  333MOL0     C43877   5.783   2.106   8.409 -0.1413  0.0264 -0.0261
  333MOL0     C43878   6.162   1.938   8.290  0.5612  0.0507 -0.4141
  333MOL0     C43879   6.256   1.871   8.366 -0.2672 -0.0306  0.6601
  333MOL0     C43880   6.392   1.895   8.347 -0.1979 -0.3920 -0.1891
  333MOL0     C43881   6.443   1.995   8.257  0.1171 -1.1279  0.2519
  333MOL0     O43882   6.574   2.015   8.233 -0.2751 -0.1373 -0.1006
  333MOL0     C43883   6.669   1.929   8.309 -0.2192  0.7309  0.2664
  333MOL0     C43884   6.821   1.935   8.269  0.1937 -1.2510  0.4767
  333MOL0     C43885   6.894   1.800   8.316  0.1259 -0.1491  0.4154
  333MOL0     C43886   7.041   1.829   8.310 -0.1159  0.8272 -0.7618
  333MOL0     C43887   7.131   1.709   8.332  0.0193 -0.4763 -1.0899
  333MOL0     C43888   7.203   1.613   8.357 -0.2365 -0.6181  0.1702
  333MOL0     C43889   6.346   2.072   8.186  0.0835  0.3459 -0.5584
  333MOL0     C43890   6.209   2.034   8.202  0.1754 -0.7465 -0.5910
  333MOL0     H43891   5.743   1.829   8.221  2.3961 -0.7341  0.7668
  333MOL0     H43892   5.506   1.842   8.322 -1.6516  1.3147  0.8115
  333MOL0     H43893   5.382   2.230   8.424 -1.4839 -0.6586  0.4401
  333MOL0     H43894   5.412   2.210   8.596 -0.4909 -1.7543  2.3314
  333MOL0     H43895   5.217   2.083   8.635 -2.1441  0.6837  1.0196
  333MOL0     H43896   5.180   2.085   8.458 -1.3766 -0.8053  1.2810
  333MOL0     H43897   5.167   2.340   8.498  1.7675  2.1960  0.8764
  333MOL0     H43898   5.230   2.301   8.661  0.8972 -1.7765 -1.1035
  333MOL0     H43899   5.010   2.181   8.703 -1.8741 -0.7246 -0.3171
  333MOL0     H43900   4.995   2.342   8.711 -2.0894 -1.6679  2.8118
  333MOL0     H43901   4.899   2.162   8.496  0.1571 -0.8542  2.4499
  333MOL0     H43902   4.926   2.329   8.445 -1.0554 -3.4801 -2.6568
  333MOL0     H43903   4.761   2.368   8.666 -1.6523 -1.0073  1.2766
  333MOL0     H43904   4.774   2.187   8.671  0.4707  1.2262  0.7864
  333MOL0     H43905   4.687   2.330   8.423 -0.3471  1.2637  0.1576
  333MOL0     H43906   4.649   2.172   8.465  1.7927  0.3605 -1.8208
  333MOL0     H43907   4.514   2.434   8.525 -0.4745 -0.2180 -0.1288
  333MOL0     H43908   4.510   2.329   8.670 -1.3646  0.8694 -0.2867
  333MOL0     H43909   4.263   2.430   8.438 -0.8349  0.0906  0.4168
  333MOL0     H43910   4.054   2.257   8.297  3.6414  2.6896  0.2372
  333MOL0     H43911   4.006   2.306   8.466 -2.6530  0.1823 -1.6421
  333MOL0     H43912   3.859   2.130   8.412  0.8421  3.7905  1.7813
  333MOL0     H43913   3.976   2.059   8.518 -0.4339 -2.4785 -0.7689
  333MOL0     H43914   3.871   1.942   8.315  0.7426 -1.6531 -1.3075
  333MOL0     H43915   3.981   2.029   8.215  2.0585  0.8640  1.9143
  333MOL0     H43916   4.080   1.867   8.449  2.7085  1.7792  0.1644
  333MOL0     H43917   4.173   1.941   8.312 -1.0655  1.4313  0.2464
  333MOL0     H43918   4.106   1.598   8.472  0.1230 -2.3649 -1.1317
  333MOL0     H43919   3.954   1.447   8.568 -0.4832 -2.2938 -1.2838
  333MOL0     H43920   3.669   1.116   8.505  1.4349  4.3494 -0.1411
  333MOL0     H43921   3.522   0.950   8.590 -1.0022 -0.5713 -1.3814
  333MOL0     H43922   3.355   0.827   8.691 -0.4600 -0.9031  1.2897
  333MOL0     H43923   3.283   0.766   8.549  0.9993  1.3611 -1.4412
  333MOL0     H43924   3.135   0.882   8.790  2.4887  0.2133  0.6297
  333MOL0     H43925   3.183   0.723   8.786 -1.1512  1.5043  2.4007
  333MOL0     H43926   3.049   0.674   8.588 -0.5310 -1.0427  1.3605
  333MOL0     H43927   2.982   0.836   8.580 -2.3305 -0.7594 -0.1932
  333MOL0     H43928   2.962   0.656   8.829  0.7877  0.1472 -0.1009
  333MOL0     H43929   2.892   0.820   8.825  1.1850  0.0562 -0.0383
  333MOL0     H43930   2.820   0.618   8.616  2.8027 -1.7509  1.0100
  333MOL0     H43931   2.730   0.766   8.660 -3.3733 -1.1186  1.2774
  333MOL0     H43932   2.766   0.517   8.841 -0.9413  0.7077  2.6649
  333MOL0     H43933   2.628   0.546   8.728 -0.9269  2.8700 -1.1662
  333MOL0     H43934   2.706   0.720   8.957  0.0421  0.4610  0.6539
  333MOL0     H43935   2.574   0.753   8.842 -1.3495  0.2444  1.8525
  333MOL0     H43936   2.489   0.608   9.050 -0.8695 -1.0304 -0.7603
  333MOL0     H43937   2.595   0.480   8.998  1.4200  1.9946  0.1938
  333MOL0     H43938   3.176   1.192   8.475 -0.0051 -1.5601  0.7973
  333MOL0     H43939   3.352   1.366   8.396 -0.4039  2.3539  4.1722
  333MOL0     H43940   3.647   1.561   8.289 -0.7604 -0.3936  2.4215
  333MOL0     H43941   3.812   1.719   8.173  0.1853  2.1919  0.9025
  333MOL0     H43942   5.650   2.183   8.545 -0.1189 -0.6787  0.4699
  333MOL0     H43943   5.856   2.186   8.413 -0.1318 -0.0209  1.0230
  333MOL0     H43944   6.229   1.795   8.439 -0.6335  1.2721  1.9250
  333MOL0     H43945   6.455   1.821   8.396  1.4040  0.2583 -1.1844
  333MOL0     H43946   6.642   1.825   8.291  1.0183  0.5193 -0.4195
  333MOL0     H43947   6.654   1.944   8.417  0.6949 -1.9483  0.8276
  333MOL0     H43948   6.833   1.957   8.163  1.0289 -1.9393  0.4088
  333MOL0     H43949   6.869   2.015   8.327  1.4919  0.2756 -2.4879
  333MOL0     H43950   6.872   1.716   8.249  4.3921 -0.8203 -0.4441
  333MOL0     H43951   6.884   1.772   8.421 -0.9357 -2.3928 -0.2192
  333MOL0     H43952   7.071   1.881   8.218 -0.7587  0.4819 -1.1695
  333MOL0     H43953   7.066   1.906   8.383  0.1797  0.8822 -0.9176
  333MOL0     H43954   7.255   1.524   8.387  0.6213  0.7939  3.2410
  333MOL0     H43955   6.376   2.150   8.116 -0.0348  1.7045  0.8427
  333MOL0     H43956   6.133   2.077   8.139 -2.4688 -1.6285  1.8024
  334MOL0     O43957   1.599   1.745   8.039 -0.1522 -0.2711 -0.6453
  334MOL0     C43958   1.600   1.638   8.101  0.0047  0.1715 -0.3145
  334MOL0     O43959   1.509   1.530   8.091  0.6089 -0.2007 -0.6763
  334MOL0     C43960   1.383   1.534   8.027 -0.5343  0.1182  0.0360
  334MOL0     C43961   1.315   1.408   8.022  0.1664  0.1463  0.5225
  334MOL0     C43962   1.191   1.405   7.958 -0.2628 -0.5484 -0.3859
  334MOL0     C43963   1.124   1.517   7.917  0.2167 -0.2991  0.1672
  334MOL0     O43964   0.992   1.503   7.868 -0.0893 -0.1760  0.2498
  334MOL0     C43965   0.905   1.621   7.876  0.6066  0.2282  0.1588
  334MOL0     C43966   0.771   1.575   7.818 -0.5954  0.6472 -0.2708
  334MOL0     C43967   0.676   1.497   7.908  0.0748 -1.0390 -0.0844
  334MOL0     C43968   0.657   1.557   8.052 -0.6662  0.0978  0.0005
  334MOL0     C43969   0.530   1.498   8.112  0.6860  0.2228  0.3478
  334MOL0     C43970   0.550   1.368   8.197  0.2340 -1.3596  0.6507
  334MOL0     C43971   0.410   1.304   8.255  0.4657  0.1810  0.0979
  334MOL0     C43972   0.358   1.205   8.150  0.9524  0.5489  0.5644
  334MOL0     N43973   0.216   1.163   8.182 -0.3921  0.0808  0.2214
  334MOL0     C43974   0.171   1.091   8.291 -0.2978 -0.2132  0.7644
  334MOL0     C43975   0.040   1.069   8.255 -0.5101  0.0340 -1.1839
  334MOL0     C43976  -0.046   0.984   8.343  0.2599 -0.4140 -0.7079
  334MOL0     C43977  -0.127   0.870   8.268 -0.2289 -0.6674 -0.2492
  334MOL0     C43978  -0.243   0.819   8.363 -1.0499  0.0630  0.2529
  334MOL0     C43979  -0.374   0.826   8.283  0.3391 -0.4734  0.6426
  334MOL0     O43980  -0.364   0.716   8.191 -0.2473 -0.1903  0.3750
  334MOL0     C43981  -0.474   0.642   8.158 -0.3710  0.4621 -0.2305
  334MOL0     C43982  -0.472   0.501   8.155  0.4681  0.4349  1.1521
  334MOL0     C43983  -0.590   0.425   8.128 -0.9709 -0.5295 -0.4125
  334MOL0     C43984  -0.711   0.490   8.113  0.4853 -0.5658  0.7870
  334MOL0     C43985  -0.835   0.422   8.075  0.1992 -0.0820  0.5392
  334MOL0     O43986  -0.953   0.494   8.050 -0.2408  0.3615  0.0157
  334MOL0     C43987  -1.072   0.430   8.025 -0.4898  0.1294  0.7454
  334MOL0     C43988  -1.112   0.331   8.110  0.0537 -1.0863 -0.4974
  334MOL0     C43989  -1.242   0.296   8.105 -1.1815  0.3070  0.3624
  334MOL0     C43990  -1.331   0.345   8.011 -0.1879  0.4236 -0.4639
  334MOL0     O43991  -1.452   0.288   7.988  0.2100  0.4846 -1.3623
  334MOL0     C43992  -1.537   0.273   8.101 -0.1676 -0.6785 -0.0848
  334MOL0     C43993  -1.679   0.232   8.049 -0.4469 -0.6596  0.7854
  334MOL0     C43994  -1.755   0.365   8.022  0.1543  0.8859  0.0953
  334MOL0     C43995  -1.903   0.323   7.978  0.5117 -0.0181 -0.0564
  334MOL0     C43996  -1.987   0.443   7.981 -0.4102 -0.3556 -0.0600
  334MOL0     C43997  -1.951   0.548   7.882 -0.7537 -0.2358 -0.2873
  334MOL0     C43998  -2.015   0.690   7.912  0.4149  0.3758 -0.3897
  334MOL0     C43999  -1.967   0.766   8.029 -0.4258  0.8537  0.2331
  334MOL0    Cl44000  -1.796   0.773   8.049 -0.1813  0.0331  0.1654
  334MOL0     C44001  -1.285   0.434   7.913 -0.1877 -0.4249 -0.6098
  334MOL0     C44002  -1.156   0.483   7.915 -0.4519  0.2344  0.0525
  334MOL0     O44003  -0.823   0.301   8.054 -0.3087 -0.5410 -0.2118
  334MOL0     C44004  -0.713   0.627   8.111 -0.4157 -0.8528  0.1142
  334MOL0     C44005  -0.594   0.704   8.122  0.1015 -0.5304  0.1365
  334MOL0     N44006   0.015   1.135   8.135 -0.3254  0.8871  0.4061
  334MOL0     N44007   0.116   1.183   8.092  0.1940  0.0619 -0.3185
  334MOL0     C44008   1.186   1.641   7.933  0.1506  0.3545 -0.6374
  334MOL0     C44009   1.319   1.647   7.977  0.9241  1.0987  0.1812
  334MOL0     C44010   1.711   1.631   8.191 -0.3203  0.1499 -1.0691
  334MOL0     C44011   1.762   1.743   8.254 -0.3057  0.1764 -0.4787
  334MOL0     C44012   1.867   1.731   8.347  0.9422  0.1013 -0.6516
  334MOL0     C44013   1.923   1.608   8.380 -0.0060  0.3897  0.5476
  334MOL0     O44014   2.036   1.595   8.462 -0.1406 -0.0865 -0.7385
  334MOL0     C44015   2.112   1.711   8.501  0.4169 -0.3067 -0.0281
  334MOL0     C44016   2.248   1.645   8.528  0.6849  0.2402  0.0378
  334MOL0     C44017   2.340   1.742   8.606 -0.0053  0.4217 -0.4191
  334MOL0     C44018   2.472   1.664   8.612  0.2540  0.1617 -0.3105
  334MOL0     C44019   2.565   1.769   8.645  0.3711  0.5859  1.3294
  334MOL0     C44020   2.652   1.854   8.654  0.7023  0.1441 -0.6549
  334MOL0     C44021   1.872   1.494   8.314  0.3602  0.6242  0.2777
  334MOL0     C44022   1.767   1.504   8.224 -0.1515  0.2396 -1.4133
  334MOL0     H44023   1.371   1.322   8.057  1.7694  0.2945 -1.5335
  334MOL0     H44024   1.146   1.311   7.928 -2.6781  0.6933 -0.9113
  334MOL0     H44025   0.943   1.701   7.812  1.2519  0.0667  0.3341
  334MOL0     H44026   0.894   1.642   7.983 -0.2052 -1.0493  0.3486
  334MOL0     H44027   0.795   1.528   7.722 -0.6019 -0.6722  0.3515
  334MOL0     H44028   0.716   1.665   7.789 -1.0026  0.3658 -0.3736
  334MOL0     H44029   0.712   1.397   7.931  0.4041 -0.8232  0.3733
  334MOL0     H44030   0.581   1.473   7.860 -0.3542  0.1712  0.1237
  334MOL0     H44031   0.743   1.536   8.116 -0.7822  3.0669  1.2860
  334MOL0     H44032   0.648   1.665   8.041  0.9258  0.1763 -0.8221
  334MOL0     H44033   0.466   1.461   8.031  2.0417 -2.6706  0.4395
  334MOL0     H44034   0.479   1.574   8.173 -0.0970 -1.4516  1.8984
  334MOL0     H44035   0.607   1.401   8.284 -1.5201  4.0964  0.1071
  334MOL0     H44036   0.607   1.295   8.138  0.1106 -1.1463  0.2681
  334MOL0     H44037   0.433   1.247   8.346  1.0190  1.6265  0.8953
  334MOL0     H44038   0.336   1.376   8.291  1.1799  0.4462  1.0811
  334MOL0     H44039   0.417   1.113   8.146  0.2591  0.0473 -3.8394
  334MOL0     H44040   0.354   1.244   8.048 -3.1979 -1.5121 -0.2974
  334MOL0     H44041   0.230   1.042   8.367  3.0863  2.4020  0.1013
  334MOL0     H44042  -0.126   1.053   8.372 -2.1051 -2.4998 -1.9495
  334MOL0     H44043   0.005   0.959   8.437 -1.1537  0.2759  0.2967
  334MOL0     H44044  -0.059   0.789   8.239  3.9194  1.6671  1.9095
  334MOL0     H44045  -0.169   0.927   8.185 -0.8256  0.9981  1.1556
  334MOL0     H44046  -0.219   0.715   8.389  3.8782  0.1124 -2.7742
  334MOL0     H44047  -0.254   0.891   8.444  1.5684  1.2665 -0.3557
  334MOL0     H44048  -0.378   0.920   8.228  0.8954 -1.4362 -1.1198
  334MOL0     H44049  -0.469   0.819   8.338 -0.1969 -1.5224 -0.3885
  334MOL0     H44050  -0.383   0.440   8.166  0.9245  1.1171  1.2292
  334MOL0     H44051  -0.593   0.317   8.116 -1.2575 -0.3408 -2.3586
  334MOL0     H44052  -1.035   0.281   8.168 -0.9081  0.5943  2.4684
  334MOL0     H44053  -1.268   0.205   8.158  1.0870  0.4669  1.8909
  334MOL0     H44054  -1.535   0.369   8.152  3.0602 -0.6008 -0.2012
  334MOL0     H44055  -1.497   0.207   8.178 -1.9247  1.4268  2.8533
  334MOL0     H44056  -1.734   0.174   8.124 -2.8293  0.2116 -0.1746
  334MOL0     H44057  -1.668   0.173   7.958  0.2220  0.1269  0.3460
  334MOL0     H44058  -1.700   0.417   7.943 -2.8948  3.3811 -0.5594
  334MOL0     H44059  -1.767   0.428   8.111 -0.0530  0.5217  0.3303
  334MOL0     H44060  -1.925   0.273   7.884 -1.9992  1.2798 -0.2375
  334MOL0     H44061  -1.940   0.253   8.053 -2.4572 -1.3848 -2.6143
  334MOL0     H44062  -1.995   0.496   8.076 -0.3274  1.2968 -0.9275
  334MOL0     H44063  -2.086   0.414   7.943  0.3243 -0.3348 -2.1231
  334MOL0     H44064  -1.983   0.513   7.783 -0.4925 -4.3475  0.8691
  334MOL0     H44065  -1.844   0.563   7.866 -0.3169 -0.3277  2.0776
  334MOL0     H44066  -1.998   0.754   7.825 -3.3600 -0.3503 -1.8741
  334MOL0     H44067  -2.123   0.672   7.924  0.7630 -2.4324 -0.9750
  334MOL0     H44068  -2.001   0.717   8.120  1.5550 -1.4943 -0.1533
  334MOL0     H44069  -2.014   0.864   8.035 -1.7055  0.2950 -0.2334
  334MOL0     H44070  -1.345   0.474   7.832 -1.7052  3.1316  1.9879
  334MOL0     H44071  -1.118   0.551   7.839  4.3867  0.0488  1.9719
  334MOL0     H44072  -0.803   0.686   8.097  1.4618  1.9503 -0.8487
  334MOL0     H44073  -0.598   0.813   8.117  1.3061 -0.4795 -0.1301
  334MOL0     H44074   1.141   1.735   7.902  1.2071  1.7319  1.7363
  334MOL0     H44075   1.362   1.746   7.966 -1.9872  2.9801  3.7092
  334MOL0     H44076   1.728   1.846   8.247  2.2089  1.2668  1.5238
  334MOL0     H44077   1.901   1.818   8.403 -1.3313 -0.6001  2.0770
  334MOL0     H44078   2.071   1.757   8.591 -2.1901  1.7273 -2.0973
  334MOL0     H44079   2.121   1.794   8.430 -0.3747 -0.5945 -0.4764
  334MOL0     H44080   2.243   1.550   8.581 -0.1276 -0.9706 -2.0570
  334MOL0     H44081   2.285   1.617   8.428 -0.7429 -2.4483  0.1805
  334MOL0     H44082   2.307   1.769   8.706  0.6767 -0.5880  0.1017
  334MOL0     H44083   2.353   1.840   8.559  4.2834  0.2115 -0.1163
  334MOL0     H44084   2.470   1.583   8.686  2.0450 -1.0127 -1.4831
  334MOL0     H44085   2.498   1.619   8.516  1.1706  1.0345 -0.4843
  334MOL0     H44086   2.728   1.929   8.665 -0.0820  0.6565  2.3733
  334MOL0     H44087   1.914   1.402   8.351 -3.1038 -0.5605  1.6521
  334MOL0     H44088   1.735   1.406   8.190  1.0309 -0.0909 -1.6256
  335MOL0     O44089   3.878   9.669  11.282 -0.3706  0.2294 -0.1801
  335MOL0     C44090   3.958   9.700  11.191 -0.0471  0.3426  0.5143
  335MOL0     O44091   4.059   9.618  11.144 -0.2640 -0.7068  0.5366
  335MOL0     C44092   4.075   9.490  11.188  0.2584  0.3942 -0.0810
  335MOL0     C44093   3.969   9.397  11.221 -0.3430 -0.7070 -0.6569
  335MOL0     C44094   4.011   9.273  11.258  1.1111  0.1748 -0.6784
  335MOL0     C44095   4.143   9.229  11.276  0.4604  0.3192  0.3412
  335MOL0     O44096   4.171   9.099  11.297  0.2168  0.2193  0.2174
  335MOL0     C44097   4.302   9.056  11.326 -0.1139  0.5216 -0.3309
  335MOL0     C44098   4.339   9.081  11.466  0.2449 -0.7560 -0.3734
  335MOL0     C44099   4.492   9.085  11.485 -0.2381  0.2841  0.4135
  335MOL0     C44100   4.575   8.976  11.414  0.0668  0.4992 -0.0378
  335MOL0     C44101   4.724   8.970  11.476  0.1437 -0.2393 -0.3046
  335MOL0     C44102   4.822   8.879  11.390 -0.0983  0.3980 -0.9763
  335MOL0     C44103   4.970   8.896  11.437 -0.0442  0.4291 -0.0082
  335MOL0     C44104   5.074   8.823  11.337  0.7570 -0.4136 -0.4941
  335MOL0     N44105   5.207   8.887  11.368  1.1899 -0.4699  0.3476
  335MOL0     C44106   5.280   8.874  11.487 -1.2687  0.2731  0.4663
  335MOL0     C44107   5.386   8.960  11.461 -0.0562  0.7468  0.1444
  335MOL0     C44108   5.503   8.972  11.558 -0.8849  0.5597  0.4442
  335MOL0     C44109   5.628   8.906  11.505 -0.7777  0.2954  0.1619
  335MOL0     C44110   5.761   8.967  11.570  0.0077  0.0509 -0.3089
  335MOL0     C44111   5.871   8.950  11.463  0.0364  0.1692  0.1446
  335MOL0     O44112   6.001   8.968  11.516  0.5261  0.1508  0.9726
  335MOL0     C44113   6.109   8.972  11.438 -0.8338 -0.1064  1.0658
  335MOL0     C44114   6.235   9.009  11.491 -0.3949  0.6690  0.5593
  335MOL0     C44115   6.349   8.988  11.411 -0.4136 -0.3556 -1.2163
  335MOL0     C44116   6.344   8.961  11.272 -0.3590  1.1337 -0.3338
  335MOL0     C44117   6.464   8.953  11.186 -0.5420 -0.9813 -0.2419
  335MOL0     O44118   6.581   8.959  11.250 -0.2548  0.5146  0.1418
  335MOL0     C44119   6.709   8.945  11.198 -0.0899 -0.7450 -0.6554
  335MOL0     C44120   6.814   8.982  11.278  0.7960 -0.4687 -0.9433
  335MOL0     C44121   6.951   8.989  11.238 -0.6190 -0.3006  0.1193
  335MOL0     C44122   6.979   8.961  11.102 -0.3296 -0.9298 -0.9719
  335MOL0     O44123   7.104   8.962  11.046  0.5452  0.6314  0.2910
  335MOL0     C44124   7.220   8.987  11.132 -0.1437  0.1568  0.4836
  335MOL0     C44125   7.343   8.946  11.045  0.7470 -0.4111 -0.6089
  335MOL0     C44126   7.460   8.977  11.127 -0.1326 -0.2039 -0.6148
  335MOL0     C44127   7.600   8.981  11.058  0.7046 -0.0973  0.2696
  335MOL0     C44128   7.725   8.984  11.148 -0.7223  0.0009  0.5775
  335MOL0     C44129   7.732   9.103  11.239  0.2991  0.1978  0.0881
  335MOL0     C44130   7.873   9.138  11.291 -0.4105 -0.0069  0.4722
  335MOL0     C44131   7.970   9.152  11.175  0.0237  0.5674 -0.9274
  335MOL0    Cl44132   8.132   9.211  11.221  0.1356 -0.1594 -0.0265
  335MOL0     C44133   6.881   8.897  11.032 -0.5879 -0.7927 -0.1940
  335MOL0     C44134   6.741   8.892  11.074 -0.8962 -0.1553  0.8672
  335MOL0     O44135   6.450   8.940  11.060  0.5617 -1.1624  0.7319
  335MOL0     C44136   6.216   8.932  11.216  0.9626  0.4600 -0.0977
  335MOL0     C44137   6.104   8.946  11.297 -0.5286  1.1392 -0.3872
  335MOL0     N44138   5.374   9.024  11.343 -0.3926 -0.4398 -0.5378
  335MOL0     N44139   5.264   8.985  11.287 -0.3053  0.7215  0.0252
  335MOL0     C44140   4.240   9.323  11.248 -0.1121 -0.8063  0.5955
  335MOL0     C44141   4.208   9.448  11.201  0.7414 -0.3053 -0.2307
  335MOL0     C44142   3.943   9.831  11.120  0.1443  0.2196  0.0000
  335MOL0     C44143   4.048   9.879  11.037 -0.4575  0.8136  0.2571
  335MOL0     C44144   4.048  10.007  10.983 -1.1158 -0.3336 -0.5807
  335MOL0     C44145   3.931  10.089  10.994 -0.2424  0.0116  0.8348
  335MOL0     O44146   3.900  10.203  10.930 -0.2275  0.3544 -0.7273
  335MOL0     C44147   3.986  10.254  10.827  0.9585 -0.3644 -0.1871
  335MOL0     C44148   3.912  10.348  10.733 -0.0141 -0.5070 -0.3754
  335MOL0     C44149   3.881  10.481  10.790  0.2248  0.6328  0.0899
  335MOL0     C44150   4.007  10.574  10.808 -0.5909 -0.2888  0.9100
  335MOL0     C44151   4.045  10.668  10.697  0.1143  0.6652 -0.1731
  335MOL0     C44152   4.063  10.762  10.620  0.2503  0.8745 -0.1907
  335MOL0     C44153   3.831  10.038  11.064 -0.2910  0.1835 -0.3045
  335MOL0     C44154   3.829   9.907  11.126 -0.1803 -0.1956  0.2125
  335MOL0     H44155   3.863   9.419  11.213 -0.8748 -2.9114 -0.4469
  335MOL0     H44156   3.935   9.204  11.293  0.8844  0.2564 -1.0052
  335MOL0     H44157   4.369   9.108  11.257  1.4824 -0.1084  0.7023
  335MOL0     H44158   4.302   8.947  11.321 -2.3329 -0.0739  5.1390
  335MOL0     H44159   4.286   9.004  11.524 -2.1574  1.6435  0.8437
  335MOL0     H44160   4.283   9.164  11.509  0.7159 -0.8731  0.4943
  335MOL0     H44161   4.520   9.072  11.590  1.0362  1.0580  0.1882
  335MOL0     H44162   4.531   9.179  11.445  0.4990 -0.8188 -1.6590
  335MOL0     H44163   4.529   8.877  11.417 -0.3444  0.2763 -4.8724
  335MOL0     H44164   4.582   8.985  11.305  0.1184  1.1878  0.0179
  335MOL0     H44165   4.718   8.928  11.577 -2.4808 -1.2027 -0.7976
  335MOL0     H44166   4.763   9.072  11.473 -4.1118  1.5851 -3.0559
  335MOL0     H44167   4.807   8.919  11.289  0.9031 -1.3895 -1.8866
  335MOL0     H44168   4.785   8.777  11.383  0.3762  0.0967  0.6173
  335MOL0     H44169   4.996   9.002  11.440  0.4395  0.3240 -0.2455
  335MOL0     H44170   4.985   8.861  11.539  3.1377  4.0927  1.0324
  335MOL0     H44171   5.038   8.837  11.234  1.8428 -0.7499 -0.9275
  335MOL0     H44172   5.058   8.718  11.361 -0.5314 -0.2060 -0.3526
  335MOL0     H44173   5.272   8.805  11.571  0.7584  1.4414  1.7311
  335MOL0     H44174   5.466   8.938  11.655 -1.3732  1.2241  0.5003
  335MOL0     H44175   5.531   9.077  11.567 -2.4543  1.3159 -2.3067
  335MOL0     H44176   5.627   8.907  11.396 -1.4737  3.6933  0.0771
  335MOL0     H44177   5.628   8.803  11.541  1.6459  0.4816  0.9059
  335MOL0     H44178   5.754   9.070  11.606 -1.0493 -1.1997  3.5956
  335MOL0     H44179   5.792   8.913  11.660 -2.5905  1.2461  1.4207
  335MOL0     H44180   5.858   9.024  11.384  0.1686 -2.4021 -2.4697
  335MOL0     H44181   5.862   8.849  11.421  0.6597 -0.6895  1.9593
  335MOL0     H44182   6.242   9.037  11.596 -2.7983  2.0962  0.4257
  335MOL0     H44183   6.435   9.005  11.475 -1.6300 -1.2082  0.7617
  335MOL0     H44184   6.787   9.022  11.375 -1.4853 -0.6328 -1.4363
  335MOL0     H44185   7.013   9.029  11.318 -2.1547 -1.5398  2.0380
  335MOL0     H44186   7.208   8.936  11.227  1.7193  2.1510  1.9052
  335MOL0     H44187   7.225   9.094  11.154  0.4571  0.3483 -0.5220
  335MOL0     H44188   7.350   8.986  10.943  1.7127 -3.2757 -1.7792
  335MOL0     H44189   7.351   8.837  11.039 -0.9831 -0.6581  0.8362
  335MOL0     H44190   7.489   8.915  11.212  0.9302 -1.0360 -1.5559
  335MOL0     H44191   7.448   9.079  11.164  0.7686  0.9767 -3.3618
  335MOL0     H44192   7.606   8.903  10.982 -0.7134  0.5120 -0.5033
  335MOL0     H44193   7.591   9.071  10.997  1.0813 -0.8450 -0.9317
  335MOL0     H44194   7.807   8.984  11.075 -0.7773  2.9050  0.3666
  335MOL0     H44195   7.728   8.898  11.215 -0.2248  0.4418  1.1412
  335MOL0     H44196   7.665   9.084  11.323 -0.7704  1.1224 -0.5278
  335MOL0     H44197   7.690   9.187  11.182 -1.3149  0.7847  2.0372
  335MOL0     H44198   7.879   9.227  11.353 -0.0287 -0.2485  0.7868
  335MOL0     H44199   7.908   9.059  11.359 -0.2217 -0.1304  0.2307
  335MOL0     H44200   7.929   9.225  11.105 -0.8597  1.9301  0.9103
  335MOL0     H44201   7.984   9.058  11.121  0.3451  0.5577 -0.8290
  335MOL0     H44202   6.901   8.843  10.940  0.2291 -0.0121 -0.4869
  335MOL0     H44203   6.673   8.859  10.997  1.3578 -0.6025 -1.0242
  335MOL0     H44204   6.206   8.925  11.108  1.8272  0.2650 -0.1734
  335MOL0     H44205   6.013   8.924  11.244 -0.4623  0.4938 -0.2407
  335MOL0     H44206   4.346   9.304  11.256 -0.3708 -2.4735  0.5382
  335MOL0     H44207   4.289   9.509  11.163 -0.0616 -0.9906 -3.3257
  335MOL0     H44208   4.136   9.818  11.023 -1.9758 -2.2924  2.9307
  335MOL0     H44209   4.119  10.052  10.914 -1.2474 -3.5300 -3.0087
  335MOL0     H44210   4.015  10.168  10.765 -2.3090 -1.0788 -0.8957
  335MOL0     H44211   4.082  10.295  10.861  0.1653  0.1192  1.5438
  335MOL0     H44212   3.961  10.355  10.636  0.5874  0.4583 -0.0233
  335MOL0     H44213   3.813  10.309  10.708 -1.2571  2.4856 -0.4603
  335MOL0     H44214   3.856  10.472  10.896  1.7032  1.1807  0.5134
  335MOL0     H44215   3.802  10.526  10.730 -1.0989  0.8668  1.9206
  335MOL0     H44216   4.005  10.628  10.903 -3.8552 -2.7667  2.4321
  335MOL0     H44217   4.096  10.510  10.806  0.2556  0.8634 -1.6777
  335MOL0     H44218   4.085  10.847  10.558  3.6844 -0.7800 -1.5191
  335MOL0     H44219   3.740  10.098  11.069  0.0804  0.8783 -1.4425
  335MOL0     H44220   3.750   9.879  11.194 -0.2549  1.1994  0.7379
  336MOL0     O44221   0.363   0.136   5.837 -0.1257  0.5659 -1.0580
  336MOL0     C44222   0.365   0.093   5.723  0.5672  0.3826  0.9171
  336MOL0     O44223   0.258   0.094   5.636  0.6461  0.2532 -0.6360
  336MOL0     C44224   0.147   0.157   5.685  0.6394  0.4842 -0.1775
  336MOL0     C44225   0.041   0.084   5.734 -0.4533 -1.5904 -0.6456
  336MOL0     C44226  -0.082   0.147   5.760  0.0445 -0.7682  0.5339
  336MOL0     C44227  -0.101   0.282   5.751  0.6335 -0.2425 -0.1932
  336MOL0     O44228  -0.231   0.333   5.770 -0.6546  0.5486 -0.1192
  336MOL0     C44229  -0.252   0.475   5.746 -0.8457  1.6641  0.8821
  336MOL0     C44230  -0.385   0.518   5.810 -0.6730  0.2649  0.7466
  336MOL0     C44231  -0.503   0.481   5.722  0.4097 -0.0256 -0.5640
  336MOL0     C44232  -0.631   0.508   5.801  0.0581 -0.1883  0.3711
  336MOL0     C44233  -0.747   0.468   5.710 -0.4502 -0.2296 -0.3058
  336MOL0     C44234  -0.884   0.480   5.768  0.4951 -0.2950  0.2510
  336MOL0     C44235  -0.904   0.387   5.884 -0.1446  0.7141 -0.0942
  336MOL0     C44236  -1.043   0.413   5.951 -0.4996  0.9517 -0.5720
  336MOL0     N44237  -1.153   0.343   5.884 -0.0301  0.1115  0.7800
  336MOL0     C44238  -1.227   0.248   5.946 -0.2313 -0.3157 -0.3794
  336MOL0     C44239  -1.334   0.239   5.877  0.2724  0.3687  0.0027
  336MOL0     C44240  -1.457   0.149   5.899 -0.1845 -0.1113  0.2170
  336MOL0     C44241  -1.480   0.051   5.775  0.5153 -0.7661 -0.7879
  336MOL0     C44242  -1.592  -0.046   5.816  0.3666 -0.2543  0.2100
  336MOL0     C44243  -1.692  -0.056   5.705  0.8804  0.4826  0.5108
  336MOL0     O44244  -1.796  -0.149   5.759  0.1223 -0.1126 -0.3725
  336MOL0     C44245  -1.867  -0.223   5.667  0.2360  0.6329  0.8701
  336MOL0     C44246  -1.943  -0.330   5.713 -0.1860  0.9150  0.1451
  336MOL0     C44247  -2.018  -0.417   5.631  0.1761  0.5149 -0.0080
  336MOL0     C44248  -2.028  -0.393   5.492  0.7040 -0.7903 -0.1641
  336MOL0     C44249  -2.113  -0.466   5.391 -0.1826  0.0027  0.1097
  336MOL0     O44250  -2.149  -0.412   5.269  0.6412 -0.0457  0.3317
  336MOL0     C44251  -2.213  -0.496   5.181  0.0878 -0.6089  0.9139
  336MOL0     C44252  -2.141  -0.541   5.072  0.6146  0.4131 -0.0002
  336MOL0     C44253  -2.193  -0.634   4.980 -0.2185 -1.1064  0.7048
  336MOL0     C44254  -2.324  -0.675   4.997  0.3960  0.6851 -0.5737
  336MOL0     O44255  -2.370  -0.775   4.907 -0.7631  0.6280 -0.2588
  336MOL0     C44256  -2.474  -0.860   4.957  0.1812 -0.0513  0.5949
  336MOL0     C44257  -2.519  -0.965   4.855  0.2954 -1.0534  0.6621
  336MOL0     C44258  -2.644  -1.037   4.903  0.2693 -0.2665  0.7170
  336MOL0     C44259  -2.768  -0.963   4.861  0.5383  0.1915  0.5191
  336MOL0     C44260  -2.886  -1.040   4.910 -0.3419 -1.8364  1.3861
  336MOL0     C44261  -3.008  -0.953   4.889  0.0581  0.0494  0.3918
  336MOL0     C44262  -3.136  -1.032   4.931 -0.0008 -0.5469  0.4824
  336MOL0     C44263  -3.255  -0.945   4.969 -0.0833  0.1922  0.2149
  336MOL0    Cl44264  -3.209  -0.858   5.122 -0.1193  0.0508  0.0186
  336MOL0     C44265  -2.401  -0.615   5.101  0.4745 -0.3045  0.8385
  336MOL0     C44266  -2.347  -0.533   5.196 -0.4558 -0.6594  0.4015
  336MOL0     O44267  -2.160  -0.569   5.445 -0.4356 -0.5624  0.1326
  336MOL0     C44268  -1.951  -0.286   5.443 -0.2075  0.1222 -0.2108
  336MOL0     C44269  -1.878  -0.200   5.525 -0.5544  0.4336  0.2147
  336MOL0     N44270  -1.333   0.338   5.780  0.6647 -0.0165  0.4567
  336MOL0     N44271  -1.224   0.397   5.778 -0.5688  0.7112 -0.8485
  336MOL0     C44272   0.009   0.357   5.722 -0.5703  0.2177  0.6532
  336MOL0     C44273   0.129   0.296   5.674  0.6972 -0.6356  0.6323
  336MOL0     C44274   0.496   0.044   5.665 -0.1999 -0.8403 -0.1448
  336MOL0     C44275   0.498  -0.015   5.534  0.4659 -0.2311 -0.9557
  336MOL0     C44276   0.622  -0.063   5.485 -0.1407 -0.3705 -0.2154
  336MOL0     C44277   0.741  -0.037   5.548  0.4427  0.2439  0.2734
  336MOL0     O44278   0.862  -0.094   5.502 -0.1710 -0.2175  0.3553
  336MOL0     C44279   0.980  -0.010   5.509 -0.1299  0.4563  1.0497
  336MOL0     C44280   1.071  -0.038   5.389 -0.0014  0.5699 -0.8968
  336MOL0     C44281   1.005  -0.039   5.249 -0.0860  0.2679 -0.0898
  336MOL0     C44282   1.110  -0.046   5.132 -0.3987  0.2115 -0.7523
  336MOL0     C44283   1.159  -0.183   5.105  0.6501  0.1457  0.2421
  336MOL0     C44284   1.189  -0.298   5.062  0.2702 -0.3263  0.4931
  336MOL0     C44285   0.734   0.038   5.668  0.6556 -0.0823  0.3420
  336MOL0     C44286   0.610   0.070   5.732  0.1430 -0.0919 -0.6171
  336MOL0     H44287   0.056  -0.023   5.741  0.5397 -1.3872  0.7011
  336MOL0     H44288  -0.165   0.079   5.778  0.7104 -1.8620 -0.3924
  336MOL0     H44289  -0.256   0.493   5.638 -0.1021 -0.1973  0.5157
  336MOL0     H44290  -0.172   0.524   5.803  1.0899 -1.0701  0.6856
  336MOL0     H44291  -0.393   0.620   5.848  0.5569  0.1749  1.2754
  336MOL0     H44292  -0.387   0.453   5.898  4.0713 -0.2114  0.7273
  336MOL0     H44293  -0.511   0.374   5.698 -3.4090 -0.4674  2.0157
  336MOL0     H44294  -0.497   0.549   5.636 -0.5617  1.2446  0.3581
  336MOL0     H44295  -0.629   0.440   5.886  1.2110 -2.5888 -1.4473
  336MOL0     H44296  -0.627   0.614   5.827  0.7901 -0.0579 -0.2199
  336MOL0     H44297  -0.735   0.372   5.658 -2.5492  0.5476 -2.4151
  336MOL0     H44298  -0.756   0.534   5.623  1.4451 -0.1463 -0.4869
  336MOL0     H44299  -0.956   0.463   5.688 -0.8272  0.2739  1.2837
  336MOL0     H44300  -0.908   0.584   5.795 -0.7759 -0.6385  0.4885
  336MOL0     H44301  -0.901   0.283   5.850  1.2532  0.9775 -0.8428
  336MOL0     H44302  -0.820   0.398   5.953 -0.9038  0.2152  0.9335
  336MOL0     H44303  -1.055   0.522   5.951  1.3359  1.2624  2.4007
  336MOL0     H44304  -1.032   0.377   6.053 -0.5205  2.9693  0.1959
  336MOL0     H44305  -1.203   0.198   6.040 -0.0862  0.4396 -0.0078
  336MOL0     H44306  -1.543   0.215   5.914  0.2644 -0.0892  3.1378
  336MOL0     H44307  -1.438   0.086   5.986 -0.8964  0.2796  0.6565
  336MOL0     H44308  -1.391  -0.005   5.747  1.3811  0.2984 -0.2292
  336MOL0     H44309  -1.508   0.117   5.692 -0.3206 -0.4467 -0.2667
  336MOL0     H44310  -1.542  -0.137   5.850 -0.6937 -0.0431  2.5154
  336MOL0     H44311  -1.654  -0.000   5.894 -0.8733  0.6745 -1.2484
  336MOL0     H44312  -1.655  -0.091   5.609 -0.6280  0.0341  0.0630
  336MOL0     H44313  -1.739   0.038   5.673  2.7710  1.0340 -0.8027
  336MOL0     H44314  -1.942  -0.347   5.821  0.3595  2.7553  0.4727
  336MOL0     H44315  -2.070  -0.508   5.660  1.5903 -0.2792  0.1898
  336MOL0     H44316  -2.034  -0.520   5.074  0.4625  1.2040  0.1055
  336MOL0     H44317  -2.132  -0.670   4.897 -2.0336 -3.1990  0.2132
  336MOL0     H44318  -2.557  -0.792   4.975  1.2497  1.5104 -0.1207
  336MOL0     H44319  -2.452  -0.905   5.054  3.7095  0.6249  0.2653
  336MOL0     H44320  -2.440  -1.041   4.848  1.3671  0.1635 -2.2057
  336MOL0     H44321  -2.528  -0.924   4.754 -0.0332 -2.7159 -0.0267
  336MOL0     H44322  -2.645  -1.052   5.011 -2.3580 -0.2409  0.7581
  336MOL0     H44323  -2.654  -1.128   4.843 -1.3286  1.0376 -1.1174
  336MOL0     H44324  -2.779  -0.866   4.910 -1.8714  0.2059  0.0508
  336MOL0     H44325  -2.761  -0.958   4.752 -0.1356  0.0729  0.4687
  336MOL0     H44326  -2.861  -1.060   5.015 -0.1291  0.3572  1.8002
  336MOL0     H44327  -2.907  -1.136   4.863 -0.0453 -1.1656 -0.1664
  336MOL0     H44328  -3.010  -0.935   4.781  2.3932 -0.8286  0.1557
  336MOL0     H44329  -3.013  -0.862   4.951 -0.5325 -0.5873  1.3033
  336MOL0     H44330  -3.161  -1.110   4.858 -1.0045  0.9863 -0.8833
  336MOL0     H44331  -3.110  -1.097   5.015 -2.9386 -0.7436  1.3672
  336MOL0     H44332  -3.349  -0.999   4.986  0.9424 -1.4292  1.0254
  336MOL0     H44333  -3.276  -0.869   4.894  2.6859 -0.6678 -1.5943
  336MOL0     H44334  -2.508  -0.634   5.105 -0.0655 -0.6495 -5.1761
  336MOL0     H44335  -2.414  -0.499   5.274 -2.2566 -1.0905 -0.9112
  336MOL0     H44336  -1.951  -0.279   5.335 -2.2251 -0.4795 -0.2806
  336MOL0     H44337  -1.818  -0.120   5.482 -0.0161  1.5945  2.8948
  336MOL0     H44338  -0.006   0.463   5.708 -4.4692  0.0125  2.0017
  336MOL0     H44339   0.200   0.366   5.633 -1.3049  0.5645 -0.9800
  336MOL0     H44340   0.410  -0.014   5.471 -0.6268  2.2207  0.4793
  336MOL0     H44341   0.618  -0.113   5.389  2.3124 -0.3446 -0.3841
  336MOL0     H44342   1.026  -0.000   5.607 -1.8102  4.0687  1.6533
  336MOL0     H44343   0.943   0.093   5.500  0.5997  0.5779 -1.6140
  336MOL0     H44344   1.145   0.042   5.393 -0.4488  1.0651 -2.0578
  336MOL0     H44345   1.120  -0.134   5.406 -0.0422  0.5208 -1.0459
  336MOL0     H44346   0.928   0.038   5.239  0.5049  0.8608 -0.1949
  336MOL0     H44347   0.941  -0.127   5.239  0.9208 -0.6702  1.4113
  336MOL0     H44348   1.079  -0.010   5.034  2.2111 -0.1627 -1.8021
  336MOL0     H44349   1.201   0.003   5.167  0.0679 -0.0205 -1.6294
  336MOL0     H44350   1.216  -0.395   5.026  0.2793 -1.3875  3.1072
  336MOL0     H44351   0.822   0.080   5.715 -0.8237  2.1140  1.3561
  336MOL0     H44352   0.601   0.123   5.827 -0.2533 -0.2527 -0.5621
  337MOL0     O44353   5.307   0.886   7.939  0.7138 -1.0255 -1.2063
  337MOL0     C44354   5.207   0.818   7.925 -0.2670  0.0283  0.2326
  337MOL0     O44355   5.072   0.859   7.900  0.6415 -0.9811 -0.9336
  337MOL0     C44356   5.041   0.988   7.928  0.1170 -0.1813 -0.0557
  337MOL0     C44357   4.956   1.028   8.033 -0.0284  0.1873 -0.1249
  337MOL0     C44358   4.924   1.163   8.061  0.4254 -0.1458  0.1979
  337MOL0     C44359   4.966   1.266   7.976 -0.1904 -0.6698 -0.0491
  337MOL0     O44360   4.941   1.402   7.991  0.2190  0.3130 -0.1799
  337MOL0     C44361   4.833   1.431   8.075 -0.1464  0.3872  0.2621
  337MOL0     C44362   4.793   1.563   8.027  0.8056 -0.3547  0.3374
  337MOL0     C44363   4.651   1.615   8.073 -0.2876 -0.1325 -0.8421
  337MOL0     C44364   4.659   1.651   8.220 -0.5102 -0.4179 -1.1430
  337MOL0     C44365   4.519   1.697   8.275  0.1814 -0.2379  0.0456
  337MOL0     C44366   4.446   1.817   8.211  0.2875  0.0457 -0.3947
  337MOL0     C44367   4.522   1.947   8.226 -0.7291  0.3931  0.3967
  337MOL0     C44368   4.475   2.059   8.134 -0.0392  0.3798  0.1683
  337MOL0     N44369   4.537   2.046   8.011 -0.1554 -0.0896  0.0531
  337MOL0     C44370   4.674   2.026   7.993  0.1523  0.5951 -0.5121
  337MOL0     C44371   4.678   1.965   7.877 -0.7764 -0.4541  0.5258
  337MOL0     C44372   4.809   1.927   7.817 -0.2283  0.0355  0.5001
  337MOL0     C44373   4.913   2.038   7.807  0.5774 -1.0442  0.6302
  337MOL0     C44374   4.853   2.146   7.718  0.4133  0.0104 -0.0538
  337MOL0     C44375   4.947   2.277   7.693 -0.1465  0.5951 -0.2869
  337MOL0     O44376   4.902   2.395   7.757  0.7256  0.4838  0.0337
  337MOL0     C44377   4.803   2.467   7.698 -0.4069  0.7535  0.6657
  337MOL0     C44378   4.761   2.578   7.777 -0.3794  0.3384 -0.4358
  337MOL0     C44379   4.667   2.661   7.733  0.3399  0.0902 -0.3538
  337MOL0     C44380   4.597   2.641   7.616  0.4417 -0.6449  0.7600
  337MOL0     C44381   4.485   2.726   7.572 -0.0573 -0.6071  0.1031
  337MOL0     O44382   4.381   2.648   7.511 -0.0663 -0.0191  0.2609
  337MOL0     C44383   4.254   2.700   7.527 -0.3399 -0.9127 -0.1467
  337MOL0     C44384   4.164   2.717   7.427  0.2608  0.1373  0.1731
  337MOL0     C44385   4.031   2.740   7.453 -0.1164  0.4943 -0.6850
  337MOL0     C44386   3.985   2.763   7.582 -0.6913 -0.8589 -0.8229
  337MOL0     O44387   3.859   2.780   7.598  0.4673  0.1159 -0.1420
  337MOL0     C44388   3.814   2.894   7.668 -0.3156  0.0028 -0.9910
  337MOL0     C44389   3.660   2.904   7.673  0.4560  0.5789  0.1611
  337MOL0     C44390   3.591   2.780   7.740  0.5952 -0.7604  0.1518
  337MOL0     C44391   3.448   2.781   7.689  1.3314 -0.7697 -0.6942
  337MOL0     C44392   3.359   2.691   7.764  0.3820  0.2679  0.1533
  337MOL0     C44393   3.404   2.546   7.780  0.0234 -0.2019 -0.3643
  337MOL0     C44394   3.286   2.454   7.817 -0.1974  1.0965 -0.3415
  337MOL0     C44395   3.235   2.466   7.963 -0.4141 -0.2206  0.5529
  337MOL0    Cl44396   3.384   2.459   8.079 -0.0713  0.4221  0.4103
  337MOL0     C44397   4.073   2.762   7.688 -0.1068 -0.4435  0.2031
  337MOL0     C44398   4.213   2.737   7.660 -0.0546  0.3290 -0.8092
  337MOL0     O44399   4.472   2.843   7.614  0.5881  0.2365  0.0041
  337MOL0     C44400   4.643   2.542   7.538 -0.5254 -0.1374  0.7787
  337MOL0     C44401   4.744   2.445   7.573 -0.6542  0.1723  0.2793
  337MOL0     N44402   4.553   1.952   7.821  0.4811 -0.8884 -0.2497
  337MOL0     N44403   4.464   1.998   7.906  0.7998 -0.5282 -0.0615
  337MOL0     C44404   5.045   1.229   7.866 -0.2656  0.3593  0.0869
  337MOL0     C44405   5.078   1.088   7.840 -0.0311  0.2361 -0.5641
  337MOL0     C44406   5.223   0.673   7.930 -0.5891 -1.1380  0.0320
  337MOL0     C44407   5.114   0.592   7.914 -0.0284  0.0590  0.1765
  337MOL0     C44408   5.112   0.456   7.923 -0.1158  0.6210 -0.5704
  337MOL0     C44409   5.236   0.397   7.936  0.1780  0.1921  0.2499
  337MOL0     O44410   5.239   0.259   7.924  0.4022 -0.2798 -0.8301
  337MOL0     C44411   5.355   0.183   7.899 -0.5184 -0.9044  0.3698
  337MOL0     C44412   5.308   0.034   7.922  0.0625  0.2421  0.3751
  337MOL0     C44413   5.189  -0.003   7.833  1.3232  0.5776 -0.2785
  337MOL0     C44414   5.147  -0.150   7.844  0.6121  0.7534 -0.4049
  337MOL0     C44415   5.247  -0.235   7.787 -0.0719  0.2997 -1.2452
  337MOL0     C44416   5.323  -0.306   7.721  0.0318 -0.2890 -0.3368
  337MOL0     C44417   5.355   0.467   7.946 -0.2307 -0.0549 -0.4350
  337MOL0     C44418   5.347   0.610   7.947 -0.0224 -0.2625  0.2544
  337MOL0     H44419   4.907   0.952   8.093  2.7048 -1.6852 -0.0853
  337MOL0     H44420   4.862   1.186   8.147 -0.3398  2.3492 -0.9072
  337MOL0     H44421   4.868   1.432   8.178 -2.0853  1.9080  0.9630
  337MOL0     H44422   4.745   1.365   8.072 -0.6150  1.0239 -1.2701
  337MOL0     H44423   4.778   1.557   7.918  1.7998 -1.0661  0.2304
  337MOL0     H44424   4.879   1.626   8.050  1.7079 -2.4033  3.0793
  337MOL0     H44425   4.588   1.528   8.052 -1.2348 -0.1438  1.7394
  337MOL0     H44426   4.623   1.708   8.022  2.6114  1.5587  0.3974
  337MOL0     H44427   4.690   1.566   8.280 -1.5797  0.5127  0.8156
  337MOL0     H44428   4.740   1.724   8.221 -1.6665  0.9305 -1.6109
  337MOL0     H44429   4.532   1.706   8.383  2.2727 -1.7375 -0.0235
  337MOL0     H44430   4.450   1.611   8.279 -1.7322  1.0755 -1.9634
  337MOL0     H44431   4.357   1.835   8.272 -0.3329 -0.2474 -1.1941
  337MOL0     H44432   4.417   1.798   8.107  2.3082  1.6967 -1.3304
  337MOL0     H44433   4.504   1.970   8.331 -1.2876  1.9561 -0.0250
  337MOL0     H44434   4.629   1.929   8.213 -0.5702  0.6928  1.2297
  337MOL0     H44435   4.501   2.159   8.171  2.9692 -1.1879  2.8978
  337MOL0     H44436   4.368   2.043   8.118  0.4997 -1.2499 -2.4667
  337MOL0     H44437   4.763   2.058   8.047  0.8705 -1.0290 -0.7060
  337MOL0     H44438   4.807   1.884   7.716  0.5670  0.9900  0.0579
  337MOL0     H44439   4.841   1.848   7.886 -0.0666  0.0383  0.4299
  337MOL0     H44440   5.009   2.011   7.761 -0.2031  3.7161 -5.1445
  337MOL0     H44441   4.924   2.079   7.908  0.6253 -1.5675  0.8360
  337MOL0     H44442   4.828   2.108   7.619  0.3014  0.5667 -0.2406
  337MOL0     H44443   4.760   2.182   7.763 -2.0245 -2.8497 -2.4191
  337MOL0     H44444   4.961   2.287   7.585  0.2548  1.5639 -0.1577
  337MOL0     H44445   5.041   2.241   7.737 -1.6410 -1.6526  1.3180
  337MOL0     H44446   4.797   2.584   7.880 -0.5363  1.2693 -0.4314
  337MOL0     H44447   4.640   2.749   7.792  1.7984 -0.0798  0.6468
  337MOL0     H44448   4.199   2.691   7.327  1.7785  1.8240  0.2306
  337MOL0     H44449   3.959   2.729   7.372 -1.0894  0.8662  0.0969
  337MOL0     H44450   3.848   2.985   7.618 -0.8821  0.9224  0.2153
  337MOL0     H44451   3.861   2.892   7.767  1.0719  1.5579 -1.5723
  337MOL0     H44452   3.621   2.907   7.571 -1.4697 -2.0405  0.7237
  337MOL0     H44453   3.637   2.992   7.735 -0.5536 -0.6756  1.6272
  337MOL0     H44454   3.600   2.793   7.848  1.8039  0.7913 -0.0906
  337MOL0     H44455   3.637   2.687   7.706  2.1851  0.0960 -0.1693
  337MOL0     H44456   3.418   2.886   7.682  4.1950  0.0434 -2.9951
  337MOL0     H44457   3.454   2.737   7.589  1.7170  2.4711 -2.2314
  337MOL0     H44458   3.254   2.695   7.732  0.6148  1.0459 -0.5536
  337MOL0     H44459   3.370   2.730   7.865  3.2930 -3.4575  1.5143
  337MOL0     H44460   3.487   2.542   7.850  0.0303 -0.0383 -0.3638
  337MOL0     H44461   3.438   2.503   7.685 -3.8161 -0.0294 -2.0137
  337MOL0     H44462   3.205   2.477   7.748 -1.4449 -1.5454  0.1591
  337MOL0     H44463   3.317   2.350   7.802  1.6612  1.6680 -0.8662
  337MOL0     H44464   3.171   2.384   7.995 -2.4685  0.3977 -1.6324
  337MOL0     H44465   3.177   2.557   7.979  0.6668  0.4528  0.7410
  337MOL0     H44466   4.035   2.775   7.789 -0.6227  0.8505 -0.1414
  337MOL0     H44467   4.281   2.741   7.744  3.6358 -1.5152 -3.4355
  337MOL0     H44468   4.592   2.530   7.443  0.4354 -0.3103  0.2734
  337MOL0     H44469   4.769   2.359   7.512 -1.3927 -0.0432  0.2674
  337MOL0     H44470   5.085   1.308   7.803  0.1041  1.5986  1.8115
  337MOL0     H44471   5.139   1.065   7.753  0.7886 -1.5104  0.4261
  337MOL0     H44472   5.017   0.638   7.902 -0.0712 -0.1702 -0.3793
  337MOL0     H44473   5.024   0.392   7.920 -1.8078  2.7609  0.0228
  337MOL0     H44474   5.439   0.208   7.964 -0.2130  1.9038 -0.9582
  337MOL0     H44475   5.382   0.191   7.793  0.3952  0.4285  0.6855
  337MOL0     H44476   5.390  -0.031   7.891 -0.5753  0.2100 -1.3899
  337MOL0     H44477   5.272   0.012   8.022  1.2020  0.6670  0.8942
  337MOL0     H44478   5.208   0.017   7.727  1.4456 -1.5053 -0.6876
  337MOL0     H44479   5.100   0.053   7.861  0.5120 -1.0768  0.6407
  337MOL0     H44480   5.135  -0.183   7.948 -0.9065 -1.2360 -1.1209
  337MOL0     H44481   5.048  -0.157   7.798  0.1088  1.2144  0.5815
  337MOL0     H44482   5.398  -0.360   7.667 -1.1701 -0.1979 -2.1901
  337MOL0     H44483   5.454   0.425   7.956 -0.3207 -0.2089 -0.1977
  337MOL0     H44484   5.435   0.673   7.955 -1.1971  1.2103  3.2334
  338MOL0     O44485   6.821   3.715   9.263  0.4773  0.0914 -0.2201
  338MOL0     C44486   6.779   3.729   9.378 -0.2523  0.4267 -0.2559
  338MOL0     O44487   6.851   3.735   9.492  0.6145  0.1884 -0.0955
  338MOL0     C44488   6.987   3.703   9.489  0.0330 -0.3249  0.2510
  338MOL0     C44489   7.033   3.633   9.598  0.3981 -1.0063  0.2784
  338MOL0     C44490   7.163   3.586   9.600 -1.4466 -0.0583 -0.2103
  338MOL0     C44491   7.258   3.609   9.505  0.2653 -0.1171  0.7866
  338MOL0     O44492   7.381   3.564   9.502  0.0306  0.2794  0.0453
  338MOL0     C44493   7.416   3.454   9.594 -0.4083 -0.1409  0.2336
  338MOL0     C44494   7.553   3.388   9.557 -0.6529  0.3809 -0.4506
  338MOL0     C44495   7.676   3.475   9.585 -0.3415  0.3110 -0.8038
  338MOL0     C44496   7.813   3.396   9.572  0.8563 -0.3502 -0.6377
  338MOL0     C44497   7.932   3.487   9.622  0.3372 -0.0912  0.1718
  338MOL0     C44498   8.051   3.399   9.665 -0.7252 -0.1035 -0.4542
  338MOL0     C44499   8.149   3.453   9.775  0.3426 -0.3825  0.6686
  338MOL0     C44500   8.207   3.596   9.732  0.5982  0.2489  0.6544
  338MOL0     N44501   8.226   3.688   9.847  0.3158  0.2432 -0.7543
  338MOL0     C44502   8.118   3.727   9.931  0.1968  0.4941 -0.0262
  338MOL0     C44503   8.169   3.819  10.012 -0.1607 -0.5256  1.2701
  338MOL0     C44504   8.083   3.897  10.105 -0.3114  0.2914 -0.7286
  338MOL0     C44505   7.994   3.793  10.181 -0.0134 -0.6526 -0.3364
  338MOL0     C44506   7.925   3.873  10.303  0.4468 -0.2329  0.4915
  338MOL0     C44507   7.822   3.782  10.369 -0.4917 -0.3516  0.2435
  338MOL0     O44508   7.701   3.798  10.309 -0.0030 -0.5418 -0.4147
  338MOL0     C44509   7.589   3.760  10.377 -0.2120  0.6954  0.1912
  338MOL0     C44510   7.470   3.832  10.356 -0.5953  1.0611  0.1552
  338MOL0     C44511   7.347   3.780  10.399 -0.4537 -0.7209 -0.6068
  338MOL0     C44512   7.344   3.661  10.477 -0.2470  0.8371 -0.1496
  338MOL0     C44513   7.220   3.617  10.535  0.0554  0.3728 -0.2883
  338MOL0     O44514   7.213   3.484  10.564 -0.2255 -0.6283 -0.1775
  338MOL0     C44515   7.093   3.441  10.616  0.1560  0.1829 -0.4356
  338MOL0     C44516   7.008   3.392  10.526  0.2746 -0.0644 -0.0908
  338MOL0     C44517   6.880   3.356  10.561  0.9766 -0.4637 -0.4435
  338MOL0     C44518   6.832   3.356  10.692 -0.4479 -0.7159  0.0292
  338MOL0     O44519   6.702   3.312  10.715 -0.9866 -0.8347 -0.5478
  338MOL0     C44520   6.669   3.268  10.849  0.2619  0.0816  0.0899
  338MOL0     C44521   6.561   3.161  10.850 -0.1201 -0.3218 -0.0134
  338MOL0     C44522   6.515   3.121  10.991 -0.0063  0.0846 -0.2217
  338MOL0     C44523   6.382   3.043  10.994 -0.6897  0.4602 -0.3525
  338MOL0     C44524   6.342   2.999  11.135 -0.3560  0.6889 -0.1315
  338MOL0     C44525   6.195   2.944  11.141  0.8200  0.4201 -0.0132
  338MOL0     C44526   6.129   2.957  11.278 -0.3696  0.2312  0.4971
  338MOL0     C44527   6.206   2.916  11.403  0.3812  0.6645 -0.8248
  338MOL0    Cl44528   6.105   2.923  11.547 -0.0318 -0.2933  0.3815
  338MOL0     C44529   6.922   3.403  10.788 -0.1957 -0.5689  0.2655
  338MOL0     C44530   7.049   3.446  10.753 -0.1389 -0.0526 -0.6260
  338MOL0     O44531   7.127   3.697  10.543 -0.0311  0.6837  0.0924
  338MOL0     C44532   7.454   3.579  10.483  0.2240  0.1684  0.7544
  338MOL0     C44533   7.571   3.623  10.426  0.3468 -0.0233  0.8971
  338MOL0     N44534   8.306   3.820   9.999  0.5508 -0.4228 -0.3151
  338MOL0     N44535   8.340   3.739   9.902  0.1749 -0.2228  0.2029
  338MOL0     C44536   7.208   3.684   9.393 -0.1485 -0.1457  0.9089
  338MOL0     C44537   7.079   3.730   9.389  0.3511  0.3779 -0.0844
  338MOL0     C44538   6.632   3.757   9.382  0.0043  0.0673 -0.6981
  338MOL0     C44539   6.563   3.790   9.259  0.1610 -0.8767 -0.1564
  338MOL0     C44540   6.426   3.802   9.274  0.1435  0.5253  0.4493
  338MOL0     C44541   6.349   3.767   9.390  0.1134 -0.2731  1.0674
  338MOL0     O44542   6.210   3.788   9.381 -0.1352  0.0152  0.5154
  338MOL0     C44543   6.113   3.711   9.450  0.5689  0.3317  0.0623
  338MOL0     C44544   6.029   3.805   9.542  0.1300  0.1919 -0.3074
  338MOL0     C44545   5.966   3.730   9.654 -0.4972 -0.1446 -0.4314
  338MOL0     C44546   5.825   3.777   9.678 -0.0993 -0.4078 -0.0652
  338MOL0     C44547   5.739   3.777   9.560  0.4230  0.5806  0.2254
  338MOL0     C44548   5.667   3.782   9.465  0.2688 -0.3042 -0.0416
  338MOL0     C44549   6.417   3.741   9.502 -0.6687 -0.2986  0.7605
  338MOL0     C44550   6.561   3.745   9.504  0.6037 -0.4979 -0.4670
  338MOL0     H44551   6.959   3.608   9.673 -1.0399 -1.5572 -1.2577
  338MOL0     H44552   7.177   3.521   9.685 -2.6546 -0.6905 -0.4735
  338MOL0     H44553   7.358   3.362   9.579 -0.3535  0.0970 -1.6315
  338MOL0     H44554   7.427   3.498   9.693  2.3713 -1.1901  0.4726
  338MOL0     H44555   7.541   3.376   9.449 -0.6638  1.6140 -0.6069
  338MOL0     H44556   7.563   3.295   9.614  0.1242  1.1665  0.7598
  338MOL0     H44557   7.677   3.511   9.688  1.2758  2.4279 -1.4853
  338MOL0     H44558   7.680   3.561   9.518  0.7753  1.5835  0.8181
  338MOL0     H44559   7.810   3.304   9.631  0.4181 -0.8877 -1.4815
  338MOL0     H44560   7.843   3.367   9.471  1.1129  1.0603 -0.9862
  338MOL0     H44561   7.906   3.544   9.712  0.2911 -2.9371  2.0725
  338MOL0     H44562   7.947   3.559   9.540 -1.9064  3.5467  2.6575
  338MOL0     H44563   8.116   3.374   9.581  0.8048  1.3921  0.2299
  338MOL0     H44564   8.021   3.300   9.701 -0.6203 -0.4232 -1.2405
  338MOL0     H44565   8.085   3.471   9.862  1.0115 -0.1520  1.1156
  338MOL0     H44566   8.218   3.371   9.798  0.2431  0.0305  2.5104
  338MOL0     H44567   8.125   3.643   9.676  2.1289 -0.5301 -2.4400
  338MOL0     H44568   8.298   3.592   9.671  0.7943 -0.2472  0.9812
  338MOL0     H44569   8.012   3.704   9.925  0.1455  0.8262 -0.3759
  338MOL0     H44570   8.018   3.965  10.050 -1.7175  0.9331  1.6059
  338MOL0     H44571   8.144   3.962  10.167  1.0128 -0.6922 -0.9502
  338MOL0     H44572   8.050   3.719  10.239  0.7702  2.6242  3.4818
  338MOL0     H44573   7.912   3.754  10.120  1.8627  2.6424 -5.6708
  338MOL0     H44574   7.994   3.918  10.374  1.1724 -0.2088 -0.2067
  338MOL0     H44575   7.870   3.955  10.256  0.1061 -1.1413 -0.7663
  338MOL0     H44576   7.819   3.804  10.476  1.6645  1.0344  0.0736
  338MOL0     H44577   7.873   3.685  10.366 -0.8975 -0.5508 -2.4656
  338MOL0     H44578   7.474   3.925  10.299  3.6125 -0.3207 -2.2749
  338MOL0     H44579   7.262   3.847  10.391 -0.2460 -0.3113  0.4694
  338MOL0     H44580   7.042   3.381  10.423  0.4837  3.5870 -0.5371
  338MOL0     H44581   6.810   3.329  10.483 -1.6559  2.4075  0.6903
  338MOL0     H44582   6.627   3.349  10.910 -3.3342 -2.2745  1.0780
  338MOL0     H44583   6.753   3.224  10.904  1.7818  3.5848  0.8733
  338MOL0     H44584   6.609   3.081  10.793  1.5639 -0.5185  1.5797
  338MOL0     H44585   6.474   3.196  10.794 -0.8896 -0.3491  1.1259
  338MOL0     H44586   6.504   3.211  11.053 -0.7864  0.8113 -1.3683
  338MOL0     H44587   6.594   3.059  11.033  1.8182 -0.0268 -3.4881
  338MOL0     H44588   6.309   3.109  10.945 -1.0931  1.7566  1.8415
  338MOL0     H44589   6.400   2.953  10.935  1.2484  0.6556 -0.1178
  338MOL0     H44590   6.346   3.097  11.184 -0.8629  0.2479  0.8204
  338MOL0     H44591   6.407   2.922  11.179 -1.0256 -1.0336 -2.0165
  338MOL0     H44592   6.191   2.838  11.115  1.2223  0.2085  0.7463
  338MOL0     H44593   6.138   3.001  11.067  1.1663 -1.8342 -2.1361
  338MOL0     H44594   6.106   3.064  11.287  0.7101  0.3700  1.8735
  338MOL0     H44595   6.039   2.895  11.279  1.2658 -2.4031 -1.5410
  338MOL0     H44596   6.294   2.980  11.415  0.2019  0.9220 -0.8566
  338MOL0     H44597   6.236   2.811  11.407  3.6990  1.4905  3.3423
  338MOL0     H44598   6.905   3.406  10.895 -0.6722 -1.7375  0.2358
  338MOL0     H44599   7.125   3.488  10.818 -1.7685  1.8629  0.1249
  338MOL0     H44600   7.442   3.475  10.512 -2.6027  0.1687 -0.1196
  338MOL0     H44601   7.664   3.567  10.425  1.2675  1.4485  1.0795
  338MOL0     H44602   7.281   3.706   9.315 -1.0596  0.7365  0.2810
  338MOL0     H44603   7.038   3.794   9.312 -3.8496 -1.2774  0.4665
  338MOL0     H44604   6.613   3.823   9.169 -1.4117  1.0041 -0.4000
  338MOL0     H44605   6.376   3.814   9.178 -0.7539 -1.0197  0.6932
  338MOL0     H44606   6.169   3.634   9.504 -1.6149 -3.4173 -2.6066
  338MOL0     H44607   6.041   3.659   9.386  0.7561  1.1468 -0.8335
  338MOL0     H44608   6.102   3.878   9.579  2.6924 -0.7658 -3.0267
  338MOL0     H44609   5.956   3.863   9.484 -0.8777  1.5725  2.1906
  338MOL0     H44610   6.021   3.740   9.748 -1.4556 -1.4697  0.3013
  338MOL0     H44611   5.973   3.625   9.625 -4.1633 -0.2755 -1.3508
  338MOL0     H44612   5.770   3.723   9.755 -2.9161 -1.4269 -2.5980
  338MOL0     H44613   5.838   3.880   9.710 -1.9224  0.5646 -2.1814
  338MOL0     H44614   5.615   3.782   9.371 -0.8685 -1.9242  0.5530
  338MOL0     H44615   6.359   3.721   9.592 -2.9731  0.3266 -0.5250
  338MOL0     H44616   6.620   3.707   9.587  1.6215 -0.5842 -1.2071
  339MOL0     O44617   2.861   4.356   2.265  0.3040 -0.1928  0.2130
  339MOL0     C44618   2.919   4.270   2.326  0.0278 -0.0606 -0.4535
  339MOL0     O44619   2.917   4.134   2.295  0.4620 -0.0889  0.1108
  339MOL0     C44620   2.803   4.095   2.218 -0.7123 -0.5414  0.5980
  339MOL0     C44621   2.688   4.064   2.286  0.3210  0.3567 -0.0750
  339MOL0     C44622   2.576   4.013   2.225  0.3233  0.8945 -0.0079
  339MOL0     C44623   2.574   4.005   2.081 -0.3716 -0.5410 -0.6348
  339MOL0     O44624   2.457   3.966   2.011  0.2081  0.7795 -0.3367
  339MOL0     C44625   2.337   4.006   2.058  0.3662  0.8400  0.0847
  339MOL0     C44626   2.238   3.985   1.940 -0.4497  0.4550  0.5190
  339MOL0     C44627   2.087   4.032   1.959 -0.2385  0.4122 -0.1553
  339MOL0     C44628   2.021   3.961   2.076 -0.5142 -0.1159 -0.8948
  339MOL0     C44629   1.867   3.971   2.070  0.8786 -0.4791 -0.9420
  339MOL0     C44630   1.779   3.923   1.953  0.0286 -0.1424  0.3311
  339MOL0     C44631   1.816   3.776   1.928  1.0789  0.1751  1.3476
  339MOL0     C44632   1.756   3.723   1.789  0.5793 -0.6441 -0.3530
  339MOL0     N44633   1.608   3.731   1.777 -0.6164 -0.5152 -0.0632
  339MOL0     C44634   1.531   3.816   1.712 -0.3573 -0.6371  0.9835
  339MOL0     C44635   1.402   3.766   1.721 -0.7634 -0.5036  0.6600
  339MOL0     C44636   1.285   3.836   1.656  0.0027  0.6236  0.3552
  339MOL0     C44637   1.208   3.932   1.752 -0.5756 -0.3222  0.4252
  339MOL0     C44638   1.148   3.868   1.878  0.4546  0.6691  1.2594
  339MOL0     C44639   1.098   3.965   1.987 -0.5678  0.3043  0.8741
  339MOL0     O44640   1.030   4.081   1.933 -0.7617  0.2894  0.0344
  339MOL0     C44641   0.992   4.184   2.023 -0.2226  0.2204 -0.1514
  339MOL0     C44642   0.891   4.275   1.975 -0.7356  0.2879 -0.0674
  339MOL0     C44643   0.828   4.362   2.066  0.0300  0.0059  0.0845
  339MOL0     C44644   0.871   4.363   2.204 -0.2114  0.0390 -0.3207
  339MOL0     C44645   0.799   4.446   2.294 -0.0963  0.0407  0.3511
  339MOL0     O44646   0.757   4.565   2.253  0.1519 -0.1540 -0.1325
  339MOL0     C44647   0.689   4.649   2.336  0.8321  0.0007 -0.2784
  339MOL0     C44648   0.755   4.763   2.392 -0.2069  0.5475 -0.4808
  339MOL0     C44649   0.681   4.840   2.482 -0.8311 -0.2228  0.0827
  339MOL0     C44650   0.555   4.808   2.521 -0.2677 -1.2922 -0.5060
  339MOL0     O44651   0.503   4.897   2.609  0.1950 -0.8864  0.0105
  339MOL0     C44652   0.399   4.865   2.699  0.0268 -0.0680 -1.0239
  339MOL0     C44653   0.384   4.958   2.828 -0.0985  0.4011  0.8939
  339MOL0     C44654   0.502   5.003   2.897  0.0095  0.8213 -0.3902
  339MOL0     C44655   0.562   4.892   2.981 -0.2427  1.2177  0.1184
  339MOL0     C44656   0.478   4.827   3.082  0.4250 -0.5587  0.0344
  339MOL0     C44657   0.406   4.923   3.163 -0.0887  0.7983  0.2734
  339MOL0     C44658   0.348   4.858   3.280 -1.2851 -0.0416 -0.5113
  339MOL0     C44659   0.265   4.729   3.257  0.2724  0.1801  0.1708
  339MOL0    Cl44660   0.130   4.735   3.130  0.4080 -0.3474 -0.0084
  339MOL0     C44661   0.492   4.702   2.451 -0.0078 -0.0544 -0.2595
  339MOL0     C44662   0.555   4.634   2.350 -0.4460  0.9200 -0.2946
  339MOL0     O44663   0.798   4.404   2.414  0.5358  0.5919  0.1419
  339MOL0     C44664   0.984   4.287   2.238  0.1959  0.1736 -0.0202
  339MOL0     C44665   1.044   4.201   2.155 -0.0868 -0.5530  0.7805
  339MOL0     N44666   1.409   3.649   1.786  0.0901 -1.0860  1.1658
  339MOL0     N44667   1.530   3.626   1.818 -0.0453  0.4371 -0.9900
  339MOL0     C44668   2.686   4.027   2.013 -0.0775  0.1769  0.5458
  339MOL0     C44669   2.804   4.072   2.077  0.0809 -0.3308  0.0563
  339MOL0     C44670   3.021   4.312   2.413  0.1770  0.5987  0.0268
  339MOL0     C44671   3.102   4.219   2.482 -0.0012  0.8283  0.5692
  339MOL0     C44672   3.214   4.264   2.552  0.4314 -0.3604  0.3007
  339MOL0     C44673   3.238   4.402   2.562  0.5309  0.8522  0.8074
  339MOL0     O44674   3.342   4.430   2.652 -0.1578  0.7744 -0.3248
  339MOL0     C44675   3.359   4.563   2.697 -0.1727 -0.7028  0.0485
  339MOL0     C44676   3.241   4.590   2.785  0.8706 -0.5470 -0.2592
  339MOL0     C44677   3.257   4.496   2.905  0.5439 -0.5727  0.3062
  339MOL0     C44678   3.134   4.481   2.998  0.3953 -0.0334  0.8862
  339MOL0     C44679   3.107   4.612   3.071 -0.2716  0.2521 -0.1341
  339MOL0     C44680   3.103   4.710   3.139 -0.5389  0.1761 -0.3636
  339MOL0     C44681   3.168   4.494   2.481  0.4339  0.1898  0.6092
  339MOL0     C44682   3.059   4.450   2.416  0.3391 -0.0492 -1.2334
  339MOL0     H44683   2.672   4.084   2.392 -1.1732  0.7548 -0.3507
  339MOL0     H44684   2.496   3.986   2.294  0.5662 -2.4415 -0.8625
  339MOL0     H44685   2.335   4.114   2.078 -4.1847  1.0017 -0.3471
  339MOL0     H44686   2.318   3.944   2.146  2.4316  0.1100  0.0702
  339MOL0     H44687   2.250   3.881   1.911  3.2394  1.6380 -3.1068
  339MOL0     H44688   2.280   4.042   1.857  1.4610 -0.5858  0.7113
  339MOL0     H44689   2.036   4.006   1.866 -2.8017  3.4853  0.2368
  339MOL0     H44690   2.079   4.141   1.969  0.5568  0.3084  2.5607
  339MOL0     H44691   2.061   3.859   2.080 -0.4582 -0.0772 -0.2716
  339MOL0     H44692   2.053   4.013   2.168 -0.5932 -2.2736  0.4188
  339MOL0     H44693   1.832   4.074   2.074 -2.1844 -1.3751 -1.7440
  339MOL0     H44694   1.826   3.928   2.162  1.5706  1.1213  0.1535
  339MOL0     H44695   1.805   3.990   1.870 -3.5157  1.2076  0.1492
  339MOL0     H44696   1.673   3.933   1.976  0.0448  0.3393  0.2088
  339MOL0     H44697   1.922   3.774   1.900  1.0481 -5.3518  0.5403
  339MOL0     H44698   1.796   3.718   2.018  3.2684  0.5174  2.1118
  339MOL0     H44699   1.793   3.620   1.786  1.2954 -0.5125  1.9342
  339MOL0     H44700   1.810   3.773   1.708 -1.0032  0.3459 -0.8272
  339MOL0     H44701   1.560   3.900   1.649  0.5623 -2.3728 -1.0482
  339MOL0     H44702   1.213   3.756   1.634 -1.0155  1.4803  0.5066
  339MOL0     H44703   1.299   3.875   1.555  1.2475  0.4875  0.4629
  339MOL0     H44704   1.128   3.973   1.689 -0.2375  1.8554  1.2950
  339MOL0     H44705   1.278   4.012   1.778  0.1286 -0.2110 -1.6526
  339MOL0     H44706   1.066   3.805   1.843  0.5923  0.4302  1.3607
  339MOL0     H44707   1.227   3.802   1.914 -1.8160 -2.6734  0.5583
  339MOL0     H44708   1.193   3.994   2.034  0.1306 -1.6201  0.7259
  339MOL0     H44709   1.033   3.905   2.051 -3.8963  2.0115 -0.6797
  339MOL0     H44710   0.858   4.266   1.872  2.9030  1.4386 -1.5148
  339MOL0     H44711   0.749   4.420   2.020 -1.3513 -0.1114  2.2371
  339MOL0     H44712   0.863   4.769   2.382 -0.1074  3.2243  1.1497
  339MOL0     H44713   0.721   4.918   2.546  0.4081 -0.7090 -0.0893
  339MOL0     H44714   0.428   4.765   2.734 -1.3321 -0.2042 -0.2358
  339MOL0     H44715   0.298   4.866   2.657 -0.4792 -0.0298  0.1713
  339MOL0     H44716   0.316   4.907   2.897 -1.7969  1.8207  0.3391
  339MOL0     H44717   0.328   5.050   2.808  0.8184  1.7420  3.8457
  339MOL0     H44718   0.468   5.093   2.949 -1.5718 -0.2168  0.4621
  339MOL0     H44719   0.586   5.031   2.833  0.8935 -0.3869  0.2112
  339MOL0     H44720   0.599   4.815   2.912 -0.1815  0.7996  0.6115
  339MOL0     H44721   0.646   4.924   3.044  0.4484 -2.3337  1.2614
  339MOL0     H44722   0.560   4.782   3.138  2.3294  1.7101 -0.7757
  339MOL0     H44723   0.420   4.749   3.032  1.2698 -1.2883  0.1619
  339MOL0     H44724   0.329   4.973   3.104 -0.1697  0.5094  0.1355
  339MOL0     H44725   0.478   4.992   3.209 -0.6139  2.2281 -0.9822
  339MOL0     H44726   0.431   4.839   3.349 -2.9471  1.1474  1.9729
  339MOL0     H44727   0.287   4.929   3.338 -1.9713  1.7426 -3.2071
  339MOL0     H44728   0.205   4.707   3.345 -0.8066  2.0579 -0.0403
  339MOL0     H44729   0.310   4.632   3.235 -2.2331 -0.4528 -2.6516
  339MOL0     H44730   0.387   4.685   2.470 -0.8554  1.3630 -3.1504
  339MOL0     H44731   0.505   4.554   2.297 -0.9155  1.1508 -0.2066
  339MOL0     H44732   1.021   4.292   2.340 -1.0750  0.2268  0.4542
  339MOL0     H44733   1.136   4.150   2.181 -1.2909 -1.5388  3.4815
  339MOL0     H44734   2.678   4.023   1.905 -0.8807 -0.5108  0.6150
  339MOL0     H44735   2.889   4.095   2.013 -1.2609  2.8048 -0.8113
  339MOL0     H44736   3.078   4.113   2.477 -0.8207  1.0640 -1.2312
  339MOL0     H44737   3.287   4.197   2.595 -1.0890 -1.1140  1.8305
  339MOL0     H44738   3.355   4.644   2.624 -2.9400  0.3689  1.2359
  339MOL0     H44739   3.454   4.579   2.750  1.4176  3.1435 -3.4022
  339MOL0     H44740   3.243   4.691   2.828  0.5055  0.3092 -2.1811
  339MOL0     H44741   3.141   4.570   2.747  1.8935 -2.4996 -2.1295
  339MOL0     H44742   3.346   4.533   2.956  2.1813 -0.6047 -2.3380
  339MOL0     H44743   3.287   4.394   2.879  3.2513  0.0231  0.7756
  339MOL0     H44744   3.047   4.441   2.944 -0.8548  1.5532  1.6393
  339MOL0     H44745   3.164   4.409   3.075  0.9589 -0.5470  0.1995
  339MOL0     H44746   3.078   4.794   3.199  1.8048 -0.7992  2.1783
  339MOL0     H44747   3.206   4.595   2.485 -0.6707  0.5879  2.0546
  339MOL0     H44748   3.001   4.518   2.355 -0.0476  0.2198 -0.5802
  340MOL0     O44749   2.099   3.524   1.688 -0.5575  0.4004  0.0942
  340MOL0     C44750   2.180   3.456   1.626  0.2908  0.2028 -0.1188
  340MOL0     O44751   2.153   3.350   1.534  0.8079 -0.0446  0.3629
  340MOL0     C44752   2.023   3.305   1.519 -1.0440 -0.2636  0.9644
  340MOL0     C44753   1.918   3.391   1.474 -1.1470  0.2064  0.1143
  340MOL0     C44754   1.785   3.346   1.489 -0.8242  0.0802  0.0334
  340MOL0     C44755   1.765   3.218   1.552  0.5656 -0.5875 -1.1876
  340MOL0     O44756   1.641   3.182   1.600 -0.0273 -0.4414 -0.6105
  340MOL0     C44757   1.534   3.274   1.605  1.1454  1.3587 -0.3308
  340MOL0     C44758   1.432   3.212   1.701  0.5433 -0.2185  0.3646
  340MOL0     C44759   1.477   3.230   1.844  0.2663 -0.3827 -0.7243
  340MOL0     C44760   1.376   3.170   1.945 -0.5640 -0.2302 -0.2886
  340MOL0     C44761   1.374   3.019   1.934 -0.1850 -0.5480 -0.5630
  340MOL0     C44762   1.299   2.944   2.036 -0.0542  0.2348 -0.3355
  340MOL0     C44763   1.145   2.952   2.017 -1.2731 -0.0573 -0.6811
  340MOL0     C44764   1.087   2.892   1.883  0.2899 -0.2694 -0.5251
  340MOL0     N44765   0.965   2.960   1.853 -0.0794  0.0344 -0.1830
  340MOL0     C44766   0.842   2.911   1.886 -0.8092 -0.0039 -0.8613
  340MOL0     C44767   0.752   3.007   1.855 -0.3296 -0.0683  0.7765
  340MOL0     C44768   0.599   3.007   1.855 -0.7147  0.5021 -0.6016
  340MOL0     C44769   0.536   2.936   1.735  0.2364  0.6786 -1.0990
  340MOL0     C44770   0.551   3.002   1.598 -0.0976  0.6401 -0.0149
  340MOL0     C44771   0.426   2.963   1.505 -0.8993 -0.4751  0.6574
  340MOL0     O44772   0.317   3.032   1.562 -0.4611 -0.1807 -1.5743
  340MOL0     C44773   0.194   3.034   1.496 -0.7086 -1.2252  0.0207
  340MOL0     C44774   0.166   2.972   1.370  0.0043 -0.7533  0.1246
  340MOL0     C44775   0.039   2.984   1.317 -0.4411  1.0350 -0.4890
  340MOL0     C44776  -0.069   3.021   1.400  1.1497  0.0055  0.2950
  340MOL0     C44777  -0.210   3.021   1.356 -0.1118  0.9862 -0.6092
  340MOL0     O44778  -0.306   3.024   1.451 -0.0778  0.6885  0.1409
  340MOL0     C44779  -0.437   3.012   1.418  0.5738 -0.2563  0.3129
  340MOL0     C44780  -0.499   3.088   1.311  0.1796  0.2253  0.2672
  340MOL0     C44781  -0.639   3.084   1.301 -0.0372 -1.0579 -0.6279
  340MOL0     C44782  -0.711   3.015   1.389  0.3498 -0.1394 -0.2875
  340MOL0     O44783  -0.846   3.026   1.370 -1.1007  0.1601  0.1316
  340MOL0     C44784  -0.927   2.927   1.437 -0.0745  0.0663  0.2050
  340MOL0     C44785  -1.073   2.955   1.409  0.5310 -0.1934  0.4346
  340MOL0     C44786  -1.168   2.872   1.508  0.1653  0.3126 -0.8167
  340MOL0     C44787  -1.317   2.908   1.489 -0.8247 -0.1715  0.4055
  340MOL0     C44788  -1.412   2.814   1.564  0.4141 -0.1079 -0.1600
  340MOL0     C44789  -1.544   2.879   1.580  0.1362  0.3500  0.6797
  340MOL0     C44790  -1.638   2.779   1.634 -0.0120 -0.1773 -0.5345
  340MOL0     C44791  -1.766   2.855   1.681 -0.5916  0.0019 -0.4997
  340MOL0    Cl44792  -1.894   2.739   1.728  0.2500 -0.0902 -0.0790
  340MOL0     C44793  -0.649   2.941   1.497  0.7409  0.1183  0.2793
  340MOL0     C44794  -0.512   2.931   1.504 -1.5683 -1.0038 -0.8283
  340MOL0     O44795  -0.235   2.996   1.235 -0.2954  0.1049 -0.9347
  340MOL0     C44796  -0.046   3.052   1.529  0.8568  0.9545  0.4795
  340MOL0     C44797   0.087   3.062   1.570  0.3856  0.0104 -0.3256
  340MOL0     N44798   0.827   3.117   1.811 -0.2767  0.2886  0.3911
  340MOL0     N44799   0.950   3.085   1.801 -0.0268 -0.4340 -0.3773
  340MOL0     C44800   1.867   3.132   1.582  0.7807  0.5087  0.7964
  340MOL0     C44801   1.996   3.173   1.557 -0.0601  0.4874 -0.2353
  340MOL0     C44802   2.326   3.480   1.663  0.6549  0.2115  0.9586
  340MOL0     C44803   2.429   3.429   1.590  0.0124 -0.5122  0.1082
  340MOL0     C44804   2.563   3.468   1.615 -0.2805  0.0434 -0.2092
  340MOL0     C44805   2.602   3.568   1.705 -0.0381  0.1339  0.4671
  340MOL0     O44806   2.737   3.596   1.706  0.2148  0.1645  0.2601
  340MOL0     C44807   2.786   3.693   1.804  0.2260 -0.1204 -1.0757
  340MOL0     C44808   2.937   3.693   1.811 -0.6567 -0.0434  0.3262
  340MOL0     C44809   2.992   3.831   1.857  0.5965  0.3263 -0.7078
  340MOL0     C44810   3.140   3.847   1.837 -0.8525  0.1395  0.2469
  340MOL0     C44811   3.176   3.842   1.697 -0.2151  0.3974  0.6764
  340MOL0     C44812   3.189   3.872   1.589 -0.6267  0.8196  0.5551
  340MOL0     C44813   2.494   3.636   1.774  0.0136 -0.4941  0.3222
  340MOL0     C44814   2.358   3.587   1.760  0.8442  0.6638  0.1377
  340MOL0     H44815   1.942   3.494   1.449 -0.1639  0.9701  3.5959
  340MOL0     H44816   1.714   3.426   1.471  1.8288  2.8206  0.8996
  340MOL0     H44817   1.491   3.281   1.505 -1.8308 -1.7010  0.5512
  340MOL0     H44818   1.570   3.364   1.656  3.4646  0.9912 -1.2129
  340MOL0     H44819   1.408   3.115   1.658  3.1666 -0.0513 -1.6958
  340MOL0     H44820   1.341   3.272   1.696  0.8895  0.5607  2.4753
  340MOL0     H44821   1.492   3.336   1.868 -0.2490 -0.8684  2.0772
  340MOL0     H44822   1.575   3.182   1.846  1.1008  0.8607 -4.3087
  340MOL0     H44823   1.419   3.201   2.040 -1.1952  0.0528 -0.0931
  340MOL0     H44824   1.276   3.212   1.934 -1.5887 -2.3134  0.4239
  340MOL0     H44825   1.473   2.973   1.935 -0.1486 -0.4870  0.6446
  340MOL0     H44826   1.327   3.005   1.837 -1.5031 -0.0021 -0.0270
  340MOL0     H44827   1.324   2.984   2.134 -2.2625 -0.3093  0.5219
  340MOL0     H44828   1.322   2.837   2.033 -0.3687  0.1457 -3.9058
  340MOL0     H44829   1.096   2.901   2.100  0.3285  4.0246  3.1770
  340MOL0     H44830   1.122   3.059   2.028  0.9697  0.2870  1.4457
  340MOL0     H44831   1.079   2.783   1.880  0.3289 -0.2719 -0.5419
  340MOL0     H44832   1.152   2.914   1.798  1.2019 -2.9606 -0.5960
  340MOL0     H44833   0.843   2.817   1.940 -2.8285  1.0913  1.2832
  340MOL0     H44834   0.554   3.106   1.867 -1.3210  0.2161 -0.4525
  340MOL0     H44835   0.574   2.950   1.945  2.8342 -1.6413 -0.8056
  340MOL0     H44836   0.429   2.925   1.756 -0.0018 -1.2960 -2.9948
  340MOL0     H44837   0.579   2.835   1.725 -1.5917 -0.1348 -1.2021
  340MOL0     H44838   0.559   3.110   1.613  1.5367  0.4739  0.4193
  340MOL0     H44839   0.638   2.969   1.540 -0.1375 -0.2763  0.4394
  340MOL0     H44840   0.413   2.854   1.507 -0.6276 -0.7163 -3.0422
  340MOL0     H44841   0.446   2.993   1.401 -0.1750  0.8652  1.1510
  340MOL0     H44842   0.242   2.934   1.303 -0.8743  1.0908 -2.0662
  340MOL0     H44843   0.021   2.956   1.213  3.7933 -0.4682 -0.9938
  340MOL0     H44844  -0.426   3.138   1.248 -0.3864 -0.4894 -0.9784
  340MOL0     H44845  -0.683   3.159   1.236  2.2754  2.0649  1.1477
  340MOL0     H44846  -0.909   2.946   1.543 -0.8485  1.5427  0.0929
  340MOL0     H44847  -0.903   2.824   1.410 -1.9476 -0.1391 -0.8328
  340MOL0     H44848  -1.087   2.944   1.302 -4.0376 -0.4315  0.8826
  340MOL0     H44849  -1.088   3.061   1.428 -1.9547 -0.3639 -0.2094
  340MOL0     H44850  -1.134   2.868   1.612  1.5688 -2.3354 -1.2963
  340MOL0     H44851  -1.174   2.766   1.480  0.7863 -0.2133  0.9097
  340MOL0     H44852  -1.337   3.006   1.533 -5.1068  0.3059 -2.0233
  340MOL0     H44853  -1.345   2.922   1.384  1.2611  3.4198  0.1621
  340MOL0     H44854  -1.385   2.783   1.665  1.4840 -2.1813 -1.0144
  340MOL0     H44855  -1.429   2.723   1.504 -4.6936  2.6471 -3.7016
  340MOL0     H44856  -1.574   2.923   1.484 -0.6184 -0.2697  0.6133
  340MOL0     H44857  -1.531   2.962   1.650 -1.7272 -1.0462  2.8146
  340MOL0     H44858  -1.669   2.708   1.557  1.0685 -1.0845 -0.1708
  340MOL0     H44859  -1.599   2.720   1.717 -1.1159  0.3956  0.4186
  340MOL0     H44860  -1.804   2.919   1.601  0.1102 -0.9590 -1.6342
  340MOL0     H44861  -1.733   2.906   1.772  0.1079  0.2288 -0.8766
  340MOL0     H44862  -0.691   2.878   1.575 -0.3289  2.2832  1.5411
  340MOL0     H44863  -0.463   2.866   1.575  1.3686  0.6015 -1.2500
  340MOL0     H44864  -0.129   3.082   1.592  0.9433  0.9129  0.6158
  340MOL0     H44865   0.110   3.093   1.671  0.1099  1.9453 -0.8245
  340MOL0     H44866   1.827   3.048   1.637 -1.6929  1.5350  0.7312
  340MOL0     H44867   2.078   3.118   1.601 -0.4609  1.1297  1.4079
  340MOL0     H44868   2.408   3.348   1.521 -1.6928 -1.1858  1.3664
  340MOL0     H44869   2.647   3.426   1.561 -0.6541  0.5218 -1.1750
  340MOL0     H44870   2.751   3.686   1.908  2.1834  1.6364 -0.2335
  340MOL0     H44871   2.756   3.791   1.767  0.2457 -0.1098 -1.0627
  340MOL0     H44872   2.978   3.621   1.882  2.2159  1.7648  0.6398
  340MOL0     H44873   2.972   3.666   1.711  0.6015  0.5940  0.5752
  340MOL0     H44874   2.982   3.827   1.965 -0.2700  1.0629 -0.7492
  340MOL0     H44875   2.945   3.916   1.806  3.8247  1.4181 -2.1573
  340MOL0     H44876   3.168   3.949   1.864  1.0035  0.6044 -2.9291
  340MOL0     H44877   3.194   3.781   1.905 -0.9947 -0.3754 -0.1348
  340MOL0     H44878   3.205   3.905   1.488  0.8532  1.6969  1.0543
  340MOL0     H44879   2.508   3.714   1.848 -1.3099 -1.2789  1.4476
  340MOL0     H44880   2.281   3.635   1.820 -1.7536 -0.5158 -2.0528
  341MOL0     O44881   7.542  10.449   6.763  0.4850 -0.4760 -0.1829
  341MOL0     C44882   7.484  10.485   6.865 -0.7270  0.6570 -0.2860
  341MOL0     O44883   7.349  10.497   6.889  0.3925  0.1804 -0.1792
  341MOL0     C44884   7.251  10.447   6.805 -0.4413 -0.9319  0.9134
  341MOL0     C44885   7.262  10.446   6.662  0.9859  0.2715  0.0270
  341MOL0     C44886   7.143  10.404   6.591 -0.0513 -0.1968 -0.8121
  341MOL0     C44887   7.021  10.366   6.651  0.0376 -0.3616  0.7653
  341MOL0     O44888   6.910  10.343   6.577  0.4213  0.0154  0.1885
  341MOL0     C44889   6.795  10.304   6.655 -0.8946  0.4301  0.7144
  341MOL0     C44890   6.687  10.251   6.553  0.7899  0.7291 -0.0465
  341MOL0     C44891   6.555  10.272   6.612 -0.4462 -0.7309  0.5156
  341MOL0     C44892   6.442  10.210   6.534 -0.4220  0.2558  0.1310
  341MOL0     C44893   6.309  10.211   6.604 -0.2487  0.4625 -0.2313
  341MOL0     C44894   6.204  10.109   6.553  0.5133 -0.4720 -0.1494
  341MOL0     C44895   6.074  10.149   6.625  0.4704 -0.0501 -0.2684
  341MOL0     C44896   5.968  10.067   6.542 -0.0930 -0.0216  0.4128
  341MOL0     N44897   5.827  10.114   6.563  0.4384  0.0324  0.0486
  341MOL0     C44898   5.716  10.036   6.590  0.1670 -0.9532 -0.3840
  341MOL0     C44899   5.606  10.118   6.581  0.2031 -0.2971  0.5422
  341MOL0     C44900   5.461  10.078   6.611 -0.2218  0.2178  0.2573
  341MOL0     C44901   5.388  10.192   6.686 -0.3927 -0.9481 -0.0735
  341MOL0     C44902   5.339  10.316   6.607  0.5626 -0.3269 -1.4534
  341MOL0     C44903   5.235  10.282   6.510 -0.4706  0.2701  0.4429
  341MOL0     O44904   5.191  10.400   6.431  0.7041  0.8850 -0.5219
  341MOL0     C44905   5.060  10.404   6.384 -0.1748 -1.1506 -0.7206
  341MOL0     C44906   4.959  10.332   6.437 -0.0046 -1.1292  0.6163
  341MOL0     C44907   4.826  10.331   6.388 -0.2755  0.2963 -0.1371
  341MOL0     C44908   4.783  10.443   6.310 -0.2481  0.3656 -0.4912
  341MOL0     C44909   4.641  10.449   6.267  0.0267 -0.0794 -0.5226
  341MOL0     O44910   4.608  10.559   6.203  0.2029  0.6066  0.5842
  341MOL0     C44911   4.469  10.571   6.181 -0.0909  0.3263 -0.3140
  341MOL0     C44912   4.406  10.672   6.266 -0.1364  0.8187 -0.1009
  341MOL0     C44913   4.273  10.705   6.258  0.4052  0.4503  0.0233
  341MOL0     C44914   4.193  10.624   6.183 -0.1581  0.0774  1.2582
  341MOL0     O44915   4.058  10.634   6.178 -0.1658  0.0653  0.0178
  341MOL0     C44916   3.993  10.720   6.276  0.1858  0.9070  0.2157
  341MOL0     C44917   3.845  10.728   6.248  0.7328 -0.1257 -0.3615
  341MOL0     C44918   3.815  10.795   6.116 -0.2003 -0.3133 -0.2581
  341MOL0     C44919   3.668  10.780   6.085 -0.7976  0.0873 -0.2892
  341MOL0     C44920   3.646  10.829   5.944 -0.2955  1.0746 -0.4014
  341MOL0     C44921   3.505  10.779   5.898 -1.1026 -1.2432 -0.1398
  341MOL0     C44922   3.480  10.845   5.762 -0.1946 -0.8891 -0.8482
  341MOL0     C44923   3.367  10.777   5.692  0.4968  0.1991 -0.2953
  341MOL0    Cl44924   3.224  10.809   5.784 -0.0987 -0.0666  0.6487
  341MOL0     C44925   4.253  10.533   6.100  0.4491  0.2535 -0.1183
  341MOL0     C44926   4.390  10.496   6.093  0.4378 -0.3738 -0.7711
  341MOL0     O44927   4.564  10.360   6.305 -0.3148  0.7324 -0.4574
  341MOL0     C44928   4.889  10.519   6.251  0.6839  0.6437  0.2477
  341MOL0     C44929   5.022  10.496   6.285  0.4462 -0.8246 -0.9268
  341MOL0     N44930   5.652  10.239   6.539  0.0920 -0.1718  0.2629
  341MOL0     N44931   5.785  10.243   6.534  0.3955  0.6852  0.8150
  341MOL0     C44932   7.023  10.358   6.795 -0.5299 -0.5070  0.6678
  341MOL0     C44933   7.138  10.397   6.867 -0.4413 -1.0380 -0.4503
  341MOL0     C44934   7.581  10.499   6.980 -0.0163  0.6483  0.2513
  341MOL0     C44935   7.534  10.513   7.111  0.4219  0.0423 -0.0362
  341MOL0     C44936   7.628  10.556   7.215  1.3693 -0.3620  0.0799
  341MOL0     C44937   7.766  10.569   7.186  0.3093  0.4005  1.0596
  341MOL0     O44938   7.858  10.606   7.279 -0.2823  0.3461  0.0032
  341MOL0     C44939   7.850  10.579   7.421  0.3803  1.1682 -0.2542
  341MOL0     C44940   7.980  10.618   7.497 -0.1934  0.4665 -0.1265
  341MOL0     C44941   8.105  10.533   7.455 -0.6186  0.5945 -0.2378
  341MOL0     C44942   8.209  10.550   7.571  0.1475 -0.5593  0.4736
  341MOL0     C44943   8.260  10.686   7.578 -0.6173 -0.1258  0.9115
  341MOL0     C44944   8.309  10.799   7.583 -0.0772 -0.2614  0.2212
  341MOL0     C44945   7.800  10.577   7.053 -0.1942  0.2325 -0.1386
  341MOL0     C44946   7.715  10.536   6.952 -0.6183 -0.5865 -0.2719
  341MOL0     H44947   7.344  10.491   6.607  1.8536  0.1084  1.1615
  341MOL0     H44948   7.153  10.416   6.484 -0.7553 -3.3745 -1.3335
  341MOL0     H44949   6.763  10.386   6.720 -1.0858  0.8627  0.0842
  341MOL0     H44950   6.815  10.219   6.722 -1.2653 -0.6393 -0.4877
  341MOL0     H44951   6.705  10.144   6.535  0.2963  0.7768 -0.8975
  341MOL0     H44952   6.690  10.296   6.453  1.5527  0.0433 -0.3418
  341MOL0     H44953   6.533  10.379   6.615 -2.1783 -1.0862  1.4221
  341MOL0     H44954   6.550  10.230   6.713 -1.2695 -0.8191  0.4458
  341MOL0     H44955   6.432  10.258   6.437  0.7854  0.9617  0.3251
  341MOL0     H44956   6.475  10.109   6.507  0.5271  0.5817  0.0086
  341MOL0     H44957   6.274  10.313   6.585 -0.8553 -0.0010 -1.6767
  341MOL0     H44958   6.318  10.194   6.712  1.6211  3.7859  0.2675
  341MOL0     H44959   6.237  10.010   6.585 -1.1005 -0.8463  0.4846
  341MOL0     H44960   6.199  10.122   6.444 -0.4566  1.1103  0.0474
  341MOL0     H44961   6.066  10.135   6.733 -3.2745 -1.2829 -0.5464
  341MOL0     H44962   6.060  10.255   6.604  2.2945  0.8058  2.4024
  341MOL0     H44963   5.982   9.960   6.563  0.1470  0.2639  1.8603
  341MOL0     H44964   5.977  10.076   6.434 -1.6539 -2.1271  0.0415
  341MOL0     H44965   5.720   9.929   6.609  0.1805 -1.3289 -2.2334
  341MOL0     H44966   5.459   9.986   6.669  2.5357  1.2863  2.2641
  341MOL0     H44967   5.409  10.045   6.520  1.4914 -1.7994 -0.0769
  341MOL0     H44968   5.452  10.231   6.766 -2.2074 -2.4704  2.2305
  341MOL0     H44969   5.312  10.147   6.749  1.1678  0.1690  2.7754
  341MOL0     H44970   5.293  10.390   6.673  1.4314  0.3887 -1.6313
  341MOL0     H44971   5.426  10.367   6.565 -0.1172  3.2130  1.0098
  341MOL0     H44972   5.160  10.234   6.574  0.6264  0.0444  1.5949
  341MOL0     H44973   5.271  10.201   6.446 -0.7171  0.6092 -0.1300
  341MOL0     H44974   4.964  10.258   6.517 -0.5155 -0.3124  1.4162
  341MOL0     H44975   4.758  10.267   6.443  1.2571 -0.4379  0.9763
  341MOL0     H44976   4.452  10.744   6.333  0.5322  1.2203 -0.9662
  341MOL0     H44977   4.246  10.798   6.308 -1.0906  0.6645 -1.1068
  341MOL0     H44978   4.032  10.822   6.269  0.2136  0.9258  0.6294
  341MOL0     H44979   4.003  10.691   6.381  0.5589  3.3641  0.9171
  341MOL0     H44980   3.801  10.778   6.334  2.4656 -0.0099  0.5055
  341MOL0     H44981   3.810  10.624   6.243 -0.8089  0.3961 -0.7317
  341MOL0     H44982   3.881  10.744   6.046 -1.6808  0.9106 -2.6625
  341MOL0     H44983   3.842  10.899   6.135 -2.7248  0.1608  1.2938
  341MOL0     H44984   3.625  10.680   6.092 -0.1237 -0.2473 -0.8790
  341MOL0     H44985   3.607  10.851   6.143  1.2604  1.4242  0.3322
  341MOL0     H44986   3.715  10.776   5.877 -1.5261 -0.7287 -0.3311
  341MOL0     H44987   3.659  10.937   5.939  2.0068  1.0603  2.4741
  341MOL0     H44988   3.438  10.827   5.970 -0.2013  0.8483 -0.6149
  341MOL0     H44989   3.502  10.670   5.894  1.0484 -1.3801  0.4368
  341MOL0     H44990   3.465  10.952   5.779  0.0056 -0.8590 -0.8599
  341MOL0     H44991   3.567  10.832   5.697 -0.9320 -0.7000 -1.8955
  341MOL0     H44992   3.389  10.672   5.667  0.7724  0.5317 -1.5371
  341MOL0     H44993   3.354  10.827   5.595  1.0331  0.8445 -0.0412
  341MOL0     H44994   4.179  10.473   6.047  1.7562 -4.0947  2.4407
  341MOL0     H44995   4.431  10.426   6.021  1.3231  1.2008 -1.8671
  341MOL0     H44996   4.883  10.594   6.173 -0.5390  2.3734  1.9047
  341MOL0     H44997   5.094  10.567   6.246 -0.1810  0.0780 -0.4717
  341MOL0     H44998   6.939  10.333   6.860 -1.9356  1.9272 -0.0626
  341MOL0     H44999   7.138  10.390   6.975  0.4292  0.9018 -0.2895
  341MOL0     H45000   7.434  10.491   7.146  1.2189 -2.1149  1.1097
  341MOL0     H45001   7.588  10.570   7.315 -0.0625  0.0561 -0.5223
  341MOL0     H45002   7.838  10.471   7.430  0.5687  1.0145 -1.6248
  341MOL0     H45003   7.761  10.633   7.454 -0.5417  0.2271 -1.1126
  341MOL0     H45004   7.995  10.725   7.485 -0.9160  0.7587  1.4221
  341MOL0     H45005   7.955  10.592   7.600  0.8429 -0.4738 -0.0916
  341MOL0     H45006   8.148  10.554   7.356  1.5762 -3.1042 -0.2368
  341MOL0     H45007   8.061  10.433   7.448  2.0499 -0.7300  0.4691
  341MOL0     H45008   8.167  10.526   7.669 -0.7926  1.7697  0.7189
  341MOL0     H45009   8.292  10.485   7.542  0.0082 -1.1925  1.4803
  341MOL0     H45010   8.352  10.897   7.581 -2.2276  0.7954 -2.8775
  341MOL0     H45011   7.898  10.621   7.033 -0.2253  1.0622  1.3676
  341MOL0     H45012   7.756  10.562   6.855 -2.3205  0.6925 -0.6933
  342MOL0     O45013  10.263   3.551   9.094  0.0045  0.5238  0.1778
  342MOL0     C45014  10.335   3.638   9.142  0.2570  0.2050 -0.5029
  342MOL0     O45015  10.297   3.717   9.251  0.1537 -0.2010  0.3682
  342MOL0     C45016  10.166   3.720   9.306  0.3641 -0.4622 -0.4289
  342MOL0     C45017  10.166   3.755   9.440 -0.8536  0.2819  0.6982
  342MOL0     C45018  10.044   3.750   9.499  0.2777 -0.3770 -0.0021
  342MOL0     C45019   9.929   3.722   9.428  0.0148  0.4836 -0.1022
  342MOL0     O45020   9.823   3.732   9.505  1.1465 -0.0516  0.0431
  342MOL0     C45021   9.700   3.671   9.451  0.0780  0.0787 -0.5908
  342MOL0     C45022   9.585   3.655   9.541  0.2806 -0.7735 -0.5310
  342MOL0     C45023   9.463   3.613   9.467  0.6337  0.0920 -0.1904
  342MOL0     C45024   9.347   3.584   9.567  0.0672  0.0906  0.0046
  342MOL0     C45025   9.221   3.565   9.484  0.4930 -0.4304  0.7666
  342MOL0     C45026   9.105   3.536   9.579  0.3402  0.0484  0.1629
  342MOL0     C45027   8.978   3.516   9.496  0.6660 -0.1705 -0.4776
  342MOL0     C45028   8.859   3.484   9.589  0.5614 -0.6121  0.2439
  342MOL0     N45029   8.735   3.445   9.522  0.2466 -1.0302  0.2777
  342MOL0     C45030   8.716   3.359   9.424  0.8935  0.1031 -0.2726
  342MOL0     C45031   8.592   3.380   9.379  0.8553 -0.1991  0.6754
  342MOL0     C45032   8.525   3.298   9.275  1.0603 -0.3106  0.2360
  342MOL0     C45033   8.483   3.171   9.338  0.0174 -0.5368 -0.0553
  342MOL0     C45034   8.353   3.191   9.417  0.4452  0.7370 -0.7677
  342MOL0     C45035   8.220   3.208   9.334  0.5657  0.3453 -0.4835
  342MOL0     O45036   8.126   3.119   9.400  0.3877 -0.1335 -0.1025
  342MOL0     C45037   7.997   3.126   9.363 -0.0213  0.1629 -0.0064
  342MOL0     C45038   7.913   3.046   9.445 -0.2551 -0.9620  0.3913
  342MOL0     C45039   7.779   3.044   9.401 -0.3115  0.3592  0.0673
  342MOL0     C45040   7.732   3.121   9.295  0.0079  0.5303 -0.0491
  342MOL0     C45041   7.588   3.132   9.263 -0.8031 -0.4183 -0.1926
  342MOL0     O45042   7.499   3.079   9.358  0.1637  0.8127 -0.2036
  342MOL0     C45043   7.366   3.108   9.347 -0.0200 -0.7509 -1.1032
  342MOL0     C45044   7.311   3.232   9.297  0.2626  0.0977  0.4003
  342MOL0     C45045   7.175   3.255   9.307  0.2183 -1.0400  0.5472
  342MOL0     C45046   7.086   3.162   9.358  0.0258  0.4054 -0.4203
  342MOL0     O45047   6.955   3.189   9.361 -0.0449  0.1503  0.4579
  342MOL0     C45048   6.900   3.316   9.349  1.2262  0.2395 -0.2074
  342MOL0     C45049   6.768   3.321   9.426 -0.0768  0.1017 -1.1612
  342MOL0     C45050   6.793   3.270   9.575  0.1052  0.2433  0.7133
  342MOL0     C45051   6.671   3.237   9.662  1.1730 -0.2501 -0.2501
  342MOL0     C45052   6.620   3.098   9.620  0.0663 -0.4793 -0.8097
  342MOL0     C45053   6.511   3.030   9.714 -0.6278 -0.0665 -0.4479
  342MOL0     C45054   6.391   2.980   9.636 -0.0766  0.1862  0.8306
  342MOL0     C45055   6.263   3.015   9.716  0.5108 -1.0737 -0.2641
  342MOL0    Cl45056   6.121   2.982   9.624  0.2163  0.0097 -0.0009
  342MOL0     C45057   7.139   3.037   9.400  0.5053 -0.0021  0.4073
  342MOL0     C45058   7.279   3.006   9.404  0.3561  0.5316  0.6485
  342MOL0     O45059   7.551   3.181   9.155  0.2544  0.1421  0.3060
  342MOL0     C45060   7.823   3.195   9.222 -0.2218 -0.5130 -0.4513
  342MOL0     C45061   7.956   3.198   9.251  0.5307  0.1010 -0.8106
  342MOL0     N45062   8.536   3.488   9.442 -0.4296 -0.6564 -0.4659
  342MOL0     N45063   8.625   3.521   9.529  0.3993 -0.2016  0.2039
  342MOL0     C45064   9.928   3.690   9.288 -0.9049 -0.9729 -0.8054
  342MOL0     C45065  10.051   3.696   9.227  0.4704  0.4655  0.2351
  342MOL0     C45066  10.474   3.645   9.088 -1.5232 -0.9024  0.3843
  342MOL0     C45067  10.534   3.541   9.021  0.0431  0.4451  0.6695
  342MOL0     C45068  10.664   3.553   8.974 -0.7669 -0.1360  0.2858
  342MOL0     C45069  10.741   3.663   8.999 -0.5427  0.3979 -0.1294
  342MOL0     O45070  10.876   3.658   8.955  0.8246 -0.4118 -0.6206
  342MOL0     C45071  10.961   3.767   8.994  0.0710  0.5432  0.2185
  342MOL0     C45072  10.999   3.866   8.881  0.3727 -0.0400 -0.4179
  342MOL0     C45073  10.886   3.898   8.785  0.3763  0.3820 -1.0285
  342MOL0     C45074  10.919   3.976   8.658  0.8383 -0.2860  0.4478
  342MOL0     C45075  10.796   4.008   8.578  0.0458  0.1618 -0.0061
  342MOL0     C45076  10.692   4.029   8.525  0.2342  0.5399 -0.6217
  342MOL0     C45077  10.679   3.773   9.062  0.5685  0.7393  0.4323
  342MOL0     C45078  10.544   3.765   9.096  0.3541 -0.7065 -1.0948
  342MOL0     H45079  10.252   3.795   9.495  0.2541  0.4946 -1.1055
  342MOL0     H45080  10.029   3.776   9.603 -1.9597 -3.4468  0.5910
  342MOL0     H45081   9.716   3.579   9.394 -0.5506 -1.1531  1.1435
  342MOL0     H45082   9.669   3.748   9.379  1.8775 -1.0431 -2.6929
  342MOL0     H45083   9.565   3.749   9.592  1.4154 -0.4803 -0.5974
  342MOL0     H45084   9.607   3.573   9.610  0.1477 -0.1557  0.2578
  342MOL0     H45085   9.487   3.520   9.414 -1.6008 -1.1528  0.8482
  342MOL0     H45086   9.419   3.685   9.398  0.7346  0.2614 -0.0809
  342MOL0     H45087   9.362   3.493   9.626  1.9122  0.7269  0.5893
  342MOL0     H45088   9.338   3.666   9.638 -1.6191 -0.3384  0.3356
  342MOL0     H45089   9.221   3.484   9.411 -2.9933  1.2934 -1.3963
  342MOL0     H45090   9.202   3.655   9.425  1.4412 -0.4807  0.3725
  342MOL0     H45091   9.098   3.617   9.652 -1.0738 -0.7853  0.9934
  342MOL0     H45092   9.119   3.443   9.635 -2.9612  0.0138  1.1327
  342MOL0     H45093   8.954   3.604   9.436 -1.1348 -0.5544 -0.3880
  342MOL0     H45094   8.995   3.427   9.435 -1.9232 -0.3338 -1.0814
  342MOL0     H45095   8.836   3.567   9.657 -0.0470  1.2638 -2.0951
  342MOL0     H45096   8.883   3.400   9.655 -2.0108  0.7159  3.1257
  342MOL0     H45097   8.789   3.285   9.393 -0.6723 -1.1175 -1.2268
  342MOL0     H45098   8.599   3.280   9.196  1.4268  1.1713  0.2241
  342MOL0     H45099   8.438   3.348   9.232  0.8879  1.2441  2.2622
  342MOL0     H45100   8.562   3.134   9.404  1.7160  3.5419  0.5499
  342MOL0     H45101   8.452   3.096   9.266 -0.2707 -1.1735  0.7256
  342MOL0     H45102   8.344   3.100   9.476  1.0963 -0.4825 -2.4615
  342MOL0     H45103   8.372   3.272   9.488 -1.1192 -0.3410  0.9428
  342MOL0     H45104   8.251   3.170   9.237  2.9926  0.4531  0.1747
  342MOL0     H45105   8.196   3.314   9.343 -0.3890 -0.0196  3.3717
  342MOL0     H45106   7.954   2.986   9.526  1.2192 -1.5284 -0.7419
  342MOL0     H45107   7.710   2.982   9.458 -1.1649  2.3524  1.3258
  342MOL0     H45108   7.380   3.307   9.260  2.5034 -2.3196 -0.6994
  342MOL0     H45109   7.136   3.344   9.259 -0.1714 -1.8493 -0.7010
  342MOL0     H45110   6.883   3.330   9.242  1.9048 -1.8664 -0.6360
  342MOL0     H45111   6.972   3.392   9.382  4.6587 -2.1960 -1.4693
  342MOL0     H45112   6.695   3.253   9.381  2.1946 -2.4344 -1.2631
  342MOL0     H45113   6.735   3.425   9.427  0.5321  0.2895 -0.6464
  342MOL0     H45114   6.863   3.337   9.626  2.6305 -1.5970 -0.0952
  342MOL0     H45115   6.850   3.177   9.572  0.6817  0.5898  0.7898
  342MOL0     H45116   6.716   3.228   9.761 -1.1691 -2.2154  0.7463
  342MOL0     H45117   6.600   3.319   9.672  2.7073  0.8269  3.1160
  342MOL0     H45118   6.694   3.019   9.603 -0.8454 -1.6190  0.2409
  342MOL0     H45119   6.574   3.120   9.524  0.1867  0.9437 -0.5654
  342MOL0     H45120   6.475   3.109   9.780  3.2138  0.5742  1.1583
  342MOL0     H45121   6.555   2.951   9.776 -2.7530 -0.8096  0.1883
  342MOL0     H45122   6.387   3.023   9.535  2.4868  1.4713  1.2021
  342MOL0     H45123   6.405   2.872   9.624  0.4641  0.1506  1.7084
  342MOL0     H45124   6.249   3.119   9.746 -0.1966 -2.0568  3.3391
  342MOL0     H45125   6.266   2.948   9.802  0.7784  0.6960  1.1571
  342MOL0     H45126   7.069   2.960   9.431  1.7868 -1.1907  0.4907
  342MOL0     H45127   7.315   2.912   9.443  1.4272  0.8436  0.4272
  342MOL0     H45128   7.803   3.256   9.134  1.2146 -0.3202 -0.6688
  342MOL0     H45129   8.027   3.256   9.192  0.0179 -2.5319 -4.3106
  342MOL0     H45130   9.835   3.674   9.234  1.3517 -3.9546 -4.2289
  342MOL0     H45131  10.060   3.683   9.120 -2.8663  1.6911 -0.3276
  342MOL0     H45132  10.473   3.451   9.022  0.3445  0.2412  0.8669
  342MOL0     H45133  10.711   3.467   8.927  1.3562  1.0843  0.0502
  342MOL0     H45134  11.061   3.727   9.017 -0.3188 -1.1414 -0.8934
  342MOL0     H45135  10.920   3.821   9.080 -1.7689  0.3963 -0.5217
  342MOL0     H45136  11.033   3.956   8.932 -2.5821  1.2619 -0.5505
  342MOL0     H45137  11.084   3.826   8.825  0.4110 -0.6675  0.0676
  342MOL0     H45138  10.810   3.952   8.842 -0.2675 -0.4512 -1.0794
  342MOL0     H45139  10.841   3.808   8.743  2.5069 -0.3518 -1.8736
  342MOL0     H45140  10.965   4.069   8.693 -3.4897  2.0432  0.6534
  342MOL0     H45141  10.995   3.915   8.607  0.5718 -0.5300  0.3427
  342MOL0     H45142  10.595   4.049   8.483 -0.5926 -0.8244  0.5584
  342MOL0     H45143  10.734   3.867   9.066  1.3309  0.2562  2.3300
  342MOL0     H45144  10.498   3.860   9.122  1.1464  0.1668 -2.7282
  343MOL0     O45145   7.757   3.815   9.581 -0.6864  0.3495 -0.1494
  343MOL0     C45146   7.837   3.866   9.662 -0.0129  0.6127 -0.0224
  343MOL0     O45147   7.800   3.916   9.782  0.8198  0.1904 -0.6954
  343MOL0     C45148   7.670   3.912   9.813  1.2333 -0.2888 -0.0388
  343MOL0     C45149   7.616   3.789   9.861 -0.2623 -0.0770  0.5835
  343MOL0     C45150   7.486   3.778   9.899 -0.7000  0.3131 -0.0459
  343MOL0     C45151   7.401   3.889   9.905 -1.0019  0.4433 -1.0567
  343MOL0     O45152   7.266   3.881   9.931  0.2260  0.0561  0.0767
  343MOL0     C45153   7.231   3.907  10.073 -0.7664 -0.8136  1.2108
  343MOL0     C45154   7.095   3.974  10.090  0.2245  0.3643 -0.5914
  343MOL0     C45155   7.110   4.126  10.052 -0.5531 -0.0220 -0.6490
  343MOL0     C45156   6.995   4.215  10.114  0.4970  0.7191 -0.0890
  343MOL0     C45157   6.938   4.295  10.000 -0.7002  0.8146  0.0646
  343MOL0     C45158   6.851   4.415  10.040 -0.1105 -0.0444 -0.0641
  343MOL0     C45159   6.950   4.524  10.088  0.5214  0.0263  0.2524
  343MOL0     C45160   6.873   4.641  10.157  0.5014 -0.5270 -1.2557
  343MOL0     N45161   6.783   4.591  10.264 -0.7711 -0.6599  0.5123
  343MOL0     C45162   6.650   4.579  10.237  0.0442 -1.1580  0.1699
  343MOL0     C45163   6.602   4.520  10.346 -0.2161 -0.8481 -0.2187
  343MOL0     C45164   6.462   4.502  10.390 -0.4484 -0.3127 -0.1120
  343MOL0     C45165   6.357   4.595  10.346  0.0384 -0.6633 -0.4907
  343MOL0     C45166   6.374   4.735  10.417  0.9169  1.0265  0.6128
  343MOL0     C45167   6.255   4.840  10.393  0.7496 -0.1057  0.7722
  343MOL0     O45168   6.135   4.801  10.465 -0.0430  0.4972 -0.4654
  343MOL0     C45169   6.021   4.878  10.445 -0.5958  0.1499 -0.0123
  343MOL0     C45170   5.916   4.857  10.526  0.4257 -0.3297  0.2838
  343MOL0     C45171   5.800   4.934  10.515  0.0477 -0.5873 -0.5147
  343MOL0     C45172   5.787   5.033  10.413  0.8886  0.5885 -0.8463
  343MOL0     C45173   5.658   5.105  10.385 -0.2622 -0.1037 -0.6292
  343MOL0     O45174   5.545   5.052  10.437 -0.6021 -0.1281  0.3397
  343MOL0     C45175   5.415   5.091  10.408 -1.2547 -0.3959  0.4667
  343MOL0     C45176   5.328   5.028  10.482  0.9946  0.5946 -1.1325
  343MOL0     C45177   5.185   5.050  10.475 -1.2350 -1.2675 -0.7881
  343MOL0     C45178   5.145   5.161  10.398 -0.2268 -0.1169  0.0049
  343MOL0     O45179   5.013   5.189  10.379 -1.4105 -0.9712 -0.8185
  343MOL0     C45180   4.926   5.081  10.340  0.1896  0.4006 -0.1237
  343MOL0     C45181   4.815   5.044  10.442  0.1874  0.1967  0.0027
  343MOL0     C45182   4.752   4.912  10.398  0.7986  0.0120  0.0220
  343MOL0     C45183   4.700   4.916  10.252 -0.3001 -0.3416 -0.4518
  343MOL0     C45184   4.579   5.016  10.238 -0.3011  0.4341 -0.4640
  343MOL0     C45185   4.542   5.029  10.097  0.5746 -0.0022 -0.1627
  343MOL0     C45186   4.435   5.140  10.062 -0.6523  0.2067  0.2790
  343MOL0     C45187   4.301   5.120  10.138  0.1599  0.1144 -0.2436
  343MOL0    Cl45188   4.234   4.958  10.099  0.0971  0.0695  0.1702
  343MOL0     C45189   5.234   5.226  10.314 -0.4304 -0.1003  0.0875
  343MOL0     C45190   5.368   5.186  10.314  0.4551  0.8570  0.7646
  343MOL0     O45191   5.660   5.212  10.320  0.1373  0.3249  0.0536
  343MOL0     C45192   5.901   5.054  10.331  0.2906 -0.9086  0.5165
  343MOL0     C45193   6.023   4.983  10.353  0.6069 -0.2851 -0.1288
  343MOL0     N45194   6.704   4.494  10.437  0.8585  0.0449 -0.4673
  343MOL0     N45195   6.810   4.545  10.390  0.0297  0.0102 -0.1343
  343MOL0     C45196   7.453   4.012   9.868 -0.3928  0.5099 -0.0559
  343MOL0     C45197   7.589   4.030   9.817  0.5499  0.1750 -0.7636
  343MOL0     C45198   7.983   3.888   9.629 -0.0031 -0.2743 -0.7411
  343MOL0     C45199   8.046   3.846   9.510  0.1211 -0.6839  0.8502
  343MOL0     C45200   8.178   3.880   9.485  0.7733 -0.3007 -0.6016
  343MOL0     C45201   8.254   3.964   9.572  0.3219  0.1434 -0.5668
  343MOL0     O45202   8.387   3.997   9.545  0.3813 -0.6937  0.6213
  343MOL0     C45203   8.484   3.898   9.561 -0.0744  0.0359 -0.6090
  343MOL0     C45204   8.551   3.921   9.695 -0.8548  0.4856 -0.6408
  343MOL0     C45205   8.613   4.056   9.717 -0.2506 -0.1222 -0.4543
  343MOL0     C45206   8.703   4.067   9.844 -0.2307  0.1779  0.4494
  343MOL0     C45207   8.770   4.195   9.873  0.5610  0.4786  0.2729
  343MOL0     C45208   8.815   4.304   9.906  0.4860 -0.1933  0.3226
  343MOL0     C45209   8.191   4.015   9.685  0.3180  0.8176  0.8684
  343MOL0     C45210   8.060   3.968   9.725 -0.4669  0.4761 -0.0738
  343MOL0     H45211   7.688   3.708   9.862 -0.0054  0.1504  0.6368
  343MOL0     H45212   7.446   3.683   9.932  0.4355 -0.1675  0.0108
  343MOL0     H45213   7.313   3.967  10.114  1.3682 -0.8646 -2.5710
  343MOL0     H45214   7.229   3.810  10.124 -1.1945 -0.4652  1.8665
  343MOL0     H45215   7.060   3.950  10.191 -3.2970 -1.0818 -1.9800
  343MOL0     H45216   7.023   3.922  10.025  0.0583 -1.0695  0.6856
  343MOL0     H45217   7.113   4.140   9.944  0.6875  3.7873 -0.2966
  343MOL0     H45218   7.200   4.179  10.087  0.0395 -0.3269 -1.6803
  343MOL0     H45219   6.921   4.156  10.168  0.5471 -0.5487 -1.3159
  343MOL0     H45220   7.041   4.278  10.191  2.5666 -1.0629  0.2453
  343MOL0     H45221   6.880   4.230   9.934 -0.8509 -0.8944  1.7709
  343MOL0     H45222   7.017   4.333   9.935  1.8363 -1.4137  1.6138
  343MOL0     H45223   6.771   4.395  10.111  0.2064 -8.5560 -1.0532
  343MOL0     H45224   6.792   4.442   9.952 -0.7072  1.0314  0.6471
  343MOL0     H45225   7.032   4.486  10.149 -0.9536  1.1022  3.0794
  343MOL0     H45226   7.002   4.571  10.005  1.0699 -2.4034 -0.8616
  343MOL0     H45227   6.810   4.694  10.086 -0.9032 -1.7554 -0.9702
  343MOL0     H45228   6.945   4.707  10.206  2.7785 -2.6344 -1.5314
  343MOL0     H45229   6.598   4.610  10.147  0.9151  0.0974  0.0764
  343MOL0     H45230   6.463   4.495  10.499  0.5585  1.0228 -0.0083
  343MOL0     H45231   6.439   4.404  10.347 -0.4570 -0.5311  0.3864
  343MOL0     H45232   6.262   4.560  10.387  0.0773 -0.1577  0.0541
  343MOL0     H45233   6.356   4.616  10.239  3.1208  2.4527 -0.0922
  343MOL0     H45234   6.383   4.712  10.523  0.1352 -0.5625  0.3760
  343MOL0     H45235   6.468   4.781  10.388  1.0119 -0.2520 -1.3424
  343MOL0     H45236   6.230   4.839  10.287 -1.7661  0.2818  1.2990
  343MOL0     H45237   6.289   4.938  10.427 -1.1842  0.5467  0.9564
  343MOL0     H45238   5.940   4.781  10.600 -0.5489  1.1158  2.1820
  343MOL0     H45239   5.717   4.915  10.582 -1.3368 -0.2705 -2.0942
  343MOL0     H45240   5.363   4.949  10.548  0.8176  0.3196 -1.3614
  343MOL0     H45241   5.114   4.992  10.532 -1.5175 -0.5427 -0.3982
  343MOL0     H45242   4.981   4.994  10.304  0.6623  0.1527  1.1366
  343MOL0     H45243   4.873   5.121  10.253  2.3366  0.9171 -1.2678
  343MOL0     H45244   4.753   5.133  10.456  0.6471  0.4114  0.7093
  343MOL0     H45245   4.863   5.023  10.538 -1.8612 -2.0346  0.6341
  343MOL0     H45246   4.671   4.892  10.469 -0.1933  2.5768 -0.2974
  343MOL0     H45247   4.823   4.828  10.404 -0.6717 -1.2302  0.7897
  343MOL0     H45248   4.775   4.941  10.176 -1.2848  1.8623 -0.7988
  343MOL0     H45249   4.669   4.817  10.217 -0.8680  0.2288 -1.6163
  343MOL0     H45250   4.603   5.116  10.274 -2.0075  0.9973 -0.8292
  343MOL0     H45251   4.491   4.977  10.291  0.1936 -0.9468 -0.5977
  343MOL0     H45252   4.497   4.936  10.061  0.3296  1.1757 -3.2028
  343MOL0     H45253   4.636   5.024  10.040  1.1508  2.1049  0.5202
  343MOL0     H45254   4.471   5.241  10.079 -3.5379  1.1392  1.4343
  343MOL0     H45255   4.408   5.130   9.956  1.3979 -1.0767 -0.1668
  343MOL0     H45256   4.223   5.194  10.118 -0.2335 -0.9378 -2.9954
  343MOL0     H45257   4.315   5.135  10.246  1.4288 -3.4134  0.2296
  343MOL0     H45258   5.186   5.294  10.244 -1.3472 -1.4187 -0.6126
  343MOL0     H45259   5.447   5.230  10.254 -0.8420  0.8609 -1.0461
  343MOL0     H45260   5.900   5.126  10.250  1.6712 -1.6424 -0.1919
  343MOL0     H45261   6.113   5.006  10.296 -0.0903 -0.9027 -1.5076
  343MOL0     H45262   7.381   4.093   9.867 -2.5914 -1.0574  4.3736
  343MOL0     H45263   7.614   4.126   9.773  2.3468 -1.0837 -2.7070
  343MOL0     H45264   7.996   3.780   9.439  1.4043 -0.8631  0.0774
  343MOL0     H45265   8.234   3.851   9.396  2.8906  0.6733  0.3316
  343MOL0     H45266   8.557   3.899   9.479  0.4257  0.4888 -0.1625
  343MOL0     H45267   8.436   3.801   9.552 -2.1768  1.1661 -3.1012
  343MOL0     H45268   8.474   3.897   9.769  1.7217 -5.0782  0.6803
  343MOL0     H45269   8.631   3.848   9.687 -0.4962  0.9093 -1.0000
  343MOL0     H45270   8.526   4.121   9.730  0.7540  0.7991  2.3930
  343MOL0     H45271   8.672   4.086   9.630  1.1598 -0.5916  0.3209
  343MOL0     H45272   8.652   4.036   9.935  1.0900  0.1100  1.1884
  343MOL0     H45273   8.791   4.004   9.831 -1.1003 -0.7982 -1.0762
  343MOL0     H45274   8.844   4.403   9.933  1.4087 -1.0811  2.8951
  343MOL0     H45275   8.232   4.097   9.742 -0.6648  2.2952 -0.4819
  343MOL0     H45276   8.013   4.010   9.814 -2.3472 -1.0928 -0.2629
  344MOL0     O45277   8.709   0.839   6.223  0.6286  0.2651 -0.3240
  344MOL0     C45278   8.744   0.773   6.122 -0.0720 -0.5308 -0.8619
  344MOL0     O45279   8.733   0.811   5.986 -0.0460 -0.1997  0.5966
  344MOL0     C45280   8.658   0.925   5.965  0.1960  0.4150 -0.3821
  344MOL0     C45281   8.728   1.050   5.951  0.7296 -0.2561 -0.5121
  344MOL0     C45282   8.649   1.162   5.926  0.0371  0.3904  0.1707
  344MOL0     C45283   8.506   1.147   5.920 -0.2209 -1.1323  0.5546
  344MOL0     O45284   8.427   1.264   5.915 -0.8692  1.0571  0.1340
  344MOL0     C45285   8.407   1.319   5.786 -0.4851  0.7709  0.5439
  344MOL0     C45286   8.300   1.418   5.774 -1.3236 -0.0107 -0.1206
  344MOL0     C45287   8.172   1.343   5.715 -0.3637 -0.3056 -0.1868
  344MOL0     C45288   8.107   1.237   5.811  0.4914 -0.0883  0.2105
  344MOL0     C45289   7.958   1.216   5.786  0.1336  0.4867  0.2656
  344MOL0     C45290   7.935   1.169   5.646 -0.2062 -0.5958  0.1294
  344MOL0     C45291   7.787   1.177   5.606  0.0191 -0.3022  0.0687
  344MOL0     C45292   7.780   1.161   5.453 -0.1843  0.4018 -0.5820
  344MOL0     N45293   7.645   1.154   5.391 -0.5610  0.1109  0.5046
  344MOL0     C45294   7.528   1.217   5.433  0.6055 -0.1645  0.2404
  344MOL0     C45295   7.447   1.183   5.335 -0.5626  0.6738 -1.1635
  344MOL0     C45296   7.311   1.236   5.344  0.2301  0.1329 -0.1460
  344MOL0     C45297   7.230   1.199   5.217  0.0934 -0.5828 -0.1793
  344MOL0     C45298   7.072   1.215   5.241 -1.1510 -0.3472 -0.0483
  344MOL0     C45299   7.015   1.358   5.230  0.2536 -0.4566 -0.0762
  344MOL0     O45300   6.882   1.353   5.289 -0.3150 -0.0091  0.0973
  344MOL0     C45301   6.784   1.411   5.208  0.0172 -0.3983  0.1179
  344MOL0     C45302   6.778   1.385   5.069  0.6816 -0.3936 -0.1670
  344MOL0     C45303   6.675   1.438   4.980 -0.8978 -0.5524 -1.1329
  344MOL0     C45304   6.581   1.523   5.039  0.6619  0.1533 -0.6946
  344MOL0     C45305   6.465   1.564   4.959  0.1550 -0.4660  0.0352
  344MOL0     O45306   6.368   1.625   5.025  0.2364 -0.0318  0.1160
  344MOL0     C45307   6.244   1.656   4.986  0.5963 -0.1096  0.5309
  344MOL0     C45308   6.189   1.757   5.062  1.1509 -0.0316  0.6680
  344MOL0     C45309   6.058   1.799   5.038 -0.6227  0.2206 -0.4611
  344MOL0     C45310   5.979   1.750   4.928 -0.0775 -0.5535 -0.4282
  344MOL0     O45311   5.865   1.818   4.910  0.2218  0.1486  0.2839
  344MOL0     C45312   5.754   1.743   4.872  0.1975  0.2713  0.2080
  344MOL0     C45313   5.620   1.805   4.924  0.3865  0.2686  0.1359
  344MOL0     C45314   5.495   1.794   4.837 -0.6813 -1.3496  0.7990
  344MOL0     C45315   5.391   1.897   4.895  0.7050  0.0617  0.1363
  344MOL0     C45316   5.278   1.912   4.804  0.1844  0.5171  0.1005
  344MOL0     C45317   5.158   1.995   4.852  0.1331 -0.4375 -0.0314
  344MOL0     C45318   5.064   1.910   4.938 -0.5458 -0.7184  0.4850
  344MOL0     C45319   4.935   1.984   4.992 -0.0081  0.0741  0.0183
  344MOL0    Cl45320   4.825   1.865   5.076  0.0568  0.2241 -0.1051
  344MOL0     C45321   6.043   1.658   4.844 -0.2792 -0.1339 -0.3319
  344MOL0     C45322   6.173   1.616   4.869 -0.3256  0.6139  0.8107
  344MOL0     O45323   6.459   1.525   4.847 -0.1113  0.0621 -0.4490
  344MOL0     C45324   6.586   1.554   5.176  0.2555 -0.3077  0.5550
  344MOL0     C45325   6.689   1.494   5.259  0.2466 -0.1924 -0.4424
  344MOL0     N45326   7.500   1.102   5.239 -0.3252 -0.1854 -0.2414
  344MOL0     N45327   7.621   1.091   5.270  0.0964 -0.0863 -0.0726
  344MOL0     C45328   8.448   1.024   5.919 -0.3534 -0.2400  0.4721
  344MOL0     C45329   8.530   0.911   5.932  0.4530 -0.4415 -0.5279
  344MOL0     C45330   8.779   0.637   6.161 -0.4950 -0.3116 -0.0327
  344MOL0     C45331   8.900   0.578   6.113 -0.0790 -0.2249  0.6738
  344MOL0     C45332   8.926   0.445   6.145 -0.5111 -0.1896 -0.2119
  344MOL0     C45333   8.841   0.369   6.235  0.7300 -0.2587  0.3510
  344MOL0     O45334   8.847   0.241   6.284 -0.2472  1.2318  0.5210
  344MOL0     C45335   8.943   0.155   6.215 -0.2670  0.1435 -1.0167
  344MOL0     C45336   8.941   0.013   6.274 -1.1324 -0.1176  0.7071
  344MOL0     C45337   9.038  -0.010   6.395  1.7896 -0.0081 -0.7864
  344MOL0     C45338   9.034  -0.144   6.463  0.5155 -1.2422  0.3952
  344MOL0     C45339   8.910  -0.160   6.539 -1.2321 -0.5011  0.8034
  344MOL0     C45340   8.812  -0.161   6.605  0.5439  0.0246  0.1926
  344MOL0     C45341   8.729   0.426   6.283 -0.1710  0.0579 -0.4672
  344MOL0     C45342   8.697   0.562   6.251  1.0442  1.1017 -0.0046
  344MOL0     H45343   8.831   1.073   5.978  1.2603  1.5723 -3.5999
  344MOL0     H45344   8.705   1.250   5.898 -0.5946  0.9144  0.5303
  344MOL0     H45345   8.385   1.242   5.712  0.5511  2.2322 -1.3631
  344MOL0     H45346   8.500   1.367   5.755  1.4272 -2.5495  0.6821
  344MOL0     H45347   8.334   1.493   5.702 -0.2550 -1.8776 -1.6491
  344MOL0     H45348   8.273   1.459   5.872  0.4693 -0.7017  0.6951
  344MOL0     H45349   8.182   1.294   5.618  0.8874 -0.1624 -0.1484
  344MOL0     H45350   8.099   1.424   5.707 -0.3410  0.0983  2.5276
  344MOL0     H45351   8.150   1.139   5.791 -3.9714 -1.7612 -2.5892
  344MOL0     H45352   8.120   1.272   5.914 -0.1018 -2.0159  0.9727
  344MOL0     H45353   7.900   1.303   5.817  1.2529  1.6841 -0.8779
  344MOL0     H45354   7.936   1.138   5.859 -0.2735  0.9420  0.6349
  344MOL0     H45355   7.978   1.068   5.639  1.0038 -0.0129 -2.2586
  344MOL0     H45356   7.994   1.237   5.583  0.3179 -0.7257  0.4725
  344MOL0     H45357   7.736   1.091   5.650 -1.3628  0.1200 -0.6251
  344MOL0     H45358   7.747   1.276   5.631 -0.6214 -0.6723  0.5344
  344MOL0     H45359   7.836   1.069   5.432 -1.2301 -0.3225 -0.2759
  344MOL0     H45360   7.838   1.236   5.399 -0.2695  1.6669  1.0133
  344MOL0     H45361   7.510   1.277   5.521 -1.8853 -1.1546  0.4607
  344MOL0     H45362   7.303   1.345   5.336 -1.4311  0.3838  3.1070
  344MOL0     H45363   7.260   1.205   5.436  2.5220  0.7790  1.4290
  344MOL0     H45364   7.251   1.094   5.193 -1.0733 -0.8437 -0.1536
  344MOL0     H45365   7.265   1.263   5.136 -0.9545  2.4370  1.5940
  344MOL0     H45366   7.016   1.154   5.169  1.1768  0.3009 -2.5798
  344MOL0     H45367   7.066   1.183   5.345 -1.6267 -0.0728  0.0110
  344MOL0     H45368   7.013   1.383   5.123 -0.1254 -0.5284 -0.0867
  344MOL0     H45369   7.068   1.433   5.289  0.6321 -0.9439  0.2074
  344MOL0     H45370   6.840   1.305   5.030  1.0603 -1.9212  3.1502
  344MOL0     H45371   6.684   1.406   4.877  3.3582 -0.0690 -1.0793
  344MOL0     H45372   6.233   1.794   5.154  1.1124  2.0244 -0.0699
  344MOL0     H45373   6.016   1.885   5.090 -2.0003 -0.7644  0.1207
  344MOL0     H45374   5.757   1.645   4.921 -3.0176  0.4679  0.9881
  344MOL0     H45375   5.740   1.736   4.763 -4.0177 -2.5340  0.6830
  344MOL0     H45376   5.638   1.911   4.944  1.6221  0.5980 -2.3140
  344MOL0     H45377   5.596   1.743   5.010 -2.2923  0.5286 -0.3137
  344MOL0     H45378   5.461   1.691   4.831  0.7448 -1.8565  0.9553
  344MOL0     H45379   5.518   1.834   4.738 -0.3427  4.1314  2.7530
  344MOL0     H45380   5.365   1.857   4.993  1.4641  1.1230  0.7777
  344MOL0     H45381   5.444   1.991   4.904 -0.0827  0.3505  2.1272
  344MOL0     H45382   5.244   1.816   4.765  0.1806 -0.1890  1.7643
  344MOL0     H45383   5.320   1.982   4.731  1.4611  1.3902  1.6058
  344MOL0     H45384   5.105   2.042   4.769 -1.2214  0.0303  1.0716
  344MOL0     H45385   5.202   2.079   4.906 -0.3058 -0.7250  0.7772
  344MOL0     H45386   5.033   1.823   4.878  2.8636 -1.5586 -0.2770
  344MOL0     H45387   5.114   1.881   5.031 -0.1816  3.8516  1.9698
  344MOL0     H45388   4.882   2.003   4.898 -0.7394 -1.1697  0.1555
  344MOL0     H45389   4.948   2.075   5.052 -2.4258  1.1681 -0.9685
  344MOL0     H45390   5.996   1.657   4.747  0.2026  1.1479 -0.6022
  344MOL0     H45391   6.223   1.546   4.802  0.5966 -0.3375  2.4023
  344MOL0     H45392   6.509   1.614   5.223  0.6378  0.8201 -0.2204
  344MOL0     H45393   6.676   1.522   5.363 -2.3124 -3.3278  0.2344
  344MOL0     H45394   8.344   1.000   5.899 -0.1193 -0.7956 -0.0922
  344MOL0     H45395   8.474   0.818   5.933  0.5774 -0.5249  0.6017
  344MOL0     H45396   8.980   0.639   6.071 -1.0739  1.4416  1.1364
  344MOL0     H45397   9.022   0.407   6.115 -0.3280  0.2962 -0.2459
  344MOL0     H45398   9.048   0.188   6.220  0.0963 -0.4291 -3.7705
  344MOL0     H45399   8.923   0.154   6.108 -1.2912 -1.2375 -0.8414
  344MOL0     H45400   8.835  -0.009   6.288 -1.4215  0.2994 -0.7074
  344MOL0     H45401   8.972  -0.044   6.187 -0.3551  1.1757  0.1056
  344MOL0     H45402   9.013   0.072   6.463  1.8623  2.3771 -3.4401
  344MOL0     H45403   9.142   0.008   6.368  0.8754  3.4867 -2.6205
  344MOL0     H45404   9.050  -0.221   6.387 -0.7041 -0.8836 -0.2547
  344MOL0     H45405   9.116  -0.142   6.536 -0.4672 -4.9175  1.8716
  344MOL0     H45406   8.732  -0.169   6.676 -1.6128 -0.7651 -2.1577
  344MOL0     H45407   8.658   0.372   6.344  1.5018  1.7756  3.3512
  344MOL0     H45408   8.613   0.610   6.300  1.0753  0.4554  0.7150
  345MOL0     O45409  10.534   7.649   5.345  0.0962  0.0252  0.4420
  345MOL0     C45410  10.580   7.734   5.427  0.1058  0.4751  0.4594
  345MOL0     O45411  10.510   7.835   5.492  0.2399 -0.0244  0.1066
  345MOL0     C45412  10.378   7.833   5.487  0.7513  0.1379 -0.5801
  345MOL0     C45413  10.284   7.730   5.510  0.9371  0.3925  0.2708
  345MOL0     C45414  10.143   7.755   5.515  0.3399  0.8739  0.5127
  345MOL0     C45415  10.090   7.890   5.492  0.2261  0.7652  1.0328
  345MOL0     O45416   9.961   7.931   5.512  0.4527  0.3843 -0.2029
  345MOL0     C45417   9.869   7.838   5.574  0.0090  0.4973  0.4610
  345MOL0     C45418   9.746   7.923   5.614 -0.9461  0.4281 -0.4180
  345MOL0     C45419   9.754   7.970   5.756  0.6347 -0.1319 -0.3724
  345MOL0     C45420   9.616   8.029   5.806 -0.0012 -0.2218  0.3938
  345MOL0     C45421   9.619   8.061   5.957  0.1541 -1.1653  0.5733
  345MOL0     C45422   9.496   8.136   6.004 -0.4498 -0.6028  0.7193
  345MOL0     C45423   9.358   8.067   5.990  0.0349  0.6214  0.0336
  345MOL0     C45424   9.234   8.157   6.032 -0.7464  0.0555 -0.2446
  345MOL0     N45425   9.106   8.089   6.022  0.1329 -0.4190 -0.8017
  345MOL0     C45426   9.077   7.948   6.026 -0.1453 -0.5356  0.1822
  345MOL0     C45427   8.944   7.929   6.018  0.1260 -0.7469 -0.0596
  345MOL0     C45428   8.865   7.799   6.014 -0.2759  0.2949  0.4133
  345MOL0     C45429   8.721   7.804   6.056  0.2206  0.1703 -0.5691
  345MOL0     C45430   8.718   7.854   6.196 -0.1340 -0.0114  0.5722
  345MOL0     C45431   8.567   7.867   6.241  0.5896  1.2326 -0.1972
  345MOL0     O45432   8.536   7.743   6.314 -0.0077 -0.0235 -0.5112
  345MOL0     C45433   8.410   7.709   6.353 -0.3192 -0.3057 -1.1269
  345MOL0     C45434   8.400   7.595   6.436  0.6036 -0.0841 -0.2959
  345MOL0     C45435   8.275   7.552   6.488  0.4549 -0.4385 -0.6183
  345MOL0     C45436   8.157   7.621   6.449  0.4904 -0.1217  0.5297
  345MOL0     C45437   8.029   7.553   6.481 -0.8514  0.3547 -0.0147
  345MOL0     O45438   8.029   7.425   6.519 -0.5612  0.4592  0.2501
  345MOL0     C45439   7.915   7.361   6.545 -0.2047  0.3417  1.0048
  345MOL0     C45440   7.893   7.309   6.672  0.3511 -1.4591  0.1691
  345MOL0     C45441   7.783   7.230   6.703 -0.4624  0.9001  0.2874
  345MOL0     C45442   7.702   7.184   6.598  1.0096 -0.6336  0.2247
  345MOL0     O45443   7.591   7.107   6.627 -0.4775  0.0205  0.4490
  345MOL0     C45444   7.477   7.107   6.538  0.3907 -0.2941 -0.4361
  345MOL0     C45445   7.404   7.246   6.531 -0.1888  1.2887  0.5370
  345MOL0     C45446   7.292   7.246   6.426  0.8148 -1.0879  0.4414
  345MOL0     C45447   7.242   7.390   6.389  0.0510 -1.3731 -1.2033
  345MOL0     C45448   7.118   7.404   6.306  0.4363 -0.3112 -0.4469
  345MOL0     C45449   7.000   7.309   6.357 -0.5286  0.5174 -0.2870
  345MOL0     C45450   6.867   7.362   6.315 -0.2334  1.0615 -0.5712
  345MOL0     C45451   6.819   7.481   6.395  0.1859  0.5160  0.1994
  345MOL0    Cl45452   6.777   7.622   6.292  0.4312 -0.4800 -0.0834
  345MOL0     C45453   7.723   7.238   6.464  0.7840  1.2963 -0.3233
  345MOL0     C45454   7.818   7.332   6.447 -1.1007 -0.1156  0.0922
  345MOL0     O45455   7.933   7.629   6.480  0.8778 -0.1225 -0.4738
  345MOL0     C45456   8.167   7.737   6.369  0.2500 -0.0663 -0.1952
  345MOL0     C45457   8.300   7.781   6.331 -0.1221 -0.0733 -0.3992
  345MOL0     N45458   8.890   8.058   6.003 -0.4080  0.0671  0.0188
  345MOL0     N45459   8.981   8.148   6.020  0.1914 -0.3281  0.3981
  345MOL0     C45460  10.178   7.990   5.468  0.6709  0.2757  0.2065
  345MOL0     C45461  10.314   7.957   5.468 -1.4387 -0.7204 -0.2455
  345MOL0     C45462  10.725   7.741   5.417  0.6622 -0.5514  0.5061
  345MOL0     C45463  10.782   7.864   5.453  0.7268  0.2188 -0.2991
  345MOL0     C45464  10.923   7.889   5.437  0.9799  0.3262 -0.7079
  345MOL0     C45465  11.009   7.788   5.386 -0.1662 -0.3390 -1.0467
  345MOL0     O45466  11.151   7.801   5.380 -0.3669  0.1651 -0.0740
  345MOL0     C45467  11.204   7.929   5.366  0.9064  0.9648 -0.1386
  345MOL0     C45468  11.354   7.910   5.365  0.3733 -0.5486  0.3931
  345MOL0     C45469  11.428   8.036   5.326 -0.5782 -1.3816 -0.2043
  345MOL0     C45470  11.573   8.017   5.381 -0.3278 -0.3433 -0.3756
  345MOL0     C45471  11.669   8.120   5.341 -0.1200  0.3228 -0.0508
  345MOL0     C45472  11.756   8.201   5.319  1.0630 -0.2135 -0.4113
  345MOL0     C45473  10.946   7.665   5.349  0.8036 -0.0165 -0.3340
  345MOL0     C45474  10.803   7.642   5.356 -0.9718  0.6927 -0.5198
  345MOL0     H45475  10.307   7.626   5.531 -1.0261 -0.6932 -2.3213
  345MOL0     H45476  10.080   7.671   5.541 -0.3255  1.1744 -0.0996
  345MOL0     H45477   9.918   7.778   5.651  1.5492 -1.1756 -1.7021
  345MOL0     H45478   9.836   7.764   5.500 -0.9787  1.5223 -0.1538
  345MOL0     H45479   9.658   7.860   5.593 -0.8542 -0.0396  0.5250
  345MOL0     H45480   9.746   8.013   5.552  5.3123 -0.5706 -2.5441
  345MOL0     H45481   9.832   8.046   5.769  0.2674  0.6411 -2.3544
  345MOL0     H45482   9.784   7.883   5.816 -0.9955 -0.0452  0.6317
  345MOL0     H45483   9.613   8.123   5.749  4.6176 -0.2316 -0.2416
  345MOL0     H45484   9.527   7.971   5.778 -1.0834  1.8459 -0.7252
  345MOL0     H45485   9.707   8.120   5.985 -1.2066  0.5295  1.5108
  345MOL0     H45486   9.637   7.965   6.005  0.3916 -0.4695  1.9274
  345MOL0     H45487   9.488   8.225   5.942  2.8992  0.3538  1.4631
  345MOL0     H45488   9.507   8.161   6.110  1.4933 -1.9389  0.8863
  345MOL0     H45489   9.342   8.025   5.891  0.6645  0.0802  0.1598
  345MOL0     H45490   9.368   7.977   6.052 -1.9146 -1.6742 -2.7243
  345MOL0     H45491   9.233   8.248   5.971 -2.7172  0.4923  0.3456
  345MOL0     H45492   9.245   8.197   6.134  0.8727  0.0432 -0.4008
  345MOL0     H45493   9.146   7.864   6.028  2.7820  1.6798 -1.2896
  345MOL0     H45494   8.919   7.722   6.068  2.4898  3.0432  1.8808
  345MOL0     H45495   8.866   7.778   5.907 -1.2551 -0.9051  0.6182
  345MOL0     H45496   8.678   7.703   6.047  1.6667 -0.5890  0.6078
  345MOL0     H45497   8.666   7.871   5.990  0.3533  0.2666 -0.5813
  345MOL0     H45498   8.777   7.784   6.255  1.6097  1.2494  0.3971
  345MOL0     H45499   8.766   7.951   6.212  2.6786 -1.2895  0.4258
  345MOL0     H45500   8.511   7.881   6.148  1.7752  2.7136 -0.7422
  345MOL0     H45501   8.549   7.954   6.305  1.9761  0.4803  1.2823
  345MOL0     H45502   8.489   7.542   6.467  0.1008 -0.6032  0.3031
  345MOL0     H45503   8.263   7.455   6.535  0.1637  0.1056  0.4563
  345MOL0     H45504   7.943   7.353   6.758 -0.7845  2.4376 -0.9521
  345MOL0     H45505   7.764   7.199   6.805 -2.7629 -0.7397 -0.5636
  345MOL0     H45506   7.397   7.038   6.564 -1.7190  2.1974  0.0403
  345MOL0     H45507   7.518   7.083   6.439 -0.3672  0.1324 -0.8562
  345MOL0     H45508   7.481   7.320   6.508 -0.1863  1.0913 -0.0968
  345MOL0     H45509   7.370   7.271   6.632  1.5967  1.8153  1.0421
  345MOL0     H45510   7.211   7.193   6.476  1.7188 -1.7195  1.2849
  345MOL0     H45511   7.323   7.195   6.334  1.2496  0.8141 -0.5066
  345MOL0     H45512   7.206   7.434   6.483 -0.1747 -0.2679 -1.7872
  345MOL0     H45513   7.328   7.447   6.351 -1.4261  0.2647 -2.2875
  345MOL0     H45514   7.147   7.374   6.205 -1.0058 -1.1068 -0.6481
  345MOL0     H45515   7.090   7.510   6.303  0.7324 -0.2328 -0.5283
  345MOL0     H45516   7.001   7.309   6.466  0.1734 -0.2637 -0.2825
  345MOL0     H45517   7.025   7.208   6.322 -0.8009  0.6134 -0.7731
  345MOL0     H45518   6.877   7.389   6.209  1.7940  0.0724 -0.6711
  345MOL0     H45519   6.795   7.281   6.331 -0.1441  0.4807 -2.7501
  345MOL0     H45520   6.895   7.504   6.470 -0.2821 -0.9803  1.1675
  345MOL0     H45521   6.733   7.469   6.462  1.4028  3.0025  2.3953
  345MOL0     H45522   7.672   7.206   6.374  1.4941  2.6430 -1.2369
  345MOL0     H45523   7.831   7.374   6.348 -1.2526  2.5663  1.1520
  345MOL0     H45524   8.085   7.790   6.321  0.8004  0.8206 -0.1842
  345MOL0     H45525   8.299   7.869   6.268 -2.7047 -0.2238 -0.6764
  345MOL0     H45526  10.138   8.090   5.459  0.2756  0.0279 -1.0397
  345MOL0     H45527  10.377   8.044   5.453 -1.6226 -0.3036  1.1983
  345MOL0     H45528  10.728   7.944   5.502 -1.4157 -0.9041 -0.7079
  345MOL0     H45529  10.956   7.980   5.486 -1.6627  1.5472 -1.0533
  345MOL0     H45530  11.171   7.989   5.452  0.9360  1.1706 -0.2697
  345MOL0     H45531  11.168   7.979   5.276  1.8216 -0.1120 -1.1241
  345MOL0     H45532  11.376   7.870   5.464  0.3041 -0.2119  0.5439
  345MOL0     H45533  11.374   7.835   5.288 -2.2512 -2.1553  1.1683
  345MOL0     H45534  11.394   8.130   5.372  1.9252  0.8307 -2.5144
  345MOL0     H45535  11.424   8.051   5.218 -1.9785 -1.9178 -0.2436
  345MOL0     H45536  11.573   8.030   5.489 -1.1166  0.6734 -0.4763
  345MOL0     H45537  11.604   7.914   5.362  0.8391  0.3892 -2.9590
  345MOL0     H45538  11.842   8.261   5.297  2.6789 -1.9893  0.7283
  345MOL0     H45539  11.013   7.588   5.311 -0.2945 -1.1801  0.0099
  345MOL0     H45540  10.767   7.546   5.319  0.5027 -0.2820  0.4898
  346MOL0     O45541   6.329   5.714   4.774 -0.7518 -0.3127 -0.2266
  346MOL0     C45542   6.366   5.804   4.691 -0.5935 -0.1330  0.9551
  346MOL0     O45543   6.282   5.907   4.646 -0.0420 -0.3089  0.5188
  346MOL0     C45544   6.156   5.899   4.690  0.3247 -0.4735 -0.7140
  346MOL0     C45545   6.063   5.824   4.618  0.9452 -0.0145  0.8693
  346MOL0     C45546   5.928   5.817   4.664 -0.4550  0.1246 -0.2075
  346MOL0     C45547   5.893   5.901   4.770 -1.1169  0.2702 -0.7092
  346MOL0     O45548   5.760   5.899   4.808 -0.5609 -0.2021  0.7059
  346MOL0     C45549   5.685   6.020   4.762  0.2673 -0.1833  1.0014
  346MOL0     C45550   5.651   5.998   4.608  0.0900  0.4756 -1.1734
  346MOL0     C45551   5.543   5.891   4.592 -0.0292  0.2575 -0.6383
  346MOL0     C45552   5.425   5.923   4.677  0.0427 -0.3560 -0.2057
  346MOL0     C45553   5.315   5.842   4.615 -0.0790 -0.2994  0.2364
  346MOL0     C45554   5.177   5.888   4.649  0.5747  0.1992  0.0820
  346MOL0     C45555   5.143   5.845   4.790  0.0512  0.6316 -0.2884
  346MOL0     C45556   5.024   5.920   4.850  0.2438 -0.5956  0.4408
  346MOL0     N45557   4.895   5.856   4.803  0.5405 -0.9916 -0.1101
  346MOL0     C45558   4.810   5.915   4.719  0.3282 -0.5743  0.0450
  346MOL0     C45559   4.716   5.820   4.688  0.1823 -0.6072  0.5958
  346MOL0     C45560   4.602   5.826   4.590  0.6268 -0.0497  0.7120
  346MOL0     C45561   4.469   5.810   4.672 -0.6056 -0.0895 -0.3611
  346MOL0     C45562   4.438   5.925   4.771  0.3571  0.1467  0.0909
  346MOL0     C45563   4.309   5.888   4.847  0.0868 -0.2191 -0.3472
  346MOL0     O45564   4.206   5.877   4.752  0.6718 -0.0074 -0.2621
  346MOL0     C45565   4.083   5.853   4.804  0.3103  0.1702  0.0624
  346MOL0     C45566   3.987   5.856   4.701 -0.3432  0.6876  0.4138
  346MOL0     C45567   3.849   5.834   4.731 -0.9946  0.1443  0.5097
  346MOL0     C45568   3.804   5.825   4.853  0.7130  0.0436 -0.2072
  346MOL0     C45569   3.656   5.809   4.883  0.6915  0.0086  0.0164
  346MOL0     O45570   3.565   5.794   4.780 -0.4682  0.1792  0.2954
  346MOL0     C45571   3.433   5.798   4.806  0.5384  0.1715  0.1064
  346MOL0     C45572   3.354   5.729   4.705  0.2110  0.1627  0.3954
  346MOL0     C45573   3.210   5.738   4.708 -0.5367  0.6051  0.5355
  346MOL0     C45574   3.148   5.814   4.815  0.0104 -1.0714  0.3124
  346MOL0     O45575   3.014   5.790   4.831 -0.8266 -0.2269 -0.1703
  346MOL0     C45576   2.957   5.768   4.957  0.3733  0.1679 -1.0123
  346MOL0     C45577   2.936   5.616   4.981  0.4736 -0.0708 -0.1537
  346MOL0     C45578   3.010   5.563   5.098  0.9307  0.1208 -0.4617
  346MOL0     C45579   3.160   5.561   5.077 -0.4743 -0.6289 -0.9698
  346MOL0     C45580   3.250   5.529   5.200  0.3588 -0.0790  0.8618
  346MOL0     C45581   3.392   5.560   5.171 -0.0524 -0.7835 -0.4503
  346MOL0     C45582   3.480   5.494   5.271 -0.6871 -0.6543  1.2199
  346MOL0     C45583   3.620   5.532   5.216  0.7172  0.0181 -0.0361
  346MOL0    Cl45584   3.747   5.461   5.332  0.0134  0.1642  0.0899
  346MOL0     C45585   3.223   5.876   4.917 -0.1470 -0.2203  0.2260
  346MOL0     C45586   3.368   5.885   4.904 -0.2095 -0.0127  0.6721
  346MOL0     O45587   3.629   5.809   5.004  0.0994  0.1804 -0.9413
  346MOL0     C45588   3.899   5.830   4.960  0.1947  0.6086 -0.1403
  346MOL0     C45589   4.037   5.841   4.938 -0.3632  0.4250  0.0779
  346MOL0     N45590   4.743   5.713   4.768 -0.2266  0.5379 -0.1982
  346MOL0     N45591   4.850   5.729   4.833  0.4404 -0.1109  0.2204
  346MOL0     C45592   5.982   5.970   4.842  0.3117 -1.1418 -0.0534
  346MOL0     C45593   6.112   5.969   4.806 -0.2995 -0.3556  0.0813
  346MOL0     C45594   6.506   5.809   4.627 -0.5344  0.0887  0.6740
  346MOL0     C45595   6.539   5.920   4.555 -0.8610  0.0728 -0.2910
  346MOL0     C45596   6.658   5.926   4.493 -0.6329  0.2360 -0.4344
  346MOL0     C45597   6.747   5.815   4.492 -0.1682  0.1186 -0.3939
  346MOL0     O45598   6.873   5.813   4.439 -0.1915 -0.4207 -0.6764
  346MOL0     C45599   6.919   5.940   4.381  0.2667  0.4922  0.4438
  346MOL0     C45600   7.072   5.930   4.365  0.8847 -0.5871 -0.1820
  346MOL0     C45601   7.141   5.903   4.502  0.1668  0.0283 -0.3836
  346MOL0     C45602   7.273   5.823   4.486 -0.7534 -0.6137  0.0236
  346MOL0     C45603   7.373   5.926   4.435  0.6257  0.2458  0.1105
  346MOL0     C45604   7.450   6.015   4.411 -0.2218 -0.5123 -1.1963
  346MOL0     C45605   6.703   5.697   4.552  0.0148 -0.2657 -0.3733
  346MOL0     C45606   6.589   5.687   4.623  0.6134 -0.8987 -0.9930
  346MOL0     H45607   6.100   5.762   4.537  0.5100  1.5481 -0.5835
  346MOL0     H45608   5.852   5.748   4.627  0.1922  0.2747 -1.8857
  346MOL0     H45609   5.741   6.113   4.769  0.7453 -0.5425  2.1100
  346MOL0     H45610   5.594   6.031   4.822 -1.2240 -1.8218 -0.7887
  346MOL0     H45611   5.744   5.962   4.562  1.2697 -1.1675  2.1397
  346MOL0     H45612   5.613   6.093   4.570 -2.5745  0.3763  0.9528
  346MOL0     H45613   5.580   5.790   4.609  0.5269  0.2433 -1.8662
  346MOL0     H45614   5.522   5.880   4.486 -0.1376 -1.1532 -0.4871
  346MOL0     H45615   5.447   5.895   4.780  1.0919 -0.7203 -0.5182
  346MOL0     H45616   5.404   6.030   4.671  2.2760  0.2015  0.9442
  346MOL0     H45617   5.315   5.738   4.651 -0.6944  0.3212  2.1535
  346MOL0     H45618   5.324   5.839   4.506 -2.3704 -0.4578 -0.0078
  346MOL0     H45619   5.106   5.842   4.580  1.1180  2.3541 -2.0185
  346MOL0     H45620   5.170   5.997   4.646  0.4213  0.2438  1.4323
  346MOL0     H45621   5.117   5.739   4.792 -2.3791  1.1869  1.4501
  346MOL0     H45622   5.227   5.879   4.852 -1.0655  2.8195  0.1407
  346MOL0     H45623   5.034   6.027   4.829 -1.2930 -0.2134  1.4526
  346MOL0     H45624   5.026   5.927   4.959  1.3211 -0.8416  0.4468
  346MOL0     H45625   4.818   6.009   4.665 -3.3308  0.1751  0.5109
  346MOL0     H45626   4.607   5.747   4.515  0.7253 -0.0375  0.7057
  346MOL0     H45627   4.586   5.917   4.531 -0.8006 -1.0068 -0.4544
  346MOL0     H45628   4.473   5.713   4.722  0.7060 -1.7186 -3.3641
  346MOL0     H45629   4.390   5.805   4.597  0.9962 -0.4438 -2.1021
  346MOL0     H45630   4.520   5.924   4.844 -1.1457 -2.7893  1.9424
  346MOL0     H45631   4.432   6.022   4.722  1.2971 -0.1202 -0.5939
  346MOL0     H45632   4.282   5.972   4.913 -3.5138 -0.7770 -0.8988
  346MOL0     H45633   4.326   5.799   4.909 -0.7493 -1.1363 -1.4020
  346MOL0     H45634   4.010   5.879   4.597 -2.0690  0.8340  0.0398
  346MOL0     H45635   3.781   5.832   4.647 -1.3078  4.5598  0.4408
  346MOL0     H45636   3.404   5.659   4.639  3.5882 -0.7668  3.5581
  346MOL0     H45637   3.150   5.674   4.644 -0.7738  1.1558  0.2049
  346MOL0     H45638   2.857   5.812   4.954  0.4910  0.5875  0.4481
  346MOL0     H45639   3.010   5.812   5.043 -2.7963 -1.6897  2.1879
  346MOL0     H45640   2.970   5.568   4.889  1.1933 -2.1670  1.1151
  346MOL0     H45641   2.831   5.595   5.003  0.5776  1.9063  2.8556
  346MOL0     H45642   2.975   5.460   5.110  2.7396 -0.4969 -0.2605
  346MOL0     H45643   2.983   5.624   5.185 -0.7730 -0.9198 -0.1980
  346MOL0     H45644   3.179   5.487   4.998 -0.6524 -0.4312 -1.1997
  346MOL0     H45645   3.204   5.657   5.048  1.6817 -0.7744  1.5010
  346MOL0     H45646   3.234   5.423   5.221 -5.2106  0.3798  0.4607
  346MOL0     H45647   3.211   5.567   5.295 -1.4787 -3.1189  1.4563
  346MOL0     H45648   3.411   5.668   5.175  2.9977 -1.2319  3.1220
  346MOL0     H45649   3.422   5.525   5.072  1.0912 -0.0347 -0.3954
  346MOL0     H45650   3.471   5.550   5.365  0.4751  3.4122 -0.8255
  346MOL0     H45651   3.464   5.387   5.288  0.7647 -1.3026 -1.0972
  346MOL0     H45652   3.641   5.639   5.206  0.6544 -0.1180 -1.8986
  346MOL0     H45653   3.638   5.478   5.122 -5.1105 -2.4158 -0.1693
  346MOL0     H45654   3.179   5.921   5.005 -0.5614 -1.9488  0.9416
  346MOL0     H45655   3.411   5.935   4.990 -2.5822  0.3961  1.6935
  346MOL0     H45656   3.860   5.803   5.058  0.0181  2.2512  0.2565
  346MOL0     H45657   4.111   5.831   5.017  0.1893 -2.1391 -0.6606
  346MOL0     H45658   5.943   6.015   4.932 -0.5822 -1.1378 -0.4359
  346MOL0     H45659   6.184   6.026   4.863  1.7172 -2.8682  0.2439
  346MOL0     H45660   6.464   5.997   4.540 -0.4110  0.5234 -0.2670
  346MOL0     H45661   6.678   6.020   4.443  1.4274  1.7835  2.9132
  346MOL0     H45662   6.900   6.019   4.454  0.6395 -0.5500  1.7014
  346MOL0     H45663   6.864   5.955   4.288 -2.3990 -3.7340  1.0735
  346MOL0     H45664   7.101   5.856   4.291 -0.3665 -0.6651 -0.6183
  346MOL0     H45665   7.109   6.024   4.322  2.3535 -1.1313 -0.1527
  346MOL0     H45666   7.085   5.828   4.559 -0.8861  0.5297 -0.7361
  346MOL0     H45667   7.149   5.992   4.565 -0.0194  1.4433 -2.2701
  346MOL0     H45668   7.300   5.798   4.589 -0.8115 -1.1828 -0.0959
  346MOL0     H45669   7.273   5.734   4.423 -4.9122 -0.5171 -0.3542
  346MOL0     H45670   7.521   6.092   4.392 -0.6250 -0.8019 -4.2571
  346MOL0     H45671   6.758   5.605   4.536  1.7472  0.8902 -1.3550
  346MOL0     H45672   6.552   5.600   4.676 -3.3404  2.6481  2.9197
  347MOL0     O45673   5.303   7.564  10.388  0.0679  0.1790  0.3462
  347MOL0     C45674   5.219   7.587  10.301  0.2501 -0.7493  0.2808
  347MOL0     O45675   5.085   7.627  10.316 -0.0845  0.1465 -0.6001
  347MOL0     C45676   5.055   7.641  10.455 -0.0571  0.7856  0.8276
  347MOL0     C45677   5.100   7.740  10.538 -0.3592 -0.5281 -0.5990
  347MOL0     C45678   5.053   7.755  10.672 -1.4989 -0.1112  0.1483
  347MOL0     C45679   4.962   7.674  10.717 -0.1299  1.1051  0.5385
  347MOL0     O45680   4.913   7.665  10.846 -0.2220  0.7789 -0.2678
  347MOL0     C45681   4.959   7.763  10.946  0.3557 -0.2122 -0.2262
  347MOL0     C45682   4.867   7.769  11.065 -0.1853 -0.0975  0.5112
  347MOL0     C45683   4.720   7.784  11.026 -0.0631 -0.3188 -0.5308
  347MOL0     C45684   4.651   7.854  11.142  0.5484  0.3236  0.2436
  347MOL0     C45685   4.493   7.838  11.116  0.1453  0.7065 -0.1438
  347MOL0     C45686   4.439   7.919  11.003  0.1726 -0.1328  0.3950
  347MOL0     C45687   4.283   7.936  11.007  0.5133 -0.0438  0.1259
  347MOL0     C45688   4.215   7.807  10.946  0.1755 -0.6484 -0.6303
  347MOL0     N45689   4.072   7.833  10.924 -0.3321  0.0937 -0.6639
  347MOL0     C45690   3.994   7.770  10.832  0.0192 -0.2950  0.9371
  347MOL0     C45691   3.856   7.790  10.857 -0.3573  0.4150 -0.1777
  347MOL0     C45692   3.737   7.731  10.785 -0.8703 -0.5669 -0.6886
  347MOL0     C45693   3.699   7.599  10.852  0.7436 -0.3122 -0.4699
  347MOL0     C45694   3.590   7.528  10.761  0.6453  0.0272 -0.2961
  347MOL0     C45695   3.447   7.568  10.800  0.0423  0.3785 -0.6087
  347MOL0     O45696   3.432   7.705  10.745 -0.2690  0.3102  0.3886
  347MOL0     C45697   3.305   7.735  10.712  0.3242  0.3054  0.0997
  347MOL0     C45698   3.209   7.647  10.647  0.5272  0.0628  0.0253
  347MOL0     C45699   3.088   7.713  10.608 -0.3896 -0.1376 -0.2390
  347MOL0     C45700   3.051   7.847  10.646  0.1808  0.3384  0.0276
  347MOL0     C45701   2.924   7.900  10.602 -0.2301 -0.2051  0.6056
  347MOL0     O45702   2.892   8.021  10.648 -0.2403  0.0018  0.7081
  347MOL0     C45703   2.761   8.056  10.622  0.4333  0.7159 -1.4386
  347MOL0     C45704   2.644   7.974  10.640  0.5360 -0.2879 -0.4119
  347MOL0     C45705   2.518   8.019  10.626 -0.0752 -0.2459 -0.4784
  347MOL0     C45706   2.492   8.151  10.591 -0.4392 -0.0963 -0.1721
  347MOL0     O45707   2.361   8.191  10.563 -1.0198 -0.0562 -0.0793
  347MOL0     C45708   2.333   8.298  10.474 -0.6024 -0.3371 -0.2945
  347MOL0     C45709   2.181   8.318  10.456 -0.3464 -0.0593  0.7733
  347MOL0     C45710   2.104   8.200  10.407  0.4803 -0.4037  0.0150
  347MOL0     C45711   1.962   8.244  10.375  1.2744  0.0591  0.2234
  347MOL0     C45712   1.875   8.141  10.308  0.5539  0.6800  0.1251
  347MOL0     C45713   1.857   8.011  10.396  0.8077 -0.3166 -0.4201
  347MOL0     C45714   1.762   7.908  10.328  0.1035  0.3931 -0.3390
  347MOL0     C45715   1.619   7.919  10.384 -0.3709 -1.0256  0.2119
  347MOL0    Cl45716   1.531   8.070  10.334 -0.3149 -0.3196 -0.0195
  347MOL0     C45717   2.603   8.241  10.581  0.1591 -0.1964 -0.2149
  347MOL0     C45718   2.736   8.190  10.591  0.5137  0.2601 -0.2645
  347MOL0     O45719   2.848   7.835  10.526  0.3586 -0.1345 -0.6970
  347MOL0     C45720   3.149   7.912  10.712 -0.6073 -0.0185  0.9174
  347MOL0     C45721   3.276   7.871  10.732  0.4339  0.6954  0.1350
  347MOL0     N45722   3.861   7.876  10.963 -0.2374  0.9938 -0.0187
  347MOL0     N45723   3.987   7.892  11.007  0.0016  0.6936 -0.8609
  347MOL0     C45724   4.913   7.561  10.642 -0.3210 -0.0681  0.5193
  347MOL0     C45725   4.958   7.550  10.514  0.2743  0.5221 -0.8156
  347MOL0     C45726   5.275   7.580  10.164 -0.8221  1.3984  0.5335
  347MOL0     C45727   5.220   7.656  10.061  0.0466  0.2855  1.4984
  347MOL0     C45728   5.270   7.659   9.926 -0.2685 -0.8128 -0.0971
  347MOL0     C45729   5.375   7.562   9.898  0.0376 -0.3233  1.1007
  347MOL0     O45730   5.426   7.536   9.773 -0.6058 -0.6041 -0.1531
  347MOL0     C45731   5.461   7.662   9.719  0.8465 -0.7943  0.4117
  347MOL0     C45732   5.558   7.645   9.599 -0.4429  0.9802 -0.2751
  347MOL0     C45733   5.690   7.587   9.655  0.2229 -0.1903  0.2501
  347MOL0     C45734   5.795   7.573   9.540 -0.0017 -0.4503  0.0625
  347MOL0     C45735   5.754   7.490   9.427 -0.3325 -0.1657 -0.1819
  347MOL0     C45736   5.712   7.418   9.339  0.3082 -0.0707  0.2191
  347MOL0     C45737   5.414   7.471  10.000  0.1699  0.3804  0.2011
  347MOL0     C45738   5.369   7.484  10.133  0.3556 -0.0129  0.4106
  347MOL0     H45739   5.181   7.804  10.506  1.9518 -1.4266  2.8880
  347MOL0     H45740   5.093   7.824  10.746 -0.3859  0.5953 -1.0578
  347MOL0     H45741   4.956   7.859  10.892 -1.1961 -1.2127 -2.0303
  347MOL0     H45742   5.062   7.750  10.980  0.4762 -0.1657 -0.5612
  347MOL0     H45743   4.895   7.852  11.131 -1.5549 -0.2477  1.3285
  347MOL0     H45744   4.876   7.682  11.132  0.3701 -0.7167 -0.3444
  347MOL0     H45745   4.683   7.681  11.017  1.7424 -1.2838  1.7746
  347MOL0     H45746   4.711   7.837  10.931  1.3470 -0.5996 -0.8443
  347MOL0     H45747   4.661   7.798  11.236 -3.0781 -0.8860  0.0939
  347MOL0     H45748   4.679   7.959  11.151 -0.1280  0.6680 -1.3496
  347MOL0     H45749   4.434   7.859  11.205 -1.8690 -3.9413 -0.0815
  347MOL0     H45750   4.475   7.732  11.096  2.3768 -0.1276  1.7838
  347MOL0     H45751   4.467   7.891  10.901 -4.0575  0.4372 -1.1560
  347MOL0     H45752   4.467   8.024  11.019 -1.3494 -0.0713  3.1582
  347MOL0     H45753   4.235   7.954  11.104 -2.5024 -0.8174 -1.1115
  347MOL0     H45754   4.248   8.022  10.949  0.2998 -1.4863 -1.9805
  347MOL0     H45755   4.230   7.725  11.017 -1.5307 -0.8299 -0.4494
  347MOL0     H45756   4.269   7.802  10.851 -0.3659  1.9418 -1.1614
  347MOL0     H45757   4.020   7.714  10.743  0.4351 -0.8578  1.4053
  347MOL0     H45758   3.761   7.714  10.680 -0.1914 -1.8142 -0.3561
  347MOL0     H45759   3.647   7.791  10.799 -1.6298 -1.8699  0.3883
  347MOL0     H45760   3.673   7.612  10.958 -1.4930 -0.1499 -1.0044
  347MOL0     H45761   3.785   7.532  10.863 -1.6521 -3.7323 -0.9021
  347MOL0     H45762   3.600   7.544  10.654  0.4645 -0.2847 -0.3630
  347MOL0     H45763   3.604   7.419  10.764 -0.3638 -0.1321 -0.7992
  347MOL0     H45764   3.442   7.564  10.909 -0.2676  1.9359 -0.5343
  347MOL0     H45765   3.370   7.501  10.760 -1.3693  1.3768  0.3618
  347MOL0     H45766   3.233   7.542  10.630 -1.9495 -1.2735  3.6579
  347MOL0     H45767   3.028   7.643  10.551 -0.1845 -2.3622  2.0946
  347MOL0     H45768   2.653   7.870  10.670 -3.8695 -1.2330 -1.7155
  347MOL0     H45769   2.425   7.965  10.640 -0.1505  0.0817  0.3108
  347MOL0     H45770   2.374   8.278  10.375  2.5219  1.7840  0.4223
  347MOL0     H45771   2.383   8.391  10.503 -0.4236 -0.7333  0.7265
  347MOL0     H45772   2.174   8.398  10.381  1.2567 -0.5466  0.0714
  347MOL0     H45773   2.137   8.355  10.549 -1.2138 -2.5054  1.4041
  347MOL0     H45774   2.093   8.123  10.484 -1.0125 -1.2798 -1.0050
  347MOL0     H45775   2.161   8.165  10.320  2.4328  5.4299 -1.5022
  347MOL0     H45776   1.901   8.274  10.460  2.2535 -0.4820  1.1488
  347MOL0     H45777   1.980   8.319  10.298  2.2830 -1.1848 -0.8013
  347MOL0     H45778   1.935   8.114  10.221  0.2839  1.0791 -0.1820
  347MOL0     H45779   1.776   8.184  10.293 -0.2486  0.7575  4.3057
  347MOL0     H45780   1.829   8.042  10.497  0.5140  2.1645 -1.1847
  347MOL0     H45781   1.959   7.971  10.397  1.2902  0.8575  0.5002
  347MOL0     H45782   1.769   7.902  10.219  2.3902  0.6115 -0.2535
  347MOL0     H45783   1.791   7.809  10.365 -0.3562 -0.0213 -1.0736
  347MOL0     H45784   1.621   7.910  10.493 -0.2062  1.2260  0.4411
  347MOL0     H45785   1.564   7.838  10.335 -0.7372 -0.4918 -0.2646
  347MOL0     H45786   2.597   8.347  10.556  0.6049  0.9538  3.8734
  347MOL0     H45787   2.821   8.255  10.575 -0.8556  1.9265 -1.1713
  347MOL0     H45788   3.125   8.017  10.726 -0.7859  0.3584 -1.6372
  347MOL0     H45789   3.346   7.935  10.786 -3.0045  4.7816  0.2122
  347MOL0     H45790   4.841   7.491  10.682  0.9170  0.2348  3.5515
  347MOL0     H45791   4.906   7.472  10.459 -0.3187  0.1063  0.3099
  347MOL0     H45792   5.136   7.724  10.064 -0.9775 -0.8336 -0.2255
  347MOL0     H45793   5.213   7.709   9.849 -3.0355  0.9988  2.8832
  347MOL0     H45794   5.515   7.715   9.798  1.0946 -3.4311  2.1514
  347MOL0     H45795   5.375   7.723   9.691 -1.4103 -4.0278 -0.2673
  347MOL0     H45796   5.521   7.564   9.536  1.2188  1.1190 -1.5112
  347MOL0     H45797   5.579   7.738   9.544  0.8220 -0.2840 -2.0437
  347MOL0     H45798   5.684   7.493   9.710  2.9163 -1.8540 -1.9985
  347MOL0     H45799   5.720   7.667   9.724  2.3420  0.3639 -1.1908
  347MOL0     H45800   5.816   7.672   9.499  2.6036 -0.5805  0.8980
  347MOL0     H45801   5.886   7.536   9.588 -0.0402  0.5424  0.9322
  347MOL0     H45802   5.666   7.348   9.272 -0.6484  1.8209 -1.1902
  347MOL0     H45803   5.481   7.391   9.970  1.3612  2.1200 -2.0716
  347MOL0     H45804   5.411   7.425  10.214  1.1483 -0.2435 -0.1605
  348MOL0     O45805   9.126   8.522   0.804 -0.5977  0.4342  0.1098
  348MOL0     C45806   9.092   8.579   0.908 -0.1859 -1.0261 -1.2684
  348MOL0     O45807   8.959   8.615   0.946  0.3524 -0.6473 -0.1529
  348MOL0     C45808   8.868   8.573   0.865 -0.2838  0.6327  1.5437
  348MOL0     C45809   8.803   8.661   0.775 -0.2855 -0.4340 -0.4064
  348MOL0     C45810   8.705   8.612   0.694  0.3381  0.4897 -0.8423
  348MOL0     C45811   8.660   8.481   0.693  0.5572 -0.2683 -1.3108
  348MOL0     O45812   8.546   8.430   0.616 -0.0605 -0.1943  0.8145
  348MOL0     C45813   8.524   8.477   0.483  0.1114 -0.0138 -0.2642
  348MOL0     C45814   8.395   8.421   0.416  0.3093 -0.8478  0.8296
  348MOL0     C45815   8.265   8.420   0.500  0.0011  0.4210 -0.0098
  348MOL0     C45816   8.135   8.386   0.423 -0.0634 -0.0741  0.3873
  348MOL0     C45817   8.012   8.478   0.480 -1.2331  0.4664  0.5421
  348MOL0     C45818   7.992   8.475   0.630  0.3593  0.5837  0.3990
  348MOL0     C45819   7.842   8.504   0.663 -0.0129 -0.7010 -0.0862
  348MOL0     C45820   7.825   8.522   0.815  0.3866  0.1842 -0.6646
  348MOL0     N45821   7.681   8.511   0.855 -0.5015 -0.4764  0.1108
  348MOL0     C45822   7.610   8.630   0.887  0.0666 -0.1672 -0.6835
  348MOL0     C45823   7.486   8.576   0.889  0.1824  0.2143  0.0241
  348MOL0     C45824   7.357   8.647   0.904 -0.3434  0.2991 -1.2746
  348MOL0     C45825   7.232   8.556   0.907 -0.3412  0.7430  0.2283
  348MOL0     C45826   7.099   8.627   0.951 -1.0821  0.5779  0.5673
  348MOL0     C45827   6.988   8.522   0.935 -0.6258  0.7481  0.2530
  348MOL0     O45828   6.858   8.573   0.932 -0.5816  0.0105 -0.0372
  348MOL0     C45829   6.794   8.586   1.054 -0.1037 -0.5350  0.5297
  348MOL0     C45830   6.677   8.662   1.033  0.0310 -0.4348 -0.5399
  348MOL0     C45831   6.600   8.704   1.145  0.1528  0.3446  0.6525
  348MOL0     C45832   6.646   8.672   1.273  0.8168  0.5009 -0.4885
  348MOL0     C45833   6.563   8.723   1.385 -0.2334 -0.4390  0.0100
  348MOL0     O45834   6.431   8.752   1.364  0.5630  0.3195  0.4620
  348MOL0     C45835   6.355   8.796   1.473  0.3008 -0.3427 -0.0901
  348MOL0     C45836   6.269   8.712   1.558  0.5401  0.6275 -0.1069
  348MOL0     C45837   6.212   8.766   1.668 -0.9524 -0.8998  0.7991
  348MOL0     C45838   6.236   8.891   1.709  0.4434 -0.1182  0.2320
  348MOL0     O45839   6.167   8.940   1.816 -0.2693 -0.4124 -0.1241
  348MOL0     C45840   6.217   9.060   1.883 -0.2736 -0.6056 -1.1335
  348MOL0     C45841   6.133   9.104   2.003  0.1909  0.4923  0.6479
  348MOL0     C45842   5.986   9.153   1.981 -0.3052 -0.8082 -0.3492
  348MOL0     C45843   5.904   9.183   2.107 -0.4177  0.5095 -0.3280
  348MOL0     C45844   5.780   9.267   2.089 -0.3619 -0.2634 -0.4054
  348MOL0     C45845   5.672   9.268   2.208  0.5467 -0.1166 -0.5957
  348MOL0     C45846   5.729   9.325   2.344  0.1582  0.8835  0.4293
  348MOL0     C45847   5.613   9.360   2.437  0.7971  1.0322 -0.2733
  348MOL0    Cl45848   5.533   9.208   2.494 -0.2287  0.0842 -0.1385
  348MOL0     C45849   6.326   8.973   1.635 -0.1058  0.2812 -0.2689
  348MOL0     C45850   6.382   8.926   1.521 -1.1823  0.0051  0.3290
  348MOL0     O45851   6.620   8.729   1.487  0.1139  0.4619 -0.1654
  348MOL0     C45852   6.772   8.603   1.295  0.2960 -0.2670  0.4530
  348MOL0     C45853   6.845   8.564   1.180 -0.1151  0.4869  0.7286
  348MOL0     N45854   7.492   8.442   0.854  0.3032 -0.2705  0.0644
  348MOL0     N45855   7.607   8.401   0.849 -0.1163  0.1321  1.2200
  348MOL0     C45856   8.724   8.392   0.783 -0.8005  0.2791  0.0668
  348MOL0     C45857   8.821   8.439   0.876  0.3957  0.1714 -0.3829
  348MOL0     C45858   9.208   8.626   0.996 -0.3720  1.1997  0.4212
  348MOL0     C45859   9.336   8.636   0.947 -0.4375  0.4180  0.2724
  348MOL0     C45860   9.450   8.676   1.027  0.1837  0.9986  0.2041
  348MOL0     C45861   9.423   8.715   1.158 -1.6327 -0.6962  0.4570
  348MOL0     O45862   9.539   8.732   1.236  0.5549 -0.8953 -0.6485
  348MOL0     C45863   9.514   8.792   1.369 -0.7502 -0.5132  0.0635
  348MOL0     C45864   9.653   8.794   1.430 -0.2005 -0.5885 -0.0931
  348MOL0     C45865   9.657   8.865   1.565  0.4990  0.6980 -0.4651
  348MOL0     C45866   9.797   8.905   1.606  0.1948 -0.5746 -0.2527
  348MOL0     C45867   9.795   9.003   1.717  0.2930  0.2420  0.5138
  348MOL0     C45868   9.798   9.087   1.801 -0.4810  0.1638 -0.2672
  348MOL0     C45869   9.297   8.732   1.206  0.4607  0.6241 -0.1997
  348MOL0     C45870   9.194   8.678   1.125 -0.5595 -0.0207  0.2977
  348MOL0     H45871   8.816   8.768   0.783 -2.5816  0.0020 -1.6425
  348MOL0     H45872   8.667   8.675   0.614  1.7756 -0.8198 -2.6342
  348MOL0     H45873   8.598   8.438   0.412  1.2407  0.2184  0.7648
  348MOL0     H45874   8.518   8.586   0.486  0.0661 -0.0268  0.0632
  348MOL0     H45875   8.422   8.318   0.391  2.4604 -0.0253 -0.3700
  348MOL0     H45876   8.382   8.478   0.324  2.8787  3.1632  2.6844
  348MOL0     H45877   8.266   8.511   0.561  2.7371 -1.8266  3.7260
  348MOL0     H45878   8.273   8.342   0.576  1.0207 -0.5915 -1.1334
  348MOL0     H45879   8.136   8.389   0.314 -0.4994 -1.9566  0.2954
  348MOL0     H45880   8.113   8.280   0.433 -1.5260  0.1459 -0.2665
  348MOL0     H45881   7.916   8.449   0.437 -0.2055 -0.5031 -1.2158
  348MOL0     H45882   8.030   8.574   0.432  2.6199 -0.6485 -0.6564
  348MOL0     H45883   8.052   8.551   0.681 -0.5143  2.0789 -0.7189
  348MOL0     H45884   8.023   8.377   0.667  0.6956  0.3834 -0.3991
  348MOL0     H45885   7.806   8.595   0.614  2.7084 -0.8342 -2.6241
  348MOL0     H45886   7.784   8.421   0.622  1.9653 -0.2838 -4.1576
  348MOL0     H45887   7.868   8.615   0.853  1.0050 -0.7809  1.1213
  348MOL0     H45888   7.879   8.441   0.865 -0.7413  0.5914  1.3322
  348MOL0     H45889   7.631   8.736   0.888  0.2489 -0.2002  0.4791
  348MOL0     H45890   7.348   8.704   0.810 -1.4143 -0.9724 -1.9804
  348MOL0     H45891   7.370   8.720   0.985 -1.2187  2.3756 -2.8848
  348MOL0     H45892   7.267   8.477   0.975 -0.1413  0.8138  0.2089
  348MOL0     H45893   7.216   8.518   0.806  0.8204 -1.6798  0.8899
  348MOL0     H45894   7.109   8.660   1.055  1.6328 -1.0572  0.9154
  348MOL0     H45895   7.095   8.704   0.874 -2.8059 -1.0620 -1.0885
  348MOL0     H45896   6.999   8.450   1.016  0.9787  0.7046  0.0276
  348MOL0     H45897   7.016   8.475   0.840  2.5012  2.9505 -0.0476
  348MOL0     H45898   6.655   8.702   0.935  0.1767  1.1913  0.0656
  348MOL0     H45899   6.508   8.758   1.126 -1.0352 -0.8730  2.6049
  348MOL0     H45900   6.257   8.606   1.540  1.5981  0.1181  1.9133
  348MOL0     H45901   6.145   8.710   1.732 -0.1420 -2.7128  0.1426
  348MOL0     H45902   6.203   9.138   1.807 -0.1963  0.3637 -0.1866
  348MOL0     H45903   6.324   9.053   1.905 -0.2552 -0.6181 -1.2254
  348MOL0     H45904   6.197   9.186   2.036  1.9404 -0.7269  0.3947
  348MOL0     H45905   6.137   9.026   2.080  0.9884 -1.4979 -1.3117
  348MOL0     H45906   5.929   9.082   1.920 -0.6557  0.7435 -1.9077
  348MOL0     H45907   5.992   9.247   1.925 -1.3072 -1.4462 -1.5895
  348MOL0     H45908   5.876   9.083   2.141 -1.7242  1.5423  1.8587
  348MOL0     H45909   5.964   9.237   2.181  0.0326 -0.1793 -0.1774
  348MOL0     H45910   5.727   9.223   2.004  0.6475  0.6382 -1.5392
  348MOL0     H45911   5.802   9.373   2.075 -1.8021  0.0696 -0.3405
  348MOL0     H45912   5.630   9.168   2.224  1.4568 -0.3852  0.1733
  348MOL0     H45913   5.585   9.326   2.175  0.4113  0.5026  0.7935
  348MOL0     H45914   5.805   9.254   2.380  0.5809  0.1392 -1.8048
  348MOL0     H45915   5.785   9.416   2.322  0.3406  0.5633 -0.4780
  348MOL0     H45916   5.543   9.430   2.391 -0.9723 -0.2090  0.3938
  348MOL0     H45917   5.654   9.402   2.529 -1.5968 -1.9900  2.4276
  348MOL0     H45918   6.353   9.075   1.660 -1.1821  0.2791  1.0653
  348MOL0     H45919   6.459   8.978   1.464  1.1618 -1.7252  1.7413
  348MOL0     H45920   6.818   8.592   1.392 -1.3751  0.1380  1.3339
  348MOL0     H45921   6.944   8.524   1.200  0.8240  3.2428  2.1783
  348MOL0     H45922   8.682   8.292   0.795 -1.6374  0.6468  0.3239
  348MOL0     H45923   8.876   8.383   0.951 -0.0257  1.5269  0.9853
  348MOL0     H45924   9.364   8.603   0.848 -0.7920  0.5772  0.1176
  348MOL0     H45925   9.550   8.679   0.985 -0.3230 -2.5443 -1.6127
  348MOL0     H45926   9.446   8.725   1.423 -0.6544 -0.7346 -0.0889
  348MOL0     H45927   9.471   8.892   1.366 -2.2712 -1.1603 -3.1317
  348MOL0     H45928   9.699   8.695   1.443  0.4839 -0.1094  1.3243
  348MOL0     H45929   9.719   8.848   1.362 -2.9825 -1.8388 -4.2093
  348MOL0     H45930   9.633   8.800   1.650  1.1217  1.6454  0.4613
  348MOL0     H45931   9.601   8.958   1.552 -0.0115  0.1989 -2.0282
  348MOL0     H45932   9.848   8.815   1.643  2.1214 -0.0453 -1.4449
  348MOL0     H45933   9.854   8.934   1.517 -0.1761 -0.6776 -0.5238
  348MOL0     H45934   9.805   9.174   1.864 -1.2290 -0.5402  0.8252
  348MOL0     H45935   9.262   8.757   1.306 -2.1778 -2.5432 -0.1704
  348MOL0     H45936   9.098   8.697   1.171 -2.4300 -6.9137  0.2783
  349MOL0     O45937   3.926   5.970   7.942  0.5776  0.2738  0.0110
  349MOL0     C45938   3.921   5.896   8.041  0.5040 -0.1821 -0.3200
  349MOL0     O45939   4.025   5.836   8.102 -0.1903 -0.1495  0.1349
  349MOL0     C45940   4.144   5.856   8.030  0.6971  0.7319 -0.0795
  349MOL0     C45941   4.193   5.985   7.995 -0.0274  0.3371 -0.0833
  349MOL0     C45942   4.313   6.013   7.917  0.6164  0.0904 -1.6154
  349MOL0     C45943   4.391   5.905   7.887  0.1484 -0.2077  0.2960
  349MOL0     O45944   4.504   5.890   7.813  1.0075 -0.7634  0.3101
  349MOL0     C45945   4.558   5.995   7.732  0.7072  0.4597  0.0672
  349MOL0     C45946   4.692   5.963   7.668  0.2523  0.0050 -0.0415
  349MOL0     C45947   4.782   6.079   7.614  0.2105 -0.7974  0.5354
  349MOL0     C45948   4.930   6.041   7.577 -0.0289  0.7290  0.1146
  349MOL0     C45949   5.015   6.160   7.518  0.2940  0.1794 -0.1209
  349MOL0     C45950   5.153   6.112   7.470  0.9410  0.3035  1.1028
  349MOL0     C45951   5.236   6.216   7.394  1.1473  0.1247  0.2535
  349MOL0     C45952   5.374   6.185   7.335  0.4882  0.8444 -0.1397
  349MOL0     N45953   5.423   6.304   7.252 -0.5180  0.9657  0.2437
  349MOL0     C45954   5.369   6.373   7.145 -0.0870  0.3726 -0.0183
  349MOL0     C45955   5.460   6.471   7.115 -0.7378  0.2211 -0.0503
  349MOL0     C45956   5.436   6.585   7.021 -0.5331  0.7979 -1.1381
  349MOL0     C45957   5.289   6.629   7.025 -0.6161  0.0852 -0.4625
  349MOL0     C45958   5.269   6.765   7.094  0.3080  0.3591  0.1573
  349MOL0     C45959   5.272   6.750   7.247  1.1082 -0.2681  1.0212
  349MOL0     O45960   5.242   6.873   7.314 -0.5611 -0.1647 -0.6448
  349MOL0     C45961   5.111   6.906   7.344  0.7533  0.0861 -0.4832
  349MOL0     C45962   5.002   6.864   7.269 -0.4455 -0.8656 -0.2561
  349MOL0     C45963   4.872   6.913   7.290 -0.8829 -0.2130  0.2314
  349MOL0     C45964   4.852   6.997   7.400 -0.2470 -0.0278  0.2754
  349MOL0     C45965   4.713   7.021   7.443  0.2115  0.1408  0.3744
  349MOL0     O45966   4.609   6.956   7.373  0.1286 -0.5741  0.5502
  349MOL0     C45967   4.481   7.010   7.380 -0.7325  0.3191 -0.1899
  349MOL0     C45968   4.455   7.145   7.343  0.8152  0.2178 -0.2752
  349MOL0     C45969   4.325   7.199   7.356  0.4632 -0.5539  0.3887
  349MOL0     C45970   4.218   7.121   7.391  0.0925 -0.5412 -0.3605
  349MOL0     O45971   4.092   7.155   7.399  0.8480 -0.2144 -0.0088
  349MOL0     C45972   4.061   7.291   7.397 -0.4371  0.5722  0.7259
  349MOL0     C45973   3.905   7.294   7.426  0.1086  0.1875 -0.6988
  349MOL0     C45974   3.806   7.273   7.307 -0.2531 -0.2524  0.0329
  349MOL0     C45975   3.669   7.306   7.366 -0.5960 -0.6110  0.8828
  349MOL0     C45976   3.558   7.259   7.268  0.6924 -0.3366  0.0116
  349MOL0     C45977   3.558   7.343   7.132 -0.5092  0.0382 -0.4215
  349MOL0     C45978   3.426   7.333   7.050 -0.0439 -0.9936 -0.1827
  349MOL0     C45979   3.397   7.188   7.029 -0.1880 -0.3672 -0.4077
  349MOL0    Cl45980   3.522   7.125   6.920 -0.6031  0.1461 -0.2451
  349MOL0     C45981   4.244   6.988   7.417  0.5283 -0.4490  0.5201
  349MOL0     C45982   4.376   6.930   7.413 -0.4234 -0.0114  0.3073
  349MOL0     O45983   4.699   7.115   7.524  1.0852 -0.3399  0.6928
  349MOL0     C45984   4.968   7.049   7.470 -0.3872 -0.1354  0.3620
  349MOL0     C45985   5.090   7.016   7.431  0.6494  0.2213  0.7627
  349MOL0     N45986   5.564   6.473   7.205 -0.4454  0.7814  0.1910
  349MOL0     N45987   5.549   6.362   7.281  0.1534 -0.3452 -0.6368
  349MOL0     C45988   4.359   5.776   7.926 -0.0071  0.8415 -0.3213
  349MOL0     C45989   4.242   5.752   8.007  0.8013  0.7306  0.3280
  349MOL0     C45990   3.791   5.858   8.083  0.4703  0.2228 -0.3621
  349MOL0     C45991   3.674   5.907   8.023 -0.3451  0.2632  0.8920
  349MOL0     C45992   3.545   5.870   8.058  0.0101  0.3234  0.1478
  349MOL0     C45993   3.528   5.781   8.161  0.2438  0.6885  0.2314
  349MOL0     O45994   3.408   5.752   8.231  0.1244  0.0118  0.4155
  349MOL0     C45995   3.284   5.806   8.180 -1.0697  0.1576 -1.2001
  349MOL0     C45996   3.197   5.796   8.307 -0.5930 -0.2418  0.1737
  349MOL0     C45997   3.244   5.916   8.407 -1.3885  0.2437 -0.4789
  349MOL0     C45998   3.133   5.966   8.500 -0.2736  1.0913  0.2043
  349MOL0     C45999   3.009   6.012   8.432  0.2385  0.1652 -0.8676
  349MOL0     C46000   2.920   6.051   8.360  0.0839 -0.0690  0.0716
  349MOL0     C46001   3.638   5.724   8.227  0.3466 -0.5635 -1.1185
  349MOL0     C46002   3.772   5.772   8.195 -0.1981  0.3775  0.3943
  349MOL0     H46003   4.129   6.069   8.021 -0.6549 -0.0243 -0.4091
  349MOL0     H46004   4.339   6.116   7.894  1.1568  1.7514  4.5650
  349MOL0     H46005   4.573   6.083   7.795  1.0436 -0.3240  1.0924
  349MOL0     H46006   4.490   6.019   7.650 -0.2958 -1.8489  0.1447
  349MOL0     H46007   4.672   5.895   7.585  2.0322  0.5103 -0.9377
  349MOL0     H46008   4.745   5.894   7.734 -4.1398 -2.1072  1.6310
  349MOL0     H46009   4.781   6.158   7.689 -0.0920 -0.6506  0.3766
  349MOL0     H46010   4.747   6.128   7.522  0.8150 -0.4668  0.4736
  349MOL0     H46011   4.983   6.013   7.668  0.8566 -4.4855 -1.6729
  349MOL0     H46012   4.940   5.949   7.518  0.6479 -0.7791  2.4311
  349MOL0     H46013   5.038   6.238   7.591 -0.4310  0.2284  0.0719
  349MOL0     H46014   4.959   6.200   7.433  0.9523 -0.3026 -0.7933
  349MOL0     H46015   5.140   6.022   7.409 -1.2649  2.5238 -2.0276
  349MOL0     H46016   5.217   6.081   7.554  1.5085 -3.3829 -0.4571
  349MOL0     H46017   5.170   6.245   7.312 -0.2334 -1.9406  0.5663
  349MOL0     H46018   5.258   6.303   7.457  0.5885  2.0547 -2.0609
  349MOL0     H46019   5.353   6.103   7.267  2.5363  0.4908 -0.3847
  349MOL0     H46020   5.437   6.161   7.421 -1.5122  0.5946  1.3308
  349MOL0     H46021   5.275   6.350   7.097 -1.1896  1.4850  1.5197
  349MOL0     H46022   5.468   6.551   6.922  1.5907  0.0698 -0.2631
  349MOL0     H46023   5.494   6.676   7.043  1.0308  0.1688 -2.4226
  349MOL0     H46024   5.207   6.565   7.059 -3.5268  3.3222 -0.8387
  349MOL0     H46025   5.266   6.624   6.918 -2.2498 -3.4006 -0.0696
  349MOL0     H46026   5.353   6.832   7.075  2.8673 -2.3209  1.2327
  349MOL0     H46027   5.175   6.802   7.051  2.3999  1.7808 -3.7074
  349MOL0     H46028   5.369   6.715   7.284  1.3681  1.4014  2.0115
  349MOL0     H46029   5.188   6.683   7.273 -0.7649  1.8856  0.8552
  349MOL0     H46030   5.008   6.785   7.195  1.5138  1.8548 -3.2863
  349MOL0     H46031   4.782   6.881   7.238  0.1839 -1.2744 -1.0553
  349MOL0     H46032   4.544   7.206   7.332 -1.3490  3.2165 -3.1863
  349MOL0     H46033   4.306   7.299   7.320 -0.2286 -0.5225  0.8217
  349MOL0     H46034   4.078   7.319   7.292 -1.1896  3.3702  1.2538
  349MOL0     H46035   4.121   7.360   7.456  0.6530  0.2497  0.0159
  349MOL0     H46036   3.883   7.390   7.474 -1.6509 -0.3198 -0.4328
  349MOL0     H46037   3.885   7.212   7.495  0.2988  0.5808 -0.1697
  349MOL0     H46038   3.799   7.173   7.264  2.0538 -1.1673  1.6109
  349MOL0     H46039   3.829   7.344   7.227  1.2765 -0.3114  0.4009
  349MOL0     H46040   3.658   7.260   7.465  1.9216 -2.6869  0.3070
  349MOL0     H46041   3.678   7.415   7.372 -1.7532 -0.2583 -2.0170
  349MOL0     H46042   3.462   7.289   7.312  1.2422  0.5326  0.6374
  349MOL0     H46043   3.553   7.152   7.248 -0.2865  0.0131 -1.9109
  349MOL0     H46044   3.645   7.299   7.082  0.2097  0.1482  0.6947
  349MOL0     H46045   3.578   7.449   7.153 -0.5363  0.0844 -0.6212
  349MOL0     H46046   3.342   7.378   7.103  0.3855  0.2438 -0.5131
  349MOL0     H46047   3.433   7.376   6.949  3.4442 -1.0281 -0.0992
  349MOL0     H46048   3.298   7.188   6.984  0.1967 -2.9818 -1.4230
  349MOL0     H46049   3.395   7.118   7.113  3.8709  0.5983  0.7069
  349MOL0     H46050   4.165   6.921   7.450 -1.2907  1.0746 -0.5592
  349MOL0     H46051   4.388   6.824   7.434 -0.1146 -0.5524 -2.3440
  349MOL0     H46052   4.965   7.126   7.547 -0.5491  1.3491 -1.0554
  349MOL0     H46053   5.179   7.061   7.474  3.5281 -0.7689 -3.4812
  349MOL0     H46054   4.434   5.699   7.917 -0.0540  0.5426  1.5715
  349MOL0     H46055   4.244   5.658   8.060 -2.1907  1.6478  2.3468
  349MOL0     H46056   3.686   5.979   7.943 -1.3267  0.1967  0.6661
  349MOL0     H46057   3.456   5.904   8.007 -1.9307 -1.0260  2.4284
  349MOL0     H46058   3.235   5.742   8.106 -0.5032 -2.1790  0.3339
  349MOL0     H46059   3.296   5.911   8.150 -0.7303  0.8059  1.0324
  349MOL0     H46060   3.090   5.807   8.286 -0.6263  0.3941  0.6152
  349MOL0     H46061   3.214   5.702   8.360 -0.0038 -0.8063 -0.9783
  349MOL0     H46062   3.273   5.997   8.339 -4.0420  0.5103 -1.4152
  349MOL0     H46063   3.328   5.876   8.465 -0.9659 -1.5640 -2.2220
  349MOL0     H46064   3.105   5.885   8.568  2.5605 -0.2009 -0.0287
  349MOL0     H46065   3.177   6.041   8.566 -1.5227  1.8544  0.2036
  349MOL0     H46066   2.849   6.088   8.289  1.2972 -3.2625 -3.1261
  349MOL0     H46067   3.620   5.656   8.309  0.1569  0.9454  0.1268
  349MOL0     H46068   3.849   5.735   8.262  0.2464 -0.1657 -0.4138
  350MOL0     O46069   9.233   4.250   1.754  0.2812  0.4053 -0.1198
  350MOL0     C46070   9.187   4.357   1.705 -0.3150 -0.4113 -0.8845
  350MOL0     O46071   9.058   4.376   1.667  0.7654 -0.6902 -0.8644
  350MOL0     C46072   8.966   4.282   1.718  0.3667  0.4379 -0.4509
  350MOL0     C46073   8.901   4.312   1.839  0.3335  1.1056  0.7318
  350MOL0     C46074   8.795   4.228   1.889 -0.8925 -0.4196 -0.2584
  350MOL0     C46075   8.778   4.102   1.825  0.6448  0.3337 -0.3579
  350MOL0     O46076   8.680   4.018   1.880 -0.3755  0.0051  0.2028
  350MOL0     C46077   8.546   4.062   1.886 -0.4941 -0.5624  0.3807
  350MOL0     C46078   8.461   3.936   1.896 -1.0478  0.0727  0.6871
  350MOL0     C46079   8.315   3.968   1.912 -0.2493 -0.0988 -0.2236
  350MOL0     C46080   8.228   3.841   1.943 -0.1975  0.1287 -0.1377
  350MOL0     C46081   8.083   3.881   1.921  0.9386  0.4358  0.0373
  350MOL0     C46082   8.036   3.979   2.033  0.6425  0.7010  0.8477
  350MOL0     C46083   7.883   3.990   2.027  0.7294  0.3973 -0.5403
  350MOL0     C46084   7.815   3.887   2.120 -0.8699 -0.3537  1.2373
  350MOL0     N46085   7.762   3.943   2.241 -0.6107 -0.5661 -1.2853
  350MOL0     C46086   7.839   4.003   2.339  0.3064 -0.3703  0.3968
  350MOL0     C46087   7.750   4.055   2.420  0.3610  0.7217 -0.7421
  350MOL0     C46088   7.790   4.150   2.526  0.2853 -0.2446  0.0118
  350MOL0     C46089   7.726   4.113   2.659  0.5901 -0.6031  0.1598
  350MOL0     C46090   7.635   4.215   2.725 -0.3547 -0.9511 -0.3044
  350MOL0     C46091   7.502   4.225   2.662 -0.7106  0.2160  0.4224
  350MOL0     O46092   7.421   4.322   2.745 -0.4252  0.3958  0.1546
  350MOL0     C46093   7.279   4.318   2.716 -0.6245 -0.5183 -0.3525
  350MOL0     C46094   7.202   4.425   2.773  0.3945 -0.1204  0.1415
  350MOL0     C46095   7.066   4.435   2.747  0.4324  0.2785 -0.7417
  350MOL0     C46096   7.001   4.333   2.675  0.3921  0.6547 -0.1542
  350MOL0     C46097   6.864   4.338   2.626  0.6578  0.1944 -0.0535
  350MOL0     O46098   6.766   4.404   2.707 -0.3824  0.6150  0.1217
  350MOL0     C46099   6.634   4.403   2.679 -0.4095  0.4963  0.6403
  350MOL0     C46100   6.578   4.503   2.593  0.0201 -0.3912 -0.5473
  350MOL0     C46101   6.442   4.499   2.557  0.1120  0.7606 -0.3087
  350MOL0     C46102   6.364   4.389   2.589  0.4903  0.0171  0.4556
  350MOL0     O46103   6.233   4.362   2.560 -0.3073 -0.9605  0.2588
  350MOL0     C46104   6.161   4.452   2.487  2.1598 -0.4991  0.8059
  350MOL0     C46105   6.011   4.404   2.468  0.3792 -0.3222  0.8096
  350MOL0     C46106   5.936   4.464   2.349 -0.0937 -0.6023 -0.4889
  350MOL0     C46107   5.782   4.449   2.371  0.2623  0.2476  0.1529
  350MOL0     C46108   5.735   4.296   2.342 -0.3405 -0.3993  0.6528
  350MOL0     C46109   5.748   4.246   2.197  0.2071 -0.4003  0.2526
  350MOL0     C46110   5.768   4.093   2.209 -0.3370 -0.1699  0.1638
  350MOL0     C46111   5.780   4.021   2.073 -0.2801 -0.5188  0.0706
  350MOL0    Cl46112   5.632   4.045   1.970  0.0111  0.3035 -0.4417
  350MOL0     C46113   6.411   4.293   2.678 -0.3030  0.0744  0.6261
  350MOL0     C46114   6.542   4.301   2.717  0.5073  0.1754 -0.7652
  350MOL0     O46115   6.837   4.292   2.513  0.1004  0.1434  0.6435
  350MOL0     C46116   7.077   4.218   2.635  0.8821 -0.0816  0.0689
  350MOL0     C46117   7.215   4.218   2.644 -0.6813 -0.2074 -0.0202
  350MOL0     N46118   7.620   4.015   2.381  0.7038  0.2657 -0.6978
  350MOL0     N46119   7.632   3.947   2.278 -0.6497 -1.1651 -1.0615
  350MOL0     C46120   8.845   4.069   1.701  0.2869  0.6249  0.2580
  350MOL0     C46121   8.935   4.168   1.653  0.5312  0.2491 -0.5293
  350MOL0     C46122   9.285   4.470   1.690  0.0780 -0.2908  0.1197
  350MOL0     C46123   9.253   4.594   1.638 -0.1947  0.4376 -0.0793
  350MOL0     C46124   9.350   4.690   1.612  0.0713  0.6381 -0.8604
  350MOL0     C46125   9.483   4.660   1.639  1.0325 -0.6412 -0.0802
  350MOL0     O46126   9.581   4.757   1.617  0.4140 -0.2849 -0.2882
  350MOL0     C46127   9.718   4.743   1.668  0.2296  0.5260 -0.9680
  350MOL0     C46128   9.801   4.640   1.588  0.2759 -0.3338 -0.5646
  350MOL0     C46129   9.846   4.701   1.463 -0.5869  0.3881  0.3618
  350MOL0     C46130   9.864   4.603   1.340  0.2048 -0.3160  0.2597
  350MOL0     C46131   9.966   4.498   1.378 -0.0300  0.2727  0.1738
  350MOL0     C46132  10.033   4.401   1.420  0.3053 -0.1558 -1.0048
  350MOL0     C46133   9.510   4.536   1.701 -0.7487 -0.6192 -0.2155
  350MOL0     C46134   9.416   4.444   1.728 -1.0431  0.2792 -0.0229
  350MOL0     H46135   8.932   4.409   1.876  0.9229  2.1218 -2.1867
  350MOL0     H46136   8.748   4.246   1.985  2.4058  1.4718  1.1785
  350MOL0     H46137   8.520   4.121   1.797 -1.4056 -1.2781  0.1709
  350MOL0     H46138   8.534   4.115   1.981 -1.5888 -2.3350  1.2687
  350MOL0     H46139   8.487   3.869   1.978 -0.3625 -0.8172 -0.2344
  350MOL0     H46140   8.482   3.876   1.806  0.1148  2.2212 -0.5476
  350MOL0     H46141   8.281   4.008   1.816 -1.3517  0.4203  0.3694
  350MOL0     H46142   8.311   4.044   1.990  3.5890  0.5960 -0.5065
  350MOL0     H46143   8.254   3.759   1.876  4.5859  0.9243  0.3914
  350MOL0     H46144   8.243   3.803   2.045 -3.8712  0.5100  0.7038
  350MOL0     H46145   8.024   3.789   1.931 -1.6026  1.9307 -0.3718
  350MOL0     H46146   8.069   3.918   1.819 -0.0914 -1.5200 -0.5865
  350MOL0     H46147   8.066   4.083   2.013 -0.8321  1.0009  0.0678
  350MOL0     H46148   8.071   3.953   2.133 -1.4993 -2.5600  0.8932
  350MOL0     H46149   7.851   4.091   2.056 -2.4870  0.4743 -3.5531
  350MOL0     H46150   7.847   3.991   1.923  0.0537  2.0413 -0.3307
  350MOL0     H46151   7.898   3.821   2.149  0.8577  1.5258  0.8314
  350MOL0     H46152   7.751   3.816   2.067  0.8667 -3.0618  2.5337
  350MOL0     H46153   7.947   3.997   2.344  0.3850 -1.4917 -1.7084
  350MOL0     H46154   7.760   4.252   2.498 -1.9227 -1.1827 -1.3695
  350MOL0     H46155   7.899   4.155   2.532  0.3607 -2.5340  1.5373
  350MOL0     H46156   7.813   4.119   2.724 -0.7234 -1.7459  2.1115
  350MOL0     H46157   7.673   4.019   2.680 -1.7645  0.2743 -1.3913
  350MOL0     H46158   7.613   4.191   2.829 -1.6133 -0.4521 -0.4390
  350MOL0     H46159   7.676   4.316   2.731  2.2031 -1.9693  1.1314
  350MOL0     H46160   7.461   4.124   2.667 -0.1938 -0.0249  5.7376
  350MOL0     H46161   7.524   4.263   2.562  0.7611  2.7220  1.5992
  350MOL0     H46162   7.264   4.495   2.827 -0.0801  0.0258  0.5003
  350MOL0     H46163   7.021   4.529   2.776  2.8393  1.5563 -0.9344
  350MOL0     H46164   6.629   4.596   2.569 -2.6427  1.8822  1.8954
  350MOL0     H46165   6.386   4.565   2.492 -4.7589 -1.7168  0.8736
  350MOL0     H46166   6.205   4.476   2.390 -1.2840  2.4545 -0.2501
  350MOL0     H46167   6.145   4.550   2.534 -1.6116 -0.3810 -0.3791
  350MOL0     H46168   5.960   4.417   2.564 -2.2009  2.1033 -0.7420
  350MOL0     H46169   6.005   4.296   2.456 -1.1429 -0.0744 -1.1644
  350MOL0     H46170   5.982   4.419   2.260 -1.1622 -2.5435 -0.1195
  350MOL0     H46171   5.980   4.563   2.333  2.5011 -1.8026 -1.4214
  350MOL0     H46172   5.754   4.476   2.473  0.7921  2.0981 -0.1504
  350MOL0     H46173   5.735   4.522   2.304 -0.5759  0.5498  1.0550
  350MOL0     H46174   5.635   4.303   2.386  0.1111  2.0823  1.4385
  350MOL0     H46175   5.794   4.233   2.409  0.9917  1.6503  1.5083
  350MOL0     H46176   5.830   4.293   2.142 -1.7823  1.6910 -1.1630
  350MOL0     H46177   5.659   4.271   2.137  2.0671  1.2343 -2.0410
  350MOL0     H46178   5.851   4.074   2.277 -2.0733 -2.2494  1.8820
  350MOL0     H46179   5.676   4.053   2.254 -0.4819  0.4914  0.4558
  350MOL0     H46180   5.796   3.914   2.088 -0.9971 -1.1477 -2.9174
  350MOL0     H46181   5.855   4.063   2.006 -2.6104  2.1155 -1.1167
  350MOL0     H46182   6.343   4.217   2.715 -3.1125  2.4558  0.7019
  350MOL0     H46183   6.576   4.224   2.785 -0.5737 -4.3067 -4.7499
  350MOL0     H46184   7.023   4.136   2.590 -0.1843  0.5211  0.2299
  350MOL0     H46185   7.269   4.138   2.595  2.2554  2.9494 -2.4250
  350MOL0     H46186   8.848   3.970   1.656  2.7387  0.3876  0.8163
  350MOL0     H46187   8.975   4.142   1.556 -1.5371  0.9217 -1.6398
  350MOL0     H46188   9.152   4.616   1.604  0.2548  1.0230 -1.1106
  350MOL0     H46189   9.318   4.786   1.572 -0.6370 -0.5665 -3.3862
  350MOL0     H46190   9.708   4.723   1.776 -3.0647 -2.4768 -1.6398
  350MOL0     H46191   9.775   4.837   1.668  2.1344 -0.5661 -1.4830
  350MOL0     H46192   9.890   4.602   1.640  0.6686  0.6900 -0.4565
  350MOL0     H46193   9.729   4.564   1.557  1.4097 -1.0520 -1.5549
  350MOL0     H46194   9.945   4.748   1.469 -0.3596  0.4257 -2.2142
  350MOL0     H46195   9.777   4.779   1.432 -2.1289 -1.2790 -0.6142
  350MOL0     H46196   9.767   4.558   1.316  0.2246 -1.3223  1.9075
  350MOL0     H46197   9.894   4.649   1.245 -4.1593 -0.0528 -1.2170
  350MOL0     H46198  10.094   4.320   1.454  1.3288  0.1614 -2.0173
  350MOL0     H46199   9.609   4.492   1.715 -2.4961 -4.8164  0.7029
  350MOL0     H46200   9.441   4.350   1.776 -1.5493 -0.3750 -1.0293
  351MOL0     O46201  10.135  11.152   8.467  0.7542 -0.2384  0.3189
  351MOL0     C46202  10.183  11.208   8.376 -0.3764 -1.1207  0.9582
  351MOL0     O46203  10.116  11.247   8.260  0.0297 -0.0427 -0.3814
  351MOL0     C46204   9.983  11.215   8.244  0.3393 -0.1398  0.4516
  351MOL0     C46205   9.885  11.250   8.342  0.1485 -0.3636 -0.3706
  351MOL0     C46206   9.747  11.233   8.326 -0.5308 -0.6984 -0.4527
  351MOL0     C46207   9.699  11.169   8.213 -0.5542 -0.2775  0.1176
  351MOL0     O46208   9.568  11.138   8.179 -0.8424  0.0471 -0.5245
  351MOL0     C46209   9.487  11.098   8.290  0.0491  0.2987 -0.5594
  351MOL0     C46210   9.346  11.075   8.232  0.4248 -0.4784  0.0347
  351MOL0     C46211   9.256  11.041   8.358 -0.9553 -0.4730  0.1716
  351MOL0     C46212   9.112  11.040   8.315  2.0239  0.3908  0.1098
  351MOL0     C46213   9.011  11.014   8.442 -0.1151 -0.5323 -0.5677
  351MOL0     C46214   8.957  11.146   8.496  0.4741 -0.0988  0.2089
  351MOL0     C46215   8.876  11.124   8.626  0.3884 -0.3994 -0.2571
  351MOL0     C46216   8.804  11.235   8.681 -0.5883  0.3031 -0.0929
  351MOL0     N46217   8.701  11.283   8.589 -0.0595 -0.7360  0.5222
  351MOL0     C46218   8.675  11.414   8.575  0.2017  0.0719 -0.7420
  351MOL0     C46219   8.566  11.422   8.496  0.3021 -0.2465  0.5150
  351MOL0     C46220   8.480  11.543   8.473 -0.4235  0.3365  0.2972
  351MOL0     C46221   8.361  11.544   8.565  0.2101 -0.0288 -0.9470
  351MOL0     C46222   8.276  11.424   8.552  0.1849  0.3987  0.1024
  351MOL0     C46223   8.132  11.457   8.602 -0.8279  0.3811  0.8547
  351MOL0     O46224   8.078  11.565   8.525  0.5043  0.5755  0.4810
  351MOL0     C46225   7.943  11.596   8.518 -0.7623  0.0328 -0.1245
  351MOL0     C46226   7.848  11.511   8.583  0.8476 -0.4012  0.5411
  351MOL0     C46227   7.714  11.555   8.585 -0.1132 -0.1067 -0.5267
  351MOL0     C46228   7.671  11.680   8.531  0.0611 -0.5831 -0.3229
  351MOL0     C46229   7.531  11.712   8.530  0.3083 -0.4922  0.6388
  351MOL0     O46230   7.439  11.622   8.577 -0.0453 -0.4292  0.0012
  351MOL0     C46231   7.306  11.647   8.563 -0.3929 -0.7568 -0.6246
  351MOL0     C46232   7.236  11.550   8.501 -0.4050  0.0923 -0.4087
  351MOL0     C46233   7.098  11.568   8.492 -0.0799  1.0056 -0.5112
  351MOL0     C46234   7.029  11.675   8.555 -0.4332 -0.2339  0.4239
  351MOL0     O46235   6.894  11.700   8.561  0.8288  0.7976 -0.0629
  351MOL0     C46236   6.807  11.617   8.473  0.4210 -0.3173 -0.6592
  351MOL0     C46237   6.662  11.625   8.506 -0.3823 -0.4998  0.2386
  351MOL0     C46238   6.591  11.758   8.472 -0.0377 -0.7726 -0.8873
  351MOL0     C46239   6.446  11.762   8.529 -0.3163  0.0874 -0.8926
  351MOL0     C46240   6.387  11.905   8.535  0.0692 -0.2057 -0.0027
  351MOL0     C46241   6.348  11.945   8.391 -0.0909 -0.8232  1.4434
  351MOL0     C46242   6.267  12.077   8.397  0.2174 -0.3951  0.4270
  351MOL0     C46243   6.303  12.178   8.285  0.9160 -0.4212 -1.3201
  351MOL0    Cl46244   6.152  12.271   8.258 -0.5039  0.1851 -0.2785
  351MOL0     C46245   7.107  11.762   8.631  0.2621 -0.3424 -0.3628
  351MOL0     C46246   7.243  11.748   8.637  0.6261 -0.3157 -0.3714
  351MOL0     O46247   7.502  11.820   8.473 -0.3541 -0.0193 -0.4464
  351MOL0     C46248   7.766  11.756   8.469  0.0426 -0.0427 -0.3301
  351MOL0     C46249   7.899  11.714   8.460  0.9285 -0.4049  0.5756
  351MOL0     N46250   8.545  11.295   8.449  0.9225 -0.4497  0.2901
  351MOL0     N46251   8.612  11.208   8.513  0.3340 -0.4096  0.2977
  351MOL0     C46252   9.792  11.118   8.125 -0.0967  0.1166  0.2475
  351MOL0     C46253   9.930  11.150   8.130 -0.7662 -0.2181 -0.7813
  351MOL0     C46254  10.313  11.267   8.398 -0.4429  0.2043  0.0989
  351MOL0     C46255  10.362  11.300   8.523 -0.0053  0.6905 -0.3284
  351MOL0     C46256  10.478  11.373   8.548 -0.0575 -0.8602  0.0197
  351MOL0     C46257  10.551  11.409   8.431  0.1205  0.4305 -0.0610
  351MOL0     O46258  10.665  11.488   8.425 -0.8279  0.3289 -0.8131
  351MOL0     C46259  10.716  11.562   8.545 -0.6340 -0.0850  0.0609
  351MOL0     C46260  10.847  11.635   8.505  1.0805 -0.2130  0.2225
  351MOL0     C46261  10.952  11.539   8.436  0.6418  0.0271 -0.5480
  351MOL0     C46262  11.097  11.562   8.466 -0.2687 -0.5737 -0.0424
  351MOL0     C46263  11.131  11.522   8.603 -0.6769 -0.7280  0.5165
  351MOL0     C46264  11.166  11.523   8.721  0.2881  0.7627  0.7880
  351MOL0     C46265  10.502  11.379   8.305 -0.0366  0.1753  1.0370
  351MOL0     C46266  10.388  11.302   8.285 -0.3971 -0.0036 -1.1254
  351MOL0     H46267   9.927  11.299   8.429  0.1249  0.4994 -0.8356
  351MOL0     H46268   9.679  11.286   8.392 -0.1634 -1.0388  0.1978
  351MOL0     H46269   9.480  11.179   8.363 -3.7407 -0.8820  0.6426
  351MOL0     H46270   9.513  11.008   8.346  0.0683  2.5287  3.3440
  351MOL0     H46271   9.351  10.994   8.158 -3.8025 -1.7254  0.8459
  351MOL0     H46272   9.315  11.171   8.192  1.7864 -0.0249  0.0476
  351MOL0     H46273   9.280  11.115   8.435 -1.1969  1.0420 -1.1501
  351MOL0     H46274   9.278  10.942   8.399  2.6147  0.5519  1.0579
  351MOL0     H46275   9.085  11.138   8.275 -1.4804 -0.3653  0.2643
  351MOL0     H46276   9.102  10.956   8.245  1.7707  0.8768 -0.4421
  351MOL0     H46277   9.057  10.960   8.525  0.4341  1.6752  0.6351
  351MOL0     H46278   8.928  10.950   8.412  0.5541 -1.6651 -0.0546
  351MOL0     H46279   8.901  11.203   8.422  3.0904  0.1682 -1.7262
  351MOL0     H46280   9.046  11.206   8.519 -0.4604  1.9575 -1.2574
  351MOL0     H46281   8.811  11.037   8.613  1.3303 -1.3394  1.0826
  351MOL0     H46282   8.945  11.095   8.706  1.9266  3.7753  0.1765
  351MOL0     H46283   8.879  11.305   8.720 -2.3763  1.6136  1.1332
  351MOL0     H46284   8.753  11.207   8.774 -1.2707 -0.1077 -0.5798
  351MOL0     H46285   8.702  11.495   8.643 -0.3306 -0.4801  0.1392
  351MOL0     H46286   8.449  11.539   8.368 -0.0387  1.7821  0.1087
  351MOL0     H46287   8.544  11.631   8.477 -0.4913  0.4643 -0.9539
  351MOL0     H46288   8.310  11.638   8.541  0.5982  0.5073  0.2191
  351MOL0     H46289   8.409  11.558   8.662  1.2331 -2.1474 -1.1036
  351MOL0     H46290   8.275  11.391   8.447  1.9085  0.6184 -0.0014
  351MOL0     H46291   8.310  11.352   8.627  1.6098 -0.2765 -1.1477
  351MOL0     H46292   8.146  11.495   8.704  0.8717  0.9369  0.4583
  351MOL0     H46293   8.070  11.367   8.603  1.2470 -1.3553 -3.5667
  351MOL0     H46294   7.875  11.418   8.632  0.9193 -1.2765 -1.0891
  351MOL0     H46295   7.645  11.490   8.638 -0.2505 -0.7387 -1.4632
  351MOL0     H46296   7.275  11.459   8.455 -2.0038 -0.8544  0.0456
  351MOL0     H46297   7.054  11.496   8.423  3.6676 -0.5667 -1.4721
  351MOL0     H46298   6.835  11.511   8.478  1.1578 -0.0549  1.8073
  351MOL0     H46299   6.809  11.642   8.366  2.9341 -0.6944 -0.7723
  351MOL0     H46300   6.647  11.607   8.613 -1.9398  4.8316  1.2108
  351MOL0     H46301   6.620  11.543   8.448  0.1653 -0.5144 -0.1450
  351MOL0     H46302   6.594  11.767   8.363 -1.5036 -2.3273 -1.1031
  351MOL0     H46303   6.654  11.839   8.511 -0.4475 -0.7700 -0.2197
  351MOL0     H46304   6.386  11.714   8.450 -2.3462  3.9427 -1.9802
  351MOL0     H46305   6.432  11.696   8.615  0.0546 -2.3615 -2.6032
  351MOL0     H46306   6.460  11.969   8.586 -0.0419  0.1788 -0.3195
  351MOL0     H46307   6.298  11.895   8.597  1.3520 -0.8154  1.8278
  351MOL0     H46308   6.280  11.868   8.352  1.5004 -1.0140 -1.2106
  351MOL0     H46309   6.421  11.949   8.310 -2.2710  0.7493 -0.6245
  351MOL0     H46310   6.160  12.059   8.401  0.1691  0.0450  1.7431
  351MOL0     H46311   6.294  12.111   8.498 -0.3867  0.3945  0.3226
  351MOL0     H46312   6.321  12.125   8.191  1.1786 -1.7140 -0.5675
  351MOL0     H46313   6.372  12.256   8.318 -1.2654  0.7333  0.8293
  351MOL0     H46314   7.069  11.843   8.692  0.3521  0.7570 -1.7244
  351MOL0     H46315   7.301  11.820   8.693 -3.1217  2.7109  0.0165
  351MOL0     H46316   7.730  11.843   8.416 -0.8939 -1.1442 -1.5944
  351MOL0     H46317   7.967  11.779   8.406  1.2381 -0.4821  0.8687
  351MOL0     H46318   9.760  11.071   8.033  1.6881 -0.0856 -0.3027
  351MOL0     H46319   9.994  11.127   8.045  0.0830  2.8459 -1.0618
  351MOL0     H46320  10.303  11.273   8.610  1.0988  0.3923  0.3469
  351MOL0     H46321  10.511  11.400   8.648  0.5190  0.1528 -0.4191
  351MOL0     H46322  10.738  11.495   8.629  2.0746  1.2254  0.5328
  351MOL0     H46323  10.635  11.622   8.587 -0.9547 -0.0424 -0.6079
  351MOL0     H46324  10.831  11.713   8.431  1.2220 -1.3979 -1.1066
  351MOL0     H46325  10.890  11.669   8.600  1.9692  0.7243 -0.4910
  351MOL0     H46326  10.936  11.552   8.328  0.4934 -1.0999 -0.6770
  351MOL0     H46327  10.936  11.432   8.451  0.7017 -0.0118 -0.7598
  351MOL0     H46328  11.158  11.510   8.391 -3.4412 -0.4275 -2.9945
  351MOL0     H46329  11.115  11.669   8.446  1.7222 -0.5897  1.3618
  351MOL0     H46330  11.182  11.536   8.827  1.5306  1.7466  0.5058
  351MOL0     H46331  10.564  11.413   8.223 -1.1094 -2.4353 -0.9961
  351MOL0     H46332  10.359  11.270   8.185 -1.3826  1.7582 -1.4473
  352MOL0     O46333   2.888   6.635   5.764  0.2013 -0.0354  0.5387
  352MOL0     C46334   2.982   6.709   5.799 -0.2759  0.5163 -0.1193
  352MOL0     O46335   2.985   6.844   5.803 -0.1261 -0.2662 -0.0101
  352MOL0     C46336   2.874   6.911   5.770 -0.3020  0.3007  0.0412
  352MOL0     C46337   2.766   6.912   5.853  0.1433  1.0067 -0.1463
  352MOL0     C46338   2.653   6.997   5.841  0.1743 -0.3327  0.4533
  352MOL0     C46339   2.640   7.078   5.727  0.4863 -0.4559  0.1952
  352MOL0     O46340   2.521   7.154   5.707  0.4033  0.0781  0.3004
  352MOL0     C46341   2.470   7.172   5.573  0.2163  0.8604 -0.1940
  352MOL0     C46342   2.332   7.254   5.577 -0.1411 -0.6750 -0.0422
  352MOL0     C46343   2.236   7.199   5.682  1.1531  0.2484 -0.4543
  352MOL0     C46344   2.096   7.273   5.686 -1.0080  0.4662  0.2004
  352MOL0     C46345   1.993   7.213   5.776  1.4445  0.8060  0.6208
  352MOL0     C46346   1.938   7.323   5.865  0.2981 -0.4707 -0.3620
  352MOL0     C46347   1.839   7.263   5.964 -0.4990 -0.6559 -0.4854
  352MOL0     C46348   1.908   7.212   6.089 -0.3812 -0.0449 -0.6010
  352MOL0     N46349   1.815   7.180   6.188 -0.0418  0.5882  0.3398
  352MOL0     C46350   1.731   7.074   6.174 -0.4129 -0.5321  1.0196
  352MOL0     C46351   1.635   7.098   6.265 -0.6108  0.5017 -0.0135
  352MOL0     C46352   1.524   7.004   6.299  0.2891  0.1651  0.4149
  352MOL0     C46353   1.381   7.065   6.308  0.1678  0.0372 -0.2483
  352MOL0     C46354   1.316   7.065   6.174  0.2367  0.8615 -0.1889
  352MOL0     C46355   1.173   7.122   6.172  0.2185 -0.7691 -0.3116
  352MOL0     O46356   1.108   7.093   6.300  0.7830 -0.0656  0.0553
  352MOL0     C46357   0.987   7.027   6.279  0.1544  1.1382 -0.9915
  352MOL0     C46358   0.891   7.071   6.181  0.0598 -0.4589 -1.1650
  352MOL0     C46359   0.769   7.008   6.168  0.2653 -1.3034 -0.0854
  352MOL0     C46360   0.729   6.896   6.241 -0.5693  0.6624  0.3511
  352MOL0     C46361   0.599   6.830   6.215  0.6389 -0.5446  0.4714
  352MOL0     O46362   0.502   6.903   6.154  0.2633 -0.0133 -0.1627
  352MOL0     C46363   0.372   6.858   6.161  0.5746  0.6692  0.7657
  352MOL0     C46364   0.285   6.928   6.075 -1.3225  0.2519 -0.4328
  352MOL0     C46365   0.149   6.893   6.063  0.6261  0.3284  0.2172
  352MOL0     C46366   0.093   6.815   6.166 -0.0676 -0.2003  0.5755
  352MOL0     O46367  -0.038   6.801   6.163 -0.0273 -0.1597 -0.0809
  352MOL0     C46368  -0.120   6.744   6.270  0.2136 -0.1593  0.6515
  352MOL0     C46369  -0.262   6.793   6.242 -1.4415 -0.2898  0.0172
  352MOL0     C46370  -0.359   6.695   6.312 -0.1510  0.1351 -0.2930
  352MOL0     C46371  -0.498   6.758   6.304  0.8345 -0.1723 -0.0132
  352MOL0     C46372  -0.603   6.645   6.321 -0.0037  0.9266  0.6583
  352MOL0     C46373  -0.744   6.687   6.281  0.6754  0.4155  0.6149
  352MOL0     C46374  -0.849   6.599   6.338 -0.3310 -0.6805  0.3673
  352MOL0     C46375  -0.983   6.668   6.338 -0.6058  1.4573  1.2461
  352MOL0    Cl46376  -1.103   6.551   6.382 -0.2361  0.0116  0.2581
  352MOL0     C46377   0.176   6.754   6.263 -0.8330 -0.2953 -0.0749
  352MOL0     C46378   0.318   6.773   6.268  0.3824 -0.3487  0.9257
  352MOL0     O46379   0.596   6.707   6.221  0.3413  0.5475 -0.2375
  352MOL0     C46380   0.820   6.855   6.341  0.5656  0.1263  0.4402
  352MOL0     C46381   0.944   6.918   6.360 -0.0905 -0.4168  0.2786
  352MOL0     N46382   1.661   7.223   6.326 -0.4680  0.0457  0.6612
  352MOL0     N46383   1.769   7.273   6.272 -0.1313 -0.6511  0.1285
  352MOL0     C46384   2.742   7.068   5.634  0.5145  0.9197  0.2387
  352MOL0     C46385   2.858   6.988   5.659  0.2457  0.6684 -0.0484
  352MOL0     C46386   3.121   6.648   5.825 -0.2451 -0.4060  0.0445
  352MOL0     C46387   3.217   6.733   5.873  0.0836 -0.0599 -0.4248
  352MOL0     C46388   3.346   6.680   5.896  0.0825  0.4433  0.8618
  352MOL0     C46389   3.369   6.537   5.872  1.0246 -0.3423 -0.3334
  352MOL0     O46390   3.491   6.472   5.896  0.0033  0.0365 -0.0028
  352MOL0     C46391   3.616   6.545   5.899  0.0925  0.0864 -0.0851
  352MOL0     C46392   3.660   6.599   5.755  0.4275  0.7011  0.4336
  352MOL0     C46393   3.731   6.492   5.669  1.0053  0.4544 -0.6388
  352MOL0     C46394   3.879   6.517   5.639  0.2010 -0.1146 -0.0944
  352MOL0     C46395   3.893   6.613   5.531  0.3033  0.6294  0.2449
  352MOL0     C46396   3.917   6.716   5.473  0.7572 -0.1672 -0.0042
  352MOL0     C46397   3.262   6.454   5.819  0.4846 -0.1608 -0.0328
  352MOL0     C46398   3.144   6.511   5.802 -0.3971 -0.2340 -0.3518
  352MOL0     H46399   2.786   6.863   5.947 -1.5913  2.8675  1.2655
  352MOL0     H46400   2.577   7.005   5.917 -0.6890  0.8718 -0.5099
  352MOL0     H46401   2.452   7.076   5.524 -0.6562 -0.5229  2.5794
  352MOL0     H46402   2.538   7.239   5.520  1.0350  2.2368  2.4196
  352MOL0     H46403   2.294   7.238   5.476  0.0187 -2.7876  0.1894
  352MOL0     H46404   2.354   7.358   5.601 -1.3774 -0.5305  0.5870
  352MOL0     H46405   2.277   7.188   5.783  2.5270 -1.6620 -1.1648
  352MOL0     H46406   2.227   7.093   5.656  2.7933 -0.2421  0.8101
  352MOL0     H46407   2.109   7.377   5.715 -1.0853  0.0650  1.7595
  352MOL0     H46408   2.069   7.267   5.580  2.5157  2.6708 -0.9725
  352MOL0     H46409   2.041   7.135   5.837  0.5277  0.0061  0.3394
  352MOL0     H46410   1.909   7.168   5.723  3.3017 -0.6186 -1.2772
  352MOL0     H46411   1.882   7.395   5.805 -1.3496 -0.3014  1.2805
  352MOL0     H46412   2.023   7.372   5.914 -0.7515 -1.2200  2.3940
  352MOL0     H46413   1.766   7.337   5.999 -1.7358 -1.5162 -1.1947
  352MOL0     H46414   1.774   7.188   5.919 -2.4352  0.6532 -0.0332
  352MOL0     H46415   1.978   7.291   6.118  0.0237  0.0224 -1.7153
  352MOL0     H46416   1.962   7.119   6.066  1.1020  0.8904 -1.0561
  352MOL0     H46417   1.743   6.992   6.104 -0.5181 -1.1181  1.6723
  352MOL0     H46418   1.539   6.970   6.402  2.4505 -1.3153 -0.3225
  352MOL0     H46419   1.530   6.918   6.232 -0.1379  0.7077 -0.3355
  352MOL0     H46420   1.397   7.166   6.348 -0.2854  0.3398 -0.8252
  352MOL0     H46421   1.319   7.006   6.377 -0.5570 -0.7903 -1.5617
  352MOL0     H46422   1.376   7.124   6.104  2.2173 -1.1780 -0.3261
  352MOL0     H46423   1.331   6.964   6.134 -2.7811  0.3989 -0.3993
  352MOL0     H46424   1.131   7.071   6.084 -0.1900 -2.7237  0.9456
  352MOL0     H46425   1.173   7.229   6.149 -1.1218 -1.1290 -2.2479
  352MOL0     H46426   0.913   7.162   6.126 -2.3899  1.1920  0.3649
  352MOL0     H46427   0.698   7.055   6.101  0.3010 -1.8337 -0.4960
  352MOL0     H46428   0.333   6.997   6.008 -0.4145 -0.2355 -0.2989
  352MOL0     H46429   0.082   6.963   6.015  0.5152 -1.2432 -2.0817
  352MOL0     H46430  -0.091   6.786   6.367  0.6842  4.1495 -1.1324
  352MOL0     H46431  -0.104   6.636   6.271  3.0537  0.1848  0.1421
  352MOL0     H46432  -0.274   6.796   6.133  2.6330  1.8126 -0.5504
  352MOL0     H46433  -0.277   6.893   6.283 -2.9835 -1.0520  1.4397
  352MOL0     H46434  -0.332   6.690   6.418 -1.8620  4.1539  0.5023
  352MOL0     H46435  -0.359   6.598   6.260  0.6969 -0.3165  0.5117
  352MOL0     H46436  -0.510   6.843   6.372 -2.3276  0.8641 -1.6774
  352MOL0     H46437  -0.520   6.801   6.206  0.6747  0.1646  0.1708
  352MOL0     H46438  -0.609   6.619   6.427 -0.3605  2.9597  1.1794
  352MOL0     H46439  -0.580   6.561   6.254 -0.7623 -0.2917  1.8478
  352MOL0     H46440  -0.739   6.691   6.171  1.7533 -0.9252  0.5835
  352MOL0     H46441  -0.772   6.790   6.304 -2.5639 -0.2136 -0.0162
  352MOL0     H46442  -0.860   6.507   6.280 -0.5067  0.1749 -0.9943
  352MOL0     H46443  -0.838   6.571   6.444 -1.6992  0.7341  0.9274
  352MOL0     H46444  -1.008   6.704   6.238 -4.3254  1.0517  1.8748
  352MOL0     H46445  -0.971   6.751   6.408  0.2374  2.8754 -0.5093
  352MOL0     H46446   0.123   6.694   6.336 -1.8068  0.2937 -0.2878
  352MOL0     H46447   0.385   6.722   6.337  1.2194 -2.9380 -1.5887
  352MOL0     H46448   0.786   6.775   6.407 -0.0834  1.0258  1.2375
  352MOL0     H46449   1.006   6.877   6.439 -0.2631 -2.3295 -0.5287
  352MOL0     H46450   2.739   7.133   5.547  2.9528 -1.7699 -2.0636
  352MOL0     H46451   2.937   6.997   5.585 -1.0610 -2.8714 -2.1166
  352MOL0     H46452   3.196   6.839   5.885  0.2997 -0.1226  0.5592
  352MOL0     H46453   3.421   6.750   5.931  1.5692  1.5581 -3.7470
  352MOL0     H46454   3.690   6.474   5.938 -1.9340 -0.2784  3.5571
  352MOL0     H46455   3.600   6.626   5.972 -1.0450  0.4724 -0.7399
  352MOL0     H46456   3.571   6.642   5.708  1.0816  0.0200 -1.5225
  352MOL0     H46457   3.722   6.685   5.779  0.5569  0.5335  0.7035
  352MOL0     H46458   3.666   6.460   5.587 -1.5159  0.6617  1.1679
  352MOL0     H46459   3.717   6.399   5.725 -0.1507 -0.6440 -2.6383
  352MOL0     H46460   3.936   6.537   5.731  1.1887  3.9807 -1.3967
  352MOL0     H46461   3.925   6.427   5.597 -1.8070 -0.9901 -0.5333
  352MOL0     H46462   3.930   6.808   5.420  0.1588  1.3673  2.3658
  352MOL0     H46463   3.267   6.347   5.799 -0.3577 -0.2455  0.2124
  352MOL0     H46464   3.069   6.446   5.757  1.3663 -1.3399 -1.8345
  353MOL0     O46465   9.617   8.379   5.641 -0.2851  0.2516  0.9486
  353MOL0     C46466   9.648   8.496   5.625 -0.0699  0.2733  0.3599
  353MOL0     O46467   9.560   8.586   5.578  0.2636 -0.2942 -0.3975
  353MOL0     C46468   9.427   8.583   5.570  0.9814  0.5396  0.0779
  353MOL0     C46469   9.339   8.504   5.653  0.3588  0.5068 -0.7302
  353MOL0     C46470   9.198   8.517   5.653  1.0270 -0.3945 -0.2461
  353MOL0     C46471   9.140   8.616   5.571 -0.3937  0.6786  0.4505
  353MOL0     O46472   9.004   8.646   5.560  0.1166 -1.1433 -0.4017
  353MOL0     C46473   8.911   8.613   5.656  0.1459 -0.0422 -0.5287
  353MOL0     C46474   8.796   8.718   5.655  0.2524 -0.4779 -0.7135
  353MOL0     C46475   8.675   8.674   5.729  0.0997 -0.0769  0.5279
  353MOL0     C46476   8.687   8.620   5.875  0.0799 -0.0218  0.8470
  353MOL0     C46477   8.548   8.574   5.931 -0.2183 -0.2996  1.2200
  353MOL0     C46478   8.549   8.546   6.080 -0.2504 -0.3420  0.5322
  353MOL0     C46479   8.659   8.451   6.130  0.2936 -0.2112  0.2712
  353MOL0     C46480   8.642   8.309   6.066 -0.3664 -0.1907 -1.3350
  353MOL0     N46481   8.511   8.249   6.105  0.0436 -0.4232  0.4361
  353MOL0     C46482   8.402   8.252   6.025 -0.2719  0.8965  0.0774
  353MOL0     C46483   8.307   8.192   6.091 -0.0742 -0.5264 -0.7227
  353MOL0     C46484   8.152   8.193   6.064 -0.9985  0.1302  0.1635
  353MOL0     C46485   8.115   8.339   6.045  0.0890  0.3680  0.0818
  353MOL0     C46486   8.111   8.412   6.176  0.5676  0.8970 -0.0204
  353MOL0     C46487   8.079   8.561   6.155  0.8017 -1.0943 -0.8404
  353MOL0     O46488   7.936   8.586   6.176  0.8978 -1.3857  0.2425
  353MOL0     C46489   7.904   8.591   6.310  1.5977 -0.2743 -0.2272
  353MOL0     C46490   7.818   8.497   6.382  0.1442 -0.1391 -0.3909
  353MOL0     C46491   7.804   8.507   6.518  0.3576 -0.9955 -0.8506
  353MOL0     C46492   7.842   8.620   6.589  0.6606 -0.4860 -0.3330
  353MOL0     C46493   7.800   8.641   6.732  0.3733  0.4578  0.0971
  353MOL0     O46494   7.718   8.546   6.796 -0.1976 -0.0876  0.4579
  353MOL0     C46495   7.719   8.544   6.932 -0.3482 -0.2678  0.2532
  353MOL0     C46496   7.603   8.598   6.984  0.3004  0.5909 -0.6895
  353MOL0     C46497   7.596   8.603   7.124 -0.4690 -0.4546 -0.0028
  353MOL0     C46498   7.697   8.560   7.210 -1.1139 -0.3756 -0.9173
  353MOL0     O46499   7.668   8.591   7.345 -0.2416  0.2474  0.2250
  353MOL0     C46500   7.682   8.475   7.426 -0.4981 -0.5259 -0.2927
  353MOL0     C46501   7.558   8.382   7.414  0.5954 -0.4033  0.7790
  353MOL0     C46502   7.573   8.264   7.510 -0.3447  0.3513 -0.6901
  353MOL0     C46503   7.439   8.188   7.535  0.1613 -0.0132 -1.0490
  353MOL0     C46504   7.462   8.078   7.637  0.2606  0.1185 -1.3472
  353MOL0     C46505   7.337   7.987   7.670  0.4549 -0.5279  0.6065
  353MOL0     C46506   7.193   8.066   7.677  0.3769 -0.8669  0.5072
  353MOL0     C46507   7.084   7.969   7.716  1.1089  0.0718 -0.2282
  353MOL0    Cl46508   7.040   7.857   7.579  0.5752  0.3301  0.1612
  353MOL0     C46509   7.816   8.506   7.155  0.4288 -0.5994 -0.6082
  353MOL0     C46510   7.825   8.501   7.011 -0.3513 -0.1997 -0.2490
  353MOL0     O46511   7.849   8.739   6.789 -0.7264 -0.5448 -0.3528
  353MOL0     C46512   7.912   8.723   6.518 -0.2404  0.0370 -0.9248
  353MOL0     C46513   7.937   8.708   6.383  1.0890  0.3825  0.3956
  353MOL0     N46514   8.356   8.137   6.211  0.4877 -0.1901 -0.1477
  353MOL0     N46515   8.479   8.181   6.219  0.1312 -0.8313  0.6113
  353MOL0     C46516   9.222   8.693   5.490 -0.4481 -0.1620  0.5647
  353MOL0     C46517   9.366   8.680   5.493  0.7211  0.1609  0.8831
  353MOL0     C46518   9.793   8.527   5.616  0.6278 -0.3371  0.2861
  353MOL0     C46519   9.888   8.431   5.647  0.5829 -0.3221  0.7932
  353MOL0     C46520  10.024   8.464   5.660  0.6712 -0.5201 -0.4864
  353MOL0     C46521  10.077   8.588   5.630  0.2546 -0.0220 -0.6427
  353MOL0     O46522  10.214   8.615   5.652  0.0986 -0.3816  0.1884
  353MOL0     C46523  10.273   8.575   5.777  0.3770  0.5083 -0.8216
  353MOL0     C46524  10.363   8.681   5.841 -0.3029 -0.2202  0.3552
  353MOL0     C46525  10.499   8.714   5.764  0.3557  0.1623  0.7009
  353MOL0     C46526  10.610   8.598   5.751 -0.4601  0.0255  0.3638
  353MOL0     C46527  10.557   8.504   5.646 -0.2089  0.8899 -0.0316
  353MOL0     C46528  10.515   8.428   5.560  0.6398 -0.7374  0.2832
  353MOL0     C46529   9.978   8.686   5.584 -0.2705  0.0578 -0.8522
  353MOL0     C46530   9.842   8.650   5.575  0.5362 -0.2640  0.0183
  353MOL0     H46531   9.385   8.419   5.703  0.1697 -0.1402 -1.6205
  353MOL0     H46532   9.143   8.459   5.726  0.1016  0.3042 -0.3601
  353MOL0     H46533   8.952   8.619   5.757 -1.8282  1.0888  0.2706
  353MOL0     H46534   8.866   8.515   5.633  3.0022 -0.9344 -2.9116
  353MOL0     H46535   8.772   8.748   5.553 -1.5973  0.2214 -0.1079
  353MOL0     H46536   8.836   8.807   5.704 -3.0856  0.4242  0.6308
  353MOL0     H46537   8.629   8.596   5.667 -0.2894  0.2507  0.4038
  353MOL0     H46538   8.609   8.761   5.737 -3.3313 -2.5693  2.5890
  353MOL0     H46539   8.745   8.527   5.867  1.8392  1.1144 -0.3123
  353MOL0     H46540   8.741   8.691   5.938 -1.5293  1.6653  0.4105
  353MOL0     H46541   8.512   8.493   5.866 -1.1224  1.5913 -0.7296
  353MOL0     H46542   8.478   8.656   5.919 -0.2916 -0.6122 -0.9068
  353MOL0     H46543   8.459   8.501   6.123  0.4920 -0.9709  1.4620
  353MOL0     H46544   8.562   8.640   6.133 -2.4739 -0.4119  1.3328
  353MOL0     H46545   8.758   8.497   6.131  0.7453 -0.9592  3.7166
  353MOL0     H46546   8.641   8.425   6.235  1.0251 -3.3616 -0.2898
  353MOL0     H46547   8.724   8.255   6.114  1.7305  2.5925 -1.5237
  353MOL0     H46548   8.672   8.311   5.961  3.2552  0.5389 -0.4076
  353MOL0     H46549   8.396   8.310   5.934 -0.4419  0.6234 -0.0885
  353MOL0     H46550   8.096   8.149   6.147 -0.2529 -0.7042  0.2326
  353MOL0     H46551   8.140   8.141   5.968  1.1436  0.5007 -0.3462
  353MOL0     H46552   8.015   8.332   6.001  0.4814 -4.5169 -0.5659
  353MOL0     H46553   8.184   8.383   5.972 -1.8418  1.5536 -1.1185
  353MOL0     H46554   8.030   8.367   6.235 -0.7571  1.1953 -1.5503
  353MOL0     H46555   8.212   8.415   6.218  1.1174 -0.2538 -1.1917
  353MOL0     H46556   8.107   8.589   6.053  3.4726 -1.6711 -0.3338
  353MOL0     H46557   8.133   8.630   6.220 -1.6022  0.2843 -0.1800
  353MOL0     H46558   7.770   8.412   6.334 -1.2063  0.6649 -0.4922
  353MOL0     H46559   7.759   8.427   6.577  0.8695 -0.8517 -0.2453
  353MOL0     H46560   7.514   8.630   6.930 -1.6971 -0.2385  1.9159
  353MOL0     H46561   7.504   8.631   7.175  0.3561 -1.3719  2.1158
  353MOL0     H46562   7.686   8.503   7.531  0.6379 -0.2597 -0.3950
  353MOL0     H46563   7.773   8.419   7.403 -2.9990 -4.7277 -1.1672
  353MOL0     H46564   7.540   8.346   7.312 -1.9648  0.1373  0.9576
  353MOL0     H46565   7.469   8.442   7.436  1.9195  2.0234 -0.1179
  353MOL0     H46566   7.598   8.320   7.601  0.5464  0.9700 -1.3026
  353MOL0     H46567   7.656   8.204   7.471  0.9281 -0.3317  2.7443
  353MOL0     H46568   7.356   8.256   7.555  0.2809  0.3814 -1.8543
  353MOL0     H46569   7.416   8.149   7.435 -1.1239  0.6219 -1.0240
  353MOL0     H46570   7.484   8.136   7.727 -2.8487  1.2405 -1.1972
  353MOL0     H46571   7.552   8.016   7.632 -0.3365 -1.3431  2.5990
  353MOL0     H46572   7.351   7.944   7.769 -0.4423  2.7955  2.3510
  353MOL0     H46573   7.327   7.910   7.593  1.2683 -3.6069  3.3581
  353MOL0     H46574   7.210   8.145   7.751  3.1123 -0.7145 -0.1756
  353MOL0     H46575   7.162   8.103   7.579  2.7784 -2.8256 -1.1214
  353MOL0     H46576   6.993   8.022   7.745  1.8004 -0.2630  2.9267
  353MOL0     H46577   7.117   7.926   7.812  1.7793  2.3115  0.6192
  353MOL0     H46578   7.904   8.483   7.213  0.2278  0.1991  0.0393
  353MOL0     H46579   7.908   8.458   6.956  0.5229 -1.7233  2.1267
  353MOL0     H46580   7.949   8.817   6.560  1.2860 -1.1241  0.4806
  353MOL0     H46581   7.990   8.781   6.323  2.7132  0.5121  1.9004
  353MOL0     H46582   9.174   8.756   5.415  0.0832  0.0490  0.3977
  353MOL0     H46583   9.431   8.748   5.439  1.5178 -1.3569 -0.1362
  353MOL0     H46584   9.847   8.332   5.662 -0.6828  0.2589  1.3293
  353MOL0     H46585  10.086   8.380   5.690 -0.9024 -2.0302 -1.2161
  353MOL0     H46586  10.331   8.484   5.763  0.0334 -0.0360  1.0219
  353MOL0     H46587  10.192   8.557   5.849 -0.0016 -0.9033 -1.5750
  353MOL0     H46588  10.300   8.770   5.846 -0.1582  0.0916 -2.1389
  353MOL0     H46589  10.396   8.646   5.939  3.5726  0.2573 -0.6300
  353MOL0     H46590  10.548   8.797   5.817  0.6220 -0.2342  1.0879
  353MOL0     H46591  10.477   8.745   5.661 -0.0507 -3.0444 -0.2922
  353MOL0     H46592  10.704   8.641   5.715  0.0488 -0.8069  0.6916
  353MOL0     H46593  10.627   8.551   5.848 -0.5023  1.5212  1.1383
  353MOL0     H46594  10.490   8.367   5.476 -1.3466  1.2476 -0.6746
  353MOL0     H46595  10.012   8.787   5.567 -3.4919  1.8819  2.2857
  353MOL0     H46596   9.773   8.729   5.547 -0.9540 -0.5979  2.5257
  354MOL0     O46597   2.233   7.690   6.178 -0.0560  0.6780  0.0697
  354MOL0     C46598   2.336   7.706   6.243  0.6286 -0.4675  0.2374
  354MOL0     O46599   2.371   7.644   6.360  0.1728 -0.0542  0.1740
  354MOL0     C46600   2.289   7.561   6.431 -0.1874  0.6602 -0.0029
  354MOL0     C46601   2.209   7.457   6.368 -0.4296 -0.1913  0.1700
  354MOL0     C46602   2.114   7.395   6.443  0.0864  0.4522  0.0363
  354MOL0     C46603   2.110   7.416   6.579  0.2416  0.3226  0.2138
  354MOL0     O46604   2.025   7.350   6.661 -0.0324 -0.4302  0.2445
  354MOL0     C46605   1.891   7.380   6.630  0.7363  1.3165  0.2468
  354MOL0     C46606   1.819   7.427   6.753 -0.6224 -1.4440  0.7526
  354MOL0     C46607   1.674   7.449   6.743  0.4031  0.2743  0.5947
  354MOL0     C46608   1.596   7.321   6.718 -0.4345 -0.5598 -0.2477
  354MOL0     C46609   1.445   7.344   6.738 -0.9315 -0.3044  0.1517
  354MOL0     C46610   1.390   7.481   6.694 -1.3957 -0.1878 -0.3005
  354MOL0     C46611   1.239   7.479   6.720 -0.3919  0.1744  0.0701
  354MOL0     C46612   1.168   7.604   6.686 -0.2098 -1.3052  0.1040
  354MOL0     N46613   1.033   7.586   6.722  0.4679  1.0863  0.2205
  354MOL0     C46614   0.976   7.524   6.836  0.0217 -1.1333 -0.8880
  354MOL0     C46615   0.842   7.510   6.811 -0.0826 -0.4083  0.0498
  354MOL0     C46616   0.746   7.452   6.910 -0.0353 -0.5675 -0.8253
  354MOL0     C46617   0.730   7.549   7.027 -0.2291 -0.3976 -0.2537
  354MOL0     C46618   0.631   7.499   7.131  0.6442  0.1404  0.5950
  354MOL0     C46619   0.482   7.525   7.095 -0.0475 -1.2923 -0.4057
  354MOL0     O46620   0.410   7.419   7.160  0.1379  0.0397 -0.0177
  354MOL0     C46621   0.283   7.390   7.126  0.1260 -0.0066  0.1344
  354MOL0     C46622   0.226   7.282   7.185  0.1387 -0.3123 -0.2927
  354MOL0     C46623   0.099   7.227   7.152  0.5753 -0.6099  0.1778
  354MOL0     C46624   0.033   7.282   7.042 -0.1562  0.5023 -0.7339
  354MOL0     C46625  -0.099   7.233   7.001 -0.6820 -0.1969 -0.4691
  354MOL0     O46626  -0.148   7.127   7.075 -0.0819 -0.5597  0.9145
  354MOL0     C46627  -0.280   7.098   7.062 -0.3928  0.1576  0.4961
  354MOL0     C46628  -0.362   7.106   7.167  0.4232 -0.0565 -0.3360
  354MOL0     C46629  -0.505   7.095   7.154  0.5564 -0.5777  0.5704
  354MOL0     C46630  -0.557   7.062   7.026 -0.4382 -0.3715 -0.4766
  354MOL0     O46631  -0.687   7.043   7.000  0.3357  0.4614  0.4607
  354MOL0     C46632  -0.776   7.044   7.113 -0.4481 -0.0007 -0.7424
  354MOL0     C46633  -0.898   6.994   7.043 -1.0539 -0.1620  0.6953
  354MOL0     C46634  -1.031   6.998   7.120 -0.1572  0.1082 -0.3131
  354MOL0     C46635  -1.141   6.964   7.024  0.4835  0.1303 -0.0076
  354MOL0     C46636  -1.282   6.988   7.077 -0.0049 -1.0258 -0.2638
  354MOL0     C46637  -1.378   6.866   7.053  0.3047 -0.0365  0.0350
  354MOL0     C46638  -1.509   6.909   7.112 -0.5923 -0.4492  0.6602
  354MOL0     C46639  -1.612   6.811   7.067 -0.6725 -0.2585  0.7628
  354MOL0    Cl46640  -1.775   6.873   7.139 -0.4086  0.0779  0.2769
  354MOL0     C46641  -0.471   7.055   6.917  1.2234 -0.7249 -0.2388
  354MOL0     C46642  -0.338   7.072   6.936 -0.6520  0.9249 -0.7500
  354MOL0     O46643  -0.164   7.299   6.923 -0.1691  0.3917 -0.0363
  354MOL0     C46644   0.090   7.387   6.979 -0.1230  0.5644  0.2020
  354MOL0     C46645   0.208   7.441   7.022 -0.5841  0.4750 -0.3568
  354MOL0     N46646   0.823   7.554   6.683 -0.6015 -0.1823  1.0892
  354MOL0     N46647   0.933   7.604   6.634  0.4784  0.2678  0.4074
  354MOL0     C46648   2.205   7.510   6.632 -0.2769  0.4793  0.4531
  354MOL0     C46649   2.292   7.590   6.561 -0.5161  0.3451  0.0117
  354MOL0     C46650   2.435   7.804   6.188 -0.3903  0.0485 -0.1579
  354MOL0     C46651   2.549   7.846   6.263  0.7028 -0.4151  0.7288
  354MOL0     C46652   2.641   7.937   6.213  0.0436  0.1713  0.2344
  354MOL0     C46653   2.623   7.984   6.079 -0.3442  0.1593  0.3400
  354MOL0     O46654   2.727   8.064   6.048 -0.3358  0.8730  0.3155
  354MOL0     C46655   2.721   8.114   5.915  0.4400  0.0797 -0.0358
  354MOL0     C46656   2.811   8.233   5.880  0.3316  0.2725 -0.1185
  354MOL0     C46657   2.752   8.368   5.921  0.2748  0.3335  0.3970
  354MOL0     C46658   2.647   8.415   5.820 -0.1683  0.2868  0.4091
  354MOL0     C46659   2.716   8.479   5.702 -0.0553  0.8615  1.1624
  354MOL0     C46660   2.782   8.500   5.601  0.0629 -0.0560  0.5786
  354MOL0     C46661   2.503   7.952   6.001  0.3362 -0.1536  0.4136
  354MOL0     C46662   2.432   7.842   6.054  0.0070  0.6778  0.3215
  354MOL0     H46663   2.219   7.432   6.263  1.0310 -1.1458  0.5017
  354MOL0     H46664   2.040   7.324   6.409  0.3358  0.1747  0.0761
  354MOL0     H46665   1.850   7.283   6.599  1.4912  0.5402  1.5453
  354MOL0     H46666   1.876   7.451   6.549 -1.2309 -1.8374 -2.4249
  354MOL0     H46667   1.872   7.520   6.778 -0.9939 -1.0462  0.0937
  354MOL0     H46668   1.830   7.354   6.834  4.4134 -1.2139  0.6118
  354MOL0     H46669   1.661   7.517   6.659 -0.5900  2.1683  2.1895
  354MOL0     H46670   1.641   7.502   6.833 -0.8096  2.9211 -1.2694
  354MOL0     H46671   1.624   7.291   6.616  3.8712  0.4608  0.4666
  354MOL0     H46672   1.614   7.242   6.790  0.2374 -1.0402 -0.9294
  354MOL0     H46673   1.430   7.340   6.846  2.8340  2.0761  0.9693
  354MOL0     H46674   1.394   7.255   6.700  0.0625 -0.2775 -1.3215
  354MOL0     H46675   1.418   7.503   6.591 -0.7273  1.2235  0.1497
  354MOL0     H46676   1.434   7.558   6.758  2.5044 -1.1140 -1.5864
  354MOL0     H46677   1.192   7.399   6.662 -1.1413  1.9683 -1.9407
  354MOL0     H46678   1.233   7.464   6.828  0.9683  2.1697  0.4736
  354MOL0     H46679   1.185   7.620   6.580  1.9547 -2.2732  0.2406
  354MOL0     H46680   1.204   7.695   6.734 -1.3109 -0.2901 -0.9382
  354MOL0     H46681   1.029   7.492   6.926 -0.9071  0.2646  0.1992
  354MOL0     H46682   0.776   7.351   6.940  0.8841 -0.4578 -1.3577
  354MOL0     H46683   0.646   7.441   6.866 -1.4023  0.1800  1.8511
  354MOL0     H46684   0.699   7.649   6.995  1.0464  0.3000  0.6105
  354MOL0     H46685   0.832   7.552   7.066  0.1591  0.1528 -1.2844
  354MOL0     H46686   0.622   7.390   7.142 -0.4434  0.0597 -0.8941
  354MOL0     H46687   0.655   7.542   7.229 -1.1117 -0.6891  1.4309
  354MOL0     H46688   0.467   7.521   6.987 -0.5102  2.0135 -0.5519
  354MOL0     H46689   0.457   7.624   7.132  3.7788  0.6979 -2.5367
  354MOL0     H46690   0.288   7.235   7.261  2.1476  2.5749  0.0461
  354MOL0     H46691   0.053   7.143   7.204 -2.7879  1.3826  0.7371
  354MOL0     H46692  -0.309   7.116   7.262  3.2877 -3.2432 -1.3986
  354MOL0     H46693  -0.573   7.105   7.238 -0.3802  1.0976 -0.3321
  354MOL0     H46694  -0.783   7.146   7.152  1.1144 -0.4833  0.9630
  354MOL0     H46695  -0.758   6.975   7.196  0.4095  0.0727 -0.8546
  354MOL0     H46696  -0.882   6.889   7.016  2.1206  0.3836  0.1249
  354MOL0     H46697  -0.920   7.061   6.959  0.3480  1.0193  1.2327
  354MOL0     H46698  -1.047   7.097   7.162  1.5436 -0.4344  1.7872
  354MOL0     H46699  -1.033   6.923   7.200 -3.2715  2.3019  1.8842
  354MOL0     H46700  -1.127   7.011   6.926 -1.5921 -1.5029 -1.1577
  354MOL0     H46701  -1.136   6.858   6.997 -4.0187 -0.2549 -0.1299
  354MOL0     H46702  -1.327   7.073   7.024 -1.5657 -1.5801  0.0958
  354MOL0     H46703  -1.279   7.017   7.183 -0.7356  0.3554 -0.5853
  354MOL0     H46704  -1.335   6.780   7.104  3.4933  0.4852 -1.5064
  354MOL0     H46705  -1.386   6.847   6.945 -1.8212 -1.0960  0.3279
  354MOL0     H46706  -1.506   6.925   7.220  0.0736 -1.8270  0.8688
  354MOL0     H46707  -1.522   7.010   7.073 -0.2200 -0.9280 -0.7986
  354MOL0     H46708  -1.581   6.712   7.100  2.1993 -0.2282 -1.4631
  354MOL0     H46709  -1.620   6.813   6.958 -2.5305 -0.4387  0.8568
  354MOL0     H46710  -0.506   7.035   6.816 -1.1768 -2.5698  0.8860
  354MOL0     H46711  -0.273   7.061   6.851 -0.0791 -0.3133 -0.1767
  354MOL0     H46712   0.040   7.430   6.892  0.6917 -1.9258 -1.6091
  354MOL0     H46713   0.241   7.536   6.981 -2.4690  0.6451 -1.5951
  354MOL0     H46714   2.206   7.532   6.738  2.0912  0.7207  0.4284
  354MOL0     H46715   2.356   7.664   6.608 -1.9427  1.9394 -0.4450
  354MOL0     H46716   2.547   7.806   6.364 -0.1108 -1.3178  0.3733
  354MOL0     H46717   2.726   7.967   6.273 -0.0592 -3.0328  2.2345
  354MOL0     H46718   2.620   8.145   5.884  0.7919  0.6684 -0.6184
  354MOL0     H46719   2.748   8.035   5.844  0.9807  0.3706 -0.1579
  354MOL0     H46720   2.905   8.220   5.935 -0.2734 -1.2119  0.6184
  354MOL0     H46721   2.829   8.226   5.772  1.1828 -2.1546  0.1238
  354MOL0     H46722   2.832   8.442   5.938  1.0052 -0.2036 -0.5716
  354MOL0     H46723   2.698   8.354   6.015 -0.9245 -0.7002 -0.4136
  354MOL0     H46724   2.586   8.335   5.776 -0.5975  0.0291  1.4330
  354MOL0     H46725   2.574   8.480   5.870 -2.8824 -0.5291 -2.1862
  354MOL0     H46726   2.835   8.524   5.511  0.4927  0.6249  1.0082
  354MOL0     H46727   2.477   7.986   5.902 -1.5798  0.1239  0.9762
  354MOL0     H46728   2.347   7.811   5.994  0.5489  1.8071 -1.0706
  355MOL0     O46729   1.835   5.383   0.416  0.0705 -0.2156  0.0432
  355MOL0     C46730   1.890   5.495   0.432 -0.3873  0.6889  0.0758
  355MOL0     O46731   1.829   5.613   0.486  0.7925  0.2095  0.1946
  355MOL0     C46732   1.696   5.625   0.538  0.1040  0.2678 -0.8169
  355MOL0     C46733   1.585   5.599   0.467  0.3926  0.3573 -0.0002
  355MOL0     C46734   1.453   5.621   0.509  0.8352 -0.4563  0.1652
  355MOL0     C46735   1.441   5.647   0.649  0.7760 -0.0432 -0.1112
  355MOL0     O46736   1.320   5.666   0.705  0.4470 -0.1758 -0.0452
  355MOL0     C46737   1.214   5.578   0.690  0.0810  0.2261 -0.3327
  355MOL0     C46738   1.108   5.598   0.801 -0.7339 -0.4767 -0.7018
  355MOL0     C46739   1.039   5.732   0.784 -0.4063  1.0377  0.0212
  355MOL0     C46740   0.930   5.762   0.881  0.2337 -0.5515 -0.9401
  355MOL0     C46741   0.796   5.703   0.852 -0.4784 -0.2656  0.9201
  355MOL0     C46742   0.690   5.761   0.950 -0.3192  0.5446  0.2067
  355MOL0     C46743   0.543   5.744   0.906 -0.3083 -0.1946  0.4693
  355MOL0     C46744   0.450   5.814   1.005  0.1576 -0.2075 -0.9297
  355MOL0     N46745   0.305   5.804   0.976  1.0511 -0.4823 -0.1806
  355MOL0     C46746   0.204   5.861   1.053 -0.3327 -0.1476  0.3255
  355MOL0     C46747   0.086   5.790   1.021 -0.6559  0.0790  0.3004
  355MOL0     C46748  -0.050   5.809   1.075  0.4484  0.0142  0.0118
  355MOL0     C46749  -0.159   5.743   0.967  0.3885 -0.3517 -0.1388
  355MOL0     C46750  -0.300   5.756   1.027  0.3660 -1.4915 -0.5299
  355MOL0     C46751  -0.392   5.638   0.983  0.2811 -0.5967  0.5196
  355MOL0     O46752  -0.531   5.651   0.991 -0.4049  0.8824  0.0238
  355MOL0     C46753  -0.615   5.552   0.934  0.2429 -1.0096 -0.2677
  355MOL0     C46754  -0.577   5.446   0.856  0.6006 -0.2259  0.8328
  355MOL0     C46755  -0.670   5.363   0.793 -0.9692 -0.3649  0.7754
  355MOL0     C46756  -0.806   5.376   0.816 -0.2563 -0.2548 -0.8532
  355MOL0     C46757  -0.901   5.275   0.772  0.2768  0.8009 -0.0147
  355MOL0     O46758  -1.035   5.299   0.792 -0.3480 -0.4762  0.2711
  355MOL0     C46759  -1.130   5.231   0.731 -0.1665 -0.2637  0.4387
  355MOL0     C46760  -1.142   5.229   0.587 -1.1194 -0.3329 -0.1105
  355MOL0     C46761  -1.253   5.172   0.533 -0.5358  0.1978 -0.1295
  355MOL0     C46762  -1.348   5.100   0.604  0.2049 -0.2334 -1.2722
  355MOL0     O46763  -1.453   5.041   0.540 -0.3805 -0.4702  1.1634
  355MOL0     C46764  -1.581   5.043   0.610 -0.8381 -0.3849 -0.8117
  355MOL0     C46765  -1.677   5.006   0.503  0.7710  0.3628  0.3963
  355MOL0     C46766  -1.820   5.020   0.539 -0.1035 -0.4319 -0.5261
  355MOL0     C46767  -1.924   5.006   0.424 -0.3276 -0.0095  0.5741
  355MOL0     C46768  -2.070   5.010   0.465 -0.1504 -0.3880  0.0531
  355MOL0     C46769  -2.146   4.966   0.339  0.6969  0.1261  0.1730
  355MOL0     C46770  -2.297   4.970   0.373  0.4096 -0.7507  0.1978
  355MOL0     C46771  -2.385   4.930   0.256  0.2725  0.5458  0.5292
  355MOL0    Cl46772  -2.400   5.053   0.127  0.0710  0.0153 -0.2787
  355MOL0     C46773  -1.339   5.113   0.741  0.3353 -0.1960 -0.1840
  355MOL0     C46774  -1.234   5.170   0.806 -1.0467 -0.2782 -0.5542
  355MOL0     O46775  -0.852   5.178   0.716 -0.7475  0.2569  0.9457
  355MOL0     C46776  -0.842   5.492   0.886  0.4474 -0.7537 -0.7374
  355MOL0     C46777  -0.752   5.582   0.942 -0.6205  0.6736 -0.3149
  355MOL0     N46778   0.133   5.679   0.940  1.1851 -0.1977 -0.4907
  355MOL0     N46779   0.256   5.693   0.916 -0.0517  0.2202  0.8470
  355MOL0     C46780   1.558   5.667   0.725  1.2695  0.0437 -0.5075
  355MOL0     C46781   1.686   5.662   0.671  0.4685  1.2999  0.2735
  355MOL0     C46782   2.033   5.506   0.385 -0.3218 -0.3787 -1.3885
  355MOL0     C46783   2.128   5.397   0.393 -0.5254 -1.1106 -0.1159
  355MOL0     C46784   2.261   5.411   0.338  0.0535 -0.0883  0.1830
  355MOL0     C46785   2.294   5.528   0.270  0.3820 -0.3143 -0.4380
  355MOL0     O46786   2.420   5.536   0.227  0.8350  0.1250  0.4359
  355MOL0     C46787   2.467   5.635   0.132 -0.1350  0.1545 -0.6465
  355MOL0     C46788   2.610   5.592   0.075  0.5568  0.0214 -0.8026
  355MOL0     C46789   2.672   5.707  -0.011  0.7423  0.8977 -0.8322
  355MOL0     C46790   2.804   5.655  -0.065 -0.2240 -0.4369  0.2581
  355MOL0     C46791   2.844   5.717  -0.197  0.1316 -0.0025  0.8203
  355MOL0     C46792   2.877   5.753  -0.305 -0.1741  0.0023  0.1391
  355MOL0     C46793   2.198   5.627   0.259 -0.1602 -0.4655 -0.0307
  355MOL0     C46794   2.066   5.621   0.309  0.5628  0.2558 -0.3982
  355MOL0     H46795   1.609   5.572   0.365 -0.2449 -2.7427  0.5769
  355MOL0     H46796   1.378   5.591   0.437  1.6039 -1.0492 -0.4207
  355MOL0     H46797   1.256   5.477   0.685  1.5686  0.8625 -4.5730
  355MOL0     H46798   1.175   5.590   0.588 -0.5744 -0.9553 -0.2444
  355MOL0     H46799   1.160   5.596   0.897 -0.4767  3.1825 -0.6337
  355MOL0     H46800   1.036   5.517   0.792  0.9243 -1.9530 -1.3306
  355MOL0     H46801   0.997   5.743   0.684 -0.0835  0.4515 -0.1813
  355MOL0     H46802   1.114   5.809   0.808  0.8522  0.7606 -2.6435
  355MOL0     H46803   0.963   5.717   0.976 -0.0638  1.8413  0.3774
  355MOL0     H46804   0.920   5.869   0.900 -2.3573 -0.7126 -1.1214
  355MOL0     H46805   0.807   5.595   0.850  2.9961 -0.0301 -1.4970
  355MOL0     H46806   0.755   5.737   0.757 -0.3955 -0.2210  0.9001
  355MOL0     H46807   0.706   5.869   0.963  1.7969  0.3075 -0.0335
  355MOL0     H46808   0.700   5.708   1.045 -5.3304  0.3112  0.8496
  355MOL0     H46809   0.526   5.781   0.805 -0.4415  0.8914  0.8664
  355MOL0     H46810   0.519   5.638   0.903 -1.6082  0.0786  0.3760
  355MOL0     H46811   0.478   5.920   1.007  0.4372 -0.2855 -0.7595
  355MOL0     H46812   0.464   5.769   1.103  4.3007  2.8383  0.1739
  355MOL0     H46813   0.209   5.953   1.111 -1.5062  0.9240 -1.2107
  355MOL0     H46814  -0.067   5.914   1.100 -0.6988 -0.4230  1.2476
  355MOL0     H46815  -0.045   5.753   1.169  3.7249 -0.2600 -0.2289
  355MOL0     H46816  -0.134   5.638   0.952 -0.1217 -0.3695 -0.9206
  355MOL0     H46817  -0.155   5.784   0.865 -2.6783  1.7644  0.4453
  355MOL0     H46818  -0.299   5.760   1.137  0.0642 -0.8935 -0.5421
  355MOL0     H46819  -0.349   5.849   0.995  1.3582 -2.0444 -4.0142
  355MOL0     H46820  -0.362   5.551   1.043 -0.4373 -0.6609  0.7901
  355MOL0     H46821  -0.361   5.607   0.883  0.0160  0.8219 -0.0234
  355MOL0     H46822  -0.473   5.416   0.858  0.3665 -1.1884 -0.1175
  355MOL0     H46823  -0.621   5.292   0.727 -2.1405  0.0487 -0.5867
  355MOL0     H46824  -1.074   5.263   0.510  2.0995  0.1740  2.6971
  355MOL0     H46825  -1.266   5.187   0.426 -2.7400  0.7764  0.1651
  355MOL0     H46826  -1.598   5.142   0.653 -1.4951 -2.5917  5.0239
  355MOL0     H46827  -1.585   4.980   0.699  1.4678  1.0265  0.3783
  355MOL0     H46828  -1.651   4.900   0.493  3.7275  0.8669  1.6082
  355MOL0     H46829  -1.668   5.054   0.406 -3.2113  1.1464  0.2462
  355MOL0     H46830  -1.834   5.118   0.585  0.5721 -2.4670  4.6385
  355MOL0     H46831  -1.851   4.950   0.617 -3.0696  1.3050 -0.0119
  355MOL0     H46832  -1.904   5.089   0.355 -0.0473 -0.8224 -0.3446
  355MOL0     H46833  -1.900   4.910   0.377 -0.6333 -0.4289  1.2699
  355MOL0     H46834  -2.088   5.116   0.483  0.2720 -0.1944 -0.6159
  355MOL0     H46835  -2.099   4.954   0.554  1.0746  0.6635  1.1664
  355MOL0     H46836  -2.126   4.860   0.323 -2.1110 -0.4349 -0.0352
  355MOL0     H46837  -2.118   5.037   0.260 -1.4722  2.9649  1.7387
  355MOL0     H46838  -2.326   4.896   0.448 -1.3355 -1.4542 -1.1084
  355MOL0     H46839  -2.331   5.069   0.404  0.2427 -1.2730  1.7525
  355MOL0     H46840  -2.486   4.927   0.298 -0.5549  1.9555 -1.2184
  355MOL0     H46841  -2.365   4.834   0.209 -2.2301  0.4908 -0.5480
  355MOL0     H46842  -1.417   5.065   0.799  0.4562  2.3107  2.2671
  355MOL0     H46843  -1.218   5.169   0.913 -2.5060 -2.4838 -0.3023
  355MOL0     H46844  -0.943   5.532   0.887 -0.4376 -2.8112 -1.8606
  355MOL0     H46845  -0.779   5.678   0.986 -3.3624  0.4422 -1.2634
  355MOL0     H46846   1.555   5.704   0.827  0.2862  1.7478 -1.1014
  355MOL0     H46847   1.777   5.698   0.719 -0.7534  2.2794  1.9886
  355MOL0     H46848   2.097   5.305   0.442 -0.9951 -2.3797 -2.6261
  355MOL0     H46849   2.336   5.333   0.348  0.8281  0.3730 -1.5931
  355MOL0     H46850   2.476   5.740   0.160 -2.4485  1.1395 -3.1380
  355MOL0     H46851   2.407   5.642   0.041  3.4869 -1.0743 -3.3952
  355MOL0     H46852   2.680   5.561   0.154 -1.0275  0.9802  1.0761
  355MOL0     H46853   2.587   5.501   0.019 -0.2337 -1.0730  1.1713
  355MOL0     H46854   2.690   5.803   0.039 -0.6022  0.0126  1.5292
  355MOL0     H46855   2.607   5.716  -0.098 -1.8142 -1.7592  0.6286
  355MOL0     H46856   2.873   5.681   0.016  0.7130  1.3035 -1.0001
  355MOL0     H46857   2.796   5.548  -0.082  1.6772 -0.2238 -2.8386
  355MOL0     H46858   2.906   5.804  -0.394 -0.5993  0.5114  0.2852
  355MOL0     H46859   2.227   5.724   0.219  0.8221 -0.2429  1.1636
  355MOL0     H46860   2.009   5.711   0.291 -3.1602 -1.9026 -0.4259
  356MOL0     O46861   7.679   8.853   0.623  0.3103 -0.4197 -0.5670
  356MOL0     C46862   7.714   8.860   0.508 -0.2897  0.5301 -0.4203
  356MOL0     O46863   7.634   8.849   0.397 -0.8741  0.6774 -0.5018
  356MOL0     C46864   7.503   8.824   0.427 -0.7601  0.7445 -0.1087
  356MOL0     C46865   7.466   8.705   0.493  1.0952  0.3701 -0.1711
  356MOL0     C46866   7.329   8.678   0.519  0.2409 -0.2826  0.1407
  356MOL0     C46867   7.236   8.787   0.504 -1.2997  0.9533 -0.2940
  356MOL0     O46868   7.106   8.780   0.542 -0.1945 -0.4883  0.2364
  356MOL0     C46869   7.043   8.653   0.528  0.2437 -0.3071 -0.2702
  356MOL0     C46870   6.893   8.643   0.562  0.3032 -0.5828  0.1961
  356MOL0     C46871   6.797   8.731   0.478 -0.8268  0.5264 -0.0295
  356MOL0     C46872   6.657   8.670   0.488 -0.7897 -0.2116  0.2313
  356MOL0     C46873   6.545   8.754   0.434  0.0212  0.2226 -0.5512
  356MOL0     C46874   6.416   8.660   0.446 -0.1297 -0.6005  0.1510
  356MOL0     C46875   6.278   8.721   0.415  0.6136 -0.4519  0.8245
  356MOL0     C46876   6.249   8.850   0.496 -0.5787  1.1734 -0.7620
  356MOL0     N46877   6.242   8.827   0.641 -0.4566 -0.1720  0.4489
  356MOL0     C46878   6.228   8.708   0.707  0.2927  0.2996 -0.5065
  356MOL0     C46879   6.241   8.735   0.831  0.3327  0.0130 -0.8795
  356MOL0     C46880   6.238   8.632   0.937 -0.6778 -0.3390  0.5403
  356MOL0     C46881   6.177   8.676   1.068  0.1570 -0.3886 -0.1812
  356MOL0     C46882   6.175   8.561   1.171 -0.1036 -0.5520 -0.4592
  356MOL0     C46883   6.043   8.561   1.254  0.6239 -0.1636 -0.5231
  356MOL0     O46884   6.061   8.498   1.382 -0.1798  0.8796 -0.5691
  356MOL0     C46885   5.957   8.517   1.472 -1.0206  0.2429 -0.7691
  356MOL0     C46886   5.836   8.582   1.439  0.2400 -0.0284  0.1839
  356MOL0     C46887   5.737   8.592   1.528 -0.2686 -0.0944 -0.7721
  356MOL0     C46888   5.747   8.542   1.661 -0.1361  0.1870 -0.0722
  356MOL0     C46889   5.646   8.573   1.762 -1.0613  0.5063  0.3732
  356MOL0     O46890   5.573   8.685   1.746  0.0909 -0.5177 -0.0353
  356MOL0     C46891   5.449   8.701   1.812 -0.0079  0.2699 -0.0394
  356MOL0     C46892   5.338   8.742   1.746 -1.1657  1.0789  0.7050
  356MOL0     C46893   5.214   8.759   1.817  0.3408 -0.1554 -0.6589
  356MOL0     C46894   5.205   8.748   1.955 -0.0707 -0.0293 -0.8229
  356MOL0     O46895   5.087   8.761   2.031 -0.2861 -0.4768 -0.1114
  356MOL0     C46896   4.964   8.798   1.980 -0.3906 -1.0437  0.9843
  356MOL0     C46897   4.845   8.808   2.074 -0.5676 -1.9159 -0.1160
  356MOL0     C46898   4.716   8.881   2.007 -0.4624  0.1801 -0.7974
  356MOL0     C46899   4.586   8.849   2.084 -0.0036  0.0557 -0.4330
  356MOL0     C46900   4.542   8.703   2.063  0.1768  0.2171  0.4754
  356MOL0     C46901   4.436   8.674   2.172 -0.3564 -0.0181 -0.9540
  356MOL0     C46902   4.384   8.526   2.183 -0.4586  0.1207  0.4862
  356MOL0     C46903   4.226   8.523   2.199  0.7348 -0.2313 -0.8187
  356MOL0    Cl46904   4.159   8.612   2.358 -0.3361 -0.0353 -0.1636
  356MOL0     C46905   5.324   8.720   2.024  0.0046 -1.4401 -0.1637
  356MOL0     C46906   5.435   8.681   1.949 -0.3576 -0.2740  0.1146
  356MOL0     O46907   5.658   8.508   1.867 -0.6557  0.5298 -0.2600
  356MOL0     C46908   5.875   8.476   1.690  0.4250 -0.3433 -0.0678
  356MOL0     C46909   5.976   8.472   1.596  0.3188  1.1006 -0.5784
  356MOL0     N46910   6.246   8.875   0.854  0.0324  0.2201  0.8901
  356MOL0     N46911   6.252   8.919   0.733  0.4559 -0.1408  0.1142
  356MOL0     C46912   7.267   8.903   0.445 -0.3242 -0.4257  0.2806
  356MOL0     C46913   7.397   8.910   0.396 -0.4739  0.3344  0.1380
  356MOL0     C46914   7.862   8.850   0.480  0.3915 -0.5461  0.1135
  356MOL0     C46915   7.955   8.850   0.584  0.1866  0.0526  0.6474
  356MOL0     C46916   8.086   8.838   0.559  0.0969  0.7986 -0.1634
  356MOL0     C46917   8.139   8.827   0.430 -0.3498  1.2865  0.7639
  356MOL0     O46918   8.274   8.834   0.417  0.6358  0.3573  0.5693
  356MOL0     C46919   8.326   8.827   0.287  0.0009  0.1412 -0.4104
  356MOL0     C46920   8.321   8.956   0.213 -0.3501  0.1792 -0.0404
  356MOL0     C46921   8.411   9.071   0.272  0.0495 -0.2435  0.9521
  356MOL0     C46922   8.399   9.206   0.198 -0.5571 -0.1833 -0.4293
  356MOL0     C46923   8.464   9.203   0.075 -0.2527 -0.0218  0.8640
  356MOL0     C46924   8.540   9.196  -0.021 -0.0696  0.1643  0.6534
  356MOL0     C46925   8.044   8.813   0.321 -1.0497  0.6966  0.5403
  356MOL0     C46926   7.910   8.837   0.353 -1.3322 -0.0320  0.1926
  356MOL0     H46927   7.536   8.632   0.532  0.4121 -0.3114 -0.1846
  356MOL0     H46928   7.294   8.595   0.580 -3.6313  0.1461 -1.2080
  356MOL0     H46929   7.102   8.578   0.581  0.0526 -0.6298 -0.5076
  356MOL0     H46930   7.048   8.629   0.421  1.8772  4.1207 -1.3715
  356MOL0     H46931   6.892   8.677   0.666  2.5947 -0.3392  0.1865
  356MOL0     H46932   6.869   8.538   0.540  1.7868 -0.7177 -0.9108
  356MOL0     H46933   6.837   8.742   0.376  3.5036  2.1603  1.6267
  356MOL0     H46934   6.798   8.833   0.518 -1.2473  0.7020 -0.4390
  356MOL0     H46935   6.658   8.579   0.429  0.6330 -0.7640  1.0592
  356MOL0     H46936   6.641   8.656   0.595 -2.6314  2.3293  0.3944
  356MOL0     H46937   6.561   8.798   0.335  2.4238  0.1561 -0.2356
  356MOL0     H46938   6.532   8.836   0.505 -0.0711 -1.1485  1.0633
  356MOL0     H46939   6.411   8.607   0.541  5.0438  0.2950  1.2104
  356MOL0     H46940   6.428   8.587   0.366  2.2051  0.7086 -0.7824
  356MOL0     H46941   6.277   8.744   0.308  0.5522  1.7264  1.2441
  356MOL0     H46942   6.193   8.652   0.422 -1.0679  1.2092 -1.6164
  356MOL0     H46943   6.157   8.893   0.455 -0.9914  0.9738 -0.0644
  356MOL0     H46944   6.327   8.923   0.472 -0.9235  0.5979 -4.1393
  356MOL0     H46945   6.215   8.609   0.665  3.1451  0.0807 -1.0508
  356MOL0     H46946   6.340   8.597   0.957 -1.1368 -0.5649  2.7688
  356MOL0     H46947   6.181   8.545   0.902 -1.3858 -0.1839  1.2875
  356MOL0     H46948   6.074   8.712   1.055  0.0543 -0.5549  0.1642
  356MOL0     H46949   6.231   8.756   1.120 -0.8406 -1.1392  2.1624
  356MOL0     H46950   6.181   8.460   1.128 -1.5991 -2.1312  2.7087
  356MOL0     H46951   6.264   8.571   1.234  0.6003 -0.5334 -1.4371
  356MOL0     H46952   5.967   8.511   1.194  1.2811  0.6059 -2.0423
  356MOL0     H46953   6.010   8.663   1.272  1.9903  0.2094 -0.0038
  356MOL0     H46954   5.824   8.638   1.347  4.1816  2.2639  0.8372
  356MOL0     H46955   5.649   8.646   1.494 -1.4775 -1.6887 -0.3254
  356MOL0     H46956   5.350   8.747   1.638  3.8115 -4.1102  0.5723
  356MOL0     H46957   5.121   8.781   1.765  1.1354  1.7436 -1.3867
  356MOL0     H46958   4.938   8.745   1.888  1.3259 -0.0754 -0.1099
  356MOL0     H46959   4.980   8.900   1.944 -2.0938 -1.4483 -1.0580
  356MOL0     H46960   4.877   8.872   2.157  0.1326 -0.5780 -1.3664
  356MOL0     H46961   4.834   8.716   2.133  4.5476 -1.0320  2.8454
  356MOL0     H46962   4.696   8.848   1.904  3.2477 -1.0124 -1.2960
  356MOL0     H46963   4.734   8.989   2.003 -0.8232  0.3616  1.3123
  356MOL0     H46964   4.600   8.847   2.193 -4.8100  1.1023  0.4321
  356MOL0     H46965   4.510   8.914   2.040 -0.5472 -1.2553 -1.4906
  356MOL0     H46966   4.620   8.627   2.066 -0.5300 -0.5195  0.7458
  356MOL0     H46967   4.492   8.684   1.968  1.6916 -1.3193 -0.0571
  356MOL0     H46968   4.355   8.746   2.161  1.2189  1.7329 -1.5683
  356MOL0     H46969   4.480   8.693   2.271 -2.0018  0.4233 -0.2780
  356MOL0     H46970   4.409   8.497   2.081 -2.8749  1.0230 -0.4451
  356MOL0     H46971   4.430   8.469   2.265  2.3584  1.8554  0.2332
  356MOL0     H46972   4.183   8.423   2.202  0.0185  0.0902  0.8716
  356MOL0     H46973   4.183   8.565   2.107  1.1744  1.1665 -0.4069
  356MOL0     H46974   5.330   8.704   2.131  1.2097 -2.7920 -0.4075
  356MOL0     H46975   5.530   8.662   1.999 -0.9494  0.4184  1.5862
  356MOL0     H46976   5.890   8.451   1.794  1.5509 -0.0048 -0.1347
  356MOL0     H46977   6.069   8.419   1.615  0.0306  0.3125 -1.2770
  356MOL0     H46978   7.194   8.983   0.449  0.0065 -0.1529  1.0061
  356MOL0     H46979   7.404   9.000   0.335 -4.4053 -2.0326 -4.5136
  356MOL0     H46980   7.920   8.869   0.685 -0.3714 -1.5627  0.7788
  356MOL0     H46981   8.164   8.844   0.634  1.9813 -0.3241 -1.8951
  356MOL0     H46982   8.268   8.750   0.236  0.0752 -0.5967  0.5832
  356MOL0     H46983   8.428   8.788   0.295  0.8219  2.3865  1.1160
  356MOL0     H46984   8.362   8.936   0.114 -0.0235 -0.8337  0.2822
  356MOL0     H46985   8.218   8.992   0.215 -0.2451  0.4577  0.9482
  356MOL0     H46986   8.515   9.040   0.267  1.3364  3.7373 -1.7363
  356MOL0     H46987   8.381   9.085   0.376 -0.8633  3.0573  0.3755
  356MOL0     H46988   8.296   9.245   0.194  0.3051  2.8127  2.3206
  356MOL0     H46989   8.453   9.263   0.273  2.5100 -4.2921  0.8568
  356MOL0     H46990   8.612   9.192  -0.101 -0.2997  1.1741  0.3806
  356MOL0     H46991   8.062   8.816   0.214 -3.0574  1.5923  0.1833
  356MOL0     H46992   7.851   8.842   0.262 -1.0381  1.8899  0.0703
  357MOL0     O46993   7.249   5.865   0.546 -0.1516  1.3366  0.1289
  357MOL0     C46994   7.297   5.749   0.517  0.0716  0.0430  0.2383
  357MOL0     O46995   7.232   5.631   0.527  0.7873  0.2443 -0.1910
  357MOL0     C46996   7.091   5.653   0.548  0.3806  0.0610  0.1145
  357MOL0     C46997   7.041   5.685   0.677  0.2487  0.2325  0.2266
  357MOL0     C46998   6.903   5.683   0.685 -0.7124 -0.4699 -0.5640
  357MOL0     C46999   6.812   5.664   0.584 -0.6462  0.2831 -0.7723
  357MOL0     O47000   6.680   5.641   0.621  0.5270 -0.7392 -0.0226
  357MOL0     C47001   6.572   5.648   0.523 -0.9233 -0.6966  0.3412
  357MOL0     C47002   6.439   5.686   0.586  0.3814  0.5309  0.1565
  357MOL0     C47003   6.380   5.580   0.677  0.4559 -0.6827  0.7983
  357MOL0     C47004   6.273   5.638   0.767  0.1264 -0.4675 -0.5231
  357MOL0     C47005   6.137   5.658   0.690  0.2881  0.8111  0.2062
  357MOL0     C47006   6.010   5.657   0.776 -0.2407 -0.1537  0.0042
  357MOL0     C47007   5.884   5.641   0.703  0.4204 -0.8393 -0.6398
  357MOL0     C47008   5.847   5.491   0.682 -0.2203  0.1477  0.3138
  357MOL0     N47009   5.706   5.471   0.671 -0.0076  0.6325  0.6816
  357MOL0     C47010   5.629   5.430   0.559 -0.4535  1.1526 -0.1344
  357MOL0     C47011   5.502   5.441   0.604  0.7775  1.2722 -0.5834
  357MOL0     C47012   5.373   5.391   0.538 -0.6229  0.2806  0.0409
  357MOL0     C47013   5.272   5.502   0.537  0.0093  1.0037  0.6167
  357MOL0     C47014   5.296   5.606   0.427  0.4313  0.1563 -0.6743
  357MOL0     C47015   5.173   5.690   0.385 -1.0844 -0.1814 -0.3244
  357MOL0     O47016   5.122   5.755   0.498 -0.7765  0.5308  0.3377
  357MOL0     C47017   5.002   5.812   0.478  0.0497 -0.1316  0.4654
  357MOL0     C47018   4.940   5.845   0.600 -0.2194 -0.4738  0.3735
  357MOL0     C47019   4.812   5.891   0.595  0.0381 -0.0832 -0.0723
  357MOL0     C47020   4.754   5.924   0.472  0.3971 -0.4733 -0.7849
  357MOL0     C47021   4.623   5.979   0.470 -0.2780 -0.7251  0.2316
  357MOL0     O47022   4.586   6.059   0.366  0.1607 -0.1022 -0.7246
  357MOL0     C47023   4.461   6.068   0.325 -0.1444  1.3023 -0.0778
  357MOL0     C47024   4.406   6.189   0.304 -0.1602 -0.8103 -0.9201
  357MOL0     C47025   4.277   6.213   0.260  0.0179 -1.1355  0.2428
  357MOL0     C47026   4.195   6.106   0.233  0.6350  1.0527 -1.1430
  357MOL0     O47027   4.063   6.118   0.187  0.5596 -0.6496 -0.3850
  357MOL0     C47028   3.979   6.194   0.277  0.6638  1.1269  0.4459
  357MOL0     C47029   3.845   6.228   0.207  0.1881 -1.4258 -0.5126
  357MOL0     C47030   3.861   6.332   0.089  0.0040 -0.0063 -0.6086
  357MOL0     C47031   3.725   6.342   0.023  0.3261 -0.3201  0.1096
  357MOL0     C47032   3.729   6.414  -0.120 -0.1234  0.0654 -0.0040
  357MOL0     C47033   3.786   6.557  -0.126  0.1642  0.6128  0.6012
  357MOL0     C47034   3.699   6.629  -0.017 -1.0208 -1.3490  0.5326
  357MOL0     C47035   3.730   6.777  -0.041  0.6399  0.5067 -0.4535
  357MOL0    Cl47036   3.672   6.833  -0.199 -0.4118 -0.0374  0.1659
  357MOL0     C47037   4.245   5.980   0.264 -0.6192  0.3812  0.1321
  357MOL0     C47038   4.375   5.960   0.302 -0.3725  1.2381 -0.6748
  357MOL0     O47039   4.548   5.945   0.553 -0.5480 -0.1815 -0.4577
  357MOL0     C47040   4.817   5.898   0.354 -0.6164  0.0483 -0.1727
  357MOL0     C47041   4.940   5.832   0.358  0.4292 -0.0310 -0.7018
  357MOL0     N47042   5.505   5.476   0.745  0.9296  0.1961 -0.3061
  357MOL0     N47043   5.623   5.475   0.785 -0.7189 -0.3298  0.3528
  357MOL0     C47044   6.870   5.636   0.459  0.5862 -1.3760  0.2183
  357MOL0     C47045   7.005   5.637   0.437  0.2103  0.4780  0.3848
  357MOL0     C47046   7.431   5.754   0.455 -0.1674  0.4017  0.5702
  357MOL0     C47047   7.499   5.634   0.443  0.5777  1.2357  0.2562
  357MOL0     C47048   7.625   5.627   0.391 -1.2213  1.1425  1.8353
  357MOL0     C47049   7.688   5.737   0.335 -0.3697  0.7221 -0.5111
  357MOL0     O47050   7.816   5.719   0.284  0.3700 -0.1323 -0.2916
  357MOL0     C47051   7.860   5.796   0.173 -0.9754 -0.1255 -0.3569
  357MOL0     C47052   7.925   5.929   0.208 -0.9606 -0.7689  0.3610
  357MOL0     C47053   8.012   5.928   0.330  0.0291 -0.4892  0.2130
  357MOL0     C47054   8.133   6.020   0.317  0.1830 -0.5103 -0.3053
  357MOL0     C47055   8.215   6.010   0.442 -0.3549  0.5559 -0.1693
  357MOL0     C47056   8.279   6.003   0.546  1.0094  0.3021 -0.4010
  357MOL0     C47057   7.615   5.860   0.331  0.8974 -0.4186  0.6238
  357MOL0     C47058   7.488   5.868   0.397  0.0458 -0.7076  0.1625
  357MOL0     H47059   7.103   5.684   0.766  0.1656 -2.0287  0.3251
  357MOL0     H47060   6.866   5.679   0.787  5.1406 -3.4664  1.9372
  357MOL0     H47061   6.562   5.557   0.465 -3.0885  0.1075 -0.6552
  357MOL0     H47062   6.592   5.725   0.448 -0.0969  0.4777  1.7232
  357MOL0     H47063   6.370   5.693   0.501  0.1595  1.0137  0.3722
  357MOL0     H47064   6.440   5.787   0.629 -2.7532  1.0903 -0.7997
  357MOL0     H47065   6.458   5.537   0.740 -0.4359 -1.1036  1.6437
  357MOL0     H47066   6.346   5.489   0.627 -0.5162 -1.1124  2.1934
  357MOL0     H47067   6.259   5.563   0.846 -2.2406  0.7735  0.3665
  357MOL0     H47068   6.305   5.730   0.817  0.7179  0.3971 -2.4346
  357MOL0     H47069   6.140   5.581   0.613  0.1787 -1.6333  2.4934
  357MOL0     H47070   6.148   5.760   0.650 -0.6633  2.3876  3.5664
  357MOL0     H47071   6.007   5.745   0.841 -1.2318  0.6420 -1.0883
  357MOL0     H47072   6.023   5.579   0.852  3.2729  2.1222  2.0489
  357MOL0     H47073   5.803   5.687   0.759 -1.0160  1.2292 -4.0914
  357MOL0     H47074   5.884   5.709   0.617  0.8258 -0.4264 -0.3237
  357MOL0     H47075   5.881   5.432   0.767  1.0257 -1.5518 -1.2826
  357MOL0     H47076   5.896   5.460   0.589 -0.1302  0.0208  0.4037
  357MOL0     H47077   5.659   5.390   0.463 -1.4737 -0.0426  0.0203
  357MOL0     H47078   5.355   5.306   0.605  1.2991  3.1632  4.6836
  357MOL0     H47079   5.390   5.344   0.441 -0.9162 -1.0326  0.6032
  357MOL0     H47080   5.261   5.552   0.633  1.3519  3.9694 -0.6645
  357MOL0     H47081   5.181   5.448   0.507  0.5949  0.2899  0.0816
  357MOL0     H47082   5.382   5.667   0.458  1.3482 -2.5090  2.6084
  357MOL0     H47083   5.335   5.552   0.341 -1.3083  0.9037 -1.9781
  357MOL0     H47084   5.098   5.626   0.337  2.4654 -4.4009 -0.9051
  357MOL0     H47085   5.208   5.764   0.313  2.0794 -3.2816 -2.3425
  357MOL0     H47086   4.996   5.824   0.690 -1.5511 -2.1315  0.8808
  357MOL0     H47087   4.755   5.899   0.688  0.1399 -1.5126  0.1379
  357MOL0     H47088   4.467   6.271   0.342  0.9427 -1.7117 -0.6994
  357MOL0     H47089   4.249   6.315   0.235  2.3833 -0.6026 -0.4691
  357MOL0     H47090   4.026   6.287   0.310  1.5084  0.9474 -0.1992
  357MOL0     H47091   3.955   6.141   0.369  1.0816  3.1943  1.8171
  357MOL0     H47092   3.775   6.271   0.280  1.2315  0.6417 -0.6595
  357MOL0     H47093   3.804   6.141   0.156  0.3449 -0.1803 -2.8999
  357MOL0     H47094   3.939   6.299   0.019 -1.0862  0.2004 -1.9740
  357MOL0     H47095   3.896   6.430   0.122 -3.6412  2.1634 -2.6074
  357MOL0     H47096   3.682   6.244   0.001  1.6326 -0.3490 -2.7424
  357MOL0     H47097   3.651   6.381   0.093 -1.8987 -3.2735 -0.3837
  357MOL0     H47098   3.627   6.414  -0.159 -0.7132 -0.9754  1.4544
  357MOL0     H47099   3.793   6.354  -0.185 -0.6598 -0.7221  0.1918
  357MOL0     H47100   3.769   6.593  -0.227 -4.1125 -1.1013  0.5007
  357MOL0     H47101   3.891   6.553  -0.096 -0.1283 -0.3597  1.5600
  357MOL0     H47102   3.594   6.598  -0.011 -1.1402 -1.1730 -0.4890
  357MOL0     H47103   3.744   6.606   0.080  0.4451  1.4070  0.5845
  357MOL0     H47104   3.837   6.796  -0.024  1.0121 -2.8579  2.0944
  357MOL0     H47105   3.675   6.834   0.034 -1.0840  1.8978 -2.6439
  357MOL0     H47106   4.179   5.896   0.248 -0.9023  0.6790 -0.3059
  357MOL0     H47107   4.411   5.860   0.326  0.0322  1.8823  1.5991
  357MOL0     H47108   4.764   5.923   0.263 -0.7319  1.3549  0.2266
  357MOL0     H47109   4.994   5.835   0.263  0.7857  2.1607 -0.4807
  357MOL0     H47110   6.814   5.635   0.366 -0.2737 -2.0010  0.7277
  357MOL0     H47111   7.039   5.606   0.339 -2.6932  1.0835 -0.9518
  357MOL0     H47112   7.451   5.539   0.458  1.6261  0.7964  0.9658
  357MOL0     H47113   7.679   5.533   0.390  1.2779  2.4982  0.0335
  357MOL0     H47114   7.782   5.814   0.099 -0.6218 -1.7786 -1.1737
  357MOL0     H47115   7.930   5.730   0.122  1.4114  0.5595  1.8460
  357MOL0     H47116   7.982   5.977   0.127 -1.0718  1.8486  1.7116
  357MOL0     H47117   7.845   6.002   0.224 -0.0714  0.7936 -1.7235
  357MOL0     H47118   8.039   5.828   0.364  0.5285 -0.7089 -0.8241
  357MOL0     H47119   7.949   5.969   0.410  1.4240 -1.3734  1.8208
  357MOL0     H47120   8.181   5.977   0.228 -1.6624  1.6503 -2.4681
  357MOL0     H47121   8.102   6.120   0.288  0.0429 -0.6597 -0.6811
  357MOL0     H47122   8.317   5.978   0.643 -0.8190 -1.6677 -0.1241
  357MOL0     H47123   7.644   5.958   0.293 -2.0488  0.5554  0.6583
  357MOL0     H47124   7.432   5.961   0.408  1.4668 -0.0912  3.9929
  358MOL0     O47125   7.252   3.309   3.701  0.5863 -0.0568  0.2840
  358MOL0     C47126   7.273   3.404   3.773  0.8008 -0.5680 -0.1997
  358MOL0     O47127   7.201   3.514   3.775 -0.2189  0.4483 -0.0504
  358MOL0     C47128   7.115   3.536   3.672  0.2614  0.1042  0.3004
  358MOL0     C47129   7.141   3.619   3.563 -0.6099 -0.6259 -0.1130
  358MOL0     C47130   7.046   3.642   3.465  0.1392 -0.6255 -0.2560
  358MOL0     C47131   6.916   3.576   3.475 -0.0974  0.5731 -0.0083
  358MOL0     O47132   6.806   3.606   3.399 -1.1122  0.0291  0.2289
  358MOL0     C47133   6.839   3.670   3.273  0.4219  0.3643 -0.5252
  358MOL0     C47134   6.759   3.613   3.168  0.8688 -0.5828 -0.5731
  358MOL0     C47135   6.611   3.624   3.209  0.5600 -0.7970  0.2360
  358MOL0     C47136   6.518   3.574   3.097 -0.0748 -0.5516 -0.4292
  358MOL0     C47137   6.372   3.568   3.142 -0.1664 -0.5056 -0.6974
  358MOL0     C47138   6.317   3.697   3.213  0.2946  0.6417  0.5842
  358MOL0     C47139   6.162   3.684   3.203 -0.0028  0.0526 -0.3644
  358MOL0     C47140   6.101   3.809   3.172 -0.1228 -1.2472 -0.3020
  358MOL0     N47141   5.961   3.787   3.139  0.0192  0.0612  0.6924
  358MOL0     C47142   5.900   3.700   3.052 -0.0894 -0.0427 -0.4455
  358MOL0     C47143   5.770   3.730   3.055 -0.4278 -0.7691 -0.6371
  358MOL0     C47144   5.662   3.653   2.980 -0.4964 -0.3150  0.2800
  358MOL0     C47145   5.524   3.700   2.995 -0.3071 -0.5581 -0.0297
  358MOL0     C47146   5.433   3.616   2.904  0.1897  0.3486  0.3776
  358MOL0     C47147   5.286   3.632   2.920 -0.6712 -0.7073  0.1892
  358MOL0     O47148   5.229   3.508   2.872 -0.5833 -0.1846 -0.7705
  358MOL0     C47149   5.103   3.467   2.887  0.1402 -0.6552 -0.4066
  358MOL0     C47150   5.070   3.337   2.852  0.4541  0.5377  0.5346
  358MOL0     C47151   4.939   3.301   2.844  0.6150 -0.1059  1.6513
  358MOL0     C47152   4.834   3.385   2.886  0.5764 -0.7017 -0.6764
  358MOL0     C47153   4.695   3.343   2.901 -0.0884  0.3436  0.2585
  358MOL0     O47154   4.656   3.251   2.811 -0.4218 -0.0581 -1.3345
  358MOL0     C47155   4.528   3.199   2.808 -0.3017  0.0795  0.2160
  358MOL0     C47156   4.461   3.205   2.689 -1.0512  0.6815  0.3648
  358MOL0     C47157   4.339   3.142   2.686  0.5871  0.2153  0.2552
  358MOL0     C47158   4.265   3.106   2.797  0.3994  0.0790  0.0319
  358MOL0     O47159   4.136   3.075   2.786  0.1131  0.0568  0.0397
  358MOL0     C47160   4.065   3.020   2.899 -0.4821 -0.5967  0.5063
  358MOL0     C47161   3.927   2.961   2.856 -0.0891 -0.8308 -0.4639
  358MOL0     C47162   3.833   3.078   2.807 -0.0872 -0.3423  0.1880
  358MOL0     C47163   3.706   3.008   2.772  0.1275 -0.6845 -0.2372
  358MOL0     C47164   3.582   3.102   2.763 -0.7702  1.4861 -0.1336
  358MOL0     C47165   3.521   3.169   2.880  0.1162 -0.0461 -0.1544
  358MOL0     C47166   3.487   3.090   3.009 -0.7961  0.0209  0.0296
  358MOL0     C47167   3.391   2.977   2.987  0.8281 -0.2178 -0.3074
  358MOL0    Cl47168   3.243   3.042   2.905  0.3095 -0.6457 -0.0105
  358MOL0     C47169   4.330   3.110   2.919  0.6468  0.5936 -0.0168
  358MOL0     C47170   4.467   3.149   2.925  0.5195  0.0591 -0.0694
  358MOL0     O47171   4.621   3.400   2.978 -0.2771 -0.0490 -0.9259
  358MOL0     C47172   4.872   3.509   2.924  0.7753  0.1722 -0.4291
  358MOL0     C47173   5.002   3.552   2.930 -0.7836  0.3605  0.2160
  358MOL0     N47174   5.759   3.829   3.148  0.5552  0.1232 -0.5479
  358MOL0     N47175   5.869   3.861   3.193  0.0780  0.7999 -0.3885
  358MOL0     C47176   6.886   3.490   3.585  0.1020  0.5743 -0.0556
  358MOL0     C47177   6.987   3.477   3.684  0.0358 -0.4977  0.1193
  358MOL0     C47178   7.383   3.396   3.870  0.2618  0.4544  0.1928
  358MOL0     C47179   7.398   3.496   3.960 -0.3984 -0.2850 -0.6109
  358MOL0     C47180   7.520   3.506   4.039 -0.3014  0.3988 -0.8737
  358MOL0     C47181   7.611   3.403   4.035  0.2443  0.5588  0.3406
  358MOL0     O47182   7.736   3.401   4.102  0.1095  0.0668  0.1413
  358MOL0     C47183   7.808   3.523   4.121  0.4616 -1.0322  0.4195
  358MOL0     C47184   7.814   3.549   4.280  0.5225 -0.6239 -0.0812
  358MOL0     C47185   7.943   3.597   4.329 -0.1052 -0.1505 -0.7501
  358MOL0     C47186   7.928   3.653   4.473 -0.1034  0.3147  0.6095
  358MOL0     C47187   8.047   3.702   4.549  0.1770 -0.4341 -0.2157
  358MOL0     C47188   8.140   3.742   4.615 -0.6582  0.4634  0.6947
  358MOL0     C47189   7.594   3.296   3.949 -0.3987  0.4659 -0.1545
  358MOL0     C47190   7.478   3.290   3.869  0.2956 -0.5722  0.3334
  358MOL0     H47191   7.239   3.661   3.541 -0.8832  0.9584  1.4048
  358MOL0     H47192   7.071   3.715   3.389 -0.5833 -0.5184 -0.3994
  358MOL0     H47193   6.943   3.662   3.239  0.4302 -0.9474 -0.2329
  358MOL0     H47194   6.820   3.777   3.285 -0.9550 -0.0158  1.0495
  358MOL0     H47195   6.786   3.510   3.144  2.1259 -0.7530  1.3456
  358MOL0     H47196   6.782   3.663   3.074 -1.3885 -1.3780 -1.5986
  358MOL0     H47197   6.590   3.728   3.236  0.1356 -0.3116 -1.7831
  358MOL0     H47198   6.586   3.552   3.287 -1.2074 -2.2074 -1.5342
  358MOL0     H47199   6.530   3.638   3.009 -0.6599  0.8502  0.4770
  358MOL0     H47200   6.550   3.472   3.074  3.1555  0.5554 -1.4999
  358MOL0     H47201   6.372   3.491   3.220 -1.3979  0.1733  0.0219
  358MOL0     H47202   6.320   3.537   3.052 -0.7101  0.5037 -0.7509
  358MOL0     H47203   6.352   3.788   3.164  0.5586  0.0657 -0.3372
  358MOL0     H47204   6.346   3.707   3.317 -0.6364  0.9815  0.8235
  358MOL0     H47205   6.136   3.618   3.119 -2.2646 -0.0307  0.3408
  358MOL0     H47206   6.117   3.644   3.294  0.6105  0.4705  0.1286
  358MOL0     H47207   6.149   3.857   3.087 -0.7058  1.8968  1.0022
  358MOL0     H47208   6.107   3.882   3.253 -0.5924 -1.4266 -0.0965
  358MOL0     H47209   5.953   3.627   2.991 -0.7630 -1.0441  0.1508
  358MOL0     H47210   5.676   3.558   3.032 -0.0564  0.6213  1.9550
  358MOL0     H47211   5.688   3.639   2.875  1.5621  0.7689  0.5742
  358MOL0     H47212   5.529   3.805   2.967  1.4928 -0.7471 -0.5201
  358MOL0     H47213   5.490   3.688   3.099 -2.0482 -0.3593 -0.5437
  358MOL0     H47214   5.464   3.637   2.802 -1.0949  4.6901  0.6512
  358MOL0     H47215   5.445   3.510   2.928 -3.2353  0.0962  1.5495
  358MOL0     H47216   5.251   3.717   2.862  2.9481  0.4054 -0.6457
  358MOL0     H47217   5.260   3.651   3.024 -3.3277  3.3587 -1.0083
  358MOL0     H47218   5.151   3.269   2.827  0.0896  0.7665 -1.4625
  358MOL0     H47219   4.902   3.203   2.816 -0.8717  0.4514  1.5827
  358MOL0     H47220   4.523   3.238   2.606  2.1788 -2.5908  1.2140
  358MOL0     H47221   4.285   3.132   2.592  0.4729  2.2591  0.0597
  358MOL0     H47222   4.035   3.095   2.973 -2.6940 -0.6433 -0.2451
  358MOL0     H47223   4.133   2.945   2.939  0.8743 -0.7248 -1.8625
  358MOL0     H47224   3.886   2.902   2.938 -2.8439 -0.6345 -1.6040
  358MOL0     H47225   3.954   2.902   2.768  2.3260  2.9421 -2.5348
  358MOL0     H47226   3.874   3.137   2.725  1.1796 -1.6748 -0.1875
  358MOL0     H47227   3.811   3.148   2.888  1.2910  0.5097 -0.1400
  358MOL0     H47228   3.722   2.947   2.682 -1.7281 -1.2663 -0.2107
  358MOL0     H47229   3.681   2.929   2.844 -0.4216 -1.1022 -0.8747
  358MOL0     H47230   3.504   3.049   2.709  0.2218 -0.6379  0.4158
  358MOL0     H47231   3.602   3.179   2.687  2.2605 -1.3252 -2.4886
  358MOL0     H47232   3.426   3.215   2.853 -0.7793 -1.0288  1.1699
  358MOL0     H47233   3.592   3.249   2.902 -2.2572  1.9705  0.5101
  358MOL0     H47234   3.580   3.041   3.039  0.7493  0.7027 -3.1357
  358MOL0     H47235   3.448   3.160   3.083 -3.1788 -2.7203  1.5608
  358MOL0     H47236   3.368   2.919   3.077 -0.4966 -0.1498 -0.5837
  358MOL0     H47237   3.436   2.905   2.918 -1.3073 -0.7506 -1.2160
  358MOL0     H47238   4.279   3.078   3.009 -0.2032  1.0938 -0.3061
  358MOL0     H47239   4.516   3.144   3.021  0.8103  1.9942 -0.0749
  358MOL0     H47240   4.798   3.576   2.968  0.7986 -1.0890  1.6467
  358MOL0     H47241   5.024   3.659   2.932 -0.0108  0.2646 -1.2116
  358MOL0     H47242   6.788   3.444   3.583  0.7675 -0.9176 -2.2329
  358MOL0     H47243   6.963   3.417   3.771  1.4515 -1.1092  0.1128
  358MOL0     H47244   7.322   3.573   3.969 -2.7925 -2.3031 -2.2778
  358MOL0     H47245   7.547   3.587   4.106  0.5202 -0.1056 -0.5810
  358MOL0     H47246   7.762   3.610   4.074 -3.9903 -1.7370  2.9468
  358MOL0     H47247   7.910   3.512   4.083  2.0793  1.6948  3.4581
  358MOL0     H47248   7.741   3.629   4.299 -1.6815 -2.7222  0.7920
  358MOL0     H47249   7.786   3.458   4.335 -3.2699 -0.1282 -0.8710
  358MOL0     H47250   7.999   3.668   4.268  0.1700 -1.0207 -1.5408
  358MOL0     H47251   8.013   3.513   4.331  0.4229  0.2897 -0.4902
  358MOL0     H47252   7.847   3.726   4.464 -0.8240 -0.4585  0.7288
  358MOL0     H47253   7.893   3.566   4.528  1.5072 -1.8471 -1.5571
  358MOL0     H47254   8.227   3.768   4.672 -0.3341 -0.0834  0.4574
  358MOL0     H47255   7.661   3.210   3.952 -0.8334  0.0587 -1.3723
  358MOL0     H47256   7.463   3.208   3.799  0.1797 -2.0599  2.0172
  359MOL0     O47257   0.053   5.942   9.030  0.9536  0.1717  0.0156
  359MOL0     C47258   0.103   5.931   8.917 -0.1018  0.0955 -0.5748
  359MOL0     O47259   0.044   5.961   8.795 -0.0864 -0.2137 -0.6543
  359MOL0     C47260  -0.082   6.001   8.798 -1.0657 -0.3740 -0.0022
  359MOL0     C47261  -0.181   5.922   8.746  0.4373 -0.3349  0.1609
  359MOL0     C47262  -0.313   5.965   8.748  0.4150  0.1936  0.2927
  359MOL0     C47263  -0.349   6.102   8.790  0.3986 -0.2503 -0.0633
  359MOL0     O47264  -0.470   6.161   8.789  0.2703  0.0380 -0.7782
  359MOL0     C47265  -0.583   6.084   8.740 -0.2986  0.1044  0.1838
  359MOL0     C47266  -0.710   6.164   8.743  0.2596 -0.8986 -0.2312
  359MOL0     C47267  -0.694   6.293   8.668  0.2324 -0.6405  0.4709
  359MOL0     C47268  -0.830   6.367   8.658 -0.0088 -0.3418  0.1483
  359MOL0     C47269  -0.815   6.511   8.591 -0.4956  0.3117  0.0121
  359MOL0     C47270  -0.722   6.517   8.469 -0.2278  0.4553 -0.0140
  359MOL0     C47271  -0.698   6.659   8.399 -0.3454 -0.2054 -0.2624
  359MOL0     C47272  -0.828   6.727   8.359  0.4875  1.1597  0.4362
  359MOL0     N47273  -0.807   6.868   8.320 -0.2483 -0.6183  0.1197
  359MOL0     C47274  -0.778   6.978   8.404 -0.9173 -0.0174 -0.7696
  359MOL0     C47275  -0.751   7.086   8.328  0.5143  0.5221  0.2798
  359MOL0     C47276  -0.734   7.231   8.369 -0.3585  0.5396 -0.6154
  359MOL0     C47277  -0.613   7.295   8.305 -0.0811 -0.1240  0.2461
  359MOL0     C47278  -0.581   7.432   8.372  0.2123  0.5266 -0.7033
  359MOL0     C47279  -0.686   7.542   8.335 -0.3016  0.2923  0.2147
  359MOL0     O47280  -0.773   7.563   8.445  0.0713  0.0214  0.5294
  359MOL0     C47281  -0.909   7.556   8.435  0.1729  0.1252 -0.4696
  359MOL0     C47282  -0.984   7.547   8.316  0.5580  0.3130 -0.2009
  359MOL0     C47283  -1.126   7.540   8.329  0.3654  0.0989 -1.3391
  359MOL0     C47284  -1.192   7.545   8.452  0.2956  0.6182  0.5426
  359MOL0     C47285  -1.342   7.520   8.451 -0.1408  0.4563 -1.2952
  359MOL0     O47286  -1.400   7.517   8.326 -0.2488 -0.4371  0.2619
  359MOL0     C47287  -1.538   7.514   8.303 -0.6024 -0.1262  0.3765
  359MOL0     C47288  -1.583   7.495   8.176  0.5292  0.0691  0.5546
  359MOL0     C47289  -1.721   7.497   8.145  0.2341  0.9007 -0.1449
  359MOL0     C47290  -1.821   7.504   8.245  0.3030 -0.3784 -0.4004
  359MOL0     O47291  -1.962   7.494   8.226 -0.2993  0.5542 -0.4591
  359MOL0     C47292  -2.011   7.536   8.105  0.4444  0.0272 -0.5473
  359MOL0     C47293  -2.163   7.568   8.128  0.0963  0.6515  1.0775
  359MOL0     C47294  -2.203   7.651   8.249  0.0388  0.6602  0.3440
  359MOL0     C47295  -2.346   7.682   8.265  0.6934 -0.4512 -0.2732
  359MOL0     C47296  -2.412   7.742   8.142 -0.7806  0.5047  0.0910
  359MOL0     C47297  -2.558   7.813   8.163 -0.8246  0.4837 -0.4715
  359MOL0     C47298  -2.546   7.926   8.269  0.3011  0.0010 -0.4634
  359MOL0     C47299  -2.684   7.993   8.287 -0.9239  0.1240 -0.7735
  359MOL0    Cl47300  -2.686   8.102   8.420  0.0660 -0.1847 -0.2247
  359MOL0     C47301  -1.772   7.504   8.380  0.7469 -0.5187 -0.0613
  359MOL0     C47302  -1.638   7.516   8.411 -0.3823  0.1806 -0.4354
  359MOL0     O47303  -1.399   7.492   8.556 -0.2676 -0.1887 -0.4365
  359MOL0     C47304  -1.110   7.567   8.564  0.9296  0.1775 -0.0863
  359MOL0     C47305  -0.974   7.576   8.551 -0.0616 -0.0060 -0.1910
  359MOL0     N47306  -0.765   7.044   8.193  0.0046 -0.6659 -0.1920
  359MOL0     N47307  -0.784   6.913   8.197 -0.2154  0.2013  0.3749
  359MOL0     C47308  -0.243   6.183   8.825 -0.2276 -0.1994 -0.7259
  359MOL0     C47309  -0.106   6.136   8.826  0.1142 -0.8403  0.6049
  359MOL0     C47310   0.248   5.885   8.909  0.0206  0.4282  0.3243
  359MOL0     C47311   0.332   5.907   8.789  0.2818 -0.3550 -0.0684
  359MOL0     C47312   0.466   5.857   8.792 -0.9785 -0.5682 -0.3765
  359MOL0     C47313   0.527   5.800   8.908  0.4478  0.3495  0.1181
  359MOL0     O47314   0.655   5.762   8.912  0.5698  0.5813 -0.3523
  359MOL0     C47315   0.687   5.658   8.822 -0.1946 -0.6317 -0.4036
  359MOL0     C47316   0.827   5.587   8.857  0.3955 -1.7145  0.0443
  359MOL0     C47317   0.809   5.503   8.980 -0.1635  0.2798 -0.0605
  359MOL0     C47318   0.920   5.396   8.990 -0.5318  0.0861  0.7037
  359MOL0     C47319   0.885   5.291   8.899 -0.4664  0.5440  0.3513
  359MOL0     C47320   0.866   5.217   8.809 -0.3410  0.5458  0.5163
  359MOL0     C47321   0.442   5.774   9.020 -0.6234  1.0286  0.1717
  359MOL0     C47322   0.306   5.804   9.017  0.9894  0.7662 -0.3090
  359MOL0     H47323  -0.149   5.823   8.716 -0.5480 -0.8880  0.8397
  359MOL0     H47324  -0.388   5.895   8.713 -0.8970  1.1640  1.0550
  359MOL0     H47325  -0.590   5.984   8.783  0.6218 -0.4141 -0.8199
  359MOL0     H47326  -0.553   6.061   8.637 -2.0206 -2.3526  0.1308
  359MOL0     H47327  -0.756   6.181   8.841  2.6823 -0.9119  0.9634
  359MOL0     H47328  -0.784   6.097   8.698 -0.3506 -0.2845 -0.1747
  359MOL0     H47329  -0.661   6.279   8.565  2.3843  1.6976  0.7408
  359MOL0     H47330  -0.628   6.369   8.712  1.7204 -1.9183  0.5243
  359MOL0     H47331  -0.899   6.299   8.607  2.1691 -1.8825 -0.8666
  359MOL0     H47332  -0.871   6.390   8.757 -4.3438 -0.1774 -1.4403
  359MOL0     H47333  -0.786   6.589   8.661 -2.0609 -0.6105  1.7645
  359MOL0     H47334  -0.916   6.541   8.561 -0.0984 -0.8488 -2.7842
  359MOL0     H47335  -0.741   6.436   8.397  3.2419 -0.6005  0.0805
  359MOL0     H47336  -0.625   6.501   8.518 -1.4193  0.9145  2.7062
  359MOL0     H47337  -0.655   6.716   8.483 -0.5214 -1.5513  0.7836
  359MOL0     H47338  -0.622   6.655   8.321 -0.3627  0.7138 -0.3373
  359MOL0     H47339  -0.897   6.721   8.443 -0.3981  1.4160 -0.2624
  359MOL0     H47340  -0.872   6.677   8.272 -0.2487  0.3346  1.2705
  359MOL0     H47341  -0.784   6.970   8.512 -0.1645  1.2733 -0.6129
  359MOL0     H47342  -0.724   7.228   8.478 -3.1142 -1.4860 -0.3104
  359MOL0     H47343  -0.825   7.287   8.345 -1.3218 -0.4760  0.5377
  359MOL0     H47344  -0.628   7.300   8.197 -1.1570 -1.6265  0.2884
  359MOL0     H47345  -0.530   7.225   8.322  0.9935  1.0516  0.0164
  359MOL0     H47346  -0.571   7.424   8.480  0.1861  0.4644 -0.7050
  359MOL0     H47347  -0.481   7.454   8.332  0.7054 -1.9463 -1.0113
  359MOL0     H47348  -0.739   7.503   8.248 -1.4065  1.7406  0.1853
  359MOL0     H47349  -0.640   7.639   8.315  0.5885 -0.2141 -0.2469
  359MOL0     H47350  -0.927   7.549   8.224 -0.9365 -0.6176 -1.1903
  359MOL0     H47351  -1.179   7.527   8.235 -0.4326  1.7314 -1.1565
  359MOL0     H47352  -1.515   7.478   8.093  0.5212  0.0419  0.5545
  359MOL0     H47353  -1.750   7.482   8.042  0.1128 -0.2436  0.0432
  359MOL0     H47354  -2.013   7.444   8.046  0.3724 -1.2331  1.3430
  359MOL0     H47355  -1.957   7.624   8.067  0.6913 -0.1026 -0.4971
  359MOL0     H47356  -2.212   7.471   8.135  2.1825 -0.6556 -0.8505
  359MOL0     H47357  -2.194   7.616   8.035  2.6336  0.5486  0.0892
  359MOL0     H47358  -2.151   7.747   8.239  0.1131  0.6076  0.2293
  359MOL0     H47359  -2.166   7.615   8.346  1.3267 -0.4228 -0.5333
  359MOL0     H47360  -2.406   7.594   8.290 -1.6740  0.4115 -2.4698
  359MOL0     H47361  -2.361   7.751   8.349 -1.2248  1.8736 -2.3948
  359MOL0     H47362  -2.420   7.659   8.070  1.1226  0.5828 -0.2638
  359MOL0     H47363  -2.344   7.812   8.093 -2.2888  1.4177 -0.7927
  359MOL0     H47364  -2.626   7.732   8.189  1.6827 -1.4480  0.4382
  359MOL0     H47365  -2.586   7.854   8.066 -0.8014 -2.3232 -1.7592
  359MOL0     H47366  -2.508   7.884   8.363  0.2441 -0.8087 -0.7935
  359MOL0     H47367  -2.481   8.004   8.229 -1.4620  1.7345 -0.0582
  359MOL0     H47368  -2.753   7.908   8.295  1.6680 -2.0403 -0.0844
  359MOL0     H47369  -2.709   8.037   8.191 -0.4001  0.0345 -0.9540
  359MOL0     H47370  -1.851   7.478   8.449 -2.9138 -0.8138 -3.8957
  359MOL0     H47371  -1.623   7.504   8.517 -0.7438  0.9705 -0.2913
  359MOL0     H47372  -1.138   7.565   8.668 -1.9278  1.6255 -0.7412
  359MOL0     H47373  -0.914   7.597   8.639  2.6162 -3.8188 -0.8264
  359MOL0     H47374  -0.254   6.287   8.854  2.6836 -0.3048  1.1269
  359MOL0     H47375  -0.025   6.198   8.862  0.2035  0.3649 -1.5339
  359MOL0     H47376   0.300   5.973   8.710  1.1770  2.0701  1.4546
  359MOL0     H47377   0.540   5.862   8.713  1.3110 -1.1533  1.5852
  359MOL0     H47378   0.682   5.699   8.721 -0.2549 -2.9983 -1.4258
  359MOL0     H47379   0.604   5.587   8.812 -0.7043  0.0909 -1.4362
  359MOL0     H47380   0.875   5.542   8.770  4.0667 -1.0980  1.5970
  359MOL0     H47381   0.891   5.669   8.888  0.6293 -2.5760  1.9605
  359MOL0     H47382   0.709   5.461   8.986 -0.5722  0.8743 -2.1066
  359MOL0     H47383   0.810   5.574   9.064  1.5600 -0.6107  0.7446
  359MOL0     H47384   1.020   5.434   8.969 -0.5256  0.0640  0.6947
  359MOL0     H47385   0.914   5.349   9.089 -1.6729 -0.4273  0.4079
  359MOL0     H47386   0.864   5.150   8.725  0.6737  0.0689  0.8509
  359MOL0     H47387   0.486   5.723   9.105  2.2170 -1.3088 -2.4578
  359MOL0     H47388   0.245   5.787   9.106  1.1374  0.2495 -0.3055
  360MOL0     O47389   6.885   5.462   3.447  0.2758  1.0665  0.5458
  360MOL0     C47390   6.976   5.466   3.365 -0.1031 -0.3079  0.0699
  360MOL0     O47391   6.966   5.526   3.242 -1.0529  0.3777 -0.2526
  360MOL0     C47392   6.841   5.582   3.218 -0.4030  0.2849 -0.2214
  360MOL0     C47393   6.721   5.512   3.221 -1.1747 -0.3086 -0.5345
  360MOL0     C47394   6.609   5.576   3.194 -0.1385  0.0078  0.3787
  360MOL0     C47395   6.596   5.712   3.164 -0.6286 -0.0887  0.3195
  360MOL0     O47396   6.478   5.782   3.137  0.6747 -0.0182 -0.4110
  360MOL0     C47397   6.459   5.800   2.995  0.0476  1.0157  0.0681
  360MOL0     C47398   6.350   5.696   2.963 -0.7034  0.3191  0.3703
  360MOL0     C47399   6.204   5.745   2.974 -0.3150 -0.6949  0.1465
  360MOL0     C47400   6.165   5.776   3.110 -0.3216 -0.0174  0.0058
  360MOL0     C47401   6.014   5.778   3.147 -0.9930  0.1106  0.0198
  360MOL0     C47402   5.916   5.839   3.044  0.1695 -0.7628  0.7508
  360MOL0     C47403   5.778   5.770   3.053  0.3130  0.0803  0.1870
  360MOL0     C47404   5.679   5.802   2.934 -0.4934 -0.3610  0.6257
  360MOL0     N47405   5.660   5.951   2.919 -1.1329  0.1168  0.5886
  360MOL0     C47406   5.756   6.046   2.868  0.5852 -0.1110 -0.4725
  360MOL0     C47407   5.699   6.162   2.875  0.8385  0.1566  0.6331
  360MOL0     C47408   5.743   6.296   2.817  0.2753  0.6736 -0.6631
  360MOL0     C47409   5.895   6.292   2.812  0.7718 -0.7584  0.1843
  360MOL0     C47410   5.947   6.236   2.684  0.1909  0.3407  0.8633
  360MOL0     C47411   6.096   6.215   2.686  0.3870 -0.4040  0.5360
  360MOL0     O47412   6.177   6.320   2.750 -0.0347 -0.3101  0.1220
  360MOL0     C47413   6.302   6.286   2.786 -0.6142  0.6050 -0.1420
  360MOL0     C47414   6.334   6.245   2.918  0.4513 -0.1326  0.4202
  360MOL0     C47415   6.453   6.194   2.941  0.5657  0.1927  0.3711
  360MOL0     C47416   6.569   6.200   2.860 -0.1593 -0.3805 -0.5766
  360MOL0     C47417   6.707   6.161   2.898 -0.7655  0.2310  0.2935
  360MOL0     O47418   6.727   6.060   2.981 -0.3273 -0.2874 -0.4112
  360MOL0     C47419   6.858   6.036   3.010  0.2581 -0.3941  0.4154
  360MOL0     C47420   6.926   6.086   3.125  0.4351 -0.6772 -0.7590
  360MOL0     C47421   7.050   6.037   3.161  0.3395  0.7760  0.2925
  360MOL0     C47422   7.118   5.956   3.072 -0.0189 -1.3621 -0.2152
  360MOL0     O47423   7.243   5.908   3.087 -0.1555  0.3309  0.2997
  360MOL0     C47424   7.295   5.899   3.216 -0.2092  0.3213 -0.2281
  360MOL0     C47425   7.416   5.807   3.202 -0.0220  0.0911  0.0122
  360MOL0     C47426   7.524   5.862   3.107  1.0330 -0.3567  0.1759
  360MOL0     C47427   7.629   5.751   3.084 -0.6812 -0.6214 -0.2836
  360MOL0     C47428   7.773   5.809   3.088  0.2984 -0.8492 -0.3141
  360MOL0     C47429   7.824   5.844   3.225  0.0353  0.0751  1.5727
  360MOL0     C47430   7.971   5.852   3.263 -0.3292  0.2937  0.2556
  360MOL0     C47431   8.057   5.916   3.156 -0.2547  0.0702 -0.4777
  360MOL0    Cl47432   8.228   5.923   3.207 -0.1336  0.1595 -0.6703
  360MOL0     C47433   7.051   5.909   2.953  0.4525 -0.2267 -0.3277
  360MOL0     C47434   6.924   5.954   2.917  0.1790 -0.5370 -0.2356
  360MOL0     O47435   6.790   6.238   2.857  0.4000  0.2254 -0.6279
  360MOL0     C47436   6.533   6.248   2.727  0.1012  0.3450 -1.0174
  360MOL0     C47437   6.407   6.294   2.699 -0.2977 -0.6103 -0.1815
  360MOL0     N47438   5.572   6.146   2.917 -0.1791 -0.8324  0.4515
  360MOL0     N47439   5.548   6.021   2.943 -0.1579  0.2904  0.7871
  360MOL0     C47440   6.721   5.775   3.161  0.6249  1.3397 -0.6567
  360MOL0     C47441   6.843   5.715   3.188  0.1802  0.2683  0.7246
  360MOL0     C47442   7.086   5.376   3.399  0.3642  0.5532 -0.6038
  360MOL0     C47443   7.084   5.294   3.512 -0.4802  0.1332 -0.9402
  360MOL0     C47444   7.191   5.206   3.535 -0.2605 -0.7476  1.0015
  360MOL0     C47445   7.292   5.184   3.445  0.1191  0.5463 -0.5070
  360MOL0     O47446   7.399   5.104   3.490 -0.0034 -0.1565  0.1422
  360MOL0     C47447   7.461   5.032   3.386  0.5134  0.3203 -0.2704
  360MOL0     C47448   7.577   4.957   3.440 -1.5212 -0.4187 -0.1404
  360MOL0     C47449   7.700   5.046   3.496  0.6341 -0.5504  0.0234
  360MOL0     C47450   7.731   5.166   3.399 -0.4207 -0.1959  0.0907
  360MOL0     C47451   7.849   5.241   3.452  0.0805 -0.3631 -0.0883
  360MOL0     C47452   7.941   5.302   3.499 -0.3229  0.3912  0.1899
  360MOL0     C47453   7.298   5.252   3.325 -0.3938 -0.0449 -0.0437
  360MOL0     C47454   7.199   5.356   3.311 -0.3530  0.4490  0.0839
  360MOL0     H47455   6.718   5.413   3.266 -2.4080  0.7187  1.8159
  360MOL0     H47456   6.516   5.522   3.209  0.8022 -1.1667  2.4073
  360MOL0     H47457   6.550   5.783   2.936  0.2441  2.9025 -0.2352
  360MOL0     H47458   6.431   5.904   2.974 -0.0485  1.7293  3.1887
  360MOL0     H47459   6.351   5.598   3.011 -3.5954 -0.5498 -1.0806
  360MOL0     H47460   6.375   5.667   2.861  2.2898 -1.9957  1.6258
  360MOL0     H47461   6.146   5.660   2.937 -1.6606 -0.3093  1.3260
  360MOL0     H47462   6.197   5.832   2.909  1.5045  0.0444  0.8806
  360MOL0     H47463   6.201   5.695   3.175  1.5033  0.4253 -0.3919
  360MOL0     H47464   6.213   5.873   3.125  0.9625 -0.8832  1.9155
  360MOL0     H47465   5.996   5.834   3.239 -1.6601  1.1607 -0.7227
  360MOL0     H47466   5.985   5.673   3.150  1.1723 -0.9128 -4.8676
  360MOL0     H47467   5.952   5.835   2.940 -2.9420 -0.9608 -0.4018
  360MOL0     H47468   5.903   5.946   3.062 -1.9038 -0.2627 -2.8129
  360MOL0     H47469   5.785   5.661   3.069  2.5321  0.4809  2.7510
  360MOL0     H47470   5.746   5.819   3.145  1.0187  0.8324  0.0435
  360MOL0     H47471   5.585   5.750   2.956 -0.1302 -1.2071  0.2357
  360MOL0     H47472   5.714   5.756   2.842 -2.4272  2.2216 -1.5494
  360MOL0     H47473   5.842   6.020   2.806  1.1354 -0.6539  0.4902
  360MOL0     H47474   5.696   6.376   2.875 -2.6662  0.8118 -3.0256
  360MOL0     H47475   5.705   6.295   2.714 -3.8754 -1.3873  0.6490
  360MOL0     H47476   5.935   6.240   2.899 -2.5449 -3.9740 -0.0139
  360MOL0     H47477   5.922   6.398   2.815  1.0819 -0.8480  0.6071
  360MOL0     H47478   5.884   6.153   2.651 -0.3451  0.5698  1.2875
  360MOL0     H47479   5.941   6.300   2.595  1.9405 -0.7274 -0.0809
  360MOL0     H47480   6.128   6.209   2.582 -1.3902  0.5206 -0.1015
  360MOL0     H47481   6.102   6.120   2.741  0.2205  0.3984  1.9862
  360MOL0     H47482   6.256   6.243   2.993  2.7976  1.2173  3.0440
  360MOL0     H47483   6.463   6.137   3.033  0.8309 -2.9497 -1.4550
  360MOL0     H47484   6.870   6.149   3.194  2.8262 -0.7470  1.3857
  360MOL0     H47485   7.092   6.061   3.258 -0.6579  2.6530  0.2898
  360MOL0     H47486   7.225   5.852   3.286  1.6448  0.0762  1.5644
  360MOL0     H47487   7.322   5.992   3.266  1.7136 -1.2010  1.7311
  360MOL0     H47488   7.389   5.708   3.165  0.4573  0.1944 -0.6310
  360MOL0     H47489   7.466   5.798   3.299 -0.9454 -0.1358  0.4740
  360MOL0     H47490   7.561   5.956   3.149  0.8259 -0.1621 -0.0672
  360MOL0     H47491   7.486   5.875   3.005 -0.7373  0.1310  0.8568
  360MOL0     H47492   7.622   5.680   3.167 -1.1769 -1.5388 -1.0822
  360MOL0     H47493   7.609   5.698   2.990  1.6965 -0.5896 -0.8634
  360MOL0     H47494   7.783   5.880   3.005 -1.1440 -2.5079 -2.0007
  360MOL0     H47495   7.838   5.727   3.057  0.6771  0.0681 -2.0742
  360MOL0     H47496   7.790   5.758   3.283  0.2011 -3.8515 -3.4376
  360MOL0     H47497   7.770   5.929   3.268 -0.8277  0.0195  0.6105
  360MOL0     H47498   7.987   5.922   3.346  1.2830  0.0826  0.1542
  360MOL0     H47499   8.007   5.754   3.295  0.2746  1.3513  3.1349
  360MOL0     H47500   8.014   6.013   3.128 -4.3169 -1.1498  0.8982
  360MOL0     H47501   8.054   5.853   3.067 -0.1524  1.7489 -1.7147
  360MOL0     H47502   7.102   5.834   2.892 -0.6005 -0.8362 -0.4765
  360MOL0     H47503   6.868   5.919   2.830 -0.8782  0.7273 -0.1074
  360MOL0     H47504   6.602   6.250   2.643  2.2935  0.4042  0.7267
  360MOL0     H47505   6.398   6.322   2.594  0.3551 -0.3154 -0.1687
  360MOL0     H47506   6.720   5.884   3.165  1.1485  1.3166  1.1556
  360MOL0     H47507   6.933   5.775   3.175  1.5948 -2.2444 -2.3453
  360MOL0     H47508   7.014   5.315   3.593 -1.0039 -2.7218 -0.5527
  360MOL0     H47509   7.193   5.151   3.628  3.1135  1.7718  2.6185
  360MOL0     H47510   7.488   5.095   3.300 -0.1307 -0.4139 -1.0350
  360MOL0     H47511   7.387   4.963   3.344  1.0489  0.0241 -0.7461
  360MOL0     H47512   7.542   4.900   3.526  0.0421 -0.3317  0.5965
  360MOL0     H47513   7.614   4.891   3.361 -0.8377  0.5560 -0.6721
  360MOL0     H47514   7.786   4.979   3.507 -0.0339 -1.5311 -0.5111
  360MOL0     H47515   7.671   5.086   3.593 -0.2869  1.1533 -0.9056
  360MOL0     H47516   7.758   5.130   3.299 -0.2231  0.6560 -0.1692
  360MOL0     H47517   7.642   5.228   3.394 -1.3046 -1.4294 -0.0976
  360MOL0     H47518   8.017   5.369   3.536 -1.1484  0.6410  1.4777
  360MOL0     H47519   7.371   5.237   3.246  0.6336 -1.6785  1.1573
  360MOL0     H47520   7.208   5.403   3.213 -1.5642 -1.5210 -1.0301
  361MOL0     O47521   1.694   9.143   2.907  0.2429 -0.5229 -0.3112
  361MOL0     C47522   1.693   9.242   2.832 -0.1446 -0.8587  0.2819
  361MOL0     O47523   1.801   9.288   2.761  0.1291 -0.4613  0.3377
  361MOL0     C47524   1.910   9.203   2.731 -0.3779 -0.2941 -0.9266
  361MOL0     C47525   1.902   9.063   2.710  0.1442 -1.0114  0.1770
  361MOL0     C47526   2.018   8.992   2.680  0.6170 -0.2691  0.8243
  361MOL0     C47527   2.139   9.057   2.661 -0.3743  1.4078  0.0179
  361MOL0     O47528   2.245   8.980   2.627  0.2664 -0.4282  0.4532
  361MOL0     C47529   2.229   8.876   2.528 -1.0276  0.9892 -0.4033
  361MOL0     C47530   2.377   8.830   2.497  0.3907  0.0441  0.1908
  361MOL0     C47531   2.374   8.689   2.443  0.0503  0.8328  1.3929
  361MOL0     C47532   2.511   8.646   2.398  0.2761  0.1739  0.3099
  361MOL0     C47533   2.516   8.496   2.350  0.1623 -0.7184 -0.4583
  361MOL0     C47534   2.484   8.488   2.197 -0.4396  1.1263 -0.4878
  361MOL0     C47535   2.517   8.340   2.156 -0.7053  0.5249 -0.2113
  361MOL0     C47536   2.465   8.308   2.016 -0.3852  0.5624  0.5688
  361MOL0     N47537   2.321   8.332   2.015  1.2074  0.7885  1.2445
  361MOL0     C47538   2.253   8.449   1.990 -0.3626 -0.4059 -0.8984
  361MOL0     C47539   2.121   8.432   2.032 -0.3368  0.3880  0.2880
  361MOL0     C47540   2.006   8.533   2.021  0.6435  0.8840  0.4511
  361MOL0     C47541   1.981   8.602   2.152 -0.1251 -0.7621 -1.3954
  361MOL0     C47542   1.905   8.528   2.266  0.4657 -0.3626 -0.1012
  361MOL0     C47543   1.926   8.582   2.403 -0.0516  0.8436  0.4985
  361MOL0     O47544   1.916   8.723   2.400  0.1333 -0.1992  0.0017
  361MOL0     C47545   1.796   8.780   2.445 -0.3023 -0.7969  0.7242
  361MOL0     C47546   1.775   8.909   2.392  0.0615 -0.5459  0.3756
  361MOL0     C47547   1.667   8.984   2.439 -0.4502 -0.4571  0.5378
  361MOL0     C47548   1.562   8.926   2.512 -0.3385 -0.3530 -0.9388
  361MOL0     C47549   1.425   8.988   2.537 -0.4857 -0.5612 -0.4992
  361MOL0     O47550   1.404   9.091   2.450  0.5759  0.0961 -0.3878
  361MOL0     C47551   1.270   9.113   2.415  0.2332 -0.8095 -1.3103
  361MOL0     C47552   1.159   9.020   2.420  1.3006  0.7784 -0.6745
  361MOL0     C47553   1.030   9.043   2.355  0.4100 -0.1802  0.4345
  361MOL0     C47554   1.020   9.167   2.293 -0.4828  0.8367  0.2739
  361MOL0     O47555   0.908   9.225   2.233 -0.6736  0.7240  0.2125
  361MOL0     C47556   0.779   9.183   2.275 -0.0654 -0.5797  0.5157
  361MOL0     C47557   0.683   9.174   2.152 -0.0314 -0.3473  0.3748
  361MOL0     C47558   0.674   9.306   2.075 -1.5011 -0.7185  0.8064
  361MOL0     C47559   0.575   9.311   1.957 -0.7034  0.7055 -1.2125
  361MOL0     C47560   0.425   9.287   2.005  0.0545  0.5073  0.5441
  361MOL0     C47561   0.374   9.144   1.961 -1.0078 -0.0866 -0.3760
  361MOL0     C47562   0.219   9.141   1.975 -0.2324  0.0851 -0.1785
  361MOL0     C47563   0.165   9.004   1.940  0.5171 -1.1842 -0.1724
  361MOL0    Cl47564  -0.014   9.017   1.964 -0.2498 -0.0885 -0.0570
  361MOL0     C47565   1.133   9.259   2.280 -0.0799  0.1790  0.1023
  361MOL0     C47566   1.251   9.227   2.343 -0.4974 -0.3418 -0.0261
  361MOL0     O47567   1.354   8.949   2.635 -0.2895  0.0977 -0.1934
  361MOL0     C47568   1.582   8.798   2.568 -0.1569  0.4024  0.3300
  361MOL0     C47569   1.698   8.730   2.541 -0.8964  0.0198  0.2225
  361MOL0     N47570   2.114   8.292   2.067  0.0634 -0.7938  1.1319
  361MOL0     N47571   2.233   8.241   2.056 -0.1539 -0.8016 -0.1574
  361MOL0     C47572   2.152   9.192   2.678 -0.4080  0.7069 -0.6009
  361MOL0     C47573   2.039   9.262   2.713  0.5745  0.2771  0.1856
  361MOL0     C47574   1.563   9.309   2.804  0.0218  0.1657  0.2651
  361MOL0     C47575   1.446   9.237   2.842  0.6823 -1.1829  0.3465
  361MOL0     C47576   1.315   9.285   2.804  0.1337  0.4916 -0.1443
  361MOL0     C47577   1.303   9.405   2.734 -0.9983  0.3676 -0.3978
  361MOL0     O47578   1.192   9.444   2.667 -0.1052 -0.2114  0.1154
  361MOL0     C47579   1.066   9.380   2.688  0.3269 -0.4278 -0.0350
  361MOL0     C47580   0.975   9.424   2.575  0.1581 -0.4420  0.0079
  361MOL0     C47581   0.914   9.568   2.599  0.0065  0.2423 -0.5256
  361MOL0     C47582   0.761   9.558   2.644 -0.0746 -0.3011 -0.4015
  361MOL0     C47583   0.736   9.482   2.763  0.3532 -0.1405 -0.3383
  361MOL0     C47584   0.707   9.410   2.857 -0.4075 -0.0636  0.8652
  361MOL0     C47585   1.424   9.480   2.718 -0.2172  0.3393  0.2162
  361MOL0     C47586   1.550   9.428   2.738  0.7103  0.3249 -0.2787
  361MOL0     H47587   1.806   9.013   2.721  0.8801 -2.7239 -0.8328
  361MOL0     H47588   2.014   8.884   2.685 -2.0744 -0.2285  1.3598
  361MOL0     H47589   2.179   8.914   2.438  2.5603  2.2662 -2.0636
  361MOL0     H47590   2.172   8.790   2.564 -1.4554  0.6498 -1.8089
  361MOL0     H47591   2.431   8.828   2.592 -0.2418 -3.8509  0.6251
  361MOL0     H47592   2.423   8.902   2.429  2.0687  1.3111  2.5288
  361MOL0     H47593   2.302   8.672   2.362  1.7246  2.5201 -0.5468
  361MOL0     H47594   2.343   8.625   2.526 -2.0666  1.5942  1.2538
  361MOL0     H47595   2.556   8.721   2.332 -2.4563  0.5463 -1.2419
  361MOL0     H47596   2.578   8.648   2.485 -0.0050  1.9038  0.5198
  361MOL0     H47597   2.443   8.432   2.401  0.0734 -1.2292 -1.2070
  361MOL0     H47598   2.617   8.457   2.358  1.7220  2.5852 -2.1888
  361MOL0     H47599   2.550   8.556   2.142  1.3016  1.2687  1.6315
  361MOL0     H47600   2.375   8.502   2.193 -0.6583 -0.2375 -0.0310
  361MOL0     H47601   2.626   8.336   2.146 -0.9119  0.3247 -3.3425
  361MOL0     H47602   2.494   8.269   2.236 -0.6766  0.5273 -0.2003
  361MOL0     H47603   2.496   8.212   1.974  0.6644  1.7482 -1.5431
  361MOL0     H47604   2.509   8.379   1.946 -5.2144 -1.1329 -4.8900
  361MOL0     H47605   2.295   8.542   1.952  0.4699 -1.2394 -2.0666
  361MOL0     H47606   1.915   8.477   1.996  2.1955 -0.4454 -2.8008
  361MOL0     H47607   2.022   8.606   1.941  0.6496  0.7826  0.3603
  361MOL0     H47608   1.923   8.693   2.133 -0.3754 -1.1031 -2.3236
  361MOL0     H47609   2.080   8.640   2.179 -0.5797  0.6359 -1.5984
  361MOL0     H47610   1.798   8.535   2.245  0.7307  1.8822 -1.0160
  361MOL0     H47611   1.937   8.424   2.257 -0.1141 -0.5084 -0.5820
  361MOL0     H47612   2.023   8.545   2.438  0.5876  1.2400 -0.7821
  361MOL0     H47613   1.852   8.537   2.470  2.3071 -1.1159  1.9587
  361MOL0     H47614   1.840   8.951   2.316 -2.2647  0.7724 -1.0105
  361MOL0     H47615   1.658   9.085   2.399  3.6028 -0.5189 -1.0128
  361MOL0     H47616   1.169   8.926   2.474 -1.6063 -0.8941 -2.7227
  361MOL0     H47617   0.952   8.967   2.355  0.2522 -0.0606 -1.0873
  361MOL0     H47618   0.721   9.258   2.329 -0.0814  0.9787 -1.5440
  361MOL0     H47619   0.797   9.084   2.317  0.3039 -0.3255  0.9690
  361MOL0     H47620   0.587   9.138   2.190 -0.2538 -1.7637 -1.4102
  361MOL0     H47621   0.720   9.101   2.080 -0.4445 -0.3059  0.1183
  361MOL0     H47622   0.774   9.329   2.036 -0.9333  0.0544  2.5909
  361MOL0     H47623   0.641   9.385   2.143 -2.6325 -0.6582  0.2062
  361MOL0     H47624   0.576   9.412   1.915 -4.4219  1.2889 -0.2242
  361MOL0     H47625   0.614   9.238   1.885  1.1117 -0.0555  0.4513
  361MOL0     H47626   0.366   9.372   1.970 -0.4293 -0.6380 -1.5865
  361MOL0     H47627   0.421   9.291   2.114  2.4878 -3.0086  0.9378
  361MOL0     H47628   0.423   9.073   2.029  0.6084  1.1872 -0.1256
  361MOL0     H47629   0.401   9.121   1.857  2.8839 -1.3385  0.7274
  361MOL0     H47630   0.180   9.175   2.071 -0.4975 -3.8539  1.3210
  361MOL0     H47631   0.168   9.200   1.899 -1.1423 -0.0237  0.3316
  361MOL0     H47632   0.211   8.934   2.009  1.6328 -0.5664 -0.2611
  361MOL0     H47633   0.199   8.987   1.837  3.1050  0.8836  0.2397
  361MOL0     H47634   1.121   9.356   2.232  1.0204  0.0814 -0.3848
  361MOL0     H47635   1.340   9.288   2.332 -0.8861 -0.0043 -1.6035
  361MOL0     H47636   1.515   8.757   2.644  2.0281 -1.4484  1.3774
  361MOL0     H47637   1.709   8.642   2.602  2.2770  0.6426  0.7340
  361MOL0     H47638   2.251   9.225   2.646  0.6975 -0.0003  1.8520
  361MOL0     H47639   2.051   9.369   2.719  1.9116  0.2071 -0.7376
  361MOL0     H47640   1.462   9.144   2.896 -0.1570  0.4061  3.6207
  361MOL0     H47641   1.224   9.233   2.831 -0.8763  1.4526 -1.5353
  361MOL0     H47642   1.014   9.402   2.782  1.4814  0.4280  0.4377
  361MOL0     H47643   1.080   9.273   2.669  2.7288 -0.4924  1.6656
  361MOL0     H47644   1.038   9.429   2.486 -0.5818 -1.1625 -0.5659
  361MOL0     H47645   0.888   9.360   2.556 -0.0832  0.9395 -4.6900
  361MOL0     H47646   0.920   9.624   2.505 -0.1057  1.5079  0.1987
  361MOL0     H47647   0.968   9.621   2.678 -3.3778 -2.4565  4.0921
  361MOL0     H47648   0.716   9.655   2.665 -2.2737 -1.4097  0.2340
  361MOL0     H47649   0.709   9.511   2.560  3.6726 -0.6692 -2.7894
  361MOL0     H47650   0.674   9.352   2.941 -1.1222 -0.0395  0.6079
  361MOL0     H47651   1.401   9.581   2.684  0.0692  0.7109  1.1031
  361MOL0     H47652   1.637   9.492   2.721  0.8570  0.8302  2.0367
  362MOL0     O47653   5.395   5.772   7.018  0.5086 -0.0989 -0.5908
  362MOL0     C47654   5.475   5.721   7.099 -0.5085 -0.3273 -0.0116
  362MOL0     O47655   5.448   5.672   7.227 -0.5586  0.4579  0.0374
  362MOL0     C47656   5.320   5.639   7.247 -0.2336  0.1881 -0.2807
  362MOL0     C47657   5.273   5.508   7.242  0.5438  0.3084  0.4441
  362MOL0     C47658   5.144   5.481   7.272  0.0301  0.3466 -0.3891
  362MOL0     C47659   5.047   5.584   7.303  0.3461 -0.1420 -0.4664
  362MOL0     O47660   4.925   5.545   7.345 -0.4382 -0.0635 -0.2954
  362MOL0     C47661   4.905   5.502   7.486 -0.5922 -0.3625 -0.5507
  362MOL0     C47662   4.762   5.469   7.534  0.5679  0.3397  0.5789
  362MOL0     C47663   4.661   5.580   7.499  0.6202  0.0097  0.3594
  362MOL0     C47664   4.526   5.575   7.585  0.9507  0.2656  0.4359
  362MOL0     C47665   4.423   5.684   7.533 -0.0330 -0.4521 -0.2483
  362MOL0     C47666   4.280   5.642   7.562  0.4021 -0.7002 -0.1251
  362MOL0     C47667   4.188   5.765   7.535 -0.3617  0.1677 -0.2747
  362MOL0     C47668   4.040   5.735   7.551 -0.1291 -0.0926 -0.2902
  362MOL0     N47669   3.964   5.848   7.501 -0.4531  0.5880 -0.8195
  362MOL0     C47670   3.880   5.922   7.585  0.0692 -0.8991  0.1334
  362MOL0     C47671   3.835   6.028   7.501  0.1044  0.5253 -1.2135
  362MOL0     C47672   3.736   6.134   7.536 -0.1382 -0.6104  0.3788
  362MOL0     C47673   3.655   6.186   7.419  0.7276  0.1813 -1.0066
  362MOL0     C47674   3.538   6.282   7.465 -0.2920  0.4931  0.3871
  362MOL0     C47675   3.414   6.212   7.514  0.1862  0.0144  1.0845
  362MOL0     O47676   3.300   6.296   7.496  0.0977 -0.6029 -0.3212
  362MOL0     C47677   3.180   6.248   7.536  0.5985  0.1235 -0.6637
  362MOL0     C47678   3.075   6.341   7.580  0.8985  0.6880 -0.7870
  362MOL0     C47679   2.955   6.294   7.628  0.3636  0.2712  0.1280
  362MOL0     C47680   2.923   6.159   7.642 -0.1173 -0.1783 -0.1267
  362MOL0     C47681   2.785   6.120   7.667  0.8891  0.1220 -0.1030
  362MOL0     O47682   2.691   6.217   7.685 -0.2516 -0.6295 -0.3737
  362MOL0     C47683   2.566   6.177   7.735 -0.2707  0.4818 -0.2865
  362MOL0     C47684   2.493   6.079   7.659 -0.8459  0.0664 -1.1400
  362MOL0     C47685   2.368   6.040   7.713  0.0455  0.0232 -0.2476
  362MOL0     C47686   2.325   6.073   7.842 -0.5368 -0.0728 -0.4270
  362MOL0     O47687   2.208   6.025   7.895  0.3293 -0.4975 -0.2904
  362MOL0     C47688   2.146   5.912   7.839  0.4845 -0.2455 -1.6492
  362MOL0     C47689   2.037   5.964   7.736 -0.5112 -0.1457 -0.2940
  362MOL0     C47690   1.920   6.038   7.798 -0.2610 -0.8176 -0.0701
  362MOL0     C47691   1.807   6.041   7.696 -0.5559 -0.3529  0.0543
  362MOL0     C47692   1.736   5.913   7.664  0.6570  0.6143  0.0017
  362MOL0     C47693   1.651   5.841   7.772 -1.2501 -0.3268  0.4043
  362MOL0     C47694   1.537   5.938   7.805  0.6996 -0.2351  0.2569
  362MOL0     C47695   1.419   5.882   7.898  0.0661  1.0504 -0.4402
  362MOL0    Cl47696   1.314   5.751   7.822  0.5632  0.1766 -0.2825
  362MOL0     C47697   2.414   6.148   7.915 -0.1161 -1.0607  0.9030
  362MOL0     C47698   2.525   6.207   7.862  0.4071 -0.0437 -0.5012
  362MOL0     O47699   2.756   5.996   7.657  0.0727 -0.6015 -0.4957
  362MOL0     C47700   3.013   6.067   7.599 -0.5058 -0.3700 -0.5205
  362MOL0     C47701   3.140   6.112   7.557 -1.0253 -0.7913 -0.2238
  362MOL0     N47702   3.885   6.004   7.377 -0.3410  0.1399 -0.6973
  362MOL0     N47703   3.955   5.900   7.373  0.2695 -0.4257  0.2436
  362MOL0     C47704   5.091   5.717   7.299  1.0848 -0.1122  0.2197
  362MOL0     C47705   5.228   5.747   7.268  0.2138 -0.1839 -0.2611
  362MOL0     C47706   5.614   5.719   7.047 -0.4946  0.0621 -0.5792
  362MOL0     C47707   5.712   5.651   7.120  0.8646 -0.3848 -0.5803
  362MOL0     C47708   5.844   5.645   7.079 -0.0564 -0.0769 -0.5115
  362MOL0     C47709   5.886   5.696   6.960  0.3878  0.4027 -0.0764
  362MOL0     O47710   6.009   5.706   6.909 -0.6308  0.2974 -0.5675
  362MOL0     C47711   6.113   5.667   7.006 -0.0106  0.1787 -0.4424
  362MOL0     C47712   6.253   5.675   6.958  0.2570 -0.7348  0.0123
  362MOL0     C47713   6.352   5.718   7.071 -0.1895  0.7070  0.1730
  362MOL0     C47714   6.347   5.610   7.178 -0.0948  0.4954 -0.3530
  362MOL0     C47715   6.444   5.595   7.290  0.5484  0.0267 -0.5810
  362MOL0     C47716   6.532   5.609   7.381 -0.0042 -0.0172 -0.2180
  362MOL0     C47717   5.782   5.742   6.873 -0.1411 -1.4695  0.1028
  362MOL0     C47718   5.650   5.751   6.915 -0.7532 -0.3467 -0.2301
  362MOL0     H47719   5.339   5.428   7.210  2.0468  1.6222  0.1579
  362MOL0     H47720   5.099   5.384   7.259 -1.2138  0.9858 -1.1101
  362MOL0     H47721   4.936   5.595   7.534 -1.5351 -1.4577  2.3612
  362MOL0     H47722   4.986   5.435   7.515  2.3697  1.9581 -2.8194
  362MOL0     H47723   4.759   5.446   7.641  0.3233 -1.4651  0.2149
  362MOL0     H47724   4.724   5.382   7.479 -0.4635  2.6543 -2.6586
  362MOL0     H47725   4.654   5.573   7.390  2.1975 -0.6086  0.2722
  362MOL0     H47726   4.704   5.679   7.517  2.2047 -0.3796 -0.9723
  362MOL0     H47727   4.488   5.472   7.581  0.2717  0.5593 -1.3807
  362MOL0     H47728   4.543   5.607   7.688 -0.6393  1.6741  0.3034
  362MOL0     H47729   4.439   5.706   7.427 -0.6183  0.7461 -0.1052
  362MOL0     H47730   4.438   5.780   7.584 -1.5158 -1.6061  2.6112
  362MOL0     H47731   4.280   5.609   7.666  1.0815 -1.9803 -0.5148
  362MOL0     H47732   4.250   5.560   7.497 -0.4920  0.9628 -1.9000
  362MOL0     H47733   4.212   5.853   7.596  0.1884  1.6404 -2.4967
  362MOL0     H47734   4.203   5.791   7.430  0.1963  2.0202  0.2210
  362MOL0     H47735   4.017   5.721   7.657 -0.5979 -1.3744 -0.5486
  362MOL0     H47736   4.011   5.645   7.498 -3.3722 -0.5993  2.0477
  362MOL0     H47737   3.831   5.894   7.678 -0.5964  0.0112  0.0753
  362MOL0     H47738   3.802   6.208   7.581 -0.2343 -0.2673 -0.0443
  362MOL0     H47739   3.666   6.097   7.612  0.8534 -0.8265  1.2155
  362MOL0     H47740   3.625   6.111   7.346  2.5014 -0.1084 -1.4765
  362MOL0     H47741   3.727   6.243   7.360  0.6125  0.6371 -0.7060
  362MOL0     H47742   3.578   6.347   7.542 -0.6870 -0.6924  1.6326
  362MOL0     H47743   3.513   6.345   7.379 -0.0089  0.5547  0.3482
  362MOL0     H47744   3.424   6.172   7.615  0.9175  1.3925  1.5800
  362MOL0     H47745   3.395   6.130   7.444  1.4401 -1.6519  2.6057
  362MOL0     H47746   3.095   6.448   7.576  2.4544  0.5203  1.0872
  362MOL0     H47747   2.877   6.370   7.635  0.8557  0.6360  3.0531
  362MOL0     H47748   2.536   6.054   7.562  2.5088  0.3949  0.1571
  362MOL0     H47749   2.303   5.980   7.651 -1.1352 -0.4814  1.4047
  362MOL0     H47750   2.109   5.853   7.923 -3.2705  1.6135 -1.8233
  362MOL0     H47751   2.229   5.858   7.792  0.9790 -1.9651  0.9793
  362MOL0     H47752   2.007   5.868   7.693  0.1685 -0.7660  0.5684
  362MOL0     H47753   2.091   6.029   7.668  0.0336 -1.7656 -1.4606
  362MOL0     H47754   1.953   6.139   7.824  2.0036 -0.8928 -2.2872
  362MOL0     H47755   1.880   5.998   7.892  2.4093  2.1699  2.6329
  362MOL0     H47756   1.729   6.103   7.741 -0.4855 -0.5612  0.4643
  362MOL0     H47757   1.845   6.078   7.600 -0.5762 -0.0504  0.1604
  362MOL0     H47758   1.803   5.842   7.615 -1.9696  0.6898 -4.1574
  362MOL0     H47759   1.664   5.937   7.585  1.6127 -1.1398 -1.4788
  362MOL0     H47760   1.706   5.814   7.862 -0.9811 -1.5857 -0.1182
  362MOL0     H47761   1.605   5.750   7.734 -1.1541  0.9754 -3.2510
  362MOL0     H47762   1.578   6.028   7.853 -2.1717  1.3529 -0.0393
  362MOL0     H47763   1.494   5.969   7.710  2.5151 -2.0852 -1.2499
  362MOL0     H47764   1.350   5.958   7.937 -2.1223 -1.7829  1.6846
  362MOL0     H47765   1.465   5.841   7.989 -1.1922  2.2522  0.7917
  362MOL0     H47766   2.385   6.165   8.019 -1.0734  1.9015  0.2393
  362MOL0     H47767   2.595   6.264   7.922  1.2647 -3.0912  1.6443
  362MOL0     H47768   2.990   5.961   7.596 -1.9909 -0.0982  0.3731
  362MOL0     H47769   3.214   6.033   7.560  0.2357  0.3511  0.2100
  362MOL0     H47770   5.026   5.802   7.317  2.8117  0.9474  1.9620
  362MOL0     H47771   5.275   5.843   7.289  1.0874 -0.4448 -0.9955
  362MOL0     H47772   5.680   5.610   7.215 -0.6661 -0.9433 -1.2977
  362MOL0     H47773   5.905   5.601   7.156  1.5453  0.7776 -1.2410
  362MOL0     H47774   6.109   5.562   7.034 -0.3516  0.4390  0.5265
  362MOL0     H47775   6.108   5.727   7.098  1.2835  2.2692 -1.6444
  362MOL0     H47776   6.288   5.577   6.924 -0.0034 -0.9570  0.3864
  362MOL0     H47777   6.269   5.745   6.875  2.7122 -4.3043 -2.8764
  362MOL0     H47778   6.316   5.811   7.116  1.3704  0.3335  2.3499
  362MOL0     H47779   6.454   5.732   7.033  1.0074 -2.6901  1.7604
  362MOL0     H47780   6.246   5.598   7.217 -0.2539  0.2438 -0.8231
  362MOL0     H47781   6.359   5.516   7.122 -0.6575  0.8616 -1.1105
  362MOL0     H47782   6.605   5.626   7.457  0.5569  0.3496 -0.8296
  362MOL0     H47783   5.816   5.774   6.775 -0.9990 -0.2518  0.1838
  362MOL0     H47784   5.588   5.793   6.837  1.4918  0.2197 -1.8240
  363MOL0     O47785   0.458   8.779   1.943  0.0216  0.7382  1.0295
  363MOL0     C47786   0.515   8.726   2.042 -0.1709  0.6547 -0.1041
  363MOL0     O47787   0.450   8.662   2.142  0.3393 -0.3447 -0.5130
  363MOL0     C47788   0.314   8.651   2.126 -1.2891  0.6652  0.3980
  363MOL0     C47789   0.224   8.700   2.223 -0.7834 -0.0315 -1.0854
  363MOL0     C47790   0.085   8.681   2.210 -0.0092 -0.0030 -0.2799
  363MOL0     C47791   0.032   8.628   2.094  0.0519  0.4226  0.9619
  363MOL0     O47792  -0.097   8.611   2.066  0.2772 -0.9229 -0.0213
  363MOL0     C47793  -0.195   8.676   2.155 -0.8277  0.1602 -0.4332
  363MOL0     C47794  -0.341   8.659   2.104 -0.4538  0.0674 -0.5771
  363MOL0     C47795  -0.373   8.757   1.995  0.1997 -0.2055 -0.8131
  363MOL0     C47796  -0.489   8.845   2.037 -0.1311 -1.0190  0.5787
  363MOL0     C47797  -0.546   8.930   1.921 -0.3867 -0.2231  0.5232
  363MOL0     C47798  -0.440   8.997   1.835  0.2709 -0.1956  0.6333
  363MOL0     C47799  -0.505   9.087   1.722  0.0213  0.0752  0.4746
  363MOL0     C47800  -0.596   9.009   1.621 -0.1265  0.4174  0.3341
  363MOL0     N47801  -0.732   9.040   1.623  0.1861 -0.2843 -0.0327
  363MOL0     C47802  -0.832   8.947   1.624  0.6663 -0.1263  0.5604
  363MOL0     C47803  -0.948   9.011   1.582  0.0286  0.7177 -0.2055
  363MOL0     C47804  -1.067   8.946   1.536 -0.0326 -0.4354  0.1813
  363MOL0     C47805  -1.046   8.933   1.380  0.4177 -0.2220 -0.3147
  363MOL0     C47806  -1.172   8.897   1.312 -0.0428  0.0176  0.5939
  363MOL0     C47807  -1.169   8.936   1.168 -1.2934  0.2630  0.2689
  363MOL0     O47808  -1.254   8.848   1.103  0.0047  1.3303  0.5992
  363MOL0     C47809  -1.354   8.903   1.025 -1.5191 -0.8718  1.1221
  363MOL0     C47810  -1.491   8.882   1.057  0.9665 -0.5278  0.9212
  363MOL0     C47811  -1.580   8.922   0.959  0.7301 -1.1370 -0.2816
  363MOL0     C47812  -1.545   8.990   0.836 -0.2071  0.1145 -0.1166
  363MOL0     C47813  -1.650   9.038   0.742  0.0357 -0.8002  0.3187
  363MOL0     O47814  -1.755   8.947   0.743 -0.1843 -0.0468  0.6292
  363MOL0     C47815  -1.871   8.978   0.666  0.0238 -0.4287  0.0609
  363MOL0     C47816  -1.931   9.109   0.643  0.2760 -0.8023  0.4968
  363MOL0     C47817  -2.054   9.122   0.571  0.1735  0.3736  0.4201
  363MOL0     C47818  -2.133   9.013   0.532  0.2527 -0.2566 -0.6282
  363MOL0     O47819  -2.243   9.038   0.452 -0.6360  0.2071  0.2455
  363MOL0     C47820  -2.358   8.957   0.493  0.3051  0.5811 -0.1442
  363MOL0     C47821  -2.462   9.060   0.540  0.3155 -0.0581 -0.9144
  363MOL0     C47822  -2.587   8.998   0.607 -0.0084 -0.2986  0.3265
  363MOL0     C47823  -2.705   9.098   0.648 -0.8960 -0.0098 -0.1527
  363MOL0     C47824  -2.835   9.027   0.689 -0.6817 -0.0749 -0.3385
  363MOL0     C47825  -2.817   8.949   0.813  0.4643  0.2541 -1.2948
  363MOL0     C47826  -2.926   8.845   0.828 -0.1198 -1.3596  0.3414
  363MOL0     C47827  -2.895   8.754   0.949  0.0254  0.0007 -0.5622
  363MOL0    Cl47828  -2.882   8.834   1.103  0.3667 -0.0022 -0.0631
  363MOL0     C47829  -2.072   8.887   0.552 -0.4308 -0.9661  0.4955
  363MOL0     C47830  -1.957   8.871   0.630 -1.0226  0.3376  0.3521
  363MOL0     O47831  -1.640   9.143   0.672 -0.0776 -0.0916  0.1856
  363MOL0     C47832  -1.407   9.013   0.818  0.0989 -0.6438 -0.0622
  363MOL0     C47833  -1.316   8.976   0.906  0.0115  0.1483  0.7886
  363MOL0     N47834  -0.915   9.145   1.571  0.0756  0.0361  0.1122
  363MOL0     N47835  -0.788   9.160   1.591 -1.0892 -0.5139 -0.1759
  363MOL0     C47836   0.124   8.577   1.996  0.5333  0.4856 -1.0012
  363MOL0     C47837   0.262   8.583   2.015  0.0506 -0.9870  0.7034
  363MOL0     C47838   0.660   8.735   2.064  1.1397 -0.0530 -1.1478
  363MOL0     C47839   0.731   8.846   2.022  0.6985  0.1534  0.0535
  363MOL0     C47840   0.866   8.851   2.046 -0.4572 -0.0481 -0.2961
  363MOL0     C47841   0.931   8.756   2.119 -0.6247  0.1883  0.2760
  363MOL0     O47842   1.067   8.754   2.149  0.5674  0.0423  0.2772
  363MOL0     C47843   1.152   8.861   2.109 -0.7660  0.1200  0.6903
  363MOL0     C47844   1.296   8.842   2.161 -0.3378  0.0457 -0.2271
  363MOL0     C47845   1.365   8.724   2.096  0.1657 -0.0168  0.2975
  363MOL0     C47846   1.497   8.680   2.165  0.2781  0.4249  0.4488
  363MOL0     C47847   1.573   8.570   2.089 -0.3555 -0.0686 -0.7300
  363MOL0     C47848   1.623   8.479   2.034  0.6522 -1.0676 -0.0026
  363MOL0     C47849   0.857   8.655   2.182  0.2785 -0.1813 -0.1616
  363MOL0     C47850   0.719   8.642   2.152  0.5973 -0.1575 -0.4053
  363MOL0     H47851   0.270   8.742   2.311 -1.3567 -3.2504  0.9033
  363MOL0     H47852   0.025   8.736   2.281  0.1418  1.2994 -1.1066
  363MOL0     H47853  -0.178   8.783   2.173 -0.7318  0.1768 -0.6203
  363MOL0     H47854  -0.199   8.627   2.253 -1.0940  2.1139  0.5789
  363MOL0     H47855  -0.404   8.666   2.193 -0.1055 -1.6619 -0.1455
  363MOL0     H47856  -0.348   8.558   2.061 -2.6154 -1.4088  2.8113
  363MOL0     H47857  -0.408   8.700   1.909 -0.4854 -2.7671  1.0627
  363MOL0     H47858  -0.282   8.810   1.966  0.6323 -1.3049 -1.5049
  363MOL0     H47859  -0.573   8.793   2.085 -1.1537 -0.9915 -1.1266
  363MOL0     H47860  -0.443   8.911   2.111  1.9712 -0.0553 -1.4857
  363MOL0     H47861  -0.611   9.011   1.956 -2.8964 -1.4031 -1.0917
  363MOL0     H47862  -0.607   8.866   1.857 -0.6101  1.3428 -0.8872
  363MOL0     H47863  -0.388   8.914   1.785 -0.8055 -1.7536  1.9645
  363MOL0     H47864  -0.373   9.054   1.900 -1.3282  2.6172 -0.0268
  363MOL0     H47865  -0.556   9.173   1.766  2.1677  1.2054  0.8734
  363MOL0     H47866  -0.430   9.126   1.653 -0.5359  3.4988  1.6241
  363MOL0     H47867  -0.577   8.902   1.623 -2.2526 -0.0222  3.0751
  363MOL0     H47868  -0.571   9.047   1.522 -2.1231  0.9786 -0.0119
  363MOL0     H47869  -0.823   8.842   1.649 -1.0580 -0.4850 -0.1478
  363MOL0     H47870  -1.157   9.003   1.560  0.3901  0.0213  0.6965
  363MOL0     H47871  -1.083   8.845   1.577 -0.2481 -1.6105 -2.5659
  363MOL0     H47872  -0.968   8.860   1.358  0.8199 -0.1573  0.8153
  363MOL0     H47873  -1.007   9.028   1.343  0.0891 -0.7129 -1.9976
  363MOL0     H47874  -1.184   8.788   1.314  0.4667 -0.0997 -1.4318
  363MOL0     H47875  -1.255   8.947   1.363  0.0833  1.2400 -0.3677
  363MOL0     H47876  -1.067   8.921   1.130 -2.0821 -0.7668 -1.5863
  363MOL0     H47877  -1.192   9.042   1.157 -0.0534  0.3923 -1.6801
  363MOL0     H47878  -1.504   8.844   1.157  1.9839 -0.9779  0.8914
  363MOL0     H47879  -1.686   8.920   0.986  1.1908 -0.0299  1.8110
  363MOL0     H47880  -1.881   9.205   0.652 -3.2599  1.2553  0.0597
  363MOL0     H47881  -2.095   9.219   0.548  0.8765  0.1524 -2.0409
  363MOL0     H47882  -2.340   8.885   0.573 -0.8761 -0.8607 -1.1188
  363MOL0     H47883  -2.394   8.906   0.403  3.5224  1.4287 -2.1069
  363MOL0     H47884  -2.488   9.115   0.449  0.5665 -0.9743 -1.5627
  363MOL0     H47885  -2.411   9.127   0.609  1.0684 -0.6737 -0.8494
  363MOL0     H47886  -2.557   8.955   0.703 -0.4179  2.8061  1.9850
  363MOL0     H47887  -2.623   8.919   0.540  1.7821  0.7494 -2.0134
  363MOL0     H47888  -2.677   9.163   0.732 -1.4697 -2.4211  2.0257
  363MOL0     H47889  -2.727   9.158   0.559  0.6202 -0.4878 -0.8787
  363MOL0     H47890  -2.845   8.951   0.611  0.1347 -0.3907 -0.1454
  363MOL0     H47891  -2.922   9.092   0.704 -0.7130 -0.0551 -0.6048
  363MOL0     H47892  -2.814   9.005   0.907 -1.4832 -1.0392 -0.4035
  363MOL0     H47893  -2.722   8.894   0.815 -0.7254 -1.9288  1.1837
  363MOL0     H47894  -3.028   8.879   0.847  0.9247  0.6374  2.9211
  363MOL0     H47895  -2.931   8.779   0.741 -1.1026 -0.9317  0.0659
  363MOL0     H47896  -2.799   8.705   0.932 -0.2120 -1.3687  1.6823
  363MOL0     H47897  -2.973   8.678   0.961  1.4402 -1.4583 -0.2447
  363MOL0     H47898  -2.132   8.799   0.529 -3.7371  1.1953  0.2518
  363MOL0     H47899  -1.918   8.770   0.642 -1.3384  0.0638 -0.8102
  363MOL0     H47900  -1.388   9.063   0.724 -3.0343  0.1308 -0.4209
  363MOL0     H47901  -1.212   8.993   0.882  0.7742 -3.8990  0.5485
  363MOL0     H47902   0.083   8.520   1.913 -1.6447  1.9396 -1.0261
  363MOL0     H47903   0.333   8.541   1.945  0.6376 -2.6395  2.2034
  363MOL0     H47904   0.667   8.919   1.973 -1.7449  0.1906  2.9784
  363MOL0     H47905   0.922   8.941   2.022 -1.9224  0.9052 -0.2549
  363MOL0     H47906   1.107   8.958   2.134  3.5610  3.0223 -1.3359
  363MOL0     H47907   1.159   8.862   2.000  2.6202 -1.3101  0.7602
  363MOL0     H47908   1.344   8.938   2.141 -0.8538  0.3836  0.1066
  363MOL0     H47909   1.285   8.823   2.269  0.1521 -1.4431 -0.4157
  363MOL0     H47910   1.391   8.761   1.996 -1.3682  0.1639 -0.0610
  363MOL0     H47911   1.307   8.633   2.078 -1.0122  0.6133  0.7756
  363MOL0     H47912   1.562   8.768   2.165  3.0248 -1.3976  2.9646
  363MOL0     H47913   1.479   8.648   2.268 -0.1515 -0.2454  0.1704
  363MOL0     H47914   1.671   8.390   1.997 -0.3004 -0.1639 -3.8228
  363MOL0     H47915   0.899   8.574   2.242 -2.3080  0.3716  2.6279
  363MOL0     H47916   0.660   8.565   2.199  3.1138 -0.5634  2.3715
  364MOL0     O47917  10.022   0.354   8.958  0.2414  0.1950  0.9116
  364MOL0     C47918  10.104   0.272   8.924 -0.1935  0.5018  0.5142
  364MOL0     O47919  10.084   0.161   8.854 -0.3662 -0.2972 -0.3567
  364MOL0     C47920   9.966   0.091   8.829  0.5024  0.8858  0.8774
  364MOL0     C47921   9.975  -0.025   8.741  0.0168 -0.2143  0.3894
  364MOL0     C47922   9.871  -0.116   8.709  0.0957  0.7723  0.3208
  364MOL0     C47923   9.748  -0.081   8.762 -0.8277 -0.0362 -0.3537
  364MOL0     O47924   9.642  -0.158   8.720 -0.7019 -0.0703 -0.1830
  364MOL0     C47925   9.573  -0.235   8.821 -0.2209  0.7414  0.2035
  364MOL0     C47926   9.435  -0.261   8.778 -0.5004  0.3308 -0.5946
  364MOL0     C47927   9.364  -0.360   8.871 -0.0292  0.0527 -0.1086
  364MOL0     C47928   9.222  -0.381   8.814 -0.3317  0.6480  0.1988
  364MOL0     C47929   9.144  -0.497   8.883  0.2608  0.2362 -0.5909
  364MOL0     C47930   9.093  -0.460   9.026  0.7109  0.0746  0.3882
  364MOL0     C47931   8.979  -0.351   9.013  0.1552 -0.2554 -0.4831
  364MOL0     C47932   8.885  -0.334   9.138  0.3587  0.5127 -0.4407
  364MOL0     N47933   8.936  -0.292   9.267 -0.2693 -0.1014 -0.0960
  364MOL0     C47934   9.040  -0.348   9.352  0.4495  0.0131  0.2789
  364MOL0     C47935   9.037  -0.263   9.455  0.6904  1.0344  0.0707
  364MOL0     C47936   9.117  -0.267   9.582  0.4649  0.1694 -0.7057
  364MOL0     C47937   9.262  -0.232   9.542  0.6379  0.6837 -0.3116
  364MOL0     C47938   9.366  -0.275   9.640  0.7311 -0.7514  0.7706
  364MOL0     C47939   9.502  -0.279   9.584 -0.8945  0.2193 -0.0294
  364MOL0     O47940   9.567  -0.157   9.622 -1.0109  0.4761  0.4786
  364MOL0     C47941   9.701  -0.156   9.643 -0.5536  0.2186 -0.5862
  364MOL0     C47942   9.754  -0.030   9.663  0.7044  0.6351 -0.4750
  364MOL0     C47943   9.895  -0.010   9.665 -0.0085  0.0325 -0.1818
  364MOL0     C47944   9.988  -0.114   9.646  0.3205  0.5220  0.1633
  364MOL0     C47945  10.135  -0.094   9.640 -0.2175  0.3205 -0.0287
  364MOL0     O47946  10.174   0.020   9.706 -0.0318 -0.9677 -0.2447
  364MOL0     C47947  10.311   0.035   9.735  1.1655 -0.3696  0.3059
  364MOL0     C47948  10.366   0.166   9.737 -0.1940  0.2927 -0.7630
  364MOL0     C47949  10.504   0.185   9.748 -0.4061  0.4832 -1.1717
  364MOL0     C47950  10.596   0.083   9.770  1.3930  0.9596  0.2883
  364MOL0     O47951  10.727   0.110   9.779 -0.3189 -0.1752 -0.5123
  364MOL0     C47952  10.816   0.010   9.741 -1.1391 -0.4144 -0.8675
  364MOL0     C47953  10.956   0.057   9.787  0.2682 -0.5419 -0.8455
  364MOL0     C47954  11.055  -0.055   9.765 -0.1164 -0.0633  0.0353
  364MOL0     C47955  11.198  -0.012   9.754 -0.2450 -0.3653 -0.3081
  364MOL0     C47956  11.244   0.046   9.892 -0.4083 -0.7799 -0.2471
  364MOL0     C47957  11.398   0.040   9.899  0.3674  0.0999 -0.1714
  364MOL0     C47958  11.465   0.120  10.015 -0.1675 -0.1965 -0.4948
  364MOL0     C47959  11.605   0.089  10.064 -1.6312 -0.2938 -0.2923
  364MOL0    Cl47960  11.656   0.221  10.161 -0.2539  0.2555  0.2516
  364MOL0     C47961  10.532  -0.048   9.765  0.3672 -0.1466 -0.4473
  364MOL0     C47962  10.399  -0.066   9.762 -0.1711 -0.5094 -0.0880
  364MOL0     O47963  10.209  -0.178   9.584  0.6281 -0.6665  0.7811
  364MOL0     C47964   9.935  -0.242   9.618  0.5461  0.0525 -0.2267
  364MOL0     C47965   9.797  -0.255   9.609 -0.6085  0.1495 -0.0441
  364MOL0     N47966   8.944  -0.167   9.429  0.3587  0.0128 -0.4241
  364MOL0     N47967   8.880  -0.180   9.326 -0.4539 -0.1301  0.3829
  364MOL0     C47968   9.734   0.028   8.850 -0.3380 -0.5012  0.6639
  364MOL0     C47969   9.838   0.109   8.888 -0.9238 -0.5191  0.2786
  364MOL0     C47970  10.247   0.307   8.950  0.2777 -0.1957 -0.0912
  364MOL0     C47971  10.349   0.225   8.904  0.5307 -0.0856  0.0621
  364MOL0     C47972  10.482   0.252   8.932  0.2870  0.0121 -0.8585
  364MOL0     C47973  10.520   0.373   9.000  0.4929 -0.8151 -0.2660
  364MOL0     O47974  10.654   0.373   9.026 -0.1076 -0.2984  0.0822
  364MOL0     C47975  10.707   0.473   9.104 -0.5312 -0.7931  0.4692
  364MOL0     C47976  10.859   0.471   9.104  0.6624 -0.0720 -0.9233
  364MOL0     C47977  10.925   0.495   8.971  0.0312  0.2871  0.4788
  364MOL0     C47978  11.079   0.475   8.973 -0.1264 -0.6674 -0.1793
  364MOL0     C47979  11.147   0.552   9.079  0.0752  0.0670 -0.2879
  364MOL0     C47980  11.199   0.625   9.162 -0.5498  0.3113  0.1385
  364MOL0     C47981  10.414   0.457   9.053  0.0845 -0.6521 -0.1923
  364MOL0     C47982  10.281   0.425   9.028 -0.1043 -0.2829 -0.2167
  364MOL0     H47983  10.075  -0.049   8.707 -0.5724 -1.8504 -0.3029
  364MOL0     H47984   9.882  -0.205   8.648  1.7941  0.0818  1.5520
  364MOL0     H47985   9.576  -0.193   8.922  4.2714  0.7100  0.2620
  364MOL0     H47986   9.630  -0.328   8.831  0.0660  0.8706 -0.2160
  364MOL0     H47987   9.434  -0.298   8.675 -2.1992  1.2199 -0.9416
  364MOL0     H47988   9.388  -0.162   8.781  0.8134  0.9940 -1.0655
  364MOL0     H47989   9.365  -0.328   8.976  2.8494  1.8668 -0.5800
  364MOL0     H47990   9.423  -0.451   8.862  1.7140  0.9834  1.3039
  364MOL0     H47991   9.165  -0.288   8.806  1.1270  1.6630  1.0837
  364MOL0     H47992   9.229  -0.418   8.711  0.7713 -0.2847  0.5929
  364MOL0     H47993   9.199  -0.591   8.892  2.2269  1.4725  1.3680
  364MOL0     H47994   9.059  -0.516   8.817 -0.2592 -1.9021  0.6099
  364MOL0     H47995   9.173  -0.436   9.096  0.8905  0.5778  0.0149
  364MOL0     H47996   9.035  -0.547   9.057 -0.6904 -0.0512 -2.2996
  364MOL0     H47997   9.022  -0.251   9.002  0.8352 -0.5635 -0.6614
  364MOL0     H47998   8.920  -0.374   8.924  3.2448  0.7583 -2.9758
  364MOL0     H47999   8.839  -0.430   9.163  1.7607  0.5688  2.8144
  364MOL0     H48000   8.806  -0.262   9.113  1.7737  2.7744  1.2019
  364MOL0     H48001   9.106  -0.431   9.329  0.4715  0.1425 -0.1311
  364MOL0     H48002   9.109  -0.366   9.626 -1.3541 -0.0526 -1.4600
  364MOL0     H48003   9.074  -0.199   9.656  0.4634  1.4200 -1.8145
  364MOL0     H48004   9.262  -0.125   9.517 -1.0400  0.5182 -1.1282
  364MOL0     H48005   9.281  -0.281   9.446  1.5219  1.4123 -0.5233
  364MOL0     H48006   9.363  -0.207   9.725 -0.1407  1.5196 -0.9875
  364MOL0     H48007   9.352  -0.378   9.676 -0.5173 -1.4459 -1.4844
  364MOL0     H48008   9.511  -0.291   9.476  0.2018  2.8524 -0.3209
  364MOL0     H48009   9.553  -0.360   9.637  1.8005  2.2873  0.8352
  364MOL0     H48010   9.678   0.046   9.680  0.7531  0.8770 -1.2800
  364MOL0     H48011   9.932   0.087   9.695 -0.1188  0.0798 -0.1960
  364MOL0     H48012  10.299   0.250   9.719  0.1692  0.7303 -0.0871
  364MOL0     H48013  10.545   0.285   9.737 -0.5144  1.1275  2.7165
  364MOL0     H48014  10.826  -0.009   9.634  0.1374 -1.6614 -0.5590
  364MOL0     H48015  10.792  -0.081   9.797  1.0386  0.1348  1.1243
  364MOL0     H48016  10.950   0.097   9.889 -0.9953  0.2084 -1.1919
  364MOL0     H48017  10.986   0.137   9.720  1.6173  1.5596  2.0531
  364MOL0     H48018  11.026  -0.114   9.677 -1.8021  0.7902 -0.0294
  364MOL0     H48019  11.048  -0.121   9.851 -2.2529  0.4208  0.2868
  364MOL0     H48020  11.261  -0.096   9.725  0.2696  0.2275 -0.9478
  364MOL0     H48021  11.213   0.072   9.685  1.6017 -0.0723  0.3886
  364MOL0     H48022  11.194  -0.002   9.976  1.1105  0.3728  1.3924
  364MOL0     H48023  11.201   0.147   9.895  0.2090 -0.5156  0.0811
  364MOL0     H48024  11.434   0.076   9.802 -1.2997 -2.8766 -2.0593
  364MOL0     H48025  11.432  -0.064   9.898  1.0262  0.3027  0.5113
  364MOL0     H48026  11.463   0.226   9.987 -0.0623  0.0584  0.4497
  364MOL0     H48027  11.403   0.111  10.104  1.2935 -1.2745  0.4546
  364MOL0     H48028  11.684   0.061   9.993  1.0563  0.7191  2.0708
  364MOL0     H48029  11.602   0.005  10.134 -2.4164  0.3193  0.4244
  364MOL0     H48030  10.584  -0.143   9.775  1.6391  0.5866  0.0867
  364MOL0     H48031  10.350  -0.163   9.766 -1.3538  0.0652 -0.2877
  364MOL0     H48032  10.007  -0.324   9.613  1.2421  0.6605 -0.2402
  364MOL0     H48033   9.768  -0.357   9.582 -1.3068  0.0704  0.9400
  364MOL0     H48034   9.634   0.044   8.889 -0.4001 -0.2895  0.4218
  364MOL0     H48035   9.820   0.185   8.963 -0.2762 -0.4138  0.3317
  364MOL0     H48036  10.320   0.143   8.839  2.6542  0.3929 -1.6105
  364MOL0     H48037  10.564   0.195   8.888  3.9028  2.9357  1.4604
  364MOL0     H48038  10.674   0.457   9.207  3.0647 -0.6776  1.8002
  364MOL0     H48039  10.678   0.573   9.073  0.7497  0.4580  3.0682
  364MOL0     H48040  10.888   0.550   9.173 -1.5901  0.3186 -0.3300
  364MOL0     H48041  10.891   0.378   9.152 -2.4672 -0.0675  1.5514
  364MOL0     H48042  10.904   0.597   8.939  1.9027 -0.2313 -2.8046
  364MOL0     H48043  10.887   0.425   8.896  0.2480  0.3937  0.2714
  364MOL0     H48044  11.101   0.369   8.987  0.3023 -0.7662 -1.4553
  364MOL0     H48045  11.130   0.500   8.879  1.2791  3.7551  1.4840
  364MOL0     H48046  11.256   0.700   9.213  1.0091 -0.7125 -0.0309
  364MOL0     H48047  10.424   0.552   9.104 -1.4522  0.2605 -1.5078
  364MOL0     H48048  10.202   0.491   9.064 -0.4566  0.0179 -1.5080
  365MOL0     O48049   1.758   7.150   8.438 -1.2266 -0.2828  0.0248
  365MOL0     C48050   1.749   7.242   8.528 -0.4701  0.7163 -0.5975
  365MOL0     O48051   1.630   7.297   8.568  0.4329  0.4873 -0.6489
  365MOL0     C48052   1.522   7.221   8.537 -0.1052 -0.0350  0.3074
  365MOL0     C48053   1.494   7.119   8.624  0.8102  0.0753 -0.4288
  365MOL0     C48054   1.378   7.039   8.610 -0.0143 -0.1522  0.4921
  365MOL0     C48055   1.294   7.061   8.501  0.7742  0.0784  0.3405
  365MOL0     O48056   1.167   7.004   8.471  0.4081 -0.1647 -0.2737
  365MOL0     C48057   1.107   6.924   8.572 -0.0246  0.3498 -0.3365
  365MOL0     C48058   0.961   6.884   8.537 -0.1349  0.6574  0.2190
  365MOL0     C48059   0.872   7.007   8.538 -0.2046 -0.3147  0.0685
  365MOL0     C48060   0.731   6.957   8.503  0.4934 -0.0072 -0.6641
  365MOL0     C48061   0.617   7.056   8.552 -0.0113 -0.2133 -0.3919
  365MOL0     C48062   0.637   7.208   8.510  0.7155  0.6853 -0.2929
  365MOL0     C48063   0.517   7.289   8.550  0.7264 -0.2507  0.1661
  365MOL0     C48064   0.403   7.264   8.444 -0.2906  0.5669 -0.7129
  365MOL0     N48065   0.289   7.345   8.494  0.3431 -0.4418 -0.3615
  365MOL0     C48066   0.291   7.482   8.495 -0.2630  0.2055 -0.3921
  365MOL0     C48067   0.170   7.521   8.549 -0.4704 -0.2907  0.6506
  365MOL0     C48068   0.135   7.666   8.583  0.0796  1.1847  0.2562
  365MOL0     C48069   0.049   7.743   8.486  0.8782 -0.6561  0.6809
  365MOL0     C48070  -0.095   7.677   8.458  0.6805 -0.1687  0.5658
  365MOL0     C48071  -0.170   7.637   8.591 -0.9573  0.3363  0.2071
  365MOL0     O48072  -0.303   7.593   8.572 -0.5557 -0.1385 -0.4953
  365MOL0     C48073  -0.374   7.559   8.684 -1.1284 -0.2802 -0.3417
  365MOL0     C48074  -0.313   7.509   8.796  0.1947  0.0886  0.3902
  365MOL0     C48075  -0.392   7.486   8.913 -0.8909  0.1827  0.0379
  365MOL0     C48076  -0.528   7.486   8.893 -0.2511 -0.1951 -0.3597
  365MOL0     C48077  -0.617   7.464   9.013  0.3981 -0.2055 -0.7261
  365MOL0     O48078  -0.751   7.459   8.986 -0.0648  0.1705 -0.3457
  365MOL0     C48079  -0.837   7.399   9.071  0.6692  1.0129 -0.2014
  365MOL0     C48080  -0.966   7.447   9.059 -0.2959 -0.4561  0.1378
  365MOL0     C48081  -1.065   7.410   9.146  0.3149  0.5981  0.3391
  365MOL0     C48082  -1.038   7.303   9.243 -0.3420  0.3314  1.4584
  365MOL0     O48083  -1.146   7.266   9.308 -0.0802 -0.1811 -0.0962
  365MOL0     C48084  -1.164   7.132   9.355 -0.5604 -0.1124  0.1353
  365MOL0     C48085  -1.186   7.038   9.234 -0.7116 -1.4833  0.0936
  365MOL0     C48086  -1.171   6.885   9.263 -0.7914 -0.2969  0.5339
  365MOL0     C48087  -1.180   6.815   9.127  0.4789 -0.3591  0.5719
  365MOL0     C48088  -1.151   6.665   9.142  0.2796 -0.5556  0.6353
  365MOL0     C48089  -1.135   6.590   9.012  0.0438 -0.6948  0.4444
  365MOL0     C48090  -1.268   6.574   8.942  0.9227  0.0430 -0.2014
  365MOL0     C48091  -1.257   6.455   8.839  0.3337  0.1399 -0.0782
  365MOL0    Cl48092  -1.217   6.300   8.920 -0.1172  0.2021 -0.1374
  365MOL0     C48093  -0.910   7.258   9.257  0.1484 -0.2809  0.0573
  365MOL0     C48094  -0.816   7.299   9.163  0.0555 -0.4184  0.1056
  365MOL0     O48095  -0.562   7.450   9.123 -0.8431 -0.6591  0.1288
  365MOL0     C48096  -0.597   7.536   8.780 -0.6098  0.2262 -0.9232
  365MOL0     C48097  -0.514   7.572   8.676  0.0201  0.4902  0.1655
  365MOL0     N48098   0.100   7.404   8.567  0.2077 -0.6705 -0.7603
  365MOL0     N48099   0.171   7.301   8.535 -0.1712 -0.4275 -0.8338
  365MOL0     C48100   1.331   7.159   8.404 -0.4411 -0.0026 -0.3568
  365MOL0     C48101   1.442   7.243   8.419 -0.0635 -0.6066 -0.7524
  365MOL0     C48102   1.875   7.298   8.582  0.1836 -0.2425 -0.0002
  365MOL0     C48103   1.875   7.375   8.696 -0.3005  0.0586 -0.4667
  365MOL0     C48104   1.998   7.420   8.759  0.0852 -0.5030 -0.4699
  365MOL0     C48105   2.124   7.383   8.707 -0.0347 -0.5943 -0.3444
  365MOL0     O48106   2.245   7.414   8.768 -0.2057  0.6574  0.7366
  365MOL0     C48107   2.260   7.500   8.879 -0.0062  0.1438  0.0901
  365MOL0     C48108   2.404   7.491   8.924  0.6855 -0.3900  0.2249
  365MOL0     C48109   2.431   7.583   9.043 -0.1065 -0.3880 -0.2049
  365MOL0     C48110   2.585   7.597   9.063  0.3753 -0.1149 -0.2336
  365MOL0     C48111   2.661   7.621   8.940  0.1062 -0.0345  0.4811
  365MOL0     C48112   2.739   7.645   8.854 -0.4168 -1.4624  0.2046
  365MOL0     C48113   2.126   7.289   8.599 -0.0589 -0.8222 -0.5360
  365MOL0     C48114   2.006   7.260   8.531  0.0434  0.5074  0.0694
  365MOL0     H48115   1.542   7.119   8.721 -0.6461  2.6625  0.3803
  365MOL0     H48116   1.346   6.966   8.683 -0.9406 -3.2818 -2.7541
  365MOL0     H48117   1.113   6.976   8.668  0.5648 -0.5307  0.1114
  365MOL0     H48118   1.170   6.837   8.588 -0.3118  0.3910  1.1170
  365MOL0     H48119   0.912   6.819   8.610 -1.5255  1.5949  0.1452
  365MOL0     H48120   0.952   6.839   8.437 -1.3738 -2.2332  1.5198
  365MOL0     H48121   0.909   7.087   8.473  1.3034 -0.4742  0.7045
  365MOL0     H48122   0.865   7.041   8.642  0.5063  0.5326 -0.1440
  365MOL0     H48123   0.724   6.956   8.394  1.9593 -1.1899 -0.7670
  365MOL0     H48124   0.709   6.857   8.541 -2.9423  0.9571  0.2466
  365MOL0     H48125   0.627   7.058   8.661  1.6967  1.8120 -0.5104
  365MOL0     H48126   0.517   7.020   8.526 -0.5441  1.4424 -0.7658
  365MOL0     H48127   0.647   7.216   8.401 -2.8715  1.0936 -0.7124
  365MOL0     H48128   0.718   7.268   8.552  0.1247  0.9720  0.4547
  365MOL0     H48129   0.493   7.262   8.653  1.3674 -0.6099  0.2269
  365MOL0     H48130   0.551   7.393   8.552 -2.7145  0.9807 -0.4522
  365MOL0     H48131   0.378   7.157   8.450 -4.9410  1.5278  3.7070
  365MOL0     H48132   0.432   7.289   8.342  0.8665 -1.5625 -0.9640
  365MOL0     H48133   0.377   7.548   8.487 -1.8228  2.3703 -0.0688
  365MOL0     H48134   0.224   7.727   8.597  0.5575  0.4124  0.6216
  365MOL0     H48135   0.093   7.670   8.684  1.0706  2.3838  0.6566
  365MOL0     H48136   0.106   7.753   8.393 -1.4804 -0.9904 -0.8795
  365MOL0     H48137   0.030   7.844   8.523  0.2724 -0.4506 -0.1710
  365MOL0     H48138  -0.154   7.753   8.407  0.0412 -0.3514  1.0230
  365MOL0     H48139  -0.095   7.589   8.394  0.5988  1.2904 -1.5634
  365MOL0     H48140  -0.174   7.726   8.656 -4.3219 -0.8776  1.9212
  365MOL0     H48141  -0.111   7.556   8.635  0.0512  0.3487 -1.0668
  365MOL0     H48142  -0.205   7.509   8.806  0.6531  1.0513 -3.0807
  365MOL0     H48143  -0.346   7.480   9.011  0.7238 -0.1473 -0.7144
  365MOL0     H48144  -0.992   7.510   8.975  0.3026  1.8479  1.6052
  365MOL0     H48145  -1.169   7.439   9.145 -0.1212 -0.8720  0.7494
  365MOL0     H48146  -1.262   7.132   9.404 -0.6492 -0.3660 -0.0430
  365MOL0     H48147  -1.078   7.100   9.414 -1.6608 -1.4393  1.0967
  365MOL0     H48148  -1.122   7.054   9.147 -0.1308  1.1053  0.9212
  365MOL0     H48149  -1.285   7.055   9.191  0.0475  1.2393 -0.7596
  365MOL0     H48150  -1.253   6.840   9.320 -1.6113  1.0704  0.4800
  365MOL0     H48151  -1.073   6.877   9.310 -1.2190  0.6565  1.6753
  365MOL0     H48152  -1.274   6.824   9.072  1.2343  0.2367 -0.6640
  365MOL0     H48153  -1.103   6.849   9.058  0.6401 -3.5653 -1.0379
  365MOL0     H48154  -1.232   6.613   9.194  1.3229 -2.9672  0.0047
  365MOL0     H48155  -1.053   6.643   9.185  0.7862 -2.4297 -1.2906
  365MOL0     H48156  -1.093   6.492   9.040 -0.4345 -0.9110  0.4258
  365MOL0     H48157  -1.058   6.628   8.945  0.2007 -2.3010 -0.3522
  365MOL0     H48158  -1.352   6.540   9.005  1.5086 -1.8007 -0.3421
  365MOL0     H48159  -1.290   6.670   8.895 -3.3452  1.9283  4.6033
  365MOL0     H48160  -1.179   6.465   8.763  0.3935 -1.4401 -0.2566
  365MOL0     H48161  -1.352   6.442   8.785 -0.1414 -0.5744  0.8957
  365MOL0     H48162  -0.879   7.192   9.338 -0.1550  1.0381  1.2925
  365MOL0     H48163  -0.715   7.259   9.170  0.7614  1.4740  1.8725
  365MOL0     H48164  -0.703   7.559   8.786 -1.0128 -1.7627  0.6538
  365MOL0     H48165  -0.561   7.617   8.590  2.7817  1.8700 -0.7562
  365MOL0     H48166   1.270   7.169   8.315 -0.6183  0.4536 -0.1877
  365MOL0     H48167   1.474   7.305   8.335  1.4954  2.7379  2.0587
  365MOL0     H48168   1.789   7.393   8.760 -0.9892 -1.3857 -0.9326
  365MOL0     H48169   1.996   7.492   8.840  3.1710 -0.4703 -0.3148
  365MOL0     H48170   2.201   7.454   8.959 -0.5950  0.7154 -0.0082
  365MOL0     H48171   2.230   7.605   8.875 -1.1322 -0.1068  1.1954
  365MOL0     H48172   2.440   7.393   8.954  2.6617  0.1856 -0.1244
  365MOL0     H48173   2.457   7.529   8.836 -2.8030  5.8296  0.2191
  365MOL0     H48174   2.380   7.555   9.135  0.4440  0.8752  0.5113
  365MOL0     H48175   2.394   7.683   9.015  0.9037  0.2201  0.5558
  365MOL0     H48176   2.606   7.676   9.136  0.5789  0.0210 -0.4372
  365MOL0     H48177   2.612   7.502   9.110 -3.3336 -2.0150 -1.4826
  365MOL0     H48178   2.804   7.656   8.770  0.6840 -2.5869  0.8755
  365MOL0     H48179   2.221   7.254   8.559  0.4778  0.5583 -0.5152
  365MOL0     H48180   2.013   7.198   8.442 -2.4948  0.5522 -0.2334
  366MOL0     O48181   5.284   3.823   6.277 -0.1764  0.5202 -0.1628
  366MOL0     C48182   5.293   3.721   6.340 -0.7038 -0.0125 -0.0370
  366MOL0     O48183   5.182   3.659   6.406  0.2123 -0.5750 -0.1921
  366MOL0     C48184   5.063   3.728   6.416 -0.0126  0.0777 -0.0920
  366MOL0     C48185   5.051   3.860   6.460  0.1518 -1.2029  0.0124
  366MOL0     C48186   4.927   3.927   6.475  0.6158 -0.3132 -0.5962
  366MOL0     C48187   4.804   3.866   6.447  0.3196 -0.5363  0.4641
  366MOL0     O48188   4.676   3.921   6.465  0.1950  0.7263  0.0918
  366MOL0     C48189   4.658   4.059   6.506  0.0824 -0.1815  0.3239
  366MOL0     C48190   4.514   4.079   6.554 -0.0808 -0.1776  0.4147
  366MOL0     C48191   4.478   4.068   6.708 -1.4021  0.0838 -0.0917
  366MOL0     C48192   4.332   4.107   6.732 -0.0884  0.2996  0.1444
  366MOL0     C48193   4.294   4.069   6.872  0.5032 -0.7997 -0.8017
  366MOL0     C48194   4.150   4.117   6.904 -0.0962 -0.3956  0.0626
  366MOL0     C48195   4.137   4.122   7.059 -0.0678  1.2548  0.5267
  366MOL0     C48196   3.995   4.115   7.121 -0.1695 -0.7576 -0.1975
  366MOL0     N48197   3.920   4.246   7.111 -0.9918  0.3240  0.2226
  366MOL0     C48198   3.886   4.327   7.214  0.3263  0.4647  0.0676
  366MOL0     C48199   3.834   4.435   7.158  0.3830 -0.2245  0.3171
  366MOL0     C48200   3.795   4.559   7.233 -1.5949 -0.0372 -0.3994
  366MOL0     C48201   3.658   4.534   7.303 -0.7396  0.5155  0.8202
  366MOL0     C48202   3.607   4.666   7.354  0.3037 -0.4662 -0.5157
  366MOL0     C48203   3.460   4.671   7.412 -0.4651  0.0586  0.4182
  366MOL0     O48204   3.365   4.735   7.328 -0.2797  0.1680  0.2900
  366MOL0     C48205   3.240   4.747   7.388 -0.1212 -0.8446  0.4356
  366MOL0     C48206   3.200   4.683   7.504 -0.4876 -1.2798  0.7456
  366MOL0     C48207   3.077   4.697   7.557  0.3136  0.8802 -0.0579
  366MOL0     C48208   2.981   4.772   7.499  0.0892  0.7187  0.3404
  366MOL0     C48209   2.847   4.792   7.558  0.6015 -0.1317 -0.4632
  366MOL0     O48210   2.752   4.821   7.469  0.9131  0.1970  0.2060
  366MOL0     C48211   2.637   4.886   7.506  0.0382  0.2409 -0.5498
  366MOL0     C48212   2.596   4.944   7.623  0.6693 -0.2115 -1.0564
  366MOL0     C48213   2.470   5.005   7.637 -1.0392 -0.7490 -0.0787
  366MOL0     C48214   2.390   5.018   7.526  0.3318  1.2234 -0.2987
  366MOL0     O48215   2.265   5.069   7.552  0.5651 -0.3982 -0.0198
  366MOL0     C48216   2.157   5.058   7.463 -0.6204 -0.1295  1.5901
  366MOL0     C48217   2.033   5.120   7.534 -0.0993 -0.1674 -0.1804
  366MOL0     C48218   1.911   5.126   7.438 -0.0942 -1.1612  0.0465
  366MOL0     C48219   1.788   5.160   7.518 -0.2701 -0.4976 -0.1704
  366MOL0     C48220   1.801   5.294   7.588  1.5111 -1.1042 -1.3985
  366MOL0     C48221   1.658   5.355   7.620  0.3439 -0.1355 -0.3478
  366MOL0     C48222   1.554   5.256   7.676  0.4765 -0.1775  1.0020
  366MOL0     C48223   1.517   5.305   7.821  0.4685  1.0702 -0.0170
  366MOL0    Cl48224   1.661   5.288   7.918  0.0227  0.1069 -0.3589
  366MOL0     C48225   2.430   4.954   7.401  0.6276 -0.2464 -0.0934
  366MOL0     C48226   2.550   4.890   7.398 -0.3389  0.1276 -0.3310
  366MOL0     O48227   2.826   4.756   7.675 -0.0114 -0.3615  0.1380
  366MOL0     C48228   3.005   4.829   7.365  0.6565 -0.5867 -0.5301
  366MOL0     C48229   3.136   4.813   7.319 -0.5794 -0.1898  0.9944
  366MOL0     N48230   3.848   4.424   7.018  0.2655 -0.4436  0.3794
  366MOL0     N48231   3.890   4.307   6.987 -0.1852 -0.1141 -0.4782
  366MOL0     C48232   4.812   3.740   6.389  0.3506  1.1191 -0.3728
  366MOL0     C48233   4.938   3.676   6.373  0.1753  0.3117 -0.0059
  366MOL0     C48234   5.414   3.635   6.341  0.6879  0.6662 -0.3730
  366MOL0     C48235   5.526   3.688   6.280  0.8114  0.0818 -0.2820
  366MOL0     C48236   5.650   3.618   6.284 -0.3019 -0.2688  0.4542
  366MOL0     C48237   5.654   3.501   6.349  0.0465  0.9343 -0.3799
  366MOL0     O48238   5.775   3.430   6.371 -0.1778  0.2630 -0.4115
  366MOL0     C48239   5.895   3.506   6.396  0.4626  0.0583 -0.3758
  366MOL0     C48240   6.017   3.420   6.388 -0.4012  0.8213 -0.1555
  366MOL0     C48241   6.152   3.500   6.400 -0.0357 -0.5483  0.9754
  366MOL0     C48242   6.278   3.424   6.351 -0.3218  0.0361 -0.6619
  366MOL0     C48243   6.325   3.324   6.444  0.1675 -0.3392 -0.6478
  366MOL0     C48244   6.364   3.236   6.520  0.2395 -0.5361  0.0818
  366MOL0     C48245   5.540   3.437   6.392  0.4832  0.9593 -0.7268
  366MOL0     C48246   5.423   3.504   6.403 -0.1085 -0.3397  0.0326
  366MOL0     H48247   5.142   3.915   6.482 -0.8164  1.4411 -2.0134
  366MOL0     H48248   4.924   4.029   6.512 -0.9094  0.2522 -2.1786
  366MOL0     H48249   4.665   4.120   6.416 -2.7826 -1.1020 -0.6195
  366MOL0     H48250   4.732   4.100   6.576  0.8658 -1.2054  0.1195
  366MOL0     H48251   4.456   3.996   6.512 -3.3835  0.9209  2.3905
  366MOL0     H48252   4.477   4.169   6.504  3.1928  0.8844 -0.3546
  366MOL0     H48253   4.538   4.134   6.771 -0.0468 -0.4778 -0.7500
  366MOL0     H48254   4.510   3.966   6.731 -0.2680  0.6444  0.9015
  366MOL0     H48255   4.317   4.214   6.719 -4.8035 -0.5500 -4.4724
  366MOL0     H48256   4.271   4.058   6.656  0.3148 -0.4799  0.3069
  366MOL0     H48257   4.359   4.126   6.939  1.5834 -3.6810  0.7825
  366MOL0     H48258   4.306   3.962   6.891  0.9399 -0.7265 -0.6408
  366MOL0     H48259   4.074   4.050   6.863 -1.2699  0.6459  0.4607
  366MOL0     H48260   4.127   4.215   6.860 -0.8355  0.1930  1.6939
  366MOL0     H48261   4.183   4.030   7.096  0.2320  1.7532  1.4386
  366MOL0     H48262   4.189   4.209   7.100  0.1702  0.9362  0.9142
  366MOL0     H48263   4.016   4.101   7.227 -1.5950  0.7575  0.3397
  366MOL0     H48264   3.938   4.029   7.085 -0.3964 -1.0192  0.7664
  366MOL0     H48265   3.886   4.310   7.321 -1.8977 -1.7975 -0.2118
  366MOL0     H48266   3.785   4.639   7.158 -0.3175  1.6984  1.1777
  366MOL0     H48267   3.875   4.577   7.305 -1.4697 -0.8459 -0.3321
  366MOL0     H48268   3.674   4.467   7.388 -0.6751 -1.6215 -0.7829
  366MOL0     H48269   3.586   4.490   7.233  1.2134 -1.5994  0.0315
  366MOL0     H48270   3.682   4.698   7.427  1.4806 -2.4179 -0.8040
  366MOL0     H48271   3.594   4.744   7.279  0.2408  0.2394  0.2072
  366MOL0     H48272   3.456   4.727   7.506  1.8591  0.5780  0.2891
  366MOL0     H48273   3.422   4.569   7.412  2.3070 -1.1171 -1.9218
  366MOL0     H48274   3.267   4.621   7.563  0.1291  1.5562  3.2748
  366MOL0     H48275   3.058   4.666   7.659 -1.0638  1.0367 -0.2509
  366MOL0     H48276   2.663   4.962   7.707 -1.4634  0.4683  0.5906
  366MOL0     H48277   2.447   5.053   7.731 -1.4638  2.0254 -1.5097
  366MOL0     H48278   2.131   4.955   7.437  2.1878 -0.1413 -1.8817
  366MOL0     H48279   2.159   5.126   7.378 -2.1933  0.6989  2.1617
  366MOL0     H48280   2.060   5.225   7.551 -1.2260  0.0236  0.5595
  366MOL0     H48281   2.003   5.083   7.632 -1.3402 -1.5093 -1.0186
  366MOL0     H48282   1.904   5.027   7.392 -2.0061 -0.3485 -1.6055
  366MOL0     H48283   1.917   5.196   7.353 -4.4598 -4.3442 -3.3434
  366MOL0     H48284   1.702   5.167   7.450  0.2867  0.4771 -0.7959
  366MOL0     H48285   1.781   5.086   7.599 -0.7097 -1.3340 -0.9464
  366MOL0     H48286   1.862   5.365   7.530 -0.1859 -0.6495 -2.7071
  366MOL0     H48287   1.850   5.290   7.686  0.2630  1.0886 -0.6078
  366MOL0     H48288   1.633   5.406   7.526  0.3099 -4.1371 -2.7527
  366MOL0     H48289   1.671   5.435   7.693  0.9066 -0.1478 -0.4312
  366MOL0     H48290   1.459   5.256   7.622  0.8128 -2.4972  0.2850
  366MOL0     H48291   1.593   5.153   7.682 -0.2739 -0.3975  2.7974
  366MOL0     H48292   1.441   5.237   7.859 -0.5023  2.7768  1.2597
  366MOL0     H48293   1.494   5.412   7.819  0.8966  1.1949  0.9694
  366MOL0     H48294   2.359   4.962   7.319 -2.1591 -1.1853  2.0633
  366MOL0     H48295   2.576   4.840   7.305  0.6246 -1.4215  0.7144
  366MOL0     H48296   2.923   4.887   7.324 -1.0348 -1.9525  0.7648
  366MOL0     H48297   3.149   4.861   7.223 -0.0502 -0.4958  0.9116
  366MOL0     H48298   4.721   3.695   6.350  1.1922  0.4306 -1.6248
  366MOL0     H48299   4.934   3.580   6.324 -1.9489 -0.2278  1.1108
  366MOL0     H48300   5.521   3.786   6.235  3.1740  1.2866  1.7888
  366MOL0     H48301   5.738   3.669   6.246  0.7043 -0.4191  2.4578
  366MOL0     H48302   5.904   3.550   6.495  2.1255  1.4983 -1.1136
  366MOL0     H48303   5.901   3.591   6.327 -1.4875 -1.9353 -3.2246
  366MOL0     H48304   6.015   3.332   6.452  1.6726 -0.0321 -1.1740
  366MOL0     H48305   6.014   3.376   6.288 -1.2446  0.3111  0.0893
  366MOL0     H48306   6.167   3.549   6.497 -2.7114  0.9308  0.7431
  366MOL0     H48307   6.137   3.586   6.336 -0.2861 -0.1830  1.5157
  366MOL0     H48308   6.252   3.384   6.253 -2.1579 -0.3622 -0.0686
  366MOL0     H48309   6.364   3.488   6.328 -0.2123 -1.0523 -3.7404
  366MOL0     H48310   6.393   3.165   6.595  3.8955  2.2136  1.5545
  366MOL0     H48311   5.548   3.338   6.434  1.4033  0.0956 -2.7846
  366MOL0     H48312   5.337   3.456   6.448  0.0030  0.3126  0.9726
  367MOL0     O48313   3.780   2.027   1.391  0.0296 -0.1745 -0.1626
  367MOL0     C48314   3.860   2.118   1.417  0.3405 -0.2455  0.1676
  367MOL0     O48315   3.831   2.243   1.440 -0.4475  0.0474  0.4577
  367MOL0     C48316   3.707   2.283   1.482  0.3734  0.1479 -0.0596
  367MOL0     C48317   3.588   2.232   1.419  0.7423  0.0685 -0.4918
  367MOL0     C48318   3.457   2.280   1.444  0.0190 -0.0442 -0.1088
  367MOL0     C48319   3.441   2.386   1.531  0.1527  0.4440 -0.3813
  367MOL0     O48320   3.320   2.433   1.566  0.1338 -0.0349  0.1012
  367MOL0     C48321   3.261   2.403   1.688  0.5240  0.4347 -0.2555
  367MOL0     C48322   3.177   2.288   1.642 -0.2038  0.4681 -0.3809
  367MOL0     C48323   3.065   2.331   1.548 -0.2985 -0.1782  0.5671
  367MOL0     C48324   2.986   2.204   1.501 -0.2131 -0.8284  0.8464
  367MOL0     C48325   2.858   2.236   1.420  0.5830  0.2450 -0.3845
  367MOL0     C48326   2.757   2.311   1.508 -0.2251 -0.1405 -0.3454
  367MOL0     C48327   2.621   2.318   1.450 -0.1887 -0.2665 -0.3314
  367MOL0     C48328   2.607   2.417   1.337  0.4002 -0.3057 -0.0789
  367MOL0     N48329   2.468   2.441   1.295 -0.2329  0.2947 -0.1610
  367MOL0     C48330   2.418   2.557   1.333 -0.4390  0.5875  1.5855
  367MOL0     C48331   2.302   2.566   1.269  0.2532  0.1182 -0.7865
  367MOL0     C48332   2.219   2.697   1.272  0.5980  0.2897 -0.7643
  367MOL0     C48333   2.105   2.684   1.376 -0.4385 -0.2992 -0.5770
  367MOL0     C48334   2.051   2.817   1.412  0.0939 -0.2179  0.1256
  367MOL0     C48335   1.910   2.851   1.369  0.7075 -0.4309 -0.5327
  367MOL0     O48336   1.811   2.752   1.402 -0.0632 -0.6088  0.0197
  367MOL0     C48337   1.683   2.801   1.388  0.5668 -0.6018 -0.8713
  367MOL0     C48338   1.637   2.935   1.378 -0.2218  0.9491  0.4407
  367MOL0     C48339   1.502   2.969   1.374  0.2723  0.0891 -0.0883
  367MOL0     C48340   1.404   2.867   1.364 -0.5979 -0.2248 -0.0861
  367MOL0     C48341   1.260   2.901   1.346 -0.4732 -0.9887  0.1867
  367MOL0     O48342   1.230   3.032   1.358  0.5690 -0.6839 -0.3973
  367MOL0     C48343   1.096   3.067   1.357 -0.2577  0.0643 -0.8792
  367MOL0     C48344   1.014   3.054   1.473  0.2288  0.6996 -0.3204
  367MOL0     C48345   0.878   3.091   1.469 -0.0099 -0.3610  0.5876
  367MOL0     C48346   0.816   3.137   1.348 -0.1215  0.2407  0.4001
  367MOL0     O48347   0.684   3.178   1.346 -0.1485 -0.1083 -0.3039
  367MOL0     C48348   0.641   3.291   1.276 -0.8910 -0.0056  0.3540
  367MOL0     C48349   0.498   3.246   1.254 -0.3215  0.4633 -0.8733
  367MOL0     C48350   0.413   3.361   1.179 -0.6611 -0.5360 -0.1873
  367MOL0     C48351   0.261   3.311   1.172 -0.2311  0.5705 -0.0444
  367MOL0     C48352   0.171   3.423   1.120  0.3478 -0.3253 -0.2335
  367MOL0     C48353   0.188   3.466   0.975  0.4426 -0.4034 -1.0080
  367MOL0     C48354   0.125   3.608   0.961  0.2050 -0.4255 -0.4185
  367MOL0     C48355   0.191   3.664   0.836  0.2615 -0.2226  0.6618
  367MOL0    Cl48356   0.156   3.571   0.679  0.3932  0.6315  0.0463
  367MOL0     C48357   0.902   3.151   1.233 -0.0311 -0.2807 -0.0233
  367MOL0     C48358   1.036   3.120   1.240 -0.1316  0.6240  0.0230
  367MOL0     O48359   1.185   2.808   1.309 -0.4016 -0.3580  0.3776
  367MOL0     C48360   1.455   2.729   1.362 -0.0663 -0.2798  0.3357
  367MOL0     C48361   1.592   2.708   1.386 -0.1995 -0.2483  0.2112
  367MOL0     N48362   2.284   2.454   1.187 -0.0894 -0.3942 -0.5407
  367MOL0     N48363   2.394   2.382   1.192 -0.3199  0.5213 -0.4188
  367MOL0     C48364   3.555   2.443   1.595 -0.0914  0.2625 -0.0497
  367MOL0     C48365   3.687   2.388   1.570 -0.5707  0.2231 -0.2804
  367MOL0     C48366   4.002   2.080   1.423 -0.7264 -0.0028  0.8065
  367MOL0     C48367   4.101   2.172   1.411 -0.4622  0.5804 -0.5604
  367MOL0     C48368   4.239   2.132   1.405  0.6755  0.3176  0.3597
  367MOL0     C48369   4.272   1.994   1.402 -0.0046 -1.2174 -0.1424
  367MOL0     O48370   4.393   1.935   1.381  0.7035  0.8054 -0.1880
  367MOL0     C48371   4.515   2.013   1.372  0.1134 -0.0407 -0.5332
  367MOL0     C48372   4.626   1.930   1.441  0.2975  0.3312  0.7368
  367MOL0     C48373   4.708   1.858   1.334 -0.9116  0.0673  0.0519
  367MOL0     C48374   4.837   1.933   1.300 -0.5658  0.0198 -0.1742
  367MOL0     C48375   4.906   1.883   1.190  0.7650  0.2811  0.5798
  367MOL0     C48376   4.963   1.846   1.095 -0.2519  0.0841  0.7910
  367MOL0     C48377   4.171   1.904   1.416 -0.4917 -0.1652  0.7181
  367MOL0     C48378   4.037   1.945   1.439  0.1974  0.7089  0.4235
  367MOL0     H48379   3.601   2.155   1.344  0.7759 -1.3175  0.8909
  367MOL0     H48380   3.376   2.222   1.400 -0.8266  1.4442 -0.5615
  367MOL0     H48381   3.198   2.487   1.717  0.1999  1.0409 -2.5433
  367MOL0     H48382   3.331   2.377   1.768  0.6586 -0.8562 -0.7679
  367MOL0     H48383   3.125   2.245   1.728  1.3680 -0.8864 -0.0499
  367MOL0     H48384   3.242   2.214   1.594  1.3079  0.9590  0.8452
  367MOL0     H48385   3.109   2.379   1.461  1.5991 -3.4821 -0.4408
  367MOL0     H48386   2.998   2.400   1.601  0.2483  2.1648 -1.6004
  367MOL0     H48387   3.052   2.152   1.432  1.0704 -0.0838  1.4702
  367MOL0     H48388   2.959   2.136   1.582 -0.0308 -2.6094 -0.5460
  367MOL0     H48389   2.817   2.139   1.389  0.4745 -0.1016  0.8251
  367MOL0     H48390   2.875   2.299   1.332  0.0255  3.0693  1.4101
  367MOL0     H48391   2.794   2.413   1.528 -1.4800  0.0267  1.3199
  367MOL0     H48392   2.750   2.269   1.609  0.6497  1.9463  0.6707
  367MOL0     H48393   2.587   2.222   1.412 -0.1265  0.0407 -1.1858
  367MOL0     H48394   2.564   2.363   1.532  1.5676  0.4859  0.5501
  367MOL0     H48395   2.632   2.366   1.243 -0.0593  0.0922 -0.4260
  367MOL0     H48396   2.659   2.513   1.346 -0.6125  0.4040 -1.2550
  367MOL0     H48397   2.469   2.635   1.388  0.4942  2.2978 -1.4971
  367MOL0     H48398   2.190   2.718   1.169  0.0439  0.1877 -0.6277
  367MOL0     H48399   2.280   2.780   1.309 -0.7903  0.4405  1.3388
  367MOL0     H48400   2.144   2.643   1.470 -2.1809 -2.6444 -0.7976
  367MOL0     H48401   2.031   2.608   1.348 -0.4621  0.1520 -1.7753
  367MOL0     H48402   2.047   2.805   1.521 -3.0110  1.4345  0.2869
  367MOL0     H48403   2.121   2.897   1.386 -2.3194  1.2409 -2.4424
  367MOL0     H48404   1.925   2.855   1.261  0.0875 -0.7516 -0.6355
  367MOL0     H48405   1.883   2.947   1.415  1.8289 -0.2535 -0.2204
  367MOL0     H48406   1.705   3.019   1.383  1.8635 -0.6728  5.8179
  367MOL0     H48407   1.478   3.074   1.377 -2.7430 -0.5101 -0.0180
  367MOL0     H48408   1.043   3.020   1.571  1.6668 -0.8824 -1.2432
  367MOL0     H48409   0.814   3.082   1.556  1.5020  0.7833  1.8823
  367MOL0     H48410   0.687   3.296   1.177 -1.8264  1.5778 -0.0418
  367MOL0     H48411   0.635   3.391   1.321  0.3187  0.5674 -0.6873
  367MOL0     H48412   0.460   3.222   1.354  0.3457 -3.0138 -1.3540
  367MOL0     H48413   0.500   3.149   1.204 -1.9701 -0.0034 -0.1356
  367MOL0     H48414   0.450   3.362   1.076  1.3571  0.7339  0.4871
  367MOL0     H48415   0.426   3.458   1.227  0.3132  0.4111 -2.2649
  367MOL0     H48416   0.241   3.219   1.117 -1.6913  0.9935 -0.2652
  367MOL0     H48417   0.220   3.280   1.269  2.7046  0.0536  1.1544
  367MOL0     H48418   0.176   3.508   1.189  0.1768 -0.9576  0.5694
  367MOL0     H48419   0.068   3.391   1.137  0.0158  0.9506  0.2963
  367MOL0     H48420   0.148   3.391   0.907  1.7874 -2.0534 -0.0674
  367MOL0     H48421   0.296   3.470   0.956  0.2852  0.8662 -1.7281
  367MOL0     H48422   0.016   3.595   0.957  0.3096 -1.8257  0.8000
  367MOL0     H48423   0.148   3.667   1.051 -2.9939 -1.7935  1.4705
  367MOL0     H48424   0.298   3.675   0.857 -0.0612 -1.0449  2.9982
  367MOL0     H48425   0.145   3.761   0.813 -0.4461 -0.6651  0.1706
  367MOL0     H48426   0.864   3.190   1.139  1.2629  0.8810 -0.0946
  367MOL0     H48427   1.096   3.132   1.150 -1.3644  1.3896 -0.7138
  367MOL0     H48428   1.381   2.652   1.342 -0.0873  0.3118 -2.2338
  367MOL0     H48429   1.639   2.611   1.383  1.3715  0.3312  2.6267
  367MOL0     H48430   3.551   2.517   1.675  0.4640  0.0399  0.1930
  367MOL0     H48431   3.767   2.420   1.636  0.4667 -0.5364 -1.1354
  367MOL0     H48432   4.096   2.279   1.402  1.9314  0.9171  1.0382
  367MOL0     H48433   4.312   2.210   1.384 -2.3294  2.9971 -1.0581
  367MOL0     H48434   4.512   2.098   1.442  0.6031 -1.0609  0.7846
  367MOL0     H48435   4.533   2.054   1.273 -4.0978  1.8064 -0.7240
  367MOL0     H48436   4.688   1.997   1.501 -1.2115  1.5846  0.9639
  367MOL0     H48437   4.577   1.865   1.515  0.4928 -0.7110 -0.0332
  367MOL0     H48438   4.650   1.840   1.243  1.1853 -1.7762 -1.0141
  367MOL0     H48439   4.730   1.759   1.375 -0.7638 -0.6355 -1.6345
  367MOL0     H48440   4.826   2.042   1.293  2.7998  0.4541 -0.4668
  367MOL0     H48441   4.898   1.927   1.390 -1.3346  0.8944  0.4316
  367MOL0     H48442   5.000   1.821   0.998  0.8105 -0.9569  1.4332
  367MOL0     H48443   4.207   1.803   1.434 -0.4162 -0.1254  0.7917
  367MOL0     H48444   3.966   1.868   1.469  1.7816 -0.8757  0.2969
  368MOL0     O48445   0.115   6.671  10.985  0.2619  0.6345 -0.4008
  368MOL0     C48446   0.123   6.770  10.914 -0.1594 -1.0785 -0.0297
  368MOL0     O48447   0.044   6.877  10.926  0.2722 -0.5266  0.5553
  368MOL0     C48448  -0.044   6.858  11.022 -0.3349  0.4682 -0.9056
  368MOL0     C48449  -0.179   6.821  10.989 -0.5565 -0.7233 -0.4513
  368MOL0     C48450  -0.283   6.819  11.082  0.1210 -0.0526  0.3037
  368MOL0     C48451  -0.260   6.859  11.213  0.5433  0.3325  0.6311
  368MOL0     O48452  -0.347   6.881  11.309 -0.6558  0.0616 -1.1000
  368MOL0     C48453  -0.485   6.830  11.296 -0.3334  0.7029 -0.6603
  368MOL0     C48454  -0.565   6.844  11.439 -0.2685 -0.2543  0.6032
  368MOL0     C48455  -0.576   6.987  11.506  0.7919 -0.8732 -0.1705
  368MOL0     C48456  -0.650   6.966  11.638  0.8245 -0.2499  0.1860
  368MOL0     C48457  -0.706   7.091  11.723 -0.1470 -1.0333  0.0544
  368MOL0     C48458  -0.806   7.164  11.647 -0.3815  0.5410 -0.6659
  368MOL0     C48459  -0.873   7.277  11.735  0.1227  0.5239 -0.5142
  368MOL0     C48460  -0.981   7.359  11.658 -0.4623 -0.1314  0.2904
  368MOL0     N48461  -1.087   7.273  11.596 -0.4113  0.6617 -0.5803
  368MOL0     C48462  -1.150   7.277  11.477 -1.1338 -0.5336 -0.2904
  368MOL0     C48463  -1.257   7.197  11.495  0.1363 -0.1585 -0.3843
  368MOL0     C48464  -1.351   7.165  11.394 -0.9325  0.6372  0.1583
  368MOL0     C48465  -1.391   7.021  11.394 -0.5023  0.0671 -0.9060
  368MOL0     C48466  -1.493   6.989  11.286 -0.7186  0.2128  0.2471
  368MOL0     C48467  -1.634   7.027  11.321 -0.9198  0.1012 -0.6299
  368MOL0     O48468  -1.731   6.995  11.219 -0.0152  0.4862  0.1240
  368MOL0     C48469  -1.796   6.872  11.232  0.1908  1.2203  0.9996
  368MOL0     C48470  -1.765   6.769  11.322 -0.5424  0.8410  0.5496
  368MOL0     C48471  -1.840   6.642  11.318 -0.5178 -0.2586  0.7629
  368MOL0     C48472  -1.940   6.616  11.220  1.0984  1.1519 -0.2516
  368MOL0     C48473  -2.003   6.481  11.206 -0.6223  0.1790 -0.7594
  368MOL0     O48474  -2.119   6.470  11.137 -0.5299 -0.9337  0.1507
  368MOL0     C48475  -2.196   6.364  11.144 -0.0402  0.3142 -0.7816
  368MOL0     C48476  -2.329   6.388  11.163 -0.5209  0.5400  0.1054
  368MOL0     C48477  -2.413   6.279  11.193 -0.0389 -0.1112  0.8847
  368MOL0     C48478  -2.374   6.144  11.183  0.7204  0.0093  0.8107
  368MOL0     O48479  -2.476   6.057  11.206 -0.1318  0.4909 -0.0150
  368MOL0     C48480  -2.443   5.918  11.190  0.6907 -0.6156  0.0020
  368MOL0     C48481  -2.580   5.840  11.185 -0.0174  0.0162 -0.5860
  368MOL0     C48482  -2.646   5.871  11.053 -0.0150  0.0907  0.4417
  368MOL0     C48483  -2.775   5.793  11.047 -0.4024 -0.3979  0.8339
  368MOL0     C48484  -2.861   5.836  10.926 -0.3684  0.1272 -0.3726
  368MOL0     C48485  -2.978   5.740  10.899 -0.7002  0.3948 -0.3345
  368MOL0     C48486  -3.047   5.786  10.766 -0.3037  0.2554 -0.3025
  368MOL0     C48487  -3.159   5.683  10.727  0.1316 -0.0794 -0.2676
  368MOL0    Cl48488  -3.146   5.637  10.555  0.0785 -0.2247 -0.8679
  368MOL0     C48489  -2.238   6.116  11.161 -0.9846 -0.7906  0.0522
  368MOL0     C48490  -2.149   6.226  11.143 -0.0299 -0.4204 -0.0305
  368MOL0     O48491  -1.956   6.391  11.275  0.4790 -0.0489  0.1416
  368MOL0     C48492  -1.962   6.712  11.126  0.6747 -0.5763 -0.4271
  368MOL0     C48493  -1.898   6.840  11.137 -0.3952  0.6274  0.3615
  368MOL0     N48494  -1.242   7.140  11.622 -0.8712 -0.0398 -0.2936
  368MOL0     N48495  -1.141   7.184  11.676 -0.9165 -0.6709  0.7211
  368MOL0     C48496  -0.134   6.903  11.245  0.4761 -0.4057  0.1118
  368MOL0     C48497  -0.026   6.899  11.153 -0.8237  0.1123  0.3909
  368MOL0     C48498   0.229   6.779  10.811 -0.0297  0.0128 -0.1717
  368MOL0     C48499   0.315   6.681  10.800 -0.2633  0.1324 -0.4715
  368MOL0     C48500   0.426   6.690  10.713 -0.2267 -0.5382  0.0109
  368MOL0     C48501   0.455   6.804  10.635  0.6597 -0.5671  0.6009
  368MOL0     O48502   0.564   6.795  10.557  0.0016 -0.7237  0.1432
  368MOL0     C48503   0.585   6.891  10.457 -0.5532 -0.1206  0.3202
  368MOL0     C48504   0.704   6.846  10.368 -0.4017  1.0093 -0.5669
  368MOL0     C48505   0.834   6.882  10.444  0.4587 -0.1239 -0.0759
  368MOL0     C48506   0.956   6.801  10.394  0.2084  0.7337 -0.2133
  368MOL0     C48507   0.980   6.822  10.250 -0.2329 -0.1916  0.4815
  368MOL0     C48508   1.017   6.828  10.138  0.9515 -0.3039  0.8086
  368MOL0     C48509   0.361   6.906  10.646 -0.8483 -0.6725 -0.9399
  368MOL0     C48510   0.248   6.898  10.736  0.2369  0.1372 -0.7586
  368MOL0     H48511  -0.201   6.795  10.886  1.2594 -1.6361 -0.6561
  368MOL0     H48512  -0.378   6.818  11.028 -0.6420  1.5860  1.5256
  368MOL0     H48513  -0.486   6.725  11.264 -1.4242  0.1089  1.1307
  368MOL0     H48514  -0.525   6.897  11.220 -1.1036  0.8807 -0.1116
  368MOL0     H48515  -0.504   6.778  11.501 -0.5732 -0.4374  0.7081
  368MOL0     H48516  -0.659   6.789  11.429  0.4294 -1.0202 -3.9399
  368MOL0     H48517  -0.628   7.070  11.457 -0.1016 -0.1102  1.9444
  368MOL0     H48518  -0.483   7.038  11.532 -0.8315  2.1576  0.0722
  368MOL0     H48519  -0.737   6.907  11.611  0.9128 -0.8274  1.1429
  368MOL0     H48520  -0.588   6.898  11.697 -0.2863 -1.1389  0.3437
  368MOL0     H48521  -0.624   7.157  11.749 -0.3909 -0.0947 -1.4592
  368MOL0     H48522  -0.766   7.056  11.808 -3.2214  0.4667 -1.3239
  368MOL0     H48523  -0.882   7.090  11.620  0.9143 -0.7976 -0.7796
  368MOL0     H48524  -0.763   7.210  11.557 -0.1100  1.0929 -0.2619
  368MOL0     H48525  -0.910   7.235  11.828  0.7483  0.0614 -0.4659
  368MOL0     H48526  -0.800   7.342  11.785  0.4997 -0.9165  0.8542
  368MOL0     H48527  -0.920   7.401  11.577 -0.9179 -0.2666 -0.1243
  368MOL0     H48528  -1.027   7.436  11.720  1.0339  1.4224 -0.4330
  368MOL0     H48529  -1.130   7.330  11.384  0.6609  0.4319  0.5845
  368MOL0     H48530  -1.310   7.196  11.298  0.8273 -0.0383  0.6524
  368MOL0     H48531  -1.439   7.227  11.413 -1.4559  0.0690 -0.4066
  368MOL0     H48532  -1.430   6.996  11.493 -0.8719 -1.8826 -1.4951
  368MOL0     H48533  -1.309   6.949  11.382 -0.5200 -1.2535  4.4647
  368MOL0     H48534  -1.457   7.049  11.202 -0.4096  2.0308  1.6238
  368MOL0     H48535  -1.483   6.883  11.260  1.8514  0.4742 -0.0812
  368MOL0     H48536  -1.628   7.134  11.341  1.7283 -0.2888  1.2670
  368MOL0     H48537  -1.660   6.986  11.420  0.1348 -1.7995 -1.0920
  368MOL0     H48538  -1.685   6.767  11.395  1.9824 -3.1088 -1.9436
  368MOL0     H48539  -1.804   6.566  11.387 -1.5636 -1.1884  0.3087
  368MOL0     H48540  -2.362   6.492  11.161  1.3132  1.2287 -3.5128
  368MOL0     H48541  -2.515   6.304  11.222 -0.3872 -1.9302  1.3064
  368MOL0     H48542  -2.384   5.879  11.274  1.7020 -1.3601 -1.0206
  368MOL0     H48543  -2.382   5.900  11.101  1.7906 -1.8193  0.9663
  368MOL0     H48544  -2.642   5.877  11.267 -2.2064  2.6671 -3.1811
  368MOL0     H48545  -2.563   5.734  11.206  2.4452  0.4417 -0.0593
  368MOL0     H48546  -2.589   5.839  10.966  1.5964 -0.1140  1.5330
  368MOL0     H48547  -2.656   5.980  11.054  1.7645  0.2891  1.3277
  368MOL0     H48548  -2.758   5.685  11.037 -2.7915 -0.7080 -0.6265
  368MOL0     H48549  -2.824   5.807  11.143 -1.4501 -0.2931  0.2923
  368MOL0     H48550  -2.798   5.832  10.837  1.0326 -0.6487  0.6144
  368MOL0     H48551  -2.897   5.935  10.954 -0.4058 -0.6172  2.5214
  368MOL0     H48552  -3.052   5.743  10.980 -2.9095  1.0614 -2.2786
  368MOL0     H48553  -2.933   5.640  10.898  1.2311  1.1550  2.0228
  368MOL0     H48554  -3.091   5.885  10.782  0.9350  0.8590 -0.5555
  368MOL0     H48555  -2.966   5.801  10.694 -0.9165  0.7042 -0.9193
  368MOL0     H48556  -3.255   5.736  10.718  0.9720  1.1980 -2.4733
  368MOL0     H48557  -3.161   5.598  10.795  1.9145  1.0058  1.2286
  368MOL0     H48558  -2.195   6.017  11.162 -1.2707 -1.0351  3.8580
  368MOL0     H48559  -2.043   6.212  11.124  1.0048  2.6709  2.5854
  368MOL0     H48560  -2.012   6.697  11.031 -2.9444  0.0238  1.1892
  368MOL0     H48561  -1.921   6.908  11.056  1.5251  0.9800  0.0523
  368MOL0     H48562  -0.095   6.939  11.340  0.7801 -4.4118  1.7094
  368MOL0     H48563   0.069   6.929  11.195 -1.4575  2.4297  0.2971
  368MOL0     H48564   0.310   6.597  10.869  1.0074 -0.6153 -1.2571
  368MOL0     H48565   0.481   6.598  10.704 -2.3715 -1.9120  0.2413
  368MOL0     H48566   0.606   6.987  10.504  0.2461 -0.1844  0.1133
  368MOL0     H48567   0.492   6.900  10.401 -0.1591 -1.0843 -0.5416
  368MOL0     H48568   0.694   6.740  10.342  0.3035  0.7096  0.3521
  368MOL0     H48569   0.704   6.906  10.276  0.0402  0.4334 -0.9490
  368MOL0     H48570   0.817   6.843  10.545 -0.2586 -1.4489 -0.6754
  368MOL0     H48571   0.844   6.990  10.434 -3.2722  0.3499 -0.1647
  368MOL0     H48572   1.045   6.835  10.447 -1.4359  2.4357  1.6076
  368MOL0     H48573   0.950   6.695  10.419 -0.6081  0.6831 -0.5743
  368MOL0     H48574   1.048   6.825  10.036  1.4742 -1.4599  0.9797
  368MOL0     H48575   0.381   6.989  10.578 -0.9043 -1.8358 -2.4255
  368MOL0     H48576   0.188   6.989  10.737  0.5132  0.3399  1.1128
  369MOL0     O48577   5.737   5.573   6.047  0.0941 -0.5147  0.2143
  369MOL0     C48578   5.744   5.686   5.997  0.7503 -0.1018  0.3201
  369MOL0     O48579   5.641   5.750   5.938  0.1903 -0.2935 -0.2387
  369MOL0     C48580   5.521   5.702   5.972  0.9476 -0.1605 -0.1383
  369MOL0     C48581   5.429   5.797   6.033 -0.8380  0.5271  0.6568
  369MOL0     C48582   5.301   5.758   6.052  1.3128  0.9093 -0.2370
  369MOL0     C48583   5.248   5.627   6.025 -0.6403  0.2432  0.0737
  369MOL0     O48584   5.118   5.601   6.069 -0.5596  0.3207 -0.3865
  369MOL0     C48585   5.061   5.465   6.047  0.1368 -0.1754  0.3256
  369MOL0     C48586   4.940   5.457   6.142  1.0175 -0.1431  0.0797
  369MOL0     C48587   4.823   5.362   6.095 -0.1335  0.5857 -0.2343
  369MOL0     C48588   4.762   5.284   6.216  0.2924  0.1928 -0.3417
  369MOL0     C48589   4.670   5.166   6.171  0.7915  0.0302 -0.1347
  369MOL0     C48590   4.545   5.140   6.259  0.8239 -0.1628  0.0740
  369MOL0     C48591   4.433   5.249   6.246  0.2826 -0.2362  0.2289
  369MOL0     C48592   4.293   5.205   6.286  0.5263 -0.3048  0.0592
  369MOL0     N48593   4.187   5.303   6.279 -0.3431  0.1433 -0.1962
  369MOL0     C48594   4.178   5.406   6.363 -1.0437 -0.9638  0.1975
  369MOL0     C48595   4.070   5.481   6.333  0.0869  0.7694 -0.1816
  369MOL0     C48596   4.045   5.612   6.411 -0.2511 -0.3167  0.2855
  369MOL0     C48597   3.902   5.661   6.379 -0.2633 -0.6925 -0.1137
  369MOL0     C48598   3.790   5.573   6.452 -0.5658 -0.7692  1.0173
  369MOL0     C48599   3.659   5.621   6.391 -0.3537 -0.7396 -0.4912
  369MOL0     O48600   3.541   5.547   6.441 -0.2539  0.8618  0.3633
  369MOL0     C48601   3.421   5.581   6.388 -0.3126 -0.0793 -0.6829
  369MOL0     C48602   3.314   5.487   6.411  0.0229 -0.9176 -0.6931
  369MOL0     C48603   3.184   5.512   6.379  0.9290 -0.9583 -0.2218
  369MOL0     C48604   3.149   5.638   6.320  0.1748 -0.1012 -0.4803
  369MOL0     C48605   3.010   5.672   6.274 -0.0051  0.2269  0.0620
  369MOL0     O48606   2.912   5.585   6.314 -0.4125  0.0508  0.5831
  369MOL0     C48607   2.778   5.613   6.278  0.5027  0.4541  0.1089
  369MOL0     C48608   2.693   5.698   6.346  0.9278 -0.5699  0.2093
  369MOL0     C48609   2.556   5.706   6.314 -0.4524 -0.1926  0.1698
  369MOL0     C48610   2.507   5.634   6.207 -0.0942  0.0694 -0.4359
  369MOL0     O48611   2.367   5.627   6.196 -0.1164 -0.8981 -0.3586
  369MOL0     C48612   2.324   5.581   6.068 -0.1077 -0.4358  0.3999
  369MOL0     C48613   2.168   5.605   6.067 -0.2881  0.3163  0.3290
  369MOL0     C48614   2.100   5.482   6.143  0.4520 -0.1003  0.1247
  369MOL0     C48615   1.950   5.506   6.170  0.1540 -0.1739  0.3113
  369MOL0     C48616   1.867   5.382   6.216  0.0968  0.1015 -0.1134
  369MOL0     C48617   1.718   5.406   6.222  0.0951 -0.0162 -0.7257
  369MOL0     C48618   1.639   5.275   6.229 -0.1402  0.0821 -0.9935
  369MOL0     C48619   1.482   5.292   6.227 -0.3883  0.0619 -1.0020
  369MOL0    Cl48620   1.429   5.327   6.065  0.2915  0.0742 -0.1128
  369MOL0     C48621   2.592   5.549   6.135 -0.8840  0.2150  0.5380
  369MOL0     C48622   2.728   5.536   6.172 -0.2599 -0.7792  0.2934
  369MOL0     O48623   2.980   5.776   6.209 -0.7931  0.0635 -0.2243
  369MOL0     C48624   3.250   5.723   6.284 -0.5524 -0.4947  0.4020
  369MOL0     C48625   3.379   5.699   6.327  0.2896 -0.6985 -0.0182
  369MOL0     N48626   4.004   5.411   6.232  0.1541 -0.1411  0.9727
  369MOL0     N48627   4.077   5.312   6.204  0.1901  0.3010 -0.6043
  369MOL0     C48628   5.326   5.536   5.952 -0.5650  0.0217  0.7761
  369MOL0     C48629   5.459   5.585   5.920 -0.6250  0.7831 -0.2979
  369MOL0     C48630   5.872   5.754   5.969 -0.1807  0.1238  0.3944
  369MOL0     C48631   5.978   5.732   6.043 -1.5346 -0.0234  0.0205
  369MOL0     C48632   6.097   5.795   6.027  0.4238  0.5294 -0.3191
  369MOL0     C48633   6.116   5.889   5.921  0.4243 -1.3654  0.4288
  369MOL0     O48634   6.232   5.958   5.896  0.8664  0.3336  0.4548
  369MOL0     C48635   6.345   5.908   5.960 -0.3927 -0.8870  0.1720
  369MOL0     C48636   6.469   5.989   5.916  0.1082 -0.0732 -0.0685
  369MOL0     C48637   6.441   6.148   5.939 -0.0147  0.6535  0.4327
  369MOL0     C48638   6.570   6.224   5.917 -0.3902 -0.2657 -1.0960
  369MOL0     C48639   6.674   6.197   6.023  0.3873 -0.1765 -0.0522
  369MOL0     C48640   6.772   6.189   6.092 -0.6017  0.8713  0.2739
  369MOL0     C48641   6.002   5.911   5.841 -0.1996 -0.3873 -0.6731
  369MOL0     C48642   5.884   5.847   5.865 -0.0132  0.3652  0.8597
  369MOL0     H48643   5.447   5.901   6.057  1.3637  0.4977 -0.5407
  369MOL0     H48644   5.239   5.836   6.095  1.6697  1.6347 -1.0108
  369MOL0     H48645   5.140   5.391   6.065  1.5825  1.2203 -0.0959
  369MOL0     H48646   5.033   5.458   5.941  1.9940 -1.8798 -0.1294
  369MOL0     H48647   4.883   5.550   6.153 -2.8035 -2.3482  0.7982
  369MOL0     H48648   4.981   5.433   6.241  0.7857 -1.3353 -0.1053
  369MOL0     H48649   4.856   5.286   6.024 -3.1725  0.1381 -1.2990
  369MOL0     H48650   4.746   5.411   6.034 -0.8340 -2.6477 -2.2045
  369MOL0     H48651   4.841   5.239   6.276 -0.3654  2.3980  2.3505
  369MOL0     H48652   4.710   5.357   6.280 -0.2037 -0.3794 -0.0798
  369MOL0     H48653   4.734   5.078   6.159 -0.3588 -1.0031  1.0770
  369MOL0     H48654   4.633   5.201   6.073 -0.1229 -2.4673 -0.7538
  369MOL0     H48655   4.575   5.133   6.364  2.5606  1.2996 -0.2750
  369MOL0     H48656   4.503   5.049   6.215  0.2302  0.7630 -1.3234
  369MOL0     H48657   4.464   5.331   6.311  0.2038 -0.2302  0.2594
  369MOL0     H48658   4.422   5.276   6.140 -0.1277  1.7815  0.7527
  369MOL0     H48659   4.300   5.161   6.386 -0.6620 -0.2231  0.1900
  369MOL0     H48660   4.259   5.125   6.219  0.2372 -0.3038  0.2023
  369MOL0     H48661   4.256   5.432   6.434 -0.5040 -0.4743 -0.5627
  369MOL0     H48662   4.125   5.677   6.375 -0.6793 -1.0345 -2.1380
  369MOL0     H48663   4.047   5.593   6.519 -1.7005  1.3185  0.6450
  369MOL0     H48664   3.896   5.667   6.270  1.7774  2.6028 -0.1754
  369MOL0     H48665   3.883   5.766   6.401 -2.8316 -1.3595  1.3537
  369MOL0     H48666   3.814   5.467   6.442 -1.1393 -1.0809  2.6008
  369MOL0     H48667   3.792   5.596   6.559  1.9678  0.8162  0.7048
  369MOL0     H48668   3.669   5.617   6.282 -1.2236 -0.6598 -0.5767
  369MOL0     H48669   3.649   5.728   6.408  0.0415 -0.7834  0.0369
  369MOL0     H48670   3.337   5.397   6.467 -1.7594 -0.1497  1.4410
  369MOL0     H48671   3.106   5.447   6.416  1.1939 -0.5442  1.1138
  369MOL0     H48672   2.725   5.756   6.432 -1.0661  1.5668 -0.4070
  369MOL0     H48673   2.491   5.757   6.384  1.0771 -0.2983  1.7372
  369MOL0     H48674   2.332   5.472   6.060 -1.6761 -0.5279 -0.2191
  369MOL0     H48675   2.367   5.635   5.984 -3.8961 -0.7125 -1.9671
  369MOL0     H48676   2.130   5.601   5.965  0.6167 -1.0671  0.0212
  369MOL0     H48677   2.143   5.709   6.091 -0.9782  0.1205  0.4665
  369MOL0     H48678   2.152   5.475   6.239 -0.6656 -1.0123  0.6780
  369MOL0     H48679   2.124   5.385   6.098  0.8079 -0.3758  0.8943
  369MOL0     H48680   1.937   5.578   6.252  0.3254  0.8439 -0.5371
  369MOL0     H48681   1.902   5.542   6.079 -0.1586 -2.1778 -0.3696
  369MOL0     H48682   1.899   5.350   6.315 -1.8327 -1.3993  0.0921
  369MOL0     H48683   1.903   5.295   6.160  3.2692  1.0978  0.1997
  369MOL0     H48684   1.690   5.462   6.132  0.1723  2.9883  0.9832
  369MOL0     H48685   1.695   5.474   6.305  1.9018 -1.5549  1.1334
  369MOL0     H48686   1.663   5.211   6.143 -2.1308 -0.1838 -1.3977
  369MOL0     H48687   1.661   5.212   6.315  0.7787  2.0464  0.2716
  369MOL0     H48688   1.442   5.364   6.300  0.3117 -1.2953  0.8075
  369MOL0     H48689   1.445   5.195   6.263 -1.0207  0.1505 -1.4032
  369MOL0     H48690   2.562   5.479   6.056  1.5989 -0.4610  0.1106
  369MOL0     H48691   2.792   5.457   6.133  0.5764 -1.1342  2.2862
  369MOL0     H48692   3.237   5.818   6.232  2.0013  0.0362  0.6006
  369MOL0     H48693   3.443   5.778   6.291 -0.6290 -0.7709 -1.9390
  369MOL0     H48694   5.274   5.449   5.913 -2.4823  1.6973 -0.6626
  369MOL0     H48695   5.526   5.513   5.875  2.3806  1.0194  3.4103
  369MOL0     H48696   5.976   5.677   6.137  2.2791  1.6439  1.2849
  369MOL0     H48697   6.184   5.766   6.085  1.1253 -0.1059 -1.6291
  369MOL0     H48698   6.361   5.802   5.937  1.1324 -0.4685 -0.8095
  369MOL0     H48699   6.325   5.929   6.066  1.2240 -0.2631  0.3748
  369MOL0     H48700   6.557   5.958   5.973 -1.1115  0.1416  2.0469
  369MOL0     H48701   6.489   5.968   5.811 -0.0290  2.1059 -0.5922
  369MOL0     H48702   6.409   6.161   6.043 -0.0236 -1.4155  0.7445
  369MOL0     H48703   6.362   6.180   5.871  1.2795  1.9552 -0.5212
  369MOL0     H48704   6.620   6.193   5.825  3.4137  0.5861  0.5045
  369MOL0     H48705   6.563   6.334   5.917 -1.2999 -0.2067  2.6364
  369MOL0     H48706   6.858   6.167   6.152 -0.4388  0.8523  0.0338
  369MOL0     H48707   6.024   5.979   5.759  3.2241  0.4026  0.7286
  369MOL0     H48708   5.801   5.870   5.799  1.5212 -0.1762 -1.3791
  370MOL0     O48709  11.048   2.921   1.761 -0.1127  0.4159 -0.4688
  370MOL0     C48710  11.084   2.835   1.837  0.7256  0.8701  0.2476
  370MOL0     O48711  11.022   2.713   1.867  0.0292 -0.2339  0.2731
  370MOL0     C48712  10.890   2.701   1.853  0.4640 -0.4518 -0.3104
  370MOL0     C48713  10.807   2.815   1.894 -0.9217  0.3328 -0.5322
  370MOL0     C48714  10.670   2.807   1.897  0.0242 -0.7180  0.0813
  370MOL0     C48715  10.611   2.697   1.845 -1.2014  0.1004 -0.0477
  370MOL0     O48716  10.479   2.698   1.847 -0.0960 -1.0667  0.2267
  370MOL0     C48717  10.404   2.628   1.751  0.3066 -0.7090 -0.4127
  370MOL0     C48718  10.250   2.642   1.782  0.5832 -0.1935  0.1768
  370MOL0     C48719  10.208   2.564   1.907 -0.1723 -0.3920  0.0595
  370MOL0     C48720  10.053   2.558   1.910 -0.6225  0.7203  0.2936
  370MOL0     C48721  10.017   2.474   2.033  0.9643  0.8932 -0.0583
  370MOL0     C48722  10.085   2.523   2.165 -0.5964 -0.5695  0.7651
  370MOL0     C48723  10.037   2.437   2.287 -0.3227 -0.3785 -0.4346
  370MOL0     C48724  10.148   2.430   2.392 -0.4996  0.0596 -0.6277
  370MOL0     N48725  10.106   2.348   2.512  0.6665 -0.2496  0.4630
  370MOL0     C48726  10.169   2.228   2.545  0.1474 -0.3421  0.2256
  370MOL0     C48727  10.115   2.206   2.667  1.2282 -0.1023  0.2752
  370MOL0     C48728  10.143   2.091   2.768 -0.2961 -1.0505  0.1169
  370MOL0     C48729  10.295   2.090   2.794 -0.0228  0.9736  0.3043
  370MOL0     C48730  10.354   1.978   2.877  0.2985  0.0502 -0.1985
  370MOL0     C48731  10.343   2.025   3.027 -0.0403  0.2945 -0.2942
  370MOL0     O48732  10.443   2.131   3.055 -1.1285  0.2925 -0.8840
  370MOL0     C48733  10.572   2.108   3.079 -0.1290 -0.4603 -0.3637
  370MOL0     C48734  10.652   2.208   3.140 -0.1082  0.2641  1.4883
  370MOL0     C48735  10.782   2.184   3.181 -0.3368 -0.3719 -0.6883
  370MOL0     C48736  10.839   2.054   3.172 -0.2249  0.1426  0.4902
  370MOL0     C48737  10.979   2.021   3.209  0.1683 -0.2642 -0.2523
  370MOL0     O48738  11.029   1.893   3.185  0.6483 -0.7616  0.0695
  370MOL0     C48739  11.155   1.857   3.214  1.1018 -0.2569  0.0998
  370MOL0     C48740  11.219   1.877   3.342 -0.2247 -0.0737 -0.4418
  370MOL0     C48741  11.341   1.811   3.365  0.4730 -0.2021 -0.1025
  370MOL0     C48742  11.401   1.736   3.268 -0.5888  0.3679 -0.0413
  370MOL0     O48743  11.519   1.680   3.304 -0.1621 -0.7868 -0.5282
  370MOL0     C48744  11.613   1.618   3.215  0.3236  0.2354 -0.5902
  370MOL0     C48745  11.729   1.592   3.306 -0.6470  0.7014  0.5931
  370MOL0     C48746  11.849   1.536   3.230 -0.0203 -0.2929 -0.7989
  370MOL0     C48747  11.953   1.461   3.312  0.3066  0.6224 -0.0214
  370MOL0     C48748  12.050   1.555   3.396 -0.6177 -0.6993 -0.9158
  370MOL0     C48749  12.189   1.495   3.439  0.2085 -0.1031  0.7581
  370MOL0     C48750  12.290   1.606   3.489  0.4770 -0.0008  0.1463
  370MOL0     C48751  12.400   1.541   3.563 -0.5425  0.4163  0.1660
  370MOL0    Cl48752  12.494   1.437   3.438  0.1700  0.1980  0.1727
  370MOL0     C48753  11.346   1.718   3.148  0.9454  1.2896  0.9089
  370MOL0     C48754  11.218   1.775   3.119  0.9109  0.4737 -0.0661
  370MOL0     O48755  11.046   2.110   3.267 -0.1303  0.4425  0.9032
  370MOL0     C48756  10.759   1.958   3.100  0.3496 -0.0879  0.0126
  370MOL0     C48757  10.628   1.984   3.061  1.2664  0.6785 -0.8235
  370MOL0     N48758  10.023   2.300   2.701  0.0125  0.3029  0.0331
  370MOL0     N48759  10.025   2.391   2.613  0.2093  0.1114 -0.2762
  370MOL0     C48760  10.684   2.588   1.790 -0.2629 -0.0509 -1.4147
  370MOL0     C48761  10.826   2.588   1.806  0.8174  0.9717  0.2799
  370MOL0     C48762  11.212   2.865   1.917 -0.3707 -0.2491  0.5772
  370MOL0     C48763  11.283   2.992   1.900  0.5507  0.2608  0.1278
  370MOL0     C48764  11.390   3.017   1.986 -0.4232 -0.0243 -1.3039
  370MOL0     C48765  11.443   2.934   2.087  0.2125 -0.2120  0.0383
  370MOL0     O48766  11.540   2.974   2.168 -0.2301  0.0320 -0.3686
  370MOL0     C48767  11.587   2.869   2.254  1.2535 -0.3134  0.6767
  370MOL0     C48768  11.710   2.918   2.336  0.0644  0.1520  0.9331
  370MOL0     C48769  11.822   2.966   2.242  0.3564  0.2875  0.2631
  370MOL0     C48770  11.940   3.017   2.319 -0.1588  0.5121 -0.4677
  370MOL0     C48771  12.036   3.071   2.226 -0.5328  0.6921 -0.2248
  370MOL0     C48772  12.133   3.095   2.156 -0.3195 -0.0745  0.2980
  370MOL0     C48773  11.383   2.804   2.093 -1.1471  0.0963  0.2022
  370MOL0     C48774  11.266   2.772   2.011  0.5909 -0.7099 -0.2756
  370MOL0     H48775  10.860   2.892   1.949 -1.0149 -0.4858  0.7411
  370MOL0     H48776  10.603   2.876   1.950 -1.4927 -0.7069 -1.7373
  370MOL0     H48777  10.430   2.522   1.757 -0.3484 -1.0548 -2.6479
  370MOL0     H48778  10.424   2.665   1.650 -1.2437 -0.1403 -0.5369
  370MOL0     H48779  10.196   2.613   1.691 -2.0406  2.0257  0.9175
  370MOL0     H48780  10.221   2.747   1.790 -1.4117 -0.5924 -1.1948
  370MOL0     H48781  10.244   2.613   1.998  1.9051  2.7687 -2.2714
  370MOL0     H48782  10.249   2.464   1.918  1.8950  0.6171  2.6882
  370MOL0     H48783  10.002   2.655   1.906 -2.7234 -0.2468 -4.5239
  370MOL0     H48784  10.016   2.504   1.822 -2.6240  0.8385  0.9974
  370MOL0     H48785  10.050   2.374   2.005 -0.5277  0.7577 -1.4875
  370MOL0     H48786   9.909   2.469   2.050  1.2592 -2.4207  1.6284
  370MOL0     H48787  10.061   2.626   2.193  0.5528  0.1525 -0.7683
  370MOL0     H48788  10.194   2.512   2.165 -0.6262 -1.6373 -1.9472
  370MOL0     H48789   9.945   2.484   2.326  0.1596 -1.0076  1.5628
  370MOL0     H48790  10.009   2.335   2.262  3.9580 -1.5963 -0.9529
  370MOL0     H48791  10.174   2.534   2.412 -1.0971 -0.0516  0.7976
  370MOL0     H48792  10.234   2.380   2.347  0.7106  0.8569  0.7384
  370MOL0     H48793  10.248   2.175   2.491  1.3488  0.5940  1.0182
  370MOL0     H48794  10.118   1.993   2.727  2.6088 -2.0826  0.6285
  370MOL0     H48795  10.082   2.111   2.857  0.9377  4.2295  0.0878
  370MOL0     H48796  10.322   2.189   2.831  1.1987  0.0299  2.0651
  370MOL0     H48797  10.337   2.075   2.694 -1.0585 -3.0088  0.2859
  370MOL0     H48798  10.299   1.884   2.864  1.5890 -0.3651 -3.6689
  370MOL0     H48799  10.456   1.961   2.841  0.3046  0.9793 -0.6215
  370MOL0     H48800  10.346   1.942   3.098 -2.1067  1.1554  0.8765
  370MOL0     H48801  10.242   2.066   3.027 -0.1460  0.4475 -4.2859
  370MOL0     H48802  10.616   2.309   3.156  0.8505  0.8427  0.1867
  370MOL0     H48803  10.851   2.259   3.219 -2.0364  1.0667 -0.3165
  370MOL0     H48804  11.172   1.942   3.415  0.7329  0.2801 -0.1363
  370MOL0     H48805  11.386   1.825   3.463  0.2838 -0.4260  0.0163
  370MOL0     H48806  11.642   1.685   3.133 -0.9963  0.7872 -0.6341
  370MOL0     H48807  11.578   1.523   3.173  0.4687  0.3617 -1.0039
  370MOL0     H48808  11.699   1.515   3.377 -0.1645  0.9367  1.0560
  370MOL0     H48809  11.750   1.682   3.364 -1.7308  0.4810  1.3475
  370MOL0     H48810  11.888   1.610   3.160  0.3535  0.0155 -0.2717
  370MOL0     H48811  11.807   1.462   3.160  1.3355 -0.1339 -1.8306
  370MOL0     H48812  11.901   1.392   3.379  3.0670 -1.2419  0.3375
  370MOL0     H48813  12.019   1.395   3.256  0.2258 -0.0523  0.6669
  370MOL0     H48814  12.000   1.583   3.489  3.4510  3.9461  0.3130
  370MOL0     H48815  12.069   1.647   3.341  1.9125 -1.2754 -1.1558
  370MOL0     H48816  12.226   1.445   3.349 -0.8881 -0.3755  0.4476
  370MOL0     H48817  12.170   1.416   3.512  0.7622  1.9078  3.2238
  370MOL0     H48818  12.331   1.655   3.400 -0.6546  2.9455  1.0983
  370MOL0     H48819  12.247   1.683   3.554 -1.3724 -0.2583 -0.7060
  370MOL0     H48820  12.363   1.464   3.632 -0.8696 -2.4677 -2.9623
  370MOL0     H48821  12.469   1.607   3.617 -0.3409  0.9491 -0.7293
  370MOL0     H48822  11.380   1.647   3.073 -0.0274  1.8115 -0.0495
  370MOL0     H48823  11.171   1.748   3.025 -1.7003  1.5904  0.8279
  370MOL0     H48824  10.804   1.860   3.084  2.6014  1.1210 -1.6928
  370MOL0     H48825  10.552   1.911   3.036 -0.4747  1.8367  0.8178
  370MOL0     H48826  10.627   2.509   1.743 -1.3235 -0.4556  0.4273
  370MOL0     H48827  10.883   2.511   1.755 -2.1462  1.5656 -4.5515
  370MOL0     H48828  11.248   3.076   1.841  2.0007  0.4180 -0.5535
  370MOL0     H48829  11.437   3.115   1.974  3.7324 -1.7420 -0.6831
  370MOL0     H48830  11.613   2.776   2.203  2.8244  0.9523 -0.9459
  370MOL0     H48831  11.510   2.834   2.324 -0.4152  0.9029 -0.4632
  370MOL0     H48832  11.685   3.001   2.404  0.9368  2.5685 -1.5053
  370MOL0     H48833  11.744   2.834   2.397 -1.6113 -2.2539 -1.2607
  370MOL0     H48834  11.797   3.040   2.166  1.5309 -1.5453 -2.0570
  370MOL0     H48835  11.856   2.881   2.181  1.5828  2.5195 -2.4091
  370MOL0     H48836  11.902   3.102   2.377  1.1852  1.1024 -0.4231
  370MOL0     H48837  11.989   2.933   2.368 -1.0320  0.2928  0.0516
  370MOL0     H48838  12.219   3.134   2.106 -0.6153 -0.8604 -0.8606
  370MOL0     H48839  11.407   2.723   2.160 -1.5772 -0.3427 -0.1677
  370MOL0     H48840  11.217   2.675   2.010 -0.2140 -0.4472 -4.6262
  371MOL0     O48841   9.094   8.479  10.175  0.3225  0.0046 -0.5281
  371MOL0     C48842   9.106   8.361  10.201  0.2022  0.3953  0.5411
  371MOL0     O48843   9.019   8.259  10.151 -0.5460  0.2348  0.1180
  371MOL0     C48844   8.914   8.300  10.069  0.6192  0.1365 -0.0691
  371MOL0     C48845   8.926   8.298   9.935 -0.0001  0.1557  0.1219
  371MOL0     C48846   8.828   8.329   9.848  0.4492 -0.4406  0.2366
  371MOL0     C48847   8.710   8.367   9.904 -0.1326  0.4003  0.0768
  371MOL0     O48848   8.592   8.405   9.837  0.5926 -0.0461  0.2820
  371MOL0     C48849   8.576   8.362   9.697 -0.0637 -0.6876 -0.4721
  371MOL0     C48850   8.469   8.451   9.642 -0.4521 -0.4219  0.3113
  371MOL0     C48851   8.425   8.409   9.497 -0.5617  0.7893  0.0587
  371MOL0     C48852   8.298   8.470   9.440  0.2636 -0.0230 -0.5582
  371MOL0     C48853   8.243   8.392   9.319  0.5732 -0.2718 -0.1352
  371MOL0     C48854   8.177   8.262   9.357  0.4788 -0.2445  0.7329
  371MOL0     C48855   8.096   8.214   9.234  0.7684 -0.5684  0.6145
  371MOL0     C48856   8.039   8.079   9.261  0.1299 -0.5362 -0.1369
  371MOL0     N48857   7.954   8.051   9.143 -0.5721 -0.0302  0.0818
  371MOL0     C48858   7.838   8.111   9.111 -0.6786  0.1676  0.0489
  371MOL0     C48859   7.769   8.026   9.034 -0.3699 -0.3000 -0.3170
  371MOL0     C48860   7.631   8.051   8.985  0.0246 -0.9549 -0.7717
  371MOL0     C48861   7.597   8.017   8.840  0.0745  0.3251  0.2986
  371MOL0     C48862   7.564   7.868   8.827  0.7224 -0.0696 -0.0005
  371MOL0     C48863   7.435   7.821   8.898  0.4922  0.4450 -0.6454
  371MOL0     O48864   7.338   7.928   8.913 -0.4216  0.5049 -0.4571
  371MOL0     C48865   7.204   7.911   8.937  0.4715  0.4699  0.4905
  371MOL0     C48866   7.140   7.788   8.943 -0.1288 -0.6712 -1.0330
  371MOL0     C48867   7.006   7.769   8.966  0.4195 -0.2713 -0.3953
  371MOL0     C48868   6.925   7.881   8.983  0.8454 -0.3176  0.1714
  371MOL0     C48869   6.780   7.867   9.015 -0.4256 -0.0431 -0.0766
  371MOL0     O48870   6.712   7.750   8.990 -0.4787 -0.3870  0.0677
  371MOL0     C48871   6.599   7.727   9.061 -0.0083  0.6539 -0.0890
  371MOL0     C48872   6.464   7.732   9.016 -0.1679 -0.2769 -0.5022
  371MOL0     C48873   6.363   7.685   9.099  0.4891 -0.2498 -0.2042
  371MOL0     C48874   6.387   7.615   9.219  1.3502 -0.2166 -0.7117
  371MOL0     O48875   6.282   7.564   9.298 -0.0734  0.6761  0.4128
  371MOL0     C48876   6.164   7.516   9.222 -0.9844 -0.1015 -0.5515
  371MOL0     C48877   6.094   7.391   9.285  0.0290  0.3828 -0.2526
  371MOL0     C48878   6.123   7.246   9.245 -0.3991  0.8093  0.1456
  371MOL0     C48879   6.018   7.156   9.308  0.4484 -0.4674 -0.7253
  371MOL0     C48880   6.028   6.999   9.282  0.9207 -0.3195 -0.0457
  371MOL0     C48881   6.151   6.927   9.343 -0.8004 -0.6972 -0.1064
  371MOL0     C48882   6.196   6.792   9.296  0.2696  0.1645 -0.4795
  371MOL0     C48883   6.083   6.688   9.286 -0.4844 -0.1511 -0.0927
  371MOL0    Cl48884   6.017   6.661   9.448 -0.3119 -0.1316  0.1835
  371MOL0     C48885   6.523   7.617   9.265  0.2753 -0.1017 -0.3324
  371MOL0     C48886   6.623   7.680   9.191  1.2481  0.5829 -0.1718
  371MOL0     O48887   6.725   7.965   9.074  0.0958  0.6995 -0.0035
  371MOL0     C48888   6.993   8.006   8.993  0.1959  0.4120 -0.5386
  371MOL0     C48889   7.128   8.018   8.954  0.1818  0.3037 -0.5715
  371MOL0     N48890   7.851   7.913   9.006 -0.1752 -0.3875  0.4910
  371MOL0     N48891   7.959   7.935   9.068 -0.0156 -0.4996  0.2293
  371MOL0     C48892   8.690   8.368  10.044  0.3657  0.8169 -0.5711
  371MOL0     C48893   8.794   8.339  10.124 -0.3642  1.0377 -0.2142
  371MOL0     C48894   9.194   8.314  10.304 -0.0493 -0.4708  0.1051
  371MOL0     C48895   9.240   8.184  10.307  0.5981 -0.6554  0.0882
  371MOL0     C48896   9.316   8.134  10.413  0.0632  0.5482 -0.0416
  371MOL0     C48897   9.336   8.211  10.524 -1.1637  0.5723 -0.2983
  371MOL0     O48898   9.390   8.147  10.633 -0.0214  0.3783 -0.2526
  371MOL0     C48899   9.492   8.224  10.698 -0.0220 -0.2821  0.2388
  371MOL0     C48900   9.606   8.141  10.741 -0.2606  0.1245 -0.1762
  371MOL0     C48901   9.723   8.230  10.776 -1.0804  0.2823 -0.4342
  371MOL0     C48902   9.790   8.171  10.910 -0.6704 -0.8085 -0.1312
  371MOL0     C48903   9.905   8.253  10.951  0.1521  0.0522  0.2444
  371MOL0     C48904   9.994   8.324  11.003 -0.3442  0.0398  0.2237
  371MOL0     C48905   9.285   8.344  10.523  0.3439 -0.2191 -0.1569
  371MOL0     C48906   9.218   8.396  10.410  0.0801  0.1513 -1.1153
  371MOL0     H48907   9.025   8.259   9.915  0.4729 -0.3997  3.0069
  371MOL0     H48908   8.847   8.337   9.742 -0.4083  0.0176  0.1103
  371MOL0     H48909   8.535   8.261   9.705  0.2533 -0.8394 -0.7128
  371MOL0     H48910   8.669   8.371   9.639 -1.2773  1.5296 -2.2594
  371MOL0     H48911   8.508   8.553   9.636  1.2678 -1.0869 -0.6712
  371MOL0     H48912   8.378   8.453   9.703  0.0261  0.4065  1.0107
  371MOL0     H48913   8.408   8.301   9.496  3.1796 -0.0006  2.3761
  371MOL0     H48914   8.511   8.421   9.430 -0.6124  2.1659  0.2142
  371MOL0     H48915   8.230   8.466   9.525  0.4563  1.0974 -0.3439
  371MOL0     H48916   8.312   8.575   9.416  0.4501  0.4786  1.5860
  371MOL0     H48917   8.314   8.362   9.241  0.7564  0.5486 -0.3026
  371MOL0     H48918   8.166   8.463   9.289  0.6740 -0.3279 -0.5305
  371MOL0     H48919   8.119   8.281   9.448 -0.3166  0.5037  0.0920
  371MOL0     H48920   8.250   8.184   9.377 -0.2522 -1.4165 -0.9060
  371MOL0     H48921   8.020   8.287   9.207 -1.3208 -2.9478 -0.3950
  371MOL0     H48922   8.158   8.217   9.144 -0.2336  2.5001 -0.0880
  371MOL0     H48923   7.979   8.087   9.353  5.1447 -0.7200  3.6020
  371MOL0     H48924   8.114   8.001   9.274 -0.5662 -0.8969  2.4192
  371MOL0     H48925   7.812   8.211   9.144  1.4640  0.1035  2.1443
  371MOL0     H48926   7.609   8.158   8.989 -0.4040 -0.8992 -3.1467
  371MOL0     H48927   7.563   8.002   9.055 -0.0388  0.2916  0.0773
  371MOL0     H48928   7.686   8.047   8.784  2.1967 -1.6280  2.4258
  371MOL0     H48929   7.517   8.085   8.810  0.3275  1.6945  2.4547
  371MOL0     H48930   7.558   7.849   8.720 -0.2780  1.3146 -0.2125
  371MOL0     H48931   7.648   7.807   8.864  1.6227  1.6860  0.9507
  371MOL0     H48932   7.448   7.780   8.999 -1.2164  1.5743  0.0993
  371MOL0     H48933   7.397   7.734   8.845  1.0180 -0.1045 -0.1292
  371MOL0     H48934   7.200   7.698   8.930 -1.3574 -1.8225  0.7494
  371MOL0     H48935   6.963   7.671   8.985  2.0501 -0.7664  1.0085
  371MOL0     H48936   6.454   7.780   8.919  1.7418 -1.1029 -1.1468
  371MOL0     H48937   6.269   7.721   9.057  1.0215  2.2568  0.5554
  371MOL0     H48938   6.186   7.498   9.116 -1.2433 -0.3754 -0.5636
  371MOL0     H48939   6.092   7.597   9.231  0.5147  1.1685  0.3963
  371MOL0     H48940   5.990   7.400   9.252  0.2264  0.0834 -0.9944
  371MOL0     H48941   6.105   7.406   9.392  1.1266  2.7262 -0.6293
  371MOL0     H48942   6.226   7.228   9.274 -0.4862  0.3058  0.1470
  371MOL0     H48943   6.098   7.228   9.140  1.3993 -1.0933 -0.0117
  371MOL0     H48944   6.025   7.179   9.415  0.0459  3.9972 -1.4678
  371MOL0     H48945   5.917   7.181   9.272 -1.2374 -2.6261  2.0493
  371MOL0     H48946   6.029   6.988   9.173  0.2538  0.5677 -0.1503
  371MOL0     H48947   5.935   6.949   9.310  0.8418 -0.4890 -0.5988
  371MOL0     H48948   6.121   6.928   9.449 -0.2313  0.9634  0.0675
  371MOL0     H48949   6.237   6.994   9.335 -1.0529 -0.4447 -0.7669
  371MOL0     H48950   6.242   6.792   9.197 -2.9821 -0.3240 -2.1468
  371MOL0     H48951   6.271   6.759   9.368 -2.3794  0.4747  2.6211
  371MOL0     H48952   6.126   6.598   9.241 -1.0722 -0.3575 -0.2377
  371MOL0     H48953   6.000   6.714   9.220 -0.7304  0.0661  0.2974
  371MOL0     H48954   6.535   7.579   9.366  0.1773  2.4198  0.6847
  371MOL0     H48955   6.727   7.671   9.218  2.4181 -0.0376 -4.2086
  371MOL0     H48956   6.938   8.089   9.036 -3.0628 -1.9104  0.2298
  371MOL0     H48957   7.174   8.117   8.959  3.8092 -1.2533  0.8428
  371MOL0     H48958   8.596   8.394  10.093  0.1839  1.6591 -1.3368
  371MOL0     H48959   8.772   8.347  10.230  2.0471  2.5293  0.2300
  371MOL0     H48960   9.232   8.110  10.228 -2.2684 -0.9602  0.5623
  371MOL0     H48961   9.353   8.032  10.407  0.5269  0.7234 -0.1818
  371MOL0     H48962   9.460   8.289  10.780 -1.1806 -0.7874  0.2101
  371MOL0     H48963   9.526   8.284  10.613  1.2861 -2.5349 -0.9297
  371MOL0     H48964   9.569   8.088  10.828  0.9932 -0.5479 -0.0297
  371MOL0     H48965   9.637   8.070  10.664  1.2442  0.5465  0.0048
  371MOL0     H48966   9.693   8.334  10.792  1.1744  1.4758 -3.1058
  371MOL0     H48967   9.784   8.230  10.685 -3.8572  1.0504 -2.4290
  371MOL0     H48968   9.719   8.190  10.991 -1.3492  1.5696 -1.1843
  371MOL0     H48969   9.802   8.063  10.905 -0.3679 -0.7165 -1.9385
  371MOL0     H48970  10.068   8.383  11.053  1.7448  2.5405 -5.0798
  371MOL0     H48971   9.282   8.392  10.621 -0.8602 -2.9174  1.2642
  371MOL0     H48972   9.180   8.498  10.412 -0.6787 -0.1327 -0.6140
  372MOL0     O48973   3.199   6.151   8.876  0.1108 -0.3843 -0.6826
  372MOL0     C48974   3.264   6.243   8.825 -0.7655 -0.0817 -1.2820
  372MOL0     O48975   3.221   6.358   8.770 -0.6134 -0.1810  0.1318
  372MOL0     C48976   3.080   6.373   8.762  1.0068  0.6464  1.1278
  372MOL0     C48977   3.011   6.309   8.652  0.0607 -1.1555  0.8041
  372MOL0     C48978   2.875   6.315   8.652 -0.0291  0.1994  0.1546
  372MOL0     C48979   2.806   6.379   8.753 -0.4260  0.5224  0.1202
  372MOL0     O48980   2.672   6.374   8.744 -0.6883 -0.0167 -0.1600
  372MOL0     C48981   2.589   6.450   8.826 -0.2149  0.1584 -0.2084
  372MOL0     C48982   2.451   6.447   8.772  0.1633 -0.2028 -0.2721
  372MOL0     C48983   2.432   6.559   8.662  0.1518  0.0576 -0.2920
  372MOL0     C48984   2.298   6.541   8.593 -0.5744 -0.0414  0.6328
  372MOL0     C48985   2.250   6.675   8.539 -0.4766 -0.2264 -0.1961
  372MOL0     C48986   2.127   6.653   8.453 -0.1314  0.6977 -0.2584
  372MOL0     C48987   2.076   6.779   8.380  0.5715 -0.2069  0.5683
  372MOL0     C48988   1.958   6.731   8.307  1.3899 -1.0850  0.0018
  372MOL0     N48989   1.919   6.821   8.193  0.5116 -0.6508 -0.3827
  372MOL0     C48990   1.834   6.923   8.207 -0.1149  0.5588 -0.2615
  372MOL0     C48991   1.797   6.948   8.074 -0.1434 -0.0716 -1.4188
  372MOL0     C48992   1.704   7.055   8.033  0.3730 -0.3280  0.1731
  372MOL0     C48993   1.561   7.021   8.009 -0.2075  0.5210  0.6183
  372MOL0     C48994   1.492   7.150   7.955 -0.7609  0.0714  1.1544
  372MOL0     C48995   1.338   7.139   7.946  0.7891  0.3722  0.2909
  372MOL0     O48996   1.281   7.164   8.074 -0.3125  0.8712  0.3285
  372MOL0     C48997   1.143   7.165   8.082 -0.2368 -0.7254 -0.2301
  372MOL0     C48998   1.071   7.275   8.021  0.4974 -0.1292 -0.0490
  372MOL0     C48999   0.937   7.284   8.031 -0.4682 -0.5831 -1.6467
  372MOL0     C49000   0.862   7.180   8.093 -0.2838 -0.2308  0.0285
  372MOL0     C49001   0.717   7.194   8.118 -0.0675  0.5330 -0.7141
  372MOL0     O49002   0.653   7.084   8.154 -0.1393  0.3797  0.3872
  372MOL0     C49003   0.514   7.084   8.120  0.5131  0.2230 -0.8939
  372MOL0     C49004   0.453   7.144   8.008  0.4944  0.7246  0.1214
  372MOL0     C49005   0.312   7.122   7.999  0.1259 -0.3390 -0.5820
  372MOL0     C49006   0.235   7.045   8.088 -0.7900  0.2958  0.2605
  372MOL0     O49007   0.103   7.040   8.066  0.0402 -0.2965  1.0635
  372MOL0     C49008   0.012   7.024   8.174  0.4218 -0.5377  0.7548
  372MOL0     C49009  -0.033   6.876   8.197  0.1933 -0.3358  0.6954
  372MOL0     C49010  -0.049   6.854   8.349 -0.1912 -0.2751  0.2303
  372MOL0     C49011  -0.158   6.944   8.415 -0.0552 -0.7093 -0.3321
  372MOL0     C49012  -0.092   7.037   8.528 -0.5180 -0.2725  0.0616
  372MOL0     C49013  -0.186   7.131   8.609 -0.3109  0.1443  0.6780
  372MOL0     C49014  -0.323   7.076   8.640  0.2108  0.1944  0.7967
  372MOL0     C49015  -0.398   7.166   8.737  0.0901 -0.4686  0.3746
  372MOL0    Cl49016  -0.565   7.106   8.753 -0.4743  0.4054 -0.4022
  372MOL0     C49017   0.306   6.989   8.198 -0.0682  0.2681  0.1981
  372MOL0     C49018   0.444   6.995   8.209 -0.1064 -0.6764  0.5151
  372MOL0     O49019   0.667   7.305   8.098 -0.5252 -0.6598 -0.2849
  372MOL0     C49020   0.934   7.062   8.132 -0.5346  0.4640  0.1732
  372MOL0     C49021   1.070   7.057   8.135  0.1851  0.5507 -0.3237
  372MOL0     N49022   1.861   6.858   7.991  0.1628  0.4161 -0.7025
  372MOL0     N49023   1.939   6.785   8.061 -1.1026 -0.1753 -0.7914
  372MOL0     C49024   2.879   6.428   8.865  0.4493  0.0266  0.0468
  372MOL0     C49025   3.014   6.437   8.860  0.6806  0.1835  0.1236
  372MOL0     C49026   3.403   6.221   8.818 -0.0071 -0.5309 -0.4004
  372MOL0     C49027   3.454   6.091   8.832 -0.4279 -0.2438 -0.3151
  372MOL0     C49028   3.591   6.067   8.827 -0.4371  0.5261 -0.9416
  372MOL0     C49029   3.684   6.173   8.806 -0.4174 -0.9449 -0.5652
  372MOL0     O49030   3.814   6.138   8.812  0.5258  0.6478 -0.3125
  372MOL0     C49031   3.905   6.168   8.698  0.4494 -0.4306  0.5270
  372MOL0     C49032   4.013   6.266   8.735 -0.1582 -0.0053  0.9327
  372MOL0     C49033   4.120   6.199   8.814  0.0058 -0.8821  0.1663
  372MOL0     C49034   4.220   6.114   8.732  0.3995  0.5659 -0.7122
  372MOL0     C49035   4.319   6.183   8.655  0.6971  0.2351 -0.2115
  372MOL0     C49036   4.415   6.237   8.598  1.0318  0.2404 -0.2456
  372MOL0     C49037   3.629   6.296   8.773  0.0848  0.2983 -0.3498
  372MOL0     C49038   3.492   6.325   8.786  0.8561 -0.3583 -0.4380
  372MOL0     H49039   3.077   6.272   8.574 -2.6920 -3.0850 -0.7862
  372MOL0     H49040   2.822   6.253   8.580 -2.0825  2.3674 -0.3241
  372MOL0     H49041   2.611   6.557   8.838 -5.1121  1.3208  0.5314
  372MOL0     H49042   2.592   6.395   8.920  2.5026 -1.6155 -1.2158
  372MOL0     H49043   2.375   6.460   8.850 -0.3510  0.8693 -0.9248
  372MOL0     H49044   2.428   6.349   8.728 -1.4487  0.1347 -0.2458
  372MOL0     H49045   2.514   6.555   8.589  0.0948  0.0152 -0.3522
  372MOL0     H49046   2.429   6.661   8.700  1.5689  0.1085 -0.2604
  372MOL0     H49047   2.304   6.469   8.511  4.4434  2.9196 -2.0728
  372MOL0     H49048   2.222   6.501   8.661 -2.7970 -0.1166 -1.7396
  372MOL0     H49049   2.328   6.707   8.470  0.8712  2.6992  2.4175
  372MOL0     H49050   2.226   6.751   8.614 -2.9527  0.4474 -1.5686
  372MOL0     H49051   2.053   6.607   8.519  2.5912  0.8603  3.1782
  372MOL0     H49052   2.158   6.581   8.376  0.6484  0.0931  0.6043
  372MOL0     H49053   2.040   6.860   8.444 -1.9992  1.4891 -2.6980
  372MOL0     H49054   2.151   6.812   8.308  0.5571 -0.1941  0.5595
  372MOL0     H49055   1.874   6.719   8.375  1.1611 -0.1145 -0.0960
  372MOL0     H49056   1.971   6.629   8.272 -3.0431 -2.0221  0.5124
  372MOL0     H49057   1.803   6.978   8.295 -3.6946  0.8997 -1.5941
  372MOL0     H49058   1.741   7.101   7.942  1.6029 -2.1131 -0.2657
  372MOL0     H49059   1.702   7.126   8.117 -0.1865  1.0842 -0.9898
  372MOL0     H49060   1.521   6.982   8.103  1.9948  1.4140  2.0070
  372MOL0     H49061   1.550   6.948   7.928  3.0058 -0.0948  0.6247
  372MOL0     H49062   1.533   7.242   7.998 -1.8361  1.1045  0.0491
  372MOL0     H49063   1.522   7.168   7.852 -3.9354 -0.4732  0.0242
  372MOL0     H49064   1.309   7.039   7.913  3.7941 -0.0456 -1.4649
  372MOL0     H49065   1.303   7.213   7.874  0.0846 -1.7355 -1.6382
  372MOL0     H49066   1.121   7.354   7.966  0.3676 -1.0570 -1.5280
  372MOL0     H49067   0.884   7.372   7.994 -3.4138 -1.4059  0.2629
  372MOL0     H49068   0.505   7.198   7.929 -1.1664  0.5405 -1.1424
  372MOL0     H49069   0.248   7.156   7.918 -0.3216 -0.8846 -0.4676
  372MOL0     H49070  -0.080   7.082   8.161  0.5502 -0.6784 -0.9154
  372MOL0     H49071   0.065   7.059   8.264  0.1163  0.0961  0.6942
  372MOL0     H49072   0.047   6.811   8.160  2.0002 -0.1281  3.8723
  372MOL0     H49073  -0.121   6.859   8.135  0.6293  2.6519 -0.9813
  372MOL0     H49074   0.049   6.882   8.390  0.3399 -1.4017 -0.2176
  372MOL0     H49075  -0.044   6.745   8.358  0.4278 -0.6576 -3.1945
  372MOL0     H49076  -0.208   7.009   8.342  0.9937 -0.1708 -0.5877
  372MOL0     H49077  -0.237   6.887   8.465 -2.5780  3.6307  1.1641
  372MOL0     H49078  -0.022   7.094   8.467  0.3930 -1.9477 -0.5409
  372MOL0     H49079  -0.026   6.979   8.593  1.7467  0.3145 -1.5770
  372MOL0     H49080  -0.186   7.228   8.559  2.2380  0.0228  0.2767
  372MOL0     H49081  -0.139   7.155   8.705 -1.1858 -0.5109  1.2804
  372MOL0     H49082  -0.370   7.065   8.542  3.1507 -0.4224 -0.6616
  372MOL0     H49083  -0.307   6.979   8.688 -2.2900 -1.4854 -1.4577
  372MOL0     H49084  -0.398   7.268   8.697  3.3151 -0.3936  0.3257
  372MOL0     H49085  -0.358   7.169   8.839 -0.5872 -2.6299  0.7405
  372MOL0     H49086   0.238   6.931   8.260 -1.7847  0.5963 -1.2942
  372MOL0     H49087   0.495   6.939   8.288 -0.3506  0.8558  1.8040
  372MOL0     H49088   0.888   6.978   8.182  2.6207 -0.5930  1.5921
  372MOL0     H49089   1.129   6.987   8.193  2.0214  2.3881  0.1780
  372MOL0     H49090   2.822   6.478   8.942  1.6298  1.1079  0.2470
  372MOL0     H49091   3.069   6.489   8.937 -0.6062  3.9747 -1.3140
  372MOL0     H49092   3.389   6.009   8.862 -0.0329 -1.0192 -1.5324
  372MOL0     H49093   3.623   5.964   8.839 -0.5167  0.4678 -1.2258
  372MOL0     H49094   3.834   6.206   8.623 -1.9229 -1.2303  2.2428
  372MOL0     H49095   3.949   6.077   8.658 -1.1771 -0.0849 -2.3314
  372MOL0     H49096   4.051   6.306   8.640  0.0878 -1.7843  0.2508
  372MOL0     H49097   3.963   6.349   8.787  0.7712  1.1956 -0.0333
  372MOL0     H49098   4.082   6.137   8.897 -0.5311  0.1815  0.7323
  372MOL0     H49099   4.177   6.283   8.854  1.8468 -2.2570  0.6328
  372MOL0     H49100   4.265   6.041   8.799 -2.9517 -1.1975 -0.1507
  372MOL0     H49101   4.157   6.060   8.660 -2.8414  0.5008  1.9170
  372MOL0     H49102   4.500   6.291   8.560  0.9746  0.6934  0.2573
  372MOL0     H49103   3.693   6.381   8.752  0.5414  0.2824  0.8772
  372MOL0     H49104   3.454   6.422   8.755  0.4937 -0.5068 -0.4605
  373MOL0     O49105   7.378   8.217   9.807 -0.0195 -0.8129 -0.4404
  373MOL0     C49106   7.404   8.243   9.923  0.5848 -0.0182  0.0437
  373MOL0     O49107   7.340   8.200  10.038  0.6497 -0.8411 -0.0871
  373MOL0     C49108   7.214   8.143  10.051  0.3691  0.1270  1.0071
  373MOL0     C49109   7.173   8.095  10.174 -0.5601 -0.8756 -0.7268
  373MOL0     C49110   7.046   8.054  10.204  0.5504 -0.5150  0.1106
  373MOL0     C49111   6.948   8.055  10.111 -0.4537  0.1536  0.2750
  373MOL0     O49112   6.823   7.995  10.131 -0.5763  0.0802 -0.5244
  373MOL0     C49113   6.719   8.076  10.098  0.6028  0.9253 -0.7951
  373MOL0     C49114   6.632   8.060  10.223 -0.8763 -0.6779  0.2612
  373MOL0     C49115   6.496   8.125  10.213  0.5224 -0.3093  0.9319
  373MOL0     C49116   6.487   8.274  10.184 -0.0946 -0.2745 -0.1839
  373MOL0     C49117   6.354   8.344  10.221 -0.1603  0.7236  0.0844
  373MOL0     C49118   6.339   8.379  10.370  0.6964 -0.3650 -0.2526
  373MOL0     C49119   6.225   8.483  10.386 -0.5728  0.0992 -0.6289
  373MOL0     C49120   6.093   8.427  10.336 -0.5655 -0.2247 -0.1458
  373MOL0     N49121   5.978   8.500  10.379 -0.9581  0.6676 -0.2093
  373MOL0     C49122   5.898   8.471  10.488 -0.6147 -0.2321  0.9284
  373MOL0     C49123   5.789   8.546  10.472  0.7153  0.3949 -0.1758
  373MOL0     C49124   5.689   8.549  10.584  1.4467 -0.4947  0.8985
  373MOL0     C49125   5.556   8.453  10.574 -0.2452 -0.4436 -0.7069
  373MOL0     C49126   5.481   8.457  10.706  0.4683 -0.0290  0.3793
  373MOL0     C49127   5.367   8.355  10.723 -0.0624  0.1830  0.2072
  373MOL0     O49128   5.255   8.373  10.632  0.6127  0.1305 -0.0282
  373MOL0     C49129   5.133   8.325  10.675 -0.1059 -0.6806  1.0628
  373MOL0     C49130   5.091   8.193  10.689  0.1084 -0.1008  0.1157
  373MOL0     C49131   4.971   8.158  10.743 -0.0834  0.2270 -0.1959
  373MOL0     C49132   4.879   8.257  10.768  0.3522 -0.4320  0.6203
  373MOL0     C49133   4.740   8.223  10.813  0.0138  0.7221  0.0827
  373MOL0     O49134   4.652   8.331  10.831 -0.9149 -0.0819  0.2813
  373MOL0     C49135   4.522   8.306  10.867 -0.0996  0.8247 -0.2372
  373MOL0     C49136   4.428   8.322  10.764  0.7498  1.0210 -0.5702
  373MOL0     C49137   4.290   8.303  10.791  0.1662  0.8826  0.4097
  373MOL0     C49138   4.252   8.293  10.926 -0.3279  0.4036 -0.9346
  373MOL0     O49139   4.127   8.280  10.978 -0.2422  0.3494  0.0992
  373MOL0     C49140   4.007   8.291  10.891 -0.3714  0.1281 -1.4068
  373MOL0     C49141   3.886   8.227  10.959  0.0435 -0.4845  0.1989
  373MOL0     C49142   3.776   8.204  10.854  0.7715 -0.2415  0.3980
  373MOL0     C49143   3.673   8.325  10.841 -0.3982  0.6422  0.1063
  373MOL0     C49144   3.576   8.286  10.732 -0.5457 -0.6767 -0.2783
  373MOL0     C49145   3.480   8.405  10.704  0.0426  0.6328 -0.2745
  373MOL0     C49146   3.397   8.444  10.824 -1.1487  0.0790  0.4997
  373MOL0     C49147   3.278   8.534  10.786  1.0997 -0.8780 -0.6615
  373MOL0    Cl49148   3.149   8.443  10.710 -0.2729 -0.6072  0.0891
  373MOL0     C49149   4.356   8.298  11.029  0.6425  0.8632  0.0052
  373MOL0     C49150   4.485   8.297  10.997  0.0915  0.8770 -0.2864
  373MOL0     O49151   4.708   8.107  10.827  0.2927  1.1700  0.2523
  373MOL0     C49152   4.906   8.388  10.739 -0.1273 -0.1930  0.9392
  373MOL0     C49153   5.037   8.422  10.701 -0.0900  0.5105  0.5524
  373MOL0     N49154   5.801   8.626  10.360 -0.3838 -0.4649  0.9021
  373MOL0     N49155   5.917   8.594  10.295 -0.0412  0.0520 -0.5148
  373MOL0     C49156   6.979   8.101   9.977 -0.2136 -0.6610  0.4632
  373MOL0     C49157   7.107   8.149   9.955 -0.2280  0.1689  0.2665
  373MOL0     C49158   7.527   8.310   9.930 -0.6269 -0.0645 -0.6809
  373MOL0     C49159   7.584   8.392   9.831  1.1209 -0.0152  0.1213
  373MOL0     C49160   7.709   8.448   9.849  0.6078 -0.5093 -0.2311
  373MOL0     C49161   7.784   8.430   9.966  0.0693 -0.0210 -0.1212
  373MOL0     O49162   7.911   8.486   9.964 -0.1140 -0.3239 -0.4116
  373MOL0     C49163   7.986   8.454  10.086  0.9836  0.5420 -0.2632
  373MOL0     C49164   8.126   8.502  10.059 -0.4412 -0.2307 -0.0491
  373MOL0     C49165   8.221   8.493  10.183  0.3352  0.1220  0.9221
  373MOL0     C49166   8.295   8.353  10.180 -0.5676 -0.6293  0.6754
  373MOL0     C49167   8.209   8.230  10.199 -0.1003 -0.4128 -0.9784
  373MOL0     C49168   8.146   8.128  10.229  1.1392 -0.4305  1.1122
  373MOL0     C49169   7.724   8.343  10.063  0.4895 -0.5162  0.2507
  373MOL0     C49170   7.599   8.288  10.042 -1.4298 -0.1124 -0.0318
  373MOL0     H49171   7.241   8.097  10.259 -1.1210 -0.1543 -0.2820
  373MOL0     H49172   7.033   8.028  10.309 -0.9290  2.2261  0.6907
  373MOL0     H49173   6.673   8.039  10.006  0.7464 -0.7672 -0.2262
  373MOL0     H49174   6.744   8.181  10.082  0.3183  1.1191 -0.0378
  373MOL0     H49175   6.683   8.106  10.309 -1.1970 -0.0374  0.1175
  373MOL0     H49176   6.615   7.954  10.244  0.6105 -1.4438 -2.0649
  373MOL0     H49177   6.447   8.108  10.309  0.6746 -0.9577  0.8982
  373MOL0     H49178   6.441   8.073  10.134 -0.1391 -1.1634  1.9295
  373MOL0     H49179   6.567   8.326  10.238 -0.7089 -0.1499  0.6235
  373MOL0     H49180   6.489   8.279  10.075  0.1675 -0.0098 -0.1686
  373MOL0     H49181   6.266   8.281  10.203  0.2698  0.3836 -0.8327
  373MOL0     H49182   6.354   8.434  10.160  2.1276  0.0511 -1.0255
  373MOL0     H49183   6.436   8.416  10.405  1.0552  1.8623 -3.2359
  373MOL0     H49184   6.326   8.285  10.424 -0.3161  0.3386  0.7622
  373MOL0     H49185   6.217   8.518  10.489 -0.3858  0.5108 -0.7536
  373MOL0     H49186   6.243   8.571  10.323 -3.8200  2.0071  0.8564
  373MOL0     H49187   6.078   8.326  10.378 -2.0926 -0.4929 -1.2411
  373MOL0     H49188   6.082   8.409  10.229 -3.3174 -2.1181  0.3488
  373MOL0     H49189   5.913   8.396  10.564  1.1838  1.0825  1.9479
  373MOL0     H49190   5.652   8.652  10.575  0.3504 -0.7379  2.3201
  373MOL0     H49191   5.736   8.540  10.682  1.5565  1.5229  1.0706
  373MOL0     H49192   5.597   8.353  10.561  0.2948 -0.5606  1.4963
  373MOL0     H49193   5.486   8.481  10.494 -0.8453  0.0597 -0.0250
  373MOL0     H49194   5.546   8.440  10.792  1.3371  1.1461 -0.0164
  373MOL0     H49195   5.433   8.554  10.718  0.6129  0.2049 -0.7980
  373MOL0     H49196   5.334   8.360  10.828 -1.9172 -0.5823 -0.2949
  373MOL0     H49197   5.403   8.254  10.705  2.0905  1.0811 -0.8087
  373MOL0     H49198   5.164   8.115  10.670  1.0166  1.1592 -1.8431
  373MOL0     H49199   4.940   8.055  10.760 -3.4020  1.4572  2.1575
  373MOL0     H49200   4.459   8.337  10.661 -0.9441  1.2475 -1.0685
  373MOL0     H49201   4.215   8.296  10.714 -0.0231  0.0151  0.6688
  373MOL0     H49202   4.028   8.232  10.801  0.3276 -1.7291 -0.0794
  373MOL0     H49203   3.995   8.398  10.868 -1.9501 -0.0045 -1.3020
  373MOL0     H49204   3.850   8.288  11.042  2.2635 -0.2117  1.0135
  373MOL0     H49205   3.914   8.133  11.006 -0.2376 -0.0199  1.3299
  373MOL0     H49206   3.728   8.112  10.889  2.2430 -1.2917 -0.2555
  373MOL0     H49207   3.827   8.184  10.759  2.1077  1.2211  0.7623
  373MOL0     H49208   3.627   8.344  10.939  2.2593  1.7607  1.2408
  373MOL0     H49209   3.722   8.417  10.807 -0.3203 -0.0523 -1.7572
  373MOL0     H49210   3.524   8.193  10.758 -1.4642  0.1725  1.0595
  373MOL0     H49211   3.633   8.266  10.641 -2.2917  0.0617 -1.5880
  373MOL0     H49212   3.412   8.362  10.629  0.7355 -0.7268 -0.1536
  373MOL0     H49213   3.548   8.481  10.664 -0.7584  1.2222 -0.5381
  373MOL0     H49214   3.369   8.355  10.880  2.0912 -1.1979  0.3050
  373MOL0     H49215   3.462   8.501  10.891  1.8981 -0.1177 -2.0291
  373MOL0     H49216   3.305   8.612  10.714 -1.0641 -1.5085 -2.2199
  373MOL0     H49217   3.235   8.583  10.874 -3.2614 -1.5608 -2.1918
  373MOL0     H49218   4.319   8.281  11.130 -1.2481  0.7506 -0.6780
  373MOL0     H49219   4.561   8.282  11.074 -0.9245 -2.6858  0.2058
  373MOL0     H49220   4.845   8.478  10.737  1.8834  1.3342 -2.8981
  373MOL0     H49221   5.078   8.520  10.678  2.0865 -0.7442 -1.3871
  373MOL0     H49222   6.907   8.115   9.898  0.0896  1.7387  0.5315
  373MOL0     H49223   7.128   8.190   9.856 -1.3324 -0.0306 -0.0558
  373MOL0     H49224   7.525   8.423   9.745  0.1029  2.9024  1.7481
  373MOL0     H49225   7.744   8.519   9.774 -0.3903  1.6823  1.2609
  373MOL0     H49226   7.983   8.348  10.114  1.8278  0.3902 -0.7051
  373MOL0     H49227   7.934   8.504  10.168 -1.2629  0.0434 -1.3304
  373MOL0     H49228   8.166   8.442   9.977  2.0662  0.1689  0.7925
  373MOL0     H49229   8.123   8.607  10.028 -0.6178 -0.2217 -0.0028
  373MOL0     H49230   8.164   8.510  10.275  0.0858 -0.7500  0.9344
  373MOL0     H49231   8.298   8.571  10.178  1.2861 -0.8734 -0.6590
  373MOL0     H49232   8.350   8.349  10.085 -2.2037  1.4670 -0.4287
  373MOL0     H49233   8.366   8.353  10.263 -0.7659  0.2093  0.8442
  373MOL0     H49234   8.072   8.051  10.226  0.7515 -0.0931 -2.3701
  373MOL0     H49235   7.781   8.327  10.154 -0.0022 -1.1779  0.4523
  373MOL0     H49236   7.550   8.233  10.122 -0.8995  2.8619  2.5831
  374MOL0     O49237   5.352   3.595   3.653  0.1663  0.7729  0.1050
  374MOL0     C49238   5.384   3.478   3.704  0.1426 -0.7315  1.6698
  374MOL0     O49239   5.299   3.389   3.751 -0.1271 -0.3491  0.3515
  374MOL0     C49240   5.178   3.429   3.783 -0.0617 -0.5495  0.9990
  374MOL0     C49241   5.172   3.510   3.893  0.1922  0.6184  0.8138
  374MOL0     C49242   5.043   3.544   3.937 -0.5624 -0.9420 -0.8211
  374MOL0     C49243   4.921   3.504   3.877  0.5079  0.0622  0.7340
  374MOL0     O49244   4.803   3.552   3.914  0.2320 -0.2593  0.1563
  374MOL0     C49245   4.671   3.505   3.867  0.6088 -0.4599 -0.0442
  374MOL0     C49246   4.575   3.605   3.934 -0.0434 -0.3815  0.3454
  374MOL0     C49247   4.430   3.545   3.913  0.0281 -0.1581 -0.3415
  374MOL0     C49248   4.358   3.609   3.786 -0.1877 -0.0678 -1.3864
  374MOL0     C49249   4.234   3.528   3.753 -0.5181  0.7506  0.4220
  374MOL0     C49250   4.120   3.575   3.836 -0.2476  0.0116 -0.0488
  374MOL0     C49251   4.054   3.696   3.764  0.0864  0.9185  0.6740
  374MOL0     C49252   3.912   3.726   3.817 -0.1403 -0.1917  0.0821
  374MOL0     N49253   3.811   3.699   3.706 -0.4646 -0.4184  0.0650
  374MOL0     C49254   3.727   3.597   3.696  1.1768  0.2559 -0.1254
  374MOL0     C49255   3.649   3.617   3.586 -0.4166  0.0705 -0.4161
  374MOL0     C49256   3.535   3.534   3.548  0.8952  0.7924  0.9605
  374MOL0     C49257   3.411   3.563   3.623  0.7827 -0.1410 -1.2974
  374MOL0     C49258   3.288   3.485   3.578 -0.0215  0.3533  0.4011
  374MOL0     C49259   3.186   3.572   3.494 -0.3004  0.7570  0.1107
  374MOL0     O49260   3.127   3.655   3.591 -0.2218 -0.6579 -0.2882
  374MOL0     C49261   3.005   3.706   3.557 -0.3235 -0.0962 -0.4992
  374MOL0     C49262   2.928   3.779   3.646 -0.5044 -0.6768  0.0178
  374MOL0     C49263   2.795   3.814   3.625  0.4842 -0.2600 -0.8752
  374MOL0     C49264   2.738   3.792   3.499  0.3025  0.0105 -0.4800
  374MOL0     C49265   2.611   3.839   3.475 -0.6035  0.2659  0.4595
  374MOL0     O49266   2.535   3.872   3.580  0.5798 -0.5410 -0.9290
  374MOL0     C49267   2.413   3.935   3.564  0.1857  0.8363 -0.5764
  374MOL0     C49268   2.317   3.910   3.667 -0.5053 -0.4155  0.4093
  374MOL0     C49269   2.195   3.977   3.660 -0.8487 -1.2011 -0.6140
  374MOL0     C49270   2.166   4.072   3.562 -0.0178 -0.3454  0.6851
  374MOL0     O49271   2.049   4.142   3.548 -0.0248 -0.3421 -1.1123
  374MOL0     C49272   2.007   4.212   3.675 -0.1368  1.0332 -0.2576
  374MOL0     C49273   1.907   4.126   3.759  0.0827  0.5659  0.7093
  374MOL0     C49274   1.816   4.022   3.693 -0.4568  0.2458 -0.1641
  374MOL0     C49275   1.675   4.082   3.651  0.0943  0.2105  0.3636
  374MOL0     C49276   1.586   3.990   3.567 -0.8828 -0.2379  0.8387
  374MOL0     C49277   1.501   3.889   3.643  0.1670 -0.1704  1.4337
  374MOL0     C49278   1.435   3.800   3.544  0.1583  0.5243  0.8723
  374MOL0     C49279   1.355   3.686   3.600  0.5974  0.2127  0.2327
  374MOL0    Cl49280   1.256   3.612   3.471  0.1841  0.3272  0.0233
  374MOL0     C49281   2.259   4.089   3.460  0.6181  0.4294 -0.0623
  374MOL0     C49282   2.382   4.026   3.466 -0.2260  0.9077  0.1287
  374MOL0     O49283   2.569   3.822   3.363 -0.3272  0.0618  0.0371
  374MOL0     C49284   2.822   3.732   3.399  0.0921  0.0750 -0.5594
  374MOL0     C49285   2.945   3.680   3.427 -0.0399 -1.0966 -0.0864
  374MOL0     N49286   3.682   3.731   3.523 -0.1383 -0.2993 -0.0517
  374MOL0     N49287   3.782   3.781   3.591 -0.4276  0.9628 -0.2435
  374MOL0     C49288   4.928   3.403   3.780  0.3766 -0.4880 -0.0515
  374MOL0     C49289   5.055   3.379   3.730  0.3857 -0.0638  0.1484
  374MOL0     C49290   5.521   3.432   3.706  0.1394  0.6725 -0.5280
  374MOL0     C49291   5.622   3.500   3.650 -0.1803  0.1347 -0.2436
  374MOL0     C49292   5.756   3.459   3.671 -0.3796 -0.7849 -0.2132
  374MOL0     C49293   5.792   3.345   3.755 -1.5526 -0.3973 -0.0564
  374MOL0     O49294   5.924   3.313   3.766 -0.6142 -0.4592 -0.1408
  374MOL0     C49295   5.965   3.203   3.840 -0.1916 -0.4079 -0.3748
  374MOL0     C49296   6.112   3.172   3.806 -0.0652 -0.9879 -0.2138
  374MOL0     C49297   6.141   3.126   3.658 -1.0234  0.8650  0.3312
  374MOL0     C49298   6.279   3.064   3.641 -0.3937  0.5394 -0.6981
  374MOL0     C49299   6.288   2.937   3.720 -1.0418  0.0049  0.5352
  374MOL0     C49300   6.313   2.832   3.780  0.0948  0.6714  0.0623
  374MOL0     C49301   5.686   3.268   3.813  0.1899 -0.0502  0.0583
  374MOL0     C49302   5.556   3.313   3.779 -0.0586  0.4784 -0.0931
  374MOL0     H49303   5.266   3.546   3.932  0.7622 -1.8245  1.8356
  374MOL0     H49304   5.038   3.623   4.011 -4.8780 -1.3589 -0.4026
  374MOL0     H49305   4.656   3.406   3.912  2.6207 -0.8433 -0.1431
  374MOL0     H49306   4.654   3.504   3.759 -0.7489 -3.3453  0.0748
  374MOL0     H49307   4.573   3.702   3.882  1.5742 -1.9048 -2.8913
  374MOL0     H49308   4.590   3.609   4.042  0.9461  0.4548  0.1894
  374MOL0     H49309   4.371   3.575   4.000 -1.3119  4.2341 -2.4458
  374MOL0     H49310   4.439   3.436   3.912  3.1080 -0.0125  0.9279
  374MOL0     H49311   4.342   3.716   3.802  2.3365  0.0438  1.1777
  374MOL0     H49312   4.430   3.608   3.704  0.1158  0.7083 -1.1380
  374MOL0     H49313   4.247   3.421   3.771 -0.6785  0.5116 -0.7814
  374MOL0     H49314   4.209   3.536   3.647 -3.1037 -0.1186  0.8940
  374MOL0     H49315   4.148   3.594   3.940 -2.0572 -1.9522  0.8889
  374MOL0     H49316   4.039   3.502   3.843 -0.3522  0.2816  2.9997
  374MOL0     H49317   4.123   3.780   3.778  1.7530 -0.0904 -1.0226
  374MOL0     H49318   4.053   3.681   3.656 -0.4135 -0.1669  0.8105
  374MOL0     H49319   3.899   3.826   3.859 -0.6873 -0.2879  0.1446
  374MOL0     H49320   3.897   3.649   3.893 -3.9419 -2.3187 -2.4890
  374MOL0     H49321   3.707   3.523   3.773 -1.9416  1.1480  0.0474
  374MOL0     H49322   3.576   3.432   3.551  1.4917  0.7433 -2.9968
  374MOL0     H49323   3.522   3.537   3.440  3.2364 -0.5743  0.5602
  374MOL0     H49324   3.378   3.667   3.610  2.0481  0.0543 -3.6314
  374MOL0     H49325   3.439   3.545   3.727 -0.5227  1.5081 -0.6084
  374MOL0     H49326   3.337   3.409   3.515  1.6996  3.5241 -2.4263
  374MOL0     H49327   3.235   3.438   3.661  0.0821  0.5605  0.5849
  374MOL0     H49328   3.115   3.499   3.453 -1.2080  1.2235  0.8138
  374MOL0     H49329   3.231   3.625   3.409  0.0939  1.1447  0.5575
  374MOL0     H49330   2.975   3.798   3.742 -0.8090 -1.9578  0.4451
  374MOL0     H49331   2.739   3.860   3.706 -1.0068  0.8257 -2.4447
  374MOL0     H49332   2.339   3.841   3.749  1.7370  0.8551  0.9833
  374MOL0     H49333   2.118   3.955   3.733 -0.9555 -0.5888 -0.5365
  374MOL0     H49334   1.957   4.301   3.636 -0.5306  0.7113 -0.4968
  374MOL0     H49335   2.090   4.247   3.737 -1.0113  1.6295  0.6090
  374MOL0     H49336   1.841   4.197   3.809 -1.7850 -0.2673 -0.4670
  374MOL0     H49337   1.961   4.067   3.835  0.1869  0.7685  0.7921
  374MOL0     H49338   1.793   3.943   3.766 -3.2726  0.6790 -0.4923
  374MOL0     H49339   1.872   3.975   3.612  1.9210  0.8354  1.0530
  374MOL0     H49340   1.613   4.093   3.741 -0.4773 -0.2388  0.0318
  374MOL0     H49341   1.700   4.178   3.604  1.8908 -0.0582  0.6867
  374MOL0     H49342   1.648   3.937   3.494  1.3978  2.7588  0.3839
  374MOL0     H49343   1.526   4.056   3.504 -0.1077 -0.7498 -0.4741
  374MOL0     H49344   1.434   3.939   3.713  0.2077 -1.0593  2.1198
  374MOL0     H49345   1.576   3.833   3.699  1.7265 -0.4418 -0.7756
  374MOL0     H49346   1.362   3.853   3.482  2.1029  1.8069 -0.4335
  374MOL0     H49347   1.509   3.753   3.479 -0.4848 -0.4996  0.8603
  374MOL0     H49348   1.293   3.720   3.684 -1.9101 -1.7222 -0.7266
  374MOL0     H49349   1.431   3.621   3.646  1.1521  0.7751  0.1101
  374MOL0     H49350   2.235   4.155   3.377  0.5247  1.7150  0.9494
  374MOL0     H49351   2.449   4.050   3.385 -0.5922  1.9281  0.1105
  374MOL0     H49352   2.794   3.712   3.296 -3.3753  2.2199 -0.1942
  374MOL0     H49353   2.980   3.624   3.341  0.0532  2.4115 -2.5611
  374MOL0     H49354   4.843   3.361   3.727 -0.4011  1.6225 -0.5850
  374MOL0     H49355   5.062   3.305   3.651  0.9356  0.9189 -0.7537
  374MOL0     H49356   5.594   3.596   3.606 -0.3446  3.3887  5.7779
  374MOL0     H49357   5.838   3.512   3.624  2.9061 -3.6344  1.8903
  374MOL0     H49358   5.902   3.116   3.819 -0.7991 -0.2385  0.6500
  374MOL0     H49359   5.957   3.216   3.948 -0.9263  1.3821 -0.6054
  374MOL0     H49360   6.173   3.259   3.833 -1.3778  0.4271 -1.6213
  374MOL0     H49361   6.161   3.091   3.861  5.0342  0.3535 -2.2443
  374MOL0     H49362   6.129   3.196   3.574  1.7893 -1.8337 -2.5715
  374MOL0     H49363   6.075   3.044   3.628 -1.4191  0.1483  2.9273
  374MOL0     H49364   6.287   3.050   3.533 -0.9120  1.7262 -0.9066
  374MOL0     H49365   6.366   3.128   3.658  0.1344 -0.4661  0.5429
  374MOL0     H49366   6.308   2.735   3.825 -1.3785  0.8409  0.3172
  374MOL0     H49367   5.693   3.174   3.866  0.3946  0.7847  1.6020
  374MOL0     H49368   5.473   3.255   3.819 -1.9942  0.7957 -3.3330
  375MOL0     O49369   0.734   6.498   0.148  0.5395 -0.8158 -0.3743
  375MOL0     C49370   0.832   6.461   0.205 -0.7261 -0.4289 -0.2082
  375MOL0     O49371   0.847   6.452   0.342 -0.0229 -0.1913  0.0491
  375MOL0     C49372   0.771   6.517   0.440  0.8389  0.5184  0.4208
  375MOL0     C49373   0.742   6.653   0.432 -0.0669 -0.2728  0.4010
  375MOL0     C49374   0.670   6.720   0.537  0.3715  0.5638  0.3994
  375MOL0     C49375   0.603   6.646   0.638 -0.0040  0.0492  0.6948
  375MOL0     O49376   0.531   6.698   0.743 -0.4688 -0.1630  0.1712
  375MOL0     C49377   0.535   6.843   0.751  0.3631  0.4403 -0.2627
  375MOL0     C49378   0.444   6.895   0.861 -0.3390 -0.5097 -0.2371
  375MOL0     C49379   0.292   6.876   0.825 -0.5972  0.2620 -0.2068
  375MOL0     C49380   0.200   6.890   0.947  0.7800  0.6530  0.0505
  375MOL0     C49381   0.059   6.868   0.904 -0.1454  0.3364 -0.4203
  375MOL0     C49382  -0.038   6.885   1.021  0.1467 -0.3080  0.2260
  375MOL0     C49383  -0.187   6.893   0.984  0.0190 -0.0818 -0.0083
  375MOL0     C49384  -0.244   6.761   0.921 -0.5081 -0.7174  0.9699
  375MOL0     N49385  -0.390   6.752   0.918  0.7124 -0.1998 -0.0992
  375MOL0     C49386  -0.484   6.852   0.884 -0.6324  0.0913  0.3399
  375MOL0     C49387  -0.606   6.791   0.887  0.0163  0.7218 -0.3951
  375MOL0     C49388  -0.737   6.858   0.861  0.1454 -0.6521 -0.4278
  375MOL0     C49389  -0.776   6.854   0.722  0.1026 -0.5729  0.0964
  375MOL0     C49390  -0.913   6.906   0.710 -1.0018 -0.4317 -0.2099
  375MOL0     C49391  -0.978   6.855   0.584 -0.3190 -0.1272 -0.6361
  375MOL0     O49392  -1.008   6.714   0.608 -0.0412 -0.9525  0.6321
  375MOL0     C49393  -1.143   6.689   0.619  0.2525  0.6642  0.3096
  375MOL0     C49394  -1.183   6.569   0.562  0.2740  0.2523  0.9059
  375MOL0     C49395  -1.313   6.521   0.572 -0.2456  0.2706  0.0940
  375MOL0     C49396  -1.406   6.589   0.645  0.3862 -0.6318  0.1849
  375MOL0     C49397  -1.550   6.539   0.642 -0.3047  0.3477  0.1740
  375MOL0     O49398  -1.628   6.600   0.729  0.4888  0.4050 -0.7641
  375MOL0     C49399  -1.767   6.578   0.730  0.1627  0.3515  0.5625
  375MOL0     C49400  -1.832   6.457   0.732 -0.1854 -0.0550 -0.9253
  375MOL0     C49401  -1.970   6.453   0.739 -0.4126 -0.7829 -0.2860
  375MOL0     C49402  -2.043   6.573   0.736  0.3774  0.3845 -0.3439
  375MOL0     O49403  -2.184   6.574   0.745 -0.5804  0.3119  0.2539
  375MOL0     C49404  -2.222   6.580   0.881 -0.7990  0.0146 -0.1226
  375MOL0     C49405  -2.333   6.478   0.898  0.2426  0.6052 -1.1567
  375MOL0     C49406  -2.429   6.457   0.777 -0.2577  0.1237 -0.0684
  375MOL0     C49407  -2.563   6.390   0.808 -0.5944 -0.5049 -0.9311
  375MOL0     C49408  -2.663   6.395   0.692 -0.3203  0.0111  0.2840
  375MOL0     C49409  -2.799   6.342   0.731 -0.1330 -0.2462 -1.0859
  375MOL0     C49410  -2.899   6.325   0.611 -0.9593 -0.9183 -0.0886
  375MOL0     C49411  -2.954   6.460   0.555  0.4209 -0.0967  0.3642
  375MOL0    Cl49412  -2.862   6.538   0.417 -0.4006  0.4445  0.0824
  375MOL0     C49413  -1.977   6.694   0.737  0.1855 -0.6126  0.0164
  375MOL0     C49414  -1.841   6.697   0.734 -0.0699  0.3035  0.2756
  375MOL0     O49415  -1.583   6.450   0.569  0.1785  0.7983  0.0188
  375MOL0     C49416  -1.369   6.706   0.708 -0.4586  0.1008 -0.4511
  375MOL0     C49417  -1.237   6.756   0.688  0.6988 -0.2645 -0.1060
  375MOL0     N49418  -0.581   6.659   0.907  0.4462  0.4471 -0.5257
  375MOL0     N49419  -0.452   6.629   0.924 -0.0553 -0.3803  0.4301
  375MOL0     C49420   0.638   6.508   0.648  0.4902 -0.2832 -1.1267
  375MOL0     C49421   0.730   6.449   0.555  0.3463 -0.8102  0.1716
  375MOL0     C49422   0.952   6.432   0.128 -0.2323  0.4119 -0.4724
  375MOL0     C49423   1.074   6.413   0.193 -0.0056  0.1439 -0.6691
  375MOL0     C49424   1.187   6.378   0.123  0.6410 -0.3048 -0.4984
  375MOL0     C49425   1.194   6.360  -0.016 -0.2256 -0.0258 -0.2434
  375MOL0     O49426   1.317   6.327  -0.078  0.4220 -0.1644  0.2702
  375MOL0     C49427   1.323   6.340  -0.222 -1.0288  0.6709 -0.5906
  375MOL0     C49428   1.465   6.310  -0.285 -0.2473  0.1525  0.4671
  375MOL0     C49429   1.586   6.376  -0.207 -0.0326 -0.2856  0.7193
  375MOL0     C49430   1.651   6.495  -0.283 -0.6596 -0.4341 -0.7195
  375MOL0     C49431   1.711   6.466  -0.411 -0.5658 -0.2298  0.2631
  375MOL0     C49432   1.759   6.430  -0.514  0.5769 -0.5689  0.7038
  375MOL0     C49433   1.074   6.380  -0.087 -0.1782 -0.3170  1.5223
  375MOL0     C49434   0.955   6.417  -0.015  0.3580  0.0462 -0.1793
  375MOL0     H49435   0.800   6.706   0.358  1.3474 -1.7583  0.3791
  375MOL0     H49436   0.660   6.828   0.532 -0.0678  0.4658 -1.5480
  375MOL0     H49437   0.490   6.895   0.667  1.5381 -1.8366 -2.4261
  375MOL0     H49438   0.641   6.871   0.759  1.0426 -1.8611 -0.5791
  375MOL0     H49439   0.453   7.003   0.876 -3.4842 -0.1893 -0.0103
  375MOL0     H49440   0.469   6.843   0.954  0.2734 -0.8624 -0.5893
  375MOL0     H49441   0.287   6.773   0.788 -0.1483  0.5135 -1.0085
  375MOL0     H49442   0.269   6.942   0.741  0.5101  0.2863 -0.5137
  375MOL0     H49443   0.235   6.808   1.011  0.5691  0.5965  0.0929
  375MOL0     H49444   0.219   6.987   0.995  2.2662  0.8380 -0.8448
  375MOL0     H49445   0.041   6.767   0.865 -0.0156 -0.1959  0.8480
  375MOL0     H49446   0.025   6.925   0.817 -2.3432 -1.3821 -0.7946
  375MOL0     H49447  -0.007   6.975   1.075  0.4070 -1.4582  2.0726
  375MOL0     H49448  -0.033   6.806   1.096 -1.4346  0.9395  1.7424
  375MOL0     H49449  -0.230   6.897   1.084 -0.9852  1.2664 -0.4651
  375MOL0     H49450  -0.208   6.983   0.926  0.3855  0.8291  1.2572
  375MOL0     H49451  -0.203   6.673   0.973 -0.2901 -1.1418  0.1011
  375MOL0     H49452  -0.203   6.744   0.821 -1.4121 -1.0590  0.6482
  375MOL0     H49453  -0.462   6.958   0.874 -0.9558  0.0530 -0.9496
  375MOL0     H49454  -0.731   6.961   0.898  0.8662 -0.4757 -1.0210
  375MOL0     H49455  -0.811   6.806   0.923 -1.1013 -1.0192 -2.1542
  375MOL0     H49456  -0.770   6.752   0.682 -2.3274  0.4910 -3.4323
  375MOL0     H49457  -0.709   6.913   0.658 -0.7479  1.2039  0.7767
  375MOL0     H49458  -0.969   6.881   0.800 -2.5343 -3.5403 -1.8804
  375MOL0     H49459  -0.917   7.016   0.707 -1.4033 -0.4029  0.9272
  375MOL0     H49460  -0.913   6.862   0.496 -1.1014 -3.6899 -1.6730
  375MOL0     H49461  -1.064   6.916   0.557  0.7059  1.0106 -1.4272
  375MOL0     H49462  -1.112   6.508   0.508  0.9827 -0.4667  2.5779
  375MOL0     H49463  -1.355   6.429   0.531 -2.0410  0.2786  1.7645
  375MOL0     H49464  -1.781   6.361   0.723 -0.4295 -0.3098  0.2798
  375MOL0     H49465  -2.016   6.355   0.730  0.7036 -1.2381 -1.3294
  375MOL0     H49466  -2.273   6.675   0.901 -3.9241 -1.2949 -1.2210
  375MOL0     H49467  -2.139   6.563   0.951 -0.2621  2.6589 -0.0267
  375MOL0     H49468  -2.393   6.513   0.983  0.8573 -1.9331  0.4409
  375MOL0     H49469  -2.296   6.377   0.916 -2.7372 -0.3884  0.0099
  375MOL0     H49470  -2.376   6.415   0.691  0.8208  2.3444 -0.5712
  375MOL0     H49471  -2.455   6.559   0.747 -0.8033 -0.2969 -1.0839
  375MOL0     H49472  -2.544   6.285   0.835 -0.3923 -0.1087  0.5651
  375MOL0     H49473  -2.606   6.441   0.895  2.2516  1.7961 -0.7156
  375MOL0     H49474  -2.619   6.339   0.610  0.3768 -2.0435  1.9602
  375MOL0     H49475  -2.680   6.500   0.668 -1.3162 -0.5340 -1.5938
  375MOL0     H49476  -2.840   6.407   0.809 -0.0638 -0.0692 -1.1953
  375MOL0     H49477  -2.782   6.247   0.783  1.0576 -0.0521 -1.0804
  375MOL0     H49478  -2.857   6.256   0.537  3.0551  0.6192  0.4578
  375MOL0     H49479  -2.982   6.279   0.664 -0.9439 -2.9108 -1.6631
  375MOL0     H49480  -2.933   6.532   0.634 -0.1983 -1.8603  2.2037
  375MOL0     H49481  -3.059   6.443   0.529  1.3869 -0.8134 -4.0191
  375MOL0     H49482  -2.035   6.783   0.756 -0.0198 -0.8536  0.5466
  375MOL0     H49483  -1.791   6.790   0.711 -2.2173  1.3278 -0.4309
  375MOL0     H49484  -1.441   6.765   0.765  0.7595  0.8256  0.3963
  375MOL0     H49485  -1.219   6.851   0.736 -1.7487 -0.6386  1.7304
  375MOL0     H49486   0.596   6.452   0.731  1.2730  1.2031  0.3440
  375MOL0     H49487   0.772   6.353   0.585 -0.2064 -0.9975  0.3652
  375MOL0     H49488   1.082   6.421   0.301  0.0719 -0.0044 -0.6642
  375MOL0     H49489   1.280   6.370   0.180  0.1586  2.4370  0.8281
  375MOL0     H49490   1.301   6.439  -0.264 -1.9332  0.4681 -0.6160
  375MOL0     H49491   1.253   6.265  -0.260 -0.6117 -1.1262  1.9039
  375MOL0     H49492   1.477   6.202  -0.299  2.5484  0.3091  1.1712
  375MOL0     H49493   1.461   6.363  -0.381  1.4953  1.8291  1.2532
  375MOL0     H49494   1.654   6.291  -0.197  0.1618 -0.7017 -2.8155
  375MOL0     H49495   1.561   6.403  -0.104  0.8515  2.8933  0.2407
  375MOL0     H49496   1.571   6.569  -0.283  0.7690  1.2088  0.4146
  375MOL0     H49497   1.726   6.545  -0.221  2.0719 -0.1996 -3.9375
  375MOL0     H49498   1.794   6.397  -0.610  0.7439 -2.6808  1.4253
  375MOL0     H49499   1.060   6.382  -0.194  2.9717  1.6435  1.0126
  375MOL0     H49500   0.860   6.426  -0.066 -0.3382 -2.4506  0.5266
  376MOL0     O49501   6.812   7.346  11.199 -0.5163  0.1658 -0.2464
  376MOL0     C49502   6.844   7.465  11.188  0.4592  0.0232 -0.1287
  376MOL0     O49503   6.755   7.574  11.179  0.0058  0.3546 -0.0023
  376MOL0     C49504   6.627   7.541  11.190  0.1677 -0.0324 -0.6787
  376MOL0     C49505   6.554   7.509  11.077  0.4780 -0.0789  0.2117
  376MOL0     C49506   6.420   7.488  11.074 -0.1775  0.9105 -0.4318
  376MOL0     C49507   6.351   7.513  11.191  0.4967  0.3319  0.0351
  376MOL0     O49508   6.216   7.501  11.180 -0.3285 -0.0359  0.5495
  376MOL0     C49509   6.127   7.581  11.257 -0.6684  0.0402 -0.1450
  376MOL0     C49510   5.990   7.521  11.253 -0.0294  0.2731  0.0294
  376MOL0     C49511   5.883   7.633  11.276 -0.3117 -0.1237 -0.0791
  376MOL0     C49512   5.876   7.670  11.425  1.2241 -0.5843 -0.6868
  376MOL0     C49513   5.741   7.745  11.461 -0.3209  0.3570 -0.3229
  376MOL0     C49514   5.746   7.811  11.594 -0.1270 -0.5040  0.2674
  376MOL0     C49515   5.614   7.862  11.665 -0.7955 -0.5046 -0.7987
  376MOL0     C49516   5.541   7.988  11.600 -1.0601  0.0479 -0.1563
  376MOL0     N49517   5.453   8.056  11.699 -0.3770 -0.1176 -0.4256
  376MOL0     C49518   5.347   8.006  11.763 -0.8255 -0.4910 -1.3452
  376MOL0     C49519   5.311   8.107  11.841 -0.3642  0.3805 -0.0696
  376MOL0     C49520   5.189   8.135  11.920 -0.1535  0.7434 -0.5344
  376MOL0     C49521   5.068   8.150  11.833 -0.0780  0.3117  0.0295
  376MOL0     C49522   4.953   8.211  11.919 -0.7438 -0.8704 -0.6076
  376MOL0     C49523   4.835   8.263  11.845  0.1658  0.0278 -0.0824
  376MOL0     O49524   4.759   8.304  11.962  0.3347  0.7778  0.1780
  376MOL0     C49525   4.634   8.352  11.954 -0.3901 -0.2463  0.9604
  376MOL0     C49526   4.569   8.360  12.072  0.1430  0.4854  0.6232
  376MOL0     C49527   4.428   8.376  12.073 -0.9346 -0.5653  0.4026
  376MOL0     C49528   4.353   8.401  11.954 -0.3596  0.2823  0.7010
  376MOL0     C49529   4.201   8.410  11.956  0.0840  0.0910  1.6377
  376MOL0     O49530   4.144   8.416  11.836 -0.2401  0.6608  1.1021
  376MOL0     C49531   4.008   8.429  11.817  0.3578 -0.7644 -0.5398
  376MOL0     C49532   3.957   8.497  11.707  0.9106 -0.0893  0.9273
  376MOL0     C49533   3.815   8.510  11.675 -0.4183 -1.2281 -0.1037
  376MOL0     C49534   3.726   8.456  11.763 -0.1544 -0.3899 -1.0470
  376MOL0     O49535   3.590   8.468  11.740  0.1288  0.2704  0.4460
  376MOL0     C49536   3.509   8.426  11.852 -0.1922  0.1539  0.2841
  376MOL0     C49537   3.362   8.456  11.819 -0.0702 -0.0127 -0.1710
  376MOL0     C49538   3.350   8.589  11.749  0.2503 -0.0418  0.1008
  376MOL0     C49539   3.195   8.623  11.741 -0.0681  0.2462  0.2309
  376MOL0     C49540   3.172   8.761  11.690 -0.1223  0.0466 -0.1733
  376MOL0     C49541   3.230   8.870  11.784 -0.2041 -0.5010  0.1195
  376MOL0     C49542   3.139   8.995  11.792 -0.2326 -1.0187  0.2857
  376MOL0     C49543   3.011   8.972  11.866 -0.5272 -0.7983  1.1925
  376MOL0    Cl49544   2.938   9.141  11.877 -0.0472  0.3841 -0.0564
  376MOL0     C49545   3.775   8.394  11.879 -0.3709 -0.1737  0.5123
  376MOL0     C49546   3.910   8.377  11.904 -1.4474  0.6140  0.0300
  376MOL0     O49547   4.145   8.406  12.065  0.9108 -0.3214 -0.3103
  376MOL0     C49548   4.424   8.398  11.832 -0.6183 -0.8647  0.4585
  376MOL0     C49549   4.566   8.377  11.838  0.1764 -0.8029  0.0946
  376MOL0     N49550   5.408   8.202  11.836  0.6594  0.3873  0.5501
  376MOL0     N49551   5.491   8.178  11.748 -0.2718 -0.1759 -0.5662
  376MOL0     C49552   6.426   7.522  11.309  0.8989  0.3971  0.4408
  376MOL0     C49553   6.572   7.533  11.310  0.6484 -0.6919  0.0521
  376MOL0     C49554   6.991   7.481  11.205 -0.3695 -0.6944  0.4048
  376MOL0     C49555   7.078   7.371  11.230 -1.0160 -0.3406 -0.2866
  376MOL0     C49556   7.219   7.385  11.230 -0.0900 -0.1603 -0.5181
  376MOL0     C49557   7.271   7.512  11.241 -0.2302 -0.6535 -1.3308
  376MOL0     O49558   7.409   7.510  11.261  0.3131 -0.0876 -0.6122
  376MOL0     C49559   7.485   7.622  11.285  0.7664 -0.4580  0.4102
  376MOL0     C49560   7.624   7.577  11.277  0.3807 -0.0054 -0.5609
  376MOL0     C49561   7.711   7.693  11.309  0.8101 -0.1746 -0.6302
  376MOL0     C49562   7.860   7.659  11.323  0.7807  0.2464 -0.9754
  376MOL0     C49563   7.944   7.768  11.273  0.9729  0.1031  0.4489
  376MOL0     C49564   8.007   7.857  11.232 -0.4529 -0.5675  0.2556
  376MOL0     C49565   7.186   7.622  11.224 -0.2137 -0.1992 -0.3453
  376MOL0     C49566   7.052   7.608  11.201 -0.1357  0.2281  0.1697
  376MOL0     H49567   6.612   7.514  10.986 -0.5071  3.8775 -0.4050
  376MOL0     H49568   6.367   7.455  10.986 -0.5222  0.8666 -0.2070
  376MOL0     H49569   6.132   7.684  11.221 -0.5964  0.2332  0.3950
  376MOL0     H49570   6.163   7.591  11.360  6.0500  4.8424 -2.2353
  376MOL0     H49571   5.981   7.435  11.319  1.9402  0.5344  0.7143
  376MOL0     H49572   5.975   7.482  11.152  0.8711 -2.7451  0.9693
  376MOL0     H49573   5.789   7.594  11.239 -0.9497  2.0423 -0.9149
  376MOL0     H49574   5.903   7.725  11.221  0.3905  1.6362  2.8686
  376MOL0     H49575   5.892   7.580  11.485  0.2382  0.9719  2.0992
  376MOL0     H49576   5.963   7.732  11.451 -0.6082  1.2620  1.3772
  376MOL0     H49577   5.654   7.679  11.459 -0.0443 -0.1696  2.1111
  376MOL0     H49578   5.718   7.817  11.382 -2.6325 -0.6518 -0.6551
  376MOL0     H49579   5.822   7.890  11.597 -1.4952  0.8662  3.7072
  376MOL0     H49580   5.793   7.735  11.656 -1.2163 -3.4061 -2.2046
  376MOL0     H49581   5.536   7.785  11.662 -1.7333  0.3083  1.2477
  376MOL0     H49582   5.646   7.877  11.768  0.8784  2.3586 -1.6279
  376MOL0     H49583   5.483   7.954  11.514  1.0171 -1.1501 -1.1584
  376MOL0     H49584   5.617   8.058  11.563 -0.4589 -0.8364 -0.6523
  376MOL0     H49585   5.293   7.915  11.738 -1.1574 -1.1131  1.3185
  376MOL0     H49586   5.205   8.229  11.973  2.5580  0.3397 -0.5197
  376MOL0     H49587   5.163   8.058  11.994 -2.6092 -2.3584 -4.1871
  376MOL0     H49588   5.039   8.050  11.798 -1.9557 -0.9544  4.4759
  376MOL0     H49589   5.090   8.219  11.751 -1.4518 -1.2419 -1.7316
  376MOL0     H49590   4.911   8.136  11.987 -3.7489  0.6565 -0.6303
  376MOL0     H49591   4.994   8.290  11.982  1.5989 -2.7461  0.3786
  376MOL0     H49592   4.798   8.180  11.784 -0.1747  0.9723 -1.1949
  376MOL0     H49593   4.853   8.356  11.791 -1.8523 -0.1331 -1.1237
  376MOL0     H49594   4.623   8.327  12.160  0.7885  0.1354  0.1015
  376MOL0     H49595   4.376   8.367  12.168  1.5167  1.6900  2.1146
  376MOL0     H49596   4.030   8.524  11.630 -1.3981  0.9089 -1.0452
  376MOL0     H49597   3.768   8.557  11.590 -0.0220  2.1270  1.3722
  376MOL0     H49598   3.528   8.489  11.939 -0.2733 -0.1107  0.4951
  376MOL0     H49599   3.516   8.319  11.875  2.9575  0.6990  2.6740
  376MOL0     H49600   3.301   8.466  11.909  1.4506  1.3490  0.7757
  376MOL0     H49601   3.318   8.387  11.746 -0.5170  0.2787 -0.1836
  376MOL0     H49602   3.396   8.578  11.651  0.6996 -2.7070  0.5259
  376MOL0     H49603   3.411   8.664  11.801  2.7244 -0.4731 -1.9818
  376MOL0     H49604   3.151   8.546  11.677 -0.4426  1.2922 -0.8086
  376MOL0     H49605   3.138   8.625  11.835 -1.0043  3.9355 -0.2266
  376MOL0     H49606   3.064   8.776  11.683 -0.3602 -2.1114 -3.3803
  376MOL0     H49607   3.213   8.775  11.589  0.0094 -0.4045 -0.1849
  376MOL0     H49608   3.331   8.885  11.745 -0.9380 -1.2888 -2.3142
  376MOL0     H49609   3.238   8.822  11.881 -0.0660 -2.9118 -1.0147
  376MOL0     H49610   3.201   9.063  11.852 -0.4976  1.2426 -1.8625
  376MOL0     H49611   3.123   9.045  11.696 -0.3064 -1.3222  0.1374
  376MOL0     H49612   3.028   8.924  11.963 -1.4012 -1.9984  0.7660
  376MOL0     H49613   2.950   8.916  11.795 -0.7663  0.8583  0.0391
  376MOL0     H49614   3.711   8.333  11.943 -0.6908 -2.3082 -1.7175
  376MOL0     H49615   3.944   8.327  11.994 -1.2807  2.9809  1.3654
  376MOL0     H49616   4.374   8.417  11.738  0.0785  0.7908  0.3862
  376MOL0     H49617   4.607   8.377  11.737 -0.9804 -1.5932 -0.4018
  376MOL0     H49618   6.372   7.529  11.403  0.2726  3.2671 -0.0394
  376MOL0     H49619   6.623   7.544  11.405 -1.4201 -1.6793  1.3283
  376MOL0     H49620   7.039   7.271  11.248 -0.2786 -0.1347  3.2927
  376MOL0     H49621   7.285   7.301  11.210  0.1940 -0.7158  2.3512
  376MOL0     H49622   7.461   7.653  11.387  0.6716 -1.0877  0.5772
  376MOL0     H49623   7.460   7.698  11.211 -1.5066 -1.9444 -0.4256
  376MOL0     H49624   7.644   7.502  11.354 -0.9293  2.0752  2.0018
  376MOL0     H49625   7.652   7.531  11.182  2.7042  0.1373 -0.0258
  376MOL0     H49626   7.688   7.732  11.409  0.7568  1.6385 -1.3079
  376MOL0     H49627   7.702   7.778  11.241 -0.9378  0.1429 -0.0716
  376MOL0     H49628   7.884   7.634  11.426  0.4199  0.4701 -0.8351
  376MOL0     H49629   7.892   7.578  11.257  0.9071  1.1630 -2.0740
  376MOL0     H49630   8.061   7.941  11.195 -1.0191 -0.6958 -0.9044
  376MOL0     H49631   7.216   7.727  11.224 -1.7352  0.3112 -2.7208
  376MOL0     H49632   6.992   7.697  11.184 -0.3891  0.8857  3.8186
  377MOL0     O49633   8.822   3.836   2.788  0.1490  0.2630  0.9353
  377MOL0     C49634   8.817   3.837   2.665  0.3114  0.3244  0.1832
  377MOL0     O49635   8.710   3.874   2.590 -0.2411 -0.6971 -0.6578
  377MOL0     C49636   8.601   3.909   2.667  0.3312 -0.4362  0.5313
  377MOL0     C49637   8.511   3.807   2.693  1.2210  0.0808  0.8007
  377MOL0     C49638   8.396   3.842   2.779 -0.1519  0.3393 -0.9215
  377MOL0     C49639   8.369   3.973   2.819 -0.0556 -0.4013  0.0563
  377MOL0     O49640   8.270   4.014   2.905 -0.5008  0.3933  0.0496
  377MOL0     C49641   8.152   3.941   2.908 -0.1027  0.3990  0.4980
  377MOL0     C49642   8.043   3.999   2.991 -0.0694  0.2377  0.3211
  377MOL0     C49643   8.025   4.140   2.939  0.1352  0.0109  0.1160
  377MOL0     C49644   7.897   4.197   2.989 -0.5921  0.4149  0.2400
  377MOL0     C49645   7.907   4.355   2.989  0.5169  1.0043 -0.2540
  377MOL0     C49646   7.868   4.413   3.129 -0.3814  0.0212 -0.0050
  377MOL0     C49647   7.852   4.572   3.120  0.3398 -0.2557 -0.2392
  377MOL0     C49648   7.715   4.606   3.063  0.0641  0.6091 -0.1798
  377MOL0     N49649   7.675   4.745   3.053 -0.0923 -0.7543  0.5144
  377MOL0     C49650   7.752   4.858   3.021 -0.2265  0.0436  0.6005
  377MOL0     C49651   7.684   4.970   3.039  0.3735 -0.1724 -0.0110
  377MOL0     C49652   7.742   5.110   3.015 -0.3780  0.6537 -0.2340
  377MOL0     C49653   7.634   5.217   3.027  0.0387  0.9281  0.4706
  377MOL0     C49654   7.541   5.227   2.906  0.3784  0.3590 -0.2431
  377MOL0     C49655   7.600   5.271   2.769 -0.6797 -0.0921 -0.8903
  377MOL0     O49656   7.603   5.417   2.782 -0.1351  0.1788 -0.0551
  377MOL0     C49657   7.504   5.481   2.718 -0.4488  0.3247  0.9265
  377MOL0     C49658   7.421   5.559   2.793 -0.7533  0.4973 -0.0775
  377MOL0     C49659   7.315   5.632   2.740 -0.2442  0.5113 -0.4845
  377MOL0     C49660   7.287   5.617   2.601 -0.5272 -1.0219 -0.0563
  377MOL0     C49661   7.171   5.689   2.541 -0.3218  0.0292 -0.1078
  377MOL0     O49662   7.146   5.820   2.589  0.1413 -0.2249  0.0314
  377MOL0     C49663   7.044   5.902   2.543 -1.4691 -0.7683 -0.2694
  377MOL0     C49664   7.034   6.034   2.592 -0.3647  0.3533 -0.2286
  377MOL0     C49665   6.933   6.124   2.565 -0.1889  0.1989  0.1917
  377MOL0     C49666   6.833   6.093   2.478 -0.3737  0.1020  0.2365
  377MOL0     O49667   6.732   6.189   2.456  0.0990 -0.7444 -0.1977
  377MOL0     C49668   6.683   6.220   2.325  0.1727  0.3323  0.4950
  377MOL0     C49669   6.738   6.353   2.279 -0.1671  0.8555  0.2206
  377MOL0     C49670   6.876   6.378   2.319  0.3700 -0.5126 -0.0992
  377MOL0     C49671   6.930   6.515   2.250 -0.1719  0.2384 -0.6323
  377MOL0     C49672   7.057   6.568   2.320 -0.7836  0.5497 -0.3408
  377MOL0     C49673   7.187   6.471   2.307 -0.0952  0.1046  0.1306
  377MOL0     C49674   7.219   6.426   2.162 -0.4163  0.7453  0.1016
  377MOL0     C49675   7.368   6.386   2.146  0.0640  0.7505  0.1263
  377MOL0    Cl49676   7.390   6.208   2.099  0.1231  0.5279  0.1962
  377MOL0     C49677   6.830   5.961   2.427 -0.3633 -0.4046  0.7095
  377MOL0     C49678   6.937   5.867   2.457 -0.3490  0.6141  0.7989
  377MOL0     O49679   7.110   5.622   2.456 -0.0733  0.5969 -0.3298
  377MOL0     C49680   7.382   5.552   2.527  1.0588  0.0968  1.2414
  377MOL0     C49681   7.489   5.483   2.580 -0.6978  0.0623  0.4259
  377MOL0     N49682   7.561   4.926   3.083 -0.1899 -0.1773 -0.9255
  377MOL0     N49683   7.559   4.799   3.087 -0.1172 -0.1317  0.2478
  377MOL0     C49684   8.462   4.070   2.784  0.9666  0.3624  0.6733
  377MOL0     C49685   8.585   4.034   2.719  0.6101 -0.7013  0.8416
  377MOL0     C49686   8.942   3.782   2.598 -0.2463 -0.6768  0.0016
  377MOL0     C49687   8.950   3.769   2.464  0.3432  0.6863  0.4403
  377MOL0     C49688   9.065   3.725   2.399 -0.1266  0.3400  0.6859
  377MOL0     C49689   9.177   3.666   2.472  0.5599 -0.0252  0.9671
  377MOL0     O49690   9.292   3.610   2.422  0.1418  0.1541 -0.6825
  377MOL0     C49691   9.350   3.672   2.304 -0.3476 -0.7074 -0.0612
  377MOL0     C49692   9.490   3.635   2.268 -0.0797 -0.4217  0.0450
  377MOL0     C49693   9.585   3.711   2.355 -0.0667  0.5459  0.0783
  377MOL0     C49694   9.597   3.850   2.301  0.5343 -0.0013 -0.3181
  377MOL0     C49695   9.719   3.914   2.351 -0.4732 -0.4374  0.3211
  377MOL0     C49696   9.825   3.955   2.383 -0.3434 -0.1804 -0.8011
  377MOL0     C49697   9.156   3.657   2.611 -0.7719 -0.7061 -0.1641
  377MOL0     C49698   9.050   3.721   2.673 -0.3311  0.3145 -0.0093
  377MOL0     H49699   8.526   3.704   2.663 -0.5515 -1.1087  3.5000
  377MOL0     H49700   8.327   3.763   2.809 -1.6937  1.9024 -0.1467
  377MOL0     H49701   8.177   3.841   2.945 -0.1901  0.0103 -0.4604
  377MOL0     H49702   8.139   3.934   2.799 -1.7401 -2.3386  0.7774
  377MOL0     H49703   8.056   4.000   3.100 -0.7714  0.6968  0.4029
  377MOL0     H49704   7.953   3.942   2.967  0.1648  0.6312 -1.6979
  377MOL0     H49705   8.032   4.147   2.830 -1.4053  0.4312  0.0267
  377MOL0     H49706   8.101   4.206   2.983  1.2265 -0.0302 -1.6143
  377MOL0     H49707   7.805   4.158   2.944 -0.8684 -0.1730  1.2838
  377MOL0     H49708   7.895   4.164   3.093 -2.7277  1.3571  0.5556
  377MOL0     H49709   7.829   4.395   2.924 -1.4484  0.3732  1.5848
  377MOL0     H49710   8.008   4.383   2.960  1.1840  0.7560  1.7052
  377MOL0     H49711   7.953   4.387   3.194  1.5824  1.7149 -1.7236
  377MOL0     H49712   7.773   4.371   3.164 -0.7832  0.7693 -0.1884
  377MOL0     H49713   7.851   4.610   3.223  0.2751 -0.4704 -0.1602
  377MOL0     H49714   7.924   4.629   3.062 -0.6502  2.7285  1.2513
  377MOL0     H49715   7.646   4.562   3.135 -2.2009  0.4458 -2.3221
  377MOL0     H49716   7.710   4.551   2.968  0.0429 -0.5833  0.4922
  377MOL0     H49717   7.855   4.862   2.986  0.0099  2.5060  1.3898
  377MOL0     H49718   7.787   5.121   2.916 -2.1438 -0.8160 -1.2548
  377MOL0     H49719   7.828   5.135   3.079 -0.9097  2.5848 -0.2113
  377MOL0     H49720   7.681   5.315   3.036  2.7861 -0.0137 -2.0217
  377MOL0     H49721   7.591   5.203   3.127 -0.1548  1.9511  0.5350
  377MOL0     H49722   7.501   5.126   2.893 -1.1623  0.4945  2.6617
  377MOL0     H49723   7.448   5.279   2.929 -0.4707 -1.9189  1.9624
  377MOL0     H49724   7.520   5.240   2.701 -1.4246  1.0639 -0.5835
  377MOL0     H49725   7.696   5.222   2.754  1.0446  2.7359  0.0289
  377MOL0     H49726   7.444   5.556   2.899  0.7668 -0.7078 -0.3917
  377MOL0     H49727   7.259   5.695   2.809  0.3358  0.3330  0.1594
  377MOL0     H49728   7.119   6.065   2.653  1.9062 -1.5555 -2.2048
  377MOL0     H49729   6.926   6.220   2.614  0.5180  0.9321 -1.0984
  377MOL0     H49730   6.574   6.223   2.324  0.0167 -2.2610 -1.5254
  377MOL0     H49731   6.710   6.143   2.252  3.2610  1.4641  0.2794
  377MOL0     H49732   6.662   6.427   2.307 -2.1775 -0.8022 -0.5485
  377MOL0     H49733   6.743   6.365   2.170 -1.1793  1.8632  0.2645
  377MOL0     H49734   6.937   6.297   2.277 -1.5026 -1.5994 -0.8199
  377MOL0     H49735   6.889   6.391   2.427  0.9670  2.9423 -0.4446
  377MOL0     H49736   6.958   6.514   2.144  0.2408  2.6477 -0.6130
  377MOL0     H49737   6.844   6.583   2.255  1.0100  1.7799 -0.5765
  377MOL0     H49738   7.035   6.574   2.427 -1.1994  0.1765 -0.4022
  377MOL0     H49739   7.077   6.668   2.280 -3.6348  1.2071 -0.3848
  377MOL0     H49740   7.177   6.383   2.371 -1.5968 -0.8938 -1.3918
  377MOL0     H49741   7.268   6.536   2.341  0.9586 -2.5513  3.1209
  377MOL0     H49742   7.156   6.338   2.143  0.5923  0.0523 -0.1099
  377MOL0     H49743   7.192   6.501   2.087  0.5164 -0.0436 -1.0526
  377MOL0     H49744   7.412   6.413   2.242 -3.4400  2.6185  1.4074
  377MOL0     H49745   7.415   6.450   2.071 -0.6249 -1.3917 -2.2908
  377MOL0     H49746   6.748   5.945   2.358  1.8392  3.3038 -3.3279
  377MOL0     H49747   6.935   5.779   2.393  0.9219  2.2845 -1.7312
  377MOL0     H49748   7.357   5.550   2.421  0.6992 -0.8219  1.3328
  377MOL0     H49749   7.560   5.432   2.515  0.1425  1.6090  0.0968
  377MOL0     H49750   8.453   4.174   2.816  0.6808  0.7114 -0.4875
  377MOL0     H49751   8.650   4.119   2.699 -1.6978  0.5651 -1.9222
  377MOL0     H49752   8.869   3.802   2.400  0.2431 -2.0628 -1.0064
  377MOL0     H49753   9.065   3.710   2.292 -1.3322 -3.4743  1.0810
  377MOL0     H49754   9.335   3.781   2.310 -0.7914 -0.8300  1.5225
  377MOL0     H49755   9.294   3.633   2.219  1.8453 -0.3857 -1.7288
  377MOL0     H49756   9.500   3.527   2.285 -0.9002 -0.1947  2.4117
  377MOL0     H49757   9.506   3.648   2.161  1.5396 -0.7180  0.2355
  377MOL0     H49758   9.684   3.665   2.358 -0.9812 -1.6075 -0.8127
  377MOL0     H49759   9.550   3.706   2.458  2.9921 -5.6610  1.2750
  377MOL0     H49760   9.606   3.854   2.192 -0.6533 -4.8514 -0.8209
  377MOL0     H49761   9.510   3.913   2.322 -2.0116 -3.5107  0.4236
  377MOL0     H49762   9.913   4.000   2.425 -0.9364 -0.3635  0.6774
  377MOL0     H49763   9.239   3.616   2.667  1.2204  1.8756 -1.0545
  377MOL0     H49764   9.047   3.712   2.781 -0.1067 -1.0391 -0.0956
  378MOL0     O49765   5.694   0.299   5.865  0.8091 -0.4489 -0.0492
  378MOL0     C49766   5.789   0.343   5.924  0.7010 -0.6492 -0.4383
  378MOL0     O49767   5.785   0.375   6.059 -0.2250 -0.5881  0.0137
  378MOL0     C49768   5.662   0.373   6.119  0.7258 -0.5900 -0.1484
  378MOL0     C49769   5.608   0.260   6.174 -0.8779 -0.1162 -0.4086
  378MOL0     C49770   5.480   0.263   6.233  0.1500 -0.8550 -0.3550
  378MOL0     C49771   5.392   0.373   6.218  1.6473 -0.2478 -0.6348
  378MOL0     O49772   5.253   0.361   6.251  0.0634 -0.8014  0.3495
  378MOL0     C49773   5.181   0.476   6.290 -0.2428  0.1702 -0.4646
  378MOL0     C49774   5.056   0.430   6.361 -0.7453 -0.1950  0.0638
  378MOL0     C49775   4.957   0.380   6.262  0.5101 -0.6057  0.3245
  378MOL0     C49776   4.818   0.380   6.317 -1.2388  0.1103 -0.0799
  378MOL0     C49777   4.729   0.350   6.194  0.2247  0.6759  0.1016
  378MOL0     C49778   4.584   0.391   6.214  0.4011 -0.1140  0.4241
  378MOL0     C49779   4.475   0.357   6.106 -0.0815  0.0426  0.4993
  378MOL0     C49780   4.336   0.388   6.171  0.1121 -0.5532  0.2594
  378MOL0     N49781   4.236   0.379   6.065  0.1707  0.0682  0.3749
  378MOL0     C49782   4.133   0.282   6.066 -0.2083 -0.9199  0.4256
  378MOL0     C49783   4.084   0.290   5.939 -0.9320  0.1385  0.1002
  378MOL0     C49784   3.965   0.211   5.895  0.3791  0.0880 -0.5051
  378MOL0     C49785   3.863   0.302   5.825 -0.3852 -0.3052 -0.9273
  378MOL0     C49786   3.784   0.398   5.919 -0.2390  1.6219 -0.6738
  378MOL0     C49787   3.707   0.496   5.830 -0.2293 -0.3868  0.2976
  378MOL0     O49788   3.615   0.439   5.737 -0.4931  0.0843  0.3578
  378MOL0     C49789   3.482   0.439   5.763  0.3638 -0.6423  0.1656
  378MOL0     C49790   3.402   0.551   5.732 -0.5214 -0.0540 -0.0386
  378MOL0     C49791   3.263   0.565   5.778 -0.3168 -0.4853 -0.5442
  378MOL0     C49792   3.210   0.448   5.838 -0.8101  1.3005 -0.8760
  378MOL0     C49793   3.075   0.456   5.894  0.0605  0.4662  0.1000
  378MOL0     O49794   2.992   0.544   5.836 -0.0344 -0.7964 -0.0020
  378MOL0     C49795   2.861   0.537   5.879  0.3966  0.7807 -0.5044
  378MOL0     C49796   2.772   0.451   5.813 -0.6733  0.0878 -0.2958
  378MOL0     C49797   2.638   0.435   5.844 -0.2816  0.9818 -0.0675
  378MOL0     C49798   2.583   0.502   5.952  0.0219  0.1633  0.2877
  378MOL0     O49799   2.459   0.459   5.998 -0.6344 -0.4848  0.0913
  378MOL0     C49800   2.362   0.563   6.019  0.0464  0.4153 -0.7492
  378MOL0     C49801   2.233   0.519   5.952  0.3086 -0.1468 -0.5676
  378MOL0     C49802   2.246   0.521   5.795  0.3609 -0.6223  0.1407
  378MOL0     C49803   2.253   0.668   5.741  0.4548 -0.9165 -0.1041
  378MOL0     C49804   2.351   0.668   5.626  0.1410 -0.0630  0.0178
  378MOL0     C49805   2.300   0.587   5.502 -0.1520  0.8196 -0.2286
  378MOL0     C49806   2.261   0.673   5.383  0.1331 -0.6727 -0.2945
  378MOL0     C49807   2.215   0.593   5.262  0.1119 -0.2757  0.2079
  378MOL0    Cl49808   2.059   0.514   5.315 -0.1284  0.1043 -0.0727
  378MOL0     C49809   2.667   0.603   6.013  0.5530  0.3193  0.3665
  378MOL0     C49810   2.801   0.622   5.978 -0.1228 -0.4217 -0.3348
  378MOL0     O49811   3.044   0.379   5.989  0.2607  0.7768  0.4620
  378MOL0     C49812   3.296   0.341   5.870 -0.1218  0.5127 -0.4894
  378MOL0     C49813   3.429   0.344   5.845  0.2094 -0.3959 -1.3482
  378MOL0     N49814   4.159   0.389   5.870  0.8230 -0.5619 -0.5659
  378MOL0     N49815   4.238   0.454   5.948  0.7500  0.1097  0.7647
  378MOL0     C49816   5.443   0.494   6.159  0.5058  0.2488 -0.1328
  378MOL0     C49817   5.574   0.487   6.113  0.4252  0.1136 -0.3024
  378MOL0     C49818   5.917   0.354   5.850  1.0258 -0.3705  0.0880
  378MOL0     C49819   6.017   0.418   5.905 -0.8968 -0.5420 -0.0749
  378MOL0     C49820   6.136   0.442   5.837  0.1414  0.2688  0.3553
  378MOL0     C49821   6.152   0.406   5.706 -0.8382 -0.9542 -0.3343
  378MOL0     O49822   6.270   0.444   5.648 -0.3033  0.6362  0.3730
  378MOL0     C49823   6.304   0.378   5.526  0.0261 -0.0023 -0.3192
  378MOL0     C49824   6.455   0.393   5.520 -0.0022 -0.3964  0.8718
  378MOL0     C49825   6.528   0.340   5.652 -0.0784 -0.1418 -0.3750
  378MOL0     C49826   6.677   0.315   5.625 -0.4837 -0.1852 -0.5817
  378MOL0     C49827   6.749   0.437   5.591 -0.0376  0.2017  0.5238
  378MOL0     C49828   6.823   0.531   5.568  0.2126  0.0410 -0.4400
  378MOL0     C49829   6.044   0.352   5.641  0.6347  0.7962  1.0309
  378MOL0     C49830   5.926   0.321   5.711  0.6112 -1.2708 -0.1428
  378MOL0     H49831   5.664   0.168   6.186  2.5421  1.8863  0.1699
  378MOL0     H49832   5.442   0.179   6.290 -1.1524  1.7541  2.9488
  378MOL0     H49833   5.172   0.526   6.192 -0.7096  1.0376  0.0040
  378MOL0     H49834   5.246   0.530   6.359  3.0552 -1.7439 -1.8463
  378MOL0     H49835   5.016   0.516   6.416  0.6389  0.3652  0.2549
  378MOL0     H49836   5.087   0.347   6.424  2.6381  1.2512  0.5439
  378MOL0     H49837   4.992   0.280   6.234 -2.0177 -2.3585  2.9244
  378MOL0     H49838   4.951   0.449   6.177  4.5098 -1.0387 -0.5322
  378MOL0     H49839   4.802   0.304   6.394 -2.5424 -2.3792 -2.6202
  378MOL0     H49840   4.798   0.484   6.346  0.2336  1.0020 -2.0654
  378MOL0     H49841   4.732   0.245   6.167 -1.9862  0.8899 -1.2274
  378MOL0     H49842   4.754   0.403   6.101  0.6932  1.0332  0.4269
  378MOL0     H49843   4.582   0.497   6.240  0.7812  0.3114 -1.1440
  378MOL0     H49844   4.551   0.334   6.301 -0.7401  1.4117  1.0185
  378MOL0     H49845   4.489   0.416   6.015 -0.7896  1.0613  1.0315
  378MOL0     H49846   4.489   0.251   6.084 -1.7033 -0.0958  0.0618
  378MOL0     H49847   4.332   0.488   6.217 -0.3432  0.3604 -1.6718
  378MOL0     H49848   4.303   0.317   6.248  1.0029  0.5727  1.7543
  378MOL0     H49849   4.102   0.212   6.142  1.4715  0.5122  2.5661
  378MOL0     H49850   3.914   0.166   5.982  1.0961 -2.6879 -1.4248
  378MOL0     H49851   3.998   0.130   5.830 -1.9037 -1.3841  0.0573
  378MOL0     H49852   3.793   0.237   5.771 -0.6572  0.5183 -1.5931
  378MOL0     H49853   3.912   0.364   5.749 -0.1847  0.8663  0.1186
  378MOL0     H49854   3.715   0.359   5.994  2.2269  0.1102  0.9598
  378MOL0     H49855   3.859   0.454   5.975  1.0749  0.2561 -1.0100
  378MOL0     H49856   3.777   0.566   5.782 -0.1814 -0.0700  0.8221
  378MOL0     H49857   3.646   0.563   5.891 -2.5715  0.1907 -2.4571
  378MOL0     H49858   3.465   0.615   5.670  2.4953 -3.1350 -0.4803
  378MOL0     H49859   3.201   0.651   5.756  0.5964 -0.3628 -2.9565
  378MOL0     H49860   2.808   0.391   5.730 -0.6414 -1.5834  0.8549
  378MOL0     H49861   2.577   0.360   5.795 -1.2261  0.3338  1.9938
  378MOL0     H49862   2.407   0.650   5.970  4.4904 -1.5426 -0.7147
  378MOL0     H49863   2.342   0.591   6.122  1.4340 -0.4401 -0.2111
  378MOL0     H49864   2.151   0.585   5.982  1.1337  0.4202  0.4988
  378MOL0     H49865   2.203   0.417   5.976 -4.5887  0.7602 -1.8541
  378MOL0     H49866   2.156   0.478   5.750  1.7305 -0.7669 -2.6417
  378MOL0     H49867   2.330   0.457   5.767  0.0359 -0.1484 -2.1124
  378MOL0     H49868   2.159   0.703   5.697  1.3632  0.0444 -1.3909
  378MOL0     H49869   2.290   0.743   5.811  0.0330  1.9437 -2.7085
  378MOL0     H49870   2.452   0.631   5.649  1.0141  3.2574  2.1630
  378MOL0     H49871   2.370   0.773   5.602  2.0282 -0.3282  0.1291
  378MOL0     H49872   2.221   0.513   5.516 -0.9113  0.7637 -3.8729
  378MOL0     H49873   2.384   0.524   5.471 -0.0541 -0.6051  2.6408
  378MOL0     H49874   2.176   0.733   5.420 -0.9272 -2.1509 -0.2643
  378MOL0     H49875   2.343   0.734   5.343  1.1478 -1.9384 -0.1832
  378MOL0     H49876   2.286   0.522   5.219  1.6025  2.6616 -2.5705
  378MOL0     H49877   2.186   0.661   5.181 -2.0464 -3.1652 -1.6202
  378MOL0     H49878   2.624   0.656   6.098  2.2562  2.2789  0.0742
  378MOL0     H49879   2.858   0.695   6.033  1.7961  0.6480 -3.4917
  378MOL0     H49880   3.256   0.253   5.919 -2.3365  3.0504  2.8098
  378MOL0     H49881   3.498   0.264   5.874 -1.1792 -1.9502 -2.1661
  378MOL0     H49882   5.385   0.584   6.139  0.6212  0.2360 -0.5240
  378MOL0     H49883   5.626   0.575   6.075  0.3097  1.1446  1.7833
  378MOL0     H49884   6.032   0.444   6.009  3.4244  3.2230 -1.2967
  378MOL0     H49885   6.219   0.492   5.884  0.0570 -0.3904  1.2232
  378MOL0     H49886   6.247   0.426   5.446 -2.2274 -1.2618  0.4392
  378MOL0     H49887   6.279   0.273   5.512 -0.0167 -0.2612  1.5316
  378MOL0     H49888   6.481   0.333   5.432 -3.3159 -0.1719 -0.4283
  378MOL0     H49889   6.484   0.497   5.508  1.8926 -0.5545  3.3457
  378MOL0     H49890   6.496   0.244   5.692 -0.3770  0.1948  0.2153
  378MOL0     H49891   6.493   0.417   5.722 -3.5243 -1.6129 -0.2515
  378MOL0     H49892   6.729   0.279   5.714 -0.8751  0.0666 -0.2473
  378MOL0     H49893   6.697   0.240   5.548  0.5011 -2.4435  1.7151
  378MOL0     H49894   6.891   0.611   5.547  1.0772 -0.9944 -1.7773
  378MOL0     H49895   6.056   0.329   5.536  1.1720 -0.5072  1.3533
  378MOL0     H49896   5.837   0.290   5.658 -0.6259 -2.7131  2.5931
  379MOL0     O49897   5.595   8.886   4.040  0.0638 -0.2351  0.4116
  379MOL0     C49898   5.630   8.840   3.927 -0.1775 -0.6889  0.2174
  379MOL0     O49899   5.545   8.773   3.837  0.6078  0.2472  0.0711
  379MOL0     C49900   5.413   8.761   3.873  1.3246  0.2662 -0.3283
  379MOL0     C49901   5.339   8.872   3.905  0.4785 -0.6874  0.0742
  379MOL0     C49902   5.221   8.866   3.985  0.3333  0.4633  0.5479
  379MOL0     C49903   5.161   8.738   3.998  0.2767 -0.0132 -0.6066
  379MOL0     O49904   5.045   8.728   4.070 -0.5009 -0.7251  0.4619
  379MOL0     C49905   4.941   8.666   3.998 -0.2256 -0.6336 -0.4065
  379MOL0     C49906   4.828   8.644   4.100  0.0666  0.6868  0.4635
  379MOL0     C49907   4.713   8.574   4.023 -0.2085  1.0261 -0.5269
  379MOL0     C49908   4.609   8.512   4.124  0.2611 -0.3266 -0.1796
  379MOL0     C49909   4.675   8.401   4.209 -0.4961  1.2242  0.6019
  379MOL0     C49910   4.581   8.287   4.240  0.5222  0.1887 -0.3094
  379MOL0     C49911   4.477   8.341   4.351  0.5842  0.3724 -0.0961
  379MOL0     C49912   4.355   8.255   4.383 -0.0360 -0.9298 -0.1072
  379MOL0     N49913   4.249   8.281   4.279 -0.0757  0.2448 -0.3710
  379MOL0     C49914   4.119   8.232   4.277  0.0052  0.1835  0.8246
  379MOL0     C49915   4.072   8.260   4.157 -0.2167  0.9263  0.6956
  379MOL0     C49916   3.935   8.247   4.099 -0.3578  0.0612  0.9752
  379MOL0     C49917   3.900   8.345   3.994 -0.1194 -0.0837  1.1842
  379MOL0     C49918   3.768   8.296   3.918  0.9428 -0.6927 -0.1064
  379MOL0     C49919   3.821   8.192   3.817  0.3678  0.6698  0.2714
  379MOL0     O49920   3.754   8.195   3.688 -0.1967  0.3439  0.7761
  379MOL0     C49921   3.617   8.208   3.675 -0.4615  0.5644 -0.4600
  379MOL0     C49922   3.561   8.285   3.570 -0.0665 -0.1144 -0.2927
  379MOL0     C49923   3.426   8.299   3.555  0.2972 -0.6212  0.5166
  379MOL0     C49924   3.331   8.249   3.649  0.3931  0.0530 -0.2559
  379MOL0     C49925   3.184   8.280   3.631  0.0041 -0.9361 -0.8517
  379MOL0     O49926   3.149   8.375   3.538 -0.7063  1.1225 -0.2032
  379MOL0     C49927   3.025   8.420   3.506  1.3984  0.4585  0.1310
  379MOL0     C49928   2.927   8.456   3.596  0.3539  0.8153  0.4825
  379MOL0     C49929   2.792   8.477   3.550 -0.2381  0.1325  1.1078
  379MOL0     C49930   2.766   8.481   3.413  0.3902 -0.0725  0.0422
  379MOL0     O49931   2.636   8.489   3.356  0.7964 -0.5766  0.5748
  379MOL0     C49932   2.522   8.472   3.431  0.2221 -0.1034  0.4003
  379MOL0     C49933   2.387   8.448   3.359 -0.3481 -0.2180 -0.1270
  379MOL0     C49934   2.264   8.445   3.451 -0.0927 -0.0115 -0.0591
  379MOL0     C49935   2.129   8.416   3.394 -0.5615 -0.9171 -0.1452
  379MOL0     C49936   2.080   8.523   3.297 -0.2044  0.0548  0.6634
  379MOL0     C49937   1.936   8.494   3.261 -0.0721  0.8114 -0.4129
  379MOL0     C49938   1.917   8.380   3.157 -0.0723 -0.0560 -0.3074
  379MOL0     C49939   1.843   8.264   3.218 -0.4814  0.1386  0.1698
  379MOL0    Cl49940   1.672   8.309   3.283 -0.0263  0.5007  0.7549
  379MOL0     C49941   2.870   8.463   3.318 -0.0561  0.2183 -0.1150
  379MOL0     C49942   2.998   8.421   3.366  0.1322  0.3578  0.2199
  379MOL0     O49943   3.105   8.213   3.695  0.2743  0.8174  0.6280
  379MOL0     C49944   3.382   8.166   3.751  0.5546 -0.1822  0.1703
  379MOL0     C49945   3.526   8.147   3.772  0.3956 -0.1973 -0.7379
  379MOL0     N49946   4.173   8.314   4.085 -0.5584 -0.5165 -0.3091
  379MOL0     N49947   4.274   8.331   4.153  0.0538 -0.5369  0.6248
  379MOL0     C49948   5.226   8.629   3.941  0.7763  0.3188 -0.7897
  379MOL0     C49949   5.356   8.636   3.888 -0.0987 -0.5341 -0.8738
  379MOL0     C49950   5.761   8.867   3.881 -0.6061  0.5628  0.6074
  379MOL0     C49951   5.836   8.971   3.945 -0.0009  0.2783  0.3273
  379MOL0     C49952   5.961   9.010   3.902 -0.1044 -0.0145 -0.7087
  379MOL0     C49953   6.018   8.937   3.798 -0.4067  0.0290  0.1070
  379MOL0     O49954   6.140   8.983   3.747 -0.0005  0.4793 -0.3036
  379MOL0     C49955   6.180   8.956   3.616 -1.3847  0.6335 -0.9540
  379MOL0     C49956   6.309   9.035   3.587  1.1182  0.9788 -0.4575
  379MOL0     C49957   6.420   9.010   3.692  0.0878  0.0533 -0.0294
  379MOL0     C49958   6.531   9.111   3.681  0.4238 -0.3094  0.3075
  379MOL0     C49959   6.613   9.156   3.799  0.0322  0.5378 -0.4182
  379MOL0     C49960   6.691   9.205   3.880 -0.7732 -0.2446 -0.2804
  379MOL0     C49961   5.957   8.820   3.747  0.0766  0.9753  0.3109
  379MOL0     C49962   5.826   8.786   3.786 -0.7429 -0.7532  0.1777
  379MOL0     H49963   5.382   8.969   3.882  0.2075 -1.3557 -3.8724
  379MOL0     H49964   5.178   8.962   4.012  1.8742  2.5275 -3.4795
  379MOL0     H49965   4.971   8.570   3.955 -0.6799 -1.5997  1.3277
  379MOL0     H49966   4.905   8.735   3.921  0.2241  0.9657  0.7682
  379MOL0     H49967   4.784   8.738   4.135  0.0440  1.0883 -0.6101
  379MOL0     H49968   4.868   8.589   4.185 -2.1218  1.6801  2.2562
  379MOL0     H49969   4.737   8.487   3.962 -1.0819 -0.0787  0.6421
  379MOL0     H49970   4.672   8.651   3.957  0.8112  0.4555 -1.8757
  379MOL0     H49971   4.559   8.590   4.183 -0.5296 -0.7846 -0.2278
  379MOL0     H49972   4.531   8.465   4.063 -3.1145  2.7796  1.3140
  379MOL0     H49973   4.728   8.436   4.299  1.2868 -1.4626  0.7380
  379MOL0     H49974   4.758   8.353   4.156 -1.7953  1.6664 -1.9897
  379MOL0     H49975   4.647   8.209   4.277  0.6925  0.5023  0.0488
  379MOL0     H49976   4.527   8.251   4.151  0.0152 -0.7433  0.3550
  379MOL0     H49977   4.527   8.373   4.442  0.9116  0.5417 -0.3336
  379MOL0     H49978   4.435   8.439   4.322 -4.3020 -1.5808 -0.6370
  379MOL0     H49979   4.317   8.296   4.477 -2.4550  1.5259 -1.9754
  379MOL0     H49980   4.376   8.148   4.388  1.7834 -0.6009 -0.2237
  379MOL0     H49981   4.054   8.198   4.357 -1.4959  0.3390 -0.3030
  379MOL0     H49982   3.857   8.251   4.177 -1.2228 -0.9585  0.1852
  379MOL0     H49983   3.927   8.145   4.062  0.6605 -0.5720  2.4114
  379MOL0     H49984   3.969   8.370   3.913 -2.7989  0.3060 -1.1240
  379MOL0     H49985   3.872   8.431   4.055 -3.8101 -1.7252  2.0687
  379MOL0     H49986   3.699   8.245   3.985  0.2377  1.5098  0.9395
  379MOL0     H49987   3.723   8.384   3.870  1.8150  1.0138  2.0356
  379MOL0     H49988   3.803   8.094   3.863  1.8799 -0.0688 -0.6207
  379MOL0     H49989   3.928   8.209   3.805  0.3462  2.8700  2.3614
  379MOL0     H49990   3.628   8.337   3.501  0.6426 -0.3198  0.2237
  379MOL0     H49991   3.387   8.361   3.475 -1.2132 -0.2407  1.4917
  379MOL0     H49992   2.944   8.478   3.701 -2.6108  1.2142  0.9647
  379MOL0     H49993   2.704   8.492   3.612 -2.0788 -1.1107 -1.0330
  379MOL0     H49994   2.511   8.565   3.488  1.0183  0.0983  0.2312
  379MOL0     H49995   2.540   8.405   3.515  0.7289  0.5553  0.8282
  379MOL0     H49996   2.389   8.350   3.309  0.7041 -1.6098  2.4576
  379MOL0     H49997   2.382   8.532   3.289 -0.3144  2.5009  2.9411
  379MOL0     H49998   2.270   8.538   3.508 -0.4518 -1.1064  1.8196
  379MOL0     H49999   2.278   8.378   3.536  0.6065  1.4518  1.0285
  379MOL0     H50000   2.139   8.314   3.357  2.0404 -0.7444 -0.0580
  379MOL0     H50001   2.056   8.415   3.475  0.5733 -1.3762  0.8962
  379MOL0     H50002   2.137   8.522   3.203 -4.0408 -2.4059 -1.9280
  379MOL0     H50003   2.085   8.626   3.333 -2.1349  0.3021  0.3268
  379MOL0     H50004   1.914   8.587   3.209  0.8751 -0.1671 -2.7063
  379MOL0     H50005   1.882   8.483   3.356  1.1899 -0.8692  0.1865
  379MOL0     H50006   1.856   8.410   3.071 -0.8527 -0.2648  0.1535
  379MOL0     H50007   2.020   8.350   3.136 -0.3108 -2.1951  1.1894
  379MOL0     H50008   1.902   8.230   3.304  1.4273  0.5557 -0.9096
  379MOL0     H50009   1.838   8.180   3.148 -1.6829  2.1389 -2.3230
  379MOL0     H50010   2.850   8.484   3.213 -2.7663 -0.8820  0.0979
  379MOL0     H50011   3.076   8.393   3.295 -0.6767  1.2095 -1.0592
  379MOL0     H50012   3.314   8.111   3.816  0.7156 -1.8814 -1.0093
  379MOL0     H50013   3.565   8.103   3.863  2.9612  0.1683 -1.5764
  379MOL0     H50014   5.179   8.535   3.967 -0.8429  1.9128  2.7739
  379MOL0     H50015   5.413   8.547   3.863  2.1480  0.6620 -0.2720
  379MOL0     H50016   5.788   9.031   4.022  2.3337  0.3056  1.8546
  379MOL0     H50017   6.010   9.095   3.949 -0.1450 -0.3084 -0.1245
  379MOL0     H50018   6.103   8.996   3.549  0.0043  3.0977 -1.2268
  379MOL0     H50019   6.199   8.848   3.609 -2.5349  0.3780 -0.2164
  379MOL0     H50020   6.357   9.015   3.490  3.9389  0.2264  0.9715
  379MOL0     H50021   6.295   9.143   3.583  2.0929  1.0876 -2.4741
  379MOL0     H50022   6.436   8.902   3.690 -2.7628 -0.4338 -0.6050
  379MOL0     H50023   6.382   9.027   3.792  4.1954  0.7791  1.6272
  379MOL0     H50024   6.600   9.095   3.597  0.4860  3.3973 -0.5089
  379MOL0     H50025   6.479   9.206   3.667 -0.4605 -0.5908  1.5621
  379MOL0     H50026   6.737   9.254   3.964 -1.2649  0.7401 -0.5710
  379MOL0     H50027   6.000   8.772   3.659 -0.8096  3.4805 -1.6216
  379MOL0     H50028   5.778   8.697   3.747  0.1495 -1.0992 -0.1598
  380MOL0     O50029   7.900   5.057   6.594 -0.3523 -0.0170 -0.5158
  380MOL0     C50030   7.867   5.154   6.528 -0.2610  0.3144  0.0088
  380MOL0     O50031   7.747   5.175   6.464 -0.0041 -0.2267  0.1636
  380MOL0     C50032   7.656   5.081   6.415 -0.3440  1.0831  0.1442
  380MOL0     C50033   7.530   5.123   6.382  0.0832 -0.2636  0.0449
  380MOL0     C50034   7.434   5.028   6.343 -0.4542  0.4443  0.0147
  380MOL0     C50035   7.461   4.886   6.331 -0.2564  0.1366  0.3266
  380MOL0     O50036   7.367   4.783   6.309  0.6654 -0.0610 -0.5361
  380MOL0     C50037   7.252   4.822   6.233 -0.6563 -0.0763 -0.0434
  380MOL0     C50038   7.169   4.693   6.207  0.1331 -0.7351 -0.2863
  380MOL0     C50039   7.042   4.729   6.139  0.3940 -0.7261 -0.4595
  380MOL0     C50040   6.977   4.616   6.080 -0.5626 -0.2548 -0.9427
  380MOL0     C50041   6.859   4.631   5.978  0.3476  0.1215  0.2795
  380MOL0     C50042   6.719   4.669   6.035 -0.0225 -0.1334 -0.5283
  380MOL0     C50043   6.593   4.631   5.955  0.4045  0.5713  0.5844
  380MOL0     C50044   6.467   4.697   6.000  0.2196  0.1569  0.1987
  380MOL0     N50045   6.362   4.644   5.906 -0.3698 -0.7004  0.0408
  380MOL0     C50046   6.336   4.689   5.782 -0.8984 -0.2594 -0.6040
  380MOL0     C50047   6.246   4.603   5.738 -0.1069  0.3734  0.6025
  380MOL0     C50048   6.173   4.617   5.612  0.1974 -0.5099  0.1125
  380MOL0     C50049   6.061   4.716   5.625  0.6789  0.9112 -0.6579
  380MOL0     C50050   5.941   4.657   5.686  0.1316  0.6489  0.2306
  380MOL0     C50051   5.854   4.591   5.580  0.3504  0.6953 -0.1239
  380MOL0     O50052   5.741   4.519   5.623  0.8411  0.3242 -0.2828
  380MOL0     C50053   5.614   4.570   5.661 -0.5625 -0.2717  0.9975
  380MOL0     C50054   5.592   4.710   5.686 -0.5972  0.0797  0.2864
  380MOL0     C50055   5.461   4.745   5.733  0.1526  0.5848  0.6464
  380MOL0     C50056   5.352   4.653   5.728 -0.1754 -0.1328  0.2668
  380MOL0     C50057   5.222   4.698   5.760  0.2143  1.1360  0.4600
  380MOL0     O50058   5.211   4.804   5.840 -0.5163  0.0400 -0.2191
  380MOL0     C50059   5.087   4.852   5.857  0.5813  1.1246 -0.9556
  380MOL0     C50060   5.037   4.966   5.785 -0.1211  0.1823 -0.5278
  380MOL0     C50061   4.900   4.989   5.790 -0.2878 -1.1766 -0.3873
  380MOL0     C50062   4.817   4.915   5.875 -0.0170 -0.9434 -0.0496
  380MOL0     O50063   4.687   4.962   5.889 -0.4336 -0.4440 -0.1999
  380MOL0     C50064   4.622   5.012   5.772  0.3949  0.3356  0.7487
  380MOL0     C50065   4.473   5.040   5.785 -1.3992  0.0672 -0.7765
  380MOL0     C50066   4.395   4.906   5.796 -0.4106  0.3145 -0.3365
  380MOL0     C50067   4.244   4.954   5.810 -0.1646  0.4229 -0.3032
  380MOL0     C50068   4.224   4.995   5.964 -1.5903  0.5497 -0.3361
  380MOL0     C50069   4.092   5.060   5.992  0.4459 -0.6375  0.5344
  380MOL0     C50070   3.960   5.004   5.939  0.5624 -0.4539  1.2699
  380MOL0     C50071   3.936   4.861   5.973 -0.1159 -0.9465  0.3105
  380MOL0    Cl50072   3.810   4.786   5.871 -0.3107 -0.4327  0.2919
  380MOL0     C50073   4.863   4.820   5.962 -0.6480  0.0091 -0.3134
  380MOL0     C50074   4.996   4.785   5.951  0.5561  0.0795  0.5567
  380MOL0     O50075   5.134   4.631   5.695  0.1058 -0.9486 -0.1095
  380MOL0     C50076   5.380   4.526   5.679  0.0667  0.3765 -0.1541
  380MOL0     C50077   5.512   4.475   5.661  0.0212  1.0989  0.1686
  380MOL0     N50078   6.221   4.511   5.834  0.3357 -0.2522 -0.3731
  380MOL0     N50079   6.296   4.527   5.937 -0.0551  0.1939 -0.3490
  380MOL0     C50080   7.584   4.841   6.382  0.1758 -0.5959  0.0443
  380MOL0     C50081   7.682   4.940   6.417 -0.3724  0.5029 -0.5901
  380MOL0     C50082   7.965   5.256   6.501 -0.3520 -0.9349 -0.6394
  380MOL0     C50083   8.081   5.263   6.582  0.6187  0.7135 -1.3081
  380MOL0     C50084   8.172   5.364   6.562 -0.2337  0.4703  0.4246
  380MOL0     C50085   8.155   5.457   6.463  0.7330  0.0076  0.3141
  380MOL0     O50086   8.245   5.557   6.471  0.2463  0.3755 -0.4775
  380MOL0     C50087   8.239   5.663   6.380  0.8272  0.6802  0.9135
  380MOL0     C50088   8.358   5.760   6.379 -0.3330 -0.1977  0.4060
  380MOL0     C50089   8.504   5.708   6.366  0.2209 -1.2666 -0.0774
  380MOL0     C50090   8.550   5.658   6.498 -0.6727  0.1371  0.2007
  380MOL0     C50091   8.666   5.571   6.488  0.1242  0.1605 -0.9774
  380MOL0     C50092   8.763   5.508   6.476  0.1749 -1.4973  0.4486
  380MOL0     C50093   8.044   5.448   6.375 -0.1629  1.1585  0.5932
  380MOL0     C50094   7.950   5.345   6.392 -0.4210  0.5907  0.4064
  380MOL0     H50095   7.500   5.227   6.384  0.9896  0.0567 -1.3937
  380MOL0     H50096   7.332   5.048   6.310 -0.7466 -0.6722  0.1993
  380MOL0     H50097   7.267   4.860   6.132 -0.0543 -1.4014 -0.4725
  380MOL0     H50098   7.190   4.894   6.288 -1.0812  0.4141 -1.1381
  380MOL0     H50099   7.147   4.646   6.303  0.0539 -0.1402 -0.0155
  380MOL0     H50100   7.235   4.624   6.152  1.8794 -0.4166  1.2958
  380MOL0     H50101   7.070   4.800   6.060 -2.2615  0.6030 -0.3253
  380MOL0     H50102   6.974   4.785   6.204 -0.7374 -1.1232 -1.2546
  380MOL0     H50103   7.058   4.563   6.029 -1.8240  0.2865 -3.6969
  380MOL0     H50104   6.940   4.548   6.157 -4.0246  0.9094 -1.4088
  380MOL0     H50105   6.849   4.532   5.932 -3.2916  0.7588 -0.5937
  380MOL0     H50106   6.878   4.708   5.903 -2.4274  0.7258  0.0979
  380MOL0     H50107   6.717   4.775   6.061 -3.6471  0.1132 -1.3211
  380MOL0     H50108   6.709   4.630   6.136 -0.0511 -0.3831 -0.6247
  380MOL0     H50109   6.614   4.634   5.848 -0.8079  0.9562  0.3460
  380MOL0     H50110   6.571   4.526   5.976 -0.3712  0.7096  0.4766
  380MOL0     H50111   6.469   4.807   6.004  0.3663  0.1329  0.9015
  380MOL0     H50112   6.444   4.668   6.103  0.4852 -0.6556  0.0312
  380MOL0     H50113   6.379   4.774   5.730 -0.7404 -0.6580 -1.1338
  380MOL0     H50114   6.134   4.526   5.566  0.4585 -0.0777 -1.0061
  380MOL0     H50115   6.244   4.657   5.539 -0.3729  0.5863  0.1332
  380MOL0     H50116   6.041   4.745   5.522 -1.6244  0.4021 -0.4229
  380MOL0     H50117   6.090   4.803   5.685 -1.6746  1.9301 -0.8498
  380MOL0     H50118   5.962   4.582   5.762  1.0854  0.7959  0.1218
  380MOL0     H50119   5.871   4.731   5.727 -0.0213  0.1015  0.9690
  380MOL0     H50120   5.912   4.515   5.527 -0.2359  2.2668 -3.2122
  380MOL0     H50121   5.819   4.663   5.505 -2.0581 -1.7301 -1.4714
  380MOL0     H50122   5.673   4.782   5.686  0.7669 -1.3750  1.3708
  380MOL0     H50123   5.461   4.846   5.772  3.4741  0.9071  0.0711
  380MOL0     H50124   5.112   5.011   5.720  0.2481  2.5594  1.4215
  380MOL0     H50125   4.876   5.083   5.743  1.2042 -0.5375  0.0466
  380MOL0     H50126   4.630   4.946   5.685  1.2628  0.2533  0.8790
  380MOL0     H50127   4.675   5.105   5.748  1.4077 -0.4316 -0.0971
  380MOL0     H50128   4.451   5.101   5.697  1.7571 -1.4615 -2.8018
  380MOL0     H50129   4.472   5.095   5.880  0.2386  0.0926 -0.7339
  380MOL0     H50130   4.422   4.853   5.888  1.2665 -2.0735 -2.0733
  380MOL0     H50131   4.415   4.833   5.716  1.5877 -0.7856  1.0764
  380MOL0     H50132   4.227   5.048   5.757 -1.4869 -0.1876 -1.0017
  380MOL0     H50133   4.168   4.879   5.789  1.3807 -1.0856 -0.6733
  380MOL0     H50134   4.306   5.059   5.996 -0.1950 -2.4915  2.8589
  380MOL0     H50135   4.242   4.908   6.028 -1.2411  1.0693  0.2778
  380MOL0     H50136   4.093   5.168   5.978 -1.2855 -0.6828 -0.1512
  380MOL0     H50137   4.081   5.060   6.101 -0.6191  2.0645  0.4996
  380MOL0     H50138   3.871   5.063   5.960 -0.9303 -1.2383 -2.0347
  380MOL0     H50139   3.958   5.017   5.830 -2.8056  2.2672  1.5050
  380MOL0     H50140   3.912   4.853   6.079 -0.5112  0.2938  0.3260
  380MOL0     H50141   4.036   4.819   5.954  0.7265  1.0598  0.0277
  380MOL0     H50142   4.784   4.777   6.023 -0.2234  0.3472  0.4805
  380MOL0     H50143   5.027   4.698   6.008 -4.1865 -1.8091  0.7392
  380MOL0     H50144   5.286   4.472   5.676 -2.4031  4.2157  0.6743
  380MOL0     H50145   5.545   4.373   5.643 -0.4982  0.7908  0.8865
  380MOL0     H50146   7.609   4.740   6.411 -0.8038 -0.5689  1.0414
  380MOL0     H50147   7.778   4.904   6.453 -1.3296  0.3462  1.9795
  380MOL0     H50148   8.100   5.195   6.664  1.8499  0.3574 -1.8592
  380MOL0     H50149   8.256   5.387   6.627  1.0512 -3.2669  0.3368
  380MOL0     H50150   8.142   5.713   6.378  0.9631  0.9309 -0.0463
  380MOL0     H50151   8.251   5.614   6.283 -1.0050  1.2050  0.3944
  380MOL0     H50152   8.337   5.820   6.290 -0.0874 -0.0449  0.4509
  380MOL0     H50153   8.336   5.817   6.469 -2.8901  0.2193 -0.4038
  380MOL0     H50154   8.568   5.786   6.323 -3.3360  1.1581 -1.4624
  380MOL0     H50155   8.501   5.627   6.293  0.4589  0.0628 -1.6113
  380MOL0     H50156   8.591   5.733   6.566  0.5881 -1.5525  1.3780
  380MOL0     H50157   8.472   5.600   6.548  0.1868  0.1997  1.6414
  380MOL0     H50158   8.850   5.449   6.461  0.4044 -0.8476 -0.9062
  380MOL0     H50159   8.018   5.515   6.293  0.5666 -0.6804 -1.2003
  380MOL0     H50160   7.870   5.332   6.319 -0.4968 -3.1350  0.9702
  381MOL0     O50161   8.483  10.543   9.739 -0.3658 -0.1296  0.3856
  381MOL0     C50162   8.387  10.584   9.669  0.3030  0.0215 -0.5790
  381MOL0     O50163   8.257  10.532   9.664  0.5337 -0.3228  0.3896
  381MOL0     C50164   8.218  10.421   9.720  0.9581 -0.1084 -0.6129
  381MOL0     C50165   8.147  10.330   9.633 -0.3854 -0.3955  0.1193
  381MOL0     C50166   8.118  10.194   9.673 -0.5175  0.1479 -0.1939
  381MOL0     C50167   8.148  10.153   9.803 -0.0345 -0.0345 -0.3083
  381MOL0     O50168   8.116  10.026   9.853  0.1059  0.1671 -0.3581
  381MOL0     C50169   8.081   9.927   9.757  0.0320 -0.2400  0.6201
  381MOL0     C50170   8.034   9.804   9.836 -0.4562  1.0046 -0.5398
  381MOL0     C50171   7.911   9.817   9.912 -1.0021  0.1924 -0.0964
  381MOL0     C50172   7.787   9.812   9.823 -0.1659 -0.7352 -0.5972
  381MOL0     C50173   7.654   9.847   9.892 -0.4109 -0.2999 -0.2851
  381MOL0     C50174   7.562   9.846   9.774  0.1420 -0.1466  0.3259
  381MOL0     C50175   7.413   9.825   9.824 -0.4236  0.2698 -0.1751
  381MOL0     C50176   7.341   9.958   9.860  0.4646  0.0276  1.1950
  381MOL0     N50177   7.198   9.954   9.807 -0.0879  0.2636  0.3173
  381MOL0     C50178   7.100   9.896   9.887 -0.3023  0.3817  0.4838
  381MOL0     C50179   6.991   9.928   9.823  1.1209  0.1313  0.1019
  381MOL0     C50180   6.855   9.889   9.864  0.2999  0.0394 -0.2429
  381MOL0     C50181   6.847   9.736   9.885 -0.2204  0.2040 -0.0066
  381MOL0     C50182   6.724   9.699   9.977  0.4534  0.6615  0.1457
  381MOL0     C50183   6.589   9.740   9.938  0.3283 -0.6016 -0.3146
  381MOL0     O50184   6.490   9.714  10.037 -0.3787  0.6440  0.1653
  381MOL0     C50185   6.354   9.736  10.000 -0.2661  0.0813 -0.4999
  381MOL0     C50186   6.254   9.671  10.069 -0.4527 -0.2912 -0.3547
  381MOL0     C50187   6.120   9.670  10.025 -0.8815 -0.0580 -0.0992
  381MOL0     C50188   6.082   9.752   9.917  0.7987  0.2274  1.2491
  381MOL0     C50189   5.938   9.748   9.863  0.0668  0.1195 -0.7836
  381MOL0     O50190   5.857   9.641   9.896 -0.5232 -0.3619  0.0357
  381MOL0     C50191   5.728   9.640   9.843  0.2922 -0.2749  1.0502
  381MOL0     C50192   5.677   9.690   9.720  0.2031 -0.2756 -0.9891
  381MOL0     C50193   5.547   9.653   9.685 -0.8081 -0.3052  0.3063
  381MOL0     C50194   5.465   9.567   9.762  0.1959  0.0096 -0.0233
  381MOL0     O50195   5.340   9.531   9.724 -0.4594  0.9287 -0.2277
  381MOL0     C50196   5.307   9.535   9.585 -0.3181  0.0030 -1.1389
  381MOL0     C50197   5.161   9.483   9.564  0.1612 -0.1251  0.7234
  381MOL0     C50198   5.052   9.583   9.592 -0.2964  0.7508  0.1721
  381MOL0     C50199   5.018   9.583   9.748 -0.7423 -0.2846  0.2225
  381MOL0     C50200   4.885   9.643   9.777 -0.3233 -0.5265 -0.9536
  381MOL0     C50201   4.771   9.546   9.756 -0.5624 -0.8177  0.6228
  381MOL0     C50202   4.640   9.611   9.786 -0.2468  0.0953  0.4811
  381MOL0     C50203   4.523   9.509   9.801  0.1769  0.2525  0.0865
  381MOL0    Cl50204   4.370   9.581   9.783 -0.0777  0.1603 -0.1079
  381MOL0     C50205   5.512   9.524   9.886 -0.3874  0.7445  0.6077
  381MOL0     C50206   5.649   9.555   9.921  0.7535 -0.0428 -0.6191
  381MOL0     O50207   5.904   9.850   9.804 -0.4780 -0.7843  0.0159
  381MOL0     C50208   6.183   9.827   9.848  0.3869 -0.4523 -0.5479
  381MOL0     C50209   6.318   9.807   9.890 -0.0902 -0.7069 -0.3809
  381MOL0     N50210   7.014  10.017   9.724  0.0342  0.6559 -0.5257
  381MOL0     N50211   7.141  10.032   9.717  0.3950  0.0521  0.6274
  381MOL0     C50212   8.205  10.244   9.888 -0.1038  0.3496  0.0594
  381MOL0     C50213   8.238  10.381   9.855 -0.2511 -0.0063  0.2029
  381MOL0     C50214   8.417  10.714   9.610 -0.2239  0.1197 -0.8582
  381MOL0     C50215   8.320  10.798   9.565 -0.5617  0.2617  0.3498
  381MOL0     C50216   8.352  10.931   9.533  0.0787  0.2242 -1.3438
  381MOL0     C50217   8.479  10.978   9.529  0.6420 -0.0430 -0.2479
  381MOL0     O50218   8.488  11.113   9.502 -0.4729 -0.1208 -0.3151
  381MOL0     C50219   8.606  11.176   9.523  0.6149 -0.8748  0.6526
  381MOL0     C50220   8.585  11.313   9.592 -0.7673  0.6613  0.8194
  381MOL0     C50221   8.534  11.304   9.736  0.2809  0.3210  0.4204
  381MOL0     C50222   8.631  11.268   9.836 -0.6001 -0.2748  0.1536
  381MOL0     C50223   8.748  11.363   9.851  0.2449 -0.6802  0.5095
  381MOL0     C50224   8.838  11.447   9.867 -0.4180  0.5068 -0.8348
  381MOL0     C50225   8.580  10.890   9.557  0.5884  0.3166  0.1788
  381MOL0     C50226   8.556  10.754   9.590  0.7803  0.2868 -0.2340
  381MOL0     H50227   8.130  10.346   9.527 -1.1820  1.9142  0.5362
  381MOL0     H50228   8.064  10.134   9.601 -1.8290  0.6078  0.3580
  381MOL0     H50229   8.168   9.900   9.696 -1.0463 -0.9913 -0.6274
  381MOL0     H50230   7.999   9.957   9.691  1.5588 -1.1189 -1.8006
  381MOL0     H50231   8.111   9.776   9.909 -0.0663  2.4825 -0.3363
  381MOL0     H50232   8.015   9.729   9.760 -0.3846 -2.2990  2.4366
  381MOL0     H50233   7.907   9.914   9.963 -1.0689  0.1073  0.0626
  381MOL0     H50234   7.892   9.736   9.983  0.5341 -0.8974 -0.8658
  381MOL0     H50235   7.793   9.879   9.737 -1.0441  0.4318  0.2265
  381MOL0     H50236   7.783   9.714   9.775  1.3491 -1.1618  0.0781
  381MOL0     H50237   7.660   9.939   9.951  1.2202 -1.5152  1.5527
  381MOL0     H50238   7.623   9.760   9.950 -1.7177 -0.0526 -0.5816
  381MOL0     H50239   7.580   9.756   9.714 -1.1950 -1.4936  1.8448
  381MOL0     H50240   7.569   9.938   9.715 -1.7578  2.3077  3.6016
  381MOL0     H50241   7.360   9.772   9.744  2.3699  1.0420 -2.7026
  381MOL0     H50242   7.408   9.759   9.911  0.2517  0.1657 -0.2126
  381MOL0     H50243   7.395  10.041   9.815  1.3196 -0.1738  1.8373
  381MOL0     H50244   7.340   9.967   9.969  1.7995 -1.0264  1.3256
  381MOL0     H50245   7.113   9.840   9.979 -0.6704 -0.1998  0.1890
  381MOL0     H50246   6.784   9.924   9.788  2.0028  1.0080 -1.4465
  381MOL0     H50247   6.822   9.939   9.956 -3.0355  1.2841 -1.9490
  381MOL0     H50248   6.938   9.692   9.927 -0.3497  1.4305  1.6821
  381MOL0     H50249   6.841   9.689   9.786  1.4307 -0.5009  0.1939
  381MOL0     H50250   6.730   9.590   9.982 -1.9703  0.5118  1.8072
  381MOL0     H50251   6.739   9.751  10.072 -1.7891  0.3225  0.7493
  381MOL0     H50252   6.563   9.709   9.836  0.3476  2.9624 -1.5154
  381MOL0     H50253   6.593   9.849   9.931  3.5181 -0.7291 -4.7728
  381MOL0     H50254   6.282   9.600  10.145 -0.4746 -0.5269 -0.5641
  381MOL0     H50255   6.043   9.620  10.084 -1.2569  1.2722  0.5735
  381MOL0     H50256   5.736   9.753   9.654  1.0632  1.3149  1.1883
  381MOL0     H50257   5.511   9.675   9.584  1.7113 -5.1607 -2.0027
  381MOL0     H50258   5.376   9.479   9.522  0.4497 -0.4161  0.0459
  381MOL0     H50259   5.304   9.642   9.562  0.2478  0.6796  1.5173
  381MOL0     H50260   5.144   9.394   9.624 -2.3064 -0.6415 -0.6116
  381MOL0     H50261   5.159   9.470   9.455 -1.3551  2.1302  0.4110
  381MOL0     H50262   4.966   9.551   9.533  0.5509  0.5731 -1.0084
  381MOL0     H50263   5.072   9.686   9.561 -2.1449  1.8126  2.2220
  381MOL0     H50264   5.022   9.478   9.776 -0.0297 -0.4132 -0.3260
  381MOL0     H50265   5.096   9.641   9.799 -1.1185 -0.0836  0.5698
  381MOL0     H50266   4.862   9.721   9.704  0.7885 -0.3162 -1.0941
  381MOL0     H50267   4.869   9.677   9.880 -5.3019 -0.2875 -1.5527
  381MOL0     H50268   4.787   9.467   9.831  3.2680  2.7921  4.1596
  381MOL0     H50269   4.768   9.513   9.652 -0.8674  0.7304  0.1156
  381MOL0     H50270   4.652   9.674   9.875 -0.7362 -0.3619  0.8777
  381MOL0     H50271   4.617   9.678   9.702  1.7070  3.0499  2.1225
  381MOL0     H50272   4.539   9.461   9.897  0.6108  1.5436  0.6816
  381MOL0     H50273   4.530   9.441   9.716  1.0185  1.8813 -1.2072
  381MOL0     H50274   5.456   9.449   9.940  1.8403 -3.5545 -2.4615
  381MOL0     H50275   5.692   9.517  10.013  2.8709 -0.8199 -1.8473
  381MOL0     H50276   6.165   9.889   9.761  1.7805 -0.3814 -0.8024
  381MOL0     H50277   6.400   9.858   9.841 -0.9429  2.0640  0.8945
  381MOL0     H50278   8.233  10.225   9.991  1.9645  0.5101 -0.4154
  381MOL0     H50279   8.282  10.458   9.917 -1.3396  0.7861 -0.0017
  381MOL0     H50280   8.216  10.765   9.569 -0.0756 -1.4828 -0.2996
  381MOL0     H50281   8.268  10.998   9.515  1.6420  2.7464  0.2436
  381MOL0     H50282   8.635  11.191   9.418 -0.7840  0.8812  0.4784
  381MOL0     H50283   8.680  11.116   9.577 -2.2804 -2.6441  2.9423
  381MOL0     H50284   8.680  11.366   9.592 -1.6317  2.3536 -0.7590
  381MOL0     H50285   8.509  11.374   9.542  0.5821  1.7153 -0.0146
  381MOL0     H50286   8.448  11.236   9.745  2.7671 -2.9937  0.7663
  381MOL0     H50287   8.507  11.405   9.768  1.5471  1.7490 -2.5570
  381MOL0     H50288   8.584  11.257   9.934  0.6184 -3.6590  0.4838
  381MOL0     H50289   8.675  11.171   9.810  0.3726  0.1097  0.3272
  381MOL0     H50290   8.910  11.525   9.882 -1.5431  1.3969  0.1214
  381MOL0     H50291   8.687  10.907   9.548  1.5161 -3.7486  1.1335
  381MOL0     H50292   8.642  10.689   9.601  0.7735  0.4526  0.9424
  382MOL0     O50293  10.884   9.676   0.173  0.4154 -0.2412  0.4009
  382MOL0     C50294  10.866   9.762   0.094  0.8476 -0.2209 -0.4069
  382MOL0     O50295  10.756   9.847   0.081  0.3742  0.1840  0.3860
  382MOL0     C50296  10.648   9.819   0.162 -0.3174 -0.3218  0.4122
  382MOL0     C50297  10.670   9.826   0.297 -0.7192  0.2712 -0.0266
  382MOL0     C50298  10.572   9.776   0.385 -0.2833  0.9960 -0.0264
  382MOL0     C50299  10.463   9.708   0.339 -0.5100  0.2829  0.4891
  382MOL0     O50300  10.368   9.671   0.431  0.1244 -0.2175  0.2420
  382MOL0     C50301  10.316   9.535   0.425  0.2967 -0.5382 -0.1347
  382MOL0     C50302  10.163   9.535   0.411 -1.4318 -0.0680 -0.5570
  382MOL0     C50303  10.119   9.669   0.339 -0.2222  0.3834  0.8814
  382MOL0     C50304   9.965   9.679   0.366 -0.9365 -0.1046  0.0125
  382MOL0     C50305   9.902   9.793   0.277 -0.8833  0.5260 -0.4558
  382MOL0     C50306   9.756   9.823   0.316 -0.5251 -0.0169 -0.2264
  382MOL0     C50307   9.673   9.701   0.320 -0.0485  0.2944  0.9348
  382MOL0     C50308   9.653   9.641   0.176 -0.4874  0.4547  0.1764
  382MOL0     N50309   9.552   9.539   0.172 -0.8557 -0.2081  0.2374
  382MOL0     C50310   9.552   9.418   0.232  0.9897 -0.7094 -0.9830
  382MOL0     C50311   9.435   9.367   0.194 -0.6092  0.3844 -1.7206
  382MOL0     C50312   9.385   9.233   0.252 -0.0240  0.5143  1.3462
  382MOL0     C50313   9.377   9.138   0.131  0.4304  0.6534  0.1106
  382MOL0     C50314   9.302   9.002   0.155 -0.5741 -0.7535  0.5600
  382MOL0     C50315   9.292   8.912   0.038  0.4127 -0.1832 -0.1844
  382MOL0     O50316   9.177   8.962  -0.047 -0.1344 -0.2359 -0.6719
  382MOL0     C50317   9.052   8.910  -0.019  0.1443  1.4658  0.4014
  382MOL0     C50318   8.945   8.934  -0.106  0.7062 -0.4428 -1.2975
  382MOL0     C50319   8.823   8.872  -0.080  0.1547 -1.4931 -0.2814
  382MOL0     C50320   8.799   8.788   0.033 -0.4896 -0.6491 -0.2379
  382MOL0     C50321   8.669   8.730   0.066  0.0871  0.0321 -0.3972
  382MOL0     O50322   8.573   8.722  -0.028  0.0233  0.3737 -0.0051
  382MOL0     C50323   8.442   8.684  -0.011 -0.2628 -0.3447  0.2419
  382MOL0     C50324   8.397   8.567   0.052  0.3160  0.8074  0.1335
  382MOL0     C50325   8.259   8.540   0.071 -0.5942  0.4528  0.0995
  382MOL0     C50326   8.167   8.626   0.015 -0.1606  0.2790  0.1614
  382MOL0     O50327   8.037   8.599   0.004  0.0255  0.1061 -0.5534
  382MOL0     C50328   7.982   8.498   0.092 -0.3150  0.2388  0.2905
  382MOL0     C50329   7.845   8.456   0.054  0.0854 -0.9331  0.7295
  382MOL0     C50330   7.728   8.556   0.052 -0.8068  0.8044  0.3889
  382MOL0     C50331   7.587   8.483   0.044 -0.2894  0.1324 -1.0845
  382MOL0     C50332   7.485   8.587   0.063  0.0828 -0.0108 -0.1706
  382MOL0     C50333   7.341   8.528   0.062  0.1725 -0.3716 -0.6477
  382MOL0     C50334   7.244   8.650   0.091 -0.0100 -0.7121  0.1122
  382MOL0     C50335   7.110   8.592   0.121  0.4234 -0.6186 -0.2356
  382MOL0    Cl50336   6.995   8.717   0.138  0.1830  0.0553  0.5100
  382MOL0     C50337   8.212   8.735  -0.062 -0.3796  0.0303 -0.5441
  382MOL0     C50338   8.347   8.763  -0.069 -0.9106 -0.1820 -0.4664
  382MOL0     O50339   8.657   8.699   0.185  0.0409 -0.7161  0.7570
  382MOL0     C50340   8.905   8.776   0.122 -0.2458 -0.2996  0.3736
  382MOL0     C50341   9.027   8.835   0.096  0.0357  0.3757 -0.0770
  382MOL0     N50342   9.369   9.459   0.115 -0.1441  0.0532  0.1392
  382MOL0     N50343   9.439   9.567   0.111  0.2754  0.1602  0.0089
  382MOL0     C50344  10.444   9.695   0.202 -0.1184  0.4457  0.1093
  382MOL0     C50345  10.543   9.744   0.115 -0.4102  0.8711 -0.1615
  382MOL0     C50346  10.977   9.782   0.001  0.2771  0.0904 -0.4161
  382MOL0     C50347  10.996   9.907  -0.061 -0.7455 -0.3615 -0.1480
  382MOL0     C50348  11.108   9.934  -0.141  0.3169  0.5733 -0.4589
  382MOL0     C50349  11.217   9.838  -0.142 -0.0468  0.2150 -0.2261
  382MOL0     O50350  11.317   9.876  -0.226  0.1509  0.6944  0.2732
  382MOL0     C50351  11.443   9.811  -0.204 -0.1622  0.5706 -0.7945
  382MOL0     C50352  11.502   9.868  -0.082  0.4991  0.6131 -0.5438
  382MOL0     C50353  11.642   9.807  -0.057 -0.8731 -0.3264  0.4311
  382MOL0     C50354  11.762   9.891  -0.126 -0.7156  0.2026 -0.3893
  382MOL0     C50355  11.880   9.809  -0.161  0.8007  0.4779 -0.9213
  382MOL0     C50356  11.977   9.748  -0.196 -0.3208  0.1350 -0.5097
  382MOL0     C50357  11.202   9.709  -0.081 -0.3443  0.0554  0.7274
  382MOL0     C50358  11.081   9.684  -0.014  0.2820  0.3643 -0.4906
  382MOL0     H50359  10.757   9.871   0.344 -1.0199  0.6521  0.1696
  382MOL0     H50360  10.588   9.784   0.492  2.2697 -1.4206 -0.1129
  382MOL0     H50361  10.347   9.489   0.520 -0.3139 -2.3776 -0.7856
  382MOL0     H50362  10.368   9.474   0.351  0.9815  0.3365 -0.3880
  382MOL0     H50363  10.135   9.540   0.517  0.3767 -0.7030 -0.0127
  382MOL0     H50364  10.129   9.438   0.374 -2.7071 -0.3268  1.1654
  382MOL0     H50365  10.153   9.669   0.235  3.7767 -0.0845  2.0095
  382MOL0     H50366  10.169   9.757   0.381 -0.1099 -0.5717  2.8487
  382MOL0     H50367   9.914   9.585   0.341 -1.5792  0.3502 -0.4149
  382MOL0     H50368   9.954   9.693   0.473  1.4753 -3.6085  0.9053
  382MOL0     H50369   9.910   9.771   0.170 -1.1156  3.4232 -1.1468
  382MOL0     H50370   9.962   9.882   0.298 -0.7534  0.6972 -1.4880
  382MOL0     H50371   9.709   9.898   0.252 -0.2553 -1.4950 -2.2707
  382MOL0     H50372   9.757   9.871   0.414 -3.2357  1.1295 -0.6716
  382MOL0     H50373   9.719   9.619   0.376  3.6567  0.3437 -1.6159
  382MOL0     H50374   9.580   9.730   0.368  0.3026 -1.1088  2.5561
  382MOL0     H50375   9.748   9.596   0.143  0.1716  1.9182 -0.0182
  382MOL0     H50376   9.644   9.712   0.093  4.8029 -0.5115 -1.6377
  382MOL0     H50377   9.633   9.376   0.292  0.6244 -0.4395 -0.3026
  382MOL0     H50378   9.284   9.255   0.287  0.9084  0.7985  4.0969
  382MOL0     H50379   9.439   9.181   0.331 -0.2107 -0.8535  0.6032
  382MOL0     H50380   9.481   9.121   0.103  0.9834  0.4132  2.1286
  382MOL0     H50381   9.323   9.188   0.051  1.9652  2.7065  0.2779
  382MOL0     H50382   9.355   8.949   0.235 -0.4714 -1.5110  0.0049
  382MOL0     H50383   9.201   9.020   0.193 -1.4247 -2.6476 -0.6261
  382MOL0     H50384   9.284   8.807   0.068 -1.4627 -0.0024  0.0562
  382MOL0     H50385   9.387   8.922  -0.016  1.5131 -0.4339  1.6296
  382MOL0     H50386   8.971   8.985  -0.198  2.2993  1.2034 -0.0163
  382MOL0     H50387   8.742   8.886  -0.151 -1.4507 -0.2113  1.6909
  382MOL0     H50388   8.463   8.490   0.092 -0.3581  0.5437  0.7406
  382MOL0     H50389   8.234   8.445   0.117  0.2758 -0.3152 -0.9694
  382MOL0     H50390   7.982   8.534   0.195 -1.3050  0.6186  0.1635
  382MOL0     H50391   8.035   8.403   0.078  0.0904  0.6282 -0.9676
  382MOL0     H50392   7.812   8.386   0.132 -4.1612  2.9513  2.8745
  382MOL0     H50393   7.845   8.401  -0.041  0.8127 -0.4151  0.4196
  382MOL0     H50394   7.730   8.621  -0.036 -0.8414 -3.1713 -2.8560
  382MOL0     H50395   7.743   8.598   0.152  2.0870 -0.3678  0.5612
  382MOL0     H50396   7.571   8.424  -0.046 -3.4602 -3.2360  1.3840
  382MOL0     H50397   7.578   8.399   0.113  1.5964  0.2354 -0.6476
  382MOL0     H50398   7.497   8.659  -0.018  0.1212 -0.0917 -0.2363
  382MOL0     H50399   7.502   8.647   0.153  2.3827  1.0772 -1.2630
  382MOL0     H50400   7.320   8.450   0.136 -2.3062 -0.2483 -1.1430
  382MOL0     H50401   7.321   8.474  -0.031 -1.2963 -1.1401  0.0738
  382MOL0     H50402   7.277   8.688   0.188 -0.6174 -0.9947  0.4353
  382MOL0     H50403   7.240   8.724   0.011 -0.1186 -1.9467 -1.0571
  382MOL0     H50404   7.120   8.533   0.212 -2.3503  1.9442  1.9721
  382MOL0     H50405   7.073   8.522   0.046 -0.4257  0.6262 -1.0263
  382MOL0     H50406   8.136   8.797  -0.108 -0.3065  0.1184 -0.5466
  382MOL0     H50407   8.384   8.848  -0.126  0.0766  0.0536  0.5028
  382MOL0     H50408   8.887   8.713   0.209 -0.0653 -1.2458 -0.2679
  382MOL0     H50409   9.102   8.817   0.174 -0.4500 -2.7153 -0.2293
  382MOL0     H50410  10.357   9.657   0.150  0.4802 -1.1426  0.2157
  382MOL0     H50411  10.528   9.724   0.009 -2.3061  0.9328  0.0684
  382MOL0     H50412  10.928   9.988  -0.040  0.0944 -0.3168  2.8102
  382MOL0     H50413  11.116  10.035  -0.178  0.9060  0.6394 -0.1621
  382MOL0     H50414  11.511   9.817  -0.290  1.7034  0.6413  0.6297
  382MOL0     H50415  11.446   9.702  -0.198 -0.0073  0.5287 -1.5089
  382MOL0     H50416  11.499   9.977  -0.096 -2.4480  1.0133  1.9970
  382MOL0     H50417  11.433   9.845  -0.001 -1.0231 -0.3907 -2.0581
  382MOL0     H50418  11.633   9.711  -0.109 -1.9288 -0.2437  0.4249
  382MOL0     H50419  11.658   9.779   0.047  1.6645 -2.9356 -0.5320
  382MOL0     H50420  11.729   9.938  -0.219  0.4583 -1.9142 -1.9712
  382MOL0     H50421  11.798   9.965  -0.054 -0.3201  0.2427 -0.6260
  382MOL0     H50422  12.069   9.696  -0.216 -0.9887 -1.7954  1.0481
  382MOL0     H50423  11.273   9.630  -0.100  0.2117  0.5871  0.5752
  382MOL0     H50424  11.070   9.585   0.030 -0.8125 -0.3036 -2.1635
  383MOL0     O50425   7.261   2.440   9.404 -0.5807  0.4887  0.6296
  383MOL0     C50426   7.275   2.508   9.299 -0.3229 -0.8663  0.0377
  383MOL0     O50427   7.181   2.518   9.201  0.5249  0.5389  0.6108
  383MOL0     C50428   7.070   2.448   9.203 -0.2630 -0.2667 -0.1149
  383MOL0     C50429   7.029   2.332   9.283 -0.1777  0.1261  0.3919
  383MOL0     C50430   6.895   2.289   9.279  0.4366  0.0196  0.5576
  383MOL0     C50431   6.806   2.350   9.188  0.0287  0.0995  0.2724
  383MOL0     O50432   6.680   2.303   9.168 -0.0893  0.1075 -0.1887
  383MOL0     C50433   6.652   2.168   9.191  0.6291  0.3093 -0.2020
  383MOL0     C50434   6.526   2.118   9.118  0.2803 -0.5519  0.2424
  383MOL0     C50435   6.407   2.208   9.146  0.4111  0.5488 -0.2774
  383MOL0     C50436   6.315   2.154   9.250  0.2230 -0.2093 -0.7537
  383MOL0     C50437   6.194   2.091   9.185 -0.5130 -0.1531  0.7126
  383MOL0     C50438   6.139   1.964   9.251 -0.3279 -0.1907 -0.3482
  383MOL0     C50439   6.019   1.902   9.178  0.1561 -0.2916 -0.8010
  383MOL0     C50440   5.927   1.813   9.253  0.6744 -0.0260 -0.5079
  383MOL0     N50441   5.824   1.887   9.334  0.9155  0.6263  0.1923
  383MOL0     C50442   5.747   1.988   9.278 -0.2179 -0.0228 -0.2954
  383MOL0     C50443   5.724   2.086   9.373  0.4040  0.0069  0.3638
  383MOL0     C50444   5.661   2.223   9.360 -0.5065  0.0229 -0.2146
  383MOL0     C50445   5.762   2.334   9.318 -0.2866 -0.6630 -0.2427
  383MOL0     C50446   5.701   2.471   9.312  0.5058  0.1423 -0.4538
  383MOL0     C50447   5.592   2.496   9.200 -0.3554  0.2055  0.1142
  383MOL0     O50448   5.465   2.450   9.249 -0.3707 -0.1308  0.1012
  383MOL0     C50449   5.348   2.527   9.254 -0.2702 -0.2432  0.2750
  383MOL0     C50450   5.344   2.629   9.354  0.5866  0.9116  0.2904
  383MOL0     C50451   5.240   2.720   9.361  0.5468  0.3044  0.1010
  383MOL0     C50452   5.121   2.694   9.292 -0.0573  0.1715 -1.1353
  383MOL0     C50453   5.003   2.778   9.323 -0.6528 -1.0952  0.1019
  383MOL0     O50454   4.895   2.753   9.249 -0.1299 -0.2660  0.0144
  383MOL0     C50455   4.786   2.831   9.280  0.5975 -0.5964 -0.9897
  383MOL0     C50456   4.694   2.808   9.391  0.6795 -0.1829 -0.6386
  383MOL0     C50457   4.591   2.906   9.417 -0.1810 -0.2493  0.4468
  383MOL0     C50458   4.582   3.021   9.334  0.1474 -0.8162  0.1119
  383MOL0     O50459   4.471   3.108   9.343 -0.2647 -0.9879 -0.6410
  383MOL0     C50460   4.404   3.132   9.469  0.1075 -0.0760 -0.0088
  383MOL0     C50461   4.305   3.253   9.454  0.0135 -1.0356 -0.7054
  383MOL0     C50462   4.183   3.233   9.356 -0.6468  0.7057 -0.4132
  383MOL0     C50463   4.105   3.109   9.398 -0.6790 -0.8715 -0.1286
  383MOL0     C50464   3.955   3.108   9.386 -0.4807  0.5005 -0.6331
  383MOL0     C50465   3.918   3.113   9.240  0.5460 -0.5012  0.6090
  383MOL0     C50466   3.779   3.074   9.216  0.1216 -0.3560  0.1955
  383MOL0     C50467   3.751   3.033   9.072 -0.8833 -0.0407 -0.0562
  383MOL0    Cl50468   3.799   3.174   8.969  0.1339 -0.2817  0.3628
  383MOL0     C50469   4.668   3.039   9.225  0.7180 -0.2217  0.6842
  383MOL0     C50470   4.766   2.945   9.196  0.1817  0.5091 -0.6847
  383MOL0     O50471   5.016   2.865   9.416  0.5159  0.6289  0.3722
  383MOL0     C50472   5.120   2.593   9.197  0.6373  1.0479 -0.7363
  383MOL0     C50473   5.230   2.507   9.177  0.4409  0.0569 -0.7609
  383MOL0     N50474   5.767   2.025   9.495  0.1839 -0.4695 -0.0508
  383MOL0     N50475   5.831   1.913   9.466  0.4774 -0.2355 -0.1762
  383MOL0     C50476   6.853   2.459   9.121  0.0666 -0.9655  0.8653
  383MOL0     C50477   6.984   2.507   9.116  0.1562 -0.5146 -0.2611
  383MOL0     C50478   7.395   2.575   9.281  0.0147 -0.3984 -0.7152
  383MOL0     C50479   7.402   2.689   9.200 -0.1508 -0.6233 -1.3206
  383MOL0     C50480   7.521   2.753   9.177 -0.6926 -0.2550  1.1479
  383MOL0     C50481   7.655   2.705   9.212  1.3588 -0.0945 -0.1183
  383MOL0     O50482   7.757   2.771   9.166 -0.1156  0.5272  0.8467
  383MOL0     C50483   7.888   2.720   9.196 -0.1397 -0.0158 -0.4898
  383MOL0     C50484   7.989   2.819   9.148  0.7836  0.5040 -0.0525
  383MOL0     C50485   8.117   2.744   9.154 -0.5024  0.2657  0.9819
  383MOL0     C50486   8.245   2.819   9.113 -0.1183 -0.7790 -0.8563
  383MOL0     C50487   8.352   2.735   9.051 -0.9101  0.4504 -0.6370
  383MOL0     C50488   8.450   2.688   9.003  0.0995 -0.2413 -0.2767
  383MOL0     C50489   7.648   2.586   9.288 -0.4318  0.3035 -0.4174
  383MOL0     C50490   7.523   2.523   9.326  0.2499  0.5005 -0.1651
  383MOL0     H50491   7.108   2.278   9.334  1.9649  1.5691 -1.2173
  383MOL0     H50492   6.851   2.205   9.334 -0.4468 -0.2098 -0.4653
  383MOL0     H50493   6.633   2.152   9.298  0.9887 -1.2502 -0.3413
  383MOL0     H50494   6.728   2.105   9.145  0.0714 -0.4219 -0.1376
  383MOL0     H50495   6.504   2.012   9.134 -3.5847 -0.0750 -0.8591
  383MOL0     H50496   6.538   2.133   9.010  0.5818  1.9185  0.5773
  383MOL0     H50497   6.363   2.220   9.046  0.7525 -2.4417 -0.8983
  383MOL0     H50498   6.421   2.314   9.168 -0.8071  0.7950 -0.5964
  383MOL0     H50499   6.359   2.088   9.326 -4.9957  0.4447  3.4714
  383MOL0     H50500   6.283   2.236   9.315  2.8407  0.3099 -0.0164
  383MOL0     H50501   6.226   2.071   9.083  0.6971  0.7785  0.8852
  383MOL0     H50502   6.118   2.169   9.178  0.6054  0.9311  0.2585
  383MOL0     H50503   6.098   1.996   9.347  1.4667  0.0625  0.3617
  383MOL0     H50504   6.219   1.892   9.270  1.1812  1.3278 -0.7021
  383MOL0     H50505   5.953   1.986   9.152 -0.9600 -1.2013 -0.9844
  383MOL0     H50506   6.054   1.849   9.089  1.7865  2.8446 -2.1971
  383MOL0     H50507   5.981   1.747   9.322  0.4666  1.3683  1.0511
  383MOL0     H50508   5.870   1.752   9.182  0.9424 -1.4579  0.4643
  383MOL0     H50509   5.718   2.008   9.176  1.9818 -0.4815 -1.0663
  383MOL0     H50510   5.615   2.244   9.457  1.2222  2.8467  0.0871
  383MOL0     H50511   5.579   2.228   9.287 -0.8735 -0.3888  0.1641
  383MOL0     H50512   5.802   2.293   9.225 -2.5606 -1.0306 -1.1184
  383MOL0     H50513   5.836   2.332   9.398 -1.3722 -1.9539  0.7589
  383MOL0     H50514   5.678   2.507   9.412  1.5854 -0.4396  0.0230
  383MOL0     H50515   5.785   2.534   9.281  0.9007  0.9900  2.1544
  383MOL0     H50516   5.621   2.444   9.108 -0.6959  2.3369 -1.2721
  383MOL0     H50517   5.586   2.602   9.175 -2.5259  0.0366 -0.3145
  383MOL0     H50518   5.428   2.642   9.422  0.8181 -2.5624  0.8755
  383MOL0     H50519   5.239   2.794   9.440  2.7660  0.2854  0.1956
  383MOL0     H50520   4.706   2.722   9.456  0.1583  0.3460  0.1701
  383MOL0     H50521   4.518   2.883   9.494  0.3416 -1.7885  0.5139
  383MOL0     H50522   4.472   3.160   9.550 -2.3022 -2.4213  3.1097
  383MOL0     H50523   4.354   3.041   9.504 -0.8127 -0.5526 -2.3502
  383MOL0     H50524   4.359   3.345   9.432  3.4862 -2.8863 -0.6206
  383MOL0     H50525   4.265   3.269   9.555  2.9412 -0.8921  0.5407
  383MOL0     H50526   4.216   3.213   9.254 -2.8624 -2.8494 -0.6302
  383MOL0     H50527   4.109   3.313   9.343 -2.5242 -0.5479  1.7906
  383MOL0     H50528   4.146   3.020   9.351 -0.5212 -0.2056 -1.2870
  383MOL0     H50529   4.129   3.101   9.504  2.1135  1.5303 -0.4694
  383MOL0     H50530   3.907   3.190   9.442  1.0139 -0.5058  2.3496
  383MOL0     H50531   3.926   3.015   9.436  1.2480  1.5278  2.6226
  383MOL0     H50532   3.992   3.044   9.199  1.5051  0.8211  0.0071
  383MOL0     H50533   3.927   3.219   9.213 -0.0143 -0.6296 -0.1061
  383MOL0     H50534   3.748   2.985   9.272 -1.7902 -2.9665 -4.3914
  383MOL0     H50535   3.718   3.155   9.257 -0.4075  0.2322 -1.6652
  383MOL0     H50536   3.645   3.008   9.070 -0.8460 -0.1640 -0.7998
  383MOL0     H50537   3.802   2.943   9.036 -4.0114 -1.8398 -0.3694
  383MOL0     H50538   4.650   3.121   9.156 -1.5756 -0.8388  0.4491
  383MOL0     H50539   4.832   2.961   9.111  2.3211  2.0469  1.1533
  383MOL0     H50540   5.026   2.570   9.147  0.4115 -3.0895  1.1731
  383MOL0     H50541   5.221   2.432   9.099  1.0856  0.3676 -1.1332
  383MOL0     H50542   6.778   2.506   9.058  3.9483  5.6652  0.3098
  383MOL0     H50543   7.013   2.581   9.041  0.3477 -0.9149 -0.5901
  383MOL0     H50544   7.310   2.728   9.158 -0.6383 -0.9639 -0.5922
  383MOL0     H50545   7.527   2.848   9.123 -1.2042 -1.1246 -0.5107
  383MOL0     H50546   7.889   2.621   9.150  2.1350  0.4954 -1.6902
  383MOL0     H50547   7.898   2.704   9.304  2.9992 -2.0706 -0.9701
  383MOL0     H50548   7.956   2.841   9.046  0.1890 -1.7687 -0.4111
  383MOL0     H50549   7.989   2.916   9.198 -1.2483  1.4128 -1.6598
  383MOL0     H50550   8.106   2.660   9.085  3.9876  2.8655 -3.6803
  383MOL0     H50551   8.136   2.710   9.256  1.3767  2.1775  1.3517
  383MOL0     H50552   8.216   2.909   9.058  2.9465  0.9514  0.1162
  383MOL0     H50553   8.284   2.858   9.208  0.2848  0.1116 -1.3706
  383MOL0     H50554   8.533   2.639   8.956 -0.0971  0.7120 -1.6882
  383MOL0     H50555   7.740   2.533   9.311  1.4638  2.2058 -3.0261
  383MOL0     H50556   7.532   2.427   9.377  1.4693 -0.4364 -2.0298
  384MOL0     O50557   2.895   8.595  10.002 -0.3204 -0.0015  0.0971
  384MOL0     C50558   2.963   8.543   9.910  0.6227  0.6007  0.6647
  384MOL0     O50559   2.927   8.523   9.779  1.1368 -0.0114  0.1779
  384MOL0     C50560   2.809   8.580   9.744  0.5762 -1.1215  0.3699
  384MOL0     C50561   2.804   8.678   9.648 -0.3528 -0.0358  0.0804
  384MOL0     C50562   2.682   8.727   9.596 -0.9818  0.3841 -0.6084
  384MOL0     C50563   2.559   8.678   9.650 -0.2619  0.1409  0.0800
  384MOL0     O50564   2.430   8.725   9.636  0.4374 -0.4362 -0.1174
  384MOL0     C50565   2.416   8.824   9.541  1.0838  0.7565 -0.6364
  384MOL0     C50566   2.268   8.840   9.512 -0.0839  0.6357 -1.2688
  384MOL0     C50567   2.189   8.710   9.495 -0.3832 -0.2411 -0.1396
  384MOL0     C50568   2.035   8.728   9.468  0.1333 -0.1197 -0.6098
  384MOL0     C50569   1.951   8.606   9.439 -0.5432 -0.3423  0.9593
  384MOL0     C50570   1.807   8.641   9.460 -0.4979  0.4589 -0.0837
  384MOL0     C50571   1.770   8.634   9.615 -0.9246 -0.1844  0.4138
  384MOL0     C50572   1.615   8.648   9.646 -0.1829  0.4058  0.2329
  384MOL0     N50573   1.544   8.528   9.609 -0.5401  0.4865 -0.1407
  384MOL0     C50574   1.413   8.525   9.575  0.1557 -0.2617 -0.4677
  384MOL0     C50575   1.401   8.411   9.505  0.3138 -0.4124 -0.1343
  384MOL0     C50576   1.280   8.371   9.430  0.4604  0.2053  0.0765
  384MOL0     C50577   1.263   8.219   9.457  0.5893 -0.0302  0.1108
  384MOL0     C50578   1.257   8.174   9.607  0.0833 -1.0051  0.4347
  384MOL0     C50579   1.164   8.264   9.692  0.4529 -0.2999 -0.3227
  384MOL0     O50580   1.039   8.302   9.630  0.4701  0.3172 -0.3190
  384MOL0     C50581   0.916   8.237   9.650 -0.1700  0.2897 -0.1668
  384MOL0     C50582   0.803   8.312   9.630 -0.7581 -0.1915 -0.3227
  384MOL0     C50583   0.679   8.245   9.641 -0.5364 -0.5883  0.2891
  384MOL0     C50584   0.658   8.110   9.676  0.0801  0.4240 -0.5265
  384MOL0     C50585   0.518   8.046   9.680  0.2548  0.8845 -0.3474
  384MOL0     O50586   0.427   8.141   9.648  0.6576  0.7345 -0.2907
  384MOL0     C50587   0.297   8.104   9.664  0.8821  0.3997 -1.1423
  384MOL0     C50588   0.223   8.005   9.596  0.6230 -0.4294 -0.2364
  384MOL0     C50589   0.079   8.002   9.611  0.3698 -0.1167  0.1430
  384MOL0     C50590   0.004   8.096   9.691 -0.8340 -0.1470  0.5975
  384MOL0     O50591  -0.132   8.084   9.685  0.2024  0.4825 -0.8188
  384MOL0     C50592  -0.190   7.976   9.765 -0.3868 -0.5755  0.0806
  384MOL0     C50593  -0.327   7.950   9.713  0.1606  0.0485  0.3340
  384MOL0     C50594  -0.427   7.889   9.812 -0.1232 -0.2841 -0.1141
  384MOL0     C50595  -0.551   7.850   9.731  0.1421  0.4866  0.4175
  384MOL0     C50596  -0.661   7.815   9.826  0.1455 -1.0072 -0.2453
  384MOL0     C50597  -0.797   7.838   9.758 -0.0307 -0.6172 -0.3268
  384MOL0     C50598  -0.920   7.796   9.842  0.7874 -0.2796 -0.3220
  384MOL0     C50599  -1.049   7.871   9.803 -0.5813  0.4098  0.3500
  384MOL0    Cl50600  -1.157   7.867   9.943  0.4250 -0.1217 -0.1816
  384MOL0     C50601   0.082   8.190   9.765  0.2857  0.3170  0.0333
  384MOL0     C50602   0.222   8.198   9.752  0.6968 -0.7600  0.0860
  384MOL0     O50603   0.494   7.930   9.722 -0.0028 -1.0851 -0.6289
  384MOL0     C50604   0.779   8.037   9.703 -0.1596 -0.1316 -0.6319
  384MOL0     C50605   0.902   8.101   9.683 -0.3716  0.0843 -0.3785
  384MOL0     N50606   1.527   8.345   9.513 -0.0594  0.2385  0.0185
  384MOL0     N50607   1.608   8.415   9.580 -0.3378 -0.2373  0.1272
  384MOL0     C50608   2.568   8.585   9.747  1.1691  0.5238  0.1073
  384MOL0     C50609   2.689   8.529   9.787  1.1216  0.6493  0.2367
  384MOL0     C50610   3.101   8.488   9.954  1.0711 -0.3174 -0.6188
  384MOL0     C50611   3.168   8.418   9.856 -0.2963 -1.5584  0.5209
  384MOL0     C50612   3.298   8.382   9.891  0.3030  0.2811 -0.7727
  384MOL0     C50613   3.357   8.432  10.010 -0.7071 -1.4378 -0.1014
  384MOL0     O50614   3.483   8.387  10.047  0.4920 -0.6128 -0.1832
  384MOL0     C50615   3.571   8.459  10.138  0.4354 -0.5236 -0.3154
  384MOL0     C50616   3.716   8.400  10.135  0.2915  0.0869 -0.0702
  384MOL0     C50617   3.730   8.250  10.162  0.4836  0.4730  0.7786
  384MOL0     C50618   3.871   8.206  10.210 -0.2311 -0.8600 -0.4678
  384MOL0     C50619   3.911   8.265  10.338 -0.2077 -0.2839 -0.2469
  384MOL0     C50620   3.940   8.305  10.448  0.7940  0.1661  0.0214
  384MOL0     C50621   3.283   8.507  10.100  0.4273 -0.1052  0.6451
  384MOL0     C50622   3.151   8.540  10.080 -0.2222  0.0258  0.4827
  384MOL0     H50623   2.891   8.728   9.606  1.5015  0.4085  3.9938
  384MOL0     H50624   2.676   8.814   9.531  0.6804 -0.2208 -1.6475
  384MOL0     H50625   2.475   8.794   9.454 -0.9049 -0.0232 -1.7839
  384MOL0     H50626   2.454   8.920   9.576 -1.3017  3.0851 -3.8149
  384MOL0     H50627   2.258   8.904   9.423  1.9855  0.5563 -1.6140
  384MOL0     H50628   2.220   8.890   9.597 -0.6652 -1.9173 -0.0110
  384MOL0     H50629   2.206   8.653   9.587  1.7867  0.7177  0.1186
  384MOL0     H50630   2.231   8.646   9.416 -3.8675 -1.3612 -1.2430
  384MOL0     H50631   1.994   8.774   9.559 -0.3307 -0.1001 -0.8256
  384MOL0     H50632   2.027   8.806   9.392 -3.1122  1.9580  1.6158
  384MOL0     H50633   1.988   8.518   9.493  0.7843  0.0998  0.8104
  384MOL0     H50634   1.945   8.574   9.334 -2.5093 -0.5190  1.0920
  384MOL0     H50635   1.756   8.569   9.395  0.5919  2.1618 -3.0131
  384MOL0     H50636   1.774   8.737   9.420  0.3736  0.2407 -1.3622
  384MOL0     H50637   1.805   8.543   9.664  0.7037 -1.7186 -3.2229
  384MOL0     H50638   1.817   8.717   9.669 -1.5917  0.9310 -0.6482
  384MOL0     H50639   1.583   8.739   9.594  2.7090  1.8190  0.7018
  384MOL0     H50640   1.597   8.674   9.750 -0.3908  0.0863  0.2752
  384MOL0     H50641   1.335   8.600   9.587 -0.1911 -0.7099  0.0920
  384MOL0     H50642   1.288   8.409   9.327 -1.5077 -1.5382 -0.7918
  384MOL0     H50643   1.192   8.409   9.483 -0.0682  0.0312 -0.6624
  384MOL0     H50644   1.337   8.159   9.405  1.1476  0.6813  0.0752
  384MOL0     H50645   1.167   8.187   9.415  1.2725 -0.9457 -0.7843
  384MOL0     H50646   1.230   8.069   9.620  2.7509 -1.6512  1.5834
  384MOL0     H50647   1.361   8.179   9.641  0.6047 -0.2040 -1.1412
  384MOL0     H50648   1.215   8.361   9.697  0.6988 -0.4722  0.7774
  384MOL0     H50649   1.155   8.226   9.795  2.8624 -0.5804 -0.1683
  384MOL0     H50650   0.832   8.416   9.621 -0.5856 -0.1899  0.2029
  384MOL0     H50651   0.589   8.306   9.633 -1.5800 -1.2439  4.4102
  384MOL0     H50652   0.280   7.945   9.526  3.2269  1.7282 -0.1371
  384MOL0     H50653   0.029   7.923   9.556 -0.8650 -1.9413  3.6155
  384MOL0     H50654  -0.190   8.015   9.867  1.7956  2.8613 -1.0606
  384MOL0     H50655  -0.119   7.893   9.758  1.2249  0.7164  0.5220
  384MOL0     H50656  -0.334   7.877   9.632 -1.8305  0.2813  0.2364
  384MOL0     H50657  -0.379   8.040   9.679  1.1715  1.0958  1.4413
  384MOL0     H50658  -0.450   7.960   9.892 -2.6324 -0.7648 -0.3177
  384MOL0     H50659  -0.384   7.794   9.843  2.1293  0.3250 -1.1763
  384MOL0     H50660  -0.569   7.931   9.660  1.5116  0.7904  0.3843
  384MOL0     H50661  -0.532   7.759   9.673 -0.4525 -0.5805  1.8351
  384MOL0     H50662  -0.669   7.877   9.916 -5.0192 -0.3343 -0.8449
  384MOL0     H50663  -0.650   7.714   9.866  0.0710 -0.2855  1.7289
  384MOL0     H50664  -0.803   7.769   9.673  0.4130 -2.8915  1.4050
  384MOL0     H50665  -0.810   7.944   9.734 -0.7206 -0.6987 -0.3165
  384MOL0     H50666  -0.928   7.687   9.838  1.5178 -0.3028 -1.6284
  384MOL0     H50667  -0.903   7.839   9.941  0.5097  1.8506 -1.1467
  384MOL0     H50668  -1.092   7.839   9.707  2.8581 -0.9986 -0.8797
  384MOL0     H50669  -1.021   7.971   9.768 -0.0668 -0.7353 -2.8161
  384MOL0     H50670   0.042   8.261   9.837 -0.7334  0.3904 -0.5909
  384MOL0     H50671   0.278   8.272   9.808  0.1129 -3.1396  4.1975
  384MOL0     H50672   0.780   7.936   9.743  1.5005  0.6352  1.4938
  384MOL0     H50673   0.994   8.049   9.711 -0.3439  0.6468  0.6131
  384MOL0     H50674   2.469   8.552   9.779  1.0551  1.2914  0.5722
  384MOL0     H50675   2.686   8.448   9.859  0.9454 -1.4507 -1.9934
  384MOL0     H50676   3.132   8.393   9.757  1.1374 -1.0166 -0.1794
  384MOL0     H50677   3.356   8.315   9.829 -2.9844 -3.1749 -0.4890
  384MOL0     H50678   3.537   8.450  10.241  0.2898  0.7759 -0.2285
  384MOL0     H50679   3.576   8.566  10.113 -1.6710  0.1686  1.8264
  384MOL0     H50680   3.752   8.426  10.035  0.0344 -0.0220 -0.1925
  384MOL0     H50681   3.777   8.449  10.212  1.4864  1.2040 -1.6538
  384MOL0     H50682   3.705   8.194  10.071 -0.2469 -1.3680  2.0294
  384MOL0     H50683   3.658   8.215  10.238 -0.3838  1.1221  0.2708
  384MOL0     H50684   3.875   8.096  10.210 -3.3561 -1.1963  3.3664
  384MOL0     H50685   3.944   8.244  10.138 -3.3378  6.0097 -0.7995
  384MOL0     H50686   3.957   8.336  10.549  1.4361 -0.4750  0.1168
  384MOL0     H50687   3.327   8.539  10.194 -0.4452  0.0407  1.0197
  384MOL0     H50688   3.097   8.599  10.152 -1.9224  0.9760 -1.4626
  385MOL0     O50689  11.258   7.464   8.989 -0.3088 -0.4267  0.4989
  385MOL0     C50690  11.345   7.433   9.069  0.7956 -0.4246  0.6832
  385MOL0     O50691  11.331   7.410   9.206 -0.7431  0.2421  0.0635
  385MOL0     C50692  11.211   7.418   9.262 -0.1357 -0.2996  0.0748
  385MOL0     C50693  11.116   7.523   9.238  0.0817 -0.5827 -0.6910
  385MOL0     C50694  10.997   7.525   9.315  0.5315  0.5062  0.0758
  385MOL0     C50695  10.962   7.425   9.414  0.1742 -0.1860  0.0349
  385MOL0     O50696  10.845   7.415   9.484  0.7690 -0.3694 -0.1028
  385MOL0     C50697  10.751   7.521   9.478 -0.0160 -0.1019  0.3476
  385MOL0     C50698  10.645   7.514   9.589 -0.0125 -0.7836 -0.5695
  385MOL0     C50699  10.564   7.377   9.590 -0.1510  1.0423  0.4674
  385MOL0     C50700  10.451   7.366   9.699  0.5893 -0.1170 -0.0985
  385MOL0     C50701  10.312   7.422   9.654 -0.0364 -0.0120  0.3320
  385MOL0     C50702  10.214   7.411   9.774  0.0038  0.7246 -0.1512
  385MOL0     C50703  10.106   7.514   9.746  0.6705  0.1854 -0.4406
  385MOL0     C50704  10.005   7.519   9.863 -0.0293  0.4815 -0.1157
  385MOL0     N50705   9.943   7.388   9.897  0.1920 -0.1769 -0.3391
  385MOL0     C50706   9.863   7.314   9.812  0.4006  0.5348  0.2905
  385MOL0     C50707   9.830   7.202   9.882  0.5268  0.7441  0.6361
  385MOL0     C50708   9.761   7.086   9.811  0.2759 -0.0908  0.6435
  385MOL0     C50709   9.621   7.128   9.758 -0.9459 -0.3193  0.4107
  385MOL0     C50710   9.553   7.009   9.689  0.1445 -0.1526  0.1828
  385MOL0     C50711   9.408   7.041   9.655 -0.0666 -0.0014  0.0359
  385MOL0     O50712   9.328   7.053   9.774 -0.1270  0.1998 -0.0554
  385MOL0     C50713   9.198   7.074   9.784 -0.0035 -0.6976 -0.4524
  385MOL0     C50714   9.118   7.089   9.676 -0.0467  0.5395 -0.4143
  385MOL0     C50715   8.977   7.098   9.695 -0.0240  0.0483  1.3708
  385MOL0     C50716   8.916   7.094   9.819 -0.6306  0.2096 -0.3095
  385MOL0     C50717   8.773   7.117   9.832 -0.2476  0.7252  0.4191
  385MOL0     O50718   8.722   7.065   9.951  0.0054  0.0235  0.1199
  385MOL0     C50719   8.581   7.055   9.975 -0.4763  0.0965 -1.2225
  385MOL0     C50720   8.489   7.028   9.872  0.3999  0.1942  0.5967
  385MOL0     C50721   8.348   7.027   9.914 -0.0327 -0.4521  0.8372
  385MOL0     C50722   8.310   7.039  10.054  0.0053 -0.0658 -0.4028
  385MOL0     O50723   8.182   7.049  10.103  0.5943 -0.1107  0.0851
  385MOL0     C50724   8.069   7.056  10.019  0.2592  0.3167 -0.1693
  385MOL0     C50725   7.946   7.077  10.110  0.1045 -0.4128 -0.3279
  385MOL0     C50726   7.829   7.135  10.023 -0.1869  1.0503  1.0228
  385MOL0     C50727   7.752   7.248  10.072  0.4962  0.0820 -0.5193
  385MOL0     C50728   7.663   7.318   9.968 -0.1974 -0.3602  0.6428
  385MOL0     C50729   7.551   7.230   9.896 -0.2601 -0.4363 -0.4386
  385MOL0     C50730   7.487   7.299   9.778 -0.1493  0.0056 -0.3268
  385MOL0     C50731   7.374   7.214   9.712  0.5357 -0.3404 -0.3480
  385MOL0    Cl50732   7.303   7.288   9.572  0.1390 -0.2514  0.4293
  385MOL0     C50733   8.415   7.041  10.145 -0.9369  0.2764 -0.5967
  385MOL0     C50734   8.547   7.045  10.112  0.5164 -0.1670  1.9455
  385MOL0     O50735   8.708   7.152   9.742 -0.6473  0.0622 -0.1775
  385MOL0     C50736   9.000   7.071   9.927  0.5568  0.5617 -1.2017
  385MOL0     C50737   9.139   7.057   9.904  0.6300  0.5616  0.0912
  385MOL0     N50738   9.881   7.218  10.009 -0.2445  0.4961 -0.3521
  385MOL0     N50739   9.957   7.324  10.016 -0.1480  0.5654 -0.2834
  385MOL0     C50740  11.065   7.322   9.437  0.0839 -0.4183 -0.0069
  385MOL0     C50741  11.186   7.325   9.367 -0.0840 -0.0300 -0.0142
  385MOL0     C50742  11.476   7.393   9.024  0.3695  0.0545  0.0611
  385MOL0     C50743  11.574   7.327   9.109  0.5975 -0.3366  0.0903
  385MOL0     C50744  11.705   7.306   9.057  0.0704 -0.8494  0.3828
  385MOL0     C50745  11.744   7.345   8.927 -0.2538 -0.1412 -0.9422
  385MOL0     O50746  11.870   7.316   8.892 -0.1482  0.3573  0.9079
  385MOL0     C50747  11.950   7.437   8.873  0.4887 -0.2153 -0.7645
  385MOL0     C50748  12.100   7.390   8.883  0.5015  0.4421  0.2530
  385MOL0     C50749  12.194   7.496   8.915 -0.2388 -0.4726  0.4907
  385MOL0     C50750  12.324   7.436   8.962 -0.5539 -0.4664 -0.1866
  385MOL0     C50751  12.383   7.369   8.848  1.8381 -0.2815  0.5588
  385MOL0     C50752  12.437   7.325   8.740 -0.1009 -0.6489 -0.0369
  385MOL0     C50753  11.654   7.411   8.855  0.0143  0.2565  0.3571
  385MOL0     C50754  11.522   7.428   8.897  0.7565  0.2397  0.8312
  385MOL0     H50755  11.135   7.603   9.167  0.2168  0.3203  0.3324
  385MOL0     H50756  10.924   7.602   9.291 -0.7695 -0.6845  0.0890
  385MOL0     H50757  10.706   7.509   9.378  1.1322 -0.9501 -0.0878
  385MOL0     H50758  10.802   7.617   9.487  0.5666 -0.3550 -0.1461
  385MOL0     H50759  10.578   7.600   9.584  0.0800 -0.5569  1.2222
  385MOL0     H50760  10.691   7.536   9.686 -3.7486  0.0808  1.1870
  385MOL0     H50761  10.616   7.281   9.600 -0.0987  1.2106  2.0698
  385MOL0     H50762  10.525   7.372   9.488  0.2101  1.9963  0.2648
  385MOL0     H50763  10.426   7.267   9.738 -0.5417  0.4622  0.7169
  385MOL0     H50764  10.470   7.416   9.794  0.8241 -0.1887 -0.1063
  385MOL0     H50765  10.270   7.384   9.561  1.7530  0.7222 -0.8345
  385MOL0     H50766  10.331   7.529   9.643 -2.6709  0.3723 -1.4637
  385MOL0     H50767  10.261   7.433   9.870  1.0020  1.2540 -0.7463
  385MOL0     H50768  10.186   7.305   9.780 -0.3229  0.7935 -0.4290
  385MOL0     H50769  10.133   7.619   9.733 -1.6300  0.5818 -2.8202
  385MOL0     H50770  10.055   7.487   9.653 -0.4985 -0.0525  0.2499
  385MOL0     H50771   9.933   7.595   9.832 -0.7291 -0.1544 -0.0841
  385MOL0     H50772  10.058   7.557   9.951  1.6913 -3.0531  0.5385
  385MOL0     H50773   9.851   7.333   9.705  0.2241  3.5762  0.7613
  385MOL0     H50774   9.750   7.005   9.884  0.7569 -0.5449  0.2123
  385MOL0     H50775   9.828   7.041   9.738 -1.8480 -1.0348 -0.8299
  385MOL0     H50776   9.626   7.215   9.692 -0.3546 -1.2345 -0.7836
  385MOL0     H50777   9.574   7.159   9.852  2.0154  0.5437  1.7358
  385MOL0     H50778   9.610   6.990   9.597 -0.4335 -2.3127  0.2258
  385MOL0     H50779   9.558   6.916   9.746  0.4565 -1.1802 -1.4416
  385MOL0     H50780   9.372   6.961   9.590 -1.3437 -0.5077  1.3204
  385MOL0     H50781   9.400   7.136   9.601  1.5624  0.5053  0.6347
  385MOL0     H50782   9.162   7.098   9.577  1.1606  0.6073  0.1116
  385MOL0     H50783   8.912   7.121   9.611 -0.5941 -2.8435  0.9138
  385MOL0     H50784   8.513   7.023   9.767  1.8673  0.2913  0.9086
  385MOL0     H50785   8.270   6.998   9.844  1.9127 -2.2305 -0.7051
  385MOL0     H50786   8.054   6.963   9.963 -0.7552  1.4574 -1.8717
  385MOL0     H50787   8.089   7.142   9.954 -0.3153 -0.1010 -0.9140
  385MOL0     H50788   7.979   7.149  10.185 -3.7045  0.5113  0.6682
  385MOL0     H50789   7.905   6.987  10.156 -0.2429 -0.6649 -1.1091
  385MOL0     H50790   7.762   7.050  10.008  2.0905 -0.3861 -2.2115
  385MOL0     H50791   7.862   7.154   9.920 -1.3389 -0.7349  0.2648
  385MOL0     H50792   7.699   7.196  10.152  2.1683 -1.8314 -0.5730
  385MOL0     H50793   7.814   7.322  10.125  0.4186 -0.0868 -0.1917
  385MOL0     H50794   7.730   7.350   9.888  1.1741  0.6871  2.1261
  385MOL0     H50795   7.610   7.401  10.015 -0.0461 -1.2005  2.3993
  385MOL0     H50796   7.476   7.211   9.974  0.1615  0.5853  0.2359
  385MOL0     H50797   7.601   7.140   9.859  0.4443 -0.1375 -0.2148
  385MOL0     H50798   7.449   7.397   9.807  2.7954  0.6533  1.8736
  385MOL0     H50799   7.562   7.321   9.702 -2.2379  0.0085 -2.4739
  385MOL0     H50800   7.296   7.180   9.781  1.8488 -3.3443 -0.1887
  385MOL0     H50801   7.425   7.122   9.681  1.7418 -0.1730  1.0033
  385MOL0     H50802   8.403   7.054  10.252  1.1604 -3.0864  0.2029
  385MOL0     H50803   8.625   7.043  10.188  1.7083 -3.6824  0.8266
  385MOL0     H50804   8.964   7.060  10.029  0.8834 -1.9438 -1.2902
  385MOL0     H50805   9.190   7.025   9.994 -0.8494 -1.1615  0.3689
  385MOL0     H50806  11.042   7.245   9.510  1.4297 -1.1081 -0.2661
  385MOL0     H50807  11.264   7.249   9.379  0.3655  0.1171 -1.7394
  385MOL0     H50808  11.551   7.287   9.208 -5.3937  1.9019 -0.0109
  385MOL0     H50809  11.775   7.242   9.109 -0.7451 -0.4107  2.1151
  385MOL0     H50810  11.936   7.508   8.956 -1.4601 -2.6283  1.1435
  385MOL0     H50811  11.943   7.489   8.778  2.3452  1.3609 -0.1033
  385MOL0     H50812  12.105   7.323   8.969  2.4647  1.4529  0.9904
  385MOL0     H50813  12.116   7.351   8.783 -1.0043 -1.4479  0.6807
  385MOL0     H50814  12.161   7.569   8.990  0.5992  0.6951 -0.2426
  385MOL0     H50815  12.212   7.566   8.832  1.0911  3.9415  4.0919
  385MOL0     H50816  12.394   7.517   8.987 -3.9768  3.5594 -2.3467
  385MOL0     H50817  12.316   7.373   9.051  0.7013 -2.1574 -1.2192
  385MOL0     H50818  12.465   7.281   8.646 -2.5736 -3.2971  0.3492
  385MOL0     H50819  11.678   7.420   8.749  1.3517  1.0441  0.7073
  385MOL0     H50820  11.448   7.453   8.821  2.7208  0.9853 -0.9060
  386MOL0     O50821  11.185   4.301   6.594  0.1071 -0.2087 -0.0095
  386MOL0     C50822  11.141   4.360   6.694 -0.6109  0.2795 -0.1284
  386MOL0     O50823  11.009   4.401   6.715  0.0169  0.5064 -0.0427
  386MOL0     C50824  10.901   4.360   6.631 -0.5247 -0.6040  0.9080
  386MOL0     C50825  10.779   4.429   6.647  0.5973  0.6950 -0.1810
  386MOL0     C50826  10.665   4.410   6.565  0.0587 -0.2913 -0.2721
  386MOL0     C50827  10.666   4.341   6.449 -0.1238  0.5171 -0.4423
  386MOL0     O50828  10.559   4.320   6.364  0.4617  0.1703  0.0370
  386MOL0     C50829  10.446   4.409   6.369  0.3867  0.4430 -0.7425
  386MOL0     C50830  10.336   4.364   6.273  0.2130  0.1982  0.4003
  386MOL0     C50831  10.370   4.374   6.123 -0.7533 -0.2372 -0.3516
  386MOL0     C50832  10.245   4.339   6.040 -1.1416  0.0375  0.5482
  386MOL0     C50833  10.280   4.307   5.888  0.3732 -0.1762  0.1887
  386MOL0     C50834  10.163   4.330   5.793 -0.1483 -0.2142  0.4983
  386MOL0     C50835  10.050   4.229   5.820  0.3924  0.6126  0.1720
  386MOL0     C50836   9.926   4.255   5.735  0.3460 -0.3551 -0.1463
  386MOL0     N50837   9.819   4.158   5.757  0.1627  0.5939  0.5647
  386MOL0     C50838   9.719   4.155   5.666 -0.4786 -0.2832  0.9080
  386MOL0     C50839   9.622   4.081   5.727  0.3637 -0.7390 -0.1559
  386MOL0     C50840   9.478   4.056   5.687 -0.3771 -0.3630 -0.3451
  386MOL0     C50841   9.458   3.980   5.552 -0.6254  0.2084  0.4325
  386MOL0     C50842   9.510   3.835   5.556 -0.4888 -0.7483 -0.4886
  386MOL0     C50843   9.443   3.744   5.457  0.2743 -0.1699  0.2602
  386MOL0     O50844   9.460   3.777   5.320  0.8787 -0.0866 -0.3063
  386MOL0     C50845   9.371   3.734   5.227 -0.0903  0.6161 -0.2258
  386MOL0     C50846   9.268   3.635   5.247 -0.1069 -0.4204 -0.0775
  386MOL0     C50847   9.182   3.586   5.149 -0.2053 -0.1105  0.5210
  386MOL0     C50848   9.214   3.629   5.018  0.7363  0.2040 -0.9656
  386MOL0     C50849   9.107   3.594   4.923 -0.0128 -0.2772 -0.3613
  386MOL0     O50850   9.046   3.471   4.933 -0.4131 -0.5589  0.1049
  386MOL0     C50851   8.969   3.425   4.827  0.3306 -0.9754  0.3707
  386MOL0     C50852   8.835   3.408   4.845  0.0200  0.4086  0.2580
  386MOL0     C50853   8.758   3.343   4.750 -0.7011  0.3642 -0.3597
  386MOL0     C50854   8.814   3.296   4.630 -0.9478  1.2615 -0.4848
  386MOL0     O50855   8.726   3.233   4.538  0.4564  0.2571 -0.1009
  386MOL0     C50856   8.778   3.162   4.420  0.3883  0.2130 -0.0835
  386MOL0     C50857   8.649   3.152   4.340  0.4591 -0.9038  0.0306
  386MOL0     C50858   8.604   3.294   4.283 -0.2027 -1.3053 -0.0561
  386MOL0     C50859   8.471   3.301   4.214 -0.2435 -0.1637  0.2474
  386MOL0     C50860   8.440   3.456   4.197 -0.5141  0.3631 -0.6600
  386MOL0     C50861   8.337   3.485   4.092 -0.7384  0.1305  0.8763
  386MOL0     C50862   8.301   3.637   4.079 -0.0930  0.6302  1.0902
  386MOL0     C50863   8.208   3.658   3.972  1.1066 -0.6744  0.2936
  386MOL0    Cl50864   8.207   3.831   3.936 -0.1971 -0.1666  0.3277
  386MOL0     C50865   8.958   3.301   4.614 -0.5693 -0.5603  0.1162
  386MOL0     C50866   9.037   3.365   4.717  0.2506  0.3418  0.3786
  386MOL0     O50867   9.068   3.693   4.852 -0.7281  0.2240 -0.4330
  386MOL0     C50868   9.305   3.730   4.996 -0.6706  0.1157  0.1535
  386MOL0     C50869   9.387   3.769   5.099  0.1356 -0.0446 -0.5116
  386MOL0     N50870   9.672   4.037   5.850  0.2300  0.1984  0.0516
  386MOL0     N50871   9.788   4.093   5.869  0.6183  0.2603  0.0763
  386MOL0     C50872  10.785   4.267   6.427  0.1294  0.1931 -0.6135
  386MOL0     C50873  10.898   4.272   6.511 -0.1167 -0.6019 -0.1384
  386MOL0     C50874  11.240   4.386   6.793  0.2494 -0.3858 -0.9575
  386MOL0     C50875  11.372   4.331   6.787  0.1563 -0.2542  0.3639
  386MOL0     C50876  11.455   4.336   6.898  0.0309 -0.0223 -0.5640
  386MOL0     C50877  11.422   4.410   7.005 -0.6684 -1.3841 -0.7799
  386MOL0     O50878  11.508   4.420   7.116  0.4299 -0.2806  0.2228
  386MOL0     C50879  11.621   4.326   7.127  0.6762  0.4297 -1.5346
  386MOL0     C50880  11.736   4.388   7.063  0.2795 -0.7833  0.1899
  386MOL0     C50881  11.776   4.530   7.130  0.5855  0.6942  0.7905
  386MOL0     C50882  11.832   4.519   7.264  0.4602  0.6156 -1.0689
  386MOL0     C50883  11.815   4.648   7.337  0.0052  0.0322 -0.6138
  386MOL0     C50884  11.831   4.758   7.378  0.9599 -0.2893  0.2129
  386MOL0     C50885  11.306   4.490   7.006 -0.4191 -0.2710 -0.4420
  386MOL0     C50886  11.212   4.462   6.912  0.3412 -0.4453 -0.2698
  386MOL0     H50887  10.785   4.482   6.742 -0.2150  0.3690  0.0579
  386MOL0     H50888  10.574   4.460   6.598 -0.4834 -1.3971 -0.0691
  386MOL0     H50889  10.479   4.514   6.365  1.7228  0.3953  3.4004
  386MOL0     H50890  10.401   4.399   6.468  1.7853 -2.7102 -0.3142
  386MOL0     H50891  10.256   4.439   6.279  0.4315  0.5735 -1.0467
  386MOL0     H50892  10.304   4.264   6.303  1.9604 -0.8896 -1.1221
  386MOL0     H50893  10.462   4.321   6.100  2.4796  4.0281  1.3304
  386MOL0     H50894  10.403   4.477   6.103 -1.6307  0.2843  0.7665
  386MOL0     H50895  10.203   4.245   6.076  1.2758 -1.3486 -0.0035
  386MOL0     H50896  10.175   4.423   6.042 -0.1679  0.9915 -1.8917
  386MOL0     H50897  10.313   4.203   5.876 -1.5558 -0.7215 -0.7563
  386MOL0     H50898  10.362   4.370   5.853  0.9766 -0.8809  0.3076
  386MOL0     H50899  10.196   4.329   5.689 -3.0460 -0.7189 -0.5295
  386MOL0     H50900  10.125   4.432   5.808  0.0403 -0.2070  0.9146
  386MOL0     H50901  10.093   4.133   5.792  0.8740  0.9459 -0.2592
  386MOL0     H50902  10.008   4.234   5.921  0.0251  1.0442  0.0045
  386MOL0     H50903   9.957   4.224   5.635  1.8508 -0.7823  0.4319
  386MOL0     H50904   9.894   4.360   5.734 -0.7179 -0.6601 -2.0083
  386MOL0     H50905   9.722   4.203   5.568 -0.6827  1.2840  1.6413
  386MOL0     H50906   9.421   4.150   5.682  0.9380  0.4507 -0.6695
  386MOL0     H50907   9.434   3.995   5.766 -1.6619  0.9337  0.0010
  386MOL0     H50908   9.511   4.030   5.470  3.0329  0.9057  2.9349
  386MOL0     H50909   9.354   3.982   5.520 -0.7190 -1.6582  0.5103
  386MOL0     H50910   9.619   3.843   5.552 -0.4540 -0.5198  0.5584
  386MOL0     H50911   9.489   3.793   5.655 -2.7537  2.4866  0.6024
  386MOL0     H50912   9.337   3.738   5.484  0.5220 -0.8689  1.1481
  386MOL0     H50913   9.479   3.642   5.473 -1.0011 -0.6264  0.3823
  386MOL0     H50914   9.260   3.594   5.347  3.4198 -4.5606 -1.2063
  386MOL0     H50915   9.101   3.517   5.170 -0.4249 -0.0021  0.0260
  386MOL0     H50916   8.790   3.450   4.934  1.9809  3.1406  0.0693
  386MOL0     H50917   8.650   3.341   4.757 -0.8432 -4.2271 -0.9078
  386MOL0     H50918   8.803   3.059   4.447 -5.8000 -1.6558 -0.0220
  386MOL0     H50919   8.860   3.216   4.372  2.3276 -1.6187  0.9952
  386MOL0     H50920   8.569   3.107   4.399 -0.1283  0.1836  0.0921
  386MOL0     H50921   8.668   3.094   4.249  1.1716 -2.0900  0.8966
  386MOL0     H50922   8.683   3.320   4.212 -0.9884 -2.4946 -1.4205
  386MOL0     H50923   8.612   3.367   4.364 -0.7545  0.4415 -1.5117
  386MOL0     H50924   8.474   3.242   4.121  1.2873  1.8780 -1.1082
  386MOL0     H50925   8.387   3.273   4.278 -1.2373  0.7988 -0.5974
  386MOL0     H50926   8.537   3.496   4.164  0.9234 -4.5047 -3.3733
  386MOL0     H50927   8.408   3.488   4.296  0.6691 -1.2763  0.3127
  386MOL0     H50928   8.250   3.421   4.109 -1.3554  0.0283 -2.0524
  386MOL0     H50929   8.384   3.470   3.994  3.0980  2.6414  2.1006
  386MOL0     H50930   8.268   3.673   4.177 -4.0193  0.9148 -0.1777
  386MOL0     H50931   8.400   3.679   4.058  1.0847 -2.6946 -0.7834
  386MOL0     H50932   8.121   3.622   4.029  2.7229 -0.9045  2.7974
  386MOL0     H50933   8.230   3.583   3.895  4.9333  0.6772 -0.1421
  386MOL0     H50934   9.015   3.271   4.527 -0.2656  0.1459  0.0698
  386MOL0     H50935   9.141   3.388   4.700 -0.1904  2.6607  0.5646
  386MOL0     H50936   9.310   3.789   4.905 -0.0974  3.7228  2.3079
  386MOL0     H50937   9.464   3.843   5.081  0.9757 -0.2745  1.7969
  386MOL0     H50938  10.783   4.216   6.331 -0.1349  0.3695 -0.7011
  386MOL0     H50939  10.984   4.211   6.486 -0.7282 -1.1579 -0.9350
  386MOL0     H50940  11.425   4.278   6.709  0.5894  2.3216 -1.2058
  386MOL0     H50941  11.535   4.263   6.896 -1.0014 -1.1860 -1.0895
  386MOL0     H50942  11.602   4.232   7.074  0.6421 -0.2078 -0.4287
  386MOL0     H50943  11.646   4.299   7.230 -0.6174  0.1700 -1.2721
  386MOL0     H50944  11.818   4.315   7.054 -0.4635 -2.3257  4.0283
  386MOL0     H50945  11.703   4.419   6.964 -2.4215  0.0164  1.2579
  386MOL0     H50946  11.692   4.598   7.112 -1.4265 -1.5703  0.9255
  386MOL0     H50947  11.859   4.568   7.070  0.0641  0.4693 -0.1015
  386MOL0     H50948  11.776   4.449   7.326  2.0898  0.3173  0.1051
  386MOL0     H50949  11.939   4.497   7.265  0.9926  2.9532 -1.2094
  386MOL0     H50950  11.838   4.862   7.403 -2.1905  0.7377 -2.4384
  386MOL0     H50951  11.285   4.558   7.088  2.4923 -0.2872  0.4029
  386MOL0     H50952  11.114   4.499   6.939  1.9660  3.1075  1.4196
  387MOL0     O50953   2.582   6.603  10.130 -0.1753  0.2232  0.0522
  387MOL0     C50954   2.653   6.508  10.170 -1.0348 -0.6769 -0.5436
  387MOL0     O50955   2.607   6.399  10.228  0.1731  0.1088 -0.3559
  387MOL0     C50956   2.473   6.407  10.270 -0.8281  0.8195  0.4712
  387MOL0     C50957   2.397   6.297  10.244 -0.4316  0.4203 -0.3914
  387MOL0     C50958   2.263   6.289  10.290 -0.8120 -0.2505  0.2503
  387MOL0     C50959   2.204   6.393  10.357  0.2904  1.2895 -0.5592
  387MOL0     O50960   2.072   6.380  10.394 -0.8777 -0.0725  0.1511
  387MOL0     C50961   1.983   6.342  10.296 -0.5408  0.7051 -0.2895
  387MOL0     C50962   1.991   6.434  10.170  1.0283 -0.2934 -0.1085
  387MOL0     C50963   1.957   6.581  10.218  0.4044  0.0622 -0.1629
  387MOL0     C50964   1.937   6.681  10.108 -0.2313  0.2396  0.4729
  387MOL0     C50965   2.067   6.727  10.035  0.5960  0.5406 -0.0648
  387MOL0     C50966   2.171   6.790  10.127  0.5480 -0.2491  0.7054
  387MOL0     C50967   2.259   6.888  10.053  0.1581  0.5198  0.3634
  387MOL0     C50968   2.349   6.833   9.940  0.3539  0.1337 -0.3381
  387MOL0     N50969   2.455   6.927   9.904 -1.0269 -1.2303 -0.0429
  387MOL0     C50970   2.568   6.949   9.981 -0.5712 -0.1031 -0.3680
  387MOL0     C50971   2.651   7.016   9.902 -0.9081  0.4726  0.7149
  387MOL0     C50972   2.798   7.045   9.948  0.3878  0.3676 -0.3314
  387MOL0     C50973   2.875   7.118   9.828 -0.2165  0.1354  0.6340
  387MOL0     C50974   3.010   7.165   9.879 -0.0381 -0.1693  1.3306
  387MOL0     C50975   3.111   7.057   9.906 -0.4885 -0.8060  0.3467
  387MOL0     O50976   3.188   7.013   9.789 -0.8762 -0.9134 -0.9088
  387MOL0     C50977   3.316   6.954   9.820  0.6956  0.5507  0.3609
  387MOL0     C50978   3.362   6.908   9.945  1.1927  0.0534  0.5091
  387MOL0     C50979   3.494   6.880   9.954  0.1004 -0.0190 -1.0221
  387MOL0     C50980   3.585   6.882   9.839 -0.1737  0.3626 -0.5300
  387MOL0     C50981   3.731   6.844   9.853  0.1859  0.2769  0.3197
  387MOL0     O50982   3.815   6.828   9.745 -0.0520 -0.0571  0.8947
  387MOL0     C50983   3.946   6.787   9.781  0.3475  0.7504 -0.5046
  387MOL0     C50984   3.990   6.655   9.762 -0.6797 -0.5690  1.0041
  387MOL0     C50985   4.127   6.627   9.776  0.2269 -0.3571  1.2954
  387MOL0     C50986   4.219   6.716   9.829 -0.3604 -0.1598 -0.3258
  387MOL0     O50987   4.351   6.680   9.838 -0.5423 -0.5740  0.6430
  387MOL0     C50988   4.388   6.544   9.851 -0.3577  0.1066  0.2580
  387MOL0     C50989   4.432   6.476   9.724  1.0914 -1.3074  0.9832
  387MOL0     C50990   4.538   6.549   9.652 -0.0341  0.0321 -0.7565
  387MOL0     C50991   4.657   6.601   9.725 -0.6055 -0.2590 -0.0981
  387MOL0     C50992   4.728   6.490   9.814 -1.1322  1.1013 -0.8185
  387MOL0     C50993   4.802   6.378   9.745 -1.0168 -0.4889  0.3350
  387MOL0     C50994   4.907   6.426   9.640 -0.5591  0.2038  0.1446
  387MOL0     C50995   4.962   6.306   9.562 -0.1848  0.2089  0.2529
  387MOL0    Cl50996   5.002   6.365   9.406  0.1203 -0.3045 -0.0422
  387MOL0     C50997   4.169   6.845   9.855  0.1742 -0.4938 -0.3387
  387MOL0     C50998   4.030   6.875   9.838 -0.1607 -0.4799 -0.0813
  387MOL0     O50999   3.765   6.818   9.965  0.6664  0.7998 -0.8146
  387MOL0     C51000   3.533   6.930   9.722  0.3349  0.0102  0.7425
  387MOL0     C51001   3.397   6.948   9.705 -0.5353  0.9043 -0.2226
  387MOL0     N51002   2.581   7.049   9.782  0.3113  0.7125  0.3858
  387MOL0     N51003   2.462   7.008   9.797  0.2440  0.3444 -0.4438
  387MOL0     C51004   2.281   6.495  10.397 -0.0455 -0.1384 -0.0176
  387MOL0     C51005   2.417   6.497  10.360 -0.2286 -1.7197  0.6562
  387MOL0     C51006   2.796   6.513  10.126 -0.3120 -0.7271  0.5707
  387MOL0     C51007   2.849   6.636  10.070 -0.2178 -0.0879 -0.0628
  387MOL0     C51008   2.983   6.639  10.024 -0.7259  0.5132  0.2119
  387MOL0     C51009   3.069   6.532  10.043  0.2994 -0.4170 -0.0603
  387MOL0     O51010   3.186   6.549   9.987 -0.6683  0.5249 -0.0085
  387MOL0     C51011   3.299   6.456  10.007 -1.3767 -0.0964 -0.8005
  387MOL0     C51012   3.415   6.532   9.930  0.2126 -0.3568  0.1005
  387MOL0     C51013   3.538   6.456   9.959  0.1813  0.2933  0.1726
  387MOL0     C51014   3.661   6.484   9.876 -0.9094  0.0834  0.3303
  387MOL0     C51015   3.786   6.407   9.906  0.6189 -0.3024  0.4959
  387MOL0     C51016   3.877   6.326   9.906 -1.0083 -0.1503 -0.4663
  387MOL0     C51017   3.020   6.416  10.100 -0.4039  0.0135  0.2634
  387MOL0     C51018   2.882   6.406  10.136 -0.2934 -0.1276 -0.2596
  387MOL0     H51019   2.441   6.207  10.202 -0.9390  0.4523 -1.0071
  387MOL0     H51020   2.208   6.199  10.264 -0.1984 -0.3961 -0.5855
  387MOL0     H51021   1.880   6.353  10.333 -0.8183 -1.3816 -0.3151
  387MOL0     H51022   1.995   6.239  10.260 -1.4029  0.8247 -0.9483
  387MOL0     H51023   1.918   6.416  10.091 -0.1721 -0.2785  0.9638
  387MOL0     H51024   2.086   6.439  10.117 -1.1141 -1.1633 -4.4859
  387MOL0     H51025   2.038   6.618  10.281  1.4846  1.4068 -2.2192
  387MOL0     H51026   1.867   6.577  10.280  0.5435  2.7713  0.3084
  387MOL0     H51027   1.858   6.638  10.045  0.8093  0.3218 -0.9183
  387MOL0     H51028   1.895   6.770  10.156  0.0471  1.7517 -1.9423
  387MOL0     H51029   2.040   6.801   9.959 -1.9397  1.2307  1.3749
  387MOL0     H51030   2.110   6.634   9.996 -3.6888 -2.6759  2.1015
  387MOL0     H51031   2.232   6.716  10.181  0.7692  0.8442  2.0076
  387MOL0     H51032   2.122   6.837  10.213  1.7144 -1.4291  2.0691
  387MOL0     H51033   2.205   6.975  10.014  0.1828 -0.9737 -3.5011
  387MOL0     H51034   2.320   6.940  10.128  1.7575  1.5311 -1.5199
  387MOL0     H51035   2.287   6.801   9.857 -1.5722 -0.8712  1.3969
  387MOL0     H51036   2.390   6.741   9.981 -0.2492 -0.6476 -1.4495
  387MOL0     H51037   2.592   6.916  10.082  1.7218  2.0326 -0.1310
  387MOL0     H51038   2.822   6.941   9.971  1.4588  0.3057 -1.5405
  387MOL0     H51039   2.795   7.106  10.038 -0.4577 -1.8056  1.2056
  387MOL0     H51040   2.826   7.212   9.802  0.9437 -0.2334 -3.5389
  387MOL0     H51041   2.885   7.062   9.734  1.5571  1.2076  0.1208
  387MOL0     H51042   3.044   7.230   9.798  0.1153 -0.5707  1.0643
  387MOL0     H51043   2.999   7.239   9.958  0.8147  0.5495  0.7995
  387MOL0     H51044   3.065   6.970   9.955 -0.9953 -0.1563  1.0563
  387MOL0     H51045   3.183   7.094   9.979  0.1906  1.8514 -1.5260
  387MOL0     H51046   3.284   6.890  10.019  0.5093 -0.6044 -0.3440
  387MOL0     H51047   3.536   6.860  10.052  2.8233 -0.8532 -2.2482
  387MOL0     H51048   3.923   6.585   9.712 -1.9595  1.5139 -0.3751
  387MOL0     H51049   4.158   6.533   9.731  1.2354  1.0622 -1.1492
  387MOL0     H51050   4.306   6.492   9.902 -0.1253  0.1330  0.6625
  387MOL0     H51051   4.469   6.534   9.923 -1.4809 -1.3394  1.3921
  387MOL0     H51052   4.350   6.454   9.656 -0.1712  1.3721  1.5043
  387MOL0     H51053   4.476   6.380   9.753  1.9272 -1.1336  0.3359
  387MOL0     H51054   4.496   6.630   9.591 -0.3158 -1.1134 -2.1384
  387MOL0     H51055   4.569   6.478   9.575 -1.8415 -0.8450 -0.7128
  387MOL0     H51056   4.726   6.650   9.656  0.4982  0.7811  1.6581
  387MOL0     H51057   4.621   6.678   9.794 -2.9497 -0.8955 -0.5287
  387MOL0     H51058   4.660   6.431   9.875  2.7397 -2.6432  0.3342
  387MOL0     H51059   4.800   6.545   9.875 -0.2931  0.4725 -1.2270
  387MOL0     H51060   4.729   6.310   9.700 -1.6247 -0.0206  0.5846
  387MOL0     H51061   4.862   6.329   9.821  1.4396  1.3709 -0.2886
  387MOL0     H51062   4.858   6.489   9.566 -2.7995 -1.9185 -0.2928
  387MOL0     H51063   4.984   6.476   9.701 -3.1663  2.1147  2.1146
  387MOL0     H51064   4.888   6.227   9.543  1.2487 -0.2404 -4.7677
  387MOL0     H51065   5.039   6.256   9.621 -1.1113 -0.1735  1.1843
  387MOL0     H51066   4.242   6.918   9.890  0.2928  0.0249 -1.6071
  387MOL0     H51067   4.000   6.977   9.857  2.9938  0.9451 -2.0017
  387MOL0     H51068   3.579   6.963   9.629 -0.6520  1.7277  0.8197
  387MOL0     H51069   3.363   6.975   9.606  2.5985  1.6832 -1.2102
  387MOL0     H51070   2.236   6.570  10.461 -0.7816 -1.2583  0.8087
  387MOL0     H51071   2.483   6.577  10.394  0.2900 -0.6459 -2.5587
  387MOL0     H51072   2.780   6.719  10.062  2.0028  1.6922 -2.7494
  387MOL0     H51073   3.011   6.733   9.978 -2.8741 -0.6280 -3.9334
  387MOL0     H51074   3.282   6.360   9.957 -1.2026 -0.7222  0.2980
  387MOL0     H51075   3.324   6.438  10.112 -1.2530 -0.5397 -0.9033
  387MOL0     H51076   3.399   6.520   9.823 -1.5349  0.9635  0.1809
  387MOL0     H51077   3.426   6.638   9.953  1.1974  0.1439 -2.4226
  387MOL0     H51078   3.513   6.350   9.944 -0.7581  0.1301  2.4474
  387MOL0     H51079   3.566   6.481  10.062  1.1563 -1.1036  0.2813
  387MOL0     H51080   3.642   6.466   9.770 -3.0709 -1.6716  0.9551
  387MOL0     H51081   3.697   6.582   9.910  0.9370 -0.3257 -0.3062
  387MOL0     H51082   3.959   6.258   9.899 -0.2476  0.3242  2.5491
  387MOL0     H51083   3.073   6.322  10.109 -1.0027 -0.2931  0.5893
  387MOL0     H51084   2.846   6.320  10.191  0.6925  0.9619  2.2215
  388MOL0     O51085  11.261  10.077   3.503  0.3273  0.5089  0.2168
  388MOL0     C51086  11.243  10.018   3.394 -0.6893 -0.1070 -0.2311
  388MOL0     O51087  11.131  10.017   3.325 -0.5238  0.6733  0.0697
  388MOL0     C51088  11.014  10.057   3.386  0.7203  0.6267 -0.0223
  388MOL0     C51089  11.004  10.174   3.474  0.0756  0.5400  0.0406
  388MOL0     C51090  10.879  10.215   3.517 -0.9443 -0.2014  0.1984
  388MOL0     C51091  10.767  10.141   3.485 -0.4827 -0.2700  0.2633
  388MOL0     O51092  10.636  10.165   3.512 -0.0208  0.2723  0.7549
  388MOL0     C51093  10.587  10.296   3.552 -0.3811  0.7053  0.9460
  388MOL0     C51094  10.436  10.313   3.521  0.6031  0.3134 -0.8182
  388MOL0     C51095  10.403  10.324   3.376  0.8115 -0.3327  1.0317
  388MOL0     C51096  10.463  10.441   3.300  0.9484  0.4653 -0.1444
  388MOL0     C51097  10.478  10.576   3.380 -0.5016  0.0749 -0.7794
  388MOL0     C51098  10.335  10.648   3.402  0.3814  0.8051 -0.1753
  388MOL0     C51099  10.355  10.796   3.446 -0.2465 -0.2656 -1.1754
  388MOL0     C51100  10.228  10.839   3.513 -0.0885 -0.5762  0.0080
  388MOL0     N51101  10.233  10.979   3.552 -0.3854 -0.8619 -0.2331
  388MOL0     C51102  10.251  11.088   3.470 -0.1421  0.2085 -1.0698
  388MOL0     C51103  10.199  11.192   3.534  0.4383  0.0427 -0.0317
  388MOL0     C51104  10.182  11.333   3.486 -0.5376 -0.7448 -0.2988
  388MOL0     C51105  10.278  11.425   3.567 -0.0325  0.2588 -0.1112
  388MOL0     C51106  10.287  11.573   3.513  0.1363 -0.6484  0.6333
  388MOL0     C51107  10.150  11.645   3.501 -0.4408  0.8121  0.1297
  388MOL0     O51108  10.072  11.594   3.387  0.1893 -0.8205  0.5086
  388MOL0     C51109   9.935  11.593   3.375 -0.5704  0.4046  0.2554
  388MOL0     C51110   9.876  11.507   3.278  0.3172 -0.5155  0.2896
  388MOL0     C51111   9.745  11.515   3.241 -0.0970  0.8398 -0.6532
  388MOL0     C51112   9.661  11.599   3.328  0.7753  0.3485  0.5431
  388MOL0     C51113   9.513  11.613   3.287 -0.3783  0.3191  0.1475
  388MOL0     O51114   9.427  11.673   3.377 -0.6509  0.2634 -0.1712
  388MOL0     C51115   9.289  11.702   3.343  0.1603 -0.1972  0.1012
  388MOL0     C51116   9.241  11.831   3.386  0.0379  0.4283  0.6453
  388MOL0     C51117   9.111  11.865   3.348 -0.2932  0.1854 -0.2972
  388MOL0     C51118   9.020  11.776   3.285 -0.9483 -0.1202  0.6079
  388MOL0     O51119   8.897  11.826   3.260 -0.0256 -0.2453 -0.1410
  388MOL0     C51120   8.792  11.738   3.203  0.4880  0.6279  0.6532
  388MOL0     C51121   8.670  11.823   3.174 -0.5797 -0.6312 -0.4618
  388MOL0     C51122   8.596  11.871   3.295 -0.7691 -0.6582 -0.1774
  388MOL0     C51123   8.483  11.965   3.258  0.5536 -0.1628  0.0040
  388MOL0     C51124   8.402  12.038   3.377  0.4576  0.8470 -0.4550
  388MOL0     C51125   8.261  12.084   3.325  0.2479 -0.6653  0.0186
  388MOL0     C51126   8.176  12.158   3.425 -0.2478 -0.1131 -0.0508
  388MOL0     C51127   8.050  12.197   3.353 -1.1234 -0.7570  0.4335
  388MOL0    Cl51128   7.943  12.272   3.474 -0.0376 -0.3971  0.1360
  388MOL0     C51129   9.060  11.644   3.259 -0.5427 -0.1548  0.2996
  388MOL0     C51130   9.194  11.604   3.288 -0.5887 -0.1575  0.0789
  388MOL0     O51131   9.480  11.570   3.173 -0.6526 -0.6993  0.5601
  388MOL0     C51132   9.717  11.679   3.426 -0.1468 -1.2794 -0.2354
  388MOL0     C51133   9.850  11.674   3.451 -0.0331  0.2627 -0.6068
  388MOL0     N51134  10.161  11.151   3.657 -0.6974 -0.0478  0.1728
  388MOL0     N51135  10.178  11.015   3.667 -0.4499 -1.0909 -0.2566
  388MOL0     C51136  10.780  10.022   3.413  0.6242  0.0643 -0.6746
  388MOL0     C51137  10.906   9.983   3.365 -0.0303 -0.4576 -0.6300
  388MOL0     C51138  11.358   9.952   3.318 -1.4038 -0.6378 -0.2149
  388MOL0     C51139  11.495   9.986   3.334  0.7685 -0.8253 -0.4208
  388MOL0     C51140  11.592   9.928   3.253  0.3647 -1.4230  0.0930
  388MOL0     C51141  11.559   9.819   3.172 -1.1510 -0.8390 -0.2613
  388MOL0     O51142  11.663   9.765   3.090  0.4520  0.1464  0.5234
  388MOL0     C51143  11.782   9.729   3.154 -0.2474  0.1803  0.3880
  388MOL0     C51144  11.868   9.641   3.071  0.4512  0.4093  0.6063
  388MOL0     C51145  12.000   9.605   3.148  0.1175  1.3430  0.9335
  388MOL0     C51146  12.126   9.637   3.061  0.1791  0.4070  0.2685
  388MOL0     C51147  12.229   9.538   3.072 -0.1518  0.9933 -0.3311
  388MOL0     C51148  12.309   9.452   3.110 -0.4044  0.5911 -0.5499
  388MOL0     C51149  11.432   9.779   3.163  0.6645 -0.0918 -0.1225
  388MOL0     C51150  11.331   9.849   3.228  0.3474 -0.0710  0.5765
  388MOL0     H51151  11.091  10.239   3.477 -0.6898  1.5691  0.6236
  388MOL0     H51152  10.862  10.315   3.556 -1.0328 -0.2179  0.2048
  388MOL0     H51153  10.643  10.371   3.495  0.5046 -0.0047  0.8637
  388MOL0     H51154  10.610  10.320   3.657 -2.6924  0.5742  1.5311
  388MOL0     H51155  10.402  10.394   3.586 -1.1288  0.4473 -1.8345
  388MOL0     H51156  10.386  10.226   3.563 -1.5996  2.0177  0.2656
  388MOL0     H51157  10.295  10.339   3.384  1.0665  1.5354  1.2925
  388MOL0     H51158  10.426  10.235   3.315 -1.1669 -0.4326  0.3717
  388MOL0     H51159  10.561  10.402   3.271 -0.2849 -2.2473 -1.0283
  388MOL0     H51160  10.406  10.461   3.209  1.1895 -0.2271 -0.4555
  388MOL0     H51161  10.550  10.637   3.324  2.8661 -2.4206  0.4962
  388MOL0     H51162  10.521  10.562   3.479 -3.7487 -2.1172  0.5021
  388MOL0     H51163  10.287  10.584   3.476 -0.5211 -0.9727 -2.1989
  388MOL0     H51164  10.278  10.644   3.309 -2.9731 -1.4989  1.7879
  388MOL0     H51165  10.440  10.812   3.512  1.6345 -2.5954 -2.8346
  388MOL0     H51166  10.382  10.854   3.357 -0.6328 -0.0773 -1.1728
  388MOL0     H51167  10.206  10.784   3.605  1.1022  0.8344  1.1735
  388MOL0     H51168  10.144  10.817   3.446 -4.3340  2.1665  3.8781
  388MOL0     H51169  10.301  11.093   3.373  0.5302  2.9878 -0.6561
  388MOL0     H51170  10.075  11.348   3.503 -0.3038  0.4970  0.1539
  388MOL0     H51171  10.200  11.344   3.378 -1.0073 -0.2235 -0.3286
  388MOL0     H51172  10.375  11.374   3.575 -0.0971  0.1420 -0.0830
  388MOL0     H51173  10.243  11.432   3.670 -2.5248  1.0699 -0.9326
  388MOL0     H51174  10.342  11.642   3.578  0.4317 -0.4075  0.1308
  388MOL0     H51175  10.331  11.566   3.413  0.4501  1.0122  0.6350
  388MOL0     H51176  10.171  11.752   3.495 -1.0799  1.0100  1.1114
  388MOL0     H51177  10.085  11.636   3.589  0.5036  0.6881  0.8307
  388MOL0     H51178   9.948  11.447   3.223  1.3682  0.9981 -0.0425
  388MOL0     H51179   9.702  11.452   3.164 -1.1794 -1.1740  1.4718
  388MOL0     H51180   9.314  11.903   3.421  3.0412 -0.6552 -2.7549
  388MOL0     H51181   9.076  11.965   3.370  1.1638  0.6502 -0.0008
  388MOL0     H51182   8.769  11.653   3.269  2.1793 -0.7770 -0.4689
  388MOL0     H51183   8.833  11.719   3.104 -0.9493  0.4916  0.0607
  388MOL0     H51184   8.595  11.768   3.116  1.7649 -2.1185 -2.2260
  388MOL0     H51185   8.702  11.911   3.117 -0.2355 -1.5449 -1.7032
  388MOL0     H51186   8.658  11.931   3.362 -0.0598 -1.6375  0.0543
  388MOL0     H51187   8.569  11.791   3.365  2.6438 -2.3914 -0.6059
  388MOL0     H51188   8.525  12.049   3.202 -0.7737  1.4337  1.2788
  388MOL0     H51189   8.409  11.921   3.190 -0.8518  2.3015 -0.1694
  388MOL0     H51190   8.455  12.118   3.429 -1.8630  2.2751 -0.1300
  388MOL0     H51191   8.390  11.956   3.448  2.0677 -0.4050 -1.5484
  388MOL0     H51192   8.211  11.991   3.296  0.1741 -0.9304  0.9810
  388MOL0     H51193   8.270  12.148   3.237 -2.9751  3.1551  2.1468
  388MOL0     H51194   8.158  12.094   3.511  4.2917 -1.9015 -0.1434
  388MOL0     H51195   8.228  12.248   3.459 -0.3134 -0.1271  0.0861
  388MOL0     H51196   8.009  12.117   3.291  0.4299 -0.3928 -1.1599
  388MOL0     H51197   8.071  12.277   3.281 -4.0528  0.7443  1.0887
  388MOL0     H51198   9.003  11.564   3.213  0.1287 -0.7977  0.5597
  388MOL0     H51199   9.216  11.501   3.261  0.8812  0.3179 -0.6477
  388MOL0     H51200   9.646  11.740   3.481 -0.2613 -1.2967 -0.3615
  388MOL0     H51201   9.893  11.713   3.543  0.2532  0.0927 -0.6647
  388MOL0     H51202  10.685   9.974   3.390  0.8708 -0.6445 -0.2716
  388MOL0     H51203  10.928   9.893   3.308 -0.2491 -1.2147  0.4475
  388MOL0     H51204  11.531  10.063   3.402  1.1722 -0.3191 -1.1931
  388MOL0     H51205  11.693   9.967   3.263  0.0260 -0.6923  0.7544
  388MOL0     H51206  11.757   9.671   3.243  4.1208 -2.0525  0.4393
  388MOL0     H51207  11.846   9.814   3.182 -1.5530  1.5149 -0.5566
  388MOL0     H51208  11.808   9.551   3.053 -2.4453  2.4792 -1.1140
  388MOL0     H51209  11.894   9.683   2.974  1.8606 -0.0215  0.7842
  388MOL0     H51210  12.007   9.497   3.162 -0.4069  0.7131 -2.6914
  388MOL0     H51211  11.994   9.651   3.247 -3.7938  3.4916 -0.1278
  388MOL0     H51212  12.110   9.665   2.956  0.5719  1.4864  0.4765
  388MOL0     H51213  12.164   9.724   3.116 -0.0118  0.1505  0.8111
  388MOL0     H51214  12.387   9.382   3.134 -0.3215  0.9431  0.2491
  388MOL0     H51215  11.403   9.699   3.096 -0.7623  0.6397 -0.4149
  388MOL0     H51216  11.226   9.835   3.203  0.9704 -0.7262 -1.8756
  389MOL0     O51217   4.666   5.328   5.644  0.6652  0.8445  0.9109
  389MOL0     C51218   4.711   5.363   5.535 -0.3474  0.5350 -0.4379
  389MOL0     O51219   4.644   5.367   5.416 -0.4475  0.5054 -0.6124
  389MOL0     C51220   4.528   5.297   5.416 -0.0223 -1.3605  0.2467
  389MOL0     C51221   4.512   5.161   5.420  0.2010 -0.7174  0.9759
  389MOL0     C51222   4.383   5.103   5.428 -0.1166 -0.3720  0.8466
  389MOL0     C51223   4.272   5.184   5.453  0.4880  0.3058 -0.6416
  389MOL0     O51224   4.151   5.112   5.468 -0.8623 -0.0771  0.0380
  389MOL0     C51225   4.042   5.190   5.510  0.6925  0.2807 -0.1058
  389MOL0     C51226   3.911   5.109   5.535 -0.0126 -0.2401 -0.1339
  389MOL0     C51227   3.809   5.199   5.603 -1.3572 -0.1914  0.3808
  389MOL0     C51228   3.697   5.097   5.628  0.3057  0.3877  0.3550
  389MOL0     C51229   3.556   5.163   5.641 -0.0896 -0.9208 -0.2302
  389MOL0     C51230   3.491   5.139   5.504 -0.1237 -0.0506  0.0764
  389MOL0     C51231   3.347   5.177   5.507  0.2130  0.2107 -0.8525
  389MOL0     C51232   3.268   5.156   5.379  0.0511  0.5113  1.4307
  389MOL0     N51233   3.127   5.196   5.401 -0.3179 -0.7456 -0.5517
  389MOL0     C51234   3.038   5.094   5.433  0.6037 -0.1248 -0.2084
  389MOL0     C51235   2.928   5.161   5.482  1.0092 -0.9202  0.1846
  389MOL0     C51236   2.806   5.113   5.557  0.7142 -0.3022  0.0511
  389MOL0     C51237   2.692   5.113   5.465 -0.2092 -0.5497  0.0812
  389MOL0     C51238   2.557   5.065   5.531  0.1719  0.4195  0.1705
  389MOL0     C51239   2.433   5.056   5.445  0.4979 -0.6073 -0.3651
  389MOL0     O51240   2.396   5.176   5.367 -0.4742  0.1075  0.6399
  389MOL0     C51241   2.262   5.196   5.353 -0.5513 -0.3678  0.1126
  389MOL0     C51242   2.222   5.328   5.335  0.0971 -0.2524 -0.1507
  389MOL0     C51243   2.084   5.353   5.316 -0.4521  0.1001 -0.3741
  389MOL0     C51244   1.990   5.245   5.313 -0.0004 -0.0273  1.1032
  389MOL0     C51245   1.848   5.271   5.303  0.3060  0.3205  1.1511
  389MOL0     O51246   1.781   5.177   5.226  0.2046  0.6476 -0.1139
  389MOL0     C51247   1.647   5.195   5.202  0.6772  1.0987 -0.6171
  389MOL0     C51248   1.601   5.236   5.080  0.7098  0.6228 -0.1609
  389MOL0     C51249   1.461   5.266   5.061 -0.5709  0.2741  0.0979
  389MOL0     C51250   1.365   5.233   5.154  0.6582  0.2891 -0.3338
  389MOL0     O51251   1.231   5.256   5.125 -0.6292 -0.0924  0.1446
  389MOL0     C51252   1.179   5.263   4.993 -0.1607  0.7278 -0.3864
  389MOL0     C51253   1.024   5.249   4.977 -0.1884 -0.1543  0.2217
  389MOL0     C51254   0.973   5.115   5.035 -0.0623 -0.3830  0.2215
  389MOL0     C51255   0.818   5.085   5.024  0.1519  0.2203  0.4167
  389MOL0     C51256   0.788   4.947   5.089 -0.1872 -0.9643  0.0485
  389MOL0     C51257   0.642   4.918   5.113 -0.7108 -0.7491 -0.3538
  389MOL0     C51258   0.546   4.935   4.992 -0.5154 -0.2685  0.2341
  389MOL0     C51259   0.410   4.897   5.039  0.6880  0.2108  0.5153
  389MOL0    Cl51260   0.346   5.011   5.159  0.2354  0.1847  0.3768
  389MOL0     C51261   1.414   5.181   5.278  0.0561  0.3076 -0.2250
  389MOL0     C51262   1.553   5.165   5.297 -0.3686 -0.1529 -0.1233
  389MOL0     O51263   1.804   5.377   5.349  0.4188 -0.2611  0.7087
  389MOL0     C51264   2.038   5.117   5.324  0.5907  0.3644  0.4486
  389MOL0     C51265   2.174   5.088   5.336 -0.1922  0.1699  0.8614
  389MOL0     N51266   2.961   5.300   5.482 -0.1469 -1.1629  0.2952
  389MOL0     N51267   3.088   5.317   5.440  0.1649  0.7588 -0.9506
  389MOL0     C51268   4.283   5.321   5.439  0.1253 -0.3374 -0.2669
  389MOL0     C51269   4.416   5.379   5.426  1.1585 -0.3585 -1.4002
  389MOL0     C51270   4.843   5.437   5.541  0.3349  0.6444 -0.0746
  389MOL0     C51271   4.909   5.460   5.659  0.2656 -0.0487 -0.4985
  389MOL0     C51272   5.024   5.545   5.668  0.3176  0.0228  0.4566
  389MOL0     C51273   5.090   5.584   5.557 -0.5763  0.5879  0.3050
  389MOL0     O51274   5.204   5.652   5.563  0.2589 -1.0763 -0.0053
  389MOL0     C51275   5.275   5.684   5.447 -0.0441  0.2343  0.1320
  389MOL0     C51276   5.395   5.765   5.480  0.3507  0.1429 -0.1734
  389MOL0     C51277   5.496   5.713   5.584 -0.0981  0.3457  0.1254
  389MOL0     C51278   5.551   5.571   5.553  0.2333  0.1917 -1.0752
  389MOL0     C51279   5.683   5.563   5.625  0.7973  0.2202 -0.3080
  389MOL0     C51280   5.797   5.560   5.671 -0.1348  1.0133 -0.5481
  389MOL0     C51281   5.032   5.537   5.436  0.8929 -0.0917  0.2832
  389MOL0     C51282   4.908   5.470   5.419 -0.1208  0.2072 -0.3004
  389MOL0     H51283   4.610   5.115   5.420  0.0424 -1.1828 -1.5753
  389MOL0     H51284   4.375   4.996   5.439  0.0223 -0.6162 -1.0791
  389MOL0     H51285   4.013   5.253   5.426 -1.7767 -0.8280 -0.1666
  389MOL0     H51286   4.080   5.240   5.600 -0.8795  3.1406 -0.9199
  389MOL0     H51287   3.941   5.027   5.601  1.7189  1.0886  0.8387
  389MOL0     H51288   3.873   5.071   5.440 -0.4501 -1.2030  0.4172
  389MOL0     H51289   3.773   5.273   5.531 -1.9111 -1.1461 -0.3652
  389MOL0     H51290   3.851   5.248   5.691  1.2512 -0.6518 -0.5151
  389MOL0     H51291   3.695   5.023   5.548  0.1463  1.4217 -0.6343
  389MOL0     H51292   3.732   5.048   5.719 -0.3179 -1.1783 -0.2171
  389MOL0     H51293   3.583   5.269   5.651 -0.1763 -0.4807 -3.5647
  389MOL0     H51294   3.490   5.124   5.719 -1.3030  0.7387 -0.3635
  389MOL0     H51295   3.502   5.033   5.477  2.0671 -0.0862  0.9204
  389MOL0     H51296   3.540   5.188   5.420  2.3187 -2.4071 -0.0167
  389MOL0     H51297   3.313   5.125   5.597  0.4658 -1.2134 -1.5575
  389MOL0     H51298   3.335   5.282   5.535 -1.6605  0.0670 -0.9694
  389MOL0     H51299   3.277   5.055   5.339 -1.2941  0.9133  0.0220
  389MOL0     H51300   3.323   5.213   5.304 -0.5557 -0.6644  0.0474
  389MOL0     H51301   3.045   4.986   5.419 -1.0549 -0.8248  3.2040
  389MOL0     H51302   2.793   5.164   5.654 -2.8211  1.2475 -1.0649
  389MOL0     H51303   2.822   5.006   5.565  1.2852 -0.2683 -0.6153
  389MOL0     H51304   2.716   5.045   5.383 -0.4017 -0.7807  0.2185
  389MOL0     H51305   2.685   5.216   5.428  3.0034  0.8445  2.8279
  389MOL0     H51306   2.573   4.962   5.562  1.8952  0.1821 -1.3055
  389MOL0     H51307   2.538   5.116   5.626 -1.4456 -1.1425  0.7280
  389MOL0     H51308   2.346   5.021   5.500 -0.7520 -0.8561 -2.3809
  389MOL0     H51309   2.452   4.980   5.368  0.2597  1.3400 -2.4726
  389MOL0     H51310   2.298   5.406   5.343 -0.4498  0.4603 -1.5892
  389MOL0     H51311   2.058   5.458   5.309 -2.5452 -0.4172 -1.0811
  389MOL0     H51312   1.663   5.276   5.000 -1.5131  0.7957 -1.9199
  389MOL0     H51313   1.433   5.303   4.963 -0.7782 -2.1213 -0.8087
  389MOL0     H51314   1.231   5.188   4.934  0.1840 -0.5724  1.4900
  389MOL0     H51315   1.201   5.366   4.961  2.4793  0.9483  1.7566
  389MOL0     H51316   1.013   5.257   4.868 -2.5348  0.9706  0.4837
  389MOL0     H51317   0.987   5.334   5.034 -0.1631  0.6614 -0.9463
  389MOL0     H51318   0.986   5.107   5.144  0.0813 -1.6560  0.1358
  389MOL0     H51319   1.035   5.035   4.993  1.6904  0.8201  0.3843
  389MOL0     H51320   0.757   5.161   5.074 -0.5204 -1.7419  2.7417
  389MOL0     H51321   0.791   5.093   4.918 -0.9075  1.1713  0.7393
  389MOL0     H51322   0.838   4.945   5.186  0.6450  0.8221 -0.3068
  389MOL0     H51323   0.835   4.871   5.026  2.7335  0.6774  0.1128
  389MOL0     H51324   0.626   4.989   5.195 -0.6860 -4.2313  2.9708
  389MOL0     H51325   0.637   4.817   5.154  0.2842  0.8411  4.4342
  389MOL0     H51326   0.539   5.043   4.971 -0.1177  0.4306  3.2765
  389MOL0     H51327   0.583   4.874   4.909  0.7727 -2.2382  2.1677
  389MOL0     H51328   0.412   4.795   5.081  1.4798 -0.4361 -1.0078
  389MOL0     H51329   0.336   4.893   4.959 -0.8608 -1.1336  1.9467
  389MOL0     H51330   1.342   5.158   5.356 -2.3889  0.2774 -2.3693
  389MOL0     H51331   1.572   5.134   5.399 -0.3144 -1.3730 -0.4794
  389MOL0     H51332   1.969   5.033   5.329  2.2088 -1.0629 -0.3811
  389MOL0     H51333   2.203   4.984   5.338 -1.6392 -0.2823 -0.2241
  389MOL0     H51334   4.196   5.386   5.430  0.2374  0.3319  2.3891
  389MOL0     H51335   4.420   5.487   5.419 -0.8107 -0.0097  1.3760
  389MOL0     H51336   4.876   5.430   5.758  0.6908  1.6967  0.2157
  389MOL0     H51337   5.060   5.581   5.763  1.9200 -1.3678  0.4341
  389MOL0     H51338   5.216   5.735   5.371 -0.1338 -0.0113  0.0355
  389MOL0     H51339   5.302   5.586   5.407  0.2952 -0.0911  1.1218
  389MOL0     H51340   5.456   5.769   5.389  1.3164 -0.0273  0.4502
  389MOL0     H51341   5.355   5.863   5.509 -2.1391 -0.3616 -1.6687
  389MOL0     H51342   5.453   5.702   5.684  1.9329 -3.0703  0.7568
  389MOL0     H51343   5.576   5.787   5.595 -1.5020  1.6478  2.6083
  389MOL0     H51344   5.490   5.493   5.601  1.8164  0.5944  1.7812
  389MOL0     H51345   5.564   5.564   5.445  1.3346  0.7933 -0.9854
  389MOL0     H51346   5.891   5.593   5.710 -0.8410  1.3970  0.9002
  389MOL0     H51347   5.060   5.574   5.338 -5.7894  1.3885 -1.5056
  389MOL0     H51348   4.857   5.461   5.323  1.1302 -1.3394 -0.8762
  390MOL0     O51349   9.422   7.952   4.168  0.3528 -0.2284 -0.3483
  390MOL0     C51350   9.468   8.005   4.265  0.0177 -0.0541 -0.3596
  390MOL0     O51351   9.400   8.063   4.364 -0.0513  0.4431  0.3994
  390MOL0     C51352   9.265   8.043   4.386  0.1227 -0.3833  0.1026
  390MOL0     C51353   9.205   8.138   4.465  0.4841  0.4054 -0.0794
  390MOL0     C51354   9.077   8.100   4.513  0.4443 -0.8221 -0.9010
  390MOL0     C51355   9.003   7.984   4.488  0.4788  0.0136 -0.1973
  390MOL0     O51356   8.886   7.962   4.560 -0.7977  0.2571 -0.4555
  390MOL0     C51357   8.781   7.887   4.502  0.2249  0.3841 -0.1850
  390MOL0     C51358   8.651   7.873   4.589  0.3352  0.4765 -0.5565
  390MOL0     C51359   8.677   7.808   4.726 -0.4637 -0.9068  0.0981
  390MOL0     C51360   8.553   7.735   4.758  0.4114 -0.1430 -0.8154
  390MOL0     C51361   8.563   7.688   4.906 -0.1279 -0.5766 -0.0186
  390MOL0     C51362   8.665   7.583   4.920 -0.4057  0.9545 -0.2649
  390MOL0     C51363   8.643   7.478   5.033  0.1666  0.3841  0.2874
  390MOL0     C51364   8.646   7.549   5.176 -0.1262 -0.0157 -0.0157
  390MOL0     N51365   8.627   7.456   5.287 -0.6493 -1.0941  0.2799
  390MOL0     C51366   8.505   7.406   5.330 -0.7016  0.4697 -0.7049
  390MOL0     C51367   8.536   7.309   5.427  0.1724 -0.0430  0.0849
  390MOL0     C51368   8.451   7.211   5.505 -0.6553 -0.5199  0.6743
  390MOL0     C51369   8.322   7.274   5.562 -0.8926 -0.1491 -0.7758
  390MOL0     C51370   8.221   7.163   5.612  0.2711  0.7352  0.8962
  390MOL0     C51371   8.088   7.212   5.659  0.4693  0.5588 -0.5183
  390MOL0     O51372   8.002   7.107   5.680  0.0753  0.1907  0.0540
  390MOL0     C51373   7.867   7.133   5.703 -0.1295  0.4550  0.2252
  390MOL0     C51374   7.790   7.019   5.706  0.4978 -0.8802 -0.4374
  390MOL0     C51375   7.661   7.020   5.760  1.4459 -0.8968  0.0557
  390MOL0     C51376   7.595   7.148   5.772  0.3920  0.3655  0.6794
  390MOL0     C51377   7.454   7.156   5.820 -0.2589 -0.6964  0.1503
  390MOL0     O51378   7.403   7.046   5.863  0.1770  0.7317 -0.2827
  390MOL0     C51379   7.266   7.048   5.889 -0.0848 -0.3826  0.1701
  390MOL0     C51380   7.177   6.973   5.817  0.4691 -0.1847 -0.1449
  390MOL0     C51381   7.036   6.965   5.853 -0.8108 -0.2029  0.5175
  390MOL0     C51382   6.996   7.038   5.964 -0.8404 -0.1222 -0.8302
  390MOL0     O51383   6.876   7.046   6.015 -0.6992  0.3969  0.1831
  390MOL0     C51384   6.777   7.056   5.913  0.3685 -0.5729  0.2768
  390MOL0     C51385   6.656   7.120   5.981 -0.1650 -0.4415 -1.0811
  390MOL0     C51386   6.676   7.274   5.994  0.0074  0.1372 -0.1057
  390MOL0     C51387   6.548   7.352   6.044  0.4416 -0.0248 -0.5125
  390MOL0     C51388   6.533   7.341   6.192 -0.1746  0.0346  0.1696
  390MOL0     C51389   6.401   7.400   6.241  0.0049  0.2414  0.0165
  390MOL0     C51390   6.390   7.380   6.398  0.5622 -0.0663 -1.0192
  390MOL0     C51391   6.258   7.429   6.457  0.2075 -0.6895 -0.6155
  390MOL0    Cl51392   6.270   7.608   6.480  0.4828 -0.1483  0.4855
  390MOL0     C51393   7.087   7.129   6.029  0.1829 -0.1662 -0.3903
  390MOL0     C51394   7.218   7.133   5.996 -0.1490 -0.0640  0.4942
  390MOL0     O51395   7.403   7.268   5.811  0.6449 -0.0090  0.2546
  390MOL0     C51396   7.665   7.260   5.732  0.7279 -0.3720 -0.5791
  390MOL0     C51397   7.798   7.260   5.703 -0.5189  0.0606  0.1282
  390MOL0     N51398   8.674   7.307   5.435  0.5170 -0.7117  0.8844
  390MOL0     N51399   8.721   7.399   5.357  0.4010  0.4189  0.1080
  390MOL0     C51400   9.060   7.893   4.395 -0.0818  0.0798 -0.3043
  390MOL0     C51401   9.192   7.930   4.349 -0.3326  0.3852 -0.8517
  390MOL0     C51402   9.609   8.025   4.273  0.2788  0.3991 -1.1250
  390MOL0     C51403   9.673   8.105   4.371  0.3423  0.0897 -0.0970
  390MOL0     C51404   9.809   8.136   4.352 -0.1346  0.4387 -0.4260
  390MOL0     C51405   9.891   8.054   4.269  1.1238 -0.2438  0.7178
  390MOL0     O51406  10.028   8.057   4.273 -0.6755 -0.7173 -0.7829
  390MOL0     C51407  10.099   8.039   4.146 -0.5103  0.6655 -0.2730
  390MOL0     C51408  10.208   7.941   4.188 -0.2757 -0.1085 -0.2427
  390MOL0     C51409  10.307   7.935   4.067  0.0156 -0.1447 -0.1415
  390MOL0     C51410  10.403   7.817   4.055 -0.7464 -0.2193  0.2170
  390MOL0     C51411  10.514   7.831   3.963  0.0373 -0.5965 -0.1302
  390MOL0     C51412  10.616   7.834   3.900  0.0483 -0.1683  1.0719
  390MOL0     C51413   9.828   7.954   4.194 -0.4678  0.5513 -0.7615
  390MOL0     C51414   9.692   7.939   4.196 -0.7158 -0.1322 -0.4319
  390MOL0     H51415   9.269   8.218   4.501  0.8649 -0.2589  0.7778
  390MOL0     H51416   9.032   8.159   4.592  2.7642  0.8977 -0.7738
  390MOL0     H51417   8.833   7.793   4.478  1.6630  0.9983  0.3970
  390MOL0     H51418   8.754   7.926   4.404  1.5457  0.1275 -0.6705
  390MOL0     H51419   8.593   7.798   4.535  1.1885 -0.6806  0.0796
  390MOL0     H51420   8.599   7.969   4.590 -0.5235  0.0170 -0.6169
  390MOL0     H51421   8.706   7.884   4.799  2.9747 -1.3020 -0.6504
  390MOL0     H51422   8.765   7.743   4.726  0.9011  0.8134 -1.1242
  390MOL0     H51423   8.465   7.801   4.761 -0.0675 -0.7367  2.9854
  390MOL0     H51424   8.529   7.651   4.692 -1.3016 -1.2236  1.0590
  390MOL0     H51425   8.466   7.649   4.938  0.1221 -0.4044  0.9582
  390MOL0     H51426   8.583   7.777   4.967  0.2806 -1.0298  0.5142
  390MOL0     H51427   8.761   7.633   4.934  1.6823 -2.2609 -1.9331
  390MOL0     H51428   8.659   7.526   4.827  1.8374 -1.5398  0.9675
  390MOL0     H51429   8.543   7.436   5.019 -1.0537  2.8133  1.2555
  390MOL0     H51430   8.721   7.401   5.023  0.1497  0.5693 -1.6349
  390MOL0     H51431   8.561   7.617   5.184 -1.2885 -1.4199  0.0519
  390MOL0     H51432   8.738   7.607   5.185  1.8742 -2.3945 -2.8769
  390MOL0     H51433   8.407   7.433   5.292 -2.0550 -2.6199  0.2625
  390MOL0     H51434   8.514   7.164   5.582 -2.1425 -2.5906  0.6985
  390MOL0     H51435   8.431   7.130   5.435  0.7700 -0.3917  0.0757
  390MOL0     H51436   8.282   7.352   5.496  0.4659  1.9927  0.7789
  390MOL0     H51437   8.347   7.323   5.657 -1.1138 -3.0102  0.8507
  390MOL0     H51438   8.199   7.096   5.529  3.4987 -1.3431  1.5512
  390MOL0     H51439   8.267   7.092   5.682 -1.7095 -2.2439 -0.5752
  390MOL0     H51440   8.057   7.279   5.578 -1.0582 -2.5359 -2.7184
  390MOL0     H51441   8.086   7.261   5.757 -1.8843 -1.7579  0.6991
  390MOL0     H51442   7.838   6.924   5.685  0.9069 -0.5157 -1.2000
  390MOL0     H51443   7.615   6.924   5.782 -2.3696  0.9619  0.8102
  390MOL0     H51444   7.224   6.923   5.732 -1.8318 -0.0162 -1.6011
  390MOL0     H51445   6.985   6.892   5.791  1.1613 -0.6505 -0.6742
  390MOL0     H51446   6.765   6.964   5.856  1.2605 -0.1618 -0.6113
  390MOL0     H51447   6.819   7.131   5.845  1.9082  1.8063  3.5783
  390MOL0     H51448   6.646   7.078   6.081 -3.3267 -0.6029 -1.3463
  390MOL0     H51449   6.566   7.105   5.920 -0.6029  2.7027 -1.4083
  390MOL0     H51450   6.705   7.305   5.894  1.3507  3.3845  1.1606
  390MOL0     H51451   6.759   7.306   6.058 -1.2885 -0.4972  2.0233
  390MOL0     H51452   6.552   7.454   6.006 -1.3758 -0.6443 -2.6300
  390MOL0     H51453   6.455   7.315   6.000  1.2462 -0.3922 -1.9963
  390MOL0     H51454   6.609   7.395   6.248  0.4962 -1.0003  0.2905
  390MOL0     H51455   6.542   7.238   6.229 -0.4889 -0.5610 -1.3332
  390MOL0     H51456   6.326   7.341   6.188  0.4808 -1.7365  1.4154
  390MOL0     H51457   6.397   7.507   6.218  3.4566  0.6742  0.8818
  390MOL0     H51458   6.398   7.273   6.419 -0.5308 -0.1845 -1.1501
  390MOL0     H51459   6.473   7.433   6.447  1.2419 -0.7832 -1.3792
  390MOL0     H51460   6.241   7.387   6.556  2.7866 -2.6746 -0.8840
  390MOL0     H51461   6.176   7.410   6.387 -0.5875  4.3586 -1.3918
  390MOL0     H51462   7.059   7.190   6.115  3.7340  2.1086 -0.6511
  390MOL0     H51463   7.291   7.191   6.051 -1.1490 -0.9068  2.8403
  390MOL0     H51464   7.613   7.355   5.725  2.9847  0.8173 -5.6341
  390MOL0     H51465   7.849   7.356   5.698  0.7484 -0.4815  1.5841
  390MOL0     H51466   9.010   7.809   4.349  0.7281 -1.3821  1.3694
  390MOL0     H51467   9.234   7.851   4.287  3.1178  1.2252  0.1648
  390MOL0     H51468   9.627   8.166   4.448  1.2081 -0.6963  1.0777
  390MOL0     H51469   9.846   8.215   4.417 -4.8649  0.5310  2.6794
  390MOL0     H51470  10.158   8.128   4.122  1.4740 -0.8900 -1.4978
  390MOL0     H51471  10.060   8.011   4.048 -0.0809  0.2641 -0.3328
  390MOL0     H51472  10.258   7.972   4.280  0.3555 -3.1326  0.5305
  390MOL0     H51473  10.155   7.846   4.194 -2.0138  0.4976 -3.5898
  390MOL0     H51474  10.373   8.021   4.083  1.0112  0.3895 -5.3755
  390MOL0     H51475  10.254   7.950   3.973  0.5407 -0.6307 -0.5279
  390MOL0     H51476  10.445   7.799   4.154 -1.3090 -2.8383  0.0556
  390MOL0     H51477  10.354   7.726   4.020 -0.4903 -0.3494  0.1995
  390MOL0     H51478  10.706   7.846   3.842 -1.2372 -3.3303 -1.9577
  390MOL0     H51479   9.893   7.892   4.133  0.3230  0.1460  0.4419
  390MOL0     H51480   9.647   7.868   4.127 -1.8781 -1.8413  1.9287
  391MOL0     O51481   3.509   6.721   9.436  0.1833 -0.1212 -0.0188
  391MOL0     C51482   3.520   6.615   9.508 -0.1935 -0.5971  0.1520
  391MOL0     O51483   3.416   6.546   9.571  0.5357 -0.1915 -0.4135
  391MOL0     C51484   3.284   6.594   9.569  0.3187 -0.2610 -0.2510
  391MOL0     C51485   3.194   6.497   9.626 -0.4950 -0.5635  0.0134
  391MOL0     C51486   3.064   6.532   9.655  0.4599 -0.5470 -0.8489
  391MOL0     C51487   3.009   6.650   9.604  0.3628  0.0998  0.1374
  391MOL0     O51488   2.879   6.689   9.622 -0.2775 -0.3375  0.3100
  391MOL0     C51489   2.804   6.603   9.707  0.1724 -0.0509  0.2074
  391MOL0     C51490   2.661   6.666   9.717 -0.0692  0.1404 -0.0361
  391MOL0     C51491   2.569   6.636   9.596  0.5286 -0.2035 -0.1228
  391MOL0     C51492   2.513   6.768   9.522 -0.2277 -0.0255  1.0210
  391MOL0     C51493   2.414   6.731   9.414  0.1850  0.4594 -1.1841
  391MOL0     C51494   2.276   6.683   9.445  0.4880  0.0074  0.0301
  391MOL0     C51495   2.170   6.718   9.338  0.3644 -0.1657  0.7467
  391MOL0     C51496   2.182   6.627   9.219  0.0924 -0.2228  0.5534
  391MOL0     N51497   2.182   6.482   9.240  0.6123 -0.7194 -1.0635
  391MOL0     C51498   2.294   6.405   9.254 -0.0157 -0.1203  0.3707
  391MOL0     C51499   2.243   6.280   9.230 -0.3725  0.6856  0.0914
  391MOL0     C51500   2.328   6.154   9.211  0.3196  0.0244 -0.0708
  391MOL0     C51501   2.452   6.179   9.123 -0.2621  0.2191  0.3325
  391MOL0     C51502   2.512   6.046   9.081 -0.9123 -0.6596  0.3802
  391MOL0     C51503   2.642   6.060   9.007 -0.3092 -0.2316  0.0416
  391MOL0     O51504   2.703   5.937   8.974 -0.4387 -0.5765 -0.5620
  391MOL0     C51505   2.798   5.900   9.071 -0.3872 -0.2905 -1.0717
  391MOL0     C51506   2.768   5.840   9.198 -0.4016 -0.7462  0.2395
  391MOL0     C51507   2.873   5.809   9.291  0.1064  0.2211 -0.6303
  391MOL0     C51508   3.007   5.824   9.249  0.1391 -0.3751 -0.2368
  391MOL0     C51509   3.116   5.779   9.339  0.9928 -0.3365  0.3493
  391MOL0     O51510   3.077   5.725   9.451 -0.0022 -0.3441 -1.1756
  391MOL0     C51511   3.164   5.696   9.553 -0.1245 -0.1879 -0.4422
  391MOL0     C51512   3.152   5.774   9.675 -0.4317 -0.2327 -0.7891
  391MOL0     C51513   3.216   5.742   9.794 -0.2510  0.4240 -0.0390
  391MOL0     C51514   3.306   5.629   9.787  0.2488 -0.0842  0.9413
  391MOL0     O51515   3.383   5.577   9.889 -0.3137  0.2908 -0.3764
  391MOL0     C51516   3.402   5.671   9.995 -0.3592  0.1985  0.5083
  391MOL0     C51517   3.506   5.610  10.086  0.0995  0.1286 -0.9564
  391MOL0     C51518   3.528   5.693  10.214  0.6379  0.6389 -0.0592
  391MOL0     C51519   3.422   5.661  10.321 -0.0635  0.0745  0.6616
  391MOL0     C51520   3.456   5.705  10.465  0.0303 -1.0546  0.4130
  391MOL0     C51521   3.359   5.652  10.572 -1.3174 -0.2855  2.2969
  391MOL0     C51522   3.220   5.705  10.546 -0.1569 -0.6112 -0.4252
  391MOL0     C51523   3.135   5.681  10.674 -0.7729  0.0360  1.3635
  391MOL0    Cl51524   3.179   5.794  10.808 -0.3212 -0.6259  0.6208
  391MOL0     C51525   3.330   5.561   9.666 -0.7510 -0.3255  0.3126
  391MOL0     C51526   3.255   5.594   9.550 -0.2759  0.1738 -0.2680
  391MOL0     O51527   3.237   5.793   9.298  0.4650  0.1041 -0.0839
  391MOL0     C51528   3.035   5.882   9.125 -0.6498  0.5696  0.2960
  391MOL0     C51529   2.939   5.925   9.040  0.3948  0.4856  0.2868
  391MOL0     N51530   2.104   6.279   9.214 -0.2077  0.0570 -1.0050
  391MOL0     N51531   2.069   6.405   9.227 -0.0831 -0.6678  0.9781
  391MOL0     C51532   3.091   6.740   9.543  0.5850 -0.0474 -0.7080
  391MOL0     C51533   3.229   6.721   9.529  0.7241  0.8637  0.1266
  391MOL0     C51534   3.645   6.538   9.486  0.0037 -0.4710 -0.2354
  391MOL0     C51535   3.757   6.587   9.423  0.3647 -0.6873 -0.5647
  391MOL0     C51536   3.876   6.513   9.410 -0.1200 -0.2623 -1.2661
  391MOL0     C51537   3.884   6.388   9.468 -0.3787 -1.1825 -0.3776
  391MOL0     O51538   3.996   6.311   9.467 -0.1582  0.6939 -0.2770
  391MOL0     C51539   4.118   6.347   9.400 -0.3396  0.5739 -0.5599
  391MOL0     C51540   4.242   6.263   9.432  0.5798 -0.7402 -0.0550
  391MOL0     C51541   4.375   6.294   9.355  0.2352 -0.3517 -0.0457
  391MOL0     C51542   4.495   6.206   9.409 -0.3657 -1.1744  1.0214
  391MOL0     C51543   4.617   6.213   9.318 -0.0934  1.1564  0.3906
  391MOL0     C51544   4.724   6.207   9.267 -0.1900 -0.7427  0.6183
  391MOL0     C51545   3.771   6.322   9.524  0.2209 -0.2588  0.4754
  391MOL0     C51546   3.652   6.402   9.527  0.0862  0.3465 -0.4124
  391MOL0     H51547   3.246   6.407   9.657  0.9859  0.7704  1.6374
  391MOL0     H51548   3.017   6.457   9.718  2.2260 -2.0810 -1.2348
  391MOL0     H51549   2.841   6.591   9.809 -2.8019 -0.7441  1.3410
  391MOL0     H51550   2.792   6.504   9.660  2.1787  0.9591 -2.7576
  391MOL0     H51551   2.668   6.774   9.733 -1.7848  0.3134 -0.2506
  391MOL0     H51552   2.610   6.621   9.803  0.0229  0.5570  0.2368
  391MOL0     H51553   2.480   6.579   9.624 -3.0144  4.4184 -0.6290
  391MOL0     H51554   2.627   6.583   9.520 -1.0854 -2.1157 -0.0915
  391MOL0     H51555   2.447   6.830   9.583 -0.0790  3.1255 -1.7452
  391MOL0     H51556   2.581   6.832   9.465 -0.9258 -2.3743 -2.8722
  391MOL0     H51557   2.461   6.651   9.355 -0.8048 -0.8008 -0.3204
  391MOL0     H51558   2.405   6.827   9.361  1.9497  2.5351  1.9694
  391MOL0     H51559   2.252   6.729   9.542  1.5959 -0.8998  0.7717
  391MOL0     H51560   2.268   6.576   9.467 -2.9011  0.1133 -0.1732
  391MOL0     H51561   2.069   6.697   9.372 -1.6150  2.5655 -2.7737
  391MOL0     H51562   2.179   6.821   9.302  1.0531 -1.0834 -1.9424
  391MOL0     H51563   2.269   6.655   9.159 -1.0284  2.3558 -0.0330
  391MOL0     H51564   2.095   6.641   9.154 -0.2456  1.2006  1.2575
  391MOL0     H51565   2.394   6.446   9.261 -0.5899  1.2696  0.7444
  391MOL0     H51566   2.258   6.092   9.152 -0.2177 -0.2297  0.8203
  391MOL0     H51567   2.349   6.110   9.308 -1.4639  0.0932  0.3873
  391MOL0     H51568   2.529   6.239   9.173 -0.5729 -0.0182  1.1072
  391MOL0     H51569   2.421   6.230   9.031  1.0910  0.8509  0.2049
  391MOL0     H51570   2.534   5.992   9.174  2.7975 -0.1740 -0.0567
  391MOL0     H51571   2.449   5.987   9.014  1.5044  0.4779 -3.2369
  391MOL0     H51572   2.704   6.135   9.057 -0.5366  2.2758 -3.1195
  391MOL0     H51573   2.612   6.113   8.916  1.1720 -1.1426 -1.0301
  391MOL0     H51574   2.663   5.829   9.220 -0.8758  1.2267 -0.8173
  391MOL0     H51575   2.838   5.767   9.384  0.1823  1.9962  0.2372
  391MOL0     H51576   3.096   5.866   9.688  0.4181  0.4098 -1.5442
  391MOL0     H51577   3.200   5.791   9.890  2.4439  2.2802 -0.4069
  391MOL0     H51578   3.309   5.688  10.050 -1.5562 -0.4671 -1.1993
  391MOL0     H51579   3.452   5.761   9.957  0.3121  1.1566  3.4393
  391MOL0     H51580   3.599   5.605  10.028  1.5225  0.2357  1.2306
  391MOL0     H51581   3.485   5.509  10.124 -2.2543  1.4364  1.5400
  391MOL0     H51582   3.520   5.800  10.194 -0.5989  0.3058 -1.5549
  391MOL0     H51583   3.630   5.670  10.247  0.3255 -0.1753  0.3532
  391MOL0     H51584   3.334   5.711  10.280  0.2542 -0.1763 -0.3760
  391MOL0     H51585   3.407   5.552  10.325  1.6682 -0.1558  1.9019
  391MOL0     H51586   3.467   5.814  10.474  0.9115 -1.3102  3.7068
  391MOL0     H51587   3.558   5.669  10.480  0.0459 -1.9289 -1.5244
  391MOL0     H51588   3.391   5.689  10.670 -0.0874  2.1910  1.0606
  391MOL0     H51589   3.364   5.543  10.572 -0.4982 -0.5136 -3.3946
  391MOL0     H51590   3.232   5.812  10.525  0.7044 -0.8121 -1.0215
  391MOL0     H51591   3.176   5.661  10.456 -1.3107 -2.0037  0.7675
  391MOL0     H51592   3.138   5.575  10.701 -0.9004 -0.4125 -0.2873
  391MOL0     H51593   3.032   5.697  10.643 -0.8177 -0.4904  1.2262
  391MOL0     H51594   3.410   5.488   9.663 -1.5854 -1.3451  1.3608
  391MOL0     H51595   3.275   5.538   9.459 -1.2971 -1.5123  0.5020
  391MOL0     H51596   3.140   5.895   9.100 -0.5710 -1.4020 -0.6256
  391MOL0     H51597   2.961   5.977   8.948 -0.2916 -1.0688 -0.8028
  391MOL0     H51598   3.047   6.838   9.526 -1.5304 -0.4367  1.9109
  391MOL0     H51599   3.281   6.803   9.481  1.0063 -0.1156 -1.3242
  391MOL0     H51600   3.752   6.688   9.383 -2.9109 -0.8081 -0.7721
  391MOL0     H51601   3.963   6.563   9.369  0.3436 -0.2695 -0.3290
  391MOL0     H51602   4.146   6.451   9.422 -2.2700  1.0502 -0.1451
  391MOL0     H51603   4.099   6.331   9.294 -0.3367  1.7591 -0.7615
  391MOL0     H51604   4.257   6.271   9.540  1.6142  1.3926 -0.3006
  391MOL0     H51605   4.211   6.165   9.395  2.8688 -1.1476 -1.0718
  391MOL0     H51606   4.387   6.403   9.353 -0.6712 -0.2380  0.2931
  391MOL0     H51607   4.367   6.263   9.251 -0.6103 -1.0406  0.2143
  391MOL0     H51608   4.525   6.224   9.512 -1.1808  0.6763  0.9821
  391MOL0     H51609   4.464   6.101   9.406 -0.7806 -1.1377  3.0844
  391MOL0     H51610   4.801   6.197   9.193 -1.4827 -0.2569 -0.8481
  391MOL0     H51611   3.773   6.216   9.547  1.7141 -0.6393 -1.1791
  391MOL0     H51612   3.575   6.345   9.577  0.9446 -1.8018 -1.4158
  392MOL0     O51613  10.120   3.746   2.238  1.0581 -0.1920  0.1974
  392MOL0     C51614  10.204   3.761   2.146 -0.8406 -0.1826  0.5757
  392MOL0     O51615  10.179   3.813   2.021 -0.5655  0.5405 -0.4041
  392MOL0     C51616  10.058   3.870   2.010 -0.4875 -0.0185  0.4793
  392MOL0     C51617  10.042   4.005   2.058  0.0075 -0.3093 -0.0730
  392MOL0     C51618   9.919   4.072   2.058  0.7648  0.0746  0.6557
  392MOL0     C51619   9.808   3.992   2.022  0.3107 -0.3422 -0.1866
  392MOL0     O51620   9.680   4.050   2.021  0.4263  0.4692  0.1485
  392MOL0     C51621   9.659   4.177   2.088 -0.3359  0.3715 -0.6467
  392MOL0     C51622   9.509   4.200   2.099  0.2415  1.2377  0.4504
  392MOL0     C51623   9.471   4.349   2.115  0.1427 -0.0733  0.4192
  392MOL0     C51624   9.305   4.357   2.100 -0.4527  0.2292 -0.2407
  392MOL0     C51625   9.252   4.480   2.171 -0.4161 -0.0836 -0.2451
  392MOL0     C51626   9.094   4.484   2.169 -0.2899  0.2748  0.2568
  392MOL0     C51627   9.029   4.608   2.216  0.4415 -0.7141  0.0480
  392MOL0     C51628   8.880   4.597   2.201 -0.2339 -0.0818  0.1983
  392MOL0     N51629   8.816   4.712   2.249  0.3108 -0.3850 -0.1718
  392MOL0     C51630   8.785   4.830   2.175  0.6176  1.3309  0.6925
  392MOL0     C51631   8.701   4.899   2.253  0.4040 -0.6195 -0.0768
  392MOL0     C51632   8.637   5.037   2.221  0.3127  0.0609  0.4996
  392MOL0     C51633   8.506   5.027   2.145  0.1046 -0.0079 -0.0819
  392MOL0     C51634   8.397   4.944   2.225  1.2508  0.2714  0.2871
  392MOL0     C51635   8.262   4.919   2.157 -0.8492  0.5016 -0.4570
  392MOL0     O51636   8.218   5.042   2.110 -0.0699  0.4047 -0.2542
  392MOL0     C51637   8.088   5.075   2.073  0.0738 -1.2449  0.5075
  392MOL0     C51638   7.983   4.988   2.088 -0.2779  0.3085 -0.4168
  392MOL0     C51639   7.861   5.015   2.026 -0.0534 -0.2241  0.8555
  392MOL0     C51640   7.825   5.139   1.973  0.5614 -0.7920 -1.0206
  392MOL0     C51641   7.697   5.166   1.910  0.1471 -0.9041  0.4950
  392MOL0     O51642   7.634   5.050   1.868 -0.0827 -0.4162  0.3745
  392MOL0     C51643   7.500   5.037   1.834 -0.0537 -0.1948 -0.2385
  392MOL0     C51644   7.427   4.919   1.869  0.0818 -1.0141 -0.8743
  392MOL0     C51645   7.298   4.902   1.812 -0.7204  0.8545 -0.2510
  392MOL0     C51646   7.239   5.001   1.743 -0.7849 -0.1721  0.9811
  392MOL0     O51647   7.106   4.986   1.717 -0.3191  0.3438 -0.0240
  392MOL0     C51648   7.029   5.082   1.780  0.2838  0.5133 -0.8685
  392MOL0     C51649   6.882   5.048   1.778  0.5185  0.4231  0.3160
  392MOL0     C51650   6.803   5.168   1.824 -0.5386 -0.6074 -0.0413
  392MOL0     C51651   6.662   5.119   1.832  0.2404  0.4659 -0.5062
  392MOL0     C51652   6.559   5.214   1.889 -0.4434  0.1585 -0.1817
  392MOL0     C51653   6.415   5.157   1.884 -0.5514  0.7450 -0.0478
  392MOL0     C51654   6.340   5.246   1.985  0.1164 -0.0584  0.3667
  392MOL0     C51655   6.197   5.201   1.994  0.9990  0.5828  1.1752
  392MOL0    Cl51656   6.121   5.160   1.838  0.4662  0.2128 -0.7121
  392MOL0     C51657   7.310   5.112   1.698  0.0283 -0.3653 -0.7001
  392MOL0     C51658   7.442   5.138   1.740 -0.0385  0.2402  0.8580
  392MOL0     O51659   7.653   5.280   1.898 -0.3161  0.3863 -0.5338
  392MOL0     C51660   7.931   5.234   1.980 -0.7038 -1.4439  0.3231
  392MOL0     C51661   8.060   5.200   2.025 -0.9884  0.1539 -0.6371
  392MOL0     N51662   8.682   4.830   2.373 -0.1182  0.4607  0.2254
  392MOL0     N51663   8.750   4.715   2.367  0.0384 -0.2849 -0.1586
  392MOL0     C51664   9.819   3.860   1.979 -0.1711  0.3286  0.5670
  392MOL0     C51665   9.950   3.808   1.960  0.4789  0.6980  0.4491
  392MOL0     C51666  10.338   3.709   2.169  0.9749 -0.6302 -0.2432
  392MOL0     C51667  10.431   3.718   2.066 -0.6300  0.0827  0.3361
  392MOL0     C51668  10.559   3.671   2.085  0.2954  0.4761  0.0490
  392MOL0     C51669  10.606   3.615   2.202  0.8536  0.3019 -0.1518
  392MOL0     O51670  10.736   3.573   2.212  0.1303  0.2490 -0.3463
  392MOL0     C51671  10.806   3.582   2.347 -0.1216 -0.4151 -0.3599
  392MOL0     C51672  10.943   3.532   2.327  0.3108 -0.0191  0.0058
  392MOL0     C51673  11.016   3.591   2.200  0.4550 -0.0092 -0.5214
  392MOL0     C51674  11.164   3.620   2.226  0.7817  0.1960 -0.2519
  392MOL0     C51675  11.209   3.721   2.138  0.7848  0.3691  0.7529
  392MOL0     C51676  11.244   3.807   2.064 -0.3160  0.4793  0.1879
  392MOL0     C51677  10.514   3.616   2.313  0.0044  0.6225  0.2369
  392MOL0     C51678  10.390   3.668   2.291 -0.3090 -0.3400 -0.0678
  392MOL0     H51679  10.132   4.058   2.087  0.1671 -0.1591 -0.8221
  392MOL0     H51680   9.904   4.177   2.082 -1.5698  0.6957 -2.7916
  392MOL0     H51681   9.697   4.246   2.013  0.3819 -0.5635 -1.1621
  392MOL0     H51682   9.716   4.175   2.181  0.8250  2.4535 -1.2522
  392MOL0     H51683   9.480   4.140   2.187  2.0078  1.3224  1.1301
  392MOL0     H51684   9.455   4.155   2.015  2.8472  0.1004 -0.7056
  392MOL0     H51685   9.521   4.413   2.042  0.4521 -0.1456  0.5647
  392MOL0     H51686   9.510   4.390   2.209  0.4976  0.4559  0.0460
  392MOL0     H51687   9.274   4.355   1.995 -0.4414  1.9314 -0.3030
  392MOL0     H51688   9.259   4.267   2.141 -0.3127 -0.7273 -2.0797
  392MOL0     H51689   9.280   4.565   2.108 -0.7594  0.4409  0.2962
  392MOL0     H51690   9.293   4.469   2.272 -0.1377 -3.0865 -0.6016
  392MOL0     H51691   9.062   4.391   2.218  1.0177 -2.5074 -3.6490
  392MOL0     H51692   9.058   4.462   2.068  1.6785  1.6191 -0.8045
  392MOL0     H51693   9.054   4.629   2.320  0.7359  3.2228 -0.6734
  392MOL0     H51694   9.080   4.693   2.169  1.8772 -0.8746  1.2562
  392MOL0     H51695   8.862   4.502   2.252  0.2643 -1.0896 -1.4205
  392MOL0     H51696   8.847   4.601   2.096  1.8131  0.6670 -0.4679
  392MOL0     H51697   8.814   4.852   2.073  0.1991 -0.5199  0.1309
  392MOL0     H51698   8.710   5.089   2.158  1.1387 -1.0059  0.5441
  392MOL0     H51699   8.632   5.101   2.310 -0.4741  2.6813 -1.2997
  392MOL0     H51700   8.524   4.965   2.057  0.2376  0.2868 -0.2651
  392MOL0     H51701   8.462   5.123   2.116  1.5472  1.4591  2.2772
  392MOL0     H51702   8.439   4.845   2.242 -0.0686 -0.5590 -1.0734
  392MOL0     H51703   8.376   4.985   2.324 -1.6302  0.9955 -0.5378
  392MOL0     H51704   8.202   4.877   2.239 -0.5086  0.0658 -0.4275
  392MOL0     H51705   8.274   4.842   2.080  3.7884 -0.5876  1.0544
  392MOL0     H51706   7.991   4.894   2.141 -0.1769  2.0769  2.9593
  392MOL0     H51707   7.784   4.940   2.037  1.7651 -2.1888  0.8393
  392MOL0     H51708   7.479   4.852   1.937  3.1747  0.5729 -1.5050
  392MOL0     H51709   7.241   4.813   1.837  0.2944  0.5121  0.9486
  392MOL0     H51710   7.051   5.181   1.739  3.5241 -0.7096 -2.3956
  392MOL0     H51711   7.058   5.082   1.886  0.7634  0.5464 -1.0005
  392MOL0     H51712   6.874   4.959   1.841  2.9046 -0.8305 -0.9966
  392MOL0     H51713   6.843   5.025   1.679 -0.0777 -4.3446  1.4319
  392MOL0     H51714   6.801   5.252   1.754  1.2612 -0.9454 -0.5459
  392MOL0     H51715   6.835   5.194   1.926 -0.3334 -1.7337  0.1976
  392MOL0     H51716   6.623   5.086   1.736 -0.8042  0.3259 -0.0439
  392MOL0     H51717   6.662   5.037   1.905 -2.8406  1.6790  1.0558
  392MOL0     H51718   6.564   5.306   1.830  1.2148  0.2955  0.1025
  392MOL0     H51719   6.589   5.243   1.990  2.1561 -0.4788 -0.6884
  392MOL0     H51720   6.413   5.054   1.922 -1.6012  0.9840  0.5734
  392MOL0     H51721   6.368   5.149   1.785 -1.8137 -2.1990  0.6763
  392MOL0     H51722   6.378   5.247   2.088  1.9027  1.7169 -0.2266
  392MOL0     H51723   6.340   5.350   1.951 -3.1864 -0.1886 -0.3793
  392MOL0     H51724   6.140   5.283   2.039 -0.3550  0.0470  0.5146
  392MOL0     H51725   6.192   5.114   2.059 -2.4907 -2.6141 -2.8157
  392MOL0     H51726   7.260   5.186   1.635  1.1737 -0.6301 -1.9498
  392MOL0     H51727   7.501   5.215   1.691 -1.1404 -0.6809 -2.1275
  392MOL0     H51728   7.907   5.330   1.936  1.0037  0.6597  3.5662
  392MOL0     H51729   8.146   5.266   2.033 -1.6118  0.8951  0.1159
  392MOL0     H51730   9.726   3.813   1.950 -0.1751  1.8652 -2.2153
  392MOL0     H51731   9.967   3.716   1.904  0.1321  1.1375 -0.3954
  392MOL0     H51732  10.410   3.757   1.967 -2.0998 -1.1433  0.1091
  392MOL0     H51733  10.632   3.690   2.007 -0.0919 -0.2581 -0.4976
  392MOL0     H51734  10.765   3.515   2.424  3.2890 -1.9261  0.3283
  392MOL0     H51735  10.798   3.678   2.398  1.9304 -0.2215 -0.3282
  392MOL0     H51736  10.995   3.567   2.417  0.7549 -2.6504  0.8600
  392MOL0     H51737  10.948   3.423   2.339  2.2555  0.2300  2.1970
  392MOL0     H51738  10.970   3.687   2.177  0.0205 -0.7185 -2.9948
  392MOL0     H51739  10.997   3.517   2.121  1.4398 -0.0800 -0.7057
  392MOL0     H51740  11.175   3.645   2.332 -4.8765 -1.8869  1.1740
  392MOL0     H51741  11.219   3.527   2.242 -0.2902 -0.0404  2.7440
  392MOL0     H51742  11.263   3.887   1.995  0.1577  1.4630  1.4264
  392MOL0     H51743  10.542   3.566   2.406 -1.6879 -3.4387 -1.2052
  392MOL0     H51744  10.321   3.679   2.374 -0.6701 -1.0850 -0.2607
  393MOL0     O51745   1.970  10.000   6.370 -0.2502  0.2133 -0.2609
  393MOL0     C51746   2.062   9.924   6.336 -0.1771  0.2036  0.1956
  393MOL0     O51747   2.050   9.807   6.264  0.1105 -0.2243  0.0202
  393MOL0     C51748   1.926   9.776   6.204  0.1954 -0.2465 -0.7453
  393MOL0     C51749   1.835   9.876   6.157  0.4162  0.4739 -0.2042
  393MOL0     C51750   1.709   9.841   6.113  0.4123 -0.1944 -0.4006
  393MOL0     C51751   1.674   9.705   6.123  0.1625  1.6092  0.0717
  393MOL0     O51752   1.544   9.657   6.090  0.0003 -0.4491  0.2195
  393MOL0     C51753   1.430   9.724   6.147 -0.6044 -0.1928 -0.1454
  393MOL0     C51754   1.358   9.603   6.202  0.5645  0.2650  0.5286
  393MOL0     C51755   1.209   9.635   6.257  0.4947 -0.2694 -0.1674
  393MOL0     C51756   1.153   9.521   6.345 -0.5353  1.1653 -0.1901
  393MOL0     C51757   1.006   9.529   6.372  0.2195  0.1865  0.1977
  393MOL0     C51758   0.944   9.654   6.440  0.1379 -0.2647 -0.0923
  393MOL0     C51759   0.794   9.639   6.466 -0.0341  0.3545 -1.0509
  393MOL0     C51760   0.719   9.764   6.509 -0.5809 -0.0565  0.1674
  393MOL0     N51761   0.736   9.782   6.663  0.1816 -0.1425  1.3402
  393MOL0     C51762   0.673   9.692   6.751 -0.6785 -0.2531  0.4182
  393MOL0     C51763   0.695   9.756   6.869  0.2087  0.8444 -0.3767
  393MOL0     C51764   0.630   9.718   7.000 -0.3972  0.3672  0.1857
  393MOL0     C51765   0.478   9.728   7.014 -0.0001  0.7919 -0.3667
  393MOL0     C51766   0.432   9.651   7.141 -0.9541 -0.4768 -0.0913
  393MOL0     C51767   0.308   9.567   7.107  0.0979  0.1136  0.1997
  393MOL0     O51768   0.184   9.637   7.103 -0.3661 -1.2367 -0.3906
  393MOL0     C51769   0.072   9.565   7.073  0.1177 -0.8853 -0.3976
  393MOL0     C51770  -0.046   9.646   7.073  0.0429  0.0965 -0.7967
  393MOL0     C51771  -0.171   9.595   7.036  0.9323 -0.3049 -1.1553
  393MOL0     C51772  -0.179   9.460   7.011 -0.2228  1.5469  0.1483
  393MOL0     C51773  -0.313   9.392   6.978  0.6687  0.1296  0.9280
  393MOL0     O51774  -0.426   9.467   7.014  0.1050  0.3739 -0.1561
  393MOL0     C51775  -0.550   9.418   6.990  0.0587  0.5719 -0.3141
  393MOL0     C51776  -0.597   9.406   6.863  0.7136  0.4202  0.1411
  393MOL0     C51777  -0.733   9.373   6.840  0.8624 -0.1748 -0.2872
  393MOL0     C51778  -0.814   9.328   6.944  0.2428  0.5198 -1.2364
  393MOL0     O51779  -0.943   9.284   6.930 -0.1200  0.2765 -0.3484
  393MOL0     C51780  -1.012   9.280   6.814  0.6861  0.8287  0.2755
  393MOL0     C51781  -1.153   9.313   6.847 -0.1508 -0.4072 -0.7005
  393MOL0     C51782  -1.192   9.266   6.990  0.2624 -0.1179 -0.2482
  393MOL0     C51783  -1.335   9.321   7.034  0.0803 -0.2199  0.4202
  393MOL0     C51784  -1.360   9.272   7.175 -0.1082 -0.2963 -0.9291
  393MOL0     C51785  -1.489   9.330   7.250  0.7876 -0.2881 -0.4065
  393MOL0     C51786  -1.518   9.278   7.392  0.1401  0.4475 -0.2980
  393MOL0     C51787  -1.412   9.317   7.492  0.2861  0.4806  0.1861
  393MOL0    Cl51788  -1.423   9.490   7.529 -0.2460  0.0495 -0.1691
  393MOL0     C51789  -0.758   9.332   7.081  0.0002 -0.7369 -0.1507
  393MOL0     C51790  -0.629   9.384   7.103 -0.8670  0.0940  0.3311
  393MOL0     O51791  -0.317   9.278   6.928 -0.4856  0.4865  0.7169
  393MOL0     C51792  -0.064   9.379   7.007 -0.4416 -0.1257 -0.5737
  393MOL0     C51793   0.061   9.428   7.044  0.5671  0.2059  1.3147
  393MOL0     N51794   0.764   9.873   6.846 -0.9068  0.5725 -0.7831
  393MOL0     N51795   0.797   9.883   6.725 -0.6867  0.2551 -0.9037
  393MOL0     C51796   1.758   9.607   6.169 -0.1673  0.1815  0.3303
  393MOL0     C51797   1.889   9.643   6.217  1.0625  0.9271  0.0570
  393MOL0     C51798   2.207   9.959   6.365 -0.7480 -0.0847 -0.2938
  393MOL0     C51799   2.293   9.864   6.422 -0.4041 -0.9234 -0.1534
  393MOL0     C51800   2.423   9.904   6.456  0.0250  0.6124 -0.1019
  393MOL0     C51801   2.479  10.026   6.416 -0.5288 -0.0747 -0.0596
  393MOL0     O51802   2.611  10.064   6.447 -0.0762 -0.2572  0.0535
  393MOL0     C51803   2.715   9.968   6.452 -0.1664  0.5897  0.1827
  393MOL0     C51804   2.849  10.036   6.475 -0.2520  0.3860  0.0788
  393MOL0     C51805   2.888  10.118   6.350 -0.3769 -0.0473 -0.6961
  393MOL0     C51806   3.009  10.214   6.377 -0.2572  0.4071 -0.6463
  393MOL0     C51807   3.136  10.141   6.408  0.4312 -0.4861 -0.4647
  393MOL0     C51808   3.232  10.082   6.431 -0.2360  1.0264 -0.1760
  393MOL0     C51809   2.392  10.117   6.361 -0.2087  0.4011  0.1644
  393MOL0     C51810   2.255  10.086   6.329  1.4700 -0.0454 -0.2132
  393MOL0     H51811   1.869   9.979   6.163  1.9187 -0.0098  0.0264
  393MOL0     H51812   1.636   9.916   6.084  0.1480  0.6872  2.3065
  393MOL0     H51813   1.384   9.763   6.056 -1.3746 -5.2397 -2.2597
  393MOL0     H51814   1.466   9.796   6.221  1.3717  0.9550 -2.0746
  393MOL0     H51815   1.426   9.576   6.284  1.5048  4.4929  1.3653
  393MOL0     H51816   1.359   9.524   6.125 -0.9815  1.2090 -0.5038
  393MOL0     H51817   1.145   9.670   6.175  2.6446  1.9365 -0.9987
  393MOL0     H51818   1.217   9.717   6.329 -1.0622 -0.1013 -0.1549
  393MOL0     H51819   1.171   9.421   6.304  0.1475  0.2887  2.1210
  393MOL0     H51820   1.216   9.528   6.434 -1.0209  2.5477  0.0809
  393MOL0     H51821   0.988   9.446   6.441 -1.3882  0.7518  0.4978
  393MOL0     H51822   0.952   9.514   6.279  3.6032 -4.3818 -1.3963
  393MOL0     H51823   0.946   9.747   6.382 -3.1648  1.2587  1.9397
  393MOL0     H51824   0.992   9.665   6.538 -0.3282 -3.1120  0.5416
  393MOL0     H51825   0.747   9.594   6.379  1.5560  0.0966 -1.8250
  393MOL0     H51826   0.781   9.562   6.543  0.1984  0.0944 -1.2696
  393MOL0     H51827   0.615   9.754   6.478 -0.9753 -3.6701  2.1182
  393MOL0     H51828   0.761   9.850   6.457  1.6252 -1.0047  0.2697
  393MOL0     H51829   0.607   9.608   6.731 -0.9349 -0.2883  1.3565
  393MOL0     H51830   0.670   9.771   7.087  0.2028 -2.0290  1.4616
  393MOL0     H51831   0.657   9.612   6.999  2.9747  1.1098  0.6573
  393MOL0     H51832   0.422   9.685   6.930 -4.1603 -0.1691  2.6026
  393MOL0     H51833   0.454   9.832   7.037  0.5448  0.3294  2.7197
  393MOL0     H51834   0.510   9.579   7.168 -0.9253  0.3567  2.3503
  393MOL0     H51835   0.413   9.717   7.227 -1.8483 -0.5044 -0.2504
  393MOL0     H51836   0.300   9.487   7.181 -2.1267  0.2238  0.1397
  393MOL0     H51837   0.316   9.515   7.011 -1.1861  1.4662 -0.6765
  393MOL0     H51838  -0.041   9.753   7.086 -1.6414  0.4283 -2.4196
  393MOL0     H51839  -0.253   9.664   7.018 -0.1209 -2.0060 -3.4097
  393MOL0     H51840  -0.538   9.436   6.778  0.7150 -1.0509 -0.3987
  393MOL0     H51841  -0.764   9.366   6.737 -1.2807 -1.7437  0.3974
  393MOL0     H51842  -1.003   9.174   6.790  1.1358  1.2560 -1.6326
  393MOL0     H51843  -0.981   9.347   6.733 -1.2114 -0.3828 -1.5502
  393MOL0     H51844  -1.220   9.288   6.764 -1.2188  0.9594 -0.3055
  393MOL0     H51845  -1.179   9.420   6.843 -4.5772 -1.1780  1.6222
  393MOL0     H51846  -1.123   9.304   7.066 -2.5051  0.4121  2.1958
  393MOL0     H51847  -1.188   9.157   6.997 -3.5656 -0.3063  1.9969
  393MOL0     H51848  -1.337   9.429   7.017  0.5505 -0.6868 -3.8097
  393MOL0     H51849  -1.410   9.282   6.964 -1.6419 -0.8672  2.5040
  393MOL0     H51850  -1.281   9.301   7.244 -1.4331 -0.6883  0.8426
  393MOL0     H51851  -1.374   9.164   7.163 -1.2183 -0.2916  0.0755
  393MOL0     H51852  -1.579   9.298   7.195  0.9509 -4.3784  1.3168
  393MOL0     H51853  -1.482   9.438   7.241  2.1011 -0.1127  1.9957
  393MOL0     H51854  -1.611   9.324   7.426  1.0064  1.4738  0.7869
  393MOL0     H51855  -1.530   9.169   7.396  2.2103  0.1292 -1.0756
  393MOL0     H51856  -1.307   9.293   7.477 -0.1389 -0.6054 -1.3386
  393MOL0     H51857  -1.445   9.273   7.586 -2.1906 -0.3259 -0.9464
  393MOL0     H51858  -0.825   9.300   7.160  0.1059  0.0753  0.2678
  393MOL0     H51859  -0.588   9.400   7.202  1.4372 -1.3642 -0.3087
  393MOL0     H51860  -0.069   9.275   6.974 -0.1865  0.8459 -4.0443
  393MOL0     H51861   0.138   9.352   7.053  0.5645  0.0657  0.3250
  393MOL0     H51862   1.715   9.508   6.162 -1.0967  0.7014 -2.6914
  393MOL0     H51863   1.950   9.562   6.255 -0.0936  0.6484  1.4113
  393MOL0     H51864   2.260   9.765   6.452  1.0897 -1.0900  1.0589
  393MOL0     H51865   2.482   9.834   6.514  1.7967  1.7263 -0.4897
  393MOL0     H51866   2.709   9.927   6.351  0.9214  0.6246  0.0972
  393MOL0     H51867   2.694   9.897   6.533  1.3799  1.7789  1.6954
  393MOL0     H51868   2.831  10.102   6.561 -3.0749  1.4674 -1.2342
  393MOL0     H51869   2.933   9.970   6.499  0.2787  0.4737 -1.4208
  393MOL0     H51870   2.798  10.173   6.322 -1.2490 -1.2584 -0.3179
  393MOL0     H51871   2.919  10.058   6.264  0.8478  1.3326 -1.2701
  393MOL0     H51872   3.022  10.273   6.286 -1.0755  2.0198  0.2435
  393MOL0     H51873   2.986  10.288   6.454 -0.0692  0.1801 -0.3674
  393MOL0     H51874   3.321  10.031   6.464 -0.6237  0.8228  0.5752
  393MOL0     H51875   2.430  10.212   6.324 -1.1274  2.0667  3.1458
  393MOL0     H51876   2.192  10.149   6.267  2.0090  0.1056 -0.6111
  394MOL0     O51877   4.897   8.170   1.110  0.3709  0.3355  0.3071
  394MOL0     C51878   4.974   8.110   1.185 -0.2521  0.5870  0.2936
  394MOL0     O51879   4.943   8.070   1.312  0.2168  0.1814 -0.0091
  394MOL0     C51880   4.816   8.075   1.360 -0.2658 -0.1260  0.0791
  394MOL0     C51881   4.792   8.028   1.494 -1.3640 -0.3646  0.0220
  394MOL0     C51882   4.661   8.024   1.559 -0.1127  0.6806 -0.8186
  394MOL0     C51883   4.549   8.075   1.492 -0.5621 -0.3281  0.0863
  394MOL0     O51884   4.432   8.079   1.553 -0.6777 -0.9775 -0.3974
  394MOL0     C51885   4.309   8.071   1.481 -0.0429 -0.0700  0.1119
  394MOL0     C51886   4.196   8.040   1.572 -0.4462  0.2724  0.4255
  394MOL0     C51887   4.075   8.123   1.537 -0.1085 -0.2346  0.4001
  394MOL0     C51888   3.952   8.086   1.627 -0.1501  0.2592  0.3071
  394MOL0     C51889   3.842   8.186   1.614  0.0723 -0.3212  0.4511
  394MOL0     C51890   3.760   8.162   1.488 -0.3306 -0.6493  0.5495
  394MOL0     C51891   3.676   8.285   1.441  0.1820  0.3762  0.8054
  394MOL0     C51892   3.584   8.262   1.322 -0.1812 -0.0743  0.6469
  394MOL0     N51893   3.503   8.385   1.314 -0.1808  0.4512  1.3268
  394MOL0     C51894   3.382   8.406   1.378  0.2826 -1.1106  0.5494
  394MOL0     C51895   3.332   8.526   1.324  0.7135 -0.0719  0.5739
  394MOL0     C51896   3.203   8.596   1.368 -0.4846 -0.1143  1.0312
  394MOL0     C51897   3.234   8.734   1.434  0.3952  0.5447  0.2564
  394MOL0     C51898   3.128   8.775   1.530  0.6164  0.8281 -0.2799
  394MOL0     C51899   3.003   8.820   1.452 -0.4241 -0.2061  1.1723
  394MOL0     O51900   2.900   8.839   1.548 -0.5701  0.7930  0.5373
  394MOL0     C51901   2.785   8.891   1.487  0.6646  0.1651 -0.3409
  394MOL0     C51902   2.707   8.964   1.573 -0.4864  0.0920 -0.8426
  394MOL0     C51903   2.580   9.016   1.540 -0.8200  0.7335 -0.3689
  394MOL0     C51904   2.526   8.990   1.416  0.4850 -0.2168 -0.5256
  394MOL0     C51905   2.384   9.035   1.391 -0.0310  1.5886 -0.6056
  394MOL0     O51906   2.337   8.974   1.282 -0.0996 -0.3368 -0.1596
  394MOL0     C51907   2.198   8.970   1.249 -0.9243  0.5958 -0.8788
  394MOL0     C51908   2.092   9.007   1.330 -0.4374  0.6644 -0.6195
  394MOL0     C51909   1.956   9.009   1.283 -0.7781  0.3329  0.0440
  394MOL0     C51910   1.930   8.957   1.154 -0.0961  0.5142  0.3658
  394MOL0     O51911   1.807   8.946   1.108 -0.0290 -0.2300  0.3760
  394MOL0     C51912   1.732   8.843   1.161 -0.6180  0.3392 -0.5641
  394MOL0     C51913   1.601   8.812   1.073 -0.1965  0.6947  1.5177
  394MOL0     C51914   1.553   8.663   1.088  0.2606 -0.6526 -0.4251
  394MOL0     C51915   1.516   8.644   1.233 -0.4230 -0.4316  0.0531
  394MOL0     C51916   1.430   8.520   1.242  0.2815  0.0056 -0.3346
  394MOL0     C51917   1.505   8.393   1.197  0.2631  0.2175  0.2985
  394MOL0     C51918   1.594   8.344   1.306 -0.5273  0.6182  0.1618
  394MOL0     C51919   1.687   8.230   1.264  0.4038 -0.2484  0.1454
  394MOL0    Cl51920   1.787   8.216   1.413 -0.2426 -0.0818  0.2089
  394MOL0     C51921   2.042   8.914   1.072  0.3770 -0.6178 -0.4927
  394MOL0     C51922   2.172   8.917   1.122 -0.9477 -0.3529  0.6626
  394MOL0     O51923   2.325   9.114   1.461  0.0540 -0.1389  0.5624
  394MOL0     C51924   2.603   8.916   1.324 -0.3661  0.9168 -0.1166
  394MOL0     C51925   2.728   8.868   1.362 -0.6522  0.3525  0.0576
  394MOL0     N51926   3.422   8.559   1.225 -0.1699 -0.4294 -0.0164
  394MOL0     N51927   3.521   8.481   1.220  0.8536  0.0311  0.4266
  394MOL0     C51928   4.571   8.136   1.369  1.0187 -0.5642  0.3364
  394MOL0     C51929   4.689   8.129   1.302 -0.4757  0.4857  0.2232
  394MOL0     C51930   5.106   8.078   1.125 -0.2959 -0.1435  0.8467
  394MOL0     C51931   5.184   7.983   1.187  0.9775  0.2336  0.8166
  394MOL0     C51932   5.307   7.953   1.137  0.0490  0.3855  0.2100
  394MOL0     C51933   5.361   8.016   1.023  0.1495  0.4594  0.0359
  394MOL0     O51934   5.487   7.981   0.991  0.5077 -0.0443 -0.0456
  394MOL0     C51935   5.533   8.024   0.867  0.2976 -0.1223 -0.2068
  394MOL0     C51936   5.673   7.964   0.844  0.2892 -0.3782 -0.6844
  394MOL0     C51937   5.758   8.035   0.741 -0.2695  0.1495 -0.6898
  394MOL0     C51938   5.885   7.953   0.719 -0.1408 -0.2533  0.3277
  394MOL0     C51939   5.960   8.006   0.604  0.6336 -0.1324 -0.6246
  394MOL0     C51940   6.027   8.034   0.511 -0.9944 -0.8192  0.7942
  394MOL0     C51941   5.275   8.105   0.960 -0.9148 -0.0716 -0.4125
  394MOL0     C51942   5.150   8.140   1.009  0.5574  0.1582  0.7132
  394MOL0     H51943   4.879   7.990   1.547  0.2592  0.0605 -2.1597
  394MOL0     H51944   4.644   7.984   1.659 -0.0125  1.7827 -0.3504
  394MOL0     H51945   4.317   7.980   1.420 -1.5631 -0.5635  0.6025
  394MOL0     H51946   4.288   8.159   1.421 -1.9883 -0.6996 -0.1874
  394MOL0     H51947   4.225   8.074   1.672 -2.0796  2.3213  0.2861
  394MOL0     H51948   4.163   7.936   1.577 -1.8703  0.7300  1.1600
  394MOL0     H51949   4.049   8.106   1.432 -2.1598  1.2626  0.6099
  394MOL0     H51950   4.090   8.230   1.553 -2.2647  0.0530  0.7074
  394MOL0     H51951   3.905   7.987   1.621 -1.7400  0.7854  2.6399
  394MOL0     H51952   3.988   8.082   1.730  0.9818  1.4282 -0.0163
  394MOL0     H51953   3.896   8.280   1.614  3.6442 -2.2204  1.0433
  394MOL0     H51954   3.777   8.181   1.702  2.1644  1.5816  2.2199
  394MOL0     H51955   3.703   8.068   1.491  0.4653 -1.4357 -3.1378
  394MOL0     H51956   3.826   8.141   1.403  2.2777 -1.2905  2.5916
  394MOL0     H51957   3.613   8.322   1.522  0.8318 -2.1975  2.5912
  394MOL0     H51958   3.741   8.370   1.420 -2.6259  1.9731 -2.4305
  394MOL0     H51959   3.533   8.169   1.345  3.1872 -1.5906  2.8778
  394MOL0     H51960   3.634   8.250   1.226 -1.3914 -2.6235  0.2617
  394MOL0     H51961   3.327   8.334   1.439 -1.6972  1.2852  1.8031
  394MOL0     H51962   3.165   8.528   1.445  1.7372 -2.0618  0.5283
  394MOL0     H51963   3.137   8.599   1.281  0.7303 -0.1686  0.0872
  394MOL0     H51964   3.251   8.815   1.363 -0.5520  1.6719  1.2886
  394MOL0     H51965   3.322   8.734   1.498 -0.2972  3.4079  1.3626
  394MOL0     H51966   3.110   8.693   1.600 -0.2590  1.9851  0.8824
  394MOL0     H51967   3.174   8.859   1.581 -1.7929  2.0635 -0.0111
  394MOL0     H51968   2.988   8.741   1.379 -1.4943  1.7164 -0.8065
  394MOL0     H51969   3.023   8.912   1.396  0.7045  0.5291  2.7119
  394MOL0     H51970   2.748   8.978   1.673 -0.2524 -2.9215 -0.4239
  394MOL0     H51971   2.536   9.072   1.621 -2.4306 -2.7794  1.3644
  394MOL0     H51972   2.109   9.030   1.435 -1.2085 -0.3884 -0.2562
  394MOL0     H51973   1.885   9.050   1.354  1.9252  2.3057  1.7884
  394MOL0     H51974   1.692   8.861   1.261 -1.8436 -1.9903 -0.5557
  394MOL0     H51975   1.784   8.747   1.165 -0.6363  0.3422 -0.2238
  394MOL0     H51976   1.621   8.838   0.968  0.7390 -0.4096  1.3947
  394MOL0     H51977   1.521   8.882   1.098 -0.5980  0.5484  0.6993
  394MOL0     H51978   1.636   8.595   1.066 -1.1407 -1.9800 -1.8817
  394MOL0     H51979   1.469   8.644   1.020 -0.0078 -2.2786  0.3084
  394MOL0     H51980   1.597   8.648   1.307  0.6713 -0.8704 -1.0793
  394MOL0     H51981   1.453   8.725   1.270  0.7416 -0.3884  2.1086
  394MOL0     H51982   1.340   8.521   1.179  2.1458  2.6708 -3.2719
  394MOL0     H51983   1.406   8.507   1.348 -0.5693  1.5641 -0.3031
  394MOL0     H51984   1.562   8.406   1.105 -1.4460 -2.6860 -1.3416
  394MOL0     H51985   1.434   8.312   1.179 -0.6737  0.4322  2.6922
  394MOL0     H51986   1.644   8.430   1.350 -1.4899  0.0437  2.5726
  394MOL0     H51987   1.522   8.302   1.377  2.3001 -0.6575  2.4326
  394MOL0     H51988   1.747   8.263   1.178 -1.4207 -0.2449 -1.1684
  394MOL0     H51989   1.624   8.148   1.231 -4.4532  3.5268 -1.1445
  394MOL0     H51990   2.013   8.865   0.980  1.5550 -0.4282 -0.9810
  394MOL0     H51991   2.244   8.876   1.053 -0.0781  1.0096  0.7313
  394MOL0     H51992   2.571   8.907   1.221  0.1067  2.1835 -0.3974
  394MOL0     H51993   2.789   8.814   1.291  2.2979  1.5271  1.4969
  394MOL0     H51994   4.486   8.191   1.332  1.3940 -0.8771 -1.0664
  394MOL0     H51995   4.688   8.176   1.205 -0.9992  2.1606  1.0057
  394MOL0     H51996   5.142   7.932   1.273 -0.8287  1.0321  0.4721
  394MOL0     H51997   5.358   7.875   1.192  0.0850  0.4980  0.3365
  394MOL0     H51998   5.545   8.133   0.862 -2.7567  0.5088  2.9317
  394MOL0     H51999   5.475   8.013   0.774  0.3018  1.0547 -0.3701
  394MOL0     H52000   5.722   7.975   0.941 -1.4148  0.4160  0.1307
  394MOL0     H52001   5.662   7.858   0.816  3.1430 -1.1444  0.7735
  394MOL0     H52002   5.776   8.135   0.784 -0.1059  1.1993 -3.0572
  394MOL0     H52003   5.695   8.064   0.657 -1.2219 -0.2259 -0.1294
  394MOL0     H52004   5.955   7.951   0.803 -1.2529  1.1332  1.3309
  394MOL0     H52005   5.860   7.849   0.700  0.4247 -0.0742 -1.6477
  394MOL0     H52006   6.102   8.061   0.439 -1.7527  0.1538  0.3475
  394MOL0     H52007   5.318   8.153   0.872  1.7886  0.1208  0.8931
  394MOL0     H52008   5.081   8.198   0.949  1.2649  0.6683  0.3703
  395MOL0     O52009   6.426   4.696   5.029 -0.0904  0.1755  1.2117
  395MOL0     C52010   6.462   4.808   4.989 -0.2202  1.1461 -0.2647
  395MOL0     O52011   6.406   4.879   4.889  0.3622 -0.2380 -0.1268
  395MOL0     C52012   6.295   4.848   4.815 -0.7483  0.9078  0.0900
  395MOL0     C52013   6.190   4.752   4.855  0.2946  0.6927  0.0209
  395MOL0     C52014   6.069   4.749   4.778 -0.0495  0.0652  0.4593
  395MOL0     C52015   6.037   4.849   4.679 -0.4992  0.2913 -0.0381
  395MOL0     O52016   5.918   4.845   4.598  1.3840  0.0649  0.2586
  395MOL0     C52017   5.828   4.733   4.603  0.2079  0.3665  0.2273
  395MOL0     C52018   5.691   4.799   4.569 -0.7335  0.0981  0.2456
  395MOL0     C52019   5.585   4.688   4.559 -0.4071 -0.2015  0.4578
  395MOL0     C52020   5.440   4.728   4.535  0.6338 -0.0635 -0.2396
  395MOL0     C52021   5.332   4.623   4.565  0.1680  0.0776 -0.3309
  395MOL0     C52022   5.187   4.679   4.568 -0.7874  0.1373 -0.0080
  395MOL0     C52023   5.082   4.561   4.565 -0.2958 -0.1253  0.5529
  395MOL0     C52024   4.941   4.624   4.597 -0.3828  0.0898 -0.7823
  395MOL0     N52025   4.840   4.513   4.583 -0.0436 -0.1746 -0.3834
  395MOL0     C52026   4.774   4.488   4.462 -0.5023 -0.7506 -1.0303
  395MOL0     C52027   4.715   4.375   4.493  0.5914  0.5265 -0.0365
  395MOL0     C52028   4.621   4.295   4.409  0.3114 -0.4666 -0.7042
  395MOL0     C52029   4.517   4.216   4.487 -0.4021  0.4209  0.0756
  395MOL0     C52030   4.429   4.293   4.576 -0.0584 -0.2665 -0.3706
  395MOL0     C52031   4.311   4.211   4.631  0.0399 -0.3884  0.5229
  395MOL0     O52032   4.214   4.174   4.534 -0.6615  0.3741  0.1145
  395MOL0     C52033   4.086   4.226   4.534  0.2872 -0.7550 -0.3994
  395MOL0     C52034   4.026   4.320   4.616 -0.2417  0.0165 -0.0092
  395MOL0     C52035   3.882   4.344   4.609  0.1886 -0.3327 -0.8495
  395MOL0     C52036   3.798   4.281   4.522  0.2463  1.1653  0.4982
  395MOL0     C52037   3.653   4.318   4.500  0.1108  0.0800 -1.1143
  395MOL0     O52038   3.581   4.244   4.413  0.3136 -0.1579 -0.0602
  395MOL0     C52039   3.462   4.280   4.354 -0.2802  0.8454 -0.3769
  395MOL0     C52040   3.404   4.409   4.339  0.8805  0.0656  0.5334
  395MOL0     C52041   3.273   4.423   4.290  0.6774 -0.2499 -0.1692
  395MOL0     C52042   3.198   4.315   4.246  0.1888 -0.2007 -0.2604
  395MOL0     O52043   3.073   4.342   4.186 -0.8590  0.2825  0.2931
  395MOL0     C52044   2.976   4.237   4.158 -0.6469 -0.4622  0.2338
  395MOL0     C52045   2.842   4.302   4.141  1.0747 -0.4011 -0.3770
  395MOL0     C52046   2.719   4.219   4.175 -0.2851  1.0170  1.0275
  395MOL0     C52047   2.607   4.307   4.212  0.4021  0.7932  0.3253
  395MOL0     C52048   2.483   4.224   4.266 -0.0764  0.2192  0.4333
  395MOL0     C52049   2.388   4.167   4.154  0.1066  0.4395 -0.6641
  395MOL0     C52050   2.295   4.069   4.234  0.1802 -0.1114  0.2503
  395MOL0     C52051   2.192   4.007   4.140 -0.4825  0.5625  0.7214
  395MOL0    Cl52052   2.064   4.109   4.096 -0.0814  0.1009 -0.1169
  395MOL0     C52053   3.254   4.187   4.259  0.6419  0.1470  1.1041
  395MOL0     C52054   3.379   4.168   4.311 -0.5908 -0.4626 -0.3103
  395MOL0     O52055   3.617   4.417   4.561  0.4484 -0.1249 -0.5192
  395MOL0     C52056   3.859   4.174   4.442 -0.0952 -0.0835  0.1153
  395MOL0     C52057   4.003   4.148   4.449 -0.5016 -0.4618  0.3004
  395MOL0     N52058   4.751   4.318   4.616  0.4928 -0.9220 -0.9021
  395MOL0     N52059   4.831   4.407   4.672 -0.3490 -0.3587  0.8278
  395MOL0     C52060   6.141   4.934   4.651 -0.3392  0.1996 -0.0252
  395MOL0     C52061   6.270   4.942   4.714  0.1997  0.5204  0.1424
  395MOL0     C52062   6.580   4.865   5.053 -0.6317  0.1228 -0.3209
  395MOL0     C52063   6.671   4.952   4.980  1.4568  0.3295 -0.4750
  395MOL0     C52064   6.780   5.000   5.042 -0.5643  0.5259  0.0086
  395MOL0     C52065   6.802   4.986   5.186 -0.6985  0.1246  0.3950
  395MOL0     O52066   6.901   5.046   5.262  0.4951 -0.6254  0.8895
  395MOL0     C52067   6.993   5.120   5.184 -0.5802  0.2927  0.3396
  395MOL0     C52068   7.114   5.141   5.277  0.7923 -0.5093 -0.4470
  395MOL0     C52069   7.212   5.243   5.215  0.3633  0.4712 -0.1997
  395MOL0     C52070   7.166   5.385   5.239  0.6016  0.2860  0.1132
  395MOL0     C52071   7.265   5.479   5.203 -0.5741  0.0406  0.1611
  395MOL0     C52072   7.334   5.571   5.157  0.4084  0.2814 -0.5737
  395MOL0     C52073   6.727   4.884   5.245  0.1678 -0.5539  0.0546
  395MOL0     C52074   6.619   4.820   5.180 -0.6316 -0.0619  0.4726
  395MOL0     H52075   6.185   4.699   4.950  2.8232  1.1920  0.5052
  395MOL0     H52076   5.994   4.678   4.813 -0.1014 -1.6350 -2.7732
  395MOL0     H52077   5.823   4.700   4.707  3.1714  0.6314  0.5444
  395MOL0     H52078   5.853   4.652   4.534 -2.2221  0.4522 -0.8733
  395MOL0     H52079   5.690   4.867   4.483 -3.0496 -1.2272 -0.8842
  395MOL0     H52080   5.660   4.861   4.654 -0.1283 -0.5838  0.9758
  395MOL0     H52081   5.604   4.618   4.642 -2.1561 -0.7756  0.4287
  395MOL0     H52082   5.608   4.640   4.464 -1.0383  2.3333 -1.0657
  395MOL0     H52083   5.419   4.816   4.596 -3.7168 -1.5621  0.7918
  395MOL0     H52084   5.426   4.757   4.430 -2.5877 -1.7163 -0.3845
  395MOL0     H52085   5.361   4.574   4.658  1.4025 -0.8864 -1.1848
  395MOL0     H52086   5.341   4.551   4.483  0.7220 -0.3585  0.1086
  395MOL0     H52087   5.165   4.756   4.493 -1.2793  0.0858  0.0797
  395MOL0     H52088   5.179   4.730   4.665 -0.2682  0.1927  0.0100
  395MOL0     H52089   5.081   4.512   4.467  1.1512  0.0572  0.4205
  395MOL0     H52090   5.117   4.485   4.635 -1.6869  0.6907  2.2062
  395MOL0     H52091   4.923   4.704   4.525 -0.4701  0.8520  0.0757
  395MOL0     H52092   4.943   4.669   4.696  1.2941  0.7352 -1.0691
  395MOL0     H52093   4.759   4.536   4.366 -0.6942 -2.5109 -1.9165
  395MOL0     H52094   4.672   4.219   4.349  2.5576  0.7467 -0.4369
  395MOL0     H52095   4.578   4.360   4.333 -2.0661 -1.5766 -0.4061
  395MOL0     H52096   4.562   4.139   4.551 -0.8572  1.5629  1.8622
  395MOL0     H52097   4.458   4.170   4.408  0.1672  2.8747 -1.9202
  395MOL0     H52098   4.481   4.325   4.667 -0.3420 -1.5883  0.2812
  395MOL0     H52099   4.387   4.383   4.530 -0.9609 -0.6622 -0.3395
  395MOL0     H52100   4.267   4.276   4.707  3.6591  3.1541 -0.0222
  395MOL0     H52101   4.344   4.121   4.684  0.9367 -0.3092  0.1264
  395MOL0     H52102   4.088   4.374   4.686 -0.3614 -0.7065  0.6710
  395MOL0     H52103   3.835   4.418   4.673  4.1372  0.9070  0.9577
  395MOL0     H52104   3.460   4.497   4.368  1.0843 -0.4513  1.7751
  395MOL0     H52105   3.229   4.522   4.281 -0.5374 -0.5666  1.7675
  395MOL0     H52106   2.961   4.174   4.247  0.8037 -1.0340  0.0935
  395MOL0     H52107   2.998   4.180   4.067 -1.9673  2.0634 -1.8083
  395MOL0     H52108   2.840   4.334   4.036  0.8688 -1.5910 -0.7544
  395MOL0     H52109   2.842   4.390   4.206 -1.1901 -0.5744 -0.0618
  395MOL0     H52110   2.742   4.149   4.255  0.7025 -1.2876 -1.1126
  395MOL0     H52111   2.691   4.163   4.084 -1.6306  2.2280  0.6572
  395MOL0     H52112   2.645   4.365   4.297  1.0472  3.0358 -1.3797
  395MOL0     H52113   2.568   4.369   4.131 -2.8283  2.2790  2.8124
  395MOL0     H52114   2.428   4.295   4.329 -0.7703 -2.2106  2.7462
  395MOL0     H52115   2.514   4.145   4.334  1.8077  0.9129  0.4567
  395MOL0     H52116   2.439   4.105   4.080 -0.0592 -0.5703  0.0473
  395MOL0     H52117   2.318   4.236   4.106 -0.7006  0.3511  0.3447
  395MOL0     H52118   2.358   3.993   4.281 -0.5779 -0.7991  0.1822
  395MOL0     H52119   2.246   4.127   4.313  1.5643 -1.6360  2.3006
  395MOL0     H52120   2.153   3.919   4.192 -1.3255 -0.2100 -1.1227
  395MOL0     H52121   2.238   3.949   4.059 -2.1335  0.6056 -0.2857
  395MOL0     H52122   3.199   4.099   4.229  0.7713 -0.1921  1.8491
  395MOL0     H52123   3.422   4.073   4.341  3.3095  1.1003 -0.3632
  395MOL0     H52124   3.810   4.106   4.373  3.2533  0.1446 -2.7499
  395MOL0     H52125   4.048   4.076   4.382 -0.3989  0.1012 -0.2424
  395MOL0     H52126   6.128   5.010   4.575 -2.1254 -0.3030 -0.2773
  395MOL0     H52127   6.346   5.016   4.689  0.1811  0.7350  0.7128
  395MOL0     H52128   6.659   4.971   4.874 -2.8219 -0.0344 -0.2424
  395MOL0     H52129   6.843   5.063   4.979 -1.4972 -0.3046 -1.8568
  395MOL0     H52130   6.947   5.216   5.156 -1.2075  0.0042  0.3588
  395MOL0     H52131   7.040   5.076   5.095 -0.5040  0.0518  0.4985
  395MOL0     H52132   7.088   5.167   5.380  0.1379 -1.5363 -0.3399
  395MOL0     H52133   7.162   5.048   5.307  1.7549  0.6595  1.8504
  395MOL0     H52134   7.222   5.229   5.107 -0.0134  0.7415 -0.2733
  395MOL0     H52135   7.306   5.220   5.265 -0.4803 -0.3512  1.0635
  395MOL0     H52136   7.073   5.404   5.185 -1.0069 -0.7503  2.3832
  395MOL0     H52137   7.129   5.386   5.341 -1.4378 -1.9365 -0.5068
  395MOL0     H52138   7.379   5.661   5.119  0.2389 -0.0982 -1.7059
  395MOL0     H52139   6.746   4.856   5.348 -3.1810  1.9893  1.5657
  395MOL0     H52140   6.570   4.744   5.240  2.6971 -2.6649  0.1364
  396MOL0     O52141   0.570   4.405  11.235  0.0970 -0.3205  0.0475
  396MOL0     C52142   0.609   4.303  11.281 -0.4392 -0.0941  0.0579
  396MOL0     O52143   0.550   4.232  11.380  0.0894  0.1271 -0.0513
  396MOL0     C52144   0.422   4.272  11.421 -0.1521  0.3934  0.2616
  396MOL0     C52145   0.321   4.317  11.335  0.7691 -0.1167 -0.0441
  396MOL0     C52146   0.195   4.347  11.384  0.3321 -0.1655  0.1875
  396MOL0     C52147   0.165   4.319  11.515  0.1871  0.3292  0.1313
  396MOL0     O52148   0.031   4.342  11.547 -0.0711 -1.4297 -0.3748
  396MOL0     C52149  -0.005   4.387  11.681 -0.6448  0.2746 -0.2829
  396MOL0     C52150  -0.140   4.456  11.695 -0.4317  1.2750  0.0100
  396MOL0     C52151  -0.261   4.360  11.701 -0.8194 -0.5974  0.7443
  396MOL0     C52152  -0.271   4.285  11.562  0.0720 -0.7563  0.5418
  396MOL0     C52153  -0.238   4.138  11.564 -0.5580 -0.0859  0.2553
  396MOL0     C52154  -0.259   4.083  11.426  0.6393  0.6107  1.0353
  396MOL0     C52155  -0.391   4.015  11.388 -0.0436 -0.4275  0.4718
  396MOL0     C52156  -0.391   3.874  11.454 -0.0005  0.3081  0.7752
  396MOL0     N52157  -0.524   3.819  11.441  0.9437 -0.5560 -0.2151
  396MOL0     C52158  -0.586   3.776  11.329  0.2594 -0.7282 -0.2535
  396MOL0     C52159  -0.674   3.685  11.364 -0.0212  0.4651 -0.6912
  396MOL0     C52160  -0.735   3.590  11.270 -0.1734  0.1754  0.2228
  396MOL0     C52161  -0.892   3.605  11.308  0.2056  0.2328  1.2919
  396MOL0     C52162  -0.967   3.503  11.223 -0.3122 -0.4234  0.6258
  396MOL0     C52163  -1.096   3.486  11.277  1.1187  0.2520 -0.3785
  396MOL0     O52164  -1.156   3.387  11.200 -0.3157  0.7210  0.2928
  396MOL0     C52165  -1.263   3.326  11.258  0.3474 -0.5326  0.3209
  396MOL0     C52166  -1.325   3.233  11.183  0.5991 -0.1636  1.0880
  396MOL0     C52167  -1.462   3.185  11.217 -0.0558  0.1999 -0.4835
  396MOL0     C52168  -1.522   3.238  11.326  0.2889  0.1404 -0.3207
  396MOL0     C52169  -1.663   3.206  11.358 -0.5569  0.7309  0.0207
  396MOL0     O52170  -1.705   3.226  11.487 -0.5136 -0.3089 -0.7823
  396MOL0     C52171  -1.823   3.159  11.515 -0.4525 -0.9941 -0.9772
  396MOL0     C52172  -1.829   3.020  11.505  1.1785  0.0761 -0.2240
  396MOL0     C52173  -1.952   2.947  11.522  0.2876  0.5867 -1.3984
  396MOL0     C52174  -2.072   3.006  11.559 -0.8079 -0.5913  0.3405
  396MOL0     O52175  -2.186   2.945  11.603  1.0034  0.1341  0.6964
  396MOL0     C52176  -2.190   2.805  11.614  0.0797  0.5106 -0.2367
  396MOL0     C52177  -2.330   2.757  11.644 -0.8898  0.0646 -0.8111
  396MOL0     C52178  -2.333   2.603  11.667  0.3089  0.2669  0.1544
  396MOL0     C52179  -2.477   2.545  11.640 -0.2344  0.0300 -0.4460
  396MOL0     C52180  -2.464   2.391  11.648  0.1169 -0.1620  0.1404
  396MOL0     C52181  -2.594   2.327  11.671 -0.8301  0.1153  0.1317
  396MOL0     C52182  -2.649   2.336  11.815 -0.1904  0.8722 -0.4972
  396MOL0     C52183  -2.783   2.267  11.820  0.6421  0.8173  0.3784
  396MOL0    Cl52184  -2.777   2.082  11.811 -0.0018  0.1504  0.0745
  396MOL0     C52185  -2.067   3.141  11.581  0.2221 -0.2149  0.5881
  396MOL0     C52186  -1.942   3.220  11.561  0.3289  0.0984 -0.3283
  396MOL0     O52187  -1.730   3.169  11.264  0.1884  0.3111 -0.9524
  396MOL0     C52188  -1.459   3.332  11.401 -0.4304  0.4900 -0.1999
  396MOL0     C52189  -1.322   3.371  11.375 -0.1046  1.2680 -0.7442
  396MOL0     N52190  -0.682   3.693  11.503  0.7970  0.2619 -0.0420
  396MOL0     N52191  -0.589   3.769  11.545 -0.7919  0.2260 -1.2142
  396MOL0     C52192   0.268   4.263  11.601  0.3444 -0.0445 -0.4900
  396MOL0     C52193   0.391   4.240  11.552 -0.0605 -0.7168  0.0853
  396MOL0     C52194   0.744   4.274  11.248 -0.8431  0.5307 -0.3834
  396MOL0     C52195   0.809   4.324  11.132  0.1557 -0.3105 -0.0449
  396MOL0     C52196   0.943   4.292  11.110 -0.0233 -0.2472 -0.0216
  396MOL0     C52197   1.020   4.213  11.198  0.2600  0.2990 -0.2107
  396MOL0     O52198   1.161   4.202  11.173  0.2931  0.0244 -0.5404
  396MOL0     C52199   1.231   4.327  11.164  0.3578 -0.2283  0.5281
  396MOL0     C52200   1.381   4.310  11.179  0.3557  0.5687 -0.5490
  396MOL0     C52201   1.447   4.438  11.179  0.5479  0.2094  0.4043
  396MOL0     C52202   1.599   4.408  11.175  0.7266  0.2007 -0.8207
  396MOL0     C52203   1.643   4.385  11.041 -0.1237  0.9263 -0.8559
  396MOL0     C52204   1.683   4.342  10.937 -0.4631 -0.5556 -0.7496
  396MOL0     C52205   0.956   4.175  11.317 -0.5907 -0.1863  0.3377
  396MOL0     C52206   0.826   4.205  11.344 -0.7021  0.0677  0.1156
  396MOL0     H52207   0.344   4.335  11.230  2.0741  1.5820  0.4948
  396MOL0     H52208   0.115   4.376  11.317 -0.3934 -0.3376  0.9660
  396MOL0     H52209   0.078   4.444  11.724  1.3629 -2.0118 -0.8959
  396MOL0     H52210  -0.012   4.302  11.749 -0.5490  0.3192 -0.2179
  396MOL0     H52211  -0.148   4.522  11.607 -1.7527 -0.5807 -1.3402
  396MOL0     H52212  -0.139   4.515  11.787  0.5332 -1.1254  1.6161
  396MOL0     H52213  -0.357   4.405  11.726 -1.4732 -1.5578  0.0563
  396MOL0     H52214  -0.244   4.298  11.790 -0.7695  0.1388  1.2586
  396MOL0     H52215  -0.377   4.300  11.538 -0.3580  4.1878  3.9618
  396MOL0     H52216  -0.224   4.339  11.480  0.7038 -0.3522  1.1603
  396MOL0     H52217  -0.301   4.080  11.633  1.0741 -1.6665  0.4897
  396MOL0     H52218  -0.135   4.121  11.597 -0.5357 -0.1511  0.1513
  396MOL0     H52219  -0.176   4.012  11.420 -0.8241 -1.2515  1.8160
  396MOL0     H52220  -0.259   4.166  11.354  1.1083  1.3276  1.8542
  396MOL0     H52221  -0.477   4.069  11.429  0.0627  0.1224 -0.0201
  396MOL0     H52222  -0.387   3.998  11.280  1.8306 -1.7754  0.7008
  396MOL0     H52223  -0.372   3.884  11.561 -0.3424  2.2359  0.6850
  396MOL0     H52224  -0.318   3.800  11.420  0.0759  0.8125 -0.2012
  396MOL0     H52225  -0.551   3.795  11.228 -2.1369 -0.7502 -1.1642
  396MOL0     H52226  -0.699   3.489  11.291 -0.4439  0.4635  2.2664
  396MOL0     H52227  -0.716   3.605  11.164 -3.0769  0.3081 -0.3530
  396MOL0     H52228  -0.919   3.706  11.276 -0.2534  0.1119  1.2819
  396MOL0     H52229  -0.902   3.583  11.414  1.7758 -3.5322  0.8035
  396MOL0     H52230  -0.978   3.554  11.126 -2.2009  1.4765  1.7464
  396MOL0     H52231  -0.900   3.416  11.216  3.6724  2.3977  0.1554
  396MOL0     H52232  -1.144   3.583  11.258  1.2139  0.1926 -0.9641
  396MOL0     H52233  -1.089   3.463  11.383  1.2973 -2.5828 -0.9106
  396MOL0     H52234  -1.282   3.198  11.090 -0.0637  3.1525 -0.6376
  396MOL0     H52235  -1.514   3.124  11.144 -0.4192  0.5858 -0.5542
  396MOL0     H52236  -1.749   2.958  11.467  3.0647  1.4639  1.2719
  396MOL0     H52237  -1.957   2.840  11.502  0.9841 -0.1957  1.9726
  396MOL0     H52238  -2.130   2.767  11.697 -2.1279 -2.1836  0.2595
  396MOL0     H52239  -2.154   2.760  11.521  2.3239  0.6234  0.5115
  396MOL0     H52240  -2.391   2.784  11.558 -1.2612  0.2832 -0.4848
  396MOL0     H52241  -2.367   2.800  11.738 -2.0766 -0.8091 -0.8498
  396MOL0     H52242  -2.297   2.589  11.769  0.3714  2.1338  0.4131
  396MOL0     H52243  -2.265   2.553  11.596 -1.0126  0.3272 -1.2067
  396MOL0     H52244  -2.554   2.576  11.711 -0.8434 -1.0286 -0.6279
  396MOL0     H52245  -2.521   2.571  11.543 -0.7032 -2.7176 -1.0648
  396MOL0     H52246  -2.395   2.366  11.729  1.3099  2.2793 -0.0126
  396MOL0     H52247  -2.427   2.365  11.549  1.6817  4.2336 -0.6641
  396MOL0     H52248  -2.591   2.218  11.659  0.5917 -0.0416  1.5360
  396MOL0     H52249  -2.667   2.365  11.599 -0.2477  1.0498  0.0177
  396MOL0     H52250  -2.581   2.291  11.889 -2.7129 -2.2467  0.1163
  396MOL0     H52251  -2.668   2.441  11.841 -0.5284  1.4380 -2.8134
  396MOL0     H52252  -2.846   2.303  11.738  0.2912 -1.7620 -0.5809
  396MOL0     H52253  -2.830   2.300  11.913 -0.0681  0.6471  0.0854
  396MOL0     H52254  -2.159   3.191  11.608  0.0217  0.8679 -1.8183
  396MOL0     H52255  -1.954   3.328  11.567 -0.5299  0.1890 -2.4782
  396MOL0     H52256  -1.500   3.377  11.490 -1.9656 -2.2014  0.5700
  396MOL0     H52257  -1.283   3.444  11.445  2.4754 -0.5520 -0.1688
  396MOL0     H52258   0.261   4.244  11.707  1.0462 -0.5602 -0.5368
  396MOL0     H52259   0.468   4.211  11.623 -2.2685  1.3386  3.6314
  396MOL0     H52260   0.764   4.382  11.052  1.2031 -0.2308 -0.5936
  396MOL0     H52261   0.987   4.338  11.022 -0.7588  1.3769  0.4189
  396MOL0     H52262   1.185   4.391  11.240 -0.6728  0.0185 -0.2819
  396MOL0     H52263   1.206   4.371  11.067 -0.3714 -0.1226  0.7564
  396MOL0     H52264   1.398   4.261  11.276 -1.8217  0.7581 -0.0127
  396MOL0     H52265   1.421   4.245  11.100  0.1550  1.6313 -1.5489
  396MOL0     H52266   1.422   4.503  11.264  1.6471  2.0339 -0.6151
  396MOL0     H52267   1.418   4.482  11.084 -1.3496 -0.7306  0.4893
  396MOL0     H52268   1.639   4.500  11.219  1.0021  0.7771 -2.2146
  396MOL0     H52269   1.632   4.327  11.241  0.6665  0.2816 -0.6891
  396MOL0     H52270   1.734   4.327  10.844  2.5846 -0.3958  0.7624
  396MOL0     H52271   1.017   4.131  11.395 -3.2200  1.4249  3.4950
  396MOL0     H52272   0.786   4.170  11.438 -1.3870  0.0339 -0.1815
  397MOL0     O52273   9.382   8.348   2.834  0.0140 -0.1862  0.2681
  397MOL0     C52274   9.357   8.237   2.786  0.5270 -1.0405 -0.1055
  397MOL0     O52275   9.270   8.214   2.686  0.0385  0.1215  0.3249
  397MOL0     C52276   9.236   8.319   2.607  0.2382 -0.5698 -0.7100
  397MOL0     C52277   9.334   8.389   2.533  0.6516 -0.0760 -0.6814
  397MOL0     C52278   9.304   8.493   2.450  0.1574 -0.4582 -0.1912
  397MOL0     C52279   9.168   8.526   2.423  1.6050  1.1932 -0.9236
  397MOL0     O52280   9.141   8.625   2.324  0.1967  0.3259 -0.4943
  397MOL0     C52281   9.015   8.683   2.309 -0.3741 -0.6031  0.2303
  397MOL0     C52282   8.910   8.591   2.231 -0.0245 -0.4442  0.1431
  397MOL0     C52283   8.959   8.562   2.088 -0.2944  0.0632 -0.5011
  397MOL0     C52284   8.855   8.476   2.017  0.3779 -0.2544  0.0851
  397MOL0     C52285   8.889   8.453   1.869  0.6998  0.3944  0.2989
  397MOL0     C52286   8.850   8.317   1.816  0.4775 -0.4127  1.1186
  397MOL0     C52287   8.696   8.295   1.801 -0.0342  0.2314  0.0405
  397MOL0     C52288   8.674   8.164   1.723  0.2000 -0.3337 -0.7534
  397MOL0     N52289   8.703   8.171   1.577 -0.5756 -0.6449 -0.4376
  397MOL0     C52290   8.618   8.213   1.478  0.6074 -0.2116  0.8608
  397MOL0     C52291   8.675   8.183   1.356  1.0694 -0.0037 -0.1791
  397MOL0     C52292   8.621   8.190   1.219 -0.5210  0.3241  0.7824
  397MOL0     C52293   8.474   8.226   1.222 -0.4553  0.2817  0.6990
  397MOL0     C52294   8.422   8.228   1.069 -0.4585  1.0729 -0.1928
  397MOL0     C52295   8.276   8.278   1.067 -0.6343  0.1097 -0.7064
  397MOL0     O52296   8.289   8.418   1.107 -0.1713  0.1670 -0.3429
  397MOL0     C52297   8.174   8.470   1.143  0.5219  0.6529 -0.2932
  397MOL0     C52298   8.049   8.426   1.095  0.5580  0.2073 -0.9562
  397MOL0     C52299   7.933   8.493   1.141  0.0164  0.2611 -0.1331
  397MOL0     C52300   7.940   8.612   1.215 -0.1662  0.0733 -0.1141
  397MOL0     C52301   7.817   8.675   1.272 -0.2547  0.0576  0.9518
  397MOL0     O52302   7.698   8.612   1.222 -0.1510 -0.5238 -0.0099
  397MOL0     C52303   7.585   8.692   1.219 -0.5802  0.9204 -0.0466
  397MOL0     C52304   7.586   8.817   1.158  0.2476 -0.1108  0.2876
  397MOL0     C52305   7.464   8.895   1.164 -0.3131 -1.0758 -0.6681
  397MOL0     C52306   7.352   8.840   1.224 -0.2956 -0.5292  1.2857
  397MOL0     O52307   7.253   8.931   1.226 -0.0864 -0.4282  0.1352
  397MOL0     C52308   7.125   8.880   1.252  0.0252 -0.1727 -0.0619
  397MOL0     C52309   7.023   8.987   1.220 -0.4491 -0.4152 -0.5543
  397MOL0     C52310   6.888   8.929   1.253  0.1512 -0.0088  0.3393
  397MOL0     C52311   6.783   9.027   1.212  0.0095  0.2246  0.5419
  397MOL0     C52312   6.773   9.150   1.301 -0.8909 -0.5958 -0.8694
  397MOL0     C52313   6.740   9.132   1.454  0.1863  1.0247  0.8132
  397MOL0     C52314   6.748   9.255   1.542 -0.6359 -0.5149 -0.1819
  397MOL0     C52315   6.624   9.347   1.522 -0.0294 -0.0628 -0.0577
  397MOL0    Cl52316   6.468   9.291   1.589 -0.0688 -0.0669 -0.1370
  397MOL0     C52317   7.353   8.708   1.276 -0.8123  0.2126 -0.4776
  397MOL0     C52318   7.471   8.639   1.282 -0.4230 -0.8951  0.2281
  397MOL0     O52319   7.825   8.777   1.339  0.7501 -0.2669  0.3000
  397MOL0     C52320   8.066   8.651   1.261 -0.0118  0.2099 -0.5863
  397MOL0     C52321   8.176   8.573   1.230  0.4046 -0.4339 -0.1684
  397MOL0     N52322   8.798   8.125   1.378  0.3769 -0.9297  0.5657
  397MOL0     N52323   8.810   8.116   1.509 -0.3673 -0.0956  0.0932
  397MOL0     C52324   9.066   8.454   2.494  0.4961  1.2141  0.7789
  397MOL0     C52325   9.106   8.351   2.585  0.1962 -0.3893 -0.1639
  397MOL0     C52326   9.419   8.132   2.864  0.6601 -0.1500 -0.3843
  397MOL0     C52327   9.391   7.998   2.835  0.9678  0.3305  0.2316
  397MOL0     C52328   9.445   7.889   2.899  0.2489 -0.2692 -0.8554
  397MOL0     C52329   9.531   7.912   3.009  0.1539  0.2259  0.1300
  397MOL0     O52330   9.593   7.800   3.062  0.2781 -0.7829 -0.1139
  397MOL0     C52331   9.654   7.805   3.194 -0.3370 -0.7570 -0.8454
  397MOL0     C52332   9.546   7.821   3.299  0.5756  0.1097 -0.9703
  397MOL0     C52333   9.450   7.700   3.316  0.2159 -0.1923 -1.1114
  397MOL0     C52334   9.292   7.747   3.325  0.1333  0.0270  0.3383
  397MOL0     C52335   9.265   7.805   3.458  0.8645  0.4685  0.1107
  397MOL0     C52336   9.229   7.850   3.559 -0.3693 -0.2515  0.3248
  397MOL0     C52337   9.554   8.045   3.054 -0.8569 -0.4718  0.7306
  397MOL0     C52338   9.501   8.152   2.976 -0.2226  0.2557 -0.9219
  397MOL0     H52339   9.440   8.376   2.552  1.3070  1.4282 -2.9161
  397MOL0     H52340   9.377   8.551   2.394  2.7636 -2.3029  1.1530
  397MOL0     H52341   9.020   8.774   2.249  2.7653 -1.9560 -1.8282
  397MOL0     H52342   8.979   8.698   2.411  1.3432 -1.8532  1.0885
  397MOL0     H52343   8.813   8.641   2.236  1.6652  3.2363 -0.5316
  397MOL0     H52344   8.908   8.493   2.278  1.7166 -0.3870  0.3838
  397MOL0     H52345   9.057   8.512   2.092 -1.9244 -3.3519  0.1099
  397MOL0     H52346   8.969   8.654   2.030 -0.9627  1.5774  1.6692
  397MOL0     H52347   8.862   8.382   2.072  3.2035  0.5076  1.2176
  397MOL0     H52348   8.756   8.523   2.023  0.2250 -0.7024  1.2043
  397MOL0     H52349   8.998   8.457   1.858  0.6869  0.1653  0.0646
  397MOL0     H52350   8.852   8.539   1.813 -0.3466  1.9338  3.1988
  397MOL0     H52351   8.883   8.237   1.883  2.1259  0.6896  1.6836
  397MOL0     H52352   8.901   8.307   1.720 -0.1585 -0.5685  0.7906
  397MOL0     H52353   8.658   8.300   1.903 -2.7795  1.0210 -0.9537
  397MOL0     H52354   8.642   8.377   1.754 -1.1185 -1.0758 -1.0709
  397MOL0     H52355   8.567   8.145   1.738  0.0434  1.3338  0.5460
  397MOL0     H52356   8.726   8.083   1.774 -0.7870 -1.6992 -1.8061
  397MOL0     H52357   8.519   8.257   1.486 -0.5806 -2.1283 -1.6652
  397MOL0     H52358   8.635   8.090   1.176  3.5957  1.8734 -2.0672
  397MOL0     H52359   8.686   8.248   1.153  0.5797 -0.7417  0.8890
  397MOL0     H52360   8.470   8.320   1.279 -1.8883  0.0745  0.9823
  397MOL0     H52361   8.417   8.149   1.274 -1.2930 -0.6467 -1.4889
  397MOL0     H52362   8.494   8.291   1.016  1.6027  0.2401  1.4561
  397MOL0     H52363   8.435   8.130   1.022 -0.0018  1.1820 -0.2985
  397MOL0     H52364   8.221   8.218   1.140  0.9112  0.0226  0.4517
  397MOL0     H52365   8.239   8.273   0.965  1.2009  0.2511 -1.4212
  397MOL0     H52366   8.042   8.345   1.023  1.1024 -1.2563  0.5870
  397MOL0     H52367   7.837   8.457   1.105  0.7005  0.3470 -2.1834
  397MOL0     H52368   7.675   8.840   1.100 -2.1088  0.7477 -3.3438
  397MOL0     H52369   7.457   8.990   1.112 -1.7412  0.7291  2.5258
  397MOL0     H52370   7.108   8.851   1.356  0.6699  0.1615  0.1448
  397MOL0     H52371   7.104   8.789   1.195 -0.1556 -0.4118  0.3833
  397MOL0     H52372   7.028   9.013   1.113  1.1357 -1.0192 -0.6557
  397MOL0     H52373   7.044   9.078   1.277  3.6983 -0.1139 -2.2289
  397MOL0     H52374   6.883   8.919   1.362  0.9125  0.3553  0.4116
  397MOL0     H52375   6.865   8.832   1.208  0.0873 -0.0415  0.4420
  397MOL0     H52376   6.806   9.055   1.109 -1.2647 -0.7869 -0.0444
  397MOL0     H52377   6.692   8.967   1.201  0.6526 -0.6333 -0.1274
  397MOL0     H52378   6.677   9.189   1.267 -2.0087  2.0781  4.2970
  397MOL0     H52379   6.848   9.227   1.280  0.5860 -1.5414  0.6860
  397MOL0     H52380   6.820   9.070   1.495  1.2790  2.6717  1.2526
  397MOL0     H52381   6.648   9.081   1.485  0.2059  0.8176  0.5388
  397MOL0     H52382   6.757   9.237   1.649 -0.2283  2.7174  0.4050
  397MOL0     H52383   6.837   9.309   1.508  0.0182 -2.2571 -1.4156
  397MOL0     H52384   6.615   9.366   1.415  1.0576  0.7190 -0.0245
  397MOL0     H52385   6.658   9.438   1.571 -1.5898  0.3149  0.3742
  397MOL0     H52386   7.268   8.668   1.330 -0.6205  0.7467  0.2359
  397MOL0     H52387   7.486   8.542   1.329 -0.4793 -0.3653  1.3861
  397MOL0     H52388   8.072   8.735   1.330 -1.0130  0.4193 -0.7317
  397MOL0     H52389   8.268   8.601   1.280 -0.5351  1.9254  0.4081
  397MOL0     H52390   8.963   8.484   2.477  0.9791  2.6480  0.2098
  397MOL0     H52391   9.020   8.309   2.636  0.2330 -0.6701 -0.3312
  397MOL0     H52392   9.325   7.974   2.753  0.4022 -1.4978  1.1812
  397MOL0     H52393   9.424   7.788   2.865 -3.0826 -0.7083  1.9123
  397MOL0     H52394   9.723   7.890   3.195 -2.1282  0.7846 -0.1821
  397MOL0     H52395   9.715   7.717   3.213 -2.0602 -1.5577  1.3765
  397MOL0     H52396   9.597   7.839   3.395 -1.0413 -0.3176  0.0031
  397MOL0     H52397   9.481   7.903   3.268 -2.2008 -2.2407 -1.7799
  397MOL0     H52398   9.472   7.642   3.406  0.2694  2.3728  0.6233
  397MOL0     H52399   9.461   7.624   3.238 -0.8957  0.4640 -1.9353
  397MOL0     H52400   9.267   7.825   3.252  1.8543  0.2357 -0.0650
  397MOL0     H52401   9.229   7.660   3.307  2.3813 -1.1459 -2.7126
  397MOL0     H52402   9.184   7.912   3.635  2.7295  3.4133 -0.4807
  397MOL0     H52403   9.610   8.063   3.146 -0.9237 -1.2828  0.9384
  397MOL0     H52404   9.511   8.252   3.016 -0.3003 -0.0341 -0.1636
  398MOL0     O52405   3.782   2.086   5.019  0.4138  0.7033 -0.2284
  398MOL0     C52406   3.767   1.965   5.021 -0.0764  0.0596 -0.3418
  398MOL0     O52407   3.655   1.895   4.979  0.6698 -0.0166  0.0191
  398MOL0     C52408   3.543   1.964   4.933 -0.3505  0.0386 -0.2371
  398MOL0     C52409   3.547   2.052   4.830  0.1472 -0.3687  0.1609
  398MOL0     C52410   3.432   2.121   4.798 -0.3772  0.6267  0.2493
  398MOL0     C52411   3.310   2.099   4.857  0.8364 -0.0540 -0.4960
  398MOL0     O52412   3.202   2.178   4.807 -0.7492 -0.1187 -0.0418
  398MOL0     C52413   3.067   2.148   4.852  0.8956  0.0449 -0.5345
  398MOL0     C52414   2.977   2.261   4.794  0.0293 -0.2705  0.5752
  398MOL0     C52415   2.828   2.224   4.817  0.6843  0.0013  0.4258
  398MOL0     C52416   2.742   2.347   4.790 -0.2747 -0.8767 -0.6641
  398MOL0     C52417   2.592   2.322   4.803 -1.0688 -0.1269 -0.2361
  398MOL0     C52418   2.539   2.234   4.694  0.0692  0.5800  0.3068
  398MOL0     C52419   2.390   2.216   4.680 -0.3725  0.7989 -0.1746
  398MOL0     C52420   2.304   2.329   4.725  0.4180 -0.9688  0.1503
  398MOL0     N52421   2.164   2.337   4.682 -0.0431  0.3115  0.1618
  398MOL0     C52422   2.120   2.323   4.547 -0.4335 -0.3226 -0.8235
  398MOL0     C52423   1.997   2.377   4.554  0.3602  0.9165  0.7811
  398MOL0     C52424   1.919   2.399   4.427 -0.6695  0.1885  0.6518
  398MOL0     C52425   1.779   2.454   4.450 -0.6575 -0.0499  0.0749
  398MOL0     C52426   1.694   2.501   4.337 -0.1160 -0.3098  0.2995
  398MOL0     C52427   1.555   2.525   4.382 -0.6860 -0.0037 -0.3783
  398MOL0     O52428   1.491   2.623   4.301  0.1025  0.3439 -0.9482
  398MOL0     C52429   1.365   2.658   4.334  0.7904  0.6827 -0.6420
  398MOL0     C52430   1.285   2.630   4.452  0.0641  0.3881 -0.9958
  398MOL0     C52431   1.150   2.663   4.454  0.5140 -1.0430  0.5562
  398MOL0     C52432   1.084   2.727   4.343  0.5266 -0.1281  0.3918
  398MOL0     C52433   0.946   2.779   4.337 -0.3208 -0.6494 -0.3739
  398MOL0     O52434   0.863   2.753   4.438  0.3063 -0.3092  0.0130
  398MOL0     C52435   0.728   2.786   4.434  0.4182 -0.8028 -0.0276
  398MOL0     C52436   0.675   2.900   4.376 -0.3650 -0.0871  1.6546
  398MOL0     C52437   0.550   2.944   4.387  1.1401 -1.0744 -0.9653
  398MOL0     C52438   0.457   2.866   4.462  0.2031  0.1753 -0.0979
  398MOL0     O52439   0.324   2.905   4.476  0.9441  0.1176  0.1831
  398MOL0     C52440   0.285   3.018   4.398  0.7394 -0.8701  1.1267
  398MOL0     C52441   0.139   3.054   4.414 -0.5314  0.1583  0.5675
  398MOL0     C52442   0.039   2.940   4.401  0.0945  0.1734  0.2114
  398MOL0     C52443  -0.106   2.986   4.412 -0.1316  0.4980 -0.0105
  398MOL0     C52444  -0.198   2.859   4.393  0.1308 -0.1986 -0.7581
  398MOL0     C52445  -0.348   2.885   4.430  0.1043  0.2497  0.0826
  398MOL0     C52446  -0.420   2.744   4.435  0.2074 -0.7144 -1.2562
  398MOL0     C52447  -0.550   2.757   4.513 -0.4949  0.4693 -0.0084
  398MOL0    Cl52448  -0.533   2.764   4.688 -0.0057  0.0377  0.1650
  398MOL0     C52449   0.500   2.756   4.525 -0.2054 -0.5480  0.5340
  398MOL0     C52450   0.637   2.718   4.513  0.0533 -0.3870 -0.8185
  398MOL0     O52451   0.913   2.819   4.224  0.3223 -0.5863  0.0407
  398MOL0     C52452   1.161   2.751   4.228 -0.6349 -0.5796 -0.8489
  398MOL0     C52453   1.300   2.728   4.230  0.2035 -0.5595 -0.3711
  398MOL0     N52454   1.966   2.422   4.679 -0.4272  0.3122 -0.8778
  398MOL0     N52455   2.064   2.393   4.755 -0.5829  0.0819  0.2699
  398MOL0     C52456   3.302   2.008   4.967  0.3169  0.0353 -0.1326
  398MOL0     C52457   3.422   1.939   4.997 -0.0035  0.3075  1.3094
  398MOL0     C52458   3.892   1.884   5.050 -0.2924 -0.0072  0.1828
  398MOL0     C52459   4.006   1.930   5.112  0.8440 -0.1536 -0.5991
  398MOL0     C52460   4.120   1.850   5.106  0.9839  0.3046  0.8616
  398MOL0     C52461   4.126   1.720   5.060  0.3072 -0.4720  0.6344
  398MOL0     O52462   4.254   1.671   5.052 -0.2615  0.2870  0.5739
  398MOL0     C52463   4.290   1.551   4.979  0.1537  0.1335 -0.4410
  398MOL0     C52464   4.433   1.540   4.928  0.2776  0.4973 -0.3767
  398MOL0     C52465   4.523   1.466   5.016 -0.8458 -0.5393 -0.4397
  398MOL0     C52466   4.532   1.507   5.164  0.8627 -1.4900  0.3722
  398MOL0     C52467   4.585   1.398   5.250 -0.1244 -0.5996  0.1123
  398MOL0     C52468   4.647   1.307   5.305 -0.0671 -0.7975 -0.3748
  398MOL0     C52469   4.002   1.663   5.020  0.1219 -0.1852  0.8049
  398MOL0     C52470   3.890   1.747   5.004 -0.7513 -0.2109  0.5911
  398MOL0     H52471   3.636   2.080   4.775 -0.3949 -0.8707 -1.0187
  398MOL0     H52472   3.426   2.172   4.703  0.8239 -0.7677 -0.6226
  398MOL0     H52473   3.071   2.149   4.961  2.9263  0.6778 -0.5675
  398MOL0     H52474   3.037   2.051   4.811  1.9626 -0.9028  0.8271
  398MOL0     H52475   2.996   2.279   4.687  1.0312  1.4080  1.0064
  398MOL0     H52476   3.007   2.352   4.846  1.2816 -0.3803  0.0729
  398MOL0     H52477   2.809   2.194   4.921 -2.6852  0.3935  0.0410
  398MOL0     H52478   2.813   2.139   4.750 -0.0779  0.7389 -0.3589
  398MOL0     H52479   2.766   2.423   4.865 -1.9957 -0.4444 -0.4990
  398MOL0     H52480   2.767   2.383   4.690  0.8896  2.5038  0.7067
  398MOL0     H52481   2.530   2.411   4.792 -2.9890 -1.4872 -0.8127
  398MOL0     H52482   2.572   2.290   4.906 -2.1742 -1.4035 -0.8151
  398MOL0     H52483   2.581   2.135   4.714  1.1089  0.5158 -1.9096
  398MOL0     H52484   2.586   2.268   4.602 -2.0628  1.9985 -0.3254
  398MOL0     H52485   2.375   2.184   4.576  1.7803 -0.2470 -0.2344
  398MOL0     H52486   2.365   2.136   4.751 -1.5873  2.8532  1.8243
  398MOL0     H52487   2.350   2.416   4.678  0.1662 -1.8214 -1.7761
  398MOL0     H52488   2.312   2.348   4.832  0.7608  0.5680 -0.1254
  398MOL0     H52489   2.190   2.283   4.474  2.5169 -0.1799  1.7498
  398MOL0     H52490   1.909   2.300   4.382 -2.8413  1.7994 -2.8456
  398MOL0     H52491   1.980   2.468   4.368  0.2866  0.0203  1.4293
  398MOL0     H52492   1.773   2.533   4.525 -0.0028 -0.2749  0.3714
  398MOL0     H52493   1.719   2.377   4.500 -1.5672  0.0861 -0.7665
  398MOL0     H52494   1.742   2.592   4.301  3.5758 -1.8370  0.9069
  398MOL0     H52495   1.689   2.438   4.247 -2.4874  1.8080 -1.1992
  398MOL0     H52496   1.556   2.566   4.484  0.3701  0.3868 -0.5356
  398MOL0     H52497   1.495   2.434   4.393 -1.8939  0.9869  2.2824
  398MOL0     H52498   1.332   2.594   4.542  2.4484  0.2801 -2.1930
  398MOL0     H52499   1.094   2.650   4.546 -3.2869 -1.7825 -1.6399
  398MOL0     H52500   0.735   2.954   4.304 -1.5532 -1.2892 -0.3336
  398MOL0     H52501   0.525   3.040   4.344  2.9676 -0.5971 -1.0316
  398MOL0     H52502   0.296   2.989   4.293 -1.0230 -2.8326  1.4306
  398MOL0     H52503   0.347   3.106   4.420  0.4177 -0.5357  0.7036
  398MOL0     H52504   0.115   3.123   4.333 -1.7027 -0.8997 -0.0102
  398MOL0     H52505   0.138   3.104   4.511 -1.6068 -1.2531  1.3155
  398MOL0     H52506   0.061   2.866   4.478  1.2725  1.9434  1.6612
  398MOL0     H52507   0.051   2.899   4.300 -3.3899  1.6304 -0.9455
  398MOL0     H52508  -0.129   3.022   4.513 -1.5904 -0.5700  0.0746
  398MOL0     H52509  -0.139   3.060   4.339 -2.1778  0.0634  0.4343
  398MOL0     H52510  -0.155   2.778   4.452  1.7888  0.2312 -1.3166
  398MOL0     H52511  -0.210   2.817   4.293  0.8680 -1.4284 -0.3480
  398MOL0     H52512  -0.392   2.953   4.356  0.8104 -0.7816 -1.3462
  398MOL0     H52513  -0.349   2.931   4.529  3.0228 -1.3267  0.9616
  398MOL0     H52514  -0.446   2.729   4.330 -0.6075 -1.8480 -0.9089
  398MOL0     H52515  -0.357   2.659   4.461  0.1367 -1.0589 -2.1947
  398MOL0     H52516  -0.601   2.662   4.493 -1.4391  1.4621 -2.8847
  398MOL0     H52517  -0.604   2.842   4.471  1.7647  2.0619  0.1144
  398MOL0     H52518   0.429   2.697   4.583  0.1054 -3.0002 -1.4016
  398MOL0     H52519   0.686   2.647   4.581 -0.7103  1.5910  1.9760
  398MOL0     H52520   1.126   2.794   4.134 -2.2080 -1.9578 -0.9317
  398MOL0     H52521   1.352   2.752   4.137  3.8401  0.1292  1.6636
  398MOL0     H52522   3.218   1.989   5.034  0.6811  3.0276  1.3583
  398MOL0     H52523   3.423   1.863   5.074  0.3299 -0.0752  0.9275
  398MOL0     H52524   4.019   2.029   5.155 -4.6838  0.8628 -0.5070
  398MOL0     H52525   4.221   1.883   5.127  1.2270 -1.2333  2.2911
  398MOL0     H52526   4.222   1.541   4.894  0.0419  1.7333 -0.5701
  398MOL0     H52527   4.268   1.463   5.039 -1.5677  0.9147  0.1174
  398MOL0     H52528   4.444   1.483   4.835  1.8999 -1.6075  0.9911
  398MOL0     H52529   4.467   1.643   4.912  3.0670 -0.6425 -2.8702
  398MOL0     H52530   4.624   1.485   4.979 -0.4589 -2.2524 -0.3443
  398MOL0     H52531   4.497   1.361   4.998 -2.8700  0.0526 -1.2768
  398MOL0     H52532   4.584   1.603   5.162 -1.4891 -0.1330  0.1198
  398MOL0     H52533   4.432   1.534   5.201  1.4573 -3.1173  3.4740
  398MOL0     H52534   4.705   1.230   5.352 -2.5211 -0.5422  3.5625
  398MOL0     H52535   4.004   1.559   4.988 -1.6102  0.4871 -1.8066
  398MOL0     H52536   3.810   1.699   4.949 -0.0071 -1.1000  0.2607
  399MOL0     O52537   3.886   2.426   9.863 -0.2999 -0.1808  0.4074
  399MOL0     C52538   3.928   2.342   9.785 -0.0843  0.4394  0.2092
  399MOL0     O52539   3.862   2.303   9.669  0.0742 -0.0213 -0.9394
  399MOL0     C52540   3.741   2.368   9.651  0.4409  0.0914 -0.2570
  399MOL0     C52541   3.733   2.473   9.563  0.1189 -0.6575  0.7096
  399MOL0     C52542   3.620   2.538   9.524  1.2268 -0.2093 -0.5478
  399MOL0     C52543   3.495   2.502   9.582  0.0190 -0.7629 -0.1300
  399MOL0     O52544   3.385   2.585   9.557 -0.4592 -0.3331 -0.4466
  399MOL0     C52545   3.260   2.539   9.610  0.4945  0.0422  0.0787
  399MOL0     C52546   3.148   2.639   9.582 -1.0158 -0.1893 -0.7820
  399MOL0     C52547   3.011   2.571   9.597 -0.3917  1.0190  0.1823
  399MOL0     C52548   2.897   2.678   9.604  0.2993 -0.5207 -0.2371
  399MOL0     C52549   2.758   2.614   9.596  0.0910 -0.4239 -0.6072
  399MOL0     C52550   2.652   2.701   9.672 -0.9419 -0.0556 -0.7032
  399MOL0     C52551   2.512   2.633   9.654  0.3223  0.0543  0.3905
  399MOL0     C52552   2.395   2.717   9.701  1.1190 -0.0019  0.1844
  399MOL0     N52553   2.389   2.847   9.647  0.4856  0.4884  0.8473
  399MOL0     C52554   2.342   2.875   9.517  0.9461  0.2497 -0.6406
  399MOL0     C52555   2.303   2.999   9.514  0.1461  0.1492  0.2659
  399MOL0     C52556   2.234   3.084   9.404 -0.4665 -0.6910 -0.9102
  399MOL0     C52557   2.084   3.052   9.420  0.0537 -0.0522  1.0300
  399MOL0     C52558   2.002   3.104   9.298 -0.1109 -0.0718 -0.0912
  399MOL0     C52559   1.963   3.252   9.301  0.1918  0.8333 -0.1773
  399MOL0     O52560   1.907   3.286   9.424 -0.0207 -0.4753 -0.0880
  399MOL0     C52561   1.825   3.394   9.416  0.1437 -0.7589  1.2187
  399MOL0     C52562   1.744   3.406   9.532 -0.5458  0.3351 -0.7483
  399MOL0     C52563   1.651   3.504   9.549 -0.0850 -0.2341  0.3913
  399MOL0     C52564   1.634   3.602   9.440  0.5151  0.2528 -0.3412
  399MOL0     C52565   1.515   3.688   9.449 -1.2877 -1.6008  0.1378
  399MOL0     O52566   1.441   3.679   9.567  0.3836 -0.1706 -0.1498
  399MOL0     C52567   1.332   3.764   9.579  0.0043  0.5016 -0.4979
  399MOL0     C52568   1.228   3.783   9.481  0.3155  0.7058  0.3877
  399MOL0     C52569   1.125   3.865   9.505  0.0175  0.1768 -0.1541
  399MOL0     C52570   1.123   3.926   9.629  0.1763 -1.3191 -0.2107
  399MOL0     O52571   1.018   3.995   9.679  0.2392 -0.6583 -0.0188
  399MOL0     C52572   0.911   4.018   9.590  0.1071 -0.2659 -0.1000
  399MOL0     C52573   0.813   4.099   9.680  0.2840  0.4820  0.5190
  399MOL0     C52574   0.744   4.013   9.779  1.8367  1.3866  0.1683
  399MOL0     C52575   0.634   4.075   9.864 -0.0193  0.5325  0.2458
  399MOL0     C52576   0.572   3.980   9.974 -0.9155 -1.1138  0.3378
  399MOL0     C52577   0.461   3.901   9.916  0.5693  0.7175  0.3882
  399MOL0     C52578   0.409   3.778  10.000 -0.8968 -0.3920 -0.3234
  399MOL0     C52579   0.282   3.716   9.952  0.3270  0.4058 -0.1055
  399MOL0    Cl52580   0.148   3.839   9.985 -0.2955  0.3655 -0.2184
  399MOL0     C52581   1.210   3.897   9.731  0.0116 -0.0659 -0.2971
  399MOL0     C52582   1.325   3.831   9.696 -0.6314  1.3377  0.1977
  399MOL0     O52583   1.493   3.767   9.353  0.1320  0.2214 -0.4291
  399MOL0     C52584   1.714   3.589   9.321 -0.1960  0.2464 -0.1474
  399MOL0     C52585   1.802   3.488   9.311 -0.0695 -0.4230 -0.1455
  399MOL0     N52586   2.327   3.053   9.642 -0.2990 -0.1040  0.2254
  399MOL0     N52587   2.382   2.964   9.714  0.6362 -0.2239  0.8177
  399MOL0     C52588   3.499   2.401   9.682 -0.1291 -0.0370  0.0975
  399MOL0     C52589   3.616   2.321   9.714 -1.2129  0.0868  0.4582
  399MOL0     C52590   4.055   2.265   9.808 -0.1592 -0.4380  0.1007
  399MOL0     C52591   4.105   2.251   9.939 -0.6171  0.1645  0.0618
  399MOL0     C52592   4.221   2.187   9.967 -0.2148  1.0642 -0.6896
  399MOL0     C52593   4.303   2.138   9.867  0.4020  0.0480 -0.8175
  399MOL0     O52594   4.420   2.066   9.886 -0.2843 -0.8828 -0.6803
  399MOL0     C52595   4.503   2.105   9.994  0.1809 -0.9128 -0.1218
  399MOL0     C52596   4.535   1.980  10.081 -0.2063  0.0687  0.7907
  399MOL0     C52597   4.587   2.033  10.223  0.1851  0.6494  0.3320
  399MOL0     C52598   4.625   1.931  10.327 -0.1347  0.3657  0.5195
  399MOL0     C52599   4.513   1.846  10.368  0.5993 -0.4208  0.6029
  399MOL0     C52600   4.413   1.781  10.387  0.0496 -0.0510  0.0931
  399MOL0     C52601   4.250   2.147   9.736  0.6496  0.8710  0.8829
  399MOL0     C52602   4.129   2.209   9.703  0.8096 -0.6959 -0.1752
  399MOL0     H52603   3.824   2.500   9.511 -2.1082  0.8580 -2.7662
  399MOL0     H52604   3.615   2.617   9.450  1.0539 -1.5738 -2.0540
  399MOL0     H52605   3.268   2.505   9.714 -2.1783 -0.9497  0.0464
  399MOL0     H52606   3.240   2.456   9.542  1.5802 -0.7997  0.7660
  399MOL0     H52607   3.161   2.672   9.479 -4.3746 -1.0154 -1.6212
  399MOL0     H52608   3.169   2.722   9.649  1.9994 -0.0837 -1.6931
  399MOL0     H52609   2.990   2.520   9.692 -1.8849 -6.2517 -3.3604
  399MOL0     H52610   2.999   2.495   9.520 -0.1139  0.6227  0.5257
  399MOL0     H52611   2.902   2.740   9.694  0.1253  0.5941 -0.9818
  399MOL0     H52612   2.918   2.740   9.517  3.1313 -1.3397 -0.2421
  399MOL0     H52613   2.756   2.513   9.638  3.3116  0.5760  2.5196
  399MOL0     H52614   2.732   2.604   9.490 -1.1413  1.5905 -0.5488
  399MOL0     H52615   2.653   2.799   9.622 -0.9746  0.9780  1.2484
  399MOL0     H52616   2.691   2.707   9.774  5.1188 -3.8802 -2.2996
  399MOL0     H52617   2.509   2.611   9.547  2.0673 -0.3916  0.4049
  399MOL0     H52618   2.505   2.537   9.705 -0.9714  0.3448  0.7997
  399MOL0     H52619   2.418   2.726   9.808  0.8941  2.2494  0.0828
  399MOL0     H52620   2.305   2.656   9.688  1.2623  0.0613 -1.1978
  399MOL0     H52621   2.334   2.806   9.434  2.3630  1.5264 -1.9325
  399MOL0     H52622   2.286   3.053   9.313  0.2125 -0.0362 -0.7577
  399MOL0     H52623   2.254   3.190   9.422 -2.2706 -0.2561 -1.2688
  399MOL0     H52624   2.054   3.101   9.512  1.2810  0.6022  1.1044
  399MOL0     H52625   2.076   2.942   9.422 -0.9567 -0.1413 -2.0614
  399MOL0     H52626   2.044   3.074   9.202 -0.2710 -1.5902  0.2806
  399MOL0     H52627   1.911   3.045   9.314  0.1880 -0.2510  1.0999
  399MOL0     H52628   1.900   3.262   9.212 -0.8062  2.0725  0.6251
  399MOL0     H52629   2.050   3.317   9.293  1.0576 -0.4845 -2.4995
  399MOL0     H52630   1.753   3.331   9.611  1.6632  3.2665  2.0449
  399MOL0     H52631   1.600   3.506   9.645  1.0520  0.6385  1.0045
  399MOL0     H52632   1.236   3.745   9.379 -1.9292 -0.4247  0.5754
  399MOL0     H52633   1.048   3.877   9.429  0.3288 -2.0138 -0.8692
  399MOL0     H52634   0.868   3.928   9.546  0.7581 -1.1282  0.9763
  399MOL0     H52635   0.945   4.077   9.505  1.2727 -1.3553 -0.4167
  399MOL0     H52636   0.733   4.142   9.619  0.3201 -0.7238 -0.4383
  399MOL0     H52637   0.865   4.179   9.733  1.1301  0.7984 -0.7454
  399MOL0     H52638   0.808   3.967   9.854  1.6149  0.2350 -0.3323
  399MOL0     H52639   0.710   3.928   9.720  3.1740  1.4734 -0.7513
  399MOL0     H52640   0.688   4.163   9.901  2.3616  0.6253 -3.0112
  399MOL0     H52641   0.545   4.107   9.809  0.5780  1.5734 -0.1412
  399MOL0     H52642   0.526   4.052  10.042 -0.4455  2.0220 -2.4406
  399MOL0     H52643   0.649   3.922  10.027 -0.5846 -1.3891 -0.4322
  399MOL0     H52644   0.498   3.853   9.826 -3.6159 -1.2194 -0.5349
  399MOL0     H52645   0.375   3.964   9.890 -0.4208 -0.8241 -0.1706
  399MOL0     H52646   0.490   3.704  10.001 -0.3047  0.2376 -0.9650
  399MOL0     H52647   0.387   3.797  10.106 -0.5326  1.5207 -0.5583
  399MOL0     H52648   0.263   3.626  10.011  3.8365  0.9544  2.1745
  399MOL0     H52649   0.306   3.701   9.847  3.4707  0.0665  0.5868
  399MOL0     H52650   1.196   3.935   9.831  2.0501  2.3089 -0.8397
  399MOL0     H52651   1.404   3.824   9.770  1.2447  1.2331 -1.7278
  399MOL0     H52652   1.687   3.659   9.242  1.6122  0.6428 -0.4546
  399MOL0     H52653   1.856   3.479   9.217  1.5455 -1.9336  0.8635
  399MOL0     H52654   3.408   2.364   9.728 -1.4819  2.3188 -0.5015
  399MOL0     H52655   3.610   2.233   9.778 -0.3576  0.2055  0.7188
  399MOL0     H52656   4.059   2.293  10.028  1.1347 -0.9698  1.5893
  399MOL0     H52657   4.260   2.176  10.068 -1.1230  1.0492 -0.3342
  399MOL0     H52658   4.467   2.185  10.059  0.9819 -1.3275  0.8430
  399MOL0     H52659   4.593   2.146   9.948  0.3499  1.3755  2.0474
  399MOL0     H52660   4.448   1.915  10.084 -0.1957  0.0238  0.1903
  399MOL0     H52661   4.611   1.924  10.026 -1.2613  0.0433 -0.7075
  399MOL0     H52662   4.501   2.089  10.262  0.0106  0.2707  0.4942
  399MOL0     H52663   4.680   2.087  10.203  0.6829 -0.3885 -0.2588
  399MOL0     H52664   4.710   1.868  10.299  0.2949  1.3462 -0.5029
  399MOL0     H52665   4.659   1.983  10.417  1.4189 -2.4309  1.6760
  399MOL0     H52666   4.333   1.717  10.419 -2.6203  3.4971  1.2805
  399MOL0     H52667   4.318   2.123   9.655  0.3776 -1.5961  1.3089
  399MOL0     H52668   4.107   2.228   9.599  0.9249 -0.0614 -0.0888
  400MOL0     O52669   4.714   4.545   4.159 -0.0492  0.2994  0.0032
  400MOL0     C52670   4.800   4.564   4.068 -0.3948  0.8499 -1.4485
  400MOL0     O52671   4.777   4.625   3.943  0.3147  0.0782  0.4523
  400MOL0     C52672   4.651   4.682   3.934  0.1965  0.0386 -0.9770
  400MOL0     C52673   4.644   4.821   3.950  0.7556  0.7267  0.0311
  400MOL0     C52674   4.520   4.897   3.929 -0.4973  0.3464 -0.4397
  400MOL0     C52675   4.406   4.817   3.900  0.3828  0.0026  0.6137
  400MOL0     O52676   4.283   4.855   3.869 -0.4311  0.3531  0.2079
  400MOL0     C52677   4.257   4.994   3.870 -0.1166  0.3956  0.6801
  400MOL0     C52678   4.121   5.032   3.830 -0.0086  0.3796  0.3861
  400MOL0     C52679   4.019   4.960   3.910  0.5264 -0.1807 -0.1135
  400MOL0     C52680   4.020   5.022   4.056  0.8246 -0.9974 -0.9040
  400MOL0     C52681   3.912   4.950   4.140  0.0015  0.6047 -0.3251
  400MOL0     C52682   3.872   5.016   4.271 -0.1296  0.3876 -0.2832
  400MOL0     C52683   3.994   5.071   4.349  0.9458  0.3220  0.1260
  400MOL0     C52684   4.112   4.975   4.390  0.7849 -0.6012 -0.4855
  400MOL0     N52685   4.092   4.934   4.531 -0.3007 -0.6386  0.1060
  400MOL0     C52686   3.979   4.877   4.575 -0.3303 -0.2242 -0.1842
  400MOL0     C52687   3.995   4.872   4.708  0.0508  0.1709  0.3227
  400MOL0     C52688   3.919   4.807   4.826 -0.5425 -0.4309 -0.0657
  400MOL0     C52689   3.937   4.658   4.839  0.1898  0.0223 -0.1787
  400MOL0     C52690   3.831   4.596   4.925  0.3059  0.0014  0.2512
  400MOL0     C52691   3.687   4.634   4.894 -0.3187  0.3288  0.8370
  400MOL0     O52692   3.600   4.582   4.993 -0.4583 -0.0455 -0.1520
  400MOL0     C52693   3.465   4.612   5.007 -0.4086 -0.6807  0.0726
  400MOL0     C52694   3.433   4.650   5.134  0.3966  0.5391  0.2280
  400MOL0     C52695   3.299   4.684   5.174  0.0617 -0.3144 -0.6279
  400MOL0     C52696   3.199   4.681   5.075 -0.3587 -0.2062  0.7027
  400MOL0     C52697   3.061   4.740   5.110  0.0850 -0.0836 -0.2757
  400MOL0     O52698   2.974   4.748   5.005 -0.5874  0.3199  0.4161
  400MOL0     C52699   2.856   4.806   5.017  0.4938  0.0869 -1.1141
  400MOL0     C52700   2.808   4.903   5.106 -0.6523 -0.0005  0.6298
  400MOL0     C52701   2.674   4.944   5.106 -0.6191  0.3773  0.5028
  400MOL0     C52702   2.585   4.903   5.010  0.2794  0.5706  0.3900
  400MOL0     O52703   2.457   4.949   5.004 -0.5489 -0.6119 -0.1886
  400MOL0     C52704   2.361   4.846   4.961  0.0538 -0.2246  0.3318
  400MOL0     C52705   2.223   4.895   4.987 -1.0398 -0.5129 -0.1398
  400MOL0     C52706   2.111   4.802   4.969  0.4813 -0.3343 -0.2421
  400MOL0     C52707   1.985   4.889   4.984 -0.2460 -0.8530 -0.1735
  400MOL0     C52708   1.869   4.827   4.915  0.6336  0.0170 -0.0955
  400MOL0     C52709   1.741   4.911   4.950 -0.2128 -0.9121  0.2531
  400MOL0     C52710   1.618   4.865   4.878  0.1849  0.2487 -0.6104
  400MOL0     C52711   1.497   4.849   4.985  0.1866 -0.0970 -0.5233
  400MOL0    Cl52712   1.348   4.821   4.880  0.5179 -0.4349 -0.0471
  400MOL0     C52713   2.639   4.817   4.918  0.0849 -0.1157  0.0129
  400MOL0     C52714   2.765   4.765   4.918 -0.3519 -0.8181 -0.0248
  400MOL0     O52715   3.041   4.781   5.221  0.6652 -0.3244  0.0350
  400MOL0     C52716   3.233   4.637   4.939  0.0028 -0.3312 -0.2655
  400MOL0     C52717   3.368   4.611   4.900  0.5451  0.0439 -0.2995
  400MOL0     N52718   4.115   4.935   4.739 -0.7246 -0.6442 -0.2360
  400MOL0     N52719   4.182   4.971   4.631  0.0800 -0.3971 -0.0705
  400MOL0     C52720   4.418   4.678   3.893 -0.2846 -0.0259  0.3576
  400MOL0     C52721   4.537   4.610   3.896 -0.5228 -0.3688 -0.0547
  400MOL0     C52722   4.933   4.509   4.084  0.1651  0.7717  0.0617
  400MOL0     C52723   4.964   4.407   4.180 -0.2350 -0.0341 -0.3796
  400MOL0     C52724   5.094   4.346   4.184  0.4787 -0.2200  0.2569
  400MOL0     C52725   5.189   4.379   4.092 -0.4445 -0.1353  0.9029
  400MOL0     O52726   5.311   4.307   4.099 -0.4485 -0.6554 -0.4946
  400MOL0     C52727   5.413   4.318   3.996 -0.4642 -0.0721 -0.7935
  400MOL0     C52728   5.548   4.297   4.071  0.7422  0.6341  0.7518
  400MOL0     C52729   5.576   4.405   4.171 -0.8169  0.5263 -1.4667
  400MOL0     C52730   5.710   4.386   4.239 -0.9851 -0.6109  0.0594
  400MOL0     C52731   5.827   4.437   4.163  0.3096  0.1039 -0.5778
  400MOL0     C52732   5.921   4.485   4.100 -0.4713  0.7036 -0.6568
  400MOL0     C52733   5.163   4.489   4.008 -0.8945 -0.2728 -0.1369
  400MOL0     C52734   5.035   4.541   3.995 -0.3569 -0.0237  0.1348
  400MOL0     H52735   4.729   4.869   3.996  0.5329 -0.4940  1.7955
  400MOL0     H52736   4.510   5.004   3.945 -0.6241 -0.0424  2.6379
  400MOL0     H52737   4.325   5.042   3.799 -1.5010 -0.3997 -1.2924
  400MOL0     H52738   4.295   5.034   3.965  1.6308 -0.0296  0.1958
  400MOL0     H52739   4.118   5.003   3.725  4.5678  0.1909  0.1049
  400MOL0     H52740   4.109   5.141   3.830 -1.4991  0.3144 -2.7361
  400MOL0     H52741   4.033   4.852   3.906 -1.3033 -0.4056 -2.7768
  400MOL0     H52742   3.921   4.971   3.864  1.4648 -0.1955 -2.1946
  400MOL0     H52743   4.117   5.011   4.104  1.3820 -0.0145 -1.7696
  400MOL0     H52744   3.991   5.128   4.051  2.3701 -0.6020 -5.1638
  400MOL0     H52745   3.957   4.857   4.176 -2.5481 -0.9951 -0.9725
  400MOL0     H52746   3.825   4.941   4.074 -0.5878  3.3191 -0.0482
  400MOL0     H52747   3.801   4.958   4.332  0.3881 -1.4931 -1.3816
  400MOL0     H52748   3.809   5.099   4.237  1.8029  1.7655 -0.6201
  400MOL0     H52749   4.045   5.140   4.281  0.1608 -0.7205 -1.5747
  400MOL0     H52750   3.948   5.120   4.436 -0.8221  0.8767 -1.0658
  400MOL0     H52751   4.213   5.018   4.389  0.5493 -0.0355 -0.7854
  400MOL0     H52752   4.110   4.885   4.329  4.1129 -2.7220  2.1687
  400MOL0     H52753   3.896   4.830   4.521 -1.1412 -1.4459  2.0140
  400MOL0     H52754   3.816   4.832   4.800 -1.6476 -3.6241  0.7299
  400MOL0     H52755   3.948   4.860   4.917  2.0025  0.1034 -1.0952
  400MOL0     H52756   4.037   4.633   4.875  0.4078 -2.4683 -2.2312
  400MOL0     H52757   3.937   4.604   4.743 -1.2072 -0.4623  0.0701
  400MOL0     H52758   3.837   4.487   4.913  1.7351  0.0841  0.0310
  400MOL0     H52759   3.840   4.639   5.025 -0.0894 -0.2392  0.3939
  400MOL0     H52760   3.662   4.601   4.793 -1.5438  0.4631  1.0746
  400MOL0     H52761   3.674   4.742   4.902 -1.4772  0.5451 -2.4008
  400MOL0     H52762   3.512   4.655   5.208  0.7604 -1.1217 -0.0024
  400MOL0     H52763   3.280   4.704   5.279 -0.2423 -1.3774 -0.4735
  400MOL0     H52764   2.883   4.940   5.175  0.4284 -0.6832 -0.1369
  400MOL0     H52765   2.640   5.016   5.179 -0.9688  1.6982 -0.9181
  400MOL0     H52766   2.366   4.753   5.018  0.6026 -0.7166 -0.4874
  400MOL0     H52767   2.362   4.830   4.852 -5.3689 -4.0873  0.4456
  400MOL0     H52768   2.199   4.971   4.912 -0.9607 -1.1332 -0.7984
  400MOL0     H52769   2.220   4.946   5.084 -0.4084 -1.8619  0.6120
  400MOL0     H52770   2.101   4.724   5.044 -2.7649 -1.8393 -2.0345
  400MOL0     H52771   2.118   4.757   4.869 -2.2021  2.4725 -1.8833
  400MOL0     H52772   1.959   4.905   5.089  2.1838 -0.3527  0.4110
  400MOL0     H52773   2.000   4.985   4.934 -0.3323 -1.6690 -1.8372
  400MOL0     H52774   1.847   4.731   4.962  0.9126 -0.9352 -1.8017
  400MOL0     H52775   1.895   4.823   4.808  0.5088 -0.6548 -0.1090
  400MOL0     H52776   1.755   5.014   4.916 -1.1168 -1.0019 -0.4304
  400MOL0     H52777   1.726   4.911   5.059  0.1613  0.5537  0.3383
  400MOL0     H52778   1.581   4.933   4.800 -4.1324 -1.5142 -0.3602
  400MOL0     H52779   1.630   4.767   4.831 -4.9467 -1.7267  1.4841
  400MOL0     H52780   1.490   4.946   5.035  0.4637 -0.4319  0.1733
  400MOL0     H52781   1.518   4.775   5.063 -1.4378  1.1451  1.1686
  400MOL0     H52782   2.583   4.775   4.835  1.6474 -0.7849 -0.7291
  400MOL0     H52783   2.797   4.703   4.834 -0.4339  1.0495 -1.4828
  400MOL0     H52784   3.157   4.651   4.863  0.8218 -2.2502 -1.5191
  400MOL0     H52785   3.402   4.596   4.798 -1.9063 -0.0107 -1.1737
  400MOL0     H52786   4.321   4.629   3.888 -0.2245 -0.2455  1.2038
  400MOL0     H52787   4.541   4.501   3.893 -0.0694 -0.3486 -2.3744
  400MOL0     H52788   4.883   4.371   4.242  0.2732 -0.3312  0.1273
  400MOL0     H52789   5.113   4.267   4.256 -0.6427 -1.5295 -0.8361
  400MOL0     H52790   5.415   4.408   3.933 -2.4150  0.1564 -0.6196
  400MOL0     H52791   5.389   4.242   3.921  1.5173  0.3111 -1.8759
  400MOL0     H52792   5.531   4.203   4.124  2.7538 -1.4979 -2.0491
  400MOL0     H52793   5.631   4.285   4.000  2.5190  0.9642  2.6510
  400MOL0     H52794   5.499   4.411   4.249 -3.0634  2.9487 -3.6831
  400MOL0     H52795   5.577   4.509   4.136  1.0852  0.9901 -0.2265
  400MOL0     H52796   5.709   4.455   4.324 -1.0829 -1.5494  0.8331
  400MOL0     H52797   5.721   4.280   4.263  1.3275 -1.3406 -3.4539
  400MOL0     H52798   5.999   4.521   4.036 -0.7988 -0.5567 -1.7974
  400MOL0     H52799   5.236   4.534   3.942  1.1619 -0.2970  2.0111
  400MOL0     H52800   5.024   4.612   3.914  1.7604 -0.1894 -0.3680
  401MOL0     O52801   5.634  11.112   9.106  0.1912  0.1099  0.2891
  401MOL0     C52802   5.682  11.142   8.995  0.1076 -0.5585  0.2281
  401MOL0     O52803   5.620  11.217   8.897  0.2317 -0.2156 -0.3150
  401MOL0     C52804   5.481  11.222   8.873 -0.3820  0.9620  0.4703
  401MOL0     C52805   5.384  11.133   8.916 -0.3863  0.3992  0.5741
  401MOL0     C52806   5.253  11.138   8.868 -0.2166  0.2745  0.6378
  401MOL0     C52807   5.208  11.244   8.785  0.4703  0.4127 -0.3319
  401MOL0     O52808   5.078  11.258   8.728  0.2243 -0.0989 -0.3278
  401MOL0     C52809   4.975  11.172   8.773  0.1722  0.9703 -0.2936
  401MOL0     C52810   4.846  11.199   8.698 -0.3975 -0.0898 -0.4150
  401MOL0     C52811   4.727  11.106   8.731 -0.3519 -0.1228 -0.7626
  401MOL0     C52812   4.742  10.965   8.679  1.2425 -0.1182 -0.0654
  401MOL0     C52813   4.622  10.870   8.716 -0.9074 -0.3151  0.8749
  401MOL0     C52814   4.647  10.734   8.663 -0.8209 -1.3465 -0.0869
  401MOL0     C52815   4.521  10.653   8.684 -0.2310  0.2235  0.2192
  401MOL0     C52816   4.406  10.673   8.578  0.0531 -0.6237  0.4069
  401MOL0     N52817   4.291  10.587   8.610  0.3935  0.2999 -0.2043
  401MOL0     C52818   4.254  10.476   8.538 -0.4194  1.0114  0.5073
  401MOL0     C52819   4.129  10.438   8.583  0.4776  0.1879  0.2491
  401MOL0     C52820   4.047  10.327   8.533  0.3892  0.1294  0.8193
  401MOL0     C52821   4.127  10.191   8.513  0.2403 -0.2746  0.2561
  401MOL0     C52822   4.053  10.063   8.483 -0.0653 -0.7418 -1.0532
  401MOL0     C52823   3.969  10.033   8.606  0.3803  0.0349  0.1494
  401MOL0     O52824   4.022  10.060   8.735 -0.6475 -0.3476 -0.2198
  401MOL0     C52825   3.940  10.029   8.838 -0.4257 -0.3731 -0.1212
  401MOL0     C52826   3.996   9.959   8.935 -0.1477 -0.2691  0.6169
  401MOL0     C52827   3.922   9.912   9.044  0.1464  0.4918  0.6835
  401MOL0     C52828   3.784   9.944   9.065 -0.4364 -0.0142 -0.1959
  401MOL0     C52829   3.711   9.909   9.188 -0.6267 -0.4263  0.9702
  401MOL0     O52830   3.587   9.954   9.212  0.7086 -0.0095  0.3359
  401MOL0     C52831   3.516   9.911   9.326 -0.1893 -1.1038  0.6686
  401MOL0     C52832   3.521   9.784   9.388 -0.0103  0.4131  0.3924
  401MOL0     C52833   3.438   9.761   9.498  0.3626  0.2630  0.0137
  401MOL0     C52834   3.353   9.843   9.556 -0.5601 -0.0300  0.6444
  401MOL0     O52835   3.265   9.798   9.648 -0.1039 -0.6029  0.3729
  401MOL0     C52836   3.190   9.900   9.718 -0.2842  0.6040  1.1402
  401MOL0     C52837   3.077   9.845   9.805  0.0021 -0.6605 -0.6452
  401MOL0     C52838   2.963   9.772   9.726  0.2362 -0.4640  0.7133
  401MOL0     C52839   2.858   9.708   9.803  0.0266 -0.3683  0.5430
  401MOL0     C52840   2.890   9.581   9.869 -0.2940 -0.0567  0.7230
  401MOL0     C52841   2.816   9.547  10.003  0.0575 -0.3758  0.1982
  401MOL0     C52842   2.868   9.417  10.069  0.3810  0.4984 -0.1043
  401MOL0     C52843   2.791   9.377  10.197  1.2028  0.5546  0.0201
  401MOL0    Cl52844   2.637   9.308  10.175  0.6790  0.1243  0.3196
  401MOL0     C52845   3.352   9.974   9.499  0.8207 -0.7692 -0.8018
  401MOL0     C52846   3.432  10.009   9.388 -0.6975  0.2429  0.5285
  401MOL0     O52847   3.780   9.854   9.276 -0.7808 -0.4050  0.3956
  401MOL0     C52848   3.730  10.016   8.963  0.6575  0.6843 -0.2355
  401MOL0     C52849   3.808  10.058   8.849  0.5906 -0.0220 -0.6730
  401MOL0     N52850   4.092  10.521   8.686  0.3907  0.3287  0.6753
  401MOL0     N52851   4.188  10.613   8.691  0.0106 -0.8870  0.4404
  401MOL0     C52852   5.305  11.335   8.746 -0.4049 -0.6758  0.1922
  401MOL0     C52853   5.444  11.327   8.784 -0.6178  0.3412 -0.1025
  401MOL0     C52854   5.813  11.094   8.956 -0.6000  0.0969 -0.2302
  401MOL0     C52855   5.894  11.029   9.052  0.0022 -0.1620  0.6587
  401MOL0     C52856   6.017  10.976   9.013 -0.8051 -0.4156  0.0142
  401MOL0     C52857   6.058  10.987   8.880 -0.0949  0.5818  0.3395
  401MOL0     O52858   6.177  10.938   8.833  0.5693  0.6925  0.0424
  401MOL0     C52859   6.265  10.859   8.911  0.2586  0.1098 -0.6474
  401MOL0     C52860   6.385  10.810   8.838  0.6046  0.1377  1.1148
  401MOL0     C52861   6.458  10.700   8.922  1.4135  0.7435 -0.2221
  401MOL0     C52862   6.489  10.742   9.074 -0.2632 -0.0344 -0.5801
  401MOL0     C52863   6.588  10.850   9.065  1.2322 -0.5540 -0.4453
  401MOL0     C52864   6.677  10.928   9.071 -0.6091 -0.5025  0.4797
  401MOL0     C52865   5.976  11.039   8.781 -0.3899 -0.1528  0.2138
  401MOL0     C52866   5.860  11.102   8.825 -0.7073 -0.0017 -1.1452
  401MOL0     H52867   5.396  11.049   8.985  1.5094  0.4400  0.3542
  401MOL0     H52868   5.174  11.068   8.896  1.0837 -0.2151  3.4440
  401MOL0     H52869   4.958  11.192   8.879 -3.2343  1.2890 -0.7795
  401MOL0     H52870   5.003  11.068   8.755 -2.1526 -0.5122  3.4081
  401MOL0     H52871   4.870  11.182   8.592 -1.9922 -1.5828 -0.5775
  401MOL0     H52872   4.832  11.306   8.719  0.3464 -0.2561  1.0806
  401MOL0     H52873   4.637  11.136   8.677  0.4323  1.2650 -1.3271
  401MOL0     H52874   4.717  11.100   8.840  3.2034 -3.1640 -0.3793
  401MOL0     H52875   4.749  10.972   8.570  1.0599 -0.3032 -0.0895
  401MOL0     H52876   4.839  10.920   8.706  0.7349 -1.6216 -0.6260
  401MOL0     H52877   4.525  10.907   8.682 -0.9380  0.7967  2.1162
  401MOL0     H52878   4.614  10.876   8.825  0.4235 -0.7431  1.0240
  401MOL0     H52879   4.741  10.690   8.696  0.8616  0.5982 -2.0646
  401MOL0     H52880   4.652  10.749   8.555  0.4606  1.1537  0.2565
  401MOL0     H52881   4.544  10.546   8.695 -1.7095 -0.2670 -1.0438
  401MOL0     H52882   4.475  10.674   8.781 -0.5735 -1.3140  0.4215
  401MOL0     H52883   4.437  10.652   8.476 -2.2715  0.5819 -0.6030
  401MOL0     H52884   4.379  10.779   8.572  3.7824  0.4150 -0.4029
  401MOL0     H52885   4.312  10.443   8.453 -2.3441 -0.8202 -0.1698
  401MOL0     H52886   4.009  10.356   8.434 -1.1188  0.4596  1.4549
  401MOL0     H52887   3.965  10.311   8.604 -0.0394 -0.2867  0.2436
  401MOL0     H52888   4.200  10.166   8.591  1.3855  2.9241  0.3358
  401MOL0     H52889   4.189  10.225   8.429 -0.2291  0.3795  0.1670
  401MOL0     H52890   3.983  10.082   8.402 -0.5931  0.6715 -0.2860
  401MOL0     H52891   4.136   9.995   8.457  2.4610  2.1469 -1.1480
  401MOL0     H52892   3.943   9.926   8.607 -0.4493  0.2090 -1.0100
  401MOL0     H52893   3.871  10.077   8.583  1.4639  4.0926  2.3397
  401MOL0     H52894   4.101   9.932   8.933 -0.1913 -0.4623  0.8106
  401MOL0     H52895   3.986   9.876   9.124  0.6300  1.8690  0.9531
  401MOL0     H52896   3.577   9.698   9.353 -3.0174 -1.7816  0.5806
  401MOL0     H52897   3.433   9.660   9.538  0.1722 -0.0772 -0.8417
  401MOL0     H52898   3.149   9.969   9.644  4.2765 -1.0049 -3.4008
  401MOL0     H52899   3.260   9.947   9.787 -0.2082  1.9917  0.1597
  401MOL0     H52900   3.028   9.929   9.856 -1.4906 -1.5044 -0.6279
  401MOL0     H52901   3.121   9.774   9.876 -1.4462  0.1199  1.1404
  401MOL0     H52902   3.011   9.697   9.663 -0.3690  0.0420 -0.3747
  401MOL0     H52903   2.903   9.846   9.672  1.5486 -0.4990 -0.8518
  401MOL0     H52904   2.830   9.790   9.870  2.0145  0.7111  0.1372
  401MOL0     H52905   2.772   9.689   9.739  0.0762  0.1073  0.3310
  401MOL0     H52906   2.996   9.588   9.895  0.4705  1.0998 -2.3338
  401MOL0     H52907   2.885   9.494   9.803 -2.1668  0.2986  0.3368
  401MOL0     H52908   2.711   9.535   9.974 -0.7371  0.7679  2.3749
  401MOL0     H52909   2.825   9.627  10.077  0.7577  0.7755 -1.0766
  401MOL0     H52910   2.840   9.342   9.994 -1.8367  1.4996 -0.3801
  401MOL0     H52911   2.976   9.430  10.077  0.7071 -0.7933 -1.8663
  401MOL0     H52912   2.776   9.469  10.254 -0.2818  0.0489  0.5211
  401MOL0     H52913   2.854   9.312  10.258 -1.1863 -0.1591  1.9065
  401MOL0     H52914   3.291  10.055   9.537  1.1297 -0.7093 -0.4302
  401MOL0     H52915   3.420  10.100   9.329 -1.9971 -1.0922 -1.3975
  401MOL0     H52916   3.625  10.042   8.973  0.4738  0.2675 -0.9851
  401MOL0     H52917   3.757  10.112   8.770 -0.6135 -0.8278 -0.4703
  401MOL0     H52918   5.282  11.414   8.676 -4.4445 -0.3242  1.6464
  401MOL0     H52919   5.520  11.399   8.756 -0.4588 -0.4119 -1.6988
  401MOL0     H52920   5.861  11.026   9.155 -1.4694  2.2738  0.3240
  401MOL0     H52921   6.076  10.942   9.097 -0.3737  0.6468  0.1623
  401MOL0     H52922   6.221  10.768   8.952  3.2611 -2.7109 -3.0893
  401MOL0     H52923   6.310  10.929   8.983  1.8039  1.2124 -2.6065
  401MOL0     H52924   6.345  10.774   8.743 -1.9471  0.7128  1.8791
  401MOL0     H52925   6.459  10.887   8.817  1.0816 -1.1556 -2.8142
  401MOL0     H52926   6.551  10.675   8.871 -0.7690 -2.7775 -2.9919
  401MOL0     H52927   6.395  10.611   8.910  2.7151 -0.2162 -0.2267
  401MOL0     H52928   6.397  10.768   9.127 -0.4793 -0.8925 -0.5196
  401MOL0     H52929   6.535  10.658   9.126 -0.2643  0.6904  0.6347
  401MOL0     H52930   6.767  10.985   9.063 -0.1830 -1.3356 -1.2765
  401MOL0     H52931   6.006  11.044   8.677  0.7406  0.2429  0.5378
  401MOL0     H52932   5.789  11.136   8.750 -1.1072  0.4814 -0.5646
  402MOL0     O52933   7.698   8.759   3.218  0.0732 -0.4586  0.3405
  402MOL0     C52934   7.738   8.793   3.332  0.5096  0.5966  0.1843
  402MOL0     O52935   7.682   8.750   3.447  0.2102 -0.4892  0.1578
  402MOL0     C52936   7.585   8.653   3.447 -0.4231 -0.1005 -0.8470
  402MOL0     C52937   7.457   8.679   3.402 -0.0993 -0.0541 -0.2588
  402MOL0     C52938   7.352   8.588   3.432  0.1782 -0.3488 -0.2629
  402MOL0     C52939   7.374   8.476   3.497 -0.3645  0.7049 -0.9857
  402MOL0     O52940   7.259   8.404   3.509  0.5249  0.3990 -0.3395
  402MOL0     C52941   7.267   8.270   3.559 -0.6856  0.3861  0.1350
  402MOL0     C52942   7.134   8.198   3.569 -0.3699  0.2143  0.1199
  402MOL0     C52943   7.055   8.201   3.437  0.6168 -0.8825 -0.1569
  402MOL0     C52944   7.119   8.134   3.320 -0.2764 -0.2056 -0.1437
  402MOL0     C52945   7.015   8.082   3.215  0.8648 -0.8879  0.1069
  402MOL0     C52946   7.087   8.029   3.089  1.1771 -0.0240 -0.3573
  402MOL0     C52947   6.987   7.969   2.989 -0.7757 -1.1451  0.7439
  402MOL0     C52948   6.968   7.826   3.025  0.1257  0.0950  0.4630
  402MOL0     N52949   6.886   7.765   2.914  0.3927 -0.7273 -0.8695
  402MOL0     C52950   6.923   7.709   2.793  0.4533  0.3264  0.2572
  402MOL0     C52951   6.801   7.681   2.736 -0.5894  1.0158  0.4716
  402MOL0     C52952   6.786   7.612   2.607  0.2512 -0.5654  1.4657
  402MOL0     C52953   6.801   7.711   2.496  0.2540 -0.6988  0.9080
  402MOL0     C52954   6.684   7.805   2.471 -0.1446  0.0381  0.5683
  402MOL0     C52955   6.544   7.742   2.489  0.0433 -0.4452 -0.2751
  402MOL0     O52956   6.467   7.859   2.446  0.2717  0.4028  0.6742
  402MOL0     C52957   6.344   7.868   2.497  0.6551  0.3594  0.2313
  402MOL0     C52958   6.263   7.977   2.468  0.1059 -1.1430  0.6457
  402MOL0     C52959   6.134   7.993   2.524 -0.2126 -0.3624  0.4725
  402MOL0     C52960   6.075   7.889   2.596  0.9117  0.3751 -0.1827
  402MOL0     C52961   5.929   7.895   2.622  0.0651  0.8348 -0.1748
  402MOL0     O52962   5.884   7.803   2.717  0.1755 -0.3545  0.4006
  402MOL0     C52963   5.749   7.789   2.735  0.5730  0.2826  0.2022
  402MOL0     C52964   5.705   7.665   2.767  0.3580 -1.0860  0.7580
  402MOL0     C52965   5.568   7.639   2.800 -0.5932  1.1166  1.0930
  402MOL0     C52966   5.477   7.737   2.793  0.8684 -0.7759  0.1440
  402MOL0     O52967   5.341   7.740   2.848 -0.2077 -0.0791  0.2119
  402MOL0     C52968   5.310   7.626   2.934 -0.0043  0.4803 -0.1976
  402MOL0     C52969   5.176   7.647   3.027 -0.0516  0.2070 -0.5999
  402MOL0     C52970   5.044   7.604   2.962  0.5075 -0.4752 -0.7942
  402MOL0     C52971   4.930   7.668   3.037  0.8328  0.3382 -0.3789
  402MOL0     C52972   4.811   7.566   3.051  1.2081 -0.5343  0.0072
  402MOL0     C52973   4.827   7.445   3.150 -0.1509  0.9354  0.1087
  402MOL0     C52974   4.723   7.341   3.129 -0.3581  0.1528 -0.1977
  402MOL0     C52975   4.587   7.389   3.162  0.6627 -0.2950 -0.2648
  402MOL0    Cl52976   4.494   7.245   3.176  0.0787  0.1817 -0.2984
  402MOL0     C52977   5.517   7.866   2.763  0.9037 -0.4210  0.1638
  402MOL0     C52978   5.647   7.890   2.729  0.0539 -0.3064 -0.2087
  402MOL0     O52979   5.859   7.966   2.547 -0.1105  0.1044 -0.1618
  402MOL0     C52980   6.154   7.786   2.636 -0.5086  0.1012  0.5209
  402MOL0     C52981   6.281   7.765   2.580 -0.1640 -0.2350 -0.2580
  402MOL0     N52982   6.695   7.724   2.818 -0.2079 -0.6867  1.7981
  402MOL0     N52983   6.745   7.772   2.917  0.0954  0.7328  0.5216
  402MOL0     C52984   7.502   8.432   3.533 -0.1977 -0.1276 -0.2815
  402MOL0     C52985   7.602   8.527   3.514 -0.1667  0.0820 -0.6194
  402MOL0     C52986   7.861   8.872   3.357 -0.4015 -0.1085 -0.2744
  402MOL0     C52987   7.935   8.921   3.251  0.4049  0.0095  0.0188
  402MOL0     C52988   8.053   8.991   3.260  0.7400 -0.3135  0.1495
  402MOL0     C52989   8.103   9.023   3.387 -0.3686  0.5658  1.8095
  402MOL0     O52990   8.213   9.097   3.385  0.0975 -0.6059  0.5253
  402MOL0     C52991   8.227   9.186   3.504 -0.3069  0.3755 -0.3350
  402MOL0     C52992   8.322   9.304   3.471  0.2923  0.0066 -0.5657
  402MOL0     C52993   8.479   9.288   3.451  0.1164 -0.2731 -0.4156
  402MOL0     C52994   8.545   9.433   3.460 -0.2740  0.4142 -0.7427
  402MOL0     C52995   8.676   9.421   3.412 -0.0329 -0.5524  0.4898
  402MOL0     C52996   8.785   9.428   3.363  0.6970  0.1543 -0.5428
  402MOL0     C52997   8.037   8.968   3.505  1.3237 -0.0170  0.4492
  402MOL0     C52998   7.917   8.889   3.487  0.2015  0.5989 -0.2913
  402MOL0     H52999   7.433   8.777   3.362 -0.7423 -1.1589 -2.7242
  402MOL0     H53000   7.257   8.629   3.399  0.5832  0.2294 -0.7371
  402MOL0     H53001   7.313   8.265   3.658 -0.7243 -0.5779  0.1074
  402MOL0     H53002   7.330   8.233   3.478 -3.7227 -2.5313 -1.1088
  402MOL0     H53003   7.079   8.240   3.654  1.0007 -0.5089  1.4072
  402MOL0     H53004   7.148   8.096   3.606 -1.9239  0.2716  0.9811
  402MOL0     H53005   7.027   8.306   3.430  0.3687 -1.0043 -1.2566
  402MOL0     H53006   6.964   8.144   3.461 -1.2243  1.3314 -1.4305
  402MOL0     H53007   7.184   8.210   3.277 -1.2889  0.0602 -1.2474
  402MOL0     H53008   7.167   8.042   3.355 -1.5299 -0.9436 -0.3148
  402MOL0     H53009   6.968   8.177   3.188  2.1838  0.7074  2.9442
  402MOL0     H53010   6.941   8.021   3.268  0.3237  1.4751  2.2818
  402MOL0     H53011   7.159   7.951   3.117  0.4186 -0.9513 -0.8996
  402MOL0     H53012   7.154   8.107   3.051  0.0506  0.9402 -0.4147
  402MOL0     H53013   6.890   8.019   2.995 -0.7421 -1.1778  1.5933
  402MOL0     H53014   7.022   7.987   2.887 -1.2632 -1.8989  0.4309
  402MOL0     H53015   6.931   7.816   3.127  1.7254 -0.5998  1.0001
  402MOL0     H53016   7.067   7.782   3.018 -0.4578 -1.2733  0.5841
  402MOL0     H53017   7.024   7.681   2.766  0.3022  0.8719 -0.9468
  402MOL0     H53018   6.690   7.559   2.611 -0.5792  0.6783 -0.4151
  402MOL0     H53019   6.863   7.535   2.599  0.1287 -1.0302  3.8099
  402MOL0     H53020   6.807   7.643   2.411  1.7627  0.2701  0.2108
  402MOL0     H53021   6.890   7.773   2.502  0.5870 -1.2468  1.7878
  402MOL0     H53022   6.695   7.884   2.545 -0.5628  3.1926 -2.4903
  402MOL0     H53023   6.681   7.842   2.368  3.0050  1.3477  0.8432
  402MOL0     H53024   6.540   7.706   2.592  1.5830  0.7342  0.2458
  402MOL0     H53025   6.536   7.653   2.426 -1.7272  1.7682 -3.5039
  402MOL0     H53026   6.289   8.045   2.388 -1.2776 -0.3753  0.8145
  402MOL0     H53027   6.092   8.089   2.498  4.9535  2.5354  1.4023
  402MOL0     H53028   5.776   7.584   2.780 -2.7384 -4.0122  1.2467
  402MOL0     H53029   5.528   7.540   2.817  0.4446  0.4889  0.0036
  402MOL0     H53030   5.385   7.633   3.013 -1.6117 -0.0367  1.4267
  402MOL0     H53031   5.307   7.530   2.880  0.8086  0.6254 -0.5257
  402MOL0     H53032   5.171   7.750   3.066 -0.3897  0.4634 -1.3069
  402MOL0     H53033   5.188   7.581   3.113 -1.5008  1.5433  0.7006
  402MOL0     H53034   5.038   7.495   2.970 -1.8249 -0.4894 -1.9185
  402MOL0     H53035   5.034   7.637   2.859 -0.1829  1.2193 -0.2212
  402MOL0     H53036   4.958   7.697   3.139 -0.1124 -1.7461  0.5349
  402MOL0     H53037   4.896   7.758   2.986 -0.1815  0.0576 -0.2224
  402MOL0     H53038   4.773   7.546   2.950 -0.1766 -1.3398  0.6585
  402MOL0     H53039   4.731   7.631   3.088  2.0191  1.9549 -2.2866
  402MOL0     H53040   4.827   7.488   3.251  0.6157  2.3367 -0.4498
  402MOL0     H53041   4.924   7.395   3.142  0.7814  2.3485  1.8241
  402MOL0     H53042   4.731   7.299   3.028 -0.6699  0.2063 -0.2436
  402MOL0     H53043   4.749   7.258   3.195 -0.4782 -1.2245 -1.8208
  402MOL0     H53044   4.545   7.446   3.079 -0.5818 -2.3386 -1.1199
  402MOL0     H53045   4.583   7.454   3.249  1.0057  0.8325 -1.0715
  402MOL0     H53046   5.447   7.948   2.774  2.3506  1.0090 -0.8415
  402MOL0     H53047   5.679   7.990   2.702  1.5382 -1.1927 -1.9673
  402MOL0     H53048   6.131   7.701   2.699  1.4442 -0.1703  0.9321
  402MOL0     H53049   6.326   7.673   2.615 -0.7324  0.4294  2.4733
  402MOL0     H53050   7.524   8.344   3.592 -2.8195  0.4606  1.7780
  402MOL0     H53051   7.705   8.510   3.545  0.9356  1.4563 -3.2154
  402MOL0     H53052   7.890   8.909   3.154 -2.7305 -0.4775  1.4305
  402MOL0     H53053   8.111   9.019   3.173  0.4229 -3.0413 -1.0595
  402MOL0     H53054   8.266   9.118   3.580  1.8258  2.5808  0.6438
  402MOL0     H53055   8.135   9.238   3.532  0.7899  2.7780 -0.9135
  402MOL0     H53056   8.291   9.337   3.371  0.3564 -0.0998 -0.6200
  402MOL0     H53057   8.314   9.390   3.539  0.4287  0.5392 -1.2083
  402MOL0     H53058   8.488   9.240   3.353  2.4310 -2.0592  0.5755
  402MOL0     H53059   8.527   9.232   3.532 -2.5706  1.1555  2.3884
  402MOL0     H53060   8.499   9.510   3.397  1.5893  4.7121  2.6092
  402MOL0     H53061   8.541   9.480   3.559 -1.3542  1.1257 -1.1019
  402MOL0     H53062   8.886   9.427   3.328  2.1934 -2.0231  3.2016
  402MOL0     H53063   8.078   8.979   3.605  0.6883 -2.8881  1.1085
  402MOL0     H53064   7.875   8.843   3.576  1.3404  1.0812  0.5032
  403MOL0     O53065   9.656   1.127   1.951 -0.1153 -0.5504 -0.4728
  403MOL0     C53066   9.682   1.139   2.065 -0.6096 -0.6372 -0.1875
  403MOL0     O53067   9.593   1.115   2.169 -0.4013 -0.0310 -0.0242
  403MOL0     C53068   9.468   1.088   2.130  0.4372 -0.1280  0.5420
  403MOL0     C53069   9.399   1.159   2.030 -0.0024  0.1854  0.2166
  403MOL0     C53070   9.260   1.145   2.003 -0.1533  0.9554  0.1877
  403MOL0     C53071   9.193   1.035   2.053 -0.3481 -0.9871 -0.6712
  403MOL0     O53072   9.067   1.019   2.009  1.0288  0.1892 -0.9162
  403MOL0     C53073   8.968   1.010   2.122 -0.5003 -0.1057 -0.4342
  403MOL0     C53074   8.872   0.900   2.102  0.0768 -0.1593  0.4136
  403MOL0     C53075   8.762   0.924   2.208 -0.1577  0.3026  0.1499
  403MOL0     C53076   8.658   0.813   2.204 -0.3463 -0.2813  0.4217
  403MOL0     C53077   8.539   0.822   2.298  0.9308  0.4448 -0.6585
  403MOL0     C53078   8.427   0.923   2.270 -0.9763  1.4370  0.3174
  403MOL0     C53079   8.336   0.872   2.155 -0.1561  0.2956 -0.8724
  403MOL0     C53080   8.217   0.955   2.146  0.5542 -0.5533  0.2711
  403MOL0     N53081   8.125   0.947   2.258 -0.2715  0.2910  0.2558
  403MOL0     C53082   8.044   0.833   2.275  0.8127 -0.5378 -0.1539
  403MOL0     C53083   7.960   0.865   2.377 -0.3610  0.1927 -0.8564
  403MOL0     C53084   7.852   0.784   2.428 -0.1212  0.4964  0.8841
  403MOL0     C53085   7.720   0.817   2.357  0.5606 -0.1840  0.0748
  403MOL0     C53086   7.666   0.943   2.409  0.7831 -0.0198 -0.7416
  403MOL0     C53087   7.665   0.958   2.566  0.5871 -0.4551  0.2100
  403MOL0     O53088   7.595   1.070   2.606 -0.0772  0.2588  0.2899
  403MOL0     C53089   7.475   1.042   2.667 -0.8107 -0.8290 -0.2622
  403MOL0     C53090   7.390   0.931   2.640 -0.2509  0.0407  0.1431
  403MOL0     C53091   7.265   0.919   2.696  0.2968  0.5564 -0.3997
  403MOL0     C53092   7.218   1.014   2.791  0.1381  0.9011  0.0620
  403MOL0     C53093   7.076   1.009   2.840  0.1665 -1.1837 -0.3010
  403MOL0     O53094   7.052   1.070   2.964 -0.1910 -0.2756 -0.2732
  403MOL0     C53095   6.922   1.079   3.011 -0.6294 -0.5419  0.0044
  403MOL0     C53096   6.897   1.039   3.145 -0.4936 -0.5416 -0.0169
  403MOL0     C53097   6.769   1.059   3.196 -0.4681  0.0390  0.0094
  403MOL0     C53098   6.657   1.074   3.116  0.2710  0.0614 -0.3451
  403MOL0     O53099   6.532   1.075   3.181  0.0849  0.8762 -0.3967
  403MOL0     C53100   6.431   1.150   3.131 -0.3567 -1.3835  0.3649
  403MOL0     C53101   6.345   1.055   3.056  0.0572 -0.5909 -0.3609
  403MOL0     C53102   6.270   0.970   3.160 -0.1940  0.6888 -0.1420
  403MOL0     C53103   6.154   0.888   3.101 -0.3889  0.6904  0.2529
  403MOL0     C53104   6.119   0.761   3.189 -1.0491 -0.5770 -0.6517
  403MOL0     C53105   6.051   0.801   3.312  0.0932 -0.0732 -1.5737
  403MOL0     C53106   6.001   0.674   3.393 -0.1688 -0.0568 -0.3671
  403MOL0     C53107   5.979   0.716   3.540  0.2093  0.7907  0.2284
  403MOL0    Cl53108   6.150   0.733   3.612  0.3670 -0.5704 -0.1553
  403MOL0     C53109   6.684   1.104   2.980  0.3331  0.0373  0.4593
  403MOL0     C53110   6.813   1.104   2.930  0.8491 -0.8949 -0.5869
  403MOL0     O53111   6.991   0.958   2.771 -0.6447  0.5166 -0.3030
  403MOL0     C53112   7.310   1.122   2.824  1.0549 -0.1133  0.1963
  403MOL0     C53113   7.436   1.135   2.764 -0.0952  1.0092 -0.0954
  403MOL0     N53114   7.989   0.999   2.414 -0.5056 -0.4365  0.8557
  403MOL0     N53115   8.075   1.044   2.337 -1.0412  0.6365 -0.2133
  403MOL0     C53116   9.264   0.957   2.155 -0.3297 -0.2110  0.0226
  403MOL0     C53117   9.398   0.989   2.194 -0.0760 -0.6945  0.0063
  403MOL0     C53118   9.816   1.194   2.100  0.1770 -0.0967  0.3063
  403MOL0     C53119   9.844   1.244   2.227  0.3746  0.5482  0.3809
  403MOL0     C53120   9.961   1.316   2.255 -0.6129 -0.8842  0.1793
  403MOL0     C53121  10.053   1.341   2.153 -0.2529 -0.5098  0.7439
  403MOL0     O53122  10.160   1.416   2.186  0.4470  0.3694 -0.4907
  403MOL0     C53123  10.257   1.448   2.077  0.1023 -0.1352 -0.1607
  403MOL0     C53124  10.391   1.477   2.142  0.1479 -0.1525  0.0917
  403MOL0     C53125  10.497   1.482   2.041  0.0347  0.4667  0.7059
  403MOL0     C53126  10.637   1.519   2.086 -0.1403 -0.6420 -0.3594
  403MOL0     C53127  10.736   1.496   1.977  0.0639 -0.2034  0.5932
  403MOL0     C53128  10.816   1.471   1.886 -0.0183  0.2248  0.0588
  403MOL0     C53129  10.035   1.279   2.032  0.1283 -0.0157 -0.6445
  403MOL0     C53130   9.922   1.210   2.006  0.1872 -0.9852 -0.4360
  403MOL0     H53131   9.447   1.241   1.978 -0.6167  1.0193  0.9309
  403MOL0     H53132   9.215   1.207   1.927 -0.3377 -1.4915 -1.8142
  403MOL0     H53133   8.918   1.107   2.123 -0.7560 -0.2362  0.0959
  403MOL0     H53134   9.011   0.990   2.221  2.2100  1.3389 -1.2239
  403MOL0     H53135   8.917   0.804   2.128 -0.7011 -0.4009  0.9051
  403MOL0     H53136   8.850   0.901   1.995  1.6517 -1.5058  0.0480
  403MOL0     H53137   8.709   1.018   2.190 -1.7266 -0.7018 -0.7280
  403MOL0     H53138   8.801   0.919   2.310 -0.2503 -2.3218  0.1383
  403MOL0     H53139   8.607   0.807   2.108 -1.8107  1.4241  1.0362
  403MOL0     H53140   8.717   0.721   2.216  0.5188 -0.4536 -3.6857
  403MOL0     H53141   8.576   0.849   2.397  1.2092  0.2609 -0.7116
  403MOL0     H53142   8.500   0.720   2.306  4.4557 -0.9245  1.0494
  403MOL0     H53143   8.477   1.012   2.232 -0.3863  0.6778 -0.7371
  403MOL0     H53144   8.366   0.932   2.360 -1.3224  0.4206  0.1953
  403MOL0     H53145   8.384   0.873   2.057 -0.0585 -3.8071 -1.0129
  403MOL0     H53146   8.308   0.769   2.179 -2.5620  0.7615 -1.4487
  403MOL0     H53147   8.154   0.925   2.062 -0.4699 -0.1538  0.8825
  403MOL0     H53148   8.244   1.060   2.128 -2.2829  0.0692 -0.9475
  403MOL0     H53149   8.062   0.739   2.226  2.4082  0.0216 -0.7017
  403MOL0     H53150   7.850   0.800   2.536  2.9817  0.4735  1.0295
  403MOL0     H53151   7.873   0.677   2.415  1.1536  0.8347 -0.1093
  403MOL0     H53152   7.650   0.739   2.388  0.8678 -0.0074  1.2846
  403MOL0     H53153   7.726   0.832   2.249 -1.3904  2.3267  0.2354
  403MOL0     H53154   7.727   1.025   2.370  1.5925  1.1995  2.7348
  403MOL0     H53155   7.563   0.963   2.382  1.5530  2.5470 -2.0906
  403MOL0     H53156   7.771   0.974   2.586  0.7521  0.8959 -1.5199
  403MOL0     H53157   7.634   0.873   2.627  2.0854 -0.1514  1.4673
  403MOL0     H53158   7.426   0.868   2.559  1.6626 -0.2261  1.1487
  403MOL0     H53159   7.195   0.839   2.673 -0.2833  0.5868  1.1210
  403MOL0     H53160   6.974   1.003   3.212 -3.0798 -0.5013  3.2166
  403MOL0     H53161   6.750   1.025   3.298  2.0882 -0.1060  0.4984
  403MOL0     H53162   6.475   1.229   3.069  1.1199 -1.4809  1.2412
  403MOL0     H53163   6.379   1.202   3.211 -0.7806 -0.1532 -0.6748
  403MOL0     H53164   6.406   0.998   2.984  0.9661 -0.1214  0.0158
  403MOL0     H53165   6.283   1.124   3.000  2.3115  0.9486 -1.0876
  403MOL0     H53166   6.235   1.034   3.242 -0.3977  1.4942 -0.8328
  403MOL0     H53167   6.338   0.910   3.221  1.8339  2.8082 -0.1754
  403MOL0     H53168   6.064   0.947   3.083  0.4301  1.3519 -1.9318
  403MOL0     H53169   6.190   0.837   3.011  0.5080  0.3762  0.7727
  403MOL0     H53170   6.204   0.700   3.223 -3.1220 -2.0494  2.4427
  403MOL0     H53171   6.039   0.708   3.137 -0.7994  0.3474 -2.0212
  403MOL0     H53172   5.967   0.871   3.300 -0.0456  0.7293  2.6789
  403MOL0     H53173   6.125   0.844   3.380 -2.5638 -1.2872  2.4383
  403MOL0     H53174   5.913   0.630   3.346 -2.2253  1.7571  1.5918
  403MOL0     H53175   6.082   0.601   3.382 -0.4288 -0.2792 -0.8394
  403MOL0     H53176   5.934   0.647   3.612 -0.1478  0.3248 -0.4339
  403MOL0     H53177   5.913   0.804   3.541 -1.0324 -0.1252  0.5591
  403MOL0     H53178   6.607   1.117   2.905 -0.2762 -1.1536  0.8510
  403MOL0     H53179   6.837   1.122   2.825  2.0048 -2.2281 -0.5890
  403MOL0     H53180   7.269   1.197   2.891  0.0330  1.2146 -1.8189
  403MOL0     H53181   7.502   1.216   2.792  2.2737 -0.8931  0.1324
  403MOL0     H53182   9.223   0.865   2.195  2.1085 -0.7953  1.4216
  403MOL0     H53183   9.446   0.932   2.273  1.2597 -3.7718 -2.7777
  403MOL0     H53184   9.777   1.228   2.311 -0.0601  0.9046  0.1090
  403MOL0     H53185   9.981   1.345   2.357 -0.2659 -2.1828  0.4947
  403MOL0     H53186  10.223   1.536   2.021  2.8387  0.1081 -1.5936
  403MOL0     H53187  10.275   1.361   2.013  1.1950 -1.1064  1.3980
  403MOL0     H53188  10.377   1.561   2.210 -1.3860 -1.3775  1.3647
  403MOL0     H53189  10.423   1.406   2.219 -2.8412 -2.4039 -0.5726
  403MOL0     H53190  10.474   1.540   1.951  1.4734 -0.1513 -0.0943
  403MOL0     H53191  10.505   1.377   2.011  1.3592  0.2495  1.7326
  403MOL0     H53192  10.629   1.627   2.106 -1.7634 -0.1174 -3.2749
  403MOL0     H53193  10.661   1.467   2.179  0.4401 -1.3355 -0.8880
  403MOL0     H53194  10.894   1.442   1.818 -0.2720 -0.6499  0.1295
  403MOL0     H53195  10.100   1.313   1.951 -1.3959  0.1259 -1.8613
  403MOL0     H53196   9.918   1.189   1.900  0.9391 -2.2900 -0.2242
  404MOL0     O53197   8.026  10.442   0.766 -0.0272  0.0811  0.2984
  404MOL0     C53198   8.084  10.341   0.730 -0.1045  1.2364 -0.4882
  404MOL0     O53199   8.021  10.215   0.721 -0.6726  0.4881  0.4771
  404MOL0     C53200   7.883  10.201   0.765 -0.5693  0.3624 -0.4560
  404MOL0     C53201   7.778  10.262   0.688 -0.1283  0.2352 -0.3845
  404MOL0     C53202   7.654  10.200   0.699  0.1622 -0.2918 -0.9322
  404MOL0     C53203   7.628  10.095   0.786  0.3528 -0.0886 -0.3868
  404MOL0     O53204   7.501  10.053   0.797  0.0264 -0.3678  0.6060
  404MOL0     C53205   7.473   9.918   0.826 -0.0424  0.3259 -0.0044
  404MOL0     C53206   7.322   9.888   0.826 -0.6421 -0.4018 -0.4169
  404MOL0     C53207   7.252   9.942   0.950  0.5263 -0.1677 -0.5139
  404MOL0     C53208   7.104   9.954   0.914  0.0669 -0.1363 -0.4618
  404MOL0     C53209   7.038   9.971   1.054  0.4601 -0.5322 -0.4581
  404MOL0     C53210   6.912  10.052   1.018 -0.0547  0.6622  0.6807
  404MOL0     C53211   6.808  10.030   1.128  0.1390 -0.1297  0.2592
  404MOL0     C53212   6.691  10.131   1.103 -0.6010  0.3313  0.3691
  404MOL0     N53213   6.589  10.136   1.207  0.1634  0.6059  0.2422
  404MOL0     C53214   6.563  10.252   1.283  0.1174  0.4570  1.0192
  404MOL0     C53215   6.450  10.230   1.349  0.1695 -0.7942 -0.3674
  404MOL0     C53216   6.378  10.331   1.434 -0.2321 -0.0020 -0.6566
  404MOL0     C53217   6.234  10.325   1.397 -0.2977  0.0704  0.0092
  404MOL0     C53218   6.165  10.449   1.456  0.0186 -0.2023  0.0536
  404MOL0     C53219   6.010  10.458   1.453  0.5265 -0.1857  0.0435
  404MOL0     O53220   5.960  10.398   1.578 -0.0199 -0.5358 -0.2909
  404MOL0     C53221   5.834  10.428   1.614 -1.0685 -0.5391 -0.4093
  404MOL0     C53222   5.737  10.368   1.535  0.0706  0.0765 -0.1025
  404MOL0     C53223   5.601  10.403   1.547  0.0033 -0.3056  1.1657
  404MOL0     C53224   5.570  10.505   1.633  1.0096 -0.5874  0.1417
  404MOL0     C53225   5.428  10.571   1.626 -0.4222  0.0037  0.2991
  404MOL0     O53226   5.410  10.668   1.723 -0.2846  0.0833 -0.5260
  404MOL0     C53227   5.281  10.712   1.726 -0.1888  0.1489 -0.8070
  404MOL0     C53228   5.239  10.835   1.665  0.4066 -0.5389 -0.4966
  404MOL0     C53229   5.102  10.873   1.677 -0.5212 -0.0129 -0.2297
  404MOL0     C53230   5.010  10.798   1.744  0.9219 -0.3241 -0.6688
  404MOL0     O53231   4.881  10.836   1.773  0.6625 -0.9463 -0.1045
  404MOL0     C53232   4.850  10.978   1.813  0.3732 -0.5768  0.4652
  404MOL0     C53233   4.866  10.992   1.958 -0.8962 -0.1839 -0.3845
  404MOL0     C53234   4.801  11.110   2.021  0.1103 -0.7780  0.5267
  404MOL0     C53235   4.653  11.134   1.999 -0.3137 -0.6293  0.2890
  404MOL0     C53236   4.595  11.209   2.114 -0.6899 -0.2301  0.3206
  404MOL0     C53237   4.492  11.126   2.181 -0.1066  0.2538 -0.4669
  404MOL0     C53238   4.405  11.204   2.283 -0.3544 -1.1878 -0.6481
  404MOL0     C53239   4.293  11.125   2.337  0.7256  0.4715  0.3066
  404MOL0    Cl53240   4.345  10.973   2.405 -0.7159  0.2000 -0.2842
  404MOL0     C53241   5.050  10.680   1.810 -0.5557  0.2101 -0.7877
  404MOL0     C53242   5.186  10.634   1.801 -0.0351  0.5437  0.5754
  404MOL0     O53243   5.343  10.513   1.561 -0.9009 -0.4312  0.6336
  404MOL0     C53244   5.661  10.552   1.718 -0.3957  0.0108 -0.2987
  404MOL0     C53245   5.797  10.526   1.720  0.6740 -0.0022  0.2537
  404MOL0     N53246   6.406  10.102   1.314  0.3500 -0.1322 -0.8363
  404MOL0     N53247   6.480  10.048   1.220 -0.2139 -0.2987  0.0049
  404MOL0     C53248   7.740  10.040   0.868  0.0978 -0.2099 -0.3809
  404MOL0     C53249   7.871  10.098   0.856  0.0386 -0.9876  0.1907
  404MOL0     C53250   8.221  10.345   0.703 -0.1627  0.4380 -0.1808
  404MOL0     C53251   8.291  10.467   0.690 -1.0208  0.7226  0.3428
  404MOL0     C53252   8.430  10.464   0.668  0.1576  0.1813 -0.0107
  404MOL0     C53253   8.510  10.352   0.680  0.1274 -0.2878  0.6845
  404MOL0     O53254   8.644  10.352   0.674 -0.1047 -0.5709  0.5635
  404MOL0     C53255   8.698  10.470   0.728 -0.4166 -0.1271 -0.2319
  404MOL0     C53256   8.847  10.437   0.764  0.5520 -0.0590  0.3592
  404MOL0     C53257   8.917  10.566   0.817 -0.0382  0.1807 -0.8299
  404MOL0     C53258   9.071  10.581   0.784  0.9758 -0.6424  0.4641
  404MOL0     C53259   9.142  10.463   0.806  0.2235 -0.3669 -0.2081
  404MOL0     C53260   9.184  10.353   0.835 -0.1609 -0.0346 -0.1736
  404MOL0     C53261   8.436  10.234   0.691 -0.1632 -0.4770 -0.4719
  404MOL0     C53262   8.302  10.228   0.691  0.1495  1.1424  0.4075
  404MOL0     H53263   7.781  10.341   0.613 -7.2381  1.2740 -0.2861
  404MOL0     H53264   7.559  10.219   0.650 -1.8337 -0.0939  2.6868
  404MOL0     H53265   7.515   9.911   0.927  0.7304  3.4443 -0.0058
  404MOL0     H53266   7.518   9.842   0.762 -2.8969 -0.7062 -0.9508
  404MOL0     H53267   7.304   9.781   0.811  2.3464 -0.8451 -1.4672
  404MOL0     H53268   7.267   9.935   0.744 -1.6543  1.3367  1.1912
  404MOL0     H53269   7.279  10.045   0.977  3.2168 -1.7673  4.0403
  404MOL0     H53270   7.271   9.897   1.048 -0.7872  0.8247  0.2209
  404MOL0     H53271   7.099  10.053   0.867 -0.0855  0.5146  0.8824
  404MOL0     H53272   7.066   9.871   0.855 -1.3014  0.6533 -0.7248
  404MOL0     H53273   7.106  10.030   1.116  0.1661 -0.6801  0.0074
  404MOL0     H53274   7.022   9.869   1.090  1.3999 -1.0787 -1.5465
  404MOL0     H53275   6.868  10.002   0.931  0.1375 -1.2690  1.6364
  404MOL0     H53276   6.927  10.160   1.003 -2.5570  1.3304  2.3318
  404MOL0     H53277   6.779   9.925   1.115 -0.2677 -0.0441  0.4425
  404MOL0     H53278   6.848  10.051   1.227 -1.5112 -0.6243  1.0748
  404MOL0     H53279   6.641  10.096   1.013 -0.2672 -1.8968  1.0072
  404MOL0     H53280   6.734  10.229   1.079 -1.0813 -0.0482 -2.3684
  404MOL0     H53281   6.612  10.348   1.297  0.0823  0.2333  3.0719
  404MOL0     H53282   6.415  10.431   1.409 -0.6438  0.3794  0.2165
  404MOL0     H53283   6.394  10.313   1.541  2.9951 -3.3366 -1.5034
  404MOL0     H53284   6.192  10.236   1.445 -0.4334 -0.2947 -0.7696
  404MOL0     H53285   6.216  10.330   1.289 -0.4473  0.1919  0.0395
  404MOL0     H53286   6.208  10.461   1.556  1.5960  0.0339 -0.6313
  404MOL0     H53287   6.208  10.538   1.409  4.7028 -0.9636  2.2861
  404MOL0     H53288   5.961  10.397   1.377 -0.6105 -0.8545  1.2787
  404MOL0     H53289   5.965  10.558   1.453  1.8208  0.4997 -2.5392
  404MOL0     H53290   5.755  10.288   1.464 -0.2963 -0.5926  0.5460
  404MOL0     H53291   5.528  10.349   1.488 -0.0380  1.5774 -0.5946
  404MOL0     H53292   5.302  10.907   1.614 -2.0260 -0.2553 -3.4217
  404MOL0     H53293   5.076  10.975   1.651  0.8018  0.8360  1.5611
  404MOL0     H53294   4.744  11.001   1.799  0.5229 -0.4233 -0.4435
  404MOL0     H53295   4.909  11.058   1.767 -1.1305  0.1031 -0.3231
  404MOL0     H53296   4.973  11.000   1.980 -1.1726  0.5960  0.7663
  404MOL0     H53297   4.839  10.905   2.019  0.7880 -1.2920 -1.1381
  404MOL0     H53298   4.854  11.202   1.991 -0.4787 -0.3490  0.7928
  404MOL0     H53299   4.825  11.100   2.127  1.5114 -0.8811  0.2200
  404MOL0     H53300   4.649  11.207   1.917  3.1822 -0.0834  0.4693
  404MOL0     H53301   4.598  11.041   1.985 -1.9354 -0.0313  2.1896
  404MOL0     H53302   4.544  11.302   2.086  0.7983  1.1522  1.9346
  404MOL0     H53303   4.674  11.246   2.180 -0.0871 -0.9293  0.0000
  404MOL0     H53304   4.546  11.048   2.236  0.5167  2.1605  1.7561
  404MOL0     H53305   4.424  11.082   2.107  0.6592 -3.1159  0.6187
  404MOL0     H53306   4.466  11.227   2.371  0.7805 -1.5623 -1.3267
  404MOL0     H53307   4.369  11.296   2.235  1.0538  1.5776  3.0216
  404MOL0     H53308   4.234  11.099   2.248  1.0195  1.1202 -0.0792
  404MOL0     H53309   4.232  11.185   2.405 -0.7119  1.6525 -1.9030
  404MOL0     H53310   4.990  10.617   1.875  2.0427 -1.7926 -0.1905
  404MOL0     H53311   5.218  10.546   1.856 -0.3762 -1.1107 -1.7455
  404MOL0     H53312   5.625  10.632   1.782 -2.1855  1.8875 -3.3491
  404MOL0     H53313   5.870  10.559   1.794  0.3909  1.2117  0.0222
  404MOL0     H53314   7.735   9.953   0.933  3.1281  0.2342  0.6177
  404MOL0     H53315   7.970  10.068   0.886  0.6811  0.7010 -0.1268
  404MOL0     H53316   8.237  10.561   0.699 -1.5432  0.3795  0.8349
  404MOL0     H53317   8.477  10.560   0.649  2.6649 -0.6252  1.6225
  404MOL0     H53318   8.657  10.521   0.816  3.2327  3.6377 -0.4033
  404MOL0     H53319   8.698  10.548   0.651 -1.5308 -0.1615 -0.2851
  404MOL0     H53320   8.857  10.360   0.841 -1.4858 -0.2387  0.5015
  404MOL0     H53321   8.901  10.400   0.676  0.6654 -0.4136  0.5743
  404MOL0     H53322   8.907  10.571   0.926  3.1785 -1.5080 -0.3361
  404MOL0     H53323   8.869  10.654   0.772 -0.1235  0.2693 -0.5654
  404MOL0     H53324   9.071  10.601   0.677 -1.1967  0.6019  0.6401
  404MOL0     H53325   9.109  10.664   0.844 -0.0107 -0.2527  0.5671
  404MOL0     H53326   9.213  10.251   0.851  0.5547  0.3895  1.4216
  404MOL0     H53327   8.497  10.144   0.687  0.1802 -0.2336 -3.8776
  404MOL0     H53328   8.258  10.128   0.691  0.0121  1.2036  0.4508
  405MOL0     O53329   7.817   0.121   9.942 -0.2542 -0.2119 -0.1918
  405MOL0     C53330   7.889   0.139   9.843 -0.0969  0.3296 -1.2221
  405MOL0     O53331   7.848   0.126   9.712  0.6289 -0.2301 -0.4896
  405MOL0     C53332   7.723   0.063   9.706  0.6183  0.0205  0.7494
  405MOL0     C53333   7.699  -0.068   9.755 -0.0317  1.2954 -0.0733
  405MOL0     C53334   7.577  -0.129   9.745  0.6485 -0.6261 -0.0201
  405MOL0     C53335   7.468  -0.051   9.695 -0.1742  0.0277 -0.4659
  405MOL0     O53336   7.355  -0.131   9.693  0.4156 -0.0166  0.7157
  405MOL0     C53337   7.234  -0.057   9.660 -0.2437  0.1804 -0.4549
  405MOL0     C53338   7.117  -0.151   9.668  0.3430  0.4024 -0.2302
  405MOL0     C53339   6.993  -0.089   9.618  0.7580  0.1938 -0.5571
  405MOL0     C53340   6.865  -0.172   9.646 -0.3214 -0.4899  0.2823
  405MOL0     C53341   6.745  -0.089   9.597 -0.9469 -0.6613 -0.1787
  405MOL0     C53342   6.618  -0.177   9.602 -0.1537 -0.0243 -0.2924
  405MOL0     C53343   6.616  -0.298   9.507 -0.1576 -0.9344  0.1000
  405MOL0     C53344   6.482  -0.359   9.495  0.4079  0.1597  0.8583
  405MOL0     N53345   6.372  -0.277   9.431  0.1199  0.2303  0.0429
  405MOL0     C53346   6.273  -0.210   9.497  0.0419 -0.3106 -0.0165
  405MOL0     C53347   6.195  -0.148   9.399  0.1964  0.4031 -0.4665
  405MOL0     C53348   6.071  -0.065   9.435 -0.2588 -0.2007  0.2554
  405MOL0     C53349   6.031   0.039   9.331  0.1391  0.3149 -0.1363
  405MOL0     C53350   5.936   0.145   9.382  0.3738 -0.2679 -0.0173
  405MOL0     C53351   5.799   0.091   9.410  0.3473 -1.4262 -0.0187
  405MOL0     O53352   5.782   0.009   9.531 -0.3436 -0.4737  1.0843
  405MOL0     C53353   5.660  -0.047   9.563  0.4672 -0.0747 -0.1042
  405MOL0     C53354   5.540  -0.046   9.484 -0.4533 -0.5616 -0.4008
  405MOL0     C53355   5.430  -0.118   9.527  0.5690 -0.2754 -0.0951
  405MOL0     C53356   5.430  -0.189   9.647  0.0588  0.3376  0.3344
  405MOL0     C53357   5.307  -0.264   9.684  0.1074 -0.1605 -0.5855
  405MOL0     O53358   5.291  -0.292   9.809  0.3950 -0.3947 -0.6053
  405MOL0     C53359   5.188  -0.364   9.854  0.2247  0.5680 -0.1541
  405MOL0     C53360   5.172  -0.495   9.808  0.4279  0.6218 -0.1940
  405MOL0     C53361   5.066  -0.576   9.848 -0.4213 -0.3281 -0.0509
  405MOL0     C53362   4.974  -0.515   9.937 -0.0222 -0.3506 -0.7829
  405MOL0     O53363   4.877  -0.592   9.981  0.2646 -0.3034 -0.3271
  405MOL0     C53364   4.746  -0.538  10.028  0.1039  0.3196 -0.2303
  405MOL0     C53365   4.655  -0.657  10.059 -0.1969 -0.2899 -0.8505
  405MOL0     C53366   4.507  -0.630  10.061 -0.1079 -0.1610  0.0345
  405MOL0     C53367   4.429  -0.762  10.073  0.3854 -0.3804 -1.6010
  405MOL0     C53368   4.421  -0.833  10.210 -0.3261 -0.5062  0.1182
  405MOL0     C53369   4.341  -0.742  10.304  0.1483  0.5739  0.0492
  405MOL0     C53370   4.349  -0.772  10.457 -0.2009  0.1157  1.1001
  405MOL0     C53371   4.253  -0.887  10.480  0.7755  0.5774 -0.4528
  405MOL0    Cl53372   4.261  -0.912  10.663  0.1984 -0.5927 -0.0909
  405MOL0     C53373   4.993  -0.389   9.987 -0.6316  0.2561 -0.0117
  405MOL0     C53374   5.096  -0.310   9.940  0.9141 -0.3845  0.3589
  405MOL0     O53375   5.224  -0.295   9.595  0.2741 -0.5173 -0.0643
  405MOL0     C53376   5.547  -0.194   9.731 -0.9813 -0.6962 -0.0064
  405MOL0     C53377   5.660  -0.125   9.685 -0.3614 -0.8238 -0.0953
  405MOL0     N53378   6.249  -0.181   9.280  0.2854  0.4853  0.3032
  405MOL0     N53379   6.340  -0.266   9.295 -0.4064 -0.2189  0.0303
  405MOL0     C53380   7.485   0.084   9.643  0.1287  0.6306 -1.0422
  405MOL0     C53381   7.614   0.136   9.648  0.4309 -0.1110 -0.4759
  405MOL0     C53382   8.014   0.212   9.851  0.1764 -0.2622  0.0408
  405MOL0     C53383   8.101   0.218   9.738 -0.7480 -0.5688 -0.2249
  405MOL0     C53384   8.229   0.273   9.748 -0.6500  0.2742 -1.0727
  405MOL0     C53385   8.274   0.335   9.869  0.2623  0.1500  1.2051
  405MOL0     O53386   8.396   0.400   9.882 -0.2827  0.2077  0.2579
  405MOL0     C53387   8.475   0.450   9.780 -0.2689 -0.2955 -0.5484
  405MOL0     C53388   8.601   0.498   9.853 -0.2358  0.5024 -0.0191
  405MOL0     C53389   8.715   0.499   9.745  1.4884 -0.4759 -0.2693
  405MOL0     C53390   8.855   0.527   9.806 -0.3199 -0.3776  0.0734
  405MOL0     C53391   8.946   0.540   9.691 -0.8718  0.0334  1.0834
  405MOL0     C53392   9.038   0.563   9.617 -0.4182 -0.3784 -0.6017
  405MOL0     C53393   8.186   0.330   9.978 -0.7298  0.3596 -0.2644
  405MOL0     C53394   8.059   0.267   9.968  0.3942  0.3675  0.6096
  405MOL0     H53395   7.773  -0.135   9.798 -2.5173 -0.2498  2.0310
  405MOL0     H53396   7.564  -0.233   9.774 -4.1131 -0.4533 -0.6524
  405MOL0     H53397   7.238  -0.018   9.558  1.3233  1.0067 -0.1019
  405MOL0     H53398   7.221   0.031   9.724 -1.1948 -1.0905  1.1733
  405MOL0     H53399   7.088  -0.187   9.767  0.5123 -2.7283 -1.2043
  405MOL0     H53400   7.142  -0.240   9.611 -3.1873 -1.2436  0.5439
  405MOL0     H53401   6.999  -0.083   9.509  0.7923  0.8321 -0.5241
  405MOL0     H53402   6.979   0.011   9.662 -0.4550  0.1970 -0.9223
  405MOL0     H53403   6.865  -0.267   9.592  0.6796 -0.2649 -0.1484
  405MOL0     H53404   6.863  -0.193   9.753 -2.3848 -1.6627  0.0704
  405MOL0     H53405   6.757  -0.066   9.491 -1.6963  1.7085  0.2115
  405MOL0     H53406   6.728   0.004   9.652  0.0631  0.5977 -1.9046
  405MOL0     H53407   6.535  -0.112   9.573 -0.1659 -0.7005 -1.9309
  405MOL0     H53408   6.595  -0.217   9.701 -1.3626  2.6468  0.5777
  405MOL0     H53409   6.644  -0.265   9.407 -0.7185 -0.4358  0.0996
  405MOL0     H53410   6.684  -0.376   9.541 -0.1836 -1.2155 -0.4824
  405MOL0     H53411   6.457  -0.390   9.597 -1.2297 -2.7571 -0.3065
  405MOL0     H53412   6.510  -0.439   9.425 -1.6558  3.2730 -4.0359
  405MOL0     H53413   6.262  -0.195   9.604  1.9186 -3.3458  0.7270
  405MOL0     H53414   6.083  -0.009   9.528 -0.3823 -0.2065  0.2746
  405MOL0     H53415   5.992  -0.138   9.454  2.4168 -2.7974  2.6058
  405MOL0     H53416   5.996  -0.011   9.240  0.2756 -1.5511  0.7875
  405MOL0     H53417   6.123   0.092   9.307  0.2834 -0.4917 -1.4489
  405MOL0     H53418   5.981   0.200   9.465  2.8920  0.6181 -1.8087
  405MOL0     H53419   5.925   0.217   9.300 -1.3091  0.0401  0.4515
  405MOL0     H53420   5.762   0.029   9.328 -0.0970 -0.6412 -0.4196
  405MOL0     H53421   5.732   0.177   9.417 -0.9066 -2.4202  0.5461
  405MOL0     H53422   5.526   0.011   9.393  0.1879 -0.6150 -0.5381
  405MOL0     H53423   5.336  -0.111   9.474 -0.7511  0.5925  2.2264
  405MOL0     H53424   5.241  -0.524   9.730  1.5245 -1.2669  1.3773
  405MOL0     H53425   5.054  -0.677   9.810  0.2224  0.1649 -1.6286
  405MOL0     H53426   4.703  -0.487   9.942 -0.7530  0.4603  0.2657
  405MOL0     H53427   4.766  -0.473  10.114  1.3410 -2.4589  1.7662
  405MOL0     H53428   4.685  -0.694  10.158 -1.8404 -0.9462 -0.5650
  405MOL0     H53429   4.680  -0.734   9.985 -1.2087  0.0507 -1.5664
  405MOL0     H53430   4.491  -0.585   9.962  0.2220 -0.6001 -0.2262
  405MOL0     H53431   4.488  -0.554  10.136 -1.6432 -0.3015 -0.1736
  405MOL0     H53432   4.330  -0.755  10.027  0.0824  0.3488 -0.8624
  405MOL0     H53433   4.484  -0.828  10.005  1.3558 -0.6911 -0.5462
  405MOL0     H53434   4.519  -0.841  10.257  1.3820  1.6983 -2.7268
  405MOL0     H53435   4.379  -0.935  10.213 -1.7545 -0.0273 -1.7040
  405MOL0     H53436   4.235  -0.746  10.278 -0.6756 -2.9069  3.1586
  405MOL0     H53437   4.374  -0.639  10.288 -1.1299  0.7078 -2.0920
  405MOL0     H53438   4.451  -0.793  10.491 -0.0408 -1.2856 -0.1089
  405MOL0     H53439   4.309  -0.688  10.514 -0.3468 -0.4543  1.8483
  405MOL0     H53440   4.282  -0.981  10.433 -1.9469 -1.7867  2.1994
  405MOL0     H53441   4.153  -0.866  10.442  0.6082 -1.3127 -1.1660
  405MOL0     H53442   4.910  -0.339  10.036 -0.1233  2.6212 -1.4242
  405MOL0     H53443   5.109  -0.212   9.983  1.4315 -0.5271  0.5292
  405MOL0     H53444   5.544  -0.249   9.824  0.4316  0.5025  0.8008
  405MOL0     H53445   5.755  -0.121   9.738  0.9266  0.9486 -2.3368
  405MOL0     H53446   7.395   0.141   9.618 -0.0323  2.9182  3.5748
  405MOL0     H53447   7.639   0.235   9.610 -0.4810  0.0581 -0.6724
  405MOL0     H53448   8.069   0.169   9.647 -3.3083 -0.9439  0.8051
  405MOL0     H53449   8.297   0.261   9.665 -0.1670  0.1889 -0.6698
  405MOL0     H53450   8.422   0.534   9.736 -0.2514  0.3941  0.7109
  405MOL0     H53451   8.499   0.374   9.704  4.3189 -0.3687  0.6493
  405MOL0     H53452   8.572   0.596   9.890 -3.0699 -0.0518 -0.4866
  405MOL0     H53453   8.621   0.416   9.922 -4.3378 -2.2352 -1.6499
  405MOL0     H53454   8.690   0.576   9.671  1.7464  0.5747  0.7124
  405MOL0     H53455   8.718   0.403   9.692 -0.0481 -1.1884  0.8447
  405MOL0     H53456   8.850   0.623   9.858  0.3525 -0.2781 -0.0327
  405MOL0     H53457   8.895   0.449   9.871 -2.6120 -0.5167  1.4346
  405MOL0     H53458   9.118   0.592   9.552 -1.3960  2.0319 -0.8505
  405MOL0     H53459   8.226   0.367  10.071  1.2377 -0.7415 -0.6151
  405MOL0     H53460   7.993   0.256  10.054 -0.3396 -2.1146 -0.1864
  406MOL0     O53461   8.874   9.514   3.867  0.0997  0.7827  0.4861
  406MOL0     C53462   8.925   9.497   3.971 -0.6095 -0.4599 -0.2572
  406MOL0     O53463   8.860   9.507   4.091 -0.3858 -0.6756 -0.2387
  406MOL0     C53464   8.729   9.540   4.115 -0.7112  0.9326  0.2055
  406MOL0     C53465   8.672   9.467   4.215  0.4139 -0.8361  0.4313
  406MOL0     C53466   8.539   9.491   4.252 -0.3606  0.3024  0.4554
  406MOL0     C53467   8.464   9.593   4.194  0.5900 -0.2965  0.2338
  406MOL0     O53468   8.328   9.626   4.205 -0.3886  0.2265 -0.1371
  406MOL0     C53469   8.248   9.520   4.265  0.3895  0.3874  0.3319
  406MOL0     C53470   8.106   9.569   4.227  0.2483  0.6029 -0.5964
  406MOL0     C53471   8.015   9.465   4.286 -0.1394 -0.8476 -0.3550
  406MOL0     C53472   7.872   9.468   4.218  0.2097  1.2388 -0.1485
  406MOL0     C53473   7.763   9.390   4.295  0.3819 -0.1930  0.0294
  406MOL0     C53474   7.628   9.396   4.234 -0.3085 -0.1310  0.7328
  406MOL0     C53475   7.518   9.353   4.336 -0.1651  0.8264 -0.0614
  406MOL0     C53476   7.375   9.340   4.271  0.3052 -0.2197  0.0461
  406MOL0     N53477   7.303   9.472   4.249 -0.3249 -0.5267  0.0322
  406MOL0     C53478   7.341   9.563   4.145  0.4896 -0.2400  0.4080
  406MOL0     C53479   7.243   9.657   4.148  0.3644 -0.8519  0.2953
  406MOL0     C53480   7.229   9.781   4.058  0.1488 -0.5000 -0.2779
  406MOL0     C53481   7.360   9.837   4.007  0.2922 -0.3100 -0.2417
  406MOL0     C53482   7.337   9.939   3.897  0.1760 -0.2132 -0.3328
  406MOL0     C53483   7.475  10.007   3.882 -0.1398 -1.0148 -0.1931
  406MOL0     O53484   7.572   9.920   3.823 -0.4486  0.7858 -0.6650
  406MOL0     C53485   7.680   9.979   3.767 -0.2759 -0.2089  1.1822
  406MOL0     C53486   7.709  10.123   3.787  1.4702  1.3240  0.4499
  406MOL0     C53487   7.813  10.188   3.710 -0.4308 -0.4869 -0.2517
  406MOL0     C53488   7.897  10.112   3.626 -0.9383 -0.6073 -0.6504
  406MOL0     C53489   8.020  10.164   3.550 -0.3028  0.8944 -0.6484
  406MOL0     O53490   8.108  10.079   3.502  0.5974 -0.1805 -0.6616
  406MOL0     C53491   8.205  10.126   3.424 -0.2062 -0.2421  0.3977
  406MOL0     C53492   8.339  10.094   3.454  0.2498 -0.1397  1.3562
  406MOL0     C53493   8.439  10.132   3.364 -0.2845  0.6813 -0.3828
  406MOL0     C53494   8.417  10.196   3.247 -0.5488  0.5558  0.6245
  406MOL0     O53495   8.518  10.191   3.152 -0.1966 -0.5871  0.1844
  406MOL0     C53496   8.557  10.320   3.114  0.4318  0.1292 -0.1077
  406MOL0     C53497   8.700  10.323   3.086  1.0109 -0.3736  0.9512
  406MOL0     C53498   8.752  10.449   3.019 -0.3000 -1.0433  0.3691
  406MOL0     C53499   8.898  10.444   2.987 -0.0989  0.2012  0.2901
  406MOL0     C53500   8.971  10.581   2.963 -0.3910 -0.0007 -0.4874
  406MOL0     C53501   9.113  10.560   2.900 -0.9482 -0.9780 -0.3027
  406MOL0     C53502   9.173  10.699   2.850 -0.1246  0.2213 -0.1211
  406MOL0     C53503   9.311  10.668   2.784  0.8427 -0.1270  1.0909
  406MOL0    Cl53504   9.376  10.814   2.697  0.0213  0.0308  0.2197
  406MOL0     C53505   8.283  10.219   3.210  0.1059 -0.6272 -0.6322
  406MOL0     C53506   8.177  10.184   3.301  0.0286  0.7947  0.2693
  406MOL0     O53507   8.029  10.284   3.549 -0.5474 -1.1367  0.2029
  406MOL0     C53508   7.867   9.973   3.608  0.6246 -0.4945 -0.1160
  406MOL0     C53509   7.766   9.913   3.674 -0.2357 -0.8155 -0.6421
  406MOL0     N53510   7.164   9.635   4.264 -0.6593  0.2555  0.2372
  406MOL0     N53511   7.203   9.529   4.327  0.1523  0.3811  1.0793
  406MOL0     C53512   8.529   9.675   4.104  0.3955 -0.0262 -0.8305
  406MOL0     C53513   8.662   9.644   4.065  0.7464 -0.7599 -0.6332
  406MOL0     C53514   9.070   9.498   3.981 -0.2243  0.1944 -0.5780
  406MOL0     C53515   9.138   9.504   4.112  1.1712  1.0863 -0.2941
  406MOL0     C53516   9.273   9.539   4.120 -0.2440 -0.1319 -0.5255
  406MOL0     C53517   9.333   9.583   4.009 -0.2564  0.0856  0.0659
  406MOL0     O53518   9.466   9.609   4.024  0.1233 -0.5844  0.7142
  406MOL0     C53519   9.501   9.753   4.016  0.6209 -0.3223 -0.0895
  406MOL0     C53520   9.404   9.851   4.098 -0.7603 -0.5292  0.5780
  406MOL0     C53521   9.447  10.006   4.101  0.0821 -0.3380  0.2946
  406MOL0     C53522   9.359  10.101   4.186 -0.1727  0.7262  0.0530
  406MOL0     C53523   9.426  10.229   4.202  0.6822  0.1956 -0.3331
  406MOL0     C53524   9.462  10.338   4.231 -0.4110 -0.6020 -0.1895
  406MOL0     C53525   9.279   9.580   3.882 -0.0823  0.0108 -0.2556
  406MOL0     C53526   9.150   9.536   3.867 -0.2791  0.0062  0.7541
  406MOL0     H53527   8.719   9.377   4.253  0.6775 -0.4603  1.0105
  406MOL0     H53528   8.493   9.419   4.319  1.0689 -1.0963 -0.0030
  406MOL0     H53529   8.273   9.501   4.369  2.0686 -1.4272 -0.3391
  406MOL0     H53530   8.269   9.424   4.216  1.0903  0.5119  0.3722
  406MOL0     H53531   8.083   9.565   4.120  2.3830 -1.9011 -1.0414
  406MOL0     H53532   8.073   9.665   4.269 -1.7481 -0.7895  1.2456
  406MOL0     H53533   7.995   9.472   4.394  2.9756 -3.6904  0.5695
  406MOL0     H53534   8.055   9.363   4.288  1.5294 -0.2300  2.0366
  406MOL0     H53535   7.829   9.568   4.212 -1.1147  0.6184 -2.0341
  406MOL0     H53536   7.870   9.428   4.116 -3.4423 -1.1872  0.6613
  406MOL0     H53537   7.756   9.428   4.397 -0.9358 -0.5304  0.0907
  406MOL0     H53538   7.808   9.291   4.305  1.7433  0.5182  1.2190
  406MOL0     H53539   7.627   9.327   4.149  2.4637  1.5163 -0.7693
  406MOL0     H53540   7.608   9.496   4.194 -0.2538 -1.1393 -2.0261
  406MOL0     H53541   7.543   9.254   4.375 -1.5696  1.0919  1.6330
  406MOL0     H53542   7.523   9.422   4.420  0.6926  0.2817  0.3474
  406MOL0     H53543   7.306   9.279   4.330  0.0106 -0.4545 -0.5367
  406MOL0     H53544   7.379   9.292   4.173 -2.6344 -0.7328  0.1058
  406MOL0     H53545   7.421   9.542   4.076  1.6603  1.7584  1.0812
  406MOL0     H53546   7.182   9.867   4.107 -1.2788 -0.0927 -2.2095
  406MOL0     H53547   7.144   9.759   3.993 -1.1944  0.4190  1.1084
  406MOL0     H53548   7.415   9.753   3.964  0.1617  0.2903 -1.6149
  406MOL0     H53549   7.415   9.881   4.090 -1.4563  1.3403  0.1151
  406MOL0     H53550   7.302   9.901   3.801 -1.1064  0.3509 -0.1057
  406MOL0     H53551   7.258  10.003   3.937 -1.6735 -2.3645 -0.3825
  406MOL0     H53552   7.509  10.056   3.974 -1.1739 -0.2357 -0.2135
  406MOL0     H53553   7.452  10.091   3.815 -1.8477 -1.5506 -0.3089
  406MOL0     H53554   7.651  10.190   3.850 -1.1792  2.6479 -3.0770
  406MOL0     H53555   7.820  10.295   3.732 -2.1828 -0.1146 -1.2824
  406MOL0     H53556   8.364  10.040   3.545  0.8062 -2.3076  0.0173
  406MOL0     H53557   8.542  10.108   3.388 -0.6394  1.4188  2.1095
  406MOL0     H53558   8.536  10.394   3.191 -1.5205 -0.8678  0.3740
  406MOL0     H53559   8.504  10.355   3.025 -2.6563  1.0237  1.9156
  406MOL0     H53560   8.736  10.247   3.016  3.8490  2.3230 -0.7743
  406MOL0     H53561   8.748  10.302   3.181  0.8305 -6.5205  0.0606
  406MOL0     H53562   8.737  10.525   3.096  1.3913 -1.6490  1.3524
  406MOL0     H53563   8.689  10.473   2.933  0.9442  0.4177 -0.1801
  406MOL0     H53564   8.946  10.400   3.074  0.1856 -0.5729 -0.2526
  406MOL0     H53565   8.918  10.373   2.906 -1.1155 -1.3273  1.3497
  406MOL0     H53566   8.972  10.642   3.054 -0.2416  0.4284 -0.7741
  406MOL0     H53567   8.911  10.639   2.891  2.7693  3.8731 -0.3662
  406MOL0     H53568   9.105  10.490   2.816  1.2655 -0.1043 -1.3293
  406MOL0     H53569   9.169  10.520   2.986 -3.4979  0.4841  2.2105
  406MOL0     H53570   9.105  10.732   2.771  0.2936  0.7154 -0.2746
  406MOL0     H53571   9.178  10.777   2.927  0.4985  1.7090 -1.6175
  406MOL0     H53572   9.282  10.597   2.706  0.5611  1.9899 -0.8513
  406MOL0     H53573   9.381  10.630   2.858  1.2783 -1.4898  0.0085
  406MOL0     H53574   8.277  10.250   3.106  2.2298 -1.6258 -1.1166
  406MOL0     H53575   8.072  10.199   3.281 -0.1565  1.8488  1.8497
  406MOL0     H53576   7.929   9.908   3.548  0.5792  0.6843 -1.5044
  406MOL0     H53577   7.741   9.807   3.668  1.4671 -1.2335 -0.6914
  406MOL0     H53578   8.474   9.760   4.065  0.5238  1.1944  1.4639
  406MOL0     H53579   8.719   9.714   4.004 -1.1618  1.1419 -0.3268
  406MOL0     H53580   9.076   9.479   4.198 -0.5688  2.5005 -1.0852
  406MOL0     H53581   9.303   9.542   4.225 -0.2882  1.6290 -0.5359
  406MOL0     H53582   9.504   9.788   3.912 -1.0640 -2.7100 -1.0424
  406MOL0     H53583   9.604   9.770   4.045  0.9954  0.7763 -1.8758
  406MOL0     H53584   9.304   9.837   4.055 -0.0935 -0.1917 -1.1673
  406MOL0     H53585   9.401   9.822   4.203  0.4925  1.5723  1.2513
  406MOL0     H53586   9.441  10.043   3.998 -0.1630  0.5101  0.6083
  406MOL0     H53587   9.554  10.005   4.125 -0.4067 -1.2035  2.7239
  406MOL0     H53588   9.266  10.106   4.127 -0.5759 -1.6338  0.4012
  406MOL0     H53589   9.351  10.073   4.291 -0.8140  0.2387 -0.1199
  406MOL0     H53590   9.495  10.440   4.242  1.8953 -0.9433 -2.9328
  406MOL0     H53591   9.339   9.625   3.804  0.3017 -1.7099 -1.0015
  406MOL0     H53592   9.092   9.545   3.776 -2.5599  1.5787  2.2432
  407MOL0     O53593   3.615   0.453   1.129 -0.2368  0.2278  0.5773
  407MOL0     C53594   3.587   0.485   1.013 -0.3505  0.3948  0.2735
  407MOL0     O53595   3.481   0.441   0.929  0.1134  0.2763 -0.1861
  407MOL0     C53596   3.404   0.345   0.976  0.3968  0.4241 -0.1483
  407MOL0     C53597   3.421   0.207   0.949 -0.9389 -0.2447  0.3782
  407MOL0     C53598   3.329   0.118   0.996  0.3464 -1.2540 -0.6935
  407MOL0     C53599   3.217   0.158   1.065  0.4101  0.5794 -0.7005
  407MOL0     O53600   3.124   0.064   1.104  0.4962 -0.2589  0.3448
  407MOL0     C53601   3.004   0.114   1.164  0.0717  0.2066  0.5563
  407MOL0     C53602   2.919  -0.006   1.205 -0.1196 -0.2969  0.4397
  407MOL0     C53603   2.823  -0.059   1.101 -0.1311  0.0279  1.2326
  407MOL0     C53604   2.754  -0.181   1.165 -0.9344 -0.0655  1.4482
  407MOL0     C53605   2.618  -0.166   1.221  0.0119  1.1524 -0.5454
  407MOL0     C53606   2.520  -0.280   1.181 -1.2742  0.0102 -0.1737
  407MOL0     C53607   2.386  -0.253   1.220  0.0334 -0.6030  0.1998
  407MOL0     C53608   2.297  -0.369   1.212 -0.2821  0.0573  1.6494
  407MOL0     N53609   2.315  -0.432   1.076  0.8238  0.3850 -0.3301
  407MOL0     C53610   2.264  -0.379   0.956 -0.3176 -0.7794 -0.1813
  407MOL0     C53611   2.313  -0.458   0.862  0.2057 -0.4137  0.7116
  407MOL0     C53612   2.319  -0.439   0.710 -0.3689 -0.9085  0.6548
  407MOL0     C53613   2.195  -0.382   0.643  0.1505  0.1813 -0.4668
  407MOL0     C53614   2.236  -0.317   0.509  0.0523 -0.4085  0.4688
  407MOL0     C53615   2.112  -0.265   0.432  0.3613 -0.0268  0.5153
  407MOL0     O53616   2.018  -0.373   0.407  0.0439  0.3586  0.1988
  407MOL0     C53617   1.896  -0.352   0.464  0.2171 -0.4757  0.0436
  407MOL0     C53618   1.843  -0.444   0.564 -0.4392  0.0526  0.6784
  407MOL0     C53619   1.715  -0.434   0.621  0.0944  0.5558 -0.5310
  407MOL0     C53620   1.636  -0.328   0.576 -0.5344  0.8879  1.4428
  407MOL0     C53621   1.504  -0.294   0.636 -0.0925  0.2105 -0.0802
  407MOL0     O53622   1.476  -0.359   0.751  0.4893 -0.2030 -0.2213
  407MOL0     C53623   1.358  -0.331   0.813  0.1702  0.2140 -0.1069
  407MOL0     C53624   1.311  -0.196   0.849 -1.1067 -0.1745  0.4975
  407MOL0     C53625   1.189  -0.189   0.912 -0.1804  1.0977  0.5263
  407MOL0     C53626   1.107  -0.294   0.951  0.3945  0.5851  0.1512
  407MOL0     O53627   0.998  -0.255   1.026  0.0268 -0.0745  0.1757
  407MOL0     C53628   0.894  -0.352   1.032  1.0570  0.1635 -0.4141
  407MOL0     C53629   0.767  -0.277   1.091 -0.0038  0.1851  0.0858
  407MOL0     C53630   0.695  -0.189   0.980 -0.2199 -0.0392  0.0798
  407MOL0     C53631   0.581  -0.125   1.032 -0.2350  0.0348 -0.9645
  407MOL0     C53632   0.607  -0.024   1.155 -0.2756 -0.1427 -0.6412
  407MOL0     C53633   0.486   0.062   1.169  0.3134 -0.0802 -0.0639
  407MOL0     C53634   0.494   0.166   1.279  0.6799  0.0856 -0.1641
  407MOL0     C53635   0.369   0.260   1.264 -0.2537  0.0847 -0.2613
  407MOL0    Cl53636   0.224   0.173   1.330 -0.0528  0.0369 -0.1344
  407MOL0     C53637   1.163  -0.423   0.913  1.0353  0.2258 -0.3171
  407MOL0     C53638   1.289  -0.443   0.852  0.1427 -0.6211 -0.2993
  407MOL0     O53639   1.425  -0.218   0.588  0.5005  0.6941 -0.5624
  407MOL0     C53640   1.692  -0.228   0.484 -0.0196  0.5300  0.1562
  407MOL0     C53641   1.814  -0.245   0.421  0.9893  0.4487 -1.5812
  407MOL0     N53642   2.362  -0.574   0.928 -0.4284  0.4553  0.6311
  407MOL0     N53643   2.368  -0.556   1.054  0.5880 -0.3464 -0.2762
  407MOL0     C53644   3.207   0.295   1.096  0.0594 -0.0663  0.1580
  407MOL0     C53645   3.301   0.389   1.056  0.0766  0.8932  0.5348
  407MOL0     C53646   3.684   0.581   0.948  0.7987 -0.1251 -0.2112
  407MOL0     C53647   3.819   0.597   0.996  0.7734  0.0748 -0.2539
  407MOL0     C53648   3.895   0.702   0.939  0.7855  0.2819  0.3871
  407MOL0     C53649   3.840   0.781   0.835  0.4313 -0.0421  0.2877
  407MOL0     O53650   3.914   0.867   0.749  0.5164  0.8818 -0.0989
  407MOL0     C53651   4.050   0.843   0.725 -0.5829  0.5840 -0.4686
  407MOL0     C53652   4.157   0.918   0.817 -0.3206 -0.2268  0.2076
  407MOL0     C53653   4.165   1.070   0.785  0.6758  0.3851 -0.4015
  407MOL0     C53654   4.278   1.101   0.695  0.0154  0.4760  0.5020
  407MOL0     C53655   4.408   1.071   0.747 -0.3321 -1.1769  0.6282
  407MOL0     C53656   4.519   1.052   0.782 -0.8837 -0.4390  0.3234
  407MOL0     C53657   3.703   0.768   0.802 -0.3544 -0.6230  0.7524
  407MOL0     C53658   3.623   0.673   0.854 -0.5898 -0.4344  0.7021
  407MOL0     H53659   3.514   0.179   0.900 -0.5400  0.6622  0.5883
  407MOL0     H53660   3.345   0.013   0.975 -0.0687 -1.1302 -1.7020
  407MOL0     H53661   2.943   0.184   1.108 -0.4823 -1.0094 -0.4015
  407MOL0     H53662   3.034   0.170   1.254  2.0720  0.8086 -0.4243
  407MOL0     H53663   2.852   0.029   1.284 -0.7853 -1.5772  0.4679
  407MOL0     H53664   2.988  -0.080   1.248  1.7437  0.2133 -1.5223
  407MOL0     H53665   2.879  -0.087   1.011 -3.2529 -1.8656 -0.2638
  407MOL0     H53666   2.753   0.020   1.072  1.1390 -0.0805 -2.6528
  407MOL0     H53667   2.753  -0.264   1.094 -2.0488  1.1427 -0.0093
  407MOL0     H53668   2.811  -0.213   1.253 -1.3257  0.5349  1.9272
  407MOL0     H53669   2.575  -0.067   1.206 -1.1247  0.7317 -0.1473
  407MOL0     H53670   2.630  -0.176   1.330 -2.4622 -3.1161 -0.4152
  407MOL0     H53671   2.552  -0.378   1.215 -1.9089 -0.4365 -0.8267
  407MOL0     H53672   2.527  -0.287   1.072  0.7904  0.4541 -0.1106
  407MOL0     H53673   2.369  -0.210   1.319 -0.1547  0.4075 -0.2591
  407MOL0     H53674   2.366  -0.171   1.151  0.7044  1.7739  2.6884
  407MOL0     H53675   2.195  -0.330   1.223  0.6762  2.7236  1.6185
  407MOL0     H53676   2.327  -0.441   1.289 -0.3857 -0.1087  1.5348
  407MOL0     H53677   2.218  -0.281   0.946 -1.9615 -1.7518 -3.7704
  407MOL0     H53678   2.354  -0.530   0.661  3.7986 -0.4639  2.3820
  407MOL0     H53679   2.399  -0.366   0.698  0.1981 -1.3428  1.6021
  407MOL0     H53680   2.148  -0.311   0.712  0.1307  1.2008 -1.5013
  407MOL0     H53681   2.124  -0.463   0.624 -0.9141  0.4689  1.9871
  407MOL0     H53682   2.303  -0.233   0.528 -4.7977  3.4635  2.9393
  407MOL0     H53683   2.289  -0.387   0.445 -0.6585 -2.3670  1.9211
  407MOL0     H53684   2.141  -0.228   0.333 -3.4269 -0.5284 -0.9192
  407MOL0     H53685   2.068  -0.182   0.487 -0.2876  1.4755 -2.1135
  407MOL0     H53686   1.915  -0.523   0.580 -1.5620 -1.1892 -0.2957
  407MOL0     H53687   1.697  -0.514   0.693 -0.2402  0.6478 -0.5092
  407MOL0     H53688   1.376  -0.110   0.836 -1.4513 -0.1692 -1.4572
  407MOL0     H53689   1.148  -0.092   0.941 -0.6328  1.3168 -0.7782
  407MOL0     H53690   0.927  -0.436   1.094  0.7850 -0.8573 -1.6347
  407MOL0     H53691   0.868  -0.388   0.933  1.0880 -2.4084  0.4351
  407MOL0     H53692   0.792  -0.220   1.181 -0.6913  3.8575 -1.8568
  407MOL0     H53693   0.702  -0.356   1.129  1.4380 -1.4602 -0.7252
  407MOL0     H53694   0.657  -0.256   0.902 -0.1136  0.9674 -0.8534
  407MOL0     H53695   0.768  -0.122   0.933  2.3275 -2.8290 -0.2448
  407MOL0     H53696   0.538  -0.066   0.951 -1.6770  2.9188  1.6871
  407MOL0     H53697   0.503  -0.192   1.070  1.7157 -0.2990  3.0263
  407MOL0     H53698   0.696   0.037   1.133 -0.3612 -0.4580 -1.9608
  407MOL0     H53699   0.630  -0.075   1.249 -0.3197 -0.3068 -0.7208
  407MOL0     H53700   0.393   0.006   1.181 -0.2397 -0.0172 -3.1742
  407MOL0     H53701   0.475   0.120   1.077 -1.2016  0.7157  0.5798
  407MOL0     H53702   0.491   0.113   1.375 -0.5591  1.7275  0.7597
  407MOL0     H53703   0.592   0.214   1.273  0.4046  0.7669  0.4956
  407MOL0     H53704   0.346   0.282   1.159  2.7022 -1.6005 -1.3974
  407MOL0     H53705   0.385   0.357   1.313  2.1573  0.9425 -2.4903
  407MOL0     H53706   1.115  -0.515   0.946  0.6597  0.9694  1.3460
  407MOL0     H53707   1.334  -0.533   0.811 -1.5258 -0.9237 -1.5913
  407MOL0     H53708   1.629  -0.145   0.454 -1.1985 -1.5247 -3.7508
  407MOL0     H53709   1.851  -0.165   0.358 -0.0005  2.6255  0.4143
  407MOL0     H53710   3.127   0.326   1.163  0.0155 -1.0218  0.5591
  407MOL0     H53711   3.283   0.490   1.091 -1.6017  0.6346  0.4956
  407MOL0     H53712   3.849   0.542   1.084 -2.2707  2.3110  2.4361
  407MOL0     H53713   3.994   0.717   0.981 -0.1616  2.2716  2.0818
  407MOL0     H53714   4.066   0.859   0.618  0.6462 -0.6188 -0.4947
  407MOL0     H53715   4.067   0.736   0.743  1.1571  1.5141  5.3884
  407MOL0     H53716   4.131   0.901   0.922 -2.8295 -0.3884 -0.3738
  407MOL0     H53717   4.253   0.869   0.795  0.8372  2.5437 -1.4345
  407MOL0     H53718   4.183   1.127   0.877  4.9745 -0.9354 -0.2100
  407MOL0     H53719   4.075   1.120   0.748  2.4890  2.2086 -2.6429
  407MOL0     H53720   4.265   1.050   0.599 -3.5917 -0.0060  1.1134
  407MOL0     H53721   4.281   1.208   0.672 -1.0753  0.7286  1.4846
  407MOL0     H53722   4.616   1.017   0.812 -1.6506 -2.0019  1.1181
  407MOL0     H53723   3.659   0.826   0.721 -1.8013  0.0044  1.9379
  407MOL0     H53724   3.520   0.665   0.821 -0.1703  0.0804 -0.7776
  408MOL0     O53725   3.929  10.493   9.745  0.6237  0.4981 -0.5270
  408MOL0     C53726   3.934  10.561   9.640 -0.1480  1.1744  0.2161
  408MOL0     O53727   3.842  10.643   9.587 -0.1624 -0.2950  0.1807
  408MOL0     C53728   3.726  10.681   9.645  0.3409  0.3220 -0.4374
  408MOL0     C53729   3.655  10.793   9.589 -0.5305 -0.2848  0.5124
  408MOL0     C53730   3.537  10.838   9.639  1.0205 -0.2309  0.3511
  408MOL0     C53731   3.468  10.775   9.746  1.1940 -0.2984 -0.4719
  408MOL0     O53732   3.338  10.812   9.803  0.2691  0.3126  0.3236
  408MOL0     C53733   3.328  10.951   9.796  0.1863 -0.7844  0.7458
  408MOL0     C53734   3.219  10.999   9.893 -0.1682  0.2590  0.1240
  408MOL0     C53735   3.074  10.959   9.870 -0.5533 -0.0221  0.2221
  408MOL0     C53736   3.005  11.013   9.742 -0.4437 -0.4551  0.2938
  408MOL0     C53737   2.856  10.976   9.761  0.1786  1.1214  0.2748
  408MOL0     C53738   2.766  11.056   9.841  0.2419  0.0723  0.4933
  408MOL0     C53739   2.617  11.014   9.848  1.6444  0.0123  0.9391
  408MOL0     C53740   2.532  11.078   9.739 -0.3486  0.3376 -0.2627
  408MOL0     N53741   2.392  11.086   9.765  0.1000 -0.0689  0.1140
  408MOL0     C53742   2.297  11.026   9.691 -0.1684  0.0840 -0.0313
  408MOL0     C53743   2.180  11.088   9.729  0.3566  0.2153 -1.0312
  408MOL0     C53744   2.036  11.057   9.664 -0.1615  0.1942 -0.6224
  408MOL0     C53745   2.041  10.916   9.592  0.3200  0.4085 -0.0302
  408MOL0     C53746   2.008  10.809   9.685 -1.0578  0.2770  0.1852
  408MOL0     C53747   1.981  10.679   9.604  0.4035 -0.0227 -0.1462
  408MOL0     O53748   1.917  10.583   9.686 -0.6167 -0.1402  0.1311
  408MOL0     C53749   1.781  10.574   9.671 -0.4935  0.0443  0.1519
  408MOL0     C53750   1.720  10.461   9.742 -1.0881  1.0285 -0.1368
  408MOL0     C53751   1.583  10.446   9.741 -0.0494 -0.9961  0.2984
  408MOL0     C53752   1.498  10.539   9.682 -0.9207  0.3314  0.2433
  408MOL0     C53753   1.354  10.522   9.683  0.3434 -0.6132  0.1710
  408MOL0     O53754   1.284  10.632   9.633 -0.1935 -0.6798 -0.7075
  408MOL0     C53755   1.156  10.605   9.612  1.2273 -0.2460  0.1202
  408MOL0     C53756   1.122  10.525   9.499 -0.3851  0.4789  0.2665
  408MOL0     C53757   0.989  10.488   9.465 -0.1311  0.2018  0.3984
  408MOL0     C53758   0.885  10.534   9.546  0.7527 -0.2724 -1.3331
  408MOL0     O53759   0.754  10.514   9.525 -0.1107  0.2831  0.0562
  408MOL0     C53760   0.711  10.376   9.537 -0.2267  0.1655 -0.4681
  408MOL0     C53761   0.557  10.369   9.526  0.5324 -0.1995  0.2143
  408MOL0     C53762   0.501  10.227   9.516  0.1012  0.2588 -0.0978
  408MOL0     C53763   0.361  10.216   9.459  0.0812 -0.3649 -0.1135
  408MOL0     C53764   0.308  10.069   9.459  1.0788  0.7146  0.1765
  408MOL0     C53765   0.401   9.972   9.385 -0.4848 -0.0324 -1.5439
  408MOL0     C53766   0.335   9.834   9.400 -0.4791  0.2216  0.9992
  408MOL0     C53767   0.406   9.731   9.318 -0.1803  0.1935  0.3742
  408MOL0    Cl53768   0.583   9.770   9.320  0.3417 -0.0517  0.1619
  408MOL0     C53769   0.919  10.623   9.655  0.4939  0.5023 -0.2517
  408MOL0     C53770   1.049  10.654   9.685 -0.5980 -0.2896 -0.3645
  408MOL0     O53771   1.307  10.412   9.707 -0.5522 -0.0433 -0.6138
  408MOL0     C53772   1.559  10.651   9.616 -0.6364 -0.0490  0.0004
  408MOL0     C53773   1.695  10.664   9.621 -0.3361 -0.1533  0.2158
  408MOL0     N53774   2.202  11.174   9.834  0.4633 -0.1567 -0.7568
  408MOL0     N53775   2.332  11.168   9.860  0.0390  0.3573 -0.9363
  408MOL0     C53776   3.536  10.668   9.801  0.1347  0.1604  0.9066
  408MOL0     C53777   3.662  10.621   9.760  0.0906  0.1203  0.4248
  408MOL0     C53778   4.058  10.527   9.556  0.1823 -0.3447 -0.7259
  408MOL0     C53779   4.152  10.441   9.615 -0.1892 -0.7375 -0.2061
  408MOL0     C53780   4.277  10.425   9.541  0.3682 -0.3644 -0.6066
  408MOL0     C53781   4.304  10.490   9.425 -0.1020 -0.7893  0.5731
  408MOL0     O53782   4.427  10.491   9.372  0.7243  1.1790 -0.1018
  408MOL0     C53783   4.471  10.357   9.338  0.7676  0.0054  0.4876
  408MOL0     C53784   4.588  10.385   9.238 -0.0142 -0.4227  0.2982
  408MOL0     C53785   4.568  10.511   9.147  0.0203 -0.5752  0.6645
  408MOL0     C53786   4.685  10.532   9.054  0.3488  0.3175  0.1544
  408MOL0     C53787   4.806  10.559   9.133 -0.1059 -0.0545  0.4511
  408MOL0     C53788   4.911  10.582   9.191 -0.2580 -0.0198 -0.9757
  408MOL0     C53789   4.210  10.568   9.361  0.0306 -1.3396 -0.2346
  408MOL0     C53790   4.081  10.571   9.422  0.8988  0.2382  0.2101
  408MOL0     H53791   3.705  10.849   9.511 -0.9711  0.0298  0.4521
  408MOL0     H53792   3.493  10.925   9.590 -1.5219  0.1332  3.0330
  408MOL0     H53793   3.304  10.982   9.694  1.8114 -0.6386  0.3736
  408MOL0     H53794   3.420  10.999   9.831 -0.0185  1.2697 -1.2998
  408MOL0     H53795   3.229  11.108   9.886  2.0556  0.0331 -1.2843
  408MOL0     H53796   3.247  10.979   9.997  3.5738  1.9404 -0.3686
  408MOL0     H53797   3.027  11.010   9.954  0.0436  0.4811  0.2605
  408MOL0     H53798   3.059  10.852   9.887 -0.9118 -0.0261 -0.0973
  408MOL0     H53799   3.018  11.122   9.738  0.1041 -0.5543 -0.7117
  408MOL0     H53800   3.041  10.968   9.650  2.1181 -1.2191  1.5678
  408MOL0     H53801   2.838  10.871   9.783 -0.2914  1.3349  0.9309
  408MOL0     H53802   2.812  10.986   9.661  0.2046 -0.4367  0.0772
  408MOL0     H53803   2.783  11.160   9.813  1.3365 -0.2511 -0.1207
  408MOL0     H53804   2.799  11.047   9.945  2.4682 -0.2412 -0.1875
  408MOL0     H53805   2.598  10.906   9.854  0.3906  0.0315 -1.5322
  408MOL0     H53806   2.582  11.051   9.945  0.3157  0.6735  0.2365
  408MOL0     H53807   2.536  11.019   9.648  0.2608  0.5637 -0.3902
  408MOL0     H53808   2.572  11.178   9.717  0.2151  0.2231  0.2239
  408MOL0     H53809   2.324  10.965   9.605 -0.7993 -0.5242  0.1957
  408MOL0     H53810   2.022  11.138   9.593 -0.9128  1.3654  0.7904
  408MOL0     H53811   1.959  11.054   9.742 -0.3605 -0.0417 -0.8284
  408MOL0     H53812   2.130  10.902   9.530 -0.3092 -1.0957 -0.6407
  408MOL0     H53813   1.961  10.914   9.517 -1.5303  2.1657  1.7427
  408MOL0     H53814   2.096  10.794   9.747  0.1857  1.7253 -1.1519
  408MOL0     H53815   1.920  10.836   9.745 -1.6921 -0.5542 -0.3420
  408MOL0     H53816   2.083  10.648   9.576  0.9710  1.7052 -0.0950
  408MOL0     H53817   1.934  10.689   9.506  1.8629  0.0544 -0.8759
  408MOL0     H53818   1.783  10.390   9.794 -2.8658 -0.5626 -0.0422
  408MOL0     H53819   1.544  10.358   9.790 -0.5458 -2.1227 -1.9917
  408MOL0     H53820   1.204  10.491   9.436  0.1528  0.9347  0.7050
  408MOL0     H53821   0.966  10.423   9.381  1.0527  0.6380 -0.2882
  408MOL0     H53822   0.753  10.336   9.630  1.8370  2.4364 -0.3296
  408MOL0     H53823   0.763  10.330   9.452 -0.7093  0.9446 -1.2003
  408MOL0     H53824   0.530  10.417   9.432 -1.4824 -2.2867 -0.3897
  408MOL0     H53825   0.505  10.416   9.610 -0.9745  2.5401 -2.0849
  408MOL0     H53826   0.521  10.178   9.611  1.0459  2.4849  0.9177
  408MOL0     H53827   0.561  10.174   9.441 -2.2520 -0.6054 -1.5010
  408MOL0     H53828   0.290  10.280   9.513  0.6578 -0.7223  1.1041
  408MOL0     H53829   0.369  10.255   9.357  2.0319  0.2981  0.2436
  408MOL0     H53830   0.211  10.063   9.408  1.1371 -1.0980  0.2174
  408MOL0     H53831   0.290  10.039   9.562 -2.8313  0.9796 -0.2756
  408MOL0     H53832   0.502   9.975   9.427 -1.1370  1.7765  0.0494
  408MOL0     H53833   0.407  10.005   9.281 -2.3475 -0.9865 -2.0027
  408MOL0     H53834   0.336   9.800   9.503 -4.7977 -1.5318  0.6245
  408MOL0     H53835   0.231   9.830   9.367  0.1046 -1.1784 -0.8641
  408MOL0     H53836   0.384   9.739   9.211 -0.5291  0.7538  0.4835
  408MOL0     H53837   0.395   9.632   9.362  2.4327  0.6492  2.3182
  408MOL0     H53838   0.839  10.662   9.718  1.5232  4.7339 -1.2368
  408MOL0     H53839   1.067  10.727   9.762 -0.3251 -0.1367 -0.5729
  408MOL0     H53840   1.502  10.733   9.572  0.7432  0.7265 -0.4025
  408MOL0     H53841   1.730  10.751   9.567 -1.8992 -0.0583 -0.7278
  408MOL0     H53842   3.483  10.625   9.885  0.0688 -0.0692  0.7511
  408MOL0     H53843   3.720  10.548   9.816  0.7024  1.1246  1.1404
  408MOL0     H53844   4.148  10.403   9.716 -0.3152 -1.1161 -0.3541
  408MOL0     H53845   4.357  10.365   9.585 -0.0133 -0.1486  0.4128
  408MOL0     H53846   4.387  10.301   9.296  0.5191  0.4340  0.4053
  408MOL0     H53847   4.514  10.295   9.417  1.0916 -1.9699 -1.1282
  408MOL0     H53848   4.680  10.395   9.295  1.6987 -0.9057 -2.2512
  408MOL0     H53849   4.602  10.294   9.179 -1.9591 -2.2641  2.4076
  408MOL0     H53850   4.541  10.602   9.203 -2.2215  1.5214 -3.3769
  408MOL0     H53851   4.485  10.493   9.079  1.3272 -0.6915 -0.9530
  408MOL0     H53852   4.708  10.439   9.002  1.0626  1.2101 -1.1828
  408MOL0     H53853   4.679  10.616   8.985  0.0374  0.7715  0.7295
  408MOL0     H53854   4.996  10.612   9.249 -1.8066 -0.6579  1.8408
  408MOL0     H53855   4.218  10.619   9.266  0.0249 -3.0381 -1.1865
  408MOL0     H53856   4.007  10.627   9.367  2.2575  1.6401 -0.2527
  409MOL0     O53857   2.389   9.592  10.193  0.4384 -0.2004 -0.7699
  409MOL0     C53858   2.446   9.590  10.301 -0.0487  1.0544 -0.2994
  409MOL0     O53859   2.403   9.522  10.406 -0.0849 -0.0454 -0.6238
  409MOL0     C53860   2.277   9.476  10.421 -0.3216  0.6747 -0.0475
  409MOL0     C53861   2.177   9.559  10.471 -0.0454  0.0276 -1.4618
  409MOL0     C53862   2.047   9.524  10.467  0.0136 -0.6941  0.6322
  409MOL0     C53863   2.005   9.406  10.411  0.3243  0.1314 -0.7749
  409MOL0     O53864   1.878   9.363  10.407  0.3934 -0.1630  0.3988
  409MOL0     C53865   1.763   9.447  10.419 -0.2435 -0.4324 -0.8324
  409MOL0     C53866   1.647   9.351  10.410  0.6457  0.5171  0.4633
  409MOL0     C53867   1.523   9.420  10.363 -0.3667 -0.7876  0.2223
  409MOL0     C53868   1.404   9.331  10.387 -0.2801 -0.6561 -0.3893
  409MOL0     C53869   1.408   9.200  10.305  0.2938 -0.3409 -0.0220
  409MOL0     C53870   1.285   9.114  10.306  0.3103 -0.3645  0.0344
  409MOL0     C53871   1.152   9.187  10.263 -0.5775  0.2711  0.0885
  409MOL0     C53872   1.130   9.185  10.110 -0.4010  1.0604 -0.5420
  409MOL0     N53873   0.993   9.207  10.074 -0.9519  0.0043  0.7929
  409MOL0     C53874   0.930   9.323  10.108  0.1779 -0.9381  0.7279
  409MOL0     C53875   0.801   9.287  10.101 -0.0588 -0.5523 -0.4921
  409MOL0     C53876   0.675   9.375  10.124  0.5389 -0.1563 -0.0011
  409MOL0     C53877   0.670   9.424  10.271  0.0977  0.0716  0.5724
  409MOL0     C53878   0.658   9.314  10.378  0.1022 -0.2408  0.7038
  409MOL0     C53879   0.523   9.229  10.365  0.3535 -0.0999 -0.5750
  409MOL0     O53880   0.434   9.292  10.458 -0.0756  0.1627 -0.0358
  409MOL0     C53881   0.296   9.263  10.461 -0.5699 -0.5424 -0.3050
  409MOL0     C53882   0.211   9.360  10.513  0.3471 -0.3480  1.0712
  409MOL0     C53883   0.073   9.352  10.505 -1.0917  0.8652  0.1509
  409MOL0     C53884   0.012   9.235  10.451  0.5467 -0.1933  0.1612
  409MOL0     C53885  -0.140   9.213  10.454 -0.3749  0.2701  0.4131
  409MOL0     O53886  -0.224   9.317  10.496 -0.7530  0.6683 -0.1376
  409MOL0     C53887  -0.361   9.298  10.472 -0.3512 -0.5378  0.4404
  409MOL0     C53888  -0.415   9.267  10.345  0.2524  0.1805 -0.8953
  409MOL0     C53889  -0.557   9.249  10.334  0.4320 -0.4133 -0.6310
  409MOL0     C53890  -0.642   9.275  10.449 -0.0150 -0.2332  0.2161
  409MOL0     O53891  -0.773   9.261  10.431  0.5032 -0.4590  0.0210
  409MOL0     C53892  -0.862   9.210  10.530 -0.1438 -0.3232  0.5073
  409MOL0     C53893  -1.002   9.190  10.452  0.2499  0.1452  0.2278
  409MOL0     C53894  -0.989   9.056  10.369 -0.5801 -0.4243 -0.5853
  409MOL0     C53895  -1.083   9.068  10.251 -0.6131  0.1033 -0.7256
  409MOL0     C53896  -1.123   8.934  10.193  0.5806  0.6169 -0.9853
  409MOL0     C53897  -1.235   8.971  10.080  0.1431 -0.0632 -0.1427
  409MOL0     C53898  -1.275   8.847   9.997 -0.5422  0.1047  0.3648
  409MOL0     C53899  -1.370   8.858   9.881  0.4822 -0.2533  0.2388
  409MOL0    Cl53900  -1.448   8.701   9.863  0.2336 -0.3953 -0.3954
  409MOL0     C53901  -0.573   9.308  10.570 -0.2696  0.1313 -0.1845
  409MOL0     C53902  -0.435   9.325  10.581 -0.2174  0.4903  0.6894
  409MOL0     O53903  -0.183   9.098  10.429 -0.3691  0.8337 -0.2147
  409MOL0     C53904   0.098   9.150  10.390  0.2700 -0.0317  0.1535
  409MOL0     C53905   0.237   9.150  10.399  0.7600  0.1962 -0.2061
  409MOL0     N53906   0.793   9.153  10.071 -0.2636  0.1756 -0.4182
  409MOL0     N53907   0.915   9.108  10.047 -0.4204 -0.3351 -0.1950
  409MOL0     C53908   2.110   9.311  10.390  0.9881 -0.6993  0.5254
  409MOL0     C53909   2.244   9.348  10.388  0.2689 -0.5206  0.0471
  409MOL0     C53910   2.581   9.654  10.294  0.6354  0.5040 -0.1950
  409MOL0     C53911   2.606   9.751  10.195  0.0350  0.3760 -1.2430
  409MOL0     C53912   2.724   9.826  10.198 -0.5844 -0.6668 -0.3629
  409MOL0     C53913   2.818   9.812  10.302 -0.4781  0.4503  0.3514
  409MOL0     O53914   2.937   9.880  10.306 -1.2076 -0.0308  0.1440
  409MOL0     C53915   2.967   9.963  10.195  0.4626  0.0460 -0.5514
  409MOL0     C53916   3.092  10.048  10.227  0.0458  0.2225 -0.2702
  409MOL0     C53917   3.134  10.132  10.114 -0.2655  0.5111 -0.5448
  409MOL0     C53918   3.261  10.214  10.148  0.0690  0.4776 -0.8911
  409MOL0     C53919   3.312  10.269  10.026  0.3534 -0.3824 -0.3357
  409MOL0     C53920   3.366  10.302   9.924 -1.1373  0.2578 -0.4517
  409MOL0     C53921   2.784   9.721  10.407  0.6975 -0.3532  0.0444
  409MOL0     C53922   2.669   9.645  10.405 -0.4066 -0.1157 -0.5395
  409MOL0     H53923   2.205   9.659  10.505 -0.6446 -0.9270  2.2366
  409MOL0     H53924   1.971   9.591  10.506 -1.2159 -0.3598 -2.0981
  409MOL0     H53925   1.762   9.530  10.347 -0.9157 -0.5835 -0.9989
  409MOL0     H53926   1.753   9.489  10.520 -0.7214 -2.2461 -0.0930
  409MOL0     H53927   1.627   9.310  10.510  3.9159 -0.4602  0.8503
  409MOL0     H53928   1.677   9.276  10.335  0.7092  1.1078 -0.1075
  409MOL0     H53929   1.523   9.436  10.254 -2.2476 -3.0347 -0.2070
  409MOL0     H53930   1.521   9.509  10.425  2.1132 -0.6006  0.1078
  409MOL0     H53931   1.406   9.296  10.491 -2.4767  1.1096  0.3224
  409MOL0     H53932   1.314   9.386  10.358 -0.9422 -1.6132 -0.1966
  409MOL0     H53933   1.497   9.144  10.336  1.6836  1.6663 -0.1602
  409MOL0     H53934   1.423   9.224  10.199 -0.4881  0.5589  0.0511
  409MOL0     H53935   1.261   9.092  10.410 -3.2667 -2.1138 -0.9606
  409MOL0     H53936   1.300   9.012  10.269 -3.5363 -1.1868  0.2504
  409MOL0     H53937   1.084   9.120  10.316  1.4107 -2.1947 -0.2704
  409MOL0     H53938   1.142   9.288  10.302  3.1608  0.8632 -0.1351
  409MOL0     H53939   1.159   9.087  10.069 -5.1248 -0.1674 -1.5470
  409MOL0     H53940   1.202   9.253  10.065  1.9308 -0.6253  0.4166
  409MOL0     H53941   0.978   9.414  10.142 -1.1294 -0.3946  1.1921
  409MOL0     H53942   0.591   9.308  10.107 -0.7374  0.6968  2.4846
  409MOL0     H53943   0.672   9.462  10.058 -0.0106 -0.2849 -0.1454
  409MOL0     H53944   0.577   9.481  10.275  0.2548  0.4138 -0.2823
  409MOL0     H53945   0.766   9.476  10.283 -0.5869  1.1305  1.6474
  409MOL0     H53946   0.746   9.250  10.361 -0.4717 -0.1509 -4.3237
  409MOL0     H53947   0.671   9.362  10.475  2.5682  2.5912 -0.8499
  409MOL0     H53948   0.541   9.125  10.390  0.3001 -0.2633 -1.1853
  409MOL0     H53949   0.479   9.233  10.264  1.6100 -1.5589 -1.2056
  409MOL0     H53950   0.258   9.452  10.547  2.6886 -0.7049 -0.9404
  409MOL0     H53951   0.013   9.431  10.548 -1.4314 -0.3647  2.0974
  409MOL0     H53952  -0.346   9.258  10.262 -0.1651  1.6346 -1.4317
  409MOL0     H53953  -0.589   9.209  10.238 -2.9377  1.2448 -0.3595
  409MOL0     H53954  -0.860   9.281  10.613  1.3245  1.5932 -1.0549
  409MOL0     H53955  -0.813   9.120  10.569  1.2187 -0.3312 -1.1050
  409MOL0     H53956  -1.012   9.273  10.382 -2.4067  0.3683  0.7357
  409MOL0     H53957  -1.088   9.186  10.520 -2.1069 -0.6609 -2.6134
  409MOL0     H53958  -1.007   8.968  10.431 -2.1368 -0.6924 -1.3764
  409MOL0     H53959  -0.886   9.051  10.332 -0.9476  1.4364 -2.0311
  409MOL0     H53960  -1.174   9.119  10.284 -2.7304 -3.9323  0.3946
  409MOL0     H53961  -1.031   9.119  10.170 -1.2019 -0.6270 -1.5858
  409MOL0     H53962  -1.178   8.878  10.269 -0.5717  4.6269  1.4496
  409MOL0     H53963  -1.040   8.870  10.163 -1.1930 -2.2835 -0.1317
  409MOL0     H53964  -1.187   9.043  10.013  1.0431  0.4813  1.0495
  409MOL0     H53965  -1.328   9.018  10.113 -0.1155 -0.5854 -0.1289
  409MOL0     H53966  -1.184   8.804   9.953 -1.2282  0.4717 -1.4887
  409MOL0     H53967  -1.319   8.775  10.067  1.0568 -0.4821  0.8145
  409MOL0     H53968  -1.315   8.888   9.791  1.3385 -0.5693  0.6436
  409MOL0     H53969  -1.447   8.935   9.893 -1.0659 -1.5963 -0.6658
  409MOL0     H53970  -0.631   9.330  10.659  3.3197  3.2397  1.6256
  409MOL0     H53971  -0.390   9.341  10.679 -1.4978  0.6612  1.2750
  409MOL0     H53972   0.049   9.071  10.334  1.6920 -1.8531  1.3483
  409MOL0     H53973   0.305   9.078  10.354 -0.9510 -0.8034 -1.2943
  409MOL0     H53974   2.083   9.210  10.361  0.2284 -0.2149 -0.4749
  409MOL0     H53975   2.305   9.261  10.367  0.0963 -0.4123 -0.9644
  409MOL0     H53976   2.536   9.768  10.114 -2.1987 -1.0228  0.3000
  409MOL0     H53977   2.743   9.894  10.115 -1.5255  0.4628  0.3239
  409MOL0     H53978   2.889  10.036  10.172  1.5954  2.2597  2.0109
  409MOL0     H53979   2.986   9.905  10.104  0.4066 -1.1973  0.2132
  409MOL0     H53980   3.069  10.126  10.301  4.1064  1.2444  0.1851
  409MOL0     H53981   3.177   9.996  10.272  0.7707  3.5183  2.6220
  409MOL0     H53982   3.049  10.197  10.090 -0.2680  0.5583 -0.4090
  409MOL0     H53983   3.163  10.064  10.033  0.1415  2.0215 -1.7216
  409MOL0     H53984   3.243  10.291  10.223  0.8355 -0.7044  0.5765
  409MOL0     H53985   3.340  10.149  10.189  0.1956  0.1189 -1.6801
  409MOL0     H53986   3.413  10.348   9.840  1.7093  1.8009  1.8133
  409MOL0     H53987   2.851   9.712  10.491  1.6691  2.4976 -0.3065
  409MOL0     H53988   2.647   9.583  10.492  0.0133  2.7771  1.8149
  410MOL0     O53989   3.876  10.361   0.818  0.0333 -0.6438  0.3758
  410MOL0     C53990   3.956  10.455   0.812 -0.3056  0.4214 -0.5283
  410MOL0     O53991   3.932  10.584   0.819 -0.1025 -0.1847  0.0002
  410MOL0     C53992   3.811  10.630   0.868  0.2840 -0.3348 -0.0857
  410MOL0     C53993   3.713  10.554   0.949  0.1546 -0.1430 -0.7883
  410MOL0     C53994   3.603  10.617   1.004 -0.5205 -0.6131  0.7236
  410MOL0     C53995   3.580  10.755   0.979 -0.0719 -0.1626  0.1150
  410MOL0     O53996   3.470  10.810   1.042 -0.0830 -0.0679  0.0943
  410MOL0     C53997   3.417  10.938   1.015 -0.1981 -0.9041 -0.0716
  410MOL0     C53998   3.260  10.954   1.026 -0.1903 -0.2948 -0.8183
  410MOL0     C53999   3.215  10.880   1.149  0.4379 -0.7567  0.2659
  410MOL0     C54000   3.065  10.903   1.166 -0.0944 -0.6788  1.0629
  410MOL0     C54001   3.023  10.901   1.301  0.7956  0.1906  0.1401
  410MOL0     C54002   3.054  10.767   1.369 -0.4101 -0.1102  0.5969
  410MOL0     C54003   2.998  10.758   1.511 -0.0218 -0.6705  0.0378
  410MOL0     C54004   2.842  10.771   1.525 -0.1929  0.8946 -1.1199
  410MOL0     N54005   2.754  10.665   1.469 -0.4868 -0.4682  0.4333
  410MOL0     C54006   2.667  10.581   1.531 -0.8331 -0.2869 -0.3206
  410MOL0     C54007   2.598  10.518   1.429  0.3488  0.6072  0.2129
  410MOL0     C54008   2.474  10.438   1.447  0.1480  0.7290 -0.6067
  410MOL0     C54009   2.359  10.521   1.400 -0.5333 -0.4960 -0.1465
  410MOL0     C54010   2.224  10.463   1.457  1.0720 -0.0954 -0.7487
  410MOL0     C54011   2.106  10.557   1.419 -0.1159 -0.6005  1.1344
  410MOL0     O54012   2.107  10.664   1.514  0.8749  0.2643 -0.6515
  410MOL0     C54013   1.986  10.722   1.545  0.3295  0.6174 -0.1088
  410MOL0     C54014   1.968  10.788   1.671 -0.1988  0.1605 -0.3682
  410MOL0     C54015   1.845  10.846   1.702  0.3857 -0.4517 -0.5892
  410MOL0     C54016   1.739  10.839   1.606 -0.0559 -0.3466 -0.1925
  410MOL0     C54017   1.608  10.901   1.641 -0.5084  0.3687 -0.6116
  410MOL0     O54018   1.599  10.956   1.764 -0.2639 -0.3240  0.5773
  410MOL0     C54019   1.478  10.998   1.807  1.1360  0.4475 -0.3460
  410MOL0     C54020   1.457  11.127   1.871  0.3045 -0.3492 -0.0087
  410MOL0     C54021   1.333  11.166   1.924  0.2281  0.4895 -0.1352
  410MOL0     C54022   1.233  11.068   1.917 -1.3290 -0.2486  0.4466
  410MOL0     O54023   1.119  11.096   1.983  0.1140  0.0659  0.2559
  410MOL0     C54024   1.062  10.983   2.068 -0.8226 -1.0056 -0.1111
  410MOL0     C54025   0.942  11.029   2.146  0.6070  0.3990 -0.3915
  410MOL0     C54026   0.822  11.023   2.054 -0.6573  0.8515  1.2068
  410MOL0     C54027   0.697  11.077   2.117  0.3477 -0.0410  0.5827
  410MOL0     C54028   0.580  11.077   2.012 -1.0333  0.1333 -0.4375
  410MOL0     C54029   0.436  11.056   2.071 -0.1498  0.3836 -0.1383
  410MOL0     C54030   0.326  11.059   1.958  0.1574 -0.5433 -1.1215
  410MOL0     C54031   0.195  11.040   2.025  0.8266  0.1984 -0.2773
  410MOL0    Cl54032   0.116  11.194   2.107  0.1407  0.1467 -0.1449
  410MOL0     C54033   1.248  10.940   1.853 -1.2093 -0.2662  0.7525
  410MOL0     C54034   1.368  10.904   1.795 -0.1601 -0.2287  0.1393
  410MOL0     O54035   1.517  10.889   1.553 -0.4474 -0.5689  0.6008
  410MOL0     C54036   1.761  10.784   1.477  0.2254 -0.3910 -0.6232
  410MOL0     C54037   1.886  10.729   1.449 -0.3780 -0.5302  0.4078
  410MOL0     N54038   2.657  10.554   1.309 -0.0375 -0.9069 -0.6070
  410MOL0     N54039   2.742  10.641   1.338 -0.4051  0.4417 -0.4412
  410MOL0     C54040   3.670  10.825   0.899  0.8447  0.5369 -0.5631
  410MOL0     C54041   3.782  10.762   0.844  0.2145  0.7909  0.2742
  410MOL0     C54042   4.094  10.405   0.807 -0.7191  0.6838 -0.0087
  410MOL0     C54043   4.134  10.275   0.826  0.5426  0.2940 -0.5403
  410MOL0     C54044   4.268  10.243   0.828 -0.1962 -0.6851 -0.1652
  410MOL0     C54045   4.372  10.344   0.802  0.9900  0.3725 -0.1428
  410MOL0     O54046   4.504  10.323   0.799  0.9792 -0.6348  0.1231
  410MOL0     C54047   4.562  10.194   0.813 -0.4783  0.2393  0.1390
  410MOL0     C54048   4.696  10.207   0.731 -0.3486  0.0478 -0.6108
  410MOL0     C54049   4.796  10.321   0.776 -0.2546  0.4856  0.2461
  410MOL0     C54050   4.927  10.315   0.689  0.1457 -0.4122 -0.2536
  410MOL0     C54051   5.036  10.277   0.779  0.0830 -0.1488  0.1753
  410MOL0     C54052   5.135  10.234   0.839 -0.1271 -0.1608 -0.3156
  410MOL0     C54053   4.325  10.474   0.781  0.3503  0.4942 -0.2877
  410MOL0     C54054   4.190  10.502   0.779  0.8192  0.2311  0.0470
  410MOL0     H54055   3.723  10.447   0.963 -1.0125 -0.8960 -4.6316
  410MOL0     H54056   3.524  10.562   1.053 -1.7748 -1.1581 -1.7527
  410MOL0     H54057   3.453  10.972   0.917 -1.7668  0.3331 -0.2641
  410MOL0     H54058   3.452  11.014   1.086 -1.1843  1.4368 -1.9658
  410MOL0     H54059   3.203  10.908   0.945 -0.2053 -1.6916 -0.0470
  410MOL0     H54060   3.222  11.056   1.020 -0.4747 -0.4696 -2.2820
  410MOL0     H54061   3.269  10.916   1.238 -0.4895 -3.5128  2.1031
  410MOL0     H54062   3.246  10.775   1.150  2.0386 -0.3142  1.2136
  410MOL0     H54063   3.043  11.002   1.123 -0.0909 -0.9869  0.3319
  410MOL0     H54064   3.013  10.835   1.098 -0.7092  1.3275 -0.5815
  410MOL0     H54065   2.914  10.914   1.296  0.6786 -1.1513 -2.8450
  410MOL0     H54066   3.058  10.989   1.357 -3.2112  3.4940 -1.9499
  410MOL0     H54067   3.162  10.756   1.378 -0.5831 -0.6579  2.4845
  410MOL0     H54068   3.010  10.692   1.303  0.2696  1.5309 -1.8944
  410MOL0     H54069   3.045  10.672   1.559  0.2323 -1.0195 -0.8184
  410MOL0     H54070   3.033  10.850   1.558 -2.3774  0.2933  0.0859
  410MOL0     H54071   2.807  10.865   1.482  0.5866  2.5591  1.5946
  410MOL0     H54072   2.815  10.793   1.629 -0.1664  3.2013 -1.5565
  410MOL0     H54073   2.636  10.588   1.635  0.7448  3.4429  0.0560
  410MOL0     H54074   2.460  10.416   1.554  0.3733 -1.5606 -1.0010
  410MOL0     H54075   2.476  10.343   1.395  0.3408  0.2789  0.2044
  410MOL0     H54076   2.360  10.519   1.291  0.6700  1.0461 -0.2060
  410MOL0     H54077   2.371  10.624   1.436 -2.0650  0.0400 -1.0772
  410MOL0     H54078   2.209  10.368   1.405  1.9027 -0.7308  0.1512
  410MOL0     H54079   2.219  10.449   1.565 -1.2755 -0.1297 -0.8109
  410MOL0     H54080   2.012  10.502   1.426 -1.3045  1.0833 -0.5361
  410MOL0     H54081   2.129  10.589   1.317  2.7366  2.0840  2.4470
  410MOL0     H54082   2.050  10.785   1.742 -0.5616  1.2312  0.1030
  410MOL0     H54083   1.834  10.891   1.801  0.1739  0.6146 -1.0834
  410MOL0     H54084   1.539  11.196   1.856  0.1029 -0.4897 -2.0350
  410MOL0     H54085   1.310  11.253   1.985 -0.3199  0.2342  0.0297
  410MOL0     H54086   1.139  10.956   2.140 -0.8603 -0.6080  0.0787
  410MOL0     H54087   1.030  10.895   2.011 -1.7234  0.8842 -2.7097
  410MOL0     H54088   0.959  11.130   2.186 -2.7262  1.2601 -0.8370
  410MOL0     H54089   0.923  10.959   2.228 -0.4236 -0.1549 -1.0866
  410MOL0     H54090   0.803  10.917   2.037 -0.0140  0.8468  0.4640
  410MOL0     H54091   0.843  11.071   1.958 -1.4651 -0.1032  0.5433
  410MOL0     H54092   0.664  11.004   2.191 -0.2977  0.0207  0.3671
  410MOL0     H54093   0.708  11.172   2.170 -0.7773  1.5406 -1.8455
  410MOL0     H54094   0.592  10.997   1.939 -2.1743 -0.6507  0.2010
  410MOL0     H54095   0.596  11.173   1.962 -3.5546 -0.0828 -1.8453
  410MOL0     H54096   0.415  11.131   2.147  2.4078 -0.5080  1.5865
  410MOL0     H54097   0.425  10.960   2.121 -0.7813  1.8139  2.6324
  410MOL0     H54098   0.324  11.157   1.910  0.4604 -0.2209 -0.4847
  410MOL0     H54099   0.350  10.982   1.884  1.8575  2.8840 -4.4491
  410MOL0     H54100   0.201  10.967   2.107 -1.0373 -0.7197 -0.8894
  410MOL0     H54101   0.119  11.002   1.956  0.9781 -1.4614  0.4174
  410MOL0     H54102   1.169  10.867   1.843 -0.6634 -0.8449  0.6420
  410MOL0     H54103   1.368  10.815   1.733 -3.5941 -0.1595 -0.1202
  410MOL0     H54104   1.681  10.773   1.405  0.8146  0.1515 -1.3699
  410MOL0     H54105   1.904  10.695   1.348  1.7846 -1.9481  1.2020
  410MOL0     H54106   3.664  10.932   0.883  2.1759  1.1244  2.3582
  410MOL0     H54107   3.854  10.819   0.786 -0.9746  1.2190 -0.8150
  410MOL0     H54108   4.069  10.200   0.870  1.5963 -1.2056 -1.4259
  410MOL0     H54109   4.307  10.145   0.853 -0.7490 -1.2403 -1.3801
  410MOL0     H54110   4.509  10.114   0.761  0.5220  0.1646 -0.7923
  410MOL0     H54111   4.578  10.166   0.918 -1.8130  0.4112  0.4057
  410MOL0     H54112   4.744  10.109   0.742 -0.2657  0.3750  4.3852
  410MOL0     H54113   4.670  10.234   0.628  1.4174 -1.4135 -1.4913
  410MOL0     H54114   4.813  10.327   0.883 -1.1273 -3.2929  0.7339
  410MOL0     H54115   4.747  10.417   0.756  1.7112  1.1098 -2.0902
  410MOL0     H54116   4.923  10.238   0.612 -0.0914  0.0642 -0.7205
  410MOL0     H54117   4.951  10.410   0.641  2.5004 -0.5310  0.5679
  410MOL0     H54118   5.233  10.204   0.869  0.3915  0.9603 -0.8061
  410MOL0     H54119   4.393  10.557   0.765 -1.4623  2.2756  0.7598
  410MOL0     H54120   4.164  10.606   0.761 -1.0230  0.0541  1.4082
  411MOL0     O54121   7.557   1.189   7.038 -0.0227 -0.1271  0.6019
  411MOL0     C54122   7.607   1.203   6.929  0.2779 -0.2008 -0.8671
  411MOL0     O54123   7.540   1.246   6.819  0.5343 -0.5299  0.0304
  411MOL0     C54124   7.405   1.220   6.814  0.7950  0.7747  0.2628
  411MOL0     C54125   7.318   1.319   6.781 -1.0120  0.0404 -0.4108
  411MOL0     C54126   7.177   1.309   6.780  0.1196  0.3862 -0.4809
  411MOL0     C54127   7.117   1.184   6.816 -0.0733 -0.2055 -0.4997
  411MOL0     O54128   6.981   1.145   6.807 -0.7971 -0.1495 -0.3782
  411MOL0     C54129   6.897   1.254   6.774  0.5254 -0.4744 -0.5870
  411MOL0     C54130   6.753   1.224   6.820 -0.1624 -0.1984  0.1521
  411MOL0     C54131   6.643   1.320   6.761  0.6185 -0.5490 -0.0636
  411MOL0     C54132   6.647   1.458   6.833  0.0054  0.0503  0.6073
  411MOL0     C54133   6.582   1.573   6.747  0.6656  0.0576 -0.8315
  411MOL0     C54134   6.686   1.641   6.655  0.4205 -0.6307  0.4308
  411MOL0     C54135   6.641   1.790   6.599 -0.1706  0.2789  0.3030
  411MOL0     C54136   6.531   1.796   6.496  0.1092  0.1759  0.2928
  411MOL0     N54137   6.401   1.818   6.559 -0.3504 -0.4493 -0.6113
  411MOL0     C54138   6.331   1.701   6.586  1.2505 -0.3482  0.0546
  411MOL0     C54139   6.240   1.736   6.683 -0.4615 -0.0413  0.0920
  411MOL0     C54140   6.143   1.639   6.740  0.2181  0.8209  0.7071
  411MOL0     C54141   6.017   1.697   6.816 -0.4460  0.1248  0.8919
  411MOL0     C54142   5.927   1.570   6.850 -0.1866 -0.6429 -0.2418
  411MOL0     C54143   5.795   1.623   6.907 -0.1923  0.1999 -0.3333
  411MOL0     O54144   5.715   1.514   6.944 -0.4769  0.7121 -0.3922
  411MOL0     C54145   5.587   1.538   6.984 -0.2348  0.6824  0.6483
  411MOL0     C54146   5.528   1.658   6.995  0.1063  0.2470  0.3122
  411MOL0     C54147   5.397   1.676   7.030  0.9111 -0.3989  0.1176
  411MOL0     C54148   5.319   1.559   7.063  0.9932 -0.0346  1.5911
  411MOL0     C54149   5.181   1.560   7.110 -0.0129 -0.8506  0.3430
  411MOL0     O54150   5.129   1.462   7.174  0.2611 -0.3732  0.3980
  411MOL0     C54151   4.991   1.467   7.176  0.0006  0.4164 -0.5754
  411MOL0     C54152   4.926   1.557   7.265  0.2427 -0.1170  0.5934
  411MOL0     C54153   4.788   1.561   7.268  0.7051 -0.9607 -0.3830
  411MOL0     C54154   4.715   1.465   7.204  0.4063  0.9064  0.1826
  411MOL0     O54155   4.581   1.457   7.235  0.7359 -0.0222 -0.4122
  411MOL0     C54156   4.499   1.559   7.173 -0.3479  0.8308 -0.7842
  411MOL0     C54157   4.405   1.621   7.282 -0.5230 -0.0248  0.0292
  411MOL0     C54158   4.335   1.748   7.223  0.7163 -0.5326 -0.0440
  411MOL0     C54159   4.234   1.718   7.118 -0.4755  0.4338  0.1487
  411MOL0     C54160   4.147   1.847   7.086 -0.7798 -0.0864 -0.1046
  411MOL0     C54161   4.016   1.862   7.171  0.0180 -0.3827  1.0133
  411MOL0     C54162   3.927   1.734   7.195  0.9013  0.9981  0.0579
  411MOL0     C54163   3.783   1.774   7.208 -0.4722  0.9871 -0.3647
  411MOL0    Cl54164   3.697   1.618   7.244 -0.1327  0.2478 -0.0097
  411MOL0     C54165   4.775   1.366   7.129  0.3106 -0.2804  0.7994
  411MOL0     C54166   4.916   1.370   7.118 -0.0174  0.6581  0.2906
  411MOL0     O54167   5.129   1.671   7.097  0.0875 -0.9518  0.4758
  411MOL0     C54168   5.379   1.437   7.039  0.8495 -0.0435 -0.0559
  411MOL0     C54169   5.510   1.422   6.999 -0.0353 -0.1635  0.6213
  411MOL0     N54170   6.272   1.863   6.723 -0.3578 -0.0434  0.0294
  411MOL0     N54171   6.372   1.911   6.659 -0.4831 -0.8506  0.4411
  411MOL0     C54172   7.202   1.087   6.868 -0.5109 -0.2513  0.1122
  411MOL0     C54173   7.344   1.102   6.860 -0.8420 -0.3803  0.2638
  411MOL0     C54174   7.752   1.172   6.910 -0.7106 -0.5913 -0.3007
  411MOL0     C54175   7.821   1.197   6.787 -0.2091 -0.0761  0.6510
  411MOL0     C54176   7.955   1.161   6.770 -0.4804  0.2813 -0.1932
  411MOL0     C54177   8.028   1.108   6.883 -0.5246  0.8372  0.5482
  411MOL0     O54178   8.155   1.063   6.866 -0.2905  0.2397  0.1168
  411MOL0     C54179   8.234   1.094   6.748  0.1686 -0.2142 -0.3748
  411MOL0     C54180   8.289   1.240   6.734  0.4244  0.7508  0.6316
  411MOL0     C54181   8.386   1.288   6.844 -0.3798  0.0339  0.5411
  411MOL0     C54182   8.392   1.436   6.844 -0.0004  0.3574 -0.6107
  411MOL0     C54183   8.471   1.483   6.731 -0.1606 -0.4242  0.0223
  411MOL0     C54184   8.559   1.511   6.645 -0.3241 -0.0876 -0.7931
  411MOL0     C54185   7.958   1.077   7.002 -0.7317 -0.8283 -0.6802
  411MOL0     C54186   7.820   1.111   7.022 -0.0011  0.2927  1.2557
  411MOL0     H54187   7.360   1.411   6.742 -0.7477  0.4074  0.6853
  411MOL0     H54188   7.122   1.402   6.765 -2.2858 -0.4847  2.1454
  411MOL0     H54189   6.906   1.266   6.666 -0.2970  1.1331 -0.5115
  411MOL0     H54190   6.924   1.352   6.815 -1.2983  0.5597 -1.6701
  411MOL0     H54191   6.752   1.235   6.929  1.1730  0.3132  0.1330
  411MOL0     H54192   6.733   1.119   6.794 -0.4972  0.1448 -1.0373
  411MOL0     H54193   6.543   1.277   6.769  0.3693 -0.0609 -0.4818
  411MOL0     H54194   6.672   1.323   6.655 -0.5012 -2.1805 -0.4609
  411MOL0     H54195   6.600   1.455   6.932  2.3713  2.3334  1.9105
  411MOL0     H54196   6.751   1.481   6.858 -0.6399  1.4085  2.1672
  411MOL0     H54197   6.556   1.650   6.820 -0.1092 -1.8690  1.0292
  411MOL0     H54198   6.501   1.529   6.688  1.8399 -3.2665 -0.1687
  411MOL0     H54199   6.703   1.578   6.567  0.7339  0.1304 -0.0627
  411MOL0     H54200   6.779   1.650   6.713  0.6515  1.7111 -0.2084
  411MOL0     H54201   6.629   1.863   6.680  1.8430  0.8032  0.1938
  411MOL0     H54202   6.729   1.822   6.542 -0.5678 -1.7427 -1.5929
  411MOL0     H54203   6.536   1.709   6.430  4.1004  0.6872 -0.2884
  411MOL0     H54204   6.552   1.881   6.430 -1.3699  0.5741  0.2980
  411MOL0     H54205   6.330   1.605   6.536 -1.6302 -0.8396  0.8798
  411MOL0     H54206   6.192   1.565   6.805  0.6265  0.1315 -0.3562
  411MOL0     H54207   6.100   1.590   6.653  4.0561 -0.9838 -0.4246
  411MOL0     H54208   5.958   1.768   6.757  0.0135 -0.4537 -0.2763
  411MOL0     H54209   6.058   1.755   6.900  1.5517 -1.4022  1.0293
  411MOL0     H54210   5.897   1.527   6.754  2.1383  0.2304 -1.4545
  411MOL0     H54211   5.974   1.499   6.918 -0.2384  0.6131  1.1537
  411MOL0     H54212   5.731   1.666   6.829 -2.7438  0.5043  1.7691
  411MOL0     H54213   5.815   1.688   6.992 -0.5819  0.0474 -0.1218
  411MOL0     H54214   5.575   1.750   6.961  1.3925 -0.8202 -0.9095
  411MOL0     H54215   5.353   1.774   7.045 -1.0609 -0.8831 -1.9301
  411MOL0     H54216   4.987   1.631   7.315 -0.3624  0.3658  0.6283
  411MOL0     H54217   4.742   1.635   7.333  2.6859  0.5674 -0.6282
  411MOL0     H54218   4.430   1.511   7.102  0.0533  2.1536 -2.1214
  411MOL0     H54219   4.559   1.639   7.127  2.8083 -0.6608  0.4459
  411MOL0     H54220   4.483   1.656   7.350  1.2398  0.4866 -2.1439
  411MOL0     H54221   4.358   1.543   7.343  1.6196 -0.1808  1.6020
  411MOL0     H54222   4.409   1.813   7.177 -1.3033  1.9987  0.0620
  411MOL0     H54223   4.299   1.806   7.308  3.7014  0.5922  0.5742
  411MOL0     H54224   4.289   1.707   7.024  0.6760  1.2485  0.7044
  411MOL0     H54225   4.175   1.628   7.138 -1.7312  1.2594  0.3475
  411MOL0     H54226   4.110   1.824   6.986 -2.4160  0.9841  0.2213
  411MOL0     H54227   4.211   1.935   7.097 -0.8548 -0.1395  0.8606
  411MOL0     H54228   3.953   1.944   7.136 -0.2724 -1.4080 -0.9979
  411MOL0     H54229   4.049   1.894   7.270 -0.1986 -0.1259  1.0053
  411MOL0     H54230   3.943   1.659   7.117 -1.3054  0.6325 -0.1243
  411MOL0     H54231   3.975   1.689   7.282  1.1886  2.4645  0.6919
  411MOL0     H54232   3.755   1.825   7.115 -1.9261  1.3748  0.2565
  411MOL0     H54233   3.761   1.842   7.291  0.8273  1.7097 -0.5799
  411MOL0     H54234   4.721   1.278   7.095 -1.7671 -0.1791  3.4675
  411MOL0     H54235   4.968   1.297   7.057  0.3259  0.5560  0.7090
  411MOL0     H54236   5.329   1.343   7.058  0.3722  0.5501  1.7652
  411MOL0     H54237   5.561   1.327   6.983 -0.5549 -0.1047 -1.8045
  411MOL0     H54238   7.165   0.991   6.904 -0.1527 -1.8208 -3.3160
  411MOL0     H54239   7.408   1.022   6.896  1.9539  0.8324 -1.6840
  411MOL0     H54240   7.758   1.242   6.710 -2.6437 -3.4127  0.4773
  411MOL0     H54241   8.008   1.177   6.677 -0.3304 -2.2777 -0.6221
  411MOL0     H54242   8.191   1.050   6.657 -0.1154 -1.1143  0.1851
  411MOL0     H54243   8.315   1.026   6.775  0.1731 -0.9337 -2.0471
  411MOL0     H54244   8.347   1.251   6.642  1.3805  5.0245  1.4968
  411MOL0     H54245   8.204   1.308   6.722  0.0657  0.7161  2.6336
  411MOL0     H54246   8.488   1.252   6.826  0.4299  2.1752  0.5935
  411MOL0     H54247   8.352   1.245   6.939 -0.8299 -5.2756 -1.6623
  411MOL0     H54248   8.296   1.481   6.821 -0.6728 -1.6544 -2.0346
  411MOL0     H54249   8.431   1.472   6.940  1.9548  0.9241 -1.5591
  411MOL0     H54250   8.632   1.539   6.572  0.7221  2.6374  1.1124
  411MOL0     H54251   8.014   1.017   7.073  0.6872  0.2951 -0.8072
  411MOL0     H54252   7.778   1.087   7.119 -4.3560  0.2545 -0.4261
  412MOL0     O54253   7.740  11.109   4.658 -0.5604  0.3434 -0.2076
  412MOL0     C54254   7.767  11.187   4.747 -0.1478  0.2821  0.3078
  412MOL0     O54255   7.683  11.244   4.830 -0.9288 -0.3293 -0.1072
  412MOL0     C54256   7.562  11.193   4.865  0.4447  1.3426 -0.6006
  412MOL0     C54257   7.473  11.291   4.882  0.6703 -1.1140  0.7441
  412MOL0     C54258   7.340  11.260   4.911 -1.1402 -0.3560  0.1090
  412MOL0     C54259   7.290  11.135   4.915  0.3762 -0.3380 -0.6227
  412MOL0     O54260   7.155  11.103   4.927  0.3420  1.4025 -0.5385
  412MOL0     C54261   7.054  11.196   4.977  1.5635  0.4972 -0.2305
  412MOL0     C54262   6.926  11.118   4.996 -0.4698  0.3218 -0.5425
  412MOL0     C54263   6.826  11.209   5.050  0.5536  0.5005 -0.0148
  412MOL0     C54264   6.691  11.135   5.086  0.0124 -1.0372 -0.3860
  412MOL0     C54265   6.589  11.237   5.134 -0.0126 -0.1392  0.4327
  412MOL0     C54266   6.470  11.158   5.190 -0.4171 -0.1490 -0.8981
  412MOL0     C54267   6.353  11.250   5.227  0.4897 -0.6023  1.1100
  412MOL0     C54268   6.289  11.306   5.102 -0.3372  1.3891 -0.7082
  412MOL0     N54269   6.177  11.402   5.136 -1.0164  0.6831 -0.4812
  412MOL0     C54270   6.089  11.453   5.043  0.1453 -1.1284 -0.1365
  412MOL0     C54271   6.016  11.543   5.112 -0.0121  0.7351  0.5397
  412MOL0     C54272   5.918  11.631   5.050  0.5113  0.2767  0.0955
  412MOL0     C54273   5.777  11.575   5.052  0.3159  0.2178 -0.6661
  412MOL0     C54274   5.703  11.585   5.192 -0.2681  0.0191  0.1141
  412MOL0     C54275   5.683  11.737   5.226  0.4106 -0.2753  0.3335
  412MOL0     O54276   5.593  11.726   5.333 -0.2412 -0.5912  0.3764
  412MOL0     C54277   5.458  11.749   5.330 -0.7432 -0.2982  0.2897
  412MOL0     C54278   5.379  11.778   5.215  1.1392  0.3404  0.7631
  412MOL0     C54279   5.235  11.792   5.228 -0.9925  1.1313  0.2986
  412MOL0     C54280   5.181  11.794   5.353  0.8648 -0.4261 -0.4857
  412MOL0     C54281   5.043  11.834   5.379  1.0240  0.2515 -0.7990
  412MOL0     O54282   4.999  11.824   5.511  0.7894  0.5662  0.1344
  412MOL0     C54283   4.874  11.858   5.543  0.4806 -0.6024 -0.4459
  412MOL0     C54284   4.761  11.783   5.511  0.3850  0.0910 -0.1689
  412MOL0     C54285   4.630  11.809   5.555  0.1801 -0.6752 -0.1399
  412MOL0     C54286   4.613  11.924   5.625 -0.1358 -0.0552 -0.4835
  412MOL0     O54287   4.495  11.966   5.681  1.0255  0.5845 -0.3215
  412MOL0     C54288   4.376  11.896   5.644 -0.1164 -0.0191  0.1126
  412MOL0     C54289   4.336  11.925   5.492  0.9605  0.5496 -0.4479
  412MOL0     C54290   4.294  12.063   5.455 -0.0519  0.3398  0.5823
  412MOL0     C54291   4.259  12.085   5.302 -0.3493  0.2601 -0.7207
  412MOL0     C54292   4.218  12.224   5.269  0.2605 -0.1787  0.2928
  412MOL0     C54293   4.137  12.217   5.137 -0.3482 -0.1647 -1.0159
  412MOL0     C54294   4.101  12.352   5.086  0.6441 -0.2904  0.3618
  412MOL0     C54295   4.011  12.350   4.962 -0.5238 -1.4611 -0.3311
  412MOL0    Cl54296   3.835  12.326   4.997  0.0068  0.0119 -0.5644
  412MOL0     C54297   4.719  12.012   5.645 -1.0344  0.4664  0.0374
  412MOL0     C54298   4.852  11.971   5.622  0.6511 -0.4958  0.0065
  412MOL0     O54299   4.974  11.871   5.287  0.1555 -0.5022  0.0262
  412MOL0     C54300   5.257  11.764   5.461 -0.7649 -0.3610  0.3186
  412MOL0     C54301   5.386  11.737   5.457  0.1987  0.8649 -0.3419
  412MOL0     N54302   6.063  11.554   5.244  0.1792  1.3534  0.2850
  412MOL0     N54303   6.157  11.467   5.256  0.4470  0.2112  0.5363
  412MOL0     C54304   7.379  11.027   4.894  0.8411 -0.0824  0.3127
  412MOL0     C54305   7.517  11.060   4.877 -0.2399  0.7261 -0.4955
  412MOL0     C54306   7.905  11.224   4.762 -0.4393  0.2876  0.8157
  412MOL0     C54307   7.948  11.270   4.891 -0.0758  0.4791  0.0905
  412MOL0     C54308   8.080  11.309   4.912  0.0323 -0.8623 -0.1962
  412MOL0     C54309   8.174  11.286   4.807 -0.2734  0.6183 -0.2171
  412MOL0     O54310   8.306  11.325   4.822  0.7310  0.7876 -0.7322
  412MOL0     C54311   8.359  11.404   4.724  0.2328  0.0024 -1.3237
  412MOL0     C54312   8.425  11.520   4.790  0.0464 -0.7041  0.1744
  412MOL0     C54313   8.523  11.477   4.901  0.0903 -0.6852 -0.2604
  412MOL0     C54314   8.640  11.389   4.847 -0.2216  0.2268 -0.5278
  412MOL0     C54315   8.780  11.422   4.902  0.4722  0.4548  0.2479
  412MOL0     C54316   8.894  11.436   4.945  0.8117  0.3049  0.1549
  412MOL0     C54317   8.129  11.232   4.685 -0.1257 -0.1964 -0.4630
  412MOL0     C54318   7.996  11.207   4.657 -0.0011  0.2507  0.2000
  412MOL0     H54319   7.497  11.396   4.872 -0.6909 -0.8604 -0.0028
  412MOL0     H54320   7.267  11.340   4.914 -0.8628 -0.1207  2.2534
  412MOL0     H54321   7.035  11.277   4.905 -0.4631  0.0708 -0.2279
  412MOL0     H54322   7.096  11.239   5.069  1.7441 -1.8036  0.8472
  412MOL0     H54323   6.943  11.036   5.067  0.1134 -0.6264 -1.7420
  412MOL0     H54324   6.899  11.083   4.896 -1.7906  1.0141 -0.4569
  412MOL0     H54325   6.785  11.284   4.982 -2.0790 -2.2516 -1.7084
  412MOL0     H54326   6.866  11.251   5.143 -1.3223  1.0053  0.6317
  412MOL0     H54327   6.646  11.087   4.999 -3.0251 -0.1797  0.5653
  412MOL0     H54328   6.719  11.060   5.161 -0.1716 -0.9232 -0.2006
  412MOL0     H54329   6.567  11.300   5.047  1.4581  1.6287  1.2800
  412MOL0     H54330   6.633  11.311   5.201  2.3949  1.0928 -2.3168
  412MOL0     H54331   6.511  11.112   5.281  1.1493  1.3295 -0.8195
  412MOL0     H54332   6.436  11.074   5.128 -4.7116 -0.4041  1.4702
  412MOL0     H54333   6.289  11.212   5.307 -2.7441  0.6059 -0.6984
  412MOL0     H54334   6.387  11.340   5.280 -0.1613 -0.1805  0.8275
  412MOL0     H54335   6.245  11.223   5.046  0.9450  0.7918 -0.8505
  412MOL0     H54336   6.351  11.356   5.027  0.8365  0.0842 -0.6446
  412MOL0     H54337   6.083  11.451   4.934 -0.0539 -1.2475 -0.1235
  412MOL0     H54338   5.952  11.657   4.949  0.4035  0.0755  0.0082
  412MOL0     H54339   5.924  11.721   5.112  3.0268 -0.3748  0.9013
  412MOL0     H54340   5.779  11.473   5.013  0.9370  0.9690 -2.7441
  412MOL0     H54341   5.709  11.632   4.988 -1.8894 -2.0800 -0.5237
  412MOL0     H54342   5.611  11.529   5.179  1.1357 -1.9195 -2.2338
  412MOL0     H54343   5.759  11.542   5.275  1.3610 -0.4750 -1.1808
  412MOL0     H54344   5.644  11.792   5.140  0.6565 -3.0995 -1.7115
  412MOL0     H54345   5.782  11.765   5.264  0.1067 -3.2354  3.8646
  412MOL0     H54346   5.434  11.790   5.122  3.8644  0.0305  2.2050
  412MOL0     H54347   5.172  11.807   5.141  2.2472 -0.1195 -2.4996
  412MOL0     H54348   4.783  11.694   5.452 -0.5976 -0.3650  0.1342
  412MOL0     H54349   4.543  11.750   5.527 -0.4575  1.6670 -3.8051
  412MOL0     H54350   4.294  11.936   5.705 -0.0792  0.0655  0.1067
  412MOL0     H54351   4.376  11.788   5.665 -2.5767 -0.3535 -1.1484
  412MOL0     H54352   4.257  11.854   5.466 -0.3506  1.2211  1.5216
  412MOL0     H54353   4.420  11.901   5.426  2.0664 -2.7403  1.9301
  412MOL0     H54354   4.372  12.133   5.486  2.7538 -2.2451 -0.0978
  412MOL0     H54355   4.198  12.087   5.501 -0.9581  0.9797 -1.5094
  412MOL0     H54356   4.343  12.051   5.241 -2.2572  0.7109 -3.8363
  412MOL0     H54357   4.179  12.014   5.280 -2.5751  2.7457 -1.1935
  412MOL0     H54358   4.302  12.292   5.255  0.2086 -0.7003 -3.8901
  412MOL0     H54359   4.156  12.251   5.355 -0.7490 -2.9009  0.5306
  412MOL0     H54360   4.043  12.161   5.148 -1.0292  1.3143  1.4035
  412MOL0     H54361   4.192  12.163   5.060  0.2081 -1.4396  0.2320
  412MOL0     H54362   4.068  12.416   5.169  1.6401  0.7466 -0.0027
  412MOL0     H54363   4.195  12.401   5.059  0.9515 -2.2215 -2.4467
  412MOL0     H54364   4.039  12.285   4.878  2.1454  2.2879 -2.6534
  412MOL0     H54365   4.026  12.447   4.913 -1.1033  0.8094  3.5926
  412MOL0     H54366   4.698  12.107   5.693 -2.2458  0.7274 -0.9246
  412MOL0     H54367   4.936  12.036   5.644 -0.6763  1.4557 -0.4501
  412MOL0     H54368   5.221  11.781   5.562 -3.3987 -1.0841 -0.4078
  412MOL0     H54369   5.442  11.712   5.547  0.1397 -0.3347 -0.6217
  412MOL0     H54370   7.370  10.920   4.904  3.1660 -0.4025 -0.2826
  412MOL0     H54371   7.585  10.977   4.860 -1.1027  0.0872 -0.9133
  412MOL0     H54372   7.874  11.286   4.969 -0.4404 -2.5800  0.4881
  412MOL0     H54373   8.087  11.366   5.004 -3.4773  2.6147 -1.8348
  412MOL0     H54374   8.285  11.448   4.657  1.7807  1.3760 -2.1861
  412MOL0     H54375   8.433  11.342   4.671 -0.1286 -0.0728 -1.7476
  412MOL0     H54376   8.476  11.588   4.722 -0.1298  1.1543  1.8013
  412MOL0     H54377   8.343  11.578   4.834  0.5408 -0.3835  0.6856
  412MOL0     H54378   8.461  11.430   4.979 -2.0823 -0.5122 -1.7997
  412MOL0     H54379   8.576  11.562   4.945 -1.0931 -0.5331  0.9558
  412MOL0     H54380   8.630  11.286   4.884  1.1268  0.0838 -0.5426
  412MOL0     H54381   8.654  11.385   4.739  0.3232 -0.3267 -0.4434
  412MOL0     H54382   8.990  11.451   4.992  0.0109  0.6759  1.7554
  412MOL0     H54383   8.207  11.207   4.613  1.5000 -0.0952  1.1874
  412MOL0     H54384   7.971  11.184   4.554 -1.3945  1.1721  0.3033
  413MOL0     O54385  11.144   0.731   3.159  0.1352  0.0718 -0.1507
  413MOL0     C54386  11.229   0.802   3.207  1.1348  0.3456  0.8062
  413MOL0     O54387  11.215   0.889   3.316 -0.4306  0.0997  1.0232
  413MOL0     C54388  11.091   0.937   3.341 -0.8073 -0.1572  0.1777
  413MOL0     C54389  11.036   1.020   3.239  0.3757  0.2147 -0.0491
  413MOL0     C54390  10.920   1.081   3.262  0.4800  0.1648  0.6963
  413MOL0     C54391  10.844   1.068   3.385 -0.1682  0.4469  0.3778
  413MOL0     O54392  10.719   1.118   3.387  0.2481  0.3154  0.8369
  413MOL0     C54393  10.649   1.150   3.507  0.0425 -0.9134 -0.6064
  413MOL0     C54394  10.595   1.289   3.474  0.5021  0.2372  0.8359
  413MOL0     C54395  10.470   1.277   3.388  0.2191  0.1106  0.0640
  413MOL0     C54396  10.433   1.414   3.322 -0.4954  0.4521 -0.0390
  413MOL0     C54397  10.441   1.400   3.162 -0.3016  0.1071 -0.6228
  413MOL0     C54398  10.410   1.535   3.094  0.2445  0.6948  0.1422
  413MOL0     C54399  10.264   1.598   3.113  0.3535  0.6592  0.4685
  413MOL0     C54400  10.141   1.506   3.091 -0.1352 -0.2381  0.5341
  413MOL0     N54401  10.009   1.580   3.105 -0.8151 -0.1447  0.5552
  413MOL0     C54402   9.922   1.540   3.212 -0.6659  0.2202 -0.0825
  413MOL0     C54403   9.810   1.612   3.180 -0.0953 -0.5659 -0.5171
  413MOL0     C54404   9.682   1.587   3.260 -0.5104 -0.0592  0.1359
  413MOL0     C54405   9.679   1.667   3.391 -0.6832  0.2517  0.5261
  413MOL0     C54406   9.543   1.646   3.444 -0.1666  0.0163  0.0063
  413MOL0     C54407   9.501   1.771   3.532 -0.7765  0.8363 -0.0284
  413MOL0     O54408   9.371   1.750   3.593  0.0696 -0.0851  0.4867
  413MOL0     C54409   9.309   1.847   3.657  0.7321  0.2291 -0.1712
  413MOL0     C54410   9.319   1.989   3.641  0.1223 -0.0818  0.6848
  413MOL0     C54411   9.230   2.070   3.709 -0.5739 -0.2170 -0.6279
  413MOL0     C54412   9.124   2.022   3.783 -0.4034 -1.2079  0.2743
  413MOL0     C54413   9.015   2.113   3.835  0.7146 -0.5727 -0.5836
  413MOL0     O54414   8.939   2.051   3.939 -0.8220 -0.6734 -0.0263
  413MOL0     C54415   8.819   2.105   3.967  0.1360 -0.5477 -1.2664
  413MOL0     C54416   8.782   2.126   4.111  0.8007 -0.0612  0.6871
  413MOL0     C54417   8.661   2.183   4.126 -0.2367 -0.1784  0.3651
  413MOL0     C54418   8.567   2.217   4.018 -0.7767  0.1236  0.1886
  413MOL0     O54419   8.458   2.281   4.047 -0.1764 -0.1249  0.0829
  413MOL0     C54420   8.338   2.263   3.972 -0.5019  0.0468 -0.2309
  413MOL0     C54421   8.241   2.341   4.052  0.1318 -0.0511  0.6684
  413MOL0     C54422   8.086   2.316   4.011 -0.1250 -0.6156  0.6165
  413MOL0     C54423   8.047   2.389   3.882 -0.8191 -0.2286  0.6277
  413MOL0     C54424   7.904   2.365   3.843 -0.5979  0.7309  0.3240
  413MOL0     C54425   7.846   2.476   3.755 -0.1928  1.0133 -0.0173
  413MOL0     C54426   7.891   2.448   3.616  0.2054  0.2205  0.3890
  413MOL0     C54427   7.824   2.326   3.548 -0.0965  0.3365  0.2787
  413MOL0    Cl54428   7.645   2.330   3.554  0.0994 -0.0010 -0.6725
  413MOL0     C54429   8.599   2.175   3.890 -0.2453 -0.8079  0.0579
  413MOL0     C54430   8.730   2.126   3.861  0.0444  1.2333 -0.6210
  413MOL0     O54431   9.002   2.229   3.788 -0.6877 -0.1870  0.7554
  413MOL0     C54432   9.116   1.886   3.799 -1.1095 -1.0385 -0.0894
  413MOL0     C54433   9.206   1.800   3.739  0.2634 -0.4622  0.2828
  413MOL0     N54434   9.837   1.694   3.072  0.8390 -0.5412 -0.1095
  413MOL0     N54435   9.960   1.677   3.025 -0.1745  0.0163 -0.7570
  413MOL0     C54436  10.892   0.981   3.482 -0.4615 -0.4675 -0.9018
  413MOL0     C54437  11.017   0.919   3.464 -0.1824  0.3642  0.0282
  413MOL0     C54438  11.367   0.782   3.168 -0.4907 -0.0129 -0.6129
  413MOL0     C54439  11.478   0.842   3.239  0.8155  0.1861  0.0883
  413MOL0     C54440  11.611   0.834   3.202  0.1625 -0.3300  1.1414
  413MOL0     C54441  11.645   0.757   3.086  0.0633  0.7718  0.3070
  413MOL0     O54442  11.777   0.740   3.064  0.2760  0.7917  0.2893
  413MOL0     C54443  11.808   0.615   3.002 -0.4485  0.3755 -0.4283
  413MOL0     C54444  11.956   0.610   3.014 -1.1802  0.7621  0.7278
  413MOL0     C54445  12.037   0.503   2.934 -0.0885 -0.3910 -0.6848
  413MOL0     C54446  11.988   0.364   2.965  0.4548 -0.4671  0.4357
  413MOL0     C54447  12.079   0.260   2.919  0.8412  0.1892 -0.1259
  413MOL0     C54448  12.143   0.163   2.875  0.2101 -0.4463 -0.6427
  413MOL0     C54449  11.540   0.686   3.020 -0.3797 -0.0636  0.1316
  413MOL0     C54450  11.403   0.702   3.059 -0.1336 -0.1975 -0.9997
  413MOL0     H54451  11.092   1.044   3.149  0.2585  1.3113  0.1637
  413MOL0     H54452  10.884   1.142   3.181  1.3187 -1.2853 -0.8229
  413MOL0     H54453  10.729   1.161   3.580 -1.2895 -2.0489  1.0988
  413MOL0     H54454  10.587   1.065   3.537 -0.0193 -0.6220  0.0887
  413MOL0     H54455  10.669   1.336   3.409  1.8445 -1.6887  0.8793
  413MOL0     H54456  10.579   1.354   3.560  0.9456  1.8118 -0.2404
  413MOL0     H54457  10.388   1.234   3.447 -0.0944 -1.9390 -1.7529
  413MOL0     H54458  10.479   1.205   3.307 -0.3393 -0.0527  0.1487
  413MOL0     H54459  10.329   1.440   3.341 -1.2254 -0.8637 -1.8672
  413MOL0     H54460  10.502   1.490   3.360 -0.1811  0.2871 -0.2684
  413MOL0     H54461  10.376   1.319   3.128  1.7962 -1.9491  0.0147
  413MOL0     H54462  10.543   1.374   3.130 -0.6608 -1.1827 -0.7668
  413MOL0     H54463  10.420   1.514   2.987  1.9580  0.2722  0.3629
  413MOL0     H54464  10.489   1.604   3.122 -1.0793  2.4916 -0.3354
  413MOL0     H54465  10.268   1.628   3.218 -2.1806  2.3090  0.2002
  413MOL0     H54466  10.263   1.681   3.042  0.3624  1.8913  1.8384
  413MOL0     H54467  10.136   1.418   3.157 -3.5157 -0.9950 -0.5325
  413MOL0     H54468  10.143   1.471   2.988  1.9194  1.8376 -0.2036
  413MOL0     H54469   9.937   1.464   3.287  0.2584  1.3432  0.9173
  413MOL0     H54470   9.682   1.480   3.286  3.8134  0.6397  4.3274
  413MOL0     H54471   9.604   1.619   3.190  0.5347  0.6127 -0.7404
  413MOL0     H54472   9.697   1.774   3.374  0.3412  0.1281  0.7665
  413MOL0     H54473   9.765   1.637   3.451  2.1449 -1.2757 -3.7771
  413MOL0     H54474   9.469   1.631   3.365 -1.5207 -2.8339  1.6576
  413MOL0     H54475   9.539   1.557   3.506  1.3910  0.5659  0.9420
  413MOL0     H54476   9.500   1.858   3.465 -1.3610 -0.8420 -2.3015
  413MOL0     H54477   9.581   1.789   3.605 -0.9952  1.3663  0.0915
  413MOL0     H54478   9.396   2.016   3.569  0.0064  1.2289  1.0346
  413MOL0     H54479   9.239   2.177   3.688 -1.8609  0.9965  3.8821
  413MOL0     H54480   8.852   2.095   4.188 -1.2836  0.3594  2.8719
  413MOL0     H54481   8.624   2.209   4.225 -1.0501 -0.9274  0.2731
  413MOL0     H54482   8.299   2.161   3.975 -2.4357  0.7178 -0.8563
  413MOL0     H54483   8.349   2.289   3.866 -2.0600 -2.7632 -1.1802
  413MOL0     H54484   8.277   2.443   4.032  0.2783 -0.3290 -0.5972
  413MOL0     H54485   8.246   2.326   4.160  0.4185  1.2896  0.8647
  413MOL0     H54486   8.013   2.352   4.084  0.9391  1.0233  0.9308
  413MOL0     H54487   8.067   2.210   3.994 -3.0716 -0.7544  3.7345
  413MOL0     H54488   8.067   2.496   3.888  0.4247 -0.4121  0.1067
  413MOL0     H54489   8.119   2.359   3.806 -0.4875  1.2043  0.3448
  413MOL0     H54490   7.844   2.350   3.933 -2.7191  0.6628 -1.0510
  413MOL0     H54491   7.904   2.266   3.796  0.6845 -0.1708  2.0920
  413MOL0     H54492   7.876   2.579   3.777 -2.4536  2.2988 -2.3620
  413MOL0     H54493   7.737   2.472   3.747 -0.0816 -0.8240 -1.1059
  413MOL0     H54494   7.873   2.529   3.545  1.5365 -1.7306 -2.3898
  413MOL0     H54495   7.999   2.430   3.608 -0.2990 -3.9108  0.4981
  413MOL0     H54496   7.861   2.232   3.590  0.4072  2.0117  3.9720
  413MOL0     H54497   7.854   2.341   3.444  0.2207  2.1998  0.6046
  413MOL0     H54498   8.529   2.195   3.809  2.3474  1.1202 -1.8820
  413MOL0     H54499   8.759   2.110   3.758  1.5458  1.9212 -0.3357
  413MOL0     H54500   9.043   1.835   3.862  0.7734 -1.1561  2.1184
  413MOL0     H54501   9.197   1.693   3.753  1.9270 -0.7500 -0.5821
  413MOL0     H54502  10.831   0.969   3.571 -1.1036  0.3717 -1.2134
  413MOL0     H54503  11.058   0.860   3.545 -1.0034  0.6374  0.6483
  413MOL0     H54504  11.449   0.902   3.325  2.4571 -0.7703  1.3680
  413MOL0     H54505  11.698   0.882   3.246  0.3570  2.5470 -2.0159
  413MOL0     H54506  11.760   0.618   2.904 -1.9639 -0.8305  0.2281
  413MOL0     H54507  11.777   0.529   3.063 -1.5194  2.0511  1.5133
  413MOL0     H54508  11.992   0.707   2.979 -1.0075  0.2259 -0.6298
  413MOL0     H54509  11.992   0.590   3.115  0.8796 -0.4537 -0.1769
  413MOL0     H54510  12.143   0.509   2.963 -0.5119  3.8144  0.7881
  413MOL0     H54511  12.030   0.530   2.828 -0.7050  0.9495 -0.3270
  413MOL0     H54512  11.969   0.350   3.072 -2.6174 -1.1178 -0.1003
  413MOL0     H54513  11.894   0.347   2.910  2.7620 -1.5776 -3.5684
  413MOL0     H54514  12.201   0.082   2.835  2.9045  0.1010  1.8085
  413MOL0     H54515  11.551   0.618   2.937  0.7381 -2.3988  2.0746
  413MOL0     H54516  11.331   0.643   3.003  0.9128 -2.9715  0.3910
  414MOL0     O54517   5.099  10.044   2.305  0.3092  0.3463  0.1135
  414MOL0     C54518   5.025   9.968   2.364  1.0029  0.7806 -0.0923
  414MOL0     O54519   5.041   9.837   2.363 -0.0751 -0.5044 -0.7297
  414MOL0     C54520   5.158   9.794   2.299  0.8832 -0.1870  0.1182
  414MOL0     C54521   5.164   9.802   2.156  0.8811  0.3524 -0.5456
  414MOL0     C54522   5.283   9.767   2.097  0.2360  0.2752  0.0280
  414MOL0     C54523   5.398   9.731   2.175  0.3236  0.8538 -0.1940
  414MOL0     O54524   5.520   9.701   2.121 -0.1918  0.0226  0.0827
  414MOL0     C54525   5.541   9.688   1.978 -0.5205 -0.9003 -0.1805
  414MOL0     C54526   5.663   9.606   1.931  0.4025 -0.0718 -0.3068
  414MOL0     C54527   5.687   9.582   1.794 -0.6120  0.3094  0.6893
  414MOL0     C54528   5.785   9.471   1.761  0.6804 -0.5370  0.3201
  414MOL0     C54529   5.824   9.476   1.614  0.1072  0.2861 -0.6576
  414MOL0     C54530   5.887   9.347   1.561  0.9068  0.1086  0.3131
  414MOL0     C54531   5.929   9.359   1.418 -0.1945  0.1388 -0.4281
  414MOL0     C54532   5.807   9.387   1.331 -0.1963  0.0517  0.3107
  414MOL0     N54533   5.834   9.354   1.186  0.5370  0.1182 -0.2846
  414MOL0     C54534   5.955   9.372   1.118 -1.2240  0.4272  0.0973
  414MOL0     C54535   5.933   9.323   0.989  0.6345  0.1448 -0.1229
  414MOL0     C54536   6.041   9.337   0.883 -0.3561 -0.3506  0.8197
  414MOL0     C54537   5.984   9.294   0.740  0.6046 -0.1721  0.1402
  414MOL0     C54538   5.975   9.143   0.734 -0.7008 -0.0706 -0.7442
  414MOL0     C54539   5.886   9.123   0.611 -0.0106  0.6565  0.3297
  414MOL0     O54540   5.888   8.980   0.578 -0.4469  0.3209  0.7348
  414MOL0     C54541   5.843   8.898   0.679 -0.0329 -0.5927  0.1799
  414MOL0     C54542   5.882   8.766   0.705  0.0281 -0.1077  0.1851
  414MOL0     C54543   5.835   8.688   0.817 -0.7168 -0.5761 -0.2760
  414MOL0     C54544   5.756   8.746   0.918  0.0666  0.2489  0.0270
  414MOL0     C54545   5.710   8.662   1.038 -0.0005  0.2669  0.1582
  414MOL0     O54546   5.604   8.713   1.111 -0.3664 -0.0786 -0.7903
  414MOL0     C54547   5.528   8.622   1.173  1.1896  0.2921  0.1243
  414MOL0     C54548   5.485   8.502   1.107  0.0497  0.4914 -0.6869
  414MOL0     C54549   5.414   8.398   1.170 -0.6583  0.5797 -0.3150
  414MOL0     C54550   5.363   8.426   1.298  0.4642 -0.1807 -0.0448
  414MOL0     O54551   5.294   8.344   1.383  0.5134  0.2838 -0.0156
  414MOL0     C54552   5.331   8.207   1.411 -0.4903  0.5557 -0.3534
  414MOL0     C54553   5.447   8.189   1.515  0.5815 -0.1794  0.2255
  414MOL0     C54554   5.428   8.247   1.660  0.0166  0.8589  0.3402
  414MOL0     C54555   5.553   8.211   1.745  0.5465  0.1145 -0.2215
  414MOL0     C54556   5.554   8.067   1.783  0.2718  0.1221 -0.1994
  414MOL0     C54557   5.460   8.033   1.893 -0.3395  0.0990  0.4116
  414MOL0     C54558   5.495   7.896   1.961  0.2765  0.6256  0.5147
  414MOL0     C54559   5.425   7.874   2.095  0.2514 -0.2423  0.0174
  414MOL0    Cl54560   5.253   7.855   2.076  0.1822 -0.2832  0.5607
  414MOL0     C54561   5.384   8.550   1.355 -0.2130 -0.1956  0.0020
  414MOL0     C54562   5.463   8.644   1.292 -0.6847  0.4211  0.1037
  414MOL0     O54563   5.776   8.557   1.056 -0.0785  0.2980 -0.0664
  414MOL0     C54564   5.705   8.870   0.890 -0.5610  0.8592 -0.9121
  414MOL0     C54565   5.743   8.944   0.778 -0.2391  0.0190  0.2978
  414MOL0     N54566   5.796   9.300   0.973 -0.3320  0.1657 -0.9273
  414MOL0     N54567   5.741   9.311   1.093  0.7687  0.2600  0.4843
  414MOL0     C54568   5.399   9.745   2.309 -0.9997  0.8356  0.3718
  414MOL0     C54569   5.273   9.763   2.378 -0.0181 -0.0166  0.0764
  414MOL0     C54570   4.925  10.020   2.458 -0.0037 -0.3754 -0.0990
  414MOL0     C54571   4.936  10.160   2.507  1.1592  0.2226  0.1720
  414MOL0     C54572   4.838  10.205   2.598  0.7808 -0.8692 -0.8937
  414MOL0     C54573   4.727  10.134   2.636  0.6032 -0.0711 -0.0295
  414MOL0     O54574   4.627  10.179   2.725  0.7935 -0.2843  0.5224
  414MOL0     C54575   4.570  10.310   2.692 -0.6536  0.2489  0.6394
  414MOL0     C54576   4.425  10.326   2.728  0.2798 -0.6164 -0.0115
  414MOL0     C54577   4.392  10.469   2.777 -0.0451  0.2759 -0.2288
  414MOL0     C54578   4.466  10.509   2.911 -0.4557  0.1286 -0.0172
  414MOL0     C54579   4.407  10.438   3.024 -0.0247 -0.2846  0.0052
  414MOL0     C54580   4.349  10.370   3.110 -0.4066 -0.4565  0.2815
  414MOL0     C54581   4.722   9.999   2.587  0.2017 -0.1786  0.2652
  414MOL0     C54582   4.808   9.954   2.493 -0.2521  0.4719  1.0310
  414MOL0     H54583   5.080   9.852   2.110  1.3160 -1.0427 -3.0470
  414MOL0     H54584   5.285   9.774   1.989  2.1454 -0.9414 -0.0488
  414MOL0     H54585   5.550   9.788   1.935 -3.4692  0.3141  1.7407
  414MOL0     H54586   5.448   9.648   1.937 -1.8185  2.5486 -0.9628
  414MOL0     H54587   5.671   9.508   1.978 -3.3273 -0.3903 -0.0087
  414MOL0     H54588   5.758   9.652   1.960  0.3928  0.3275 -0.8901
  414MOL0     H54589   5.718   9.681   1.760 -4.0688  0.9629 -1.0467
  414MOL0     H54590   5.600   9.553   1.734 -0.3926  1.0270 -0.0001
  414MOL0     H54591   5.869   9.482   1.830  0.1640 -0.0903  0.8833
  414MOL0     H54592   5.730   9.380   1.787  0.1257 -1.1396 -2.6297
  414MOL0     H54593   5.896   9.556   1.594  0.6624  0.5438  2.0141
  414MOL0     H54594   5.735   9.491   1.553  0.9259  1.0804 -1.6864
  414MOL0     H54595   5.813   9.268   1.574  1.6768 -0.6929 -0.1430
  414MOL0     H54596   5.974   9.333   1.626 -0.0407 -1.7869  1.2597
  414MOL0     H54597   6.013   9.429   1.420  0.8089 -1.0111  2.1959
  414MOL0     H54598   5.954   9.254   1.404 -1.3208 -0.3831  1.2219
  414MOL0     H54599   5.772   9.490   1.335 -1.4408 -0.2687 -1.0309
  414MOL0     H54600   5.724   9.316   1.345 -0.5507 -0.3663 -2.9794
  414MOL0     H54601   6.045   9.417   1.160 -1.5131  0.6911  0.4299
  414MOL0     H54602   6.131   9.278   0.903 -1.9964 -2.8298  1.3328
  414MOL0     H54603   6.066   9.443   0.888 -0.8081 -0.2927  2.2859
  414MOL0     H54604   6.060   9.335   0.673  1.6041 -0.4674  1.0636
  414MOL0     H54605   5.884   9.334   0.722  0.3939 -0.7195  0.0639
  414MOL0     H54606   6.080   9.110   0.728  0.3426  2.5674  1.1609
  414MOL0     H54607   5.939   9.096   0.826 -2.0735  3.7626  0.8572
  414MOL0     H54608   5.927   9.175   0.524  2.5941 -0.7129  0.6272
  414MOL0     H54609   5.782   9.152   0.628 -0.1509 -0.2435  1.0938
  414MOL0     H54610   5.950   8.720   0.634  0.9044 -2.3753  2.3418
  414MOL0     H54611   5.862   8.583   0.817  0.9082 -0.2106  1.9712
  414MOL0     H54612   5.525   8.479   1.009  1.2616  1.0823 -0.3538
  414MOL0     H54613   5.401   8.299   1.127  0.5860 -0.1206  0.8100
  414MOL0     H54614   5.363   8.157   1.319  1.0060 -0.5409  0.7311
  414MOL0     H54615   5.247   8.161   1.463  1.8564  0.5004  3.7766
  414MOL0     H54616   5.535   8.236   1.470  0.9864 -1.7446 -0.6969
  414MOL0     H54617   5.451   8.080   1.520 -0.5904 -0.2634 -0.3468
  414MOL0     H54618   5.340   8.204   1.708 -0.1923  1.9011  0.9239
  414MOL0     H54619   5.418   8.355   1.673 -2.0923  0.6618  0.6295
  414MOL0     H54620   5.648   8.243   1.701  1.2471 -0.9796  0.4180
  414MOL0     H54621   5.542   8.255   1.844  0.6343 -2.3059  0.9593
  414MOL0     H54622   5.655   8.058   1.824 -0.3416  1.7880  1.8187
  414MOL0     H54623   5.542   7.999   1.698 -6.1085 -1.5810  1.5311
  414MOL0     H54624   5.353   8.026   1.870 -0.8784  1.5013  2.2536
  414MOL0     H54625   5.467   8.104   1.976 -3.0415 -0.1390  0.9501
  414MOL0     H54626   5.459   7.817   1.895 -0.7940 -0.0949  1.9171
  414MOL0     H54627   5.602   7.888   1.980  0.2320  2.8029  2.0750
  414MOL0     H54628   5.456   7.952   2.165  0.9011 -0.9386  0.5264
  414MOL0     H54629   5.446   7.776   2.138  3.4781  0.4666  0.2695
  414MOL0     H54630   5.332   8.580   1.445 -1.2818  2.1654 -1.3260
  414MOL0     H54631   5.473   8.736   1.348 -1.2908  0.8828 -0.5427
  414MOL0     H54632   5.648   8.925   0.963 -0.6233  1.1328 -1.1655
  414MOL0     H54633   5.703   9.045   0.783 -1.5579 -0.5362  1.5244
  414MOL0     H54634   5.487   9.733   2.371 -1.3357 -3.0758  0.3723
  414MOL0     H54635   5.260   9.773   2.486 -0.3521 -3.3069  0.4593
  414MOL0     H54636   5.015  10.234   2.496  0.9434  0.6765  1.4389
  414MOL0     H54637   4.864  10.295   2.654 -1.9151  1.0735 -2.5432
  414MOL0     H54638   4.563  10.318   2.584 -1.1413  1.8236  0.7713
  414MOL0     H54639   4.632  10.386   2.741 -0.1521 -1.4273  2.7691
  414MOL0     H54640   4.362  10.306   2.641 -0.8635 -1.3322  0.9595
  414MOL0     H54641   4.392  10.264   2.812  4.1068 -2.3407  0.4527
  414MOL0     H54642   4.285  10.484   2.795 -0.3167 -0.8773 -0.8138
  414MOL0     H54643   4.413  10.547   2.704 -3.5493  0.1909 -1.5128
  414MOL0     H54644   4.574  10.488   2.909 -0.2645  1.0712 -0.8646
  414MOL0     H54645   4.457  10.617   2.926  3.2535  0.4150  1.1527
  414MOL0     H54646   4.271  10.316   3.158 -1.8486  2.1758  1.0823
  414MOL0     H54647   4.650   9.929   2.628  1.4338 -1.1139  0.8721
  414MOL0     H54648   4.805   9.856   2.445  1.4474  2.8596 -4.8344
  415MOL0     O54649   6.124   5.951   2.537  0.1089 -0.6145  0.2107
  415MOL0     C54650   6.156   5.833   2.552 -0.7540 -0.2452  0.4566
  415MOL0     O54651   6.068   5.727   2.541  1.1421  0.1596  0.0849
  415MOL0     C54652   5.935   5.736   2.519  0.4929  1.0151  0.0410
  415MOL0     C54653   5.853   5.855   2.510  0.0965 -0.5555 -0.1487
  415MOL0     C54654   5.709   5.843   2.489 -0.2914 -0.0048 -0.7952
  415MOL0     C54655   5.658   5.714   2.458  0.5472  0.1173  0.1463
  415MOL0     O54656   5.540   5.673   2.408 -0.1181  0.7790 -0.2940
  415MOL0     C54657   5.427   5.762   2.433  0.8973  0.4846 -0.4744
  415MOL0     C54658   5.393   5.771   2.586 -0.7172  0.0592  1.4787
  415MOL0     C54659   5.266   5.857   2.625 -0.3317 -0.4941  0.5810
  415MOL0     C54660   5.261   5.874   2.782  0.0378  0.3181 -0.3146
  415MOL0     C54661   5.158   5.981   2.816  0.5131 -0.0245  0.3319
  415MOL0     C54662   5.208   6.130   2.810 -0.1101  0.5308 -0.5040
  415MOL0     C54663   5.102   6.231   2.869 -0.1615  0.1342 -0.4113
  415MOL0     C54664   4.970   6.239   2.798  0.7623 -0.0030 -0.3336
  415MOL0     N54665   4.886   6.351   2.846  0.4689  0.1272 -0.7177
  415MOL0     C54666   4.792   6.414   2.768 -0.8590  1.3058  0.0709
  415MOL0     C54667   4.715   6.481   2.856  0.2983  0.2566 -0.0438
  415MOL0     C54668   4.599   6.575   2.816 -0.2090 -0.9297 -0.5525
  415MOL0     C54669   4.655   6.699   2.749  0.5218 -0.1708 -0.0135
  415MOL0     C54670   4.777   6.764   2.815 -0.4840  1.2175 -0.4175
  415MOL0     C54671   4.824   6.887   2.741  0.0042 -0.4895  0.3206
  415MOL0     O54672   4.944   6.934   2.813 -0.7517 -0.5524  0.2892
  415MOL0     C54673   5.063   6.929   2.750 -0.1244 -0.1942 -0.8378
  415MOL0     C54674   5.089   6.974   2.616 -0.3772 -0.7246 -0.3773
  415MOL0     C54675   5.217   6.962   2.563 -0.7010  0.5325  0.0888
  415MOL0     C54676   5.326   6.919   2.643 -0.3622  0.5244 -0.5536
  415MOL0     C54677   5.462   6.909   2.586 -0.0435  0.3409  0.8979
  415MOL0     O54678   5.557   6.834   2.653  0.5956 -0.0714 -0.6654
  415MOL0     C54679   5.679   6.806   2.602 -0.3919  0.3365 -0.2036
  415MOL0     C54680   5.750   6.888   2.513  0.1659 -0.4170  0.2719
  415MOL0     C54681   5.872   6.833   2.460 -0.3885 -0.4846  0.4707
  415MOL0     C54682   5.925   6.717   2.509 -0.1333 -0.6660 -0.0116
  415MOL0     O54683   6.041   6.673   2.450 -0.3223 -0.1728  1.0625
  415MOL0     C54684   6.111   6.561   2.517  0.2697 -0.5118  0.7595
  415MOL0     C54685   6.234   6.518   2.437  0.7278 -0.1197  0.0907
  415MOL0     C54686   6.366   6.582   2.465 -0.1648 -0.7078 -0.6733
  415MOL0     C54687   6.361   6.729   2.451 -0.5684 -0.6376  0.4081
  415MOL0     C54688   6.496   6.796   2.463  0.0838  0.5193  0.3380
  415MOL0     C54689   6.571   6.806   2.331 -1.1036 -0.1743 -0.9053
  415MOL0     C54690   6.715   6.872   2.338  0.4215  0.0196 -0.1806
  415MOL0     C54691   6.730   7.012   2.305  0.3644 -1.5343 -1.2560
  415MOL0    Cl54692   6.900   7.058   2.289  0.0900 -0.6106  0.4260
  415MOL0     C54693   5.859   6.652   2.617  0.0920  0.5652  0.1564
  415MOL0     C54694   5.745   6.703   2.667  0.2194 -1.5302  0.2022
  415MOL0     O54695   5.481   6.962   2.474 -0.4253 -0.1346  0.6447
  415MOL0     C54696   5.303   6.874   2.776  0.5101 -0.0788  0.3896
  415MOL0     C54697   5.172   6.880   2.826 -0.1114  0.5753 -0.7282
  415MOL0     N54698   4.762   6.459   2.983 -0.3123 -0.4503  0.1178
  415MOL0     N54699   4.865   6.381   2.977  0.4224 -0.7286 -0.3691
  415MOL0     C54700   5.739   5.600   2.472  0.1892 -0.4888  0.0100
  415MOL0     C54701   5.875   5.610   2.504 -0.3833  0.0365 -0.7312
  415MOL0     C54702   6.301   5.804   2.582 -0.1369 -0.2058  0.7586
  415MOL0     C54703   6.347   5.677   2.578  0.9783 -0.1215 -0.2682
  415MOL0     C54704   6.483   5.638   2.609  0.3490 -0.6692  0.7865
  415MOL0     C54705   6.583   5.736   2.618 -0.1487  1.0950 -1.4006
  415MOL0     O54706   6.715   5.703   2.647  0.5743 -0.1245  0.0080
  415MOL0     C54707   6.744   5.584   2.721 -0.4034 -0.2700  0.0487
  415MOL0     C54708   6.889   5.596   2.769 -0.8258  0.6040 -0.0284
  415MOL0     C54709   6.915   5.457   2.851  1.0538 -1.3774  0.2179
  415MOL0     C54710   7.062   5.427   2.890 -0.8671  0.4693 -0.3064
  415MOL0     C54711   7.067   5.301   2.960 -0.1850  0.2542  0.2120
  415MOL0     C54712   7.078   5.192   3.014  0.0271  0.6408 -0.0789
  415MOL0     C54713   6.541   5.872   2.604 -0.5249  0.0860  0.2294
  415MOL0     C54714   6.403   5.901   2.588 -1.0301 -0.5734  0.6513
  415MOL0     H54715   5.885   5.958   2.526  3.2553 -0.8988 -3.3007
  415MOL0     H54716   5.640   5.926   2.498 -0.4377 -0.2814  1.2066
  415MOL0     H54717   5.336   5.714   2.397  1.0104 -0.3709  0.3213
  415MOL0     H54718   5.430   5.862   2.390  1.3898  0.5709 -0.2439
  415MOL0     H54719   5.480   5.827   2.621  0.5891  0.4808 -2.0370
  415MOL0     H54720   5.393   5.670   2.628 -0.4522 -0.6231 -0.0764
  415MOL0     H54721   5.171   5.817   2.587 -0.2820  0.8780 -1.0367
  415MOL0     H54722   5.261   5.954   2.576 -0.2732 -0.7692  0.0193
  415MOL0     H54723   5.233   5.784   2.837  0.7132  1.4613  2.0121
  415MOL0     H54724   5.363   5.896   2.815  0.9944  0.1461 -2.8748
  415MOL0     H54725   5.125   5.966   2.919  0.1024  0.7940  0.3224
  415MOL0     H54726   5.066   5.975   2.758 -0.0856  3.2688  0.7124
  415MOL0     H54727   5.247   6.152   2.710  0.1030 -0.3708 -0.6331
  415MOL0     H54728   5.298   6.138   2.872 -0.7773  1.4360  0.3591
  415MOL0     H54729   5.081   6.202   2.972  0.1343  2.4803  0.3727
  415MOL0     H54730   5.153   6.327   2.877 -0.9939  0.6425 -1.0183
  415MOL0     H54731   4.909   6.149   2.787 -0.1573  0.8287 -2.4900
  415MOL0     H54732   4.994   6.272   2.696 -2.0892 -2.4132 -1.9458
  415MOL0     H54733   4.769   6.399   2.663  0.2894 -2.8964  0.2483
  415MOL0     H54734   4.530   6.581   2.900 -0.6577 -2.2017 -0.8097
  415MOL0     H54735   4.536   6.537   2.735 -1.2844  4.0218 -2.4323
  415MOL0     H54736   4.577   6.775   2.741  1.3064  0.5146 -1.5756
  415MOL0     H54737   4.678   6.663   2.648  0.5715 -0.5061  0.1153
  415MOL0     H54738   4.747   6.783   2.918 -1.1910 -0.5747 -0.2583
  415MOL0     H54739   4.865   6.700   2.832 -1.4841  0.3732  2.0532
  415MOL0     H54740   4.752   6.969   2.754 -0.5052 -0.9541  0.4632
  415MOL0     H54741   4.843   6.878   2.633  1.7200  2.0091  0.3422
  415MOL0     H54742   5.015   7.002   2.543 -1.1035 -3.2859 -0.7134
  415MOL0     H54743   5.227   6.987   2.458 -2.0585  1.4817  0.1527
  415MOL0     H54744   5.721   6.987   2.478 -0.4135 -1.1271 -1.3303
  415MOL0     H54745   5.942   6.880   2.391  0.9493  1.8382  3.1974
  415MOL0     H54746   6.046   6.476   2.541  3.2055 -2.0217  4.5295
  415MOL0     H54747   6.146   6.597   2.615  0.2201  2.7914 -0.2969
  415MOL0     H54748   6.213   6.533   2.331 -3.0531  0.4445  0.7750
  415MOL0     H54749   6.246   6.412   2.460 -2.0290 -1.1527 -2.5314
  415MOL0     H54750   6.435   6.549   2.387  0.1304  1.9433 -1.6282
  415MOL0     H54751   6.409   6.553   2.562  2.2139  0.9239 -1.1533
  415MOL0     H54752   6.326   6.762   2.353  2.4322 -3.0917 -1.7003
  415MOL0     H54753   6.297   6.763   2.532 -0.5591 -1.5318  0.7944
  415MOL0     H54754   6.552   6.736   2.535  2.1347  0.5916 -1.1157
  415MOL0     H54755   6.492   6.893   2.512 -0.5617  0.6659  0.0037
  415MOL0     H54756   6.504   6.875   2.279 -1.4639  0.9256  0.9424
  415MOL0     H54757   6.588   6.708   2.285 -1.2956 -0.9158  0.5742
  415MOL0     H54758   6.750   6.856   2.440 -0.9961 -0.3019  0.2760
  415MOL0     H54759   6.775   6.812   2.269 -0.3230 -0.8981 -0.0438
  415MOL0     H54760   6.674   7.071   2.378 -0.5777 -1.5581 -1.9334
  415MOL0     H54761   6.678   7.038   2.212  2.6213 -1.5510 -2.5837
  415MOL0     H54762   5.901   6.564   2.664 -0.8469  1.1991  2.3203
  415MOL0     H54763   5.687   6.652   2.744  2.0350 -1.6288  1.5713
  415MOL0     H54764   5.381   6.832   2.839 -0.4837  0.8920  2.3240
  415MOL0     H54765   5.154   6.858   2.931  1.9108  0.5761 -0.3357
  415MOL0     H54766   5.689   5.508   2.443 -0.5775 -0.3798  0.9365
  415MOL0     H54767   5.933   5.518   2.511 -0.6946 -0.0230  3.6750
  415MOL0     H54768   6.279   5.599   2.544  0.0563  0.1664  0.8700
  415MOL0     H54769   6.507   5.532   2.620  0.3539 -0.4488  3.4509
  415MOL0     H54770   6.732   5.494   2.660  1.4763  0.1490 -1.0041
  415MOL0     H54771   6.681   5.579   2.811 -2.3757 -2.6651 -1.3439
  415MOL0     H54772   6.965   5.596   2.690  0.6211 -2.8220  1.1678
  415MOL0     H54773   6.902   5.687   2.828  2.8061 -0.2975  0.7981
  415MOL0     H54774   6.879   5.374   2.791 -1.4944 -0.2397  0.0115
  415MOL0     H54775   6.853   5.472   2.940  1.1481 -0.5659  0.1563
  415MOL0     H54776   7.118   5.415   2.797 -1.2664  0.0571 -0.4992
  415MOL0     H54777   7.125   5.506   2.933  0.4882 -0.7668  0.0556
  415MOL0     H54778   7.090   5.095   3.058 -2.7184  0.5544  0.6277
  415MOL0     H54779   6.613   5.950   2.623  2.0411 -2.0241 -0.2641
  415MOL0     H54780   6.369   6.004   2.580 -0.1620 -0.4251 -2.9282
  416MOL0     O54781   7.784  10.128   2.020  0.4320 -0.5678 -0.2494
  416MOL0     C54782   7.833  10.067   1.925  0.2777  0.3209  0.6510
  416MOL0     O54783   7.742   9.996   1.830  0.5054 -0.4636  0.6565
  416MOL0     C54784   7.601  10.014   1.823 -1.1107 -0.4816 -0.0721
  416MOL0     C54785   7.551   9.987   1.693  0.0423 -0.0962  0.0309
  416MOL0     C54786   7.413  10.003   1.672  0.1474 -0.6152 -0.6082
  416MOL0     C54787   7.327  10.038   1.777  0.1975 -0.3333 -0.5185
  416MOL0     O54788   7.193  10.031   1.746  0.0226 -0.7308  0.2391
  416MOL0     C54789   7.112  10.128   1.803 -0.2477 -0.3605 -0.5819
  416MOL0     C54790   7.022  10.052   1.899 -0.3490 -0.2011 -0.5101
  416MOL0     C54791   6.916  10.142   1.954  0.2603 -0.6386  0.3319
  416MOL0     C54792   6.828  10.059   2.055 -0.0913  0.0080 -1.1129
  416MOL0     C54793   6.738  10.148   2.144  0.2781 -0.5969  0.8476
  416MOL0     C54794   6.676  10.058   2.253  0.1425 -0.1642  0.2812
  416MOL0     C54795   6.563  10.139   2.312  0.0651  0.7661 -0.1644
  416MOL0     C54796   6.606  10.216   2.438  0.2516 -0.0756 -1.1251
  416MOL0     N54797   6.491  10.229   2.528 -0.3107 -0.0879 -0.4815
  416MOL0     C54798   6.423  10.342   2.538  0.7283 -0.2422 -0.1658
  416MOL0     C54799   6.302  10.296   2.580  0.0172  0.0993  0.6297
  416MOL0     C54800   6.183  10.387   2.613 -0.2573 -0.6013 -0.2498
  416MOL0     C54801   6.103  10.401   2.489  0.0275  0.2554 -0.2173
  416MOL0     C54802   6.021  10.524   2.500  0.0975  0.2138 -0.0865
  416MOL0     C54803   5.898  10.517   2.600 -0.2728  0.1039  0.0135
  416MOL0     O54804   5.823  10.642   2.594 -0.5019  0.3406  0.6574
  416MOL0     C54805   5.704  10.648   2.660  0.1821  0.4663 -0.0543
  416MOL0     C54806   5.648  10.544   2.747 -1.6306 -0.5988 -0.1708
  416MOL0     C54807   5.522  10.557   2.821 -0.3040  0.7103  0.3335
  416MOL0     C54808   5.442  10.670   2.789 -0.6015 -0.5305  0.0405
  416MOL0     C54809   5.307  10.680   2.841 -1.1389 -0.4171  0.3397
  416MOL0     O54810   5.259  10.566   2.915 -0.2373  0.5752  0.4232
  416MOL0     C54811   5.144  10.581   2.981  0.2643  0.2633  0.5752
  416MOL0     C54812   5.134  10.547   3.117  0.1423  0.2909  0.1901
  416MOL0     C54813   5.015  10.554   3.188  0.4091  0.2471 -0.2519
  416MOL0     C54814   4.894  10.597   3.121 -0.2644 -0.4845  0.0041
  416MOL0     O54815   4.763  10.607   3.176 -0.4169 -0.5469 -0.0500
  416MOL0     C54816   4.745  10.582   3.318  0.6465 -0.4992 -0.2708
  416MOL0     C54817   4.603  10.576   3.366  0.7524  0.7983 -0.6932
  416MOL0     C54818   4.572  10.536   3.511 -0.3873  0.6817  0.4408
  416MOL0     C54819   4.591  10.658   3.607  0.0362  0.7898 -0.5374
  416MOL0     C54820   4.530  10.624   3.750 -0.7352 -0.5862  0.6608
  416MOL0     C54821   4.388  10.577   3.750 -0.0798 -0.1055 -0.4431
  416MOL0     C54822   4.326  10.602   3.891  0.2691  0.2260 -0.2511
  416MOL0     C54823   4.231  10.717   3.891  0.3700 -0.4895  0.2309
  416MOL0    Cl54824   4.179  10.739   4.056 -0.6909  0.3392 -0.2281
  416MOL0     C54825   4.905  10.627   2.982  0.1209 -1.1167  0.5558
  416MOL0     C54826   5.029  10.619   2.911 -0.2974 -0.4151 -0.2258
  416MOL0     O54827   5.250  10.788   2.826  0.2380  0.9967 -0.1719
  416MOL0     C54828   5.497  10.766   2.705  0.8473 -0.2646  0.3682
  416MOL0     C54829   5.619  10.754   2.636  0.0622 -0.7040 -0.2277
  416MOL0     N54830   6.307  10.163   2.582 -0.2907  0.7625 -0.3272
  416MOL0     N54831   6.427  10.114   2.569 -0.0039  0.2000 -0.1747
  416MOL0     C54832   7.384  10.081   1.896 -0.5370  0.3283  0.3745
  416MOL0     C54833   7.516  10.061   1.920 -0.6039 -0.4574  0.0691
  416MOL0     C54834   7.974  10.082   1.907 -0.4413 -0.8072  0.5189
  416MOL0     C54835   8.038  10.192   1.957 -0.6521 -0.0023 -0.1326
  416MOL0     C54836   8.176  10.199   1.951  0.1067 -0.3575  0.1685
  416MOL0     C54837   8.255  10.100   1.893 -0.7132 -0.6385  0.2458
  416MOL0     O54838   8.394  10.113   1.890 -0.3376 -0.2903  0.3804
  416MOL0     C54839   8.480  10.010   1.857 -0.2847  1.3930  0.5448
  416MOL0     C54840   8.617  10.051   1.907 -0.5152 -0.1666 -0.9711
  416MOL0     C54841   8.717   9.969   1.831 -0.2198  0.0983  0.4657
  416MOL0     C54842   8.858   9.964   1.902 -0.3445 -0.1030  0.4826
  416MOL0     C54843   8.942  10.087   1.909 -0.2894 -0.5701  0.1105
  416MOL0     C54844   8.998  10.185   1.941 -1.1045  0.3280 -0.3627
  416MOL0     C54845   8.184  10.001   1.829  0.0471  0.0704  0.7923
  416MOL0     C54846   8.047   9.983   1.834  0.0809 -0.4026  0.1803
  416MOL0     H54847   7.613   9.960   1.608 -0.7266 -0.0499 -0.5703
  416MOL0     H54848   7.373   9.974   1.576 -1.8740 -0.6486  0.1961
  416MOL0     H54849   7.046  10.160   1.723  1.3165  0.3926 -1.6140
  416MOL0     H54850   7.162  10.213   1.849 -0.2163 -1.2682  1.1600
  416MOL0     H54851   7.090  10.028   1.981  1.0540 -0.0409 -1.5906
  416MOL0     H54852   6.982   9.961   1.852  0.1532 -1.8540  2.0601
  416MOL0     H54853   6.855  10.172   1.869  1.1111  1.6328  0.4620
  416MOL0     H54854   6.961  10.235   1.990 -0.8862  0.2425 -0.4600
  416MOL0     H54855   6.753  10.001   2.001 -2.1450 -1.3296  2.7824
  416MOL0     H54856   6.889   9.988   2.112 -1.6232 -0.3932  0.0859
  416MOL0     H54857   6.654  10.187   2.086  0.3359  1.9562  2.3272
  416MOL0     H54858   6.801  10.225   2.190  1.5682 -0.2259 -1.4263
  416MOL0     H54859   6.748  10.025   2.328  1.5959 -1.5149 -1.5995
  416MOL0     H54860   6.638   9.963   2.214  2.4227 -0.5257 -1.2546
  416MOL0     H54861   6.524  10.212   2.241 -1.4441  0.6729  0.5186
  416MOL0     H54862   6.483  10.066   2.330  0.5369  0.2789 -0.0387
  416MOL0     H54863   6.651  10.311   2.410  0.0348 -0.7220 -3.9762
  416MOL0     H54864   6.675  10.158   2.499 -0.5844  1.3967  1.3539
  416MOL0     H54865   6.457  10.438   2.501  0.8482 -1.0225 -2.2213
  416MOL0     H54866   6.225  10.484   2.640  0.4971 -0.9737 -0.0586
  416MOL0     H54867   6.120  10.349   2.695 -1.0958 -0.6492 -0.9028
  416MOL0     H54868   6.047  10.311   2.463  3.0660 -1.2752 -2.0966
  416MOL0     H54869   6.173  10.412   2.406 -1.7941  2.3071 -1.5887
  416MOL0     H54870   6.080  10.609   2.534 -0.3491  0.5649 -0.1809
  416MOL0     H54871   5.980  10.554   2.403 -2.5500 -0.2093  0.8225
  416MOL0     H54872   5.937  10.503   2.702  2.6306 -0.3384 -1.0482
  416MOL0     H54873   5.830  10.436   2.571  2.2221 -1.0925 -3.1323
  416MOL0     H54874   5.706  10.453   2.757 -4.9824 -3.5705 -4.1197
  416MOL0     H54875   5.486  10.478   2.887  0.9310 -0.9126 -0.8433
  416MOL0     H54876   5.226  10.527   3.171 -0.5013  0.5574  1.4072
  416MOL0     H54877   5.011  10.550   3.296 -0.7598  2.2653 -0.1551
  416MOL0     H54878   4.788  10.662   3.381  0.7919  0.2079 -1.2448
  416MOL0     H54879   4.795  10.488   3.342 -4.1730 -2.6205  3.1465
  416MOL0     H54880   4.538  10.516   3.301 -1.2718  1.7999  0.3073
  416MOL0     H54881   4.554  10.673   3.351  0.7070  1.1404  1.4701
  416MOL0     H54882   4.636  10.449   3.529 -1.1616 -0.1117 -0.5370
  416MOL0     H54883   4.468  10.503   3.513 -0.4990  1.0497  0.9767
  416MOL0     H54884   4.698  10.678   3.616 -0.1493  1.7153 -0.3271
  416MOL0     H54885   4.540  10.742   3.558  0.4559  0.1188 -2.1853
  416MOL0     H54886   4.534  10.717   3.806  2.5297  1.5429 -2.6068
  416MOL0     H54887   4.590  10.545   3.795  1.1355 -1.3418 -2.7634
  416MOL0     H54888   4.381  10.469   3.740 -4.0204 -0.4315  2.9526
  416MOL0     H54889   4.334  10.626   3.669  1.0038 -0.0581 -1.1632
  416MOL0     H54890   4.268  10.513   3.916  1.3062  0.2338  2.5187
  416MOL0     H54891   4.406  10.599   3.965  0.0971 -1.6375 -0.1162
  416MOL0     H54892   4.150  10.701   3.820  1.4025  4.7092 -2.6491
  416MOL0     H54893   4.285  10.804   3.852 -1.5213  1.0586  0.9227
  416MOL0     H54894   4.817  10.655   2.924  1.4976  1.5747 -0.4243
  416MOL0     H54895   5.048  10.627   2.804  2.6876 -3.4028 -0.0741
  416MOL0     H54896   5.433  10.849   2.675 -0.1397  0.1514  3.3610
  416MOL0     H54897   5.664  10.830   2.574  1.4598  0.8808  2.5236
  416MOL0     H54898   7.327  10.122   1.978  0.2687  1.1024  0.5582
  416MOL0     H54899   7.558  10.074   2.019 -0.2557 -0.9032 -0.0159
  416MOL0     H54900   7.980  10.270   2.004  0.0450 -0.2047  1.0972
  416MOL0     H54901   8.229  10.283   1.995 -1.2368 -0.2291  1.6576
  416MOL0     H54902   8.476  10.002   1.748  1.6727  0.1180  0.5171
  416MOL0     H54903   8.444   9.915   1.898 -1.5568  2.5684  2.2758
  416MOL0     H54904   8.640  10.156   1.888  0.0931 -0.6273 -3.0228
  416MOL0     H54905   8.623  10.020   2.012 -1.7123 -0.5223 -0.9871
  416MOL0     H54906   8.737  10.013   1.733  4.2971 -0.4034  0.9575
  416MOL0     H54907   8.683   9.867   1.814 -0.3101  0.2114 -0.0519
  416MOL0     H54908   8.854   9.931   2.006 -3.1894 -0.0179  0.4661
  416MOL0     H54909   8.916   9.890   1.846  1.7636  1.1591  0.8578
  416MOL0     H54910   9.045  10.280   1.958  0.4094 -0.7796  2.3406
  416MOL0     H54911   8.239   9.930   1.769 -1.8136 -1.9208  1.3182
  416MOL0     H54912   7.992   9.906   1.782  0.9348  1.1582 -3.2862
  417MOL0     O54913   7.400   2.575   3.352 -0.0840 -0.7706  0.4225
  417MOL0     C54914   7.476   2.502   3.285  0.6219 -0.4334  0.2390
  417MOL0     O54915   7.434   2.388   3.234 -0.0634  0.9331 -0.4062
  417MOL0     C54916   7.316   2.336   3.266 -0.0973 -0.1256  0.0418
  417MOL0     C54917   7.264   2.304   3.398 -0.5261  0.3297 -0.8733
  417MOL0     C54918   7.129   2.253   3.421  0.0196 -0.3634 -0.1719
  417MOL0     C54919   7.051   2.226   3.302  0.1527  0.1690  0.0479
  417MOL0     O54920   6.926   2.174   3.305  0.1066 -0.0777  0.2081
  417MOL0     C54921   6.833   2.178   3.416  0.2219  0.0109 -0.0687
  417MOL0     C54922   6.693   2.194   3.366  0.1240  0.0797 -0.2383
  417MOL0     C54923   6.671   2.303   3.259  0.1539 -0.4405 -0.2160
  417MOL0     C54924   6.525   2.338   3.248  0.0952  0.1572  0.6736
  417MOL0     C54925   6.489   2.438   3.149  0.1308 -0.1188  0.4999
  417MOL0     C54926   6.343   2.462   3.124 -1.4336  0.4927 -0.3821
  417MOL0     C54927   6.321   2.545   2.989 -0.5430  0.2802 -0.2055
  417MOL0     C54928   6.177   2.573   2.956 -0.4434  0.2795  0.2848
  417MOL0     N54929   6.145   2.622   2.820 -0.5017 -0.2910 -0.4314
  417MOL0     C54930   6.115   2.535   2.719  0.2502 -0.3937 -0.0004
  417MOL0     C54931   6.110   2.616   2.607 -1.0710 -1.0946 -0.7076
  417MOL0     C54932   6.106   2.597   2.460  0.3339  0.9234  0.3893
  417MOL0     C54933   5.960   2.588   2.392  0.0211  0.0822 -0.2325
  417MOL0     C54934   5.865   2.706   2.410 -0.1094 -0.2158  0.1771
  417MOL0     C54935   5.717   2.684   2.369 -0.0560  0.1034  1.3711
  417MOL0     O54936   5.709   2.641   2.233  0.4621  0.4483 -0.2269
  417MOL0     C54937   5.582   2.613   2.178  0.6818 -0.7180  0.4791
  417MOL0     C54938   5.468   2.585   2.257  1.4472 -0.1550  0.8422
  417MOL0     C54939   5.343   2.583   2.194  0.1521  0.8936  0.2481
  417MOL0     C54940   5.330   2.566   2.054  0.1201  0.2906 -0.0455
  417MOL0     C54941   5.197   2.532   1.985  0.4792 -0.0269 -0.4264
  417MOL0     O54942   5.088   2.486   2.062 -0.2435 -0.2682  0.2149
  417MOL0     C54943   4.955   2.512   2.029  0.6518 -0.1292 -1.4672
  417MOL0     C54944   4.906   2.594   1.931  0.3736  0.4485  0.6380
  417MOL0     C54945   4.768   2.585   1.896  0.1565  0.7849 -0.1011
  417MOL0     C54946   4.677   2.516   1.975 -0.1093 -0.3802 -0.0628
  417MOL0     O54947   4.540   2.539   1.942 -0.5397 -0.0243 -0.6371
  417MOL0     C54948   4.454   2.460   2.018  0.2337  0.7780  0.5770
  417MOL0     C54949   4.301   2.490   2.017  0.0214  0.3522 -0.0886
  417MOL0     C54950   4.208   2.395   2.092 -0.2575 -1.1989  0.5195
  417MOL0     C54951   4.254   2.397   2.236  0.0401 -0.0027  0.5429
  417MOL0     C54952   4.151   2.333   2.327  0.0659  0.1347 -0.0025
  417MOL0     C54953   4.168   2.383   2.471  0.8856  0.0004  0.6022
  417MOL0     C54954   4.098   2.295   2.581  0.1417  0.9804  0.0139
  417MOL0     C54955   4.118   2.137   2.575 -0.1573  0.2338  1.3117
  417MOL0    Cl54956   4.290   2.108   2.548 -0.0568  0.4449  0.5483
  417MOL0     C54957   4.728   2.454   2.086  0.2338  0.7473 -0.4925
  417MOL0     C54958   4.862   2.443   2.110  0.5347 -0.0103  0.3388
  417MOL0     O54959   5.192   2.570   1.865  0.8711 -1.0913  0.3670
  417MOL0     C54960   5.445   2.587   1.968  0.4535 -0.9299 -0.4129
  417MOL0     C54961   5.568   2.613   2.032  0.8060  0.9288 -0.3068
  417MOL0     N54962   6.141   2.744   2.646 -0.1410  0.1756 -0.0604
  417MOL0     N54963   6.155   2.751   2.774  0.4578  0.3017  0.2412
  417MOL0     C54964   7.099   2.266   3.176  0.3320  0.6510 -0.4184
  417MOL0     C54965   7.227   2.314   3.160 -0.2615 -1.2110  1.0484
  417MOL0     C54966   7.610   2.558   3.263 -0.2773  0.0846  0.7604
  417MOL0     C54967   7.651   2.691   3.279  0.0595 -0.5812 -1.0024
  417MOL0     C54968   7.779   2.735   3.249 -0.8241 -0.2843 -0.2253
  417MOL0     C54969   7.874   2.643   3.195 -0.1146  0.0295  0.2567
  417MOL0     O54970   8.003   2.672   3.152 -0.0229  0.3145  0.5004
  417MOL0     C54971   8.045   2.812   3.139 -0.1365  0.4811 -0.1021
  417MOL0     C54972   8.083   2.878   3.270 -0.5305  0.0407  0.6081
  417MOL0     C54973   8.195   2.985   3.256 -0.2071 -0.0835  0.1310
  417MOL0     C54974   8.241   3.042   3.389 -0.0133 -0.3169  0.6375
  417MOL0     C54975   8.319   3.165   3.373 -0.5498 -0.1727  0.1626
  417MOL0     C54976   8.393   3.261   3.370  0.3295  0.9930  0.0906
  417MOL0     C54977   7.839   2.504   3.195 -0.6093  0.4058  0.1502
  417MOL0     C54978   7.711   2.466   3.221  0.7866  0.2500  0.2116
  417MOL0     H54979   7.336   2.342   3.471  1.0374  2.4944 -3.3736
  417MOL0     H54980   7.105   2.217   3.521  0.2360 -0.9493 -0.3248
  417MOL0     H54981   6.866   2.253   3.488 -1.3633 -0.3663  1.1118
  417MOL0     H54982   6.851   2.084   3.469  3.7571  1.5689  1.8288
  417MOL0     H54983   6.621   2.217   3.445 -0.9702 -1.8177 -0.6094
  417MOL0     H54984   6.669   2.095   3.324  2.6205 -1.2112  1.1467
  417MOL0     H54985   6.704   2.256   3.166 -1.8760 -3.7066  0.5557
  417MOL0     H54986   6.730   2.391   3.286 -2.6756  1.4758  0.1496
  417MOL0     H54987   6.462   2.251   3.228  2.8302 -2.0086  0.7519
  417MOL0     H54988   6.500   2.390   3.341 -2.3196  1.0874 -0.4194
  417MOL0     H54989   6.538   2.395   3.062 -0.1138 -0.7250  0.6554
  417MOL0     H54990   6.540   2.532   3.171 -0.1904 -0.0866  1.1440
  417MOL0     H54991   6.311   2.519   3.211 -0.4406 -2.8873  2.4723
  417MOL0     H54992   6.279   2.373   3.122 -0.6889 -0.0560 -2.8690
  417MOL0     H54993   6.375   2.641   2.991 -0.0540  0.0025  1.4203
  417MOL0     H54994   6.352   2.485   2.903 -3.1892  0.6804 -1.5385
  417MOL0     H54995   6.143   2.646   3.030  0.2850  0.9432 -0.0265
  417MOL0     H54996   6.119   2.481   2.972  1.0497 -1.2180 -2.2447
  417MOL0     H54997   6.129   2.427   2.720  1.2791 -0.2670  0.8352
  417MOL0     H54998   6.139   2.495   2.437  2.3065  1.3789  0.9769
  417MOL0     H54999   6.175   2.662   2.405 -1.3732  1.1377 -1.6293
  417MOL0     H55000   5.909   2.497   2.425 -1.3601  1.1579  0.7254
  417MOL0     H55001   5.974   2.584   2.283  1.1026 -1.4003 -0.0564
  417MOL0     H55002   5.872   2.733   2.515  0.1090 -1.3511  0.4714
  417MOL0     H55003   5.909   2.790   2.355 -1.2693  1.1767  1.3032
  417MOL0     H55004   5.668   2.781   2.379 -2.9069 -1.4258  4.5630
  417MOL0     H55005   5.683   2.604   2.436  0.5437 -5.1463 -3.7774
  417MOL0     H55006   5.468   2.583   2.365 -0.5101 -1.0686  0.8633
  417MOL0     H55007   5.262   2.572   2.264  0.9390  2.1382  1.4005
  417MOL0     H55008   4.974   2.653   1.870  0.4919  1.9856  2.1859
  417MOL0     H55009   4.738   2.633   1.803 -2.0561  0.8747  0.6102
  417MOL0     H55010   4.471   2.481   2.123  0.1647 -2.2691  1.2797
  417MOL0     H55011   4.475   2.355   1.993 -1.5419  1.1501 -3.4098
  417MOL0     H55012   4.278   2.489   1.910 -0.5141 -2.0982 -0.0114
  417MOL0     H55013   4.294   2.591   2.058 -1.2980  0.0746  0.4080
  417MOL0     H55014   4.216   2.298   2.042 -3.3802 -1.1582 -0.2542
  417MOL0     H55015   4.107   2.436   2.088 -0.0668 -0.6681  0.9500
  417MOL0     H55016   4.351   2.347   2.247  0.5650  0.0501 -2.8398
  417MOL0     H55017   4.274   2.501   2.264  1.3848  0.6117 -2.3457
  417MOL0     H55018   4.162   2.224   2.326  1.2564  0.2280  1.0904
  417MOL0     H55019   4.052   2.361   2.288  0.2584  0.4700 -0.2532
  417MOL0     H55020   4.118   2.481   2.467 -0.1777 -0.5028  1.3181
  417MOL0     H55021   4.271   2.399   2.501  0.7797  2.0396  0.0635
  417MOL0     H55022   4.135   2.326   2.679  0.0673 -1.0177  0.7083
  417MOL0     H55023   3.990   2.309   2.590 -0.1531 -2.1366  3.0978
  417MOL0     H55024   4.062   2.093   2.492 -1.3021  0.9459  1.6877
  417MOL0     H55025   4.080   2.083   2.662 -3.6462 -0.5352 -0.5067
  417MOL0     H55026   4.670   2.396   2.157 -1.8902  0.4686 -2.3247
  417MOL0     H55027   4.896   2.399   2.203  0.7530 -1.8212 -0.5402
  417MOL0     H55028   5.448   2.579   1.860 -0.4353 -0.3246 -0.5027
  417MOL0     H55029   5.658   2.623   1.973  0.9731  1.6013  0.0524
  417MOL0     H55030   7.041   2.244   3.087  1.8989 -1.1361 -1.0570
  417MOL0     H55031   7.262   2.350   3.064 -1.6753 -0.3313  0.8375
  417MOL0     H55032   7.570   2.752   3.318  0.6097 -1.1444  1.1637
  417MOL0     H55033   7.795   2.842   3.261 -0.7175 -0.3174 -0.0653
  417MOL0     H55034   7.964   2.862   3.085 -2.3088 -2.0842  0.5429
  417MOL0     H55035   8.126   2.818   3.065 -0.3910 -0.9758 -0.5442
  417MOL0     H55036   7.989   2.903   3.320 -1.4128 -2.1839  0.1865
  417MOL0     H55037   8.131   2.798   3.328  0.5536  1.4157  1.6999
  417MOL0     H55038   8.166   3.050   3.174  1.7709  0.0239 -0.5262
  417MOL0     H55039   8.280   2.933   3.210 -0.1854 -1.3254  1.4760
  417MOL0     H55040   8.151   3.072   3.444 -0.9013  1.9468 -1.7790
  417MOL0     H55041   8.296   2.967   3.446  0.0907 -0.6753  0.0739
  417MOL0     H55042   8.451   3.351   3.369  0.6055  0.9103  2.3592
  417MOL0     H55043   7.903   2.427   3.153 -4.9578 -2.0961 -2.7199
  417MOL0     H55044   7.677   2.364   3.205 -1.6342  0.5397  2.6838
  418MOL0     O55045   5.917   2.043   2.077  0.3522  0.4890  0.4570
  418MOL0     C55046   5.832   2.101   2.142 -0.4148  0.0314 -0.4407
  418MOL0     O55047   5.866   2.189   2.245  0.0840 -0.5612  0.2052
  418MOL0     C55048   5.997   2.193   2.288  0.6217  0.0908  0.2100
  418MOL0     C55049   6.083   2.277   2.230  0.4573 -0.0861  0.4977
  418MOL0     C55050   6.211   2.295   2.274 -0.2815  0.3033 -0.0040
  418MOL0     C55051   6.255   2.230   2.386  0.0149 -0.5274 -0.5976
  418MOL0     O55052   6.384   2.272   2.418  0.0638 -0.7561  0.3285
  418MOL0     C55053   6.402   2.277   2.558  0.4671 -0.0682 -0.8563
  418MOL0     C55054   6.547   2.320   2.586  0.9646 -0.0076  2.1483
  418MOL0     C55055   6.591   2.329   2.729  0.2322 -0.0286 -0.1874
  418MOL0     C55056   6.726   2.403   2.748 -0.0685 -0.5974 -0.9212
  418MOL0     C55057   6.857   2.331   2.695  0.7204 -1.1612  0.6175
  418MOL0     C55058   6.980   2.379   2.757  0.1209  0.6112  0.1284
  418MOL0     C55059   7.107   2.313   2.696 -0.5388  0.6457 -0.1082
  418MOL0     C55060   7.225   2.410   2.673 -1.0732 -0.1987  0.3867
  418MOL0     N55061   7.362   2.348   2.708  0.5694  0.1803  0.0623
  418MOL0     C55062   7.470   2.346   2.629  0.3772  0.7992  1.4558
  418MOL0     C55063   7.563   2.284   2.698 -0.0657 -0.2284  0.2013
  418MOL0     C55064   7.699   2.235   2.636  0.0917 -0.4909 -0.2225
  418MOL0     C55065   7.788   2.171   2.746 -0.3601 -0.3687  0.1980
  418MOL0     C55066   7.935   2.169   2.711  0.7918 -0.4939 -0.2350
  418MOL0     C55067   8.029   2.121   2.828 -0.1431 -0.4652  1.0151
  418MOL0     O55068   8.171   2.152   2.810 -0.1066  0.2722  0.0282
  418MOL0     C55069   8.227   2.252   2.890  0.0787  0.6108  0.2904
  418MOL0     C55070   8.153   2.360   2.954 -0.3873 -0.0623 -0.3459
  418MOL0     C55071   8.226   2.467   3.013 -0.1304 -0.3912 -0.3340
  418MOL0     C55072   8.366   2.465   3.013 -0.6159 -0.4092 -0.7744
  418MOL0     C55073   8.432   2.582   3.071  0.0419  0.0825  0.3964
  418MOL0     O55074   8.566   2.607   3.040  0.6754 -1.0752 -0.0932
  418MOL0     C55075   8.604   2.735   3.008 -0.8478  0.3053  1.0413
  418MOL0     C55076   8.742   2.752   2.999  0.0457 -0.2401  0.8111
  418MOL0     C55077   8.802   2.872   2.960 -0.3496 -0.4755  0.1066
  418MOL0     C55078   8.716   2.983   2.936 -0.2056 -0.5724 -0.7536
  418MOL0     O55079   8.771   3.106   2.918 -0.1868 -0.2283  0.9704
  418MOL0     C55080   8.703   3.212   2.985 -0.3688 -0.7392  0.1231
  418MOL0     C55081   8.694   3.202   3.135 -0.2319 -0.4201 -0.3649
  418MOL0     C55082   8.834   3.159   3.200 -0.3530  0.6666  0.4047
  418MOL0     C55083   8.829   3.139   3.350 -0.7783 -0.7076  0.2586
  418MOL0     C55084   8.736   3.026   3.379  0.2479  1.2488 -0.2221
  418MOL0     C55085   8.724   2.993   3.530  0.3141  0.6716 -0.3641
  418MOL0     C55086   8.655   3.097   3.627 -0.6070 -0.7140  0.2640
  418MOL0     C55087   8.673   3.065   3.776  0.1814  0.2910 -0.4750
  418MOL0    Cl55088   8.576   3.178   3.882  0.0563 -0.1350  0.3165
  418MOL0     C55089   8.582   2.962   2.923 -0.2181  0.0189  0.2323
  418MOL0     C55090   8.523   2.843   2.973  0.1638  0.7719  0.0276
  418MOL0     O55091   8.370   2.663   3.139 -0.1052 -0.6701 -0.0723
  418MOL0     C55092   8.435   2.358   2.958  0.1761 -0.1554 -0.7809
  418MOL0     C55093   8.365   2.258   2.887  0.0863  0.1913 -1.2594
  418MOL0     N55094   7.517   2.265   2.832 -0.1674  0.9247  0.7770
  418MOL0     N55095   7.396   2.305   2.836  0.1909  0.7505  0.9288
  418MOL0     C55096   6.173   2.130   2.439 -0.2097 -0.0491 -0.8299
  418MOL0     C55097   6.041   2.114   2.396  0.0691  0.1197 -0.8210
  418MOL0     C55098   5.686   2.077   2.111 -0.7200 -0.7913 -1.1027
  418MOL0     C55099   5.638   1.959   2.068  0.4251 -0.3714  0.3683
  418MOL0     C55100   5.502   1.938   2.048 -0.1859 -0.4734 -0.0237
  418MOL0     C55101   5.415   2.037   2.086  1.0645  0.4899  1.1563
  418MOL0     O55102   5.284   2.013   2.079  0.3117 -0.3614 -0.4954
  418MOL0     C55103   5.181   2.085   2.147 -0.3297 -0.6424  0.0074
  418MOL0     C55104   5.053   2.004   2.149  0.1727  0.2497 -0.5530
  418MOL0     C55105   4.945   2.091   2.209 -0.2443 -0.5894 -0.4044
  418MOL0     C55106   4.829   2.011   2.262 -0.0049  0.2557  0.6721
  418MOL0     C55107   4.739   2.108   2.322 -0.1215 -0.4946  0.4171
  418MOL0     C55108   4.653   2.186   2.357 -0.1537  0.0697  1.1039
  418MOL0     C55109   5.462   2.161   2.127  0.2195  1.2490 -0.1373
  418MOL0     C55110   5.596   2.177   2.145 -0.7524  0.1300 -0.0758
  418MOL0     H55111   6.044   2.342   2.152  0.3354 -0.7920 -0.0334
  418MOL0     H55112   6.276   2.366   2.224 -1.0002 -0.8856 -2.8233
  418MOL0     H55113   6.390   2.182   2.611 -0.6105  0.4411 -0.1589
  418MOL0     H55114   6.334   2.351   2.600 -1.1608 -2.1056  0.2311
  418MOL0     H55115   6.558   2.416   2.533 -0.5036 -0.4695  0.9455
  418MOL0     H55116   6.602   2.242   2.534  1.2661  1.7126 -0.3057
  418MOL0     H55117   6.612   2.229   2.767 -3.5048  0.0757  2.7074
  418MOL0     H55118   6.510   2.375   2.786 -1.3938 -2.0465 -0.7701
  418MOL0     H55119   6.722   2.502   2.703 -2.0119 -0.4564 -0.4959
  418MOL0     H55120   6.736   2.418   2.856 -3.3944  1.2429 -0.7617
  418MOL0     H55121   6.858   2.348   2.587 -1.4572  0.0465  0.7438
  418MOL0     H55122   6.846   2.222   2.706  0.0426 -1.2669 -0.9651
  418MOL0     H55123   6.976   2.372   2.866 -1.1855  2.4718  0.2485
  418MOL0     H55124   6.990   2.487   2.745 -0.7781  0.6130 -0.8079
  418MOL0     H55125   7.129   2.228   2.761  1.7211 -1.4509 -3.2762
  418MOL0     H55126   7.080   2.267   2.600 -2.2768  1.8808 -0.2586
  418MOL0     H55127   7.208   2.490   2.746 -1.1671 -3.6989  4.6016
  418MOL0     H55128   7.215   2.454   2.573 -3.5445 -3.0481 -0.7543
  418MOL0     H55129   7.481   2.389   2.530 -0.8982 -0.5338  0.6941
  418MOL0     H55130   7.754   2.326   2.610 -2.5972  0.9572 -1.2138
  418MOL0     H55131   7.687   2.165   2.553 -1.0945 -2.0916  1.2185
  418MOL0     H55132   7.753   2.072   2.776 -1.0414 -0.1090  0.2789
  418MOL0     H55133   7.783   2.231   2.838  2.2292 -1.5866  1.2391
  418MOL0     H55134   7.946   2.116   2.616 -0.2658  1.5091 -1.5441
  418MOL0     H55135   7.974   2.270   2.693  0.7818 -0.4872 -0.2199
  418MOL0     H55136   8.019   2.013   2.843  0.5224 -0.7012 -0.1113
  418MOL0     H55137   7.997   2.162   2.924 -0.0227 -1.2003  1.3818
  418MOL0     H55138   8.046   2.370   2.965 -0.2011  0.7462  1.0696
  418MOL0     H55139   8.161   2.540   3.060  0.8578 -1.1590  2.4140
  418MOL0     H55140   8.812   2.676   3.030  0.2725  0.8059  3.0681
  418MOL0     H55141   8.909   2.887   2.959 -0.7215  2.9555 -1.2290
  418MOL0     H55142   8.604   3.231   2.942  0.0800  0.8332 -0.2811
  418MOL0     H55143   8.768   3.297   2.959 -0.9480 -0.6224 -1.0232
  418MOL0     H55144   8.612   3.135   3.162  0.3930 -0.9391  0.3105
  418MOL0     H55145   8.661   3.297   3.178 -0.7252 -1.4829  1.7709
  418MOL0     H55146   8.899   3.240   3.166 -3.1475  1.9647 -2.3178
  418MOL0     H55147   8.870   3.068   3.152  1.8944  1.0276  1.2433
  418MOL0     H55148   8.931   3.116   3.381  0.3589 -1.7423 -3.6607
  418MOL0     H55149   8.804   3.227   3.410  2.2501 -0.0368  0.7094
  418MOL0     H55150   8.767   2.934   3.328 -1.8255  0.3899 -0.0162
  418MOL0     H55151   8.634   3.054   3.350 -0.1685  0.2779  0.2847
  418MOL0     H55152   8.823   2.966   3.567 -0.1917 -3.0001 -1.2528
  418MOL0     H55153   8.670   2.899   3.549  0.3118  0.5576 -0.9117
  418MOL0     H55154   8.687   3.197   3.595  1.2064 -1.0631  0.8317
  418MOL0     H55155   8.548   3.098   3.606 -0.4067  1.6977 -0.9983
  418MOL0     H55156   8.778   3.079   3.801  0.2999  0.7123 -1.1681
  418MOL0     H55157   8.637   2.965   3.800 -1.3957  1.1409  0.9151
  418MOL0     H55158   8.518   3.044   2.893  1.9379  0.7889 -2.6674
  418MOL0     H55159   8.414   2.849   2.980  0.2261  1.5208  0.4132
  418MOL0     H55160   8.541   2.358   2.982  0.1710  1.0658 -0.6876
  418MOL0     H55161   8.424   2.176   2.848  1.4655  0.2499  0.5454
  418MOL0     H55162   6.195   2.066   2.524  1.1857  3.1679  1.4454
  418MOL0     H55163   5.982   2.037   2.445  2.3947 -1.3500 -0.1664
  418MOL0     H55164   5.714   1.885   2.045  1.6206  1.8263 -3.6607
  418MOL0     H55165   5.466   1.841   2.016  2.0960 -1.0835 -0.9263
  418MOL0     H55166   5.174   2.180   2.095  0.4947  1.2177  3.0201
  418MOL0     H55167   5.219   2.107   2.247  0.8014  3.2288 -1.1269
  418MOL0     H55168   5.024   1.972   2.048 -1.6956  1.4865 -0.4506
  418MOL0     H55169   5.057   1.920   2.219  2.1304  0.6969 -0.0590
  418MOL0     H55170   4.910   2.173   2.146  1.7235  0.6614  0.0165
  418MOL0     H55171   4.985   2.142   2.297 -1.5546  0.4230 -0.3558
  418MOL0     H55172   4.782   1.949   2.186  1.7103  0.9424 -1.0388
  418MOL0     H55173   4.857   1.940   2.340  1.7238 -1.6308 -1.5119
  418MOL0     H55174   4.578   2.255   2.390  2.4616  1.9081  3.8133
  418MOL0     H55175   5.387   2.238   2.148 -0.9103  0.3742 -0.8275
  418MOL0     H55176   5.633   2.274   2.177  1.2669  0.1594 -2.2319
  419MOL0     O55177   7.824   4.891   1.377 -0.4056 -0.2852  0.3086
  419MOL0     C55178   7.766   4.979   1.441 -0.1181  0.0804  0.2393
  419MOL0     O55179   7.645   4.962   1.487  0.6760 -0.4033 -0.6983
  419MOL0     C55180   7.571   4.854   1.468  0.7978  0.1524  0.0084
  419MOL0     C55181   7.430   4.870   1.468  1.0038  0.6130 -0.2242
  419MOL0     C55182   7.343   4.761   1.475  0.1607 -0.1145 -0.4956
  419MOL0     C55183   7.385   4.624   1.468  0.2680  0.4774 -0.1363
  419MOL0     O55184   7.299   4.526   1.471  0.0554 -0.1223  0.5909
  419MOL0     C55185   7.169   4.553   1.431  0.1931 -0.3690  0.4293
  419MOL0     C55186   7.111   4.419   1.409  0.8268  0.6309 -0.7823
  419MOL0     C55187   6.968   4.436   1.358  0.1508 -0.1114 -0.2819
  419MOL0     C55188   6.921   4.312   1.284  0.5408  0.3895 -0.2226
  419MOL0     C55189   6.761   4.309   1.265  0.0303 -0.9420  0.4816
  419MOL0     C55190   6.737   4.198   1.158 -0.9171  0.0981 -0.0392
  419MOL0     C55191   6.594   4.200   1.103 -0.4579 -0.4891 -0.9310
  419MOL0     C55192   6.508   4.094   1.180  0.5813 -0.3614  0.1960
  419MOL0     N55193   6.367   4.141   1.206  0.4846 -0.2412 -0.0396
  419MOL0     C55194   6.274   4.158   1.112  0.6422 -0.2167  0.3157
  419MOL0     C55195   6.171   4.223   1.184 -1.0874  0.1563 -0.4445
  419MOL0     C55196   6.036   4.282   1.157  0.5544  1.1122  0.2186
  419MOL0     C55197   5.962   4.231   1.034 -0.0017  0.3789  0.3488
  419MOL0     C55198   5.837   4.301   1.012 -0.6998 -0.0439 -0.2422
  419MOL0     C55199   5.767   4.226   0.895  0.2790  0.4466  0.9346
  419MOL0     O55200   5.845   4.220   0.771  0.8216  0.0482  0.5366
  419MOL0     C55201   5.766   4.195   0.658  0.4325  0.4357 -0.4549
  419MOL0     C55202   5.638   4.132   0.661 -0.7775  0.1637 -0.1656
  419MOL0     C55203   5.577   4.116   0.543  0.4663  0.1458  0.1376
  419MOL0     C55204   5.639   4.147   0.417 -0.3125 -0.7021 -0.4488
  419MOL0     C55205   5.568   4.131   0.288 -0.0053 -0.7014  0.0044
  419MOL0     O55206   5.447   4.055   0.289 -0.0764 -0.0914 -0.5344
  419MOL0     C55207   5.387   4.021   0.168 -0.4589 -0.1461  0.5286
  419MOL0     C55208   5.257   4.073   0.148 -0.0133  0.5256  0.1773
  419MOL0     C55209   5.181   4.040   0.033 -0.4133  0.5037  0.2438
  419MOL0     C55210   5.245   3.980  -0.078  0.4781  0.1665 -0.4005
  419MOL0     O55211   5.164   3.927  -0.179 -0.0425 -0.1614 -0.2917
  419MOL0     C55212   5.092   3.812  -0.137  0.1686 -0.1498 -0.0246
  419MOL0     C55213   5.041   3.737  -0.262  0.5036  0.5098 -1.3007
  419MOL0     C55214   4.910   3.791  -0.320 -0.1576 -0.1386  0.3401
  419MOL0     C55215   4.791   3.756  -0.232  0.8129  0.1176 -0.2129
  419MOL0     C55216   4.681   3.858  -0.268 -0.5543  0.1289  0.7735
  419MOL0     C55217   4.547   3.801  -0.221 -0.3364 -0.4414 -0.7225
  419MOL0     C55218   4.434   3.905  -0.243  0.2177  0.0213 -0.0889
  419MOL0     C55219   4.304   3.838  -0.280  0.4169  0.5643  0.5673
  419MOL0    Cl55220   4.199   3.964  -0.349 -0.3322 -0.1415  0.2353
  419MOL0     C55221   5.373   3.941  -0.060 -0.0381 -0.9801 -0.0642
  419MOL0     C55222   5.447   3.956   0.058 -0.5202  0.0297 -0.0581
  419MOL0     O55223   5.613   4.177   0.186  0.7101  0.4961 -0.5988
  419MOL0     C55224   5.766   4.205   0.415  0.2762  0.5103  0.5587
  419MOL0     C55225   5.828   4.228   0.538  0.0774  0.0676 -0.7509
  419MOL0     N55226   6.212   4.247   1.315  0.2830  0.4977  0.2685
  419MOL0     N55227   6.326   4.193   1.326  0.3296  0.0971 -0.2685
  419MOL0     C55228   7.529   4.609   1.472 -1.4015 -0.4336 -0.1587
  419MOL0     C55229   7.612   4.718   1.471 -1.0439  0.5005 -0.2930
  419MOL0     C55230   7.831   5.108   1.468  0.6524  0.9977  0.4524
  419MOL0     C55231   7.762   5.207   1.525 -0.2855  0.6590 -0.8160
  419MOL0     C55232   7.818   5.339   1.534  0.3965  0.3225 -0.6277
  419MOL0     C55233   7.943   5.364   1.487  0.0386  0.1425  0.5717
  419MOL0     O55234   7.977   5.496   1.488 -0.6165  0.1064 -0.2293
  419MOL0     C55235   8.114   5.520   1.453  0.1824  0.4798 -0.0202
  419MOL0     C55236   8.148   5.668   1.471  0.5231  0.0467  0.2311
  419MOL0     C55237   8.139   5.713   1.607  0.2504 -0.1218 -0.0255
  419MOL0     C55238   8.150   5.869   1.624  0.7391 -0.5626 -0.2050
  419MOL0     C55239   8.280   5.906   1.576  0.2675  0.5787  0.8695
  419MOL0     C55240   8.390   5.951   1.536 -0.1274  0.4638  0.4127
  419MOL0     C55241   8.028   5.262   1.451 -0.1902 -0.4379  1.0004
  419MOL0     C55242   7.968   5.135   1.436  0.3294 -0.3529 -0.1120
  419MOL0     H55243   7.392   4.971   1.476 -2.6445 -0.5043 -1.5128
  419MOL0     H55244   7.241   4.781   1.504  0.3581  3.0133 -1.5796
  419MOL0     H55245   7.171   4.614   1.340 -0.0865 -2.7469 -1.2704
  419MOL0     H55246   7.103   4.596   1.508 -1.3127 -4.6780  1.8407
  419MOL0     H55247   7.117   4.362   1.502 -0.2995  1.0854 -0.4133
  419MOL0     H55248   7.165   4.375   1.325 -2.0485  2.9795 -4.1370
  419MOL0     H55249   6.963   4.516   1.283  0.0822 -2.0490 -2.4409
  419MOL0     H55250   6.904   4.449   1.446  0.5830 -0.3812  0.0728
  419MOL0     H55251   6.978   4.299   1.191 -1.3164 -0.5646 -1.2875
  419MOL0     H55252   6.949   4.223   1.340  0.1019 -1.8824 -3.3431
  419MOL0     H55253   6.720   4.402   1.225  1.5768  0.5425  2.1033
  419MOL0     H55254   6.716   4.286   1.362  1.0890 -2.2385  0.7064
  419MOL0     H55255   6.757   4.096   1.191 -0.3810  1.7979  5.9806
  419MOL0     H55256   6.807   4.218   1.076  3.4443  1.9097  3.7122
  419MOL0     H55257   6.555   4.301   1.119  1.5910  0.4883 -1.6987
  419MOL0     H55258   6.598   4.201   0.994  2.1231  0.2513 -0.9064
  419MOL0     H55259   6.558   4.083   1.277 -0.0846 -0.2590  0.5526
  419MOL0     H55260   6.499   4.001   1.124 -3.5146  0.7996 -1.3959
  419MOL0     H55261   6.269   4.127   1.008 -0.0616 -2.7764  1.0252
  419MOL0     H55262   6.045   4.391   1.151  2.7436  1.1161  2.0888
  419MOL0     H55263   5.974   4.253   1.243  0.9949 -0.8062 -0.0754
  419MOL0     H55264   5.926   4.130   1.056 -1.9984  1.0250  0.1784
  419MOL0     H55265   6.030   4.216   0.949 -3.2843 -0.9460 -2.2800
  419MOL0     H55266   5.777   4.297   1.103 -1.8668 -0.9394 -1.0243
  419MOL0     H55267   5.850   4.406   0.986 -3.3146  0.0565 -1.4177
  419MOL0     H55268   5.666   4.266   0.884 -1.0430 -2.8209  0.0148
  419MOL0     H55269   5.736   4.125   0.921 -2.0663  1.5850  3.0372
  419MOL0     H55270   5.576   4.098   0.743  0.8055 -2.7400 -0.0374
  419MOL0     H55271   5.472   4.088   0.543  0.1061  1.3714  1.3033
  419MOL0     H55272   5.210   4.135   0.224 -1.7106 -2.3194  1.6654
  419MOL0     H55273   5.081   4.082   0.026 -0.6437 -0.1792 -0.7752
  419MOL0     H55274   5.012   3.843  -0.069  3.3327 -0.3322  4.2783
  419MOL0     H55275   5.158   3.738  -0.091  0.6480 -1.2705 -2.3612
  419MOL0     H55276   5.040   3.631  -0.235  1.0259  1.4315  3.2434
  419MOL0     H55277   5.121   3.735  -0.336  1.8104 -0.4192  0.0654
  419MOL0     H55278   4.906   3.761  -0.425  1.4721 -1.5117  0.6298
  419MOL0     H55279   4.922   3.900  -0.318  0.5597 -0.1920 -0.6035
  419MOL0     H55280   4.749   3.655  -0.242  0.8240 -0.1033  1.5925
  419MOL0     H55281   4.808   3.772  -0.125 -1.4429 -1.4647  0.4570
  419MOL0     H55282   4.677   3.881  -0.375  2.5016 -0.1276  0.5016
  419MOL0     H55283   4.700   3.951  -0.214 -2.2867  1.0731 -0.1591
  419MOL0     H55284   4.550   3.769  -0.117 -0.0084 -3.9081 -1.6573
  419MOL0     H55285   4.518   3.709  -0.272 -1.1550 -2.6744  3.3906
  419MOL0     H55286   4.426   3.969  -0.154 -0.9268 -0.9421  0.5255
  419MOL0     H55287   4.460   3.969  -0.328 -1.1855  1.0854  0.2378
  419MOL0     H55288   4.254   3.806  -0.188 -0.1371  1.6570  0.6604
  419MOL0     H55289   4.328   3.750  -0.341  1.4209 -0.2517  2.0614
  419MOL0     H55290   5.410   3.880  -0.142 -2.1334  0.4356 -2.1820
  419MOL0     H55291   5.544   3.906   0.061 -0.3604  0.3946  1.8328
  419MOL0     H55292   5.816   4.238   0.325  1.7646  3.5683  2.3210
  419MOL0     H55293   5.931   4.265   0.537  0.0123  0.2464 -0.9424
  419MOL0     H55294   7.568   4.509   1.484  0.8572  0.5382  1.0970
  419MOL0     H55295   7.720   4.716   1.477 -1.0926 -1.1975  0.5590
  419MOL0     H55296   7.656   5.193   1.546  0.1237 -1.4176  0.0817
  419MOL0     H55297   7.756   5.420   1.570  0.1696  0.6349 -1.6667
  419MOL0     H55298   8.123   5.494   1.347 -1.5931 -2.1343  0.3714
  419MOL0     H55299   8.185   5.458   1.508  0.4245  0.7023 -0.0760
  419MOL0     H55300   8.253   5.676   1.443  0.6742 -0.4093  0.6713
  419MOL0     H55301   8.081   5.724   1.405 -0.3643  2.9329  3.3076
  419MOL0     H55302   8.220   5.663   1.660  1.8196  1.3432 -0.9769
  419MOL0     H55303   8.043   5.682   1.650 -1.4537  0.8732 -2.8406
  419MOL0     H55304   8.068   5.910   1.564  1.3270  1.6120  0.3906
  419MOL0     H55305   8.145   5.909   1.726  0.4561  2.4714 -1.3039
  419MOL0     H55306   8.471   6.006   1.491 -1.5259  0.7021 -1.9766
  419MOL0     H55307   8.129   5.270   1.411 -1.3191  4.2408 -1.5612
  419MOL0     H55308   8.030   5.051   1.407  2.2816  0.7094  0.7969
  420MOL0     O55309   7.226   7.619   8.384 -0.0641 -0.5844 -0.1408
  420MOL0     C55310   7.292   7.644   8.483 -0.0768  0.6714 -0.2853
  420MOL0     O55311   7.248   7.687   8.598  0.1517 -0.2379 -0.4839
  420MOL0     C55312   7.116   7.727   8.607  0.8787  1.0446 -0.4791
  420MOL0     C55313   7.101   7.857   8.623  0.3476 -0.5475  0.1385
  420MOL0     C55314   6.969   7.907   8.614  0.8932 -0.1538 -0.3377
  420MOL0     C55315   6.853   7.818   8.622  0.2628 -0.0007  0.2794
  420MOL0     O55316   6.723   7.857   8.607  0.3936 -0.5329 -0.4826
  420MOL0     C55317   6.675   7.982   8.663  0.3025  0.2636 -0.0728
  420MOL0     C55318   6.532   7.975   8.701  0.0376  0.0192 -0.0116
  420MOL0     C55319   6.490   8.114   8.749 -0.0862  0.2936  0.6424
  420MOL0     C55320   6.339   8.108   8.797 -0.2388  0.2547 -0.5354
  420MOL0     C55321   6.265   8.222   8.717  0.1326  0.7444 -1.1037
  420MOL0     C55322   6.131   8.259   8.777  0.5970  0.1680  0.3141
  420MOL0     C55323   6.127   8.359   8.895  0.2594 -0.4480  0.1681
  420MOL0     C55324   6.004   8.321   8.983  0.3946 -0.5873 -0.3781
  420MOL0     N55325   6.005   8.402   9.118  1.0454 -0.3917  0.0404
  420MOL0     C55326   5.894   8.479   9.165 -0.9460  0.1545  0.8420
  420MOL0     C55327   5.936   8.550   9.275 -0.4166  1.1761  0.1962
  420MOL0     C55328   5.861   8.647   9.363 -0.5032 -0.0500 -0.4501
  420MOL0     C55329   5.887   8.615   9.504  0.1236 -1.2898 -0.1006
  420MOL0     C55330   5.783   8.677   9.598 -0.7619  0.2059  0.1587
  420MOL0     C55331   5.639   8.628   9.579  0.1428  0.1532  0.0706
  420MOL0     O55332   5.552   8.705   9.668 -0.4724  0.4621  0.5082
  420MOL0     C55333   5.445   8.641   9.730  0.2001  0.1439  0.5163
  420MOL0     C55334   5.363   8.708   9.818 -0.1087 -0.1010 -0.4458
  420MOL0     C55335   5.250   8.645   9.885 -0.4614 -1.6989  1.5585
  420MOL0     C55336   5.217   8.515   9.852  0.3331 -1.0627 -0.3382
  420MOL0     C55337   5.091   8.456   9.903  0.1747 -0.1839 -0.0211
  420MOL0     O55338   4.993   8.547   9.922  0.7837 -0.1060 -0.0172
  420MOL0     C55339   4.863   8.516   9.956  0.1150  0.0184 -0.0587
  420MOL0     C55340   4.770   8.619   9.935 -0.6848  0.0819  0.0856
  420MOL0     C55341   4.639   8.614   9.970 -1.0754  0.1841 -0.8953
  420MOL0     C55342   4.600   8.505  10.050  0.7130 -0.2902 -0.7867
  420MOL0     O55343   4.468   8.514  10.099 -0.3060 -0.3691 -0.3307
  420MOL0     C55344   4.396   8.408  10.160 -0.7395 -1.0018  0.5979
  420MOL0     C55345   4.246   8.420  10.120 -0.2254  0.9322 -0.7710
  420MOL0     C55346   4.198   8.561  10.130 -0.8786 -0.1703 -0.3585
  420MOL0     C55347   4.054   8.569  10.163 -0.4220 -0.0165 -0.7422
  420MOL0     C55348   4.011   8.725  10.153 -0.7037  0.1275 -0.4672
  420MOL0     C55349   3.864   8.743  10.198  0.4101  0.4260 -0.2045
  420MOL0     C55350   3.824   8.893  10.203 -0.7923 -0.1203  1.0435
  420MOL0     C55351   3.676   8.933  10.229 -0.0347 -0.1808 -0.0844
  420MOL0    Cl55352   3.570   8.895  10.079  0.0038  0.1999 -0.3346
  420MOL0     C55353   4.694   8.401  10.067 -0.2573  0.1217 -0.9179
  420MOL0     C55354   4.822   8.407  10.024 -0.1549  0.1969 -0.3660
  420MOL0     O55355   5.078   8.336   9.915  0.6028 -0.0173  0.1636
  420MOL0     C55356   5.306   8.435   9.783  0.1444 -0.4358  0.6550
  420MOL0     C55357   5.416   8.503   9.711  0.4079  0.0413  0.2974
  420MOL0     N55358   6.067   8.504   9.290 -0.0590  0.4046 -0.2389
  420MOL0     N55359   6.113   8.421   9.199 -0.1003 -0.5240 -0.0601
  420MOL0     C55360   6.877   7.681   8.614  0.0188  0.3203 -0.1149
  420MOL0     C55361   7.009   7.639   8.601  0.0197  0.6663  0.1783
  420MOL0     C55362   7.439   7.619   8.477 -0.6286  0.1203  0.3367
  420MOL0     C55363   7.523   7.611   8.588  0.1017 -0.9951 -0.6003
  420MOL0     C55364   7.656   7.575   8.583 -0.7151 -1.3059 -0.2799
  420MOL0     C55365   7.732   7.543   8.467  0.6403 -0.6360 -0.6007
  420MOL0     O55366   7.867   7.514   8.479 -0.0219  0.5485  0.1602
  420MOL0     C55367   7.946   7.636   8.492  0.5918 -0.7941 -0.3156
  420MOL0     C55368   7.974   7.708   8.366 -0.2099  0.8511  0.2809
  420MOL0     C55369   8.026   7.618   8.252 -0.3850 -0.1509  0.6206
  420MOL0     C55370   8.112   7.682   8.152 -0.6042  0.1032  0.0252
  420MOL0     C55371   8.110   7.616   8.021  0.1849 -1.4911  0.4365
  420MOL0     C55372   8.120   7.559   7.917 -0.1241  0.4679 -0.4245
  420MOL0     C55373   7.650   7.538   8.349 -1.2653 -1.1309 -0.5551
  420MOL0     C55374   7.510   7.583   8.355  0.3671  0.8182 -0.9589
  420MOL0     H55375   7.180   7.929   8.638 -1.7586  3.3261 -4.5388
  420MOL0     H55376   6.946   8.013   8.616  1.2771 -0.0336 -1.5638
  420MOL0     H55377   6.681   8.059   8.586 -2.4788  1.7995  1.1195
  420MOL0     H55378   6.735   8.010   8.750 -2.8468 -0.6215  2.5491
  420MOL0     H55379   6.524   7.909   8.788  3.9547  0.4748  0.9097
  420MOL0     H55380   6.467   7.941   8.620  0.1090 -2.8251  0.9858
  420MOL0     H55381   6.509   8.188   8.671  2.7360 -0.0511  0.9048
  420MOL0     H55382   6.566   8.143   8.822  0.5754  2.4282 -0.7881
  420MOL0     H55383   6.304   8.013   8.754  0.2841  0.6163 -1.8203
  420MOL0     H55384   6.334   8.111   8.906  2.4332 -3.1018 -0.1601
  420MOL0     H55385   6.256   8.181   8.616 -1.8237 -1.6108 -0.0631
  420MOL0     H55386   6.324   8.313   8.705  1.9416 -0.0937  0.8344
  420MOL0     H55387   6.084   8.165   8.808 -0.7721 -0.1122 -2.3336
  420MOL0     H55388   6.062   8.294   8.700 -4.2153 -1.5682  3.3594
  420MOL0     H55389   6.219   8.342   8.951  0.9976  1.7255 -0.3018
  420MOL0     H55390   6.114   8.462   8.862 -2.2149 -0.6851  0.1741
  420MOL0     H55391   6.012   8.215   9.007 -2.5785 -0.2073  3.2357
  420MOL0     H55392   5.910   8.335   8.930  0.3615  1.1945  0.0991
  420MOL0     H55393   5.798   8.487   9.115  0.6745  3.3043 -2.2337
  420MOL0     H55394   5.755   8.630   9.341 -0.4847  1.4986 -1.9576
  420MOL0     H55395   5.881   8.753   9.341 -0.7671 -0.0534 -0.7058
  420MOL0     H55396   5.988   8.648   9.529  0.1900 -0.5453 -1.2634
  420MOL0     H55397   5.907   8.511   9.529  3.4520 -0.3753  1.5997
  420MOL0     H55398   5.819   8.643   9.696 -0.3212  2.3196  0.7720
  420MOL0     H55399   5.783   8.785   9.584 -0.2804  0.0791 -0.9222
  420MOL0     H55400   5.642   8.522   9.605 -1.0906  0.3509  1.1167
  420MOL0     H55401   5.609   8.627   9.474 -0.6033 -2.4372  0.2351
  420MOL0     H55402   5.392   8.812   9.817 -3.4132  0.9693 -2.4367
  420MOL0     H55403   5.184   8.703   9.949 -0.4567  4.2965 -2.9648
  420MOL0     H55404   4.803   8.709   9.883  1.9683  1.9440  4.3930
  420MOL0     H55405   4.573   8.694   9.938 -1.3726  1.8878  3.3206
  420MOL0     H55406   4.401   8.432  10.267 -1.0742  2.2201  0.0110
  420MOL0     H55407   4.436   8.309  10.136  2.0151  0.6641 -2.5780
  420MOL0     H55408   4.186   8.351  10.180  1.5034 -1.1459 -1.3104
  420MOL0     H55409   4.224   8.396  10.015 -0.4131  2.6647 -1.1725
  420MOL0     H55410   4.221   8.617  10.039 -1.0437 -0.9808 -0.9109
  420MOL0     H55411   4.259   8.616  10.203 -0.4399 -0.7381 -0.2893
  420MOL0     H55412   3.988   8.501  10.108 -0.8651 -0.4066  0.2445
  420MOL0     H55413   4.047   8.550  10.271 -0.7269 -0.9338 -0.9181
  420MOL0     H55414   4.021   8.752  10.047  0.1640 -2.7395 -1.2165
  420MOL0     H55415   4.075   8.780  10.222 -0.2708  0.4811 -1.1421
  420MOL0     H55416   3.843   8.707  10.299 -2.1740  0.2355 -0.7431
  420MOL0     H55417   3.806   8.690  10.121 -0.2930  1.7959 -0.6582
  420MOL0     H55418   3.893   8.942  10.273  1.1468 -0.0171 -0.8245
  420MOL0     H55419   3.846   8.948  10.111 -1.6717  0.9624  1.4540
  420MOL0     H55420   3.671   9.038  10.257  0.0908  0.0248 -0.8411
  420MOL0     H55421   3.645   8.881  10.321 -5.2205  1.7607 -0.4190
  420MOL0     H55422   4.663   8.312  10.120 -2.8868  0.9741 -0.8990
  420MOL0     H55423   4.888   8.326  10.052 -0.5990  0.4230  1.4297
  420MOL0     H55424   5.283   8.330   9.767 -1.6504  0.0483 -0.2716
  420MOL0     H55425   5.470   8.431   9.651 -0.7162 -2.0502  1.6670
  420MOL0     H55426   6.790   7.616   8.616 -1.9968  2.8296  3.1327
  420MOL0     H55427   7.017   7.535   8.570 -1.0153  0.4271  0.6767
  420MOL0     H55428   7.481   7.626   8.687  3.4935  2.0972  0.5771
  420MOL0     H55429   7.721   7.578   8.669  0.2205  2.1449 -0.9718
  420MOL0     H55430   8.037   7.607   8.546 -0.4789  1.0115  2.6629
  420MOL0     H55431   7.897   7.702   8.564  1.0904 -0.4595 -0.2789
  420MOL0     H55432   7.873   7.739   8.336 -1.1747  0.2202  2.6645
  420MOL0     H55433   8.044   7.790   8.386 -0.1086  0.8986 -0.2405
  420MOL0     H55434   7.948   7.563   8.198 -0.8313 -1.8558  2.8772
  420MOL0     H55435   8.077   7.538   8.306  2.1675  1.0247  0.0826
  420MOL0     H55436   8.077   7.785   8.156 -0.1535  0.2193  2.6975
  420MOL0     H55437   8.212   7.687   8.196 -1.0877 -1.4315  1.4117
  420MOL0     H55438   8.125   7.506   7.824  2.9838 -3.5246  1.7367
  420MOL0     H55439   7.701   7.513   8.256 -0.7950 -1.0736 -0.3133
  420MOL0     H55440   7.452   7.581   8.263  0.5351 -2.7549 -1.1365
  421MOL0     O55441   5.622   7.548   6.758 -0.0499  0.1794 -0.1818
  421MOL0     C55442   5.582   7.475   6.676 -0.3354  0.2083  0.4622
  421MOL0     O55443   5.469   7.485   6.604 -0.4899  0.3639 -0.4886
  421MOL0     C55444   5.362   7.549   6.656  0.2883  0.7190  0.0889
  421MOL0     C55445   5.249   7.473   6.698 -0.0833 -0.4767 -0.4139
  421MOL0     C55446   5.137   7.538   6.740  0.8634  0.3211  0.0027
  421MOL0     C55447   5.144   7.680   6.758  0.3126  0.3015 -0.7113
  421MOL0     O55448   5.042   7.753   6.809 -0.6003 -0.6222  0.6487
  421MOL0     C55449   4.906   7.698   6.801  0.2811 -1.1526  0.7973
  421MOL0     C55450   4.813   7.811   6.853 -0.3224 -0.0875  0.3089
  421MOL0     C55451   4.666   7.779   6.859  0.1361  0.1151  0.4968
  421MOL0     C55452   4.590   7.889   6.931 -0.7557  0.1321  0.1622
  421MOL0     C55453   4.440   7.878   6.919 -0.0212 -0.5862  0.7967
  421MOL0     C55454   4.371   8.014   6.927  1.6698  0.2552  0.3943
  421MOL0     C55455   4.217   8.002   6.927  0.6349  0.0065 -0.4399
  421MOL0     C55456   4.161   7.994   6.788 -0.3443  0.2935 -0.0521
  421MOL0     N55457   4.016   7.958   6.784  0.9554 -0.0258  1.2477
  421MOL0     C55458   3.921   8.049   6.767 -1.3131  0.7055 -0.5870
  421MOL0     C55459   3.805   7.980   6.777  0.6036 -0.2479 -0.0079
  421MOL0     C55460   3.679   8.069   6.795  0.3043 -0.2532 -0.2424
  421MOL0     C55461   3.653   8.139   6.656  0.4049  0.2100 -0.9905
  421MOL0     C55462   3.553   8.052   6.574  0.2663 -0.1621  0.4081
  421MOL0     C55463   3.524   8.109   6.440 -0.0078  0.2615 -0.4743
  421MOL0     O55464   3.488   7.997   6.360  0.1619 -0.7302 -0.5486
  421MOL0     C55465   3.375   7.932   6.391 -0.2311 -0.1081  0.2967
  421MOL0     C55466   3.257   7.996   6.435 -0.0614  0.0096  0.2216
  421MOL0     C55467   3.136   7.925   6.467 -0.2892 -0.2068 -0.4902
  421MOL0     C55468   3.132   7.784   6.422  0.3402 -0.5327  0.1649
  421MOL0     C55469   3.005   7.700   6.436  0.1652  0.7182  0.2366
  421MOL0     O55470   3.007   7.562   6.410 -0.3671 -0.4607  1.0542
  421MOL0     C55471   2.891   7.483   6.412  0.4236  0.8340 -0.0231
  421MOL0     C55472   2.904   7.347   6.434  0.3900  0.0867 -0.0785
  421MOL0     C55473   2.798   7.256   6.454 -0.6718  0.1178  0.5024
  421MOL0     C55474   2.668   7.295   6.473  0.3963  0.1458  0.1485
  421MOL0     O55475   2.572   7.196   6.506  0.1047 -0.8236 -0.1183
  421MOL0     C55476   2.442   7.226   6.573  0.1546  0.0567  0.8147
  421MOL0     C55477   2.409   7.093   6.640 -0.2013  0.2392 -0.3717
  421MOL0     C55478   2.266   7.097   6.700 -0.0753  0.1679 -0.6219
  421MOL0     C55479   2.217   6.952   6.718  0.5439 -0.2570  0.5742
  421MOL0     C55480   2.095   6.943   6.812  0.1848 -0.4054  0.1555
  421MOL0     C55481   1.983   7.048   6.790 -0.5591  0.3513 -0.0027
  421MOL0     C55482   1.844   6.997   6.829  0.0912  1.1107  1.0457
  421MOL0     C55483   1.774   6.907   6.724  0.2683 -0.3981  0.3744
  421MOL0    Cl55484   1.668   7.013   6.627  0.1867 -0.1861  0.4081
  421MOL0     C55485   2.648   7.429   6.462 -0.4569 -0.2258 -0.3809
  421MOL0     C55486   2.755   7.518   6.413 -0.2469  0.2267 -0.2820
  421MOL0     O55487   2.908   7.760   6.481  0.6527  0.1953 -0.3351
  421MOL0     C55488   3.243   7.722   6.370  0.7516  0.0646 -0.8020
  421MOL0     C55489   3.365   7.800   6.363 -0.7980  1.1051 -0.9742
  421MOL0     N55490   3.835   7.853   6.814 -0.0621  1.0333  0.5668
  421MOL0     N55491   3.959   7.838   6.813  0.9574 -0.5745  1.0831
  421MOL0     C55492   5.262   7.747   6.727  0.3700 -0.0471  0.0995
  421MOL0     C55493   5.366   7.681   6.667 -0.0754 -0.6121  0.1338
  421MOL0     C55494   5.677   7.374   6.625 -0.0504 -0.2615  0.8831
  421MOL0     C55495   5.633   7.288   6.527 -0.0870  0.3653  0.5921
  421MOL0     C55496   5.727   7.194   6.473 -0.1887  0.6494 -0.2285
  421MOL0     C55497   5.856   7.192   6.523  0.5963  0.3261  0.1682
  421MOL0     O55498   5.936   7.093   6.475 -0.5215  0.6519 -0.5104
  421MOL0     C55499   6.076   7.094   6.501  0.2544  0.8372 -0.1714
  421MOL0     C55500   6.142   6.972   6.430  0.0179  0.3298  0.3063
  421MOL0     C55501   6.291   6.950   6.444  0.0497 -0.4291  0.6102
  421MOL0     C55502   6.352   6.846   6.343  0.1864  0.1581 -0.3803
  421MOL0     C55503   6.357   6.914   6.209  0.1956  0.7866 -0.6186
  421MOL0     C55504   6.358   6.965   6.100  0.4813  0.7991 -0.2620
  421MOL0     C55505   5.903   7.287   6.621 -0.2545 -0.5678  0.4352
  421MOL0     C55506   5.811   7.384   6.662  0.1145  0.8817  0.2493
  421MOL0     H55507   5.252   7.364   6.701  1.8907 -0.5313 -1.8233
  421MOL0     H55508   5.057   7.472   6.772  1.7997 -0.4332  0.8285
  421MOL0     H55509   4.893   7.606   6.859 -0.7505 -0.6679  1.3687
  421MOL0     H55510   4.885   7.656   6.702 -3.2935 -1.7549  1.6615
  421MOL0     H55511   4.829   7.901   6.792 -1.1979 -0.6773 -0.8434
  421MOL0     H55512   4.849   7.831   6.954 -0.8595 -0.5784  0.5985
  421MOL0     H55513   4.632   7.684   6.902 -3.3836  2.3799  3.3428
  421MOL0     H55514   4.625   7.776   6.757 -2.3679  2.8874  1.2819
  421MOL0     H55515   4.626   7.877   7.034  2.7355 -0.7202 -0.9928
  421MOL0     H55516   4.630   7.986   6.898  2.7208 -1.1545  0.1645
  421MOL0     H55517   4.399   7.796   6.979 -2.7391 -1.6585 -2.2251
  421MOL0     H55518   4.430   7.842   6.816 -2.8488  0.3545  0.6759
  421MOL0     H55519   4.410   8.080   6.849 -0.7624  1.8604  0.4415
  421MOL0     H55520   4.394   8.057   7.025 -2.4514  0.4297  1.4325
  421MOL0     H55521   4.195   7.907   6.976 -2.8034 -0.6651 -2.8991
  421MOL0     H55522   4.187   8.089   6.987  2.7172  1.1540 -0.9486
  421MOL0     H55523   4.214   7.912   6.739 -0.4667 -0.3220  0.8334
  421MOL0     H55524   4.174   8.092   6.740  0.1238  1.3828  2.1886
  421MOL0     H55525   3.952   8.152   6.747 -0.4208  0.4005 -0.8233
  421MOL0     H55526   3.689   8.133   6.882  1.3929 -1.4953  0.5815
  421MOL0     H55527   3.591   8.006   6.814 -0.5894  0.3268 -2.1496
  421MOL0     H55528   3.746   8.169   6.607 -0.2685  0.8443 -1.9197
  421MOL0     H55529   3.613   8.240   6.670  1.7958  0.8744 -1.5981
  421MOL0     H55530   3.605   7.957   6.559  0.4672  0.1940 -1.3551
  421MOL0     H55531   3.460   8.039   6.630 -0.3645  3.7481  0.5453
  421MOL0     H55532   3.614   8.155   6.399 -0.5780  0.2329 -1.8220
  421MOL0     H55533   3.453   8.193   6.440  2.3898  2.4125 -1.1628
  421MOL0     H55534   3.256   8.098   6.473  0.3643 -0.4496  1.5314
  421MOL0     H55535   3.050   7.973   6.512 -0.8127  0.0641 -1.7288
  421MOL0     H55536   2.999   7.294   6.434  1.2178  1.4115  2.1348
  421MOL0     H55537   2.813   7.149   6.462  1.6386  0.1027 -2.3921
  421MOL0     H55538   2.367   7.249   6.497  2.5685  0.7221 -1.5290
  421MOL0     H55539   2.440   7.306   6.648  0.4232  0.6217  0.2270
  421MOL0     H55540   2.493   7.066   6.705  0.6649  0.0695 -1.5468
  421MOL0     H55541   2.399   7.014   6.565 -0.6376  0.7716 -0.8798
  421MOL0     H55542   2.191   7.155   6.647 -1.7496  1.4541  2.8786
  421MOL0     H55543   2.275   7.160   6.789 -2.2385 -0.9584  0.4506
  421MOL0     H55544   2.204   6.915   6.616  0.0435  1.4130 -0.0077
  421MOL0     H55545   2.304   6.897   6.754 -0.0682 -0.3016  2.0310
  421MOL0     H55546   2.128   6.957   6.915 -1.7663  2.6941  0.4733
  421MOL0     H55547   2.051   6.842   6.813 -2.1300  0.5094  2.5627
  421MOL0     H55548   1.987   7.085   6.687 -2.5867  1.3753  0.2379
  421MOL0     H55549   2.006   7.132   6.856 -1.3158  1.1383 -0.7226
  421MOL0     H55550   1.863   6.935   6.917 -1.7591 -0.1243  0.6211
  421MOL0     H55551   1.777   7.083   6.840 -3.2496 -0.9016 -1.6693
  421MOL0     H55552   1.709   6.839   6.780  0.5104 -2.1248 -1.3734
  421MOL0     H55553   1.845   6.846   6.669 -0.1847 -0.9834  0.4347
  421MOL0     H55554   2.546   7.465   6.469 -0.1785  0.7912 -1.2290
  421MOL0     H55555   2.734   7.624   6.423 -3.3727 -0.0646 -2.2604
  421MOL0     H55556   3.237   7.618   6.337 -1.8642  0.7652 -2.8573
  421MOL0     H55557   3.453   7.755   6.319 -0.7438  0.3528 -0.1054
  421MOL0     H55558   5.277   7.850   6.757  1.3157 -0.6921  2.0482
  421MOL0     H55559   5.449   7.741   6.629 -2.0953  1.2651 -1.5944
  421MOL0     H55560   5.530   7.275   6.496  0.5498  0.1819 -1.5996
  421MOL0     H55561   5.682   7.123   6.405  0.1763  1.2283 -1.0907
  421MOL0     H55562   6.087   7.078   6.609  1.1336 -1.2587 -0.5237
  421MOL0     H55563   6.124   7.189   6.476 -0.0442  1.0444  0.0345
  421MOL0     H55564   6.093   6.882   6.469 -2.1075  1.6293  0.8169
  421MOL0     H55565   6.118   6.987   6.325 -3.0869  0.6855  0.9677
  421MOL0     H55566   6.315   6.915   6.545 -0.4703 -0.2975  0.7843
  421MOL0     H55567   6.333   7.047   6.416 -2.4849  0.0022 -2.2875
  421MOL0     H55568   6.453   6.818   6.373  1.2506  0.9165 -2.9979
  421MOL0     H55569   6.283   6.761   6.341  2.3457 -1.6619 -1.0179
  421MOL0     H55570   6.367   7.019   6.009 -0.9785  0.1882 -0.8108
  421MOL0     H55571   6.002   7.305   6.662  0.8173  1.4057 -2.6370
  421MOL0     H55572   5.835   7.458   6.737 -0.9576 -0.8206  2.3849
  422MOL0     O55573   8.196   0.682   8.484 -0.5961  0.1357 -0.0644
  422MOL0     C55574   8.221   0.759   8.582 -0.3478 -0.1248  0.2394
  422MOL0     O55575   8.150   0.878   8.618 -0.0319 -0.3745  0.4079
  422MOL0     C55576   8.014   0.888   8.581 -0.1203  0.6854 -0.8762
  422MOL0     C55577   7.967   1.012   8.531  0.2751 -0.8065  0.8692
  422MOL0     C55578   7.834   1.037   8.511 -0.7871  0.8421  0.7989
  422MOL0     C55579   7.739   0.931   8.544 -0.0740  0.2731 -0.8699
  422MOL0     O55580   7.599   0.952   8.515  1.0420  0.3122  0.7718
  422MOL0     C55581   7.502   0.846   8.488  0.5507  0.2667 -0.4156
  422MOL0     C55582   7.377   0.899   8.417  0.3825 -0.5323  0.9835
  422MOL0     C55583   7.244   0.842   8.476 -0.2945 -0.5269 -0.7779
  422MOL0     C55584   7.127   0.890   8.383 -0.2291  0.4090  0.0677
  422MOL0     C55585   6.999   0.825   8.436 -0.0340  0.0991  0.5245
  422MOL0     C55586   6.864   0.866   8.374 -0.0587 -0.3515 -0.0911
  422MOL0     C55587   6.804   1.003   8.408  0.2546  0.5183  0.6157
  422MOL0     C55588   6.669   1.008   8.331  0.0366  0.5639 -0.1060
  422MOL0     N55589   6.598   1.134   8.371 -0.1421  0.2646  0.5179
  422MOL0     C55590   6.581   1.253   8.304  0.8659  0.1428  0.7595
  422MOL0     C55591   6.494   1.320   8.378 -0.2032 -0.2332  0.0164
  422MOL0     C55592   6.438   1.451   8.340 -0.2372 -0.4722  0.2262
  422MOL0     C55593   6.323   1.443   8.239 -0.3979  0.4726  0.4549
  422MOL0     C55594   6.201   1.371   8.283  1.0640  0.7732 -0.5807
  422MOL0     C55595   6.090   1.425   8.198  0.5022 -0.2069  0.1271
  422MOL0     O55596   5.971   1.340   8.221 -0.2986  0.3565  0.2486
  422MOL0     C55597   5.869   1.384   8.297 -0.5128 -0.2262  0.4232
  422MOL0     C55598   5.821   1.516   8.285 -0.5324 -0.0001  0.1223
  422MOL0     C55599   5.716   1.547   8.374 -0.1709 -0.1668 -0.8421
  422MOL0     C55600   5.674   1.459   8.481 -0.1359 -0.9143  0.6294
  422MOL0     C55601   5.564   1.499   8.576 -0.4286 -0.2900 -0.0694
  422MOL0     O55602   5.531   1.405   8.671 -0.0578 -0.5781  0.0763
  422MOL0     C55603   5.415   1.398   8.748 -0.0947 -1.2755  0.1167
  422MOL0     C55604   5.298   1.470   8.716 -0.3583  0.5184  0.5524
  422MOL0     C55605   5.183   1.491   8.794  0.4084 -0.7027  0.7064
  422MOL0     C55606   5.187   1.418   8.912  0.4395  0.3829  0.2890
  422MOL0     O55607   5.064   1.423   8.977  0.0252 -0.1523  0.0899
  422MOL0     C55608   5.063   1.403   9.118 -0.3429 -0.3372 -0.2196
  422MOL0     C55609   4.918   1.445   9.163  0.2392  1.0510  0.4465
  422MOL0     C55610   4.812   1.352   9.088  0.2008  0.5806 -0.0441
  422MOL0     C55611   4.670   1.367   9.140  0.0029  0.2439 -0.0629
  422MOL0     C55612   4.597   1.479   9.052 -0.2221  0.1424  0.5922
  422MOL0     C55613   4.451   1.493   9.102  0.5120  0.2016 -0.9416
  422MOL0     C55614   4.353   1.388   9.048  0.4535  0.3872  0.5576
  422MOL0     C55615   4.322   1.380   8.902 -0.0578 -0.2685  0.2395
  422MOL0    Cl55616   4.263   1.542   8.832 -0.3694  0.1617  0.4768
  422MOL0     C55617   5.299   1.349   8.956  0.7715  0.1666  0.1199
  422MOL0     C55618   5.409   1.332   8.868 -0.0401 -0.1070  0.0669
  422MOL0     O55619   5.510   1.607   8.557 -0.4673  0.6911  0.1741
  422MOL0     C55620   5.734   1.337   8.486  0.4567  0.0787 -0.5112
  422MOL0     C55621   5.828   1.302   8.397 -0.5672 -0.5280 -0.2263
  422MOL0     N55622   6.448   1.249   8.482 -0.7082  0.6637  0.3959
  422MOL0     N55623   6.508   1.135   8.472 -0.0653 -0.7252 -0.4211
  422MOL0     C55624   7.779   0.813   8.606 -0.7191 -0.1676  0.9314
  422MOL0     C55625   7.917   0.792   8.618 -0.3568 -0.8790  0.0739
  422MOL0     C55626   8.349   0.743   8.647  0.9415  0.8089 -0.0711
  422MOL0     C55627   8.429   0.634   8.624  0.1266  0.1074  0.4652
  422MOL0     C55628   8.556   0.617   8.677  0.3472 -0.8413 -0.4566
  422MOL0     C55629   8.607   0.725   8.748  0.0566  0.1374  0.8686
  422MOL0     O55630   8.730   0.722   8.814 -0.1722  0.0511  0.3569
  422MOL0     C55631   8.803   0.602   8.837 -0.0661 -0.1472 -0.0677
  422MOL0     C55632   8.892   0.614   8.955 -0.2275 -0.0563  0.3946
  422MOL0     C55633   8.813   0.645   9.083 -0.3819  0.2679  0.0492
  422MOL0     C55634   8.906   0.657   9.208 -0.3765  0.1018 -0.7225
  422MOL0     C55635   8.826   0.699   9.327 -0.1741  1.1081 -0.6165
  422MOL0     C55636   8.767   0.744   9.427 -0.4901  0.0151  0.2612
  422MOL0     C55637   8.528   0.835   8.773  0.1527  0.5187  0.2561
  422MOL0     C55638   8.400   0.844   8.729  0.0111  0.3574  0.6184
  422MOL0     H55639   8.036   1.086   8.491  2.1385 -2.5218  0.7519
  422MOL0     H55640   7.796   1.125   8.461 -1.5641  0.1839  0.2011
  422MOL0     H55641   7.467   0.794   8.577  1.3240  0.2527 -0.1089
  422MOL0     H55642   7.543   0.768   8.423 -1.5646 -0.7349 -0.5998
  422MOL0     H55643   7.366   0.862   8.315 -3.0920  1.7542  0.3831
  422MOL0     H55644   7.375   1.008   8.414  1.0912 -0.5127  1.0041
  422MOL0     H55645   7.230   0.886   8.576 -1.1339 -1.7763 -0.3146
  422MOL0     H55646   7.248   0.732   8.474 -2.2041 -0.6862  0.8435
  422MOL0     H55647   7.122   0.999   8.391 -1.1294  0.3172  0.9555
  422MOL0     H55648   7.143   0.863   8.278  0.5284  1.9327 -0.2327
  422MOL0     H55649   6.988   0.848   8.543 -0.7332 -3.3752  1.3143
  422MOL0     H55650   7.005   0.718   8.417  2.5238  0.0175  1.4496
  422MOL0     H55651   6.786   0.792   8.397 -1.1266  1.8562  4.3810
  422MOL0     H55652   6.862   0.857   8.264 -1.4028 -1.1565 -0.0340
  422MOL0     H55653   6.783   1.006   8.515  1.6625  0.7722  0.9065
  422MOL0     H55654   6.884   1.072   8.378  3.5269 -2.4686  1.7635
  422MOL0     H55655   6.606   0.919   8.333 -1.2258  1.4230 -0.2971
  422MOL0     H55656   6.685   1.014   8.223  3.5973 -0.2583  0.2555
  422MOL0     H55657   6.639   1.290   8.220 -2.8518 -0.9980 -2.6356
  422MOL0     H55658   6.523   1.511   8.305  1.7042 -2.6427  0.9371
  422MOL0     H55659   6.404   1.498   8.433  1.3979 -0.7995  1.0459
  422MOL0     H55660   6.365   1.389   8.154 -3.7075 -0.3199 -0.8514
  422MOL0     H55661   6.302   1.542   8.195  0.1664 -0.7312 -2.7988
  422MOL0     H55662   6.213   1.266   8.254  2.4039  1.0794 -1.1767
  422MOL0     H55663   6.176   1.388   8.389  1.1693 -2.0521 -0.0034
  422MOL0     H55664   6.121   1.421   8.093  2.5775  1.3477  0.6075
  422MOL0     H55665   6.076   1.532   8.212  0.2326  0.2132 -2.7842
  422MOL0     H55666   5.857   1.602   8.229  0.6489 -1.3250 -1.2195
  422MOL0     H55667   5.666   1.643   8.368  0.7589  0.2511 -2.3936
  422MOL0     H55668   5.305   1.521   8.621  0.5536 -1.0243 -0.2426
  422MOL0     H55669   5.096   1.547   8.761  1.0139  0.4892  1.0768
  422MOL0     H55670   5.136   1.470   9.164 -1.0703  0.7047 -0.5413
  422MOL0     H55671   5.080   1.298   9.143 -0.0669 -0.3634 -0.5125
  422MOL0     H55672   4.890   1.548   9.140 -1.4070  0.7665  1.0314
  422MOL0     H55673   4.922   1.447   9.272  0.4618 -0.7228  0.5047
  422MOL0     H55674   4.839   1.249   9.114 -1.0635  0.5020  1.0808
  422MOL0     H55675   4.820   1.363   8.980  0.4506  0.4960 -0.0350
  422MOL0     H55676   4.614   1.273   9.135  1.2919 -0.6052  0.9868
  422MOL0     H55677   4.677   1.397   9.245  1.7502  1.5814 -0.5277
  422MOL0     H55678   4.597   1.456   8.945 -1.8371  0.5706  0.4650
  422MOL0     H55679   4.657   1.570   9.059 -1.3788  1.3411 -3.0434
  422MOL0     H55680   4.417   1.595   9.080 -1.4382 -0.4989 -1.4167
  422MOL0     H55681   4.455   1.482   9.211 -0.5269  1.3721 -0.7550
  422MOL0     H55682   4.373   1.283   9.073 -2.1248 -1.5257 -4.1164
  422MOL0     H55683   4.263   1.423   9.099  1.2137  1.7485  1.0354
  422MOL0     H55684   4.242   1.305   8.889  0.7939 -0.9648 -1.2239
  422MOL0     H55685   4.398   1.325   8.847 -2.1065 -3.1293 -0.0022
  422MOL0     H55686   5.302   1.313   9.058 -0.2625 -0.9721 -0.2289
  422MOL0     H55687   5.490   1.269   8.904 -0.8202 -0.7531  0.7361
  422MOL0     H55688   5.713   1.283   8.578  2.6760  0.3357  0.2236
  422MOL0     H55689   5.878   1.208   8.414  2.2811  0.9742  0.2975
  422MOL0     H55690   7.707   0.736   8.634 -0.4410 -0.7987 -0.0299
  422MOL0     H55691   7.960   0.704   8.666  2.0103 -1.2533 -2.5127
  422MOL0     H55692   8.384   0.564   8.554  0.3687  1.0601 -0.6826
  422MOL0     H55693   8.622   0.538   8.644  2.0629  1.7579 -3.9774
  422MOL0     H55694   8.863   0.569   8.752  0.1290  0.4488 -0.1608
  422MOL0     H55695   8.725   0.527   8.856 -1.2200  1.2955  1.1330
  422MOL0     H55696   8.957   0.526   8.959 -0.5913 -0.3649 -0.2746
  422MOL0     H55697   8.955   0.700   8.931  0.5802 -0.1729  1.9758
  422MOL0     H55698   8.729   0.577   9.102 -2.8631  3.2549  0.6655
  422MOL0     H55699   8.761   0.740   9.065 -0.5405 -0.2107 -2.4198
  422MOL0     H55700   8.954   0.564   9.239  2.7331  1.4505 -1.0662
  422MOL0     H55701   8.978   0.739   9.196 -1.0133  0.8357  0.2673
  422MOL0     H55702   8.736   0.804   9.510  0.1519  3.5292 -1.8153
  422MOL0     H55703   8.557   0.922   8.831 -2.7766  2.2937 -0.7025
  422MOL0     H55704   8.333   0.923   8.762 -0.7426 -0.2465  0.5890
  423MOL0     O55705   8.017   2.346   9.105  1.2451 -1.2057 -0.3788
  423MOL0     C55706   8.088   2.282   9.186 -0.8762  0.3022  0.5392
  423MOL0     O55707   8.048   2.234   9.306 -0.2371 -0.7318  0.3092
  423MOL0     C55708   7.917   2.229   9.349  0.5068 -0.8200  0.4510
  423MOL0     C55709   7.801   2.234   9.269  0.9472  0.4591 -0.3598
  423MOL0     C55710   7.675   2.215   9.337 -0.3525  0.0022 -0.2753
  423MOL0     C55711   7.657   2.206   9.474  0.4599  0.6814  1.1243
  423MOL0     O55712   7.526   2.179   9.514  0.1138 -0.1350  0.0505
  423MOL0     C55713   7.503   2.220   9.646  0.1118 -0.2656 -0.7220
  423MOL0     C55714   7.343   2.205   9.653 -0.7786  0.2228  0.0180
  423MOL0     C55715   7.284   2.077   9.715 -0.8607 -0.2380 -0.3765
  423MOL0     C55716   7.131   2.055   9.672 -0.5688 -0.8817  0.5232
  423MOL0     C55717   7.046   2.172   9.713 -0.3991 -0.2524 -0.0404
  423MOL0     C55718   6.896   2.137   9.669  0.5979 -0.8244 -0.1085
  423MOL0     C55719   6.827   2.276   9.646  0.6842 -0.2295 -1.2852
  423MOL0     C55720   6.703   2.271   9.750 -0.3102  0.4943 -0.0809
  423MOL0     N55721   6.624   2.386   9.702 -0.5901 -0.5444 -0.1151
  423MOL0     C55722   6.499   2.391   9.646 -0.3439 -0.2035 -0.1387
  423MOL0     C55723   6.449   2.517   9.633  0.6939  1.1006  0.5041
  423MOL0     C55724   6.315   2.552   9.571 -0.3959 -0.3735  0.0329
  423MOL0     C55725   6.323   2.557   9.415 -0.7876 -0.5472 -0.2857
  423MOL0     C55726   6.215   2.641   9.340  1.3092  0.0282  0.7777
  423MOL0     C55727   6.077   2.667   9.415 -0.7012 -0.2609 -0.4798
  423MOL0     O55728   5.984   2.734   9.335 -1.6918  0.1938  0.5537
  423MOL0     C55729   5.867   2.781   9.391 -0.2712 -1.2325 -1.0930
  423MOL0     C55730   5.750   2.806   9.321 -0.9049 -0.4931  0.0691
  423MOL0     C55731   5.633   2.867   9.384  0.2657 -0.3132 -0.2032
  423MOL0     C55732   5.626   2.887   9.524 -0.2550 -0.2613  0.2623
  423MOL0     C55733   5.515   2.945   9.589  1.0943 -0.6522 -0.2842
  423MOL0     O55734   5.517   2.967   9.722  0.3450 -0.5314  0.5904
  423MOL0     C55735   5.409   3.032   9.792 -0.8030 -0.1981  0.6153
  423MOL0     C55736   5.324   3.128   9.737  0.3548 -0.7016  0.4409
  423MOL0     C55737   5.216   3.179   9.812 -0.4531  0.5774  0.9341
  423MOL0     C55738   5.195   3.139   9.943  0.4397 -0.2793  0.2772
  423MOL0     O55739   5.086   3.189  10.006  0.1895  0.0387  0.8234
  423MOL0     C55740   5.020   3.093  10.091  0.6432  0.6075  0.3651
  423MOL0     C55741   4.879   3.142  10.114 -0.4176  0.0595  0.7083
  423MOL0     C55742   4.865   3.263  10.201 -0.5247 -0.2051  0.0419
  423MOL0     C55743   4.712   3.276  10.212 -0.6353  0.1030 -0.1238
  423MOL0     C55744   4.671   3.393  10.312  0.2289 -0.8100 -0.4123
  423MOL0     C55745   4.526   3.418  10.330 -0.1689  0.4308  0.1805
  423MOL0     C55746   4.492   3.553  10.398  0.2670  0.5414  0.3117
  423MOL0     C55747   4.348   3.547  10.437 -0.3846  0.2062  0.1925
  423MOL0    Cl55748   4.251   3.527  10.294 -0.2943 -0.1896  0.7061
  423MOL0     C55749   5.289   3.056  10.002  0.8920  0.2302  0.2448
  423MOL0     C55750   5.392   3.003   9.930  0.6793 -0.8033  0.3044
  423MOL0     O55751   5.416   2.956   9.515  0.5664  0.0056  0.1371
  423MOL0     C55752   5.731   2.840   9.591  0.5771 -0.5517  0.8038
  423MOL0     C55753   5.847   2.799   9.534 -0.1539  0.1808  0.0441
  423MOL0     N55754   6.552   2.593   9.670  0.4695  0.0027 -0.9913
  423MOL0     N55755   6.652   2.519   9.721  0.0543  0.1907 -0.0980
  423MOL0     C55756   7.776   2.200   9.544  0.1480  0.4137  0.3910
  423MOL0     C55757   7.901   2.221   9.485 -0.9131 -1.2573  0.4559
  423MOL0     C55758   8.237   2.278   9.171 -0.0553  0.7412 -0.1112
  423MOL0     C55759   8.325   2.212   9.256 -0.5833  0.4853  0.5874
  423MOL0     C55760   8.461   2.205   9.225 -0.3157 -0.3193 -0.0056
  423MOL0     C55761   8.526   2.266   9.118 -0.1490  0.3495  0.0843
  423MOL0     O55762   8.659   2.265   9.090 -0.2655 -0.0262  0.0862
  423MOL0     C55763   8.755   2.296   9.195  0.1946 -0.6111  0.1110
  423MOL0     C55764   8.901   2.306   9.149 -0.5255 -0.4686 -0.1155
  423MOL0     C55765   8.918   2.394   9.025  0.3107 -0.0065 -0.5021
  423MOL0     C55766   8.891   2.547   9.054 -0.0462  0.2260 -0.1236
  423MOL0     C55767   8.958   2.622   8.953  0.2202  0.0918  1.5670
  423MOL0     C55768   9.019   2.676   8.862  0.1351 -0.3539 -0.7912
  423MOL0     C55769   8.440   2.335   9.040  0.9856 -0.0762  0.8213
  423MOL0     C55770   8.297   2.343   9.064  0.0942 -0.4135 -0.4583
  423MOL0     H55771   7.799   2.242   9.161 -2.3367  2.1434 -0.2750
  423MOL0     H55772   7.587   2.201   9.274 -1.0644  0.5340  0.5789
  423MOL0     H55773   7.537   2.318   9.680 -1.9750 -1.1089  4.8109
  423MOL0     H55774   7.535   2.148   9.722 -0.4730  0.9177  0.7020
  423MOL0     H55775   7.306   2.215   9.550 -0.1230 -0.2667 -0.2698
  423MOL0     H55776   7.306   2.298   9.699 -1.9083  1.1274 -2.5275
  423MOL0     H55777   7.284   2.095   9.823  1.8059 -0.0888 -0.3464
  423MOL0     H55778   7.343   1.986   9.700 -2.4013 -1.1533 -1.1337
  423MOL0     H55779   7.128   2.035   9.564 -0.0321  0.5155  0.2391
  423MOL0     H55780   7.090   1.971   9.730 -3.0823  0.3834  0.6848
  423MOL0     H55781   7.078   2.261   9.659 -2.5741  0.5152 -0.1410
  423MOL0     H55782   7.052   2.181   9.822 -0.9710 -4.4438  0.5359
  423MOL0     H55783   6.855   2.086   9.757 -0.0712  2.4462  1.6132
  423MOL0     H55784   6.898   2.068   9.584  1.3292 -0.9385 -0.0095
  423MOL0     H55785   6.898   2.354   9.674  0.9182 -0.2959 -1.6909
  423MOL0     H55786   6.802   2.292   9.541  0.2412  1.2918 -0.9740
  423MOL0     H55787   6.745   2.278   9.851  1.7762 -0.9422 -0.7743
  423MOL0     H55788   6.639   2.184   9.738  0.1988  0.1775 -0.5599
  423MOL0     H55789   6.446   2.301   9.614 -0.4002  0.2713 -1.4185
  423MOL0     H55790   6.293   2.652   9.611  2.4198 -0.4218  1.9426
  423MOL0     H55791   6.239   2.477   9.595 -0.3308 -0.9922 -1.5538
  423MOL0     H55792   6.326   2.454   9.379  0.8260 -1.8439  3.1336
  423MOL0     H55793   6.421   2.600   9.393 -0.1982 -1.9231 -0.4064
  423MOL0     H55794   6.255   2.741   9.318 -0.8817  0.8915  0.5009
  423MOL0     H55795   6.198   2.579   9.252  1.7038  1.7456 -0.5656
  423MOL0     H55796   6.111   2.736   9.492 -1.7877  0.8187 -0.9318
  423MOL0     H55797   6.041   2.572   9.456  2.7238 -0.7206  1.8392
  423MOL0     H55798   5.742   2.791   9.214  1.0392  0.0847 -0.2097
  423MOL0     H55799   5.547   2.889   9.321 -0.6779  0.4819  1.3024
  423MOL0     H55800   5.352   3.163   9.638  2.2484 -1.4269  0.6748
  423MOL0     H55801   5.154   3.257   9.770 -0.2439  0.4945  0.4638
  423MOL0     H55802   5.068   3.077  10.187  1.0047 -0.4558  0.0182
  423MOL0     H55803   5.007   3.003  10.031  0.3585  0.7916  0.1472
  423MOL0     H55804   4.811   3.063  10.146 -0.0040  0.4771  2.7284
  423MOL0     H55805   4.846   3.167  10.013 -0.6207 -1.5655  0.3450
  423MOL0     H55806   4.910   3.352  10.155  2.7817  0.2051  3.4912
  423MOL0     H55807   4.906   3.236  10.299 -2.1770 -0.8294  0.5834
  423MOL0     H55808   4.662   3.303  10.119  1.2011  3.0487 -0.3655
  423MOL0     H55809   4.669   3.183  10.251 -0.4457  0.5143  1.1324
  423MOL0     H55810   4.710   3.486  10.270  0.4487  0.2316  1.9181
  423MOL0     H55811   4.710   3.382  10.414 -1.9537  0.5405  0.6178
  423MOL0     H55812   4.471   3.337  10.378 -1.6153  0.8419 -0.7139
  423MOL0     H55813   4.485   3.415  10.229  0.1857  1.5201 -0.0060
  423MOL0     H55814   4.548   3.556  10.492 -0.3112 -1.2365  0.7535
  423MOL0     H55815   4.517   3.642  10.340  0.2474  0.9514  0.9207
  423MOL0     H55816   4.301   3.637  10.479 -2.3281 -0.4425 -0.4644
  423MOL0     H55817   4.343   3.470  10.515 -1.0777  1.7485  1.7189
  423MOL0     H55818   5.272   3.020  10.103  2.4534  0.9753  0.8150
  423MOL0     H55819   5.446   2.919   9.974  0.1393 -0.5137  1.5494
  423MOL0     H55820   5.724   2.845   9.699 -1.4297  1.0405  0.6593
  423MOL0     H55821   5.927   2.787   9.607 -0.9233 -0.7446  0.7464
  423MOL0     H55822   7.764   2.183   9.651  0.1225 -0.8363  0.2098
  423MOL0     H55823   7.988   2.233   9.550 -1.6494  0.8565  1.1387
  423MOL0     H55824   8.275   2.159   9.337  0.2032 -1.8288 -0.3479
  423MOL0     H55825   8.528   2.144   9.285 -0.5189 -1.5304 -0.9470
  423MOL0     H55826   8.750   2.221   9.274  1.0057 -2.1341 -1.2089
  423MOL0     H55827   8.721   2.384   9.250 -2.6192 -0.5093 -1.6366
  423MOL0     H55828   8.961   2.344   9.232 -1.6771 -0.8065  0.8966
  423MOL0     H55829   8.939   2.209   9.115 -0.6615 -1.2984  1.9608
  423MOL0     H55830   8.851   2.362   8.945  1.2562 -1.4269 -0.7637
  423MOL0     H55831   9.018   2.387   8.980 -0.5724  2.1863 -3.1016
  423MOL0     H55832   8.785   2.574   9.057 -0.7167 -2.2989  2.0104
  423MOL0     H55833   8.937   2.570   9.151  2.5816 -0.8603 -1.0270
  423MOL0     H55834   9.079   2.706   8.779 -0.5734  0.6020 -0.9826
  423MOL0     H55835   8.482   2.391   8.957  0.6762  1.8687  1.9305
  423MOL0     H55836   8.230   2.405   9.006 -0.4982  0.0514  0.6815
  424MOL0     O55837  10.990   9.611   8.755 -0.3025 -0.1804 -0.4362
  424MOL0     C55838  11.067   9.711   8.772 -1.2749  0.9932  0.2274
  424MOL0     O55839  11.036   9.823   8.834  0.2451 -0.1342 -0.3046
  424MOL0     C55840  10.912   9.837   8.900  0.6008  0.6264  0.5158
  424MOL0     C55841  10.912   9.910   9.025  0.5121  0.9112 -0.3478
  424MOL0     C55842  10.787   9.937   9.084  0.8837 -0.4077  0.2945
  424MOL0     C55843  10.665   9.893   9.015  0.1772  0.1794 -0.1300
  424MOL0     O55844  10.543   9.922   9.074  0.0640  0.1486  0.7037
  424MOL0     C55845  10.437   9.831   9.066 -0.3824 -0.1497  0.0870
  424MOL0     C55846  10.339   9.873   8.966  0.6543 -0.3434 -0.3451
  424MOL0     C55847  10.218   9.786   8.945 -0.3776 -0.5117  0.1516
  424MOL0     C55848  10.116   9.843   8.831  0.4995  0.5407 -0.0926
  424MOL0     C55849   9.999   9.745   8.814 -0.1639 -0.1583 -0.1333
  424MOL0     C55850   9.914   9.710   8.935 -0.3815  0.1656 -0.5050
  424MOL0     C55851   9.781   9.655   8.889 -0.7102  0.0161  0.3367
  424MOL0     C55852   9.692   9.662   9.012  0.3730  0.9335  0.2096
  424MOL0     N55853   9.567   9.623   8.948  0.1776  0.2716 -0.3934
  424MOL0     C55854   9.526   9.497   8.891  0.0437 -0.5265 -1.8048
  424MOL0     C55855   9.403   9.521   8.859  0.0971  0.3542  0.0899
  424MOL0     C55856   9.310   9.429   8.776  0.8379  0.1830 -0.3866
  424MOL0     C55857   9.373   9.383   8.647 -0.2024 -0.1387  0.2984
  424MOL0     C55858   9.401   9.503   8.546 -0.4663 -0.4344  0.4793
  424MOL0     C55859   9.495   9.465   8.430  0.3356  0.4416 -0.6907
  424MOL0     O55860   9.499   9.570   8.328  0.1742  0.4517 -0.3277
  424MOL0     C55861   9.621   9.643   8.344  0.3046  0.4293 -0.1811
  424MOL0     C55862   9.743   9.588   8.315  0.1576 -0.0634 -0.2548
  424MOL0     C55863   9.862   9.670   8.327  1.1955  0.2149 -0.6511
  424MOL0     C55864   9.848   9.815   8.346  0.0714  0.7510  0.6900
  424MOL0     C55865   9.966   9.902   8.360  0.2269 -0.6863  0.0452
  424MOL0     O55866  10.088   9.847   8.383 -0.3158 -0.0395 -0.2151
  424MOL0     C55867  10.208   9.923   8.377 -0.1348 -0.0966  0.5111
  424MOL0     C55868  10.308   9.892   8.473  0.4511  0.1218  0.6889
  424MOL0     C55869  10.430   9.956   8.469  0.7406  0.3767  0.1896
  424MOL0     C55870  10.456  10.064   8.381 -0.7173  0.2740  0.4778
  424MOL0     O55871  10.586  10.123   8.391  0.0657 -0.7801 -0.6531
  424MOL0     C55872  10.630  10.175   8.260  0.2176  0.1522 -0.7593
  424MOL0     C55873  10.779  10.195   8.258  0.2245  0.5888 -0.0719
  424MOL0     C55874  10.825  10.306   8.349 -0.4850 -0.4365  0.1200
  424MOL0     C55875  10.975  10.306   8.358 -1.0377 -0.2476 -0.4650
  424MOL0     C55876  11.023  10.439   8.420 -0.3780  0.0109 -0.6236
  424MOL0     C55877  11.032  10.568   8.339 -0.5746  0.1489  0.5565
  424MOL0     C55878  11.160  10.554   8.240  0.0481 -0.1234 -0.3009
  424MOL0     C55879  11.203  10.696   8.197 -0.3346  0.0129  0.1982
  424MOL0    Cl55880  11.342  10.658   8.093  0.0777  0.0430  0.1773
  424MOL0     C55881  10.349  10.103   8.286 -0.4891  0.1679  0.0695
  424MOL0     C55882  10.221  10.031   8.290 -0.1808  0.6442  0.0010
  424MOL0     O55883   9.951  10.031   8.354  0.1545 -0.0685 -0.0247
  424MOL0     C55884   9.721   9.861   8.359  0.6384  0.2079  0.2318
  424MOL0     C55885   9.611   9.783   8.371  0.3677  0.0628  0.4800
  424MOL0     N55886   9.363   9.647   8.895 -0.2442 -0.5622  0.2054
  424MOL0     N55887   9.469   9.710   8.947  0.0065 -0.2687  0.2076
  424MOL0     C55888  10.677   9.824   8.892  0.8003 -0.0704 -0.4889
  424MOL0     C55889  10.797   9.796   8.843 -0.1687 -0.3113  0.2771
  424MOL0     C55890  11.213   9.691   8.742  0.0318  0.5592  0.6861
  424MOL0     C55891  11.297   9.804   8.725  0.1127  0.5119 -0.2730
  424MOL0     C55892  11.429   9.792   8.699 -0.4316 -0.1487  0.0935
  424MOL0     C55893  11.491   9.666   8.675  0.2409  0.3426 -1.1215
  424MOL0     O55894  11.622   9.663   8.628  0.0175  0.4100 -0.0768
  424MOL0     C55895  11.691   9.530   8.623  1.1779 -0.2512 -0.1511
  424MOL0     C55896  11.842   9.546   8.665  0.5152  0.4201  0.8900
  424MOL0     C55897  11.903   9.638   8.555 -0.2927  0.1619  0.2901
  424MOL0     C55898  12.044   9.697   8.579 -0.6682  0.3524  0.4843
  424MOL0     C55899  12.153   9.616   8.521  0.0300  0.2719  0.2553
  424MOL0     C55900  12.232   9.541   8.470  0.5543  0.3973 -0.5349
  424MOL0     C55901  11.400   9.559   8.685  0.4067  0.0624 -0.1165
  424MOL0     C55902  11.271   9.564   8.717 -0.3837  0.1698 -0.1839
  424MOL0     H55903  11.002   9.943   9.076 -0.3278  0.4110  1.5197
  424MOL0     H55904  10.773   9.982   9.182 -2.8253 -0.3337 -0.1286
  424MOL0     H55905  10.386   9.824   9.162  0.6414  2.9520  0.9462
  424MOL0     H55906  10.479   9.733   9.040 -0.3790 -0.2201  0.3613
  424MOL0     H55907  10.398   9.888   8.875 -0.0437  0.0806 -0.7324
  424MOL0     H55908  10.298   9.972   8.985 -0.9661 -0.6533 -1.9657
  424MOL0     H55909  10.182   9.766   9.046  0.4941  1.4841  0.8948
  424MOL0     H55910  10.252   9.690   8.904  1.0259  0.2770 -0.6179
  424MOL0     H55911  10.086   9.945   8.855  1.4632  0.8902 -0.3125
  424MOL0     H55912  10.171   9.836   8.737 -0.5160 -3.7685 -0.5434
  424MOL0     H55913  10.037   9.657   8.762  0.2985 -0.0734  0.0493
  424MOL0     H55914   9.933   9.789   8.738  2.7542 -0.5761 -3.1643
  424MOL0     H55915   9.894   9.800   8.993 -5.0427 -1.4755  0.8897
  424MOL0     H55916   9.974   9.634   8.985 -0.7773  0.5886  0.6421
  424MOL0     H55917   9.741   9.723   8.813 -1.3401  0.4031  1.0075
  424MOL0     H55918   9.785   9.555   8.844 -2.2342  1.0120 -2.2391
  424MOL0     H55919   9.699   9.757   9.064 -0.2971 -0.2186  2.5301
  424MOL0     H55920   9.725   9.584   9.082  1.3817  2.1828  1.1610
  424MOL0     H55921   9.581   9.403   8.882  1.2185  0.0098 -0.5231
  424MOL0     H55922   9.215   9.480   8.758  0.4044 -0.8942 -1.2110
  424MOL0     H55923   9.278   9.339   8.829 -0.3711  1.4273  1.1059
  424MOL0     H55924   9.302   9.307   8.612 -0.7688  0.2451  0.5932
  424MOL0     H55925   9.466   9.331   8.671 -0.3365 -0.7074 -0.3724
  424MOL0     H55926   9.308   9.532   8.496  1.3087  1.9120 -1.7628
  424MOL0     H55927   9.447   9.595   8.584  0.8065 -0.1005 -1.6517
  424MOL0     H55928   9.442   9.379   8.387 -0.3491  0.1886  0.6038
  424MOL0     H55929   9.592   9.434   8.470  0.3733 -1.5114 -2.1627
  424MOL0     H55930   9.744   9.485   8.278 -2.5213  0.4273 -1.9576
  424MOL0     H55931   9.950   9.606   8.320  0.3604 -0.8010 -3.3938
  424MOL0     H55932  10.298   9.810   8.543  3.8543 -3.0947 -2.1339
  424MOL0     H55933  10.513   9.926   8.533  2.4359 -0.8664 -2.4164
  424MOL0     H55934  10.575  10.269   8.252 -2.2349 -1.0339  0.7962
  424MOL0     H55935  10.603  10.104   8.181 -1.7133 -1.2415  1.0494
  424MOL0     H55936  10.811  10.214   8.155 -0.4686 -4.8390 -1.5962
  424MOL0     H55937  10.815  10.096   8.290 -1.3251 -0.2451 -0.8014
  424MOL0     H55938  10.780  10.313   8.448  0.9578  2.4824  0.6732
  424MOL0     H55939  10.799  10.407   8.317 -2.0191 -1.4426 -1.9880
  424MOL0     H55940  11.017  10.222   8.414  1.9368  1.2643 -0.2163
  424MOL0     H55941  11.029  10.306   8.263  0.4841  1.7118  0.3363
  424MOL0     H55942  11.123  10.424   8.462 -1.6641 -1.7979  1.9998
  424MOL0     H55943  10.949  10.452   8.498 -0.2169 -1.0570 -0.2781
  424MOL0     H55944  11.058  10.643   8.414  0.7424  0.7474 -0.4530
  424MOL0     H55945  10.941  10.587   8.281  0.9468 -2.4177 -3.0939
  424MOL0     H55946  11.237  10.501   8.298 -0.3832  0.8357  1.2113
  424MOL0     H55947  11.140  10.489   8.154 -1.0275  1.4444 -1.2900
  424MOL0     H55948  11.218  10.769   8.276  1.4646  1.7588 -1.6399
  424MOL0     H55949  11.117  10.745   8.151 -2.0583  0.1240  3.2669
  424MOL0     H55950  10.364  10.180   8.211  1.9465  2.7482  2.9250
  424MOL0     H55951  10.145  10.071   8.223 -0.7082  0.3190  0.3995
  424MOL0     H55952   9.712   9.968   8.373 -0.4956  0.3096 -1.0306
  424MOL0     H55953   9.514   9.830   8.384  0.3647  0.6134 -1.2505
  424MOL0     H55954  10.591   9.807   8.827 -0.4311 -0.6037  1.2029
  424MOL0     H55955  10.796   9.757   8.742  0.0671 -0.0195  0.1602
  424MOL0     H55956  11.262   9.902   8.755  0.4647  0.7237 -0.5385
  424MOL0     H55957  11.479   9.887   8.680 -0.6268 -0.0561  0.0391
  424MOL0     H55958  11.682   9.480   8.526  1.5742  0.0736 -0.3622
  424MOL0     H55959  11.648   9.461   8.696  0.4696 -2.3749 -2.4114
  424MOL0     H55960  11.850   9.585   8.767  1.5869 -0.5021  1.1774
  424MOL0     H55961  11.881   9.444   8.662 -0.7010 -0.0523  0.2801
  424MOL0     H55962  11.849   9.733   8.564 -1.8203 -0.7409  1.1008
  424MOL0     H55963  11.889   9.585   8.461 -2.4154  1.1299 -0.0062
  424MOL0     H55964  12.044   9.796   8.533  1.9717 -0.9559 -2.7093
  424MOL0     H55965  12.063   9.705   8.687 -0.3210 -2.2378  0.6767
  424MOL0     H55966  12.295   9.467   8.426 -0.6208 -0.0861 -1.4515
  424MOL0     H55967  11.437   9.458   8.671  0.0388  0.2195 -2.6821
  424MOL0     H55968  11.209   9.475   8.714 -3.3251  2.0966 -1.0185
  425MOL0     O55969   1.929   1.153   8.307 -0.0960  0.3728 -0.2291
  425MOL0     C55970   1.959   1.109   8.418  0.2587  0.1106  0.1798
  425MOL0     O55971   1.870   1.044   8.502  0.1453  0.3342  1.3002
  425MOL0     C55972   1.746   1.009   8.460  0.5191 -0.5988  0.0099
  425MOL0     C55973   1.659   1.084   8.383  0.5624  0.0811  0.1641
  425MOL0     C55974   1.530   1.040   8.357  0.5705  0.3935 -1.2987
  425MOL0     C55975   1.488   0.918   8.416  0.7063  0.1805 -0.0117
  425MOL0     O55976   1.367   0.865   8.391 -0.6142  0.1856 -0.0940
  425MOL0     C55977   1.267   0.942   8.314 -0.4520  0.5043  0.3397
  425MOL0     C55978   1.147   0.859   8.302  0.1018  0.3184 -0.5137
  425MOL0     C55979   1.160   0.723   8.236 -0.3333  0.3381  0.5758
  425MOL0     C55980   1.016   0.669   8.209  0.8579  0.7023  0.0970
  425MOL0     C55981   0.963   0.586   8.325 -0.0470 -0.1106 -1.0086
  425MOL0     C55982   0.828   0.514   8.286  0.3050 -0.2318  0.5158
  425MOL0     C55983   0.724   0.493   8.403  0.0191  1.0281  0.5723
  425MOL0     C55984   0.758   0.367   8.477 -0.2917  1.2238 -0.2444
  425MOL0     N55985   0.711   0.346   8.616  0.2342  0.6987  1.2603
  425MOL0     C55986   0.790   0.353   8.731 -0.4935  1.1101  0.1923
  425MOL0     C55987   0.714   0.309   8.836 -0.0980 -0.7642  0.1076
  425MOL0     C55988   0.753   0.273   8.982 -0.6444 -0.2553  0.7118
  425MOL0     C55989   0.840   0.377   9.053 -0.5223 -0.2848  0.5662
  425MOL0     C55990   0.857   0.345   9.202 -0.0672 -0.9804  0.6004
  425MOL0     C55991   0.974   0.434   9.268  0.4035 -0.4914  0.2913
  425MOL0     O55992   0.993   0.564   9.224  0.7661 -0.1828 -0.1072
  425MOL0     C55993   1.101   0.637   9.267  0.0782  0.1745 -0.6928
  425MOL0     C55994   1.190   0.600   9.366  0.4892  1.1542  0.7834
  425MOL0     C55995   1.308   0.665   9.377  0.3884  0.1997 -0.3740
  425MOL0     C55996   1.325   0.789   9.314 -0.2881 -0.9009  0.0497
  425MOL0     C55997   1.446   0.873   9.345 -0.5832 -0.2261  0.3143
  425MOL0     O55998   1.545   0.817   9.423  1.1145  0.5176 -0.1657
  425MOL0     C55999   1.672   0.865   9.425  1.0103  0.2008 -0.0768
  425MOL0     C56000   1.745   0.831   9.535 -0.7965 -0.2019  0.0277
  425MOL0     C56001   1.876   0.874   9.548  0.7191  0.0479 -1.0856
  425MOL0     C56002   1.932   0.955   9.456  2.0961  0.5620  0.9987
  425MOL0     O56003   2.056   1.016   9.467 -0.4710  0.5158  0.0478
  425MOL0     C56004   2.115   1.029   9.593 -0.2906  0.4350 -0.0799
  425MOL0     C56005   2.248   1.116   9.571 -0.4389  0.2572 -0.0860
  425MOL0     C56006   2.359   1.022   9.517 -0.3369 -0.2056 -0.3688
  425MOL0     C56007   2.498   1.074   9.564 -0.0315 -0.4530  0.4162
  425MOL0     C56008   2.606   0.968   9.557 -1.6803 -0.0462 -0.9843
  425MOL0     C56009   2.752   1.019   9.532  0.7294 -0.8655  0.7521
  425MOL0     C56010   2.852   0.911   9.565 -0.4323 -0.0922 -0.1119
  425MOL0     C56011   2.975   0.934   9.488 -0.6000  0.1241  0.1184
  425MOL0    Cl56012   3.054   1.068   9.562 -0.0637 -0.0757 -0.2795
  425MOL0     C56013   1.854   0.983   9.344 -0.7473  0.3674  1.1101
  425MOL0     C56014   1.728   0.930   9.317  0.0981  0.3484  0.4002
  425MOL0     O56015   1.446   0.982   9.295 -0.8106 -0.2455  0.5138
  425MOL0     C56016   1.243   0.824   9.212 -0.5884 -0.5044 -0.8965
  425MOL0     C56017   1.128   0.750   9.192 -0.6168  0.2674  0.1698
  425MOL0     N56018   0.588   0.294   8.785  0.0962 -0.4170  0.8435
  425MOL0     N56019   0.594   0.314   8.654  0.6163  0.4235  0.3892
  425MOL0     C56020   1.579   0.833   8.473 -0.6435 -0.0523  0.0542
  425MOL0     C56021   1.706   0.886   8.504 -0.5036  0.1009  0.1289
  425MOL0     C56022   2.085   1.143   8.480  0.8611 -0.4158  1.2863
  425MOL0     C56023   2.106   1.099   8.612  0.1424 -0.0535  0.2685
  425MOL0     C56024   2.231   1.132   8.669 -0.4478 -0.1770 -0.7945
  425MOL0     C56025   2.331   1.213   8.600  0.1446 -0.2094  0.7862
  425MOL0     O56026   2.451   1.239   8.673  0.3456 -0.2020  0.4445
  425MOL0     C56027   2.548   1.319   8.607 -0.8380  0.2002  0.1096
  425MOL0     C56028   2.626   1.228   8.526 -0.0546  0.1824  0.4938
  425MOL0     C56029   2.706   1.115   8.598  0.5844 -0.4341 -0.5371
  425MOL0     C56030   2.818   1.160   8.693 -0.0533 -0.0999 -0.4286
  425MOL0     C56031   2.914   1.271   8.651 -1.0970 -0.8185  0.1203
  425MOL0     C56032   2.988   1.359   8.623 -0.4162  0.4906  0.1071
  425MOL0     C56033   2.287   1.256   8.474  0.1453 -0.4694 -0.6725
  425MOL0     C56034   2.167   1.221   8.413  0.5556  0.2889  0.0356
  425MOL0     H56035   1.684   1.183   8.346  0.9572 -0.6747 -1.7009
  425MOL0     H56036   1.454   1.102   8.309  0.6071  0.1155 -1.7201
  425MOL0     H56037   1.304   0.954   8.212  0.0204  0.1127  0.4667
  425MOL0     H56038   1.240   1.043   8.348 -2.2154  0.2709 -0.2686
  425MOL0     H56039   1.064   0.910   8.253 -1.9467 -0.8628  1.5049
  425MOL0     H56040   1.109   0.848   8.404  0.5219  0.6433 -0.3194
  425MOL0     H56041   1.215   0.656   8.302  1.7373 -0.6691 -1.9977
  425MOL0     H56042   1.218   0.720   8.143 -2.7788 -0.6844 -1.0074
  425MOL0     H56043   0.943   0.746   8.184  1.0401 -0.0473 -3.1178
  425MOL0     H56044   1.028   0.603   8.124  1.4111 -0.6771  1.2076
  425MOL0     H56045   0.943   0.655   8.408 -1.4709 -1.5024 -0.1260
  425MOL0     H56046   1.031   0.508   8.360 -2.4053 -1.5607  0.6788
  425MOL0     H56047   0.859   0.417   8.248  2.0352 -0.6080  2.6870
  425MOL0     H56048   0.775   0.563   8.204 -1.6519 -1.0042  1.2520
  425MOL0     H56049   0.715   0.576   8.473  4.4068  0.9832  1.4867
  425MOL0     H56050   0.627   0.480   8.354  0.3874 -0.6178  0.2373
  425MOL0     H56051   0.868   0.364   8.484 -0.3823 -1.7668  2.3073
  425MOL0     H56052   0.735   0.277   8.418 -0.0596  1.1468 -0.2193
  425MOL0     H56053   0.896   0.371   8.737 -0.0114 -0.4375 -2.2036
  425MOL0     H56054   0.814   0.183   8.975 -0.4549 -0.0143 -1.4991
  425MOL0     H56055   0.667   0.255   9.046  1.2279  1.4184  3.9951
  425MOL0     H56056   0.796   0.477   9.040  0.0894 -0.2281 -1.3341
  425MOL0     H56057   0.932   0.380   8.993  0.3996 -3.0450  1.6810
  425MOL0     H56058   0.760   0.370   9.247 -0.7219 -2.0948 -0.1703
  425MOL0     H56059   0.892   0.243   9.218  2.1096 -0.4898 -0.5664
  425MOL0     H56060   1.063   0.369   9.276  0.0974 -0.9078  0.3649
  425MOL0     H56061   0.937   0.448   9.370 -0.3818 -0.5403  0.0199
  425MOL0     H56062   1.161   0.520   9.434 -1.5286  1.8108  0.7843
  425MOL0     H56063   1.375   0.620   9.450  0.3910 -1.6864 -1.4858
  425MOL0     H56064   1.710   0.779   9.624 -1.4393  2.6267  1.5568
  425MOL0     H56065   1.924   0.849   9.643 -0.3509  1.8497 -0.0174
  425MOL0     H56066   2.138   0.927   9.625  0.1660 -0.0109 -1.7338
  425MOL0     H56067   2.042   1.076   9.660 -0.0124 -0.4136  0.8399
  425MOL0     H56068   2.276   1.165   9.664 -0.8762  1.2540 -0.4541
  425MOL0     H56069   2.237   1.191   9.492 -2.8713 -0.0945 -0.1535
  425MOL0     H56070   2.362   0.995   9.411 -2.4791 -1.3547 -0.1900
  425MOL0     H56071   2.340   0.929   9.570 -3.7514  0.7312  0.2956
  425MOL0     H56072   2.532   1.156   9.500 -0.2502  0.0191  0.8936
  425MOL0     H56073   2.495   1.115   9.666 -2.1147 -2.5957  1.3068
  425MOL0     H56074   2.587   0.893   9.479  0.6305 -0.6983 -0.9788
  425MOL0     H56075   2.597   0.909   9.649 -0.1814 -0.8503 -1.3232
  425MOL0     H56076   2.767   1.106   9.597  1.2751 -0.7666  0.4931
  425MOL0     H56077   2.746   1.041   9.426 -3.7184  1.5497  1.2409
  425MOL0     H56078   2.867   0.911   9.674  2.1390 -1.7890 -0.3990
  425MOL0     H56079   2.809   0.815   9.538  3.0355 -2.3427  1.6579
  425MOL0     H56080   2.964   0.967   9.384  0.9118 -0.4628 -0.2489
  425MOL0     H56081   3.045   0.850   9.494  0.8385  1.2182 -0.7339
  425MOL0     H56082   1.895   1.035   9.258 -0.8541  1.2465  1.5768
  425MOL0     H56083   1.679   0.961   9.225  0.0442  0.1814  0.3722
  425MOL0     H56084   1.255   0.913   9.151  0.4226  1.9646  2.6036
  425MOL0     H56085   1.073   0.778   9.103  3.0538 -1.1943 -2.8296
  425MOL0     H56086   1.560   0.727   8.484  2.8856 -0.8236 -0.3529
  425MOL0     H56087   1.774   0.836   8.572 -0.7540 -0.7679 -0.2497
  425MOL0     H56088   2.035   1.043   8.672  2.6750 -2.0894  1.5292
  425MOL0     H56089   2.262   1.098   8.767 -2.2303 -0.5764 -0.3343
  425MOL0     H56090   2.605   1.367   8.688  0.4531 -0.7329 -0.2165
  425MOL0     H56091   2.504   1.396   8.543  0.0837  2.7858  2.3618
  425MOL0     H56092   2.566   1.185   8.446  4.5884  0.5594 -3.6373
  425MOL0     H56093   2.697   1.281   8.462 -0.5723 -1.4325 -1.4873
  425MOL0     H56094   2.739   1.038   8.528 -1.4907 -2.1423  0.2626
  425MOL0     H56095   2.633   1.069   8.665  0.3240  0.2151 -0.3607
  425MOL0     H56096   2.772   1.187   8.789  0.9287 -0.0853  0.0515
  425MOL0     H56097   2.878   1.075   8.728  0.2137  0.0143 -0.6044
  425MOL0     H56098   3.064   1.428   8.592 -0.0607  0.6966  1.3450
  425MOL0     H56099   2.348   1.313   8.406  1.7652  0.3859  1.3704
  425MOL0     H56100   2.155   1.259   8.312  2.7433  1.6318  0.2154
  426MOL0     O56101   8.056   5.540   4.783  0.3625 -0.1948  0.1774
  426MOL0     C56102   8.125   5.568   4.683 -0.3728  0.1181 -0.4879
  426MOL0     O56103   8.121   5.507   4.565 -0.3569 -0.5264  0.0232
  426MOL0     C56104   8.016   5.428   4.536 -1.0052  0.5138  0.3022
  426MOL0     C56105   8.039   5.325   4.443  0.0421  0.5405  0.1287
  426MOL0     C56106   7.940   5.243   4.402  0.4622 -0.0900  0.6419
  426MOL0     C56107   7.807   5.253   4.445  0.2887  0.0414  0.4630
  426MOL0     O56108   7.714   5.166   4.391 -0.0877  0.0205 -0.0604
  426MOL0     C56109   7.649   5.225   4.275 -0.2650  0.0391  0.6789
  426MOL0     C56110   7.567   5.122   4.203  0.3981  0.2305  0.2079
  426MOL0     C56111   7.527   5.155   4.056  1.0395 -0.3723 -0.1918
  426MOL0     C56112   7.469   5.035   3.988  1.3231  0.8924  0.7501
  426MOL0     C56113   7.374   5.075   3.871 -0.3326 -0.0830  0.2270
  426MOL0     C56114   7.300   4.948   3.817 -0.8769 -0.5797  0.1867
  426MOL0     C56115   7.147   4.936   3.852 -1.1565  0.4549  0.2484
  426MOL0     C56116   7.117   4.959   3.997 -0.1770 -0.2032 -0.2662
  426MOL0     N56117   6.974   4.938   4.030  0.5721 -0.5423  0.5272
  426MOL0     C56118   6.894   4.823   4.019 -0.2338 -0.5746 -0.4507
  426MOL0     C56119   6.780   4.844   4.075  0.4495  0.9018  0.2233
  426MOL0     C56120   6.664   4.740   4.070 -0.1222 -0.0849 -0.1468
  426MOL0     C56121   6.525   4.795   3.997 -0.5302 -0.6941 -0.8781
  426MOL0     C56122   6.433   4.692   3.931 -0.3625  0.3054  0.2522
  426MOL0     C56123   6.298   4.754   3.884 -0.0439  0.3633  0.3375
  426MOL0     O56124   6.235   4.670   3.785  0.1381  0.0638 -0.2881
  426MOL0     C56125   6.109   4.703   3.748  1.1984  0.2539  0.4862
  426MOL0     C56126   6.022   4.797   3.810  0.4977 -0.3173  0.4327
  426MOL0     C56127   5.890   4.814   3.763 -0.4407  0.0048 -0.1509
  426MOL0     C56128   5.842   4.746   3.652 -0.2442 -0.3818 -0.6231
  426MOL0     C56129   5.707   4.772   3.593  0.0601 -1.5273  0.7113
  426MOL0     O56130   5.634   4.869   3.654  0.6401 -0.1314 -0.4717
  426MOL0     C56131   5.513   4.909   3.605 -0.3848 -0.0073  0.0783
  426MOL0     C56132   5.405   4.820   3.597  1.1585 -0.1585 -0.0135
  426MOL0     C56133   5.276   4.859   3.552 -0.0272  0.8151 -0.5845
  426MOL0     C56134   5.251   4.992   3.511 -1.1501 -0.1621  0.0612
  426MOL0     O56135   5.125   5.016   3.464  0.0574 -0.2357  0.3949
  426MOL0     C56136   5.108   5.125   3.371 -0.6044 -0.1568 -0.5708
  426MOL0     C56137   5.007   5.086   3.263 -0.4704  0.2095  0.3781
  426MOL0     C56138   4.993   5.205   3.158 -0.7807  0.4382 -0.4557
  426MOL0     C56139   4.895   5.175   3.050 -0.5555  0.4766 -0.1421
  426MOL0     C56140   4.761   5.236   3.068  0.4664  0.5259  0.6708
  426MOL0     C56141   4.666   5.192   2.949 -0.2140 -0.3638 -0.2180
  426MOL0     C56142   4.539   5.269   2.967 -0.2321  0.4316  0.4843
  426MOL0     C56143   4.477   5.292   2.834 -0.2048  0.4568  0.2057
  426MOL0    Cl56144   4.411   5.130   2.771  0.4011 -0.1460  0.1008
  426MOL0     C56145   5.358   5.078   3.527  1.0278 -0.1422  0.2795
  426MOL0     C56146   5.485   5.040   3.574  0.2925 -0.5612  0.0879
  426MOL0     O56147   5.682   4.713   3.490  0.6217 -0.0577  0.0789
  426MOL0     C56148   5.924   4.655   3.588  1.0265 -0.1202  0.1809
  426MOL0     C56149   6.048   4.632   3.639 -1.4555 -0.1627  0.3896
  426MOL0     N56150   6.776   4.961   4.142  0.1571 -0.8309 -1.0232
  426MOL0     N56151   6.896   5.013   4.119  0.6011 -1.1247  0.1629
  426MOL0     C56152   7.790   5.348   4.547  0.4614  0.9336 -0.0069
  426MOL0     C56153   7.888   5.441   4.586  0.4549 -0.3004  0.0035
  426MOL0     C56154   8.238   5.665   4.700  0.1443  0.6834 -0.6706
  426MOL0     C56155   8.229   5.759   4.801  0.3935  0.4868  0.5178
  426MOL0     C56156   8.323   5.857   4.823 -0.5094  0.9248  0.1515
  426MOL0     C56157   8.437   5.860   4.745  1.1777 -0.4555  0.0366
  426MOL0     O56158   8.530   5.954   4.780 -0.6307  0.0122 -0.2246
  426MOL0     C56159   8.646   5.947   4.712  0.1247 -0.9766 -0.1856
  426MOL0     C56160   8.755   6.040   4.767  0.6121  0.1141 -0.5548
  426MOL0     C56161   8.720   6.188   4.745  0.4686 -0.0527  0.1130
  426MOL0     C56162   8.814   6.289   4.791 -0.4379 -0.1351  0.1241
  426MOL0     C56163   8.942   6.244   4.741 -0.0500 -0.6306 -0.1410
  426MOL0     C56164   9.049   6.202   4.709  0.1454 -0.6009 -0.3388
  426MOL0     C56165   8.444   5.759   4.643  0.3784 -0.9535 -0.5149
  426MOL0     C56166   8.353   5.661   4.627  1.2144 -0.1951  0.6378
  426MOL0     H56167   8.136   5.287   4.412  0.4526  1.9292 -0.3937
  426MOL0     H56168   7.974   5.162   4.337 -0.2664  0.2554 -0.1926
  426MOL0     H56169   7.729   5.255   4.207 -0.6609 -1.7724 -0.6634
  426MOL0     H56170   7.588   5.311   4.305 -2.7163 -2.1185  2.3267
  426MOL0     H56171   7.466   5.123   4.243 -1.1642 -0.2395 -3.3835
  426MOL0     H56172   7.618   5.025   4.203  0.3248  0.1921  0.5836
  426MOL0     H56173   7.612   5.195   3.999  1.0339 -0.0374  0.0321
  426MOL0     H56174   7.449   5.231   4.062  2.8552  1.6016 -0.1940
  426MOL0     H56175   7.545   4.968   3.946 -0.5818 -1.0788  0.2834
  426MOL0     H56176   7.417   4.974   4.062 -1.6994  0.6802 -1.4108
  426MOL0     H56177   7.441   5.111   3.792  2.7392 -4.4346  0.5508
  426MOL0     H56178   7.301   5.149   3.905 -1.0046 -0.5662 -0.1335
  426MOL0     H56179   7.353   4.862   3.860 -0.9936 -1.1146 -0.7179
  426MOL0     H56180   7.306   4.952   3.708  1.1470 -1.7068  0.2224
  426MOL0     H56181   7.081   4.990   3.782  1.3973  3.9210  0.2821
  426MOL0     H56182   7.118   4.834   3.827 -1.8501  0.9963 -1.3726
  426MOL0     H56183   7.135   5.065   4.016 -1.2833  0.0725 -0.6726
  426MOL0     H56184   7.176   4.894   4.063  1.7276  1.7753  0.1026
  426MOL0     H56185   6.932   4.730   3.977  3.5049 -0.8383  2.8959
  426MOL0     H56186   6.641   4.722   4.175  2.8607 -1.6867  0.3231
  426MOL0     H56187   6.706   4.654   4.017 -1.8856 -0.6290 -0.7315
  426MOL0     H56188   6.555   4.866   3.919  0.9607 -0.6134 -0.2618
  426MOL0     H56189   6.462   4.853   4.065 -0.1198 -3.0516  1.6961
  426MOL0     H56190   6.491   4.666   3.842  3.8039  1.2478  2.4337
  426MOL0     H56191   6.420   4.608   3.999  0.0109  0.4921  0.5586
  426MOL0     H56192   6.322   4.847   3.830  0.5114  0.9213  1.5086
  426MOL0     H56193   6.232   4.770   3.969  1.6334  0.5474  1.6640
  426MOL0     H56194   6.049   4.856   3.897 -0.9003  2.8311 -1.1276
  426MOL0     H56195   5.818   4.880   3.811 -3.0032 -2.2621 -0.6394
  426MOL0     H56196   5.423   4.713   3.599  2.6682  0.0854  0.9237
  426MOL0     H56197   5.202   4.780   3.547  3.9628 -3.5422  1.1130
  426MOL0     H56198   5.200   5.144   3.315  0.3256  3.4834  1.8335
  426MOL0     H56199   5.069   5.214   3.422 -1.9793 -1.8885  1.6020
  426MOL0     H56200   4.912   5.056   3.308 -0.7049 -1.1343 -0.9525
  426MOL0     H56201   5.035   4.992   3.216 -1.9433  0.4451 -1.0611
  426MOL0     H56202   5.089   5.233   3.115 -0.9462  0.0740 -1.0676
  426MOL0     H56203   4.966   5.291   3.220 -0.6384 -0.8909  1.5612
  426MOL0     H56204   4.939   5.207   2.955  1.1423  0.8146  0.7251
  426MOL0     H56205   4.880   5.067   3.037  1.2165 -0.6298  4.8623
  426MOL0     H56206   4.767   5.346   3.070 -0.6947  0.5997  0.6421
  426MOL0     H56207   4.718   5.209   3.164  2.6765  0.6017  1.7455
  426MOL0     H56208   4.661   5.083   2.950  2.7716 -0.6632 -2.7513
  426MOL0     H56209   4.717   5.236   2.863 -0.4591  1.3383  0.4590
  426MOL0     H56210   4.471   5.208   3.028  0.9703 -0.4948  0.9309
  426MOL0     H56211   4.554   5.354   3.034  2.3777  1.1833 -0.9299
  426MOL0     H56212   4.550   5.333   2.764 -1.4177 -2.2936 -2.9198
  426MOL0     H56213   4.395   5.365   2.839 -0.9828 -0.2223 -1.9144
  426MOL0     H56214   5.343   5.179   3.490  1.5429 -1.0865 -2.8207
  426MOL0     H56215   5.568   5.110   3.584  0.2408 -0.5942  0.7898
  426MOL0     H56216   5.879   4.603   3.505 -1.9822  1.7756  0.4506
  426MOL0     H56217   6.098   4.562   3.574 -2.5219  3.0846 -4.4519
  426MOL0     H56218   7.692   5.373   4.589  0.5623 -1.9705  2.2457
  426MOL0     H56219   7.868   5.532   4.641  1.7966 -0.6526  1.1288
  426MOL0     H56220   8.135   5.759   4.855  0.9498 -0.7933  1.5235
  426MOL0     H56221   8.305   5.927   4.904  2.2708 -0.8469  2.5039
  426MOL0     H56222   8.625   5.979   4.609 -1.7286  0.1662  0.5019
  426MOL0     H56223   8.687   5.845   4.705  0.9117 -0.6269 -1.0245
  426MOL0     H56224   8.757   6.024   4.875  0.2198  0.1836 -0.5361
  426MOL0     H56225   8.850   6.009   4.722  0.6611 -2.3756  1.0795
  426MOL0     H56226   8.634   6.208   4.810  0.5560  0.4154  0.0866
  426MOL0     H56227   8.702   6.208   4.639  0.1966 -1.1301 -0.0581
  426MOL0     H56228   8.798   6.393   4.761  1.3758 -0.3019 -1.6358
  426MOL0     H56229   8.813   6.283   4.901 -0.6125 -0.7523  0.0912
  426MOL0     H56230   9.145   6.156   4.692 -0.0402 -0.5608 -1.5910
  426MOL0     H56231   8.530   5.761   4.577  0.3739 -0.1839 -0.5056
  426MOL0     H56232   8.366   5.581   4.554  0.5781  2.2790 -2.4014
  427MOL0     O56233   7.130   4.593   3.874  0.6379  0.6904  0.6956
  427MOL0     C56234   7.215   4.511   3.843  0.1717  0.3939 -0.0784
  427MOL0     O56235   7.195   4.430   3.734  0.1093 -0.0760  0.4664
  427MOL0     C56236   7.071   4.423   3.672 -1.0619 -0.3112 -0.0779
  427MOL0     C56237   6.959   4.384   3.741  0.6780 -0.0208  0.3704
  427MOL0     C56238   6.840   4.400   3.671  0.5259 -0.5957 -0.8874
  427MOL0     C56239   6.828   4.463   3.540  0.0433 -0.0475  0.0071
  427MOL0     O56240   6.721   4.492   3.460  0.3246  0.6260 -0.5349
  427MOL0     C56241   6.626   4.571   3.534  0.6966 -0.5257  0.5158
  427MOL0     C56242   6.548   4.658   3.433 -0.6806  0.6610 -0.4157
  427MOL0     C56243   6.433   4.718   3.507  0.8854 -0.3580  0.4750
  427MOL0     C56244   6.353   4.827   3.443  0.1983 -0.2611  0.8667
  427MOL0     C56245   6.314   4.782   3.298 -0.6157 -0.1589  1.0470
  427MOL0     C56246   6.225   4.884   3.238 -0.9683  0.1297 -0.1455
  427MOL0     C56247   6.195   4.843   3.090 -0.5224  0.2999  0.4230
  427MOL0     C56248   6.200   4.971   3.004  0.3279 -0.6917  0.6013
  427MOL0     N56249   6.154   4.945   2.866  0.2541 -0.8868 -0.0146
  427MOL0     C56250   6.022   4.913   2.843 -0.2712  0.3305 -0.9786
  427MOL0     C56251   6.014   4.864   2.716 -0.2318 -0.0725 -0.0871
  427MOL0     C56252   5.897   4.795   2.639  0.0015 -1.1417  0.1706
  427MOL0     C56253   5.810   4.904   2.573  1.0595  0.3432 -0.0721
  427MOL0     C56254   5.700   4.857   2.470  0.0267  0.2976  0.4164
  427MOL0     C56255   5.564   4.850   2.535 -0.2529  0.3398 -0.3103
  427MOL0     O56256   5.483   4.758   2.465 -0.4284  0.0956 -0.3736
  427MOL0     C56257   5.380   4.809   2.385 -0.3169 -0.0638  0.0214
  427MOL0     C56258   5.393   4.913   2.292  0.2797 -0.0953 -0.1368
  427MOL0     C56259   5.275   4.952   2.223 -0.0476  0.7953  0.2013
  427MOL0     C56260   5.148   4.892   2.234 -0.5990 -0.0252  0.5450
  427MOL0     C56261   5.026   4.945   2.155 -1.0422 -0.4722 -0.5233
  427MOL0     O56262   4.918   4.879   2.201 -0.1607 -0.6664  0.2722
  427MOL0     C56263   4.795   4.892   2.147 -0.0375  1.0420 -0.0473
  427MOL0     C56264   4.754   4.953   2.030  0.5123 -0.7719  0.4689
  427MOL0     C56265   4.619   4.960   1.988  0.3009 -0.0280  0.4679
  427MOL0     C56266   4.512   4.912   2.061 -0.0305 -0.2908 -0.0561
  427MOL0     O56267   4.384   4.908   2.017  0.2581 -0.9159 -0.8306
  427MOL0     C56268   4.294   4.806   2.058 -0.0373 -0.8362 -0.8314
  427MOL0     C56269   4.206   4.765   1.943 -0.5268 -0.0753  0.5710
  427MOL0     C56270   4.146   4.887   1.868  0.5123 -0.4451  0.0907
  427MOL0     C56271   4.037   4.834   1.786  0.3990  0.6275 -0.3079
  427MOL0     C56272   3.963   4.955   1.733  0.5733  0.7047  0.4297
  427MOL0     C56273   3.840   4.912   1.651 -0.5402 -0.0447  1.3957
  427MOL0     C56274   3.860   4.828   1.522 -0.1352 -0.1862  0.4443
  427MOL0     C56275   3.722   4.824   1.452  0.1008 -1.0306 -0.2277
  427MOL0    Cl56276   3.690   4.676   1.352  0.2225  0.1832 -0.4404
  427MOL0     C56277   4.548   4.858   2.185 -0.8888  0.3714  1.2778
  427MOL0     C56278   4.684   4.841   2.230  0.5400 -0.1728  0.7241
  427MOL0     O56279   5.039   5.021   2.061 -0.2545 -0.0650 -0.7352
  427MOL0     C56280   5.153   4.777   2.314  1.1681  0.6459  1.1788
  427MOL0     C56281   5.266   4.725   2.375 -0.1950 -0.7246  1.6352
  427MOL0     N56282   6.147   4.872   2.666 -0.2752 -0.1889  0.2036
  427MOL0     N56283   6.232   4.915   2.760 -0.4887  0.5854 -0.2064
  427MOL0     C56284   6.950   4.496   3.472  0.2063 -0.1116 -0.1177
  427MOL0     C56285   7.066   4.469   3.540 -0.2322 -0.5544  0.3105
  427MOL0     C56286   7.344   4.519   3.912 -0.4947  0.5931 -0.0467
  427MOL0     C56287   7.379   4.624   4.001  0.6022 -0.3918  0.0523
  427MOL0     C56288   7.505   4.636   4.055 -0.9109 -0.2242  0.9381
  427MOL0     C56289   7.593   4.529   4.032 -0.2656 -0.1475 -0.1944
  427MOL0     O56290   7.712   4.551   4.104 -0.1222  0.2494  0.0412
  427MOL0     C56291   7.821   4.451   4.091 -1.5343  0.0639  0.1841
  427MOL0     C56292   7.943   4.509   4.172  0.2070  0.4672  0.0892
  427MOL0     C56293   8.053   4.403   4.198  0.6271 -0.2476 -0.0392
  427MOL0     C56294   8.133   4.391   4.063  0.6602 -0.7218  0.4809
  427MOL0     C56295   8.222   4.275   4.058  1.0344  0.3074  0.1912
  427MOL0     C56296   8.287   4.173   4.027  0.6492  0.3795 -0.9864
  427MOL0     C56297   7.562   4.426   3.946  0.2420 -0.1413 -0.4051
  427MOL0     C56298   7.439   4.412   3.889  0.8722  0.2835 -0.2287
  427MOL0     H56299   6.966   4.343   3.841  3.7211 -1.0122 -0.1612
  427MOL0     H56300   6.752   4.363   3.723 -0.6784  2.0954 -0.8676
  427MOL0     H56301   6.684   4.637   3.600  3.1420 -2.7478  0.7299
  427MOL0     H56302   6.544   4.525   3.591  0.0751 -1.3664 -0.9863
  427MOL0     H56303   6.510   4.590   3.357  2.1901  1.5516 -2.8477
  427MOL0     H56304   6.605   4.741   3.390  0.3010 -0.5118 -1.4645
  427MOL0     H56305   6.465   4.760   3.603  1.0439 -1.5611  0.9697
  427MOL0     H56306   6.368   4.636   3.539  0.2534  0.5486  1.6088
  427MOL0     H56307   6.259   4.832   3.498  0.4285 -1.3986  1.3800
  427MOL0     H56308   6.400   4.926   3.439 -1.5323  0.5398 -1.1761
  427MOL0     H56309   6.261   4.686   3.292  0.2392 -0.5412 -1.6377
  427MOL0     H56310   6.404   4.764   3.238 -0.0693  0.9879  1.4931
  427MOL0     H56311   6.260   4.987   3.246 -0.5851 -0.0848  1.1041
  427MOL0     H56312   6.134   4.880   3.298 -0.7342  2.4128  0.4701
  427MOL0     H56313   6.276   4.780   3.052 -1.7736 -0.6029 -0.8487
  427MOL0     H56314   6.095   4.799   3.085  0.1584 -1.1763 -0.8301
  427MOL0     H56315   6.297   5.020   3.014  0.6717 -1.0828 -0.6676
  427MOL0     H56316   6.131   5.041   3.053  0.7337  1.9735 -2.3146
  427MOL0     H56317   5.962   4.914   2.934  1.2734  1.0292  0.0878
  427MOL0     H56318   5.847   4.729   2.711 -0.2590 -1.5526 -0.3818
  427MOL0     H56319   5.939   4.718   2.573  1.9099 -0.7503  0.8598
  427MOL0     H56320   5.884   4.963   2.519  1.8673 -0.3091  0.2869
  427MOL0     H56321   5.767   4.976   2.643 -0.3553  1.0334 -1.5868
  427MOL0     H56322   5.687   4.928   2.388 -6.5907 -1.5463 -0.6879
  427MOL0     H56323   5.729   4.759   2.430 -0.2784  0.1600  0.5252
  427MOL0     H56324   5.530   4.953   2.533  2.4081  1.3087 -0.0865
  427MOL0     H56325   5.579   4.825   2.641  0.3593  1.8833 -0.0041
  427MOL0     H56326   5.490   4.960   2.283  0.9977 -1.5503 -0.2266
  427MOL0     H56327   5.288   5.042   2.165 -1.7885  1.1789  0.3308
  427MOL0     H56328   4.828   5.005   1.969 -1.1342  1.6908  0.3943
  427MOL0     H56329   4.599   5.014   1.896  1.7530 -0.0858  0.0884
  427MOL0     H56330   4.237   4.833   2.148  1.0989  1.7091 -0.7913
  427MOL0     H56331   4.348   4.714   2.083 -0.0538 -0.6591 -0.1151
  427MOL0     H56332   4.138   4.681   1.960  0.8927 -1.6330 -0.9642
  427MOL0     H56333   4.276   4.716   1.874 -1.5352  0.1029 -0.6190
  427MOL0     H56334   4.222   4.933   1.805  0.3437 -0.7955 -0.3773
  427MOL0     H56335   4.107   4.948   1.950  2.3174 -1.9509  2.2198
  427MOL0     H56336   4.060   4.766   1.703 -1.4294  0.1178 -0.4466
  427MOL0     H56337   3.965   4.781   1.849 -2.4395  2.0057 -2.1647
  427MOL0     H56338   4.026   5.013   1.665  1.0745 -0.6088 -0.2523
  427MOL0     H56339   3.933   5.033   1.804 -1.1123  1.7816 -1.3680
  427MOL0     H56340   3.776   4.998   1.626  1.7152  0.9683 -1.6335
  427MOL0     H56341   3.780   4.851   1.718 -1.2148 -0.4216  0.4753
  427MOL0     H56342   3.926   4.873   1.447 -0.5904  0.8567  0.6417
  427MOL0     H56343   3.895   4.727   1.541  2.7970  0.3048 -1.7255
  427MOL0     H56344   3.720   4.918   1.396 -1.2158  0.1075  1.6163
  427MOL0     H56345   3.642   4.827   1.527 -0.4099 -1.4162 -0.7485
  427MOL0     H56346   4.468   4.828   2.251 -0.0975 -0.2185  1.9964
  427MOL0     H56347   4.715   4.782   2.316  0.6919 -1.6863 -0.3237
  427MOL0     H56348   5.067   4.712   2.327  0.9254  0.9018  0.8748
  427MOL0     H56349   5.254   4.641   2.441  0.6846 -1.3774  0.9913
  427MOL0     H56350   6.951   4.540   3.373  2.9485 -2.3441 -1.2296
  427MOL0     H56351   7.162   4.494   3.496  0.6693 -1.6248  1.5915
  427MOL0     H56352   7.305   4.700   4.022  0.0652 -0.7119 -0.6595
  427MOL0     H56353   7.537   4.728   4.102 -0.7883  0.9461 -1.3118
  427MOL0     H56354   7.859   4.437   3.990 -2.6475  0.9260 -0.3631
  427MOL0     H56355   7.777   4.357   4.126 -1.9111  0.3355  0.4412
  427MOL0     H56356   7.981   4.600   4.124 -0.9900  0.1037 -1.6250
  427MOL0     H56357   7.902   4.535   4.270  0.4592 -1.1023  0.6319
  427MOL0     H56358   8.004   4.305   4.209  0.1159  0.2310  2.7116
  427MOL0     H56359   8.121   4.428   4.280  1.3002  0.5049 -0.8097
  427MOL0     H56360   8.068   4.390   3.975 -0.7362 -0.6083  1.4754
  427MOL0     H56361   8.193   4.481   4.045 -0.4692 -0.0063  0.1540
  427MOL0     H56362   8.347   4.086   4.008  1.3139 -0.0165  2.2444
  427MOL0     H56363   7.637   4.349   3.930  1.3397  0.2337  2.4256
  427MOL0     H56364   7.419   4.324   3.829 -0.7238 -1.8013  3.0731
  428MOL0     O56365   5.594   9.600   0.285 -0.3559  1.0104  0.0940
  428MOL0     C56366   5.544   9.495   0.251 -0.4203 -0.5818  0.0144
  428MOL0     O56367   5.603   9.371   0.227 -0.1055 -0.2553  0.0105
  428MOL0     C56368   5.741   9.389   0.235 -0.5515  0.6227 -0.0675
  428MOL0     C56369   5.799   9.419   0.114 -0.5382  0.1945  0.2216
  428MOL0     C56370   5.936   9.448   0.109 -0.0512  0.0829  0.5202
  428MOL0     C56371   6.010   9.447   0.225 -0.1109 -0.2488  0.5108
  428MOL0     O56372   6.139   9.484   0.209 -0.0537  0.5482  0.5800
  428MOL0     C56373   6.229   9.371   0.223  0.0048  0.0139 -0.1319
  428MOL0     C56374   6.315   9.393   0.349 -0.2120  0.1400  0.3958
  428MOL0     C56375   6.399   9.271   0.380 -0.4261 -0.1166 -0.6107
  428MOL0     C56376   6.512   9.300   0.477  0.1665  0.9219  0.3844
  428MOL0     C56377   6.581   9.171   0.529 -0.6849 -0.4407 -0.0915
  428MOL0     C56378   6.645   9.187   0.668 -1.1905  0.7708 -1.0429
  428MOL0     C56379   6.542   9.181   0.786 -0.9350  0.8594  0.0828
  428MOL0     C56380   6.623   9.164   0.917  0.8072 -0.2940 -0.6856
  428MOL0     N56381   6.538   9.201   1.037 -0.3246 -0.4169  0.9184
  428MOL0     C56382   6.459   9.118   1.103 -0.1697  0.6776 -0.3728
  428MOL0     C56383   6.362   9.193   1.163  0.8254  0.3167 -0.3974
  428MOL0     C56384   6.253   9.133   1.238  0.8076  0.2032  0.0336
  428MOL0     C56385   6.157   9.060   1.151  0.4570  0.1411  0.0286
  428MOL0     C56386   6.047   8.983   1.231  0.4222  0.2709  0.1652
  428MOL0     C56387   5.927   8.948   1.136 -0.6055  0.3298 -0.3711
  428MOL0     O56388   5.832   8.875   1.214  0.0286 -0.1482  0.0239
  428MOL0     C56389   5.764   8.954   1.312 -0.1112 -0.0666 -0.6973
  428MOL0     C56390   5.791   8.932   1.455  0.4761  0.5685  0.9569
  428MOL0     C56391   5.711   9.004   1.547 -0.0936 -0.3071  0.2914
  428MOL0     C56392   5.600   9.089   1.503 -0.5917 -0.4066  0.6761
  428MOL0     C56393   5.515   9.165   1.604  0.9717 -1.2387  0.2483
  428MOL0     O56394   5.508   9.115   1.732 -0.0268 -0.1236  0.6165
  428MOL0     C56395   5.441   9.169   1.834 -0.8304  0.0664 -0.1374
  428MOL0     C56396   5.391   9.083   1.924  0.0923 -0.1351  0.1147
  428MOL0     C56397   5.311   9.121   2.028 -1.0734 -0.3515 -0.2966
  428MOL0     C56398   5.280   9.260   2.045  0.1597  0.5215 -0.0899
  428MOL0     O56399   5.193   9.297   2.146  0.3796 -0.2688  0.0854
  428MOL0     C56400   5.176   9.430   2.191  0.5375  0.6431 -0.5719
  428MOL0     C56401   5.086   9.436   2.318 -0.0446 -0.4712 -0.0684
  428MOL0     C56402   5.139   9.373   2.440 -0.7954  0.4004  0.0149
  428MOL0     C56403   5.053   9.393   2.562  0.9487  0.2209 -0.1134
  428MOL0     C56404   5.026   9.536   2.588  0.4774  0.2678 -0.3472
  428MOL0     C56405   4.972   9.555   2.739 -0.2745  0.6069  0.4763
  428MOL0     C56406   4.831   9.502   2.772 -0.3368  0.3405 -0.6728
  428MOL0     C56407   4.763   9.563   2.894 -0.1377 -0.2428  0.1470
  428MOL0    Cl56408   4.701   9.729   2.880  0.3055  0.2884  0.3617
  428MOL0     C56409   5.339   9.352   1.956 -0.7812  0.7271  0.5492
  428MOL0     C56410   5.432   9.305   1.851  0.6773 -0.4058  0.1310
  428MOL0     O56411   5.450   9.265   1.563 -0.4656 -0.5098  0.2584
  428MOL0     C56412   5.571   9.102   1.361  0.3783  0.4483 -0.7245
  428MOL0     C56413   5.656   9.036   1.281 -0.3302  0.0979  1.3352
  428MOL0     N56414   6.406   9.325   1.155  0.5013 -0.6180  0.5459
  428MOL0     N56415   6.505   9.326   1.066  0.4722 -0.2275 -0.2526
  428MOL0     C56416   5.957   9.423   0.354  0.2468  1.1883 -0.3649
  428MOL0     C56417   5.817   9.397   0.352  0.1274 -1.2152  0.0567
  428MOL0     C56418   5.391   9.486   0.247  0.2101  0.3560  0.4002
  428MOL0     C56419   5.332   9.377   0.193 -0.0824  0.3381  0.0253
  428MOL0     C56420   5.202   9.344   0.200 -0.0893 -0.1842  0.0881
  428MOL0     C56421   5.114   9.434   0.255 -1.2428  0.0508 -0.0424
  428MOL0     O56422   4.986   9.390   0.267 -0.9569  0.2141  0.2076
  428MOL0     C56423   4.883   9.471   0.319  0.0419  0.3247  0.1768
  428MOL0     C56424   4.822   9.576   0.229  0.0373 -0.1536  0.3408
  428MOL0     C56425   4.782   9.523   0.091 -0.0243  0.0590 -0.2042
  428MOL0     C56426   4.657   9.440   0.107 -0.0621 -0.1091  0.1089
  428MOL0     C56427   4.614   9.392  -0.019 -0.9977  0.3570  0.9744
  428MOL0     C56428   4.580   9.336  -0.120 -0.4619  0.3975  0.0349
  428MOL0     C56429   5.170   9.554   0.310  0.4312 -0.6080  0.5706
  428MOL0     C56430   5.306   9.576   0.313 -0.0879  0.0096 -0.0900
  428MOL0     H56431   5.753   9.419   0.015  2.3749  2.3748 -1.2789
  428MOL0     H56432   5.976   9.475   0.012 -2.6710 -1.4940 -1.1183
  428MOL0     H56433   6.287   9.355   0.132  2.0600  1.6526  0.7851
  428MOL0     H56434   6.163   9.284   0.231  1.9623 -1.9237 -2.9882
  428MOL0     H56435   6.255   9.418   0.437 -1.6059  1.9696 -0.9957
  428MOL0     H56436   6.384   9.475   0.330  0.1368 -0.2748 -0.1463
  428MOL0     H56437   6.433   9.227   0.286 -0.7108 -0.2562 -0.6508
  428MOL0     H56438   6.333   9.195   0.423 -1.7630  1.9497  1.1979
  428MOL0     H56439   6.587   9.362   0.429  2.5657 -3.1502 -1.7213
  428MOL0     H56440   6.453   9.336   0.562 -0.4331  0.1855  0.3013
  428MOL0     H56441   6.661   9.142   0.460  0.3255  0.2401  0.7632
  428MOL0     H56442   6.498   9.099   0.532 -1.1502  0.0760 -0.4064
  428MOL0     H56443   6.708   9.276   0.675 -2.6912  1.7200  1.7844
  428MOL0     H56444   6.708   9.098   0.665 -0.3075  1.3785 -0.8380
  428MOL0     H56445   6.475   9.267   0.791 -0.2470  1.4211 -0.1793
  428MOL0     H56446   6.473   9.099   0.765 -0.8850  1.0010 -0.6351
  428MOL0     H56447   6.705   9.236   0.915  0.5998 -0.0427 -0.2738
  428MOL0     H56448   6.666   9.069   0.949 -1.0419 -0.4887  1.4700
  428MOL0     H56449   6.466   9.010   1.102  0.4918  0.7130 -0.6367
  428MOL0     H56450   6.206   9.218   1.288  0.7229  0.0438  0.2213
  428MOL0     H56451   6.305   9.066   1.307  1.5163 -0.3165 -0.9714
  428MOL0     H56452   6.208   8.984   1.090 -4.4579  0.4559 -5.3446
  428MOL0     H56453   6.110   9.130   1.082 -0.7990 -2.2701 -1.7044
  428MOL0     H56454   6.099   8.900   1.280  2.2262 -0.1272 -2.2501
  428MOL0     H56455   6.010   9.049   1.309 -0.5354  0.3004 -0.3083
  428MOL0     H56456   5.969   8.886   1.056 -0.5876  0.7134 -0.6666
  428MOL0     H56457   5.878   9.036   1.093 -0.3199 -0.0475 -1.5009
  428MOL0     H56458   5.859   8.862   1.501 -0.8317 -0.3473  1.5813
  428MOL0     H56459   5.720   9.010   1.655 -1.9669  1.2172  0.4220
  428MOL0     H56460   5.406   8.975   1.922  0.9065 -0.0531  0.9467
  428MOL0     H56461   5.254   9.048   2.085 -1.0877  0.3177  0.5737
  428MOL0     H56462   5.127   9.497   2.120 -0.6639  1.1017  0.6316
  428MOL0     H56463   5.276   9.472   2.208  2.3701 -2.9698 -1.5188
  428MOL0     H56464   4.994   9.384   2.287  0.7752 -1.6875 -0.5330
  428MOL0     H56465   5.054   9.536   2.347 -0.0609 -0.4716 -0.0858
  428MOL0     H56466   5.240   9.414   2.453  1.0909 -2.3977 -3.8568
  428MOL0     H56467   5.153   9.265   2.426  0.7132  0.6771 -0.7713
  428MOL0     H56468   4.960   9.336   2.545 -0.1426  2.3699 -1.8311
  428MOL0     H56469   5.103   9.336   2.641  2.0522  1.3427  0.0124
  428MOL0     H56470   4.946   9.574   2.524  1.9316  2.1667 -1.1548
  428MOL0     H56471   5.114   9.601   2.577  1.7013 -1.1889  0.4476
  428MOL0     H56472   4.957   9.662   2.752 -4.7641  0.4057 -1.2425
  428MOL0     H56473   5.030   9.507   2.818 -2.3392 -0.5860  1.3764
  428MOL0     H56474   4.773   9.497   2.680  0.9031 -1.5348 -1.4183
  428MOL0     H56475   4.835   9.394   2.793 -3.0735  0.2548 -0.2611
  428MOL0     H56476   4.806   9.551   2.994 -1.1834  1.4739  0.8512
  428MOL0     H56477   4.671   9.506   2.904 -1.0247  0.9193 -1.0746
  428MOL0     H56478   5.317   9.457   1.970 -0.2228  0.9786 -0.3324
  428MOL0     H56479   5.465   9.369   1.770 -1.7452 -0.2983 -0.8620
  428MOL0     H56480   5.490   9.165   1.326  0.7126  1.7056  0.6769
  428MOL0     H56481   5.643   9.052   1.174  1.5828 -0.6696  0.9559
  428MOL0     H56482   6.018   9.453   0.439  0.4533 -0.3469  0.0559
  428MOL0     H56483   5.764   9.398   0.446 -2.6531  1.8492 -1.3179
  428MOL0     H56484   5.385   9.306   0.130  1.7781 -0.1870  2.0505
  428MOL0     H56485   5.158   9.254   0.159 -2.7783  1.9917 -2.3347
  428MOL0     H56486   4.920   9.524   0.407  2.6959 -2.3666  0.8870
  428MOL0     H56487   4.798   9.409   0.349 -3.7399  2.8756 -4.1582
  428MOL0     H56488   4.738   9.621   0.284  0.2189 -0.1967  0.6498
  428MOL0     H56489   4.887   9.664   0.217 -2.9487  2.1478 -0.3614
  428MOL0     H56490   4.868   9.462   0.060  0.0610 -0.3138  0.7345
  428MOL0     H56491   4.778   9.607   0.021 -0.3183 -0.4885 -0.8645
  428MOL0     H56492   4.676   9.343   0.154  1.9225 -0.7993 -1.9279
  428MOL0     H56493   4.579   9.498   0.157 -0.4632  0.8646 -1.5528
  428MOL0     H56494   4.544   9.277  -0.201 -1.6032  1.3965 -0.2176
  428MOL0     H56495   5.103   9.634   0.339  2.1985  1.2438 -0.2071
  428MOL0     H56496   5.341   9.669   0.357  1.0074 -0.1690 -0.5524
  429MOL0     O56497   5.579   1.759   4.483 -0.2143 -0.5688 -0.1653
  429MOL0     C56498   5.672   1.847   4.481 -0.0260 -0.2173  0.4032
  429MOL0     O56499   5.656   1.982   4.471 -0.2108 -0.2889 -0.6162
  429MOL0     C56500   5.530   2.037   4.479  0.4815  0.2951 -0.2371
  429MOL0     C56501   5.418   1.980   4.413  0.3270 -0.5720 -0.3462
  429MOL0     C56502   5.290   2.043   4.419  0.7396  0.6423 -0.0345
  429MOL0     C56503   5.273   2.152   4.508  0.4441  0.2185  0.1384
  429MOL0     O56504   5.158   2.216   4.539  0.1998 -0.3235 -0.7417
  429MOL0     C56505   5.049   2.190   4.447  0.3867 -0.4350 -0.1698
  429MOL0     C56506   4.933   2.282   4.483 -0.0220 -0.2430  0.5179
  429MOL0     C56507   4.823   2.293   4.378  0.3207 -0.9146  0.3829
  429MOL0     C56508   4.719   2.396   4.427 -0.2560 -0.1156 -0.2189
  429MOL0     C56509   4.587   2.391   4.351 -0.4511 -0.0158  0.7933
  429MOL0     C56510   4.501   2.273   4.389 -0.2230 -0.6980  0.7654
  429MOL0     C56511   4.363   2.303   4.339 -0.4565  0.5882  0.1307
  429MOL0     C56512   4.356   2.333   4.181  0.0768 -0.6522  0.2507
  429MOL0     N56513   4.215   2.292   4.136  0.5315  0.6733 -0.3081
  429MOL0     C56514   4.123   2.362   4.072 -0.4220 -0.2571  0.0990
  429MOL0     C56515   4.008   2.299   4.075  0.5164 -0.0610 -0.9604
  429MOL0     C56516   3.876   2.372   4.052 -0.4413 -0.4846 -0.0142
  429MOL0     C56517   3.822   2.447   4.176  0.8609  0.1100 -0.0937
  429MOL0     C56518   3.680   2.511   4.144 -0.6256  0.7816 -0.3048
  429MOL0     C56519   3.575   2.409   4.104 -0.0870 -0.4351 -0.0974
  429MOL0     O56520   3.450   2.477   4.140  0.9310  0.7221 -0.5868
  429MOL0     C56521   3.333   2.434   4.075 -0.1260  0.7682  0.2844
  429MOL0     C56522   3.221   2.515   4.088  0.9795  0.6992 -0.2944
  429MOL0     C56523   3.111   2.492   4.012 -0.2383 -0.8399 -0.7690
  429MOL0     C56524   3.091   2.377   3.936 -0.6712 -0.4192  0.8378
  429MOL0     C56525   2.975   2.355   3.863 -0.5644  0.0874 -0.0978
  429MOL0     O56526   2.909   2.475   3.866  0.1732 -0.3683  0.2440
  429MOL0     C56527   2.789   2.471   3.804  0.3840  0.3145  0.2928
  429MOL0     C56528   2.773   2.487   3.662 -0.7436  0.2403  0.0203
  429MOL0     C56529   2.644   2.496   3.617  1.1714  0.2284 -0.3693
  429MOL0     C56530   2.528   2.475   3.688 -0.4221 -0.1839  0.2013
  429MOL0     O56531   2.400   2.479   3.632 -0.9127 -0.1398  0.5402
  429MOL0     C56532   2.384   2.465   3.487 -0.0853 -0.4352 -0.2259
  429MOL0     C56533   2.379   2.605   3.422 -0.0179  0.2673  0.6412
  429MOL0     C56534   2.251   2.682   3.455  0.5031  0.6411 -0.1726
  429MOL0     C56535   2.118   2.613   3.417  0.4661  0.3513 -1.1815
  429MOL0     C56536   1.990   2.677   3.459 -0.1723  0.2539 -0.9408
  429MOL0     C56537   1.865   2.583   3.490 -0.0186 -0.4031 -0.0500
  429MOL0     C56538   1.792   2.652   3.614 -0.0783 -1.0366  0.4400
  429MOL0     C56539   1.650   2.589   3.623 -0.5422 -0.2504  0.3312
  429MOL0    Cl56540   1.544   2.625   3.483  0.6189 -0.3934  0.1285
  429MOL0     C56541   2.538   2.446   3.826 -0.0288  0.8259 -0.4513
  429MOL0     C56542   2.670   2.451   3.880 -0.0079 -0.6172 -0.5679
  429MOL0     O56543   2.942   2.245   3.819  0.0383 -0.3454 -0.5232
  429MOL0     C56544   3.202   2.295   3.929 -0.2911  0.0952 -0.2115
  429MOL0     C56545   3.320   2.322   3.995  0.3732  0.6887  0.0695
  429MOL0     N56546   4.030   2.179   4.132 -0.1852 -0.0029 -0.3025
  429MOL0     N56547   4.152   2.172   4.170 -0.0796  0.5337  0.5970
  429MOL0     C56548   5.386   2.217   4.560 -1.2815 -0.2998 -0.4466
  429MOL0     C56549   5.513   2.157   4.547  0.7116  0.9586 -0.1168
  429MOL0     C56550   5.804   1.786   4.475  0.2905  0.2959 -0.0789
  429MOL0     C56551   5.835   1.644   4.478  0.1810  0.0676 -0.9514
  429MOL0     C56552   5.970   1.602   4.480 -1.2646 -0.1134  1.1387
  429MOL0     C56553   6.072   1.696   4.443 -0.3823  0.3018 -0.0330
  429MOL0     O56554   6.206   1.673   4.422 -0.2047  0.2122 -0.0571
  429MOL0     C56555   6.241   1.532   4.401 -0.3265 -0.6624  0.2992
  429MOL0     C56556   6.384   1.520   4.342  0.6123  0.3559  0.5875
  429MOL0     C56557   6.452   1.382   4.373 -0.2613 -0.1524 -0.3227
  429MOL0     C56558   6.607   1.380   4.326  0.5563 -0.3678 -0.4937
  429MOL0     C56559   6.604   1.411   4.183 -0.1777  0.7062  0.1470
  429MOL0     C56560   6.603   1.439   4.066  0.7449  0.1826 -0.2851
  429MOL0     C56561   6.041   1.828   4.430 -0.5753  0.3823  0.5043
  429MOL0     C56562   5.914   1.877   4.452 -0.0744  0.2117  0.7039
  429MOL0     H56563   5.426   1.904   4.336 -0.3116  0.9280 -1.9748
  429MOL0     H56564   5.203   2.002   4.370  1.6152 -1.4686  0.0674
  429MOL0     H56565   5.012   2.087   4.446  0.0761 -0.3222 -1.1184
  429MOL0     H56566   5.079   2.210   4.344  1.4058  0.2765  0.2536
  429MOL0     H56567   4.969   2.383   4.502 -2.2062  1.1543 -2.1792
  429MOL0     H56568   4.880   2.245   4.572 -1.1237 -1.0663 -0.4601
  429MOL0     H56569   4.765   2.200   4.375 -2.5230  0.7524 -1.9901
  429MOL0     H56570   4.856   2.329   4.279 -2.0746  0.1674 -0.0971
  429MOL0     H56571   4.698   2.365   4.530  1.6283  0.9668  0.5364
  429MOL0     H56572   4.751   2.501   4.420 -1.7494  0.4061  0.2947
  429MOL0     H56573   4.611   2.389   4.244  0.4125 -0.4721  0.9850
  429MOL0     H56574   4.541   2.483   4.386  1.7686  0.1122  3.7110
  429MOL0     H56575   4.496   2.252   4.496  1.6713  2.2222  1.5244
  429MOL0     H56576   4.546   2.189   4.334  0.7026 -0.1197  0.6330
  429MOL0     H56577   4.311   2.209   4.359 -0.8033  0.0502 -2.8438
  429MOL0     H56578   4.319   2.396   4.377  2.3797  1.5523  1.3240
  429MOL0     H56579   4.407   2.251   4.129  1.2326  0.0670  0.2082
  429MOL0     H56580   4.393   2.430   4.145 -0.0429 -0.5109  0.5054
  429MOL0     H56581   4.127   2.463   4.032 -2.5022 -0.4023 -0.5822
  429MOL0     H56582   3.796   2.307   4.014 -0.3601 -0.2560 -0.5859
  429MOL0     H56583   3.897   2.439   3.968 -0.5310  3.0230  2.5382
  429MOL0     H56584   3.887   2.532   4.198  0.9495 -0.1903  0.8358
  429MOL0     H56585   3.820   2.385   4.266  3.4942  1.9238  1.3569
  429MOL0     H56586   3.641   2.562   4.232 -2.8217  0.1912 -0.8695
  429MOL0     H56587   3.680   2.587   4.066 -1.4884  1.8892  0.7349
  429MOL0     H56588   3.600   2.313   4.151  3.6724 -1.4708 -3.6549
  429MOL0     H56589   3.587   2.399   3.996  0.6752  3.0171 -0.4380
  429MOL0     H56590   3.228   2.605   4.149 -1.1826  2.2658 -2.1740
  429MOL0     H56591   3.027   2.560   4.023 -0.0966 -0.8747  0.7710
  429MOL0     H56592   2.852   2.513   3.593 -3.0903 -1.3552 -3.5466
  429MOL0     H56593   2.634   2.535   3.516  1.1226  0.2645 -0.3504
  429MOL0     H56594   2.295   2.403   3.473 -0.1966 -0.0271 -1.4216
  429MOL0     H56595   2.464   2.407   3.439  0.6458  2.8125 -3.4108
  429MOL0     H56596   2.379   2.597   3.313  2.3213  2.6354  0.3782
  429MOL0     H56597   2.472   2.657   3.448  2.7738 -4.4547  1.2736
  429MOL0     H56598   2.245   2.777   3.401  1.8618  1.6441  1.3329
  429MOL0     H56599   2.254   2.701   3.563 -1.2934 -0.2357  0.0744
  429MOL0     H56600   2.110   2.603   3.308 -3.7379 -0.8188 -0.9116
  429MOL0     H56601   2.119   2.514   3.463 -0.1532  0.8021 -0.1651
  429MOL0     H56602   1.964   2.739   3.373  0.2888  0.5842 -0.8454
  429MOL0     H56603   2.019   2.744   3.541  2.3485  0.3842 -1.8552
  429MOL0     H56604   1.909   2.493   3.535 -0.2015 -0.1044  0.7315
  429MOL0     H56605   1.796   2.576   3.406  1.5364  2.9454 -1.7871
  429MOL0     H56606   1.845   2.631   3.707  0.5817 -1.2450  0.0221
  429MOL0     H56607   1.773   2.759   3.603 -2.2925 -1.1067  2.6286
  429MOL0     H56608   1.610   2.633   3.715 -2.1165  2.4356 -1.4704
  429MOL0     H56609   1.661   2.481   3.628 -3.1503 -0.8452 -3.0483
  429MOL0     H56610   2.460   2.411   3.893  2.4689  3.3079  4.3231
  429MOL0     H56611   2.686   2.434   3.986 -2.1976 -0.7989 -0.2286
  429MOL0     H56612   3.205   2.202   3.875 -2.7659  0.2881 -0.8252
  429MOL0     H56613   3.394   2.244   3.975 -1.3387 -1.5021  1.8023
  429MOL0     H56614   5.370   2.299   4.630 -0.0651 -0.6861  0.3087
  429MOL0     H56615   5.598   2.202   4.598  1.7910 -0.9171 -0.1455
  429MOL0     H56616   5.763   1.566   4.501  1.0042 -0.3144  0.4031
  429MOL0     H56617   5.992   1.498   4.499 -1.4540 -0.0195  1.9159
  429MOL0     H56618   6.176   1.486   4.325 -1.0947  0.8988 -0.0208
  429MOL0     H56619   6.229   1.478   4.495  0.5723  0.2843  0.9728
  429MOL0     H56620   6.373   1.540   4.235  3.1152  0.6005  0.3172
  429MOL0     H56621   6.454   1.593   4.385 -0.1356  0.2349  2.0748
  429MOL0     H56622   6.390   1.312   4.318 -1.4873 -1.4119  2.4743
  429MOL0     H56623   6.449   1.356   4.479 -4.0981  1.1342  0.0493
  429MOL0     H56624   6.673   1.448   4.379  0.1214 -0.4683  0.1912
  429MOL0     H56625   6.650   1.283   4.352  0.2952 -0.7426 -1.4200
  429MOL0     H56626   6.611   1.453   3.961 -2.1638 -2.3040 -1.0067
  429MOL0     H56627   6.119   1.901   4.413 -0.2259  0.4470  2.1866
  429MOL0     H56628   5.914   1.985   4.443  6.8862  0.5753 -0.7828
  430MOL0     O56629  10.395   4.138   7.062 -0.3604 -0.0825 -0.0102
  430MOL0     C56630  10.374   4.262   7.060 -0.5977 -0.4042  0.2002
  430MOL0     O56631  10.466   4.352   7.089  0.0332 -0.0271  0.3032
  430MOL0     C56632  10.591   4.308   7.120  0.4908  0.0976 -0.6932
  430MOL0     C56633  10.621   4.214   7.216 -0.0488  0.4494 -0.4317
  430MOL0     C56634  10.754   4.176   7.253  0.6575 -0.5980 -0.4547
  430MOL0     C56635  10.858   4.236   7.181  1.0469 -0.9735 -0.0394
  430MOL0     O56636  10.978   4.205   7.227 -0.1318  0.1982  1.1650
  430MOL0     C56637  11.023   4.291   7.334 -0.4656  0.0857 -0.1766
  430MOL0     C56638  11.040   4.181   7.450 -0.1015 -0.2502 -0.1251
  430MOL0     C56639  11.126   4.226   7.568 -0.5703 -0.2561  0.3921
  430MOL0     C56640  11.133   4.120   7.676  0.2010  0.6879  0.0488
  430MOL0     C56641  11.217   4.140   7.802  0.3238 -0.7901 -0.7142
  430MOL0     C56642  11.367   4.128   7.776 -0.5018  0.3336 -1.1758
  430MOL0     C56643  11.450   4.151   7.901 -0.1551 -0.2970  0.0776
  430MOL0     C56644  11.605   4.131   7.879 -0.8763 -0.1096 -0.1484
  430MOL0     N56645  11.676   4.078   7.999  1.1184 -0.0021 -0.1133
  430MOL0     C56646  11.792   4.005   7.987  0.2935  0.5992  0.5177
  430MOL0     C56647  11.824   3.981   8.109  0.1626  0.1187  0.3049
  430MOL0     C56648  11.951   3.914   8.165  0.1603 -0.3017 -0.2156
  430MOL0     C56649  12.081   3.995   8.161 -0.4520 -0.6070 -0.0158
  430MOL0     C56650  12.185   3.906   8.227  0.7243 -0.5046  0.4115
  430MOL0     C56651  12.324   3.929   8.163  0.7015 -0.0527  0.4333
  430MOL0     O56652  12.336   3.852   8.041  1.1653  0.0253 -0.0187
  430MOL0     C56653  12.466   3.833   7.997 -0.3971 -0.4398  1.1939
  430MOL0     C56654  12.566   3.927   8.013 -0.4458 -0.0582  1.0218
  430MOL0     C56655  12.697   3.905   7.957  0.2157 -0.2833  0.6135
  430MOL0     C56656  12.720   3.794   7.880  0.3507  1.4914 -0.3957
  430MOL0     C56657  12.854   3.756   7.824  0.2591  0.3899 -0.7078
  430MOL0     O56658  12.871   3.625   7.795 -0.4937 -0.3947  0.3868
  430MOL0     C56659  12.998   3.580   7.762  0.5041 -0.1305 -0.2582
  430MOL0     C56660  13.115   3.645   7.782  0.2890 -0.3216 -0.3380
  430MOL0     C56661  13.242   3.600   7.737  0.4914 -0.7832  0.5634
  430MOL0     C56662  13.258   3.483   7.668  0.3852  0.5507 -1.2702
  430MOL0     O56663  13.381   3.433   7.631  0.2610 -0.9347  0.0575
  430MOL0     C56664  13.389   3.296   7.598 -0.7238 -0.8758  0.5162
  430MOL0     C56665  13.539   3.263   7.561  0.2252  0.7321  0.3741
  430MOL0     C56666  13.581   3.124   7.614 -0.6364 -0.2458  0.6519
  430MOL0     C56667  13.726   3.093   7.599  0.1077  0.1497  0.1673
  430MOL0     C56668  13.767   2.947   7.646  0.0665 -0.4471 -0.5806
  430MOL0     C56669  13.928   2.935   7.657  0.3852  0.2804  0.2595
  430MOL0     C56670  13.984   2.953   7.800  0.1255 -1.1610 -0.2758
  430MOL0     C56671  14.136   2.902   7.810  0.8265 -0.2018  0.2035
  430MOL0    Cl56672  14.133   2.726   7.791 -0.4072  0.6670  0.2162
  430MOL0     C56673  13.128   3.412   7.651 -0.5330 -0.5141 -0.0874
  430MOL0     C56674  13.002   3.462   7.696 -0.3780 -1.0006 -0.4882
  430MOL0     O56675  12.929   3.847   7.788 -0.5807 -0.1200 -0.8043
  430MOL0     C56676  12.613   3.699   7.859  0.0266  0.7540 -0.6931
  430MOL0     C56677  12.485   3.714   7.918  0.3076 -0.1510  0.0215
  430MOL0     N56678  11.731   4.045   8.192  0.1405 -0.7292  0.1799
  430MOL0     N56679  11.640   4.099   8.124 -0.0759 -0.8832  0.2973
  430MOL0     C56680  10.842   4.338   7.089 -0.7297 -1.1250  0.3093
  430MOL0     C56681  10.705   4.371   7.050  0.0840 -0.1580 -0.5834
  430MOL0     C56682  10.237   4.309   7.036  0.3645  0.0281 -0.7667
  430MOL0     C56683  10.207   4.446   7.022 -0.1748  0.1164  0.5945
  430MOL0     C56684  10.069   4.482   7.005  0.4479 -0.0083 -0.1185
  430MOL0     C56685   9.965   4.392   6.996  0.3992  0.2789 -0.5603
  430MOL0     O56686   9.829   4.421   6.995  0.2228  0.1218 -0.1801
  430MOL0     C56687   9.785   4.548   6.968  0.5138 -1.0275  0.3260
  430MOL0     C56688   9.635   4.555   6.957 -0.2749  0.5357  0.6701
  430MOL0     C56689   9.584   4.523   6.820 -0.5188 -0.1537 -0.3078
  430MOL0     C56690   9.573   4.378   6.778 -0.3078 -0.3004 -0.1556
  430MOL0     C56691   9.550   4.372   6.628 -0.0172  0.2730 -0.0840
  430MOL0     C56692   9.518   4.349   6.514  0.0241 -0.5226  0.5685
  430MOL0     C56693   9.994   4.257   7.013  1.1319  0.3919 -0.3806
  430MOL0     C56694  10.125   4.218   7.032 -0.2580  0.4054 -0.1994
  430MOL0     H56695  10.545   4.171   7.281  0.7267  1.0650  0.9232
  430MOL0     H56696  10.766   4.095   7.324 -1.8842  0.9818  1.9675
  430MOL0     H56697  10.963   4.378   7.359  0.5260  1.8296 -3.3161
  430MOL0     H56698  11.121   4.336   7.314  0.1995 -1.5621 -0.8242
  430MOL0     H56699  11.095   4.097   7.408 -0.2840 -1.2109  1.4967
  430MOL0     H56700  10.944   4.159   7.497  2.0804 -0.6304  4.7381
  430MOL0     H56701  11.076   4.315   7.608 -1.3624  0.5130 -2.1225
  430MOL0     H56702  11.222   4.256   7.524 -0.3010 -0.1641  1.0284
  430MOL0     H56703  11.031   4.110   7.716  0.4692  1.1181  0.8671
  430MOL0     H56704  11.162   4.022   7.637 -0.2880 -0.9555  3.4301
  430MOL0     H56705  11.191   4.067   7.880  0.9304 -0.0174  0.2254
  430MOL0     H56706  11.193   4.238   7.843  0.2983 -0.7460 -0.8327
  430MOL0     H56707  11.392   4.215   7.714  0.2062  1.2063  0.2991
  430MOL0     H56708  11.387   4.040   7.713 -2.1912  0.5991 -2.1518
  430MOL0     H56709  11.441   4.256   7.932  0.2732  0.3012 -1.7207
  430MOL0     H56710  11.406   4.088   7.980  0.1883 -2.2376 -1.2246
  430MOL0     H56711  11.650   4.220   7.837 -4.3132  1.4500 -0.9104
  430MOL0     H56712  11.621   4.039   7.821  3.8638  0.5272 -0.1680
  430MOL0     H56713  11.840   3.957   7.902 -0.3886  2.1336 -0.7734
  430MOL0     H56714  11.959   3.814   8.122  0.3710 -0.0540 -0.7602
  430MOL0     H56715  11.932   3.907   8.272 -2.2441  4.5551 -0.0532
  430MOL0     H56716  12.056   4.086   8.217  0.7926  0.5943 -1.3141
  430MOL0     H56717  12.116   4.039   8.067 -2.9876  1.8176  0.0482
  430MOL0     H56718  12.174   3.922   8.335 -2.5446  3.3882 -0.2350
  430MOL0     H56719  12.161   3.801   8.211  0.2657 -0.8668  3.0261
  430MOL0     H56720  12.407   3.897   8.226  2.0226 -3.0587 -2.5034
  430MOL0     H56721  12.330   4.034   8.130  3.3940 -0.2725  0.0189
  430MOL0     H56722  12.552   4.014   8.076 -0.3887 -0.3364  1.4211
  430MOL0     H56723  12.773   3.980   7.977  1.3624 -1.8024  2.2622
  430MOL0     H56724  13.127   3.739   7.834 -3.0379 -0.2797  0.5766
  430MOL0     H56725  13.329   3.663   7.744  0.2800 -0.6176  2.4500
  430MOL0     H56726  13.321   3.275   7.515 -1.3029  3.1874 -0.2364
  430MOL0     H56727  13.356   3.241   7.687 -3.5002 -1.1538 -0.6008
  430MOL0     H56728  13.609   3.332   7.609 -1.5087  1.3232  2.1653
  430MOL0     H56729  13.556   3.269   7.453  3.4930 -3.0306  0.4468
  430MOL0     H56730  13.521   3.049   7.562  0.2306 -0.5876  0.1136
  430MOL0     H56731  13.566   3.117   7.722  0.3677 -3.1542  0.6789
  430MOL0     H56732  13.762   3.103   7.496 -0.6161  0.4786 -0.0571
  430MOL0     H56733  13.782   3.164   7.661  0.7065 -0.3845  0.2542
  430MOL0     H56734  13.728   2.868   7.581  2.1961  0.4091 -3.1007
  430MOL0     H56735  13.734   2.929   7.748 -2.4006 -2.3225 -1.6162
  430MOL0     H56736  13.973   3.000   7.581 -2.2138 -2.5798 -4.1837
  430MOL0     H56737  13.946   2.833   7.620 -1.1647 -0.2990  1.0129
  430MOL0     H56738  13.983   3.055   7.838 -0.7231 -1.3594  0.2541
  430MOL0     H56739  13.919   2.902   7.872  2.2010  0.6009  3.0930
  430MOL0     H56740  14.178   2.924   7.908  0.3900 -2.9948  1.1048
  430MOL0     H56741  14.197   2.954   7.736  0.1576  1.1143  0.5410
  430MOL0     H56742  13.139   3.321   7.593 -0.3074  0.7973 -2.2049
  430MOL0     H56743  12.906   3.413   7.691 -2.0575  1.8496  1.0042
  430MOL0     H56744  12.647   3.621   7.791  2.4901 -0.7185  2.0276
  430MOL0     H56745  12.413   3.634   7.904  0.0754  0.0439  0.0983
  430MOL0     H56746  10.922   4.391   7.038 -1.2067 -0.0779  0.6323
  430MOL0     H56747  10.691   4.452   6.979  3.3630  0.4583 -0.7098
  430MOL0     H56748  10.281   4.525   7.010 -0.8358  0.8730  1.3165
  430MOL0     H56749  10.042   4.586   6.993 -0.6073 -0.1699  0.6951
  430MOL0     H56750   9.839   4.574   6.876 -0.1211 -3.1404 -0.7053
  430MOL0     H56751   9.808   4.616   7.050  2.0829 -0.4804 -0.5256
  430MOL0     H56752   9.588   4.483   7.025  0.5702 -1.6413 -0.9062
  430MOL0     H56753   9.601   4.652   6.993 -3.0409 -0.5159  1.1482
  430MOL0     H56754   9.634   4.585   6.746  0.6593  2.1241  2.2230
  430MOL0     H56755   9.481   4.559   6.829  0.0344  1.1872  1.2062
  430MOL0     H56756   9.669   4.332   6.799 -0.9889 -1.2286  1.0495
  430MOL0     H56757   9.491   4.330   6.833  0.2742 -0.9756  0.1285
  430MOL0     H56758   9.513   4.323   6.410  1.6686  0.5702  0.1878
  430MOL0     H56759   9.912   4.185   7.015  0.1830  1.3285 -2.4178
  430MOL0     H56760  10.155   4.114   7.038  1.4017  0.6680 -2.4602
  431MOL0     O56761   5.998   5.248   9.641  0.5833  0.7209 -0.0560
  431MOL0     C56762   6.017   5.261   9.518  0.1160  0.4517 -0.7099
  431MOL0     O56763   5.943   5.203   9.416 -0.1036 -0.3863 -0.2814
  431MOL0     C56764   5.815   5.155   9.455 -0.5069 -0.7572 -0.0122
  431MOL0     C56765   5.770   5.023   9.442  0.2651  0.2678 -0.3640
  431MOL0     C56766   5.646   4.980   9.465 -0.0200 -0.2757  0.1675
  431MOL0     C56767   5.548   5.075   9.500 -0.2815  0.3056  0.2023
  431MOL0     O56768   5.421   5.044   9.515  0.4965 -0.1754  0.0692
  431MOL0     C56769   5.360   4.940   9.449 -1.0807 -0.4513 -0.1428
  431MOL0     C56770   5.214   4.937   9.504 -0.1517  0.2370  0.2475
  431MOL0     C56771   5.123   4.833   9.441  0.5082  0.6241 -0.4130
  431MOL0     C56772   4.985   4.846   9.507  0.1417 -0.4432  0.1895
  431MOL0     C56773   4.900   4.738   9.450 -0.1185 -0.1301 -0.0187
  431MOL0     C56774   4.763   4.718   9.525 -0.4343 -0.1837 -0.5672
  431MOL0     C56775   4.710   4.576   9.495  0.7609  0.8036  0.8552
  431MOL0     C56776   4.636   4.541   9.369 -0.2486  0.0083 -0.0793
  431MOL0     N56777   4.498   4.529   9.397 -0.2000  0.2302 -0.1542
  431MOL0     C56778   4.393   4.608   9.370 -0.3001 -0.1381 -0.1593
  431MOL0     C56779   4.277   4.543   9.395  0.3425 -1.1185  0.4657
  431MOL0     C56780   4.138   4.605   9.397  0.1343 -0.1392 -0.3996
  431MOL0     C56781   4.040   4.492   9.381  0.0819 -0.6221 -0.6815
  431MOL0     C56782   3.892   4.543   9.357  0.2708 -0.5699  0.6169
  431MOL0     C56783   3.801   4.423   9.361 -0.8677  0.0505  0.1695
  431MOL0     O56784   3.666   4.478   9.336 -0.0124  0.4114 -0.6152
  431MOL0     C56785   3.559   4.425   9.405 -0.4933  1.0047 -0.2818
  431MOL0     C56786   3.559   4.421   9.543 -0.1079  0.0618  0.4283
  431MOL0     C56787   3.445   4.375   9.619 -0.7403 -0.3542  0.3396
  431MOL0     C56788   3.332   4.343   9.551  0.1787  0.5962  0.0781
  431MOL0     C56789   3.218   4.283   9.622  0.1630  0.3041  0.9129
  431MOL0     O56790   3.235   4.274   9.751  0.3292  0.1121  0.4468
  431MOL0     C56791   3.134   4.221   9.827  0.0302 -0.2621  0.2706
  431MOL0     C56792   3.168   4.098   9.882 -0.2541  0.5686 -0.5669
  431MOL0     C56793   3.066   4.032   9.958 -0.6483  0.0286 -0.3675
  431MOL0     C56794   2.941   4.090   9.977 -0.6098 -0.2842  0.2279
  431MOL0     O56795   2.859   4.014  10.052  0.3768 -0.3809 -0.2866
  431MOL0     C56796   2.724   4.044  10.090 -0.0757  0.7686  0.5078
  431MOL0     C56797   2.733   4.086  10.238 -0.3965 -0.6041 -0.8608
  431MOL0     C56798   2.787   3.980  10.345  0.1744 -0.1452  0.4072
  431MOL0     C56799   2.779   4.016  10.488 -0.2129 -0.4653 -0.2281
  431MOL0     C56800   2.630   4.018  10.536  0.3213 -0.1804  0.3273
  431MOL0     C56801   2.556   3.885  10.561  0.5795  0.8022  0.6502
  431MOL0     C56802   2.567   3.831  10.698  0.2926  0.1672 -0.2404
  431MOL0     C56803   2.502   3.691  10.725 -0.5213  0.1185 -0.4544
  431MOL0    Cl56804   2.596   3.571  10.637  0.5168  0.0168  0.3408
  431MOL0     C56805   2.915   4.220   9.922  0.1451 -0.8589 -0.2625
  431MOL0     C56806   3.020   4.288   9.860  0.3635 -0.3492  0.3446
  431MOL0     O56807   3.111   4.248   9.562  0.3724  0.1216 -0.3396
  431MOL0     C56808   3.326   4.360   9.414 -0.5648  1.1115  0.0140
  431MOL0     C56809   3.441   4.401   9.343 -0.5725  0.8767  0.6363
  431MOL0     N56810   4.322   4.422   9.435 -0.0577  0.7892 -0.4954
  431MOL0     N56811   4.446   4.406   9.438  0.5233  0.5641 -0.0369
  431MOL0     C56812   5.589   5.205   9.529 -0.8301 -1.1210  0.4139
  431MOL0     C56813   5.726   5.244   9.515 -0.6928  0.0868  0.9263
  431MOL0     C56814   6.140   5.321   9.474 -0.8480  0.7822  0.7940
  431MOL0     C56815   6.239   5.367   9.563  0.1617  1.0801  0.0770
  431MOL0     C56816   6.359   5.416   9.526  1.2447  0.1087 -0.2860
  431MOL0     C56817   6.397   5.415   9.390  0.1208 -0.1460  0.1965
  431MOL0     O56818   6.526   5.455   9.372 -0.5166 -0.0058 -0.0066
  431MOL0     C56819   6.581   5.417   9.251 -0.9762 -0.1386 -0.1267
  431MOL0     C56820   6.726   5.474   9.240 -0.1046 -0.3526  0.7723
  431MOL0     C56821   6.827   5.441   9.353 -0.0973  0.1706 -0.0053
  431MOL0     C56822   6.960   5.516   9.334  0.1133  0.0796  0.6066
  431MOL0     C56823   7.048   5.424   9.265 -0.3599  0.1570 -0.0531
  431MOL0     C56824   7.113   5.350   9.188  0.4181  0.4348 -0.0285
  431MOL0     C56825   6.305   5.366   9.296 -0.3161  0.1627 -0.0926
  431MOL0     C56826   6.181   5.314   9.341 -0.3495  0.6243  0.2402
  431MOL0     H56827   5.843   4.947   9.418 -0.0401 -0.6686  1.4935
  431MOL0     H56828   5.624   4.874   9.471  0.1358 -0.2634  1.1246
  431MOL0     H56829   5.411   4.846   9.474  0.9882  0.4208 -0.9581
  431MOL0     H56830   5.353   4.949   9.340 -1.0071 -3.8433 -0.5328
  431MOL0     H56831   5.170   5.037   9.497 -0.6761  0.5101  4.5422
  431MOL0     H56832   5.225   4.924   9.612  2.5157  1.5556  0.2193
  431MOL0     H56833   5.163   4.735   9.468  0.5379  0.9991  0.9907
  431MOL0     H56834   5.100   4.846   9.335 -1.6143  0.7621  0.0154
  431MOL0     H56835   5.003   4.829   9.614 -0.6639 -1.7969  0.1342
  431MOL0     H56836   4.942   4.944   9.484 -3.6008 -2.2392 -1.3983
  431MOL0     H56837   4.952   4.643   9.468 -0.7189 -0.6003 -0.7122
  431MOL0     H56838   4.876   4.757   9.345 -1.0662 -2.1246 -0.2193
  431MOL0     H56839   4.687   4.793   9.498  1.8689  2.5559  0.0851
  431MOL0     H56840   4.779   4.720   9.633 -2.6878  0.3384 -0.1984
  431MOL0     H56841   4.798   4.510   9.499 -0.3453 -0.9028 -1.2198
  431MOL0     H56842   4.642   4.558   9.579  2.1716  0.7581  2.0269
  431MOL0     H56843   4.675   4.447   9.327 -3.8990 -0.9903 -1.6696
  431MOL0     H56844   4.653   4.611   9.286  0.9291  0.1343  0.2494
  431MOL0     H56845   4.408   4.710   9.337 -1.6600  0.3582  0.6597
  431MOL0     H56846   4.129   4.673   9.312  0.3719 -2.5720 -2.4728
  431MOL0     H56847   4.118   4.643   9.498  0.2333  1.8798 -1.0840
  431MOL0     H56848   4.034   4.429   9.470 -0.7103 -0.3357 -0.5254
  431MOL0     H56849   4.063   4.426   9.297  1.1005 -1.0020 -0.1158
  431MOL0     H56850   3.863   4.616   9.433  0.9884  1.3508 -0.8840
  431MOL0     H56851   3.883   4.605   9.267  0.4277 -0.8232  0.4260
  431MOL0     H56852   3.817   4.361   9.450  3.2728 -0.0794 -0.4771
  431MOL0     H56853   3.826   4.359   9.276 -1.3939 -0.7642  0.6142
  431MOL0     H56854   3.649   4.451   9.595 -0.3754  1.2916  0.1983
  431MOL0     H56855   3.459   4.359   9.725 -3.9146  0.3940  0.9799
  431MOL0     H56856   3.267   4.056   9.876 -0.4763 -0.1009  0.2859
  431MOL0     H56857   3.106   3.939   9.998  2.0792  1.1332 -0.3481
  431MOL0     H56858   2.668   3.951  10.082 -1.3948  1.4718  1.2103
  431MOL0     H56859   2.676   4.125  10.034 -1.5696 -0.1520  0.4171
  431MOL0     H56860   2.636   4.117  10.276  0.7608  2.6918 -0.2976
  431MOL0     H56861   2.797   4.174  10.246 -1.5600  0.2066 -0.3711
  431MOL0     H56862   2.885   3.939  10.317 -0.2438 -0.7395 -0.2102
  431MOL0     H56863   2.723   3.894  10.322 -0.6979  0.6417 -0.1623
  431MOL0     H56864   2.848   3.957  10.549  0.6447  2.8298  2.2533
  431MOL0     H56865   2.821   4.116  10.498 -1.3148 -0.2334  3.1566
  431MOL0     H56866   2.569   4.077  10.467  0.1575 -1.0154 -0.2631
  431MOL0     H56867   2.628   4.079  10.626 -0.2125  1.8976 -1.0385
  431MOL0     H56868   2.593   3.802  10.499 -0.2012  2.8729 -2.8511
  431MOL0     H56869   2.451   3.911  10.546  1.4466  2.4502 -4.4589
  431MOL0     H56870   2.674   3.828  10.722  0.3569 -0.5639 -0.5924
  431MOL0     H56871   2.525   3.905  10.767  1.4807  2.3057 -1.6953
  431MOL0     H56872   2.398   3.690  10.692 -0.7326 -0.6031  0.2046
  431MOL0     H56873   2.512   3.665  10.831  2.3655  0.2618 -0.6221
  431MOL0     H56874   2.819   4.270   9.930  0.1888 -0.8068 -0.0488
  431MOL0     H56875   3.011   4.388   9.817  0.1020 -1.4273 -2.2450
  431MOL0     H56876   3.238   4.357   9.350  0.1720 -2.4510 -1.0580
  431MOL0     H56877   3.444   4.398   9.235  3.5460  3.6666  0.4279
  431MOL0     H56878   5.514   5.264   9.580  0.2513 -1.4058  2.4857
  431MOL0     H56879   5.761   5.343   9.542  1.0083 -0.0091 -0.7011
  431MOL0     H56880   6.231   5.379   9.671 -2.7625  0.3759 -0.0010
  431MOL0     H56881   6.432   5.453   9.597 -1.0981 -0.2035  2.4699
  431MOL0     H56882   6.529   5.456   9.163 -1.4231 -1.4908 -0.4927
  431MOL0     H56883   6.579   5.308   9.243 -1.2701 -0.4605  3.1297
  431MOL0     H56884   6.772   5.451   9.144  0.4520  0.3822  0.8569
  431MOL0     H56885   6.709   5.581   9.227 -2.2409 -0.3948  2.6788
  431MOL0     H56886   6.847   5.334   9.368  0.7312  0.5884  2.4129
  431MOL0     H56887   6.794   5.490   9.445 -0.8699  2.4581 -1.4211
  431MOL0     H56888   6.956   5.612   9.282  1.4742  0.3988  1.0435
  431MOL0     H56889   7.004   5.520   9.434  0.1148  0.1685  0.6027
  431MOL0     H56890   7.174   5.309   9.111  0.4029  1.8179 -0.8201
  431MOL0     H56891   6.335   5.364   9.192  2.0794 -0.2115  0.5331
  431MOL0     H56892   6.122   5.259   9.268  1.1391 -2.5193  1.2393
  432MOL0     O56893   0.716   6.865   9.318 -0.1799 -0.0442  0.5675
  432MOL0     C56894   0.744   6.964   9.257 -1.0371 -0.9040  0.1393
  432MOL0     O56895   0.663   7.074   9.242 -1.1729 -0.1961 -0.5868
  432MOL0     C56896   0.548   7.067   9.308  0.6799 -0.6344  0.2119
  432MOL0     C56897   0.528   7.133   9.433 -0.0368  0.6367 -0.9925
  432MOL0     C56898   0.390   7.138   9.483  0.2384 -0.9419  0.9206
  432MOL0     C56899   0.292   7.067   9.418 -0.3353 -0.5753 -0.0781
  432MOL0     O56900   0.160   7.088   9.451 -0.3508 -0.8109 -0.1023
  432MOL0     C56901   0.133   7.097   9.591 -0.2087  0.2023 -0.2994
  432MOL0     C56902  -0.005   7.026   9.611 -0.5924  0.9590 -0.3276
  432MOL0     C56903  -0.046   7.059   9.760  0.2790 -0.5578  0.2269
  432MOL0     C56904  -0.167   6.970   9.800  0.3776 -0.0989  0.2974
  432MOL0     C56905  -0.291   7.010   9.712 -0.1872 -0.1624 -0.1826
  432MOL0     C56906  -0.425   6.968   9.779 -0.6495  0.7599 -0.4968
  432MOL0     C56907  -0.537   6.979   9.679 -0.8152 -0.2456 -0.4047
  432MOL0     C56908  -0.526   6.890   9.559  1.3687  0.2104 -0.0768
  432MOL0     N56909  -0.653   6.838   9.505 -0.3333 -0.2796 -0.6450
  432MOL0     C56910  -0.749   6.769   9.577  0.7936 -0.0108 -0.5963
  432MOL0     C56911  -0.854   6.765   9.496 -0.7275 -0.0550 -0.0658
  432MOL0     C56912  -0.978   6.687   9.517  0.6591 -0.1147  0.3382
  432MOL0     C56913  -1.098   6.763   9.592  0.8468 -1.1672  0.2050
  432MOL0     C56914  -1.233   6.687   9.591  0.4206  0.1647 -0.0464
  432MOL0     C56915  -1.339   6.777   9.651  0.0063 -0.3113  0.1727
  432MOL0     O56916  -1.463   6.718   9.678  0.3159  0.9125  0.8824
  432MOL0     C56917  -1.488   6.651   9.797 -0.5879 -0.7501 -0.9758
  432MOL0     C56918  -1.386   6.621   9.886 -1.6824  1.0577 -0.0022
  432MOL0     C56919  -1.416   6.563  10.013 -0.2534 -0.2959  0.0512
  432MOL0     C56920  -1.550   6.530  10.051 -0.5336 -0.7896  0.3779
  432MOL0     C56921  -1.576   6.478  10.182 -0.1039  0.3705  0.8403
  432MOL0     O56922  -1.483   6.498  10.270 -0.3655 -0.4050  0.2423
  432MOL0     C56923  -1.474   6.408  10.378  0.3881 -0.3551  0.5515
  432MOL0     C56924  -1.402   6.289  10.365 -0.8729  0.3372 -0.7520
  432MOL0     C56925  -1.407   6.189  10.467 -0.9001 -0.9311  0.0120
  432MOL0     C56926  -1.498   6.213  10.584 -1.3739 -0.4742  0.9163
  432MOL0     O56927  -1.504   6.121  10.688 -0.4103 -0.4466 -0.0968
  432MOL0     C56928  -1.399   6.031  10.704  0.1955  0.3400 -0.1556
  432MOL0     C56929  -1.383   6.003  10.853 -0.1451  0.4091  0.0972
  432MOL0     C56930  -1.258   5.927  10.886  0.4142  0.1220  0.1267
  432MOL0     C56931  -1.142   6.018  10.893 -0.2936 -0.2542 -0.0814
  432MOL0     C56932  -1.015   5.947  10.909  0.3103 -0.0176  0.2421
  432MOL0     C56933  -0.899   6.048  10.951  0.0483  0.5084  0.2555
  432MOL0     C56934  -0.932   6.099  11.091  0.4125  0.4449 -0.5634
  432MOL0     C56935  -0.822   6.071  11.193 -0.1351  0.1368 -0.4933
  432MOL0    Cl56936  -0.657   6.118  11.127  0.0751  0.3684 -0.4514
  432MOL0     C56937  -1.567   6.323  10.587  0.6298 -0.6016  0.0993
  432MOL0     C56938  -1.560   6.422  10.488  0.4187  0.0856  0.7547
  432MOL0     O56939  -1.678   6.407  10.201  0.2058  0.2993 -0.1066
  432MOL0     C56940  -1.650   6.567   9.959  0.8811 -0.1009 -0.5393
  432MOL0     C56941  -1.618   6.631   9.836  0.3935  0.1439  0.9570
  432MOL0     N56942  -0.829   6.831   9.380  0.3775  0.1709  0.0299
  432MOL0     N56943  -0.712   6.884   9.388 -0.2660  0.1557 -0.1316
  432MOL0     C56944   0.317   6.997   9.301  0.1551 -0.1893 -0.3811
  432MOL0     C56945   0.438   7.012   9.240  0.5200  0.0224  0.0092
  432MOL0     C56946   0.885   6.958   9.185  0.4697  0.0523 -0.9039
  432MOL0     C56947   0.912   7.037   9.076 -0.7862 -0.6102  0.7615
  432MOL0     C56948   1.042   7.027   9.024 -0.4629 -0.0189 -0.8058
  432MOL0     C56949   1.141   6.937   9.076 -0.5757 -0.3232  0.1552
  432MOL0     O56950   1.260   6.920   9.005 -0.8257  0.5793  0.2675
  432MOL0     C56951   1.335   6.798   9.018  0.6524 -0.5775 -0.6018
  432MOL0     C56952   1.438   6.798   9.129  0.5137 -0.5617 -0.1310
  432MOL0     C56953   1.508   6.669   9.147  0.5543  0.9267 -1.3687
  432MOL0     C56954   1.632   6.683   9.239 -0.0194 -0.5019 -0.0810
  432MOL0     C56955   1.711   6.562   9.251 -0.2792  1.0822  0.1360
  432MOL0     C56956   1.771   6.461   9.284  0.6699  0.0131  0.2881
  432MOL0     C56957   1.110   6.861   9.190  0.3154  0.4679 -0.2389
  432MOL0     C56958   0.977   6.873   9.242  0.1247 -0.0340  0.2753
  432MOL0     H56959   0.604   7.188   9.488  1.1435 -3.5173  2.0057
  432MOL0     H56960   0.369   7.207   9.565  0.6284  2.6187 -1.7649
  432MOL0     H56961   0.124   7.206   9.603 -1.3094  0.7822 -4.5861
  432MOL0     H56962   0.214   7.051   9.648 -1.0414 -0.9402 -0.0054
  432MOL0     H56963  -0.019   6.919   9.597 -2.6571  1.2112 -0.5934
  432MOL0     H56964  -0.075   7.079   9.546 -0.4243  2.6077  0.7578
  432MOL0     H56965  -0.077   7.164   9.771 -1.0672 -1.0187  1.0403
  432MOL0     H56966   0.035   7.038   9.829  0.2067 -1.0314  0.1735
  432MOL0     H56967  -0.140   6.864   9.797 -1.5364 -0.6885  1.8612
  432MOL0     H56968  -0.193   6.995   9.904  2.9134  3.1778  0.2810
  432MOL0     H56969  -0.277   6.964   9.614  3.7488 -0.6566  0.4324
  432MOL0     H56970  -0.310   7.117   9.702 -1.7068  0.0557  3.3622
  432MOL0     H56971  -0.435   7.030   9.868 -0.4420 -0.1957  0.1984
  432MOL0     H56972  -0.408   6.870   9.824  0.3161  0.6973 -0.9618
  432MOL0     H56973  -0.628   6.953   9.734 -0.5635 -1.1070 -0.3930
  432MOL0     H56974  -0.564   7.081   9.650 -0.7896  1.5579  4.8513
  432MOL0     H56975  -0.485   6.796   9.597  1.4644  1.2121  2.5311
  432MOL0     H56976  -0.460   6.933   9.482 -0.9401  0.6953 -1.8791
  432MOL0     H56977  -0.744   6.728   9.678  0.8757 -1.0266 -1.0040
  432MOL0     H56978  -0.939   6.589   9.548  4.7981  0.5816 -1.9276
  432MOL0     H56979  -1.013   6.672   9.415  0.9631  0.0214  0.2121
  432MOL0     H56980  -1.115   6.852   9.530  1.7089  0.6891  2.5042
  432MOL0     H56981  -1.078   6.807   9.690 -0.6093  3.0892 -1.1533
  432MOL0     H56982  -1.256   6.653   9.490 -2.9531 -1.4447  1.1231
  432MOL0     H56983  -1.238   6.594   9.648 -1.7641 -0.6284 -1.4158
  432MOL0     H56984  -1.352   6.866   9.589  0.2790 -2.2358 -2.8559
  432MOL0     H56985  -1.302   6.812   9.748 -1.2087  0.9351  0.2165
  432MOL0     H56986  -1.281   6.638   9.861 -1.6012  2.1151  0.9909
  432MOL0     H56987  -1.338   6.536  10.083  1.9261  1.1624 -1.6556
  432MOL0     H56988  -1.343   6.266  10.277 -0.5060 -1.6552 -0.0352
  432MOL0     H56989  -1.343   6.104  10.447 -0.0811 -0.6762  1.4124
  432MOL0     H56990  -1.306   6.079  10.671  0.9690 -1.5686 -0.9250
  432MOL0     H56991  -1.402   5.938  10.645 -0.2126 -1.9294  3.1961
  432MOL0     H56992  -1.462   5.937  10.892 -1.4972  1.4320 -0.8380
  432MOL0     H56993  -1.380   6.095  10.912  0.4834 -0.0970  0.8715
  432MOL0     H56994  -1.256   5.838  10.822  1.5652  1.1411 -1.3074
  432MOL0     H56995  -1.261   5.896  10.991  0.9521 -2.9986 -0.6963
  432MOL0     H56996  -1.145   6.078  10.802 -0.7409 -1.2460 -0.7386
  432MOL0     H56997  -1.151   6.088  10.976  1.3928 -1.7767  1.4692
  432MOL0     H56998  -0.985   5.908  10.811  2.5452 -1.8685  1.5547
  432MOL0     H56999  -1.033   5.866  10.980 -0.8563  1.4296  1.6652
  432MOL0     H57000  -0.897   6.128  10.877  0.1155  0.1670 -0.1169
  432MOL0     H57001  -0.804   5.996  10.940 -0.6055 -0.2904 -2.1756
  432MOL0     H57002  -0.945   6.206  11.077 -2.3520  0.5049  1.4608
  432MOL0     H57003  -1.026   6.062  11.135 -0.2030  1.9862 -0.5311
  432MOL0     H57004  -0.825   5.966  11.225  1.0101  0.3807  0.4806
  432MOL0     H57005  -0.842   6.115  11.291 -1.1529 -1.5385  0.0980
  432MOL0     H57006  -1.631   6.345  10.672  0.4811  1.6120 -0.5141
  432MOL0     H57007  -1.621   6.512  10.486 -0.6324 -0.5715 -1.9374
  432MOL0     H57008  -1.755   6.556   9.984  0.7903  1.5931 -0.0374
  432MOL0     H57009  -1.692   6.665   9.765 -1.1985  1.9622  3.3303
  432MOL0     H57010   0.238   6.940   9.253  0.7910 -0.7082 -0.8337
  432MOL0     H57011   0.464   6.975   9.141  0.4681  0.9189 -0.3495
  432MOL0     H57012   0.837   7.107   9.039  1.2516  1.6548  0.6362
  432MOL0     H57013   1.069   7.078   8.932  1.9016 -0.6318 -0.5249
  432MOL0     H57014   1.383   6.782   8.921  2.0130 -0.1916 -0.0144
  432MOL0     H57015   1.266   6.716   9.041 -1.1618  1.5599  2.3021
  432MOL0     H57016   1.512   6.878   9.123 -0.6315  0.6845  1.4239
  432MOL0     H57017   1.390   6.814   9.226  0.6262  1.7408 -0.3994
  432MOL0     H57018   1.535   6.631   9.047 -0.4664 -2.4667 -0.4875
  432MOL0     H57019   1.437   6.599   9.192  1.9547  0.1610 -0.2922
  432MOL0     H57020   1.701   6.755   9.193 -0.5704 -1.8135 -3.2232
  432MOL0     H57021   1.602   6.713   9.340 -2.4857 -1.8484 -0.3176
  432MOL0     H57022   1.815   6.366   9.309  0.2333  0.3491  2.5083
  432MOL0     H57023   1.173   6.788   9.239  0.3123  0.7430  0.1733
  432MOL0     H57024   0.949   6.805   9.322 -0.1295  1.1456  1.2092
  433MOL0     O57025   7.413   3.581   4.351 -0.3665 -0.0616 -0.0996
  433MOL0     C57026   7.357   3.602   4.457  1.1642  0.5276 -0.0531
  433MOL0     O57027   7.223   3.624   4.467  0.3708  0.5332 -0.1485
  433MOL0     C57028   7.137   3.600   4.365  0.2959 -0.0894 -0.0444
  433MOL0     C57029   7.136   3.484   4.288 -0.2580 -0.4582  0.0351
  433MOL0     C57030   7.041   3.464   4.180  0.0259 -0.3968 -0.4697
  433MOL0     C57031   6.956   3.571   4.154  1.0199  0.5995  0.0367
  433MOL0     O57032   6.890   3.559   4.031  0.5361 -0.0965 -0.5590
  433MOL0     C57033   6.751   3.587   4.028 -0.4350 -0.0966 -0.2859
  433MOL0     C57034   6.710   3.532   3.896 -0.1078  0.4448 -0.1093
  433MOL0     C57035   6.555   3.525   3.908  0.8153 -0.3954 -1.0128
  433MOL0     C57036   6.486   3.533   3.767 -0.3119  0.1424  0.1778
  433MOL0     C57037   6.345   3.588   3.757  0.5901  0.4140  0.0654
  433MOL0     C57038   6.273   3.576   3.618  0.6429  0.0010 -0.4765
  433MOL0     C57039   6.125   3.623   3.619  0.2016 -0.2942  0.0161
  433MOL0     C57040   6.113   3.770   3.631 -0.4646  0.1901 -0.1419
  433MOL0     N57041   5.973   3.815   3.635 -0.5056  0.1869 -0.5189
  433MOL0     C57042   5.904   3.826   3.522 -0.2121 -0.1933 -1.2935
  433MOL0     C57043   5.784   3.873   3.563  0.6688 -0.8870 -1.1649
  433MOL0     C57044   5.678   3.923   3.474  0.1662 -0.2458 -0.3947
  433MOL0     C57045   5.545   3.941   3.548 -0.1846  0.2623  0.3713
  433MOL0     C57046   5.438   3.990   3.456  0.2215 -0.6948  0.5617
  433MOL0     C57047   5.309   4.031   3.530  0.1461 -0.0286  0.2948
  433MOL0     O57048   5.215   4.068   3.425 -0.1246  0.0216 -0.3542
  433MOL0     C57049   5.087   4.109   3.462  0.2489 -0.4962 -0.1856
  433MOL0     C57050   5.038   4.116   3.597 -0.7073  0.0241  1.2510
  433MOL0     C57051   4.916   4.162   3.623  0.2940  0.0280 -0.7511
  433MOL0     C57052   4.831   4.217   3.523  0.3614 -1.5163  0.5372
  433MOL0     C57053   4.708   4.300   3.558  0.6645 -0.1518  0.3013
  433MOL0     O57054   4.641   4.356   3.452 -0.1508 -0.0876 -0.4011
  433MOL0     C57055   4.527   4.428   3.455 -0.0318 -0.1102  0.8045
  433MOL0     C57056   4.471   4.484   3.569  0.3829 -0.2820  0.4654
  433MOL0     C57057   4.351   4.551   3.558  0.0680 -0.5720 -0.3596
  433MOL0     C57058   4.283   4.563   3.437 -0.5314 -0.5715  0.9228
  433MOL0     O57059   4.166   4.633   3.424  0.0821  0.5761  0.0589
  433MOL0     C57060   4.072   4.636   3.534 -0.3269  0.1760 -0.5933
  433MOL0     C57061   3.932   4.651   3.475 -0.1967 -0.9862 -0.5311
  433MOL0     C57062   3.825   4.709   3.577 -0.2643 -0.0604 -0.8408
  433MOL0     C57063   3.698   4.745   3.507 -0.4508  0.4509  0.4111
  433MOL0     C57064   3.599   4.810   3.604  0.7391 -0.3180  0.5985
  433MOL0     C57065   3.471   4.843   3.529  0.2494  0.4194  1.2574
  433MOL0     C57066   3.383   4.925   3.611  0.5740 -0.4200  0.5543
  433MOL0     C57067   3.235   4.910   3.564 -0.2348  0.2125  1.0780
  433MOL0    Cl57068   3.167   5.064   3.619  0.4012  0.2967 -0.0711
  433MOL0     C57069   4.346   4.505   3.323 -0.3766  0.2562  0.1017
  433MOL0     C57070   4.468   4.447   3.334  0.4013  0.2004  0.5215
  433MOL0     O57071   4.657   4.286   3.665  0.5047  0.5687  0.1171
  433MOL0     C57072   4.878   4.207   3.393 -0.1404  0.7390  0.2117
  433MOL0     C57073   5.000   4.151   3.363 -0.1385 -0.1690 -0.1951
  433MOL0     N57074   5.783   3.874   3.705  0.0800 -0.1837  0.4956
  433MOL0     N57075   5.903   3.843   3.741 -0.6454  0.0550  0.5314
  433MOL0     C57076   6.966   3.692   4.214 -0.0200  0.2093  0.2754
  433MOL0     C57077   7.055   3.709   4.324 -0.0898  0.6431 -0.5466
  433MOL0     C57078   7.440   3.618   4.575  0.1359 -0.4969  0.2762
  433MOL0     C57079   7.387   3.674   4.694 -0.6147 -0.4035  0.0569
  433MOL0     C57080   7.470   3.695   4.803 -0.1279 -0.0923 -0.0546
  433MOL0     C57081   7.599   3.640   4.807 -0.5009 -0.1407  0.5863
  433MOL0     O57082   7.659   3.641   4.937 -0.5502  0.4054  0.4455
  433MOL0     C57083   7.781   3.570   4.963  0.3173 -1.2798  0.0413
  433MOL0     C57084   7.833   3.586   5.101  0.1076  0.2386 -0.2745
  433MOL0     C57085   7.727   3.521   5.199 -0.6038  0.4145 -0.6805
  433MOL0     C57086   7.620   3.622   5.247  0.1363  0.7654 -0.0499
  433MOL0     C57087   7.671   3.760   5.296  0.4344  0.4717 -0.1462
  433MOL0     C57088   7.722   3.854   5.344  0.8463 -0.0484 -0.5912
  433MOL0     C57089   7.655   3.579   4.695  0.3165 -0.1263 -0.2552
  433MOL0     C57090   7.572   3.572   4.581 -0.5401  0.5067 -0.3105
  433MOL0     H57091   7.208   3.408   4.315 -0.3896 -0.8831 -0.7890
  433MOL0     H57092   7.050   3.382   4.109 -0.8815  1.4117 -2.7832
  433MOL0     H57093   6.735   3.695   4.029  0.3763  0.0378  0.8800
  433MOL0     H57094   6.701   3.528   4.105  1.0375 -0.6397  0.3057
  433MOL0     H57095   6.747   3.433   3.867 -1.3491 -0.1423  0.2470
  433MOL0     H57096   6.743   3.605   3.822 -1.0566 -0.8892 -1.9264
  433MOL0     H57097   6.517   3.615   3.956 -0.2260 -1.3194 -0.0211
  433MOL0     H57098   6.515   3.445   3.971 -1.6705  1.7265  0.2995
  433MOL0     H57099   6.547   3.598   3.704 -2.0047 -0.3084 -2.0306
  433MOL0     H57100   6.488   3.435   3.718 -1.1318  0.2270 -0.0276
  433MOL0     H57101   6.353   3.696   3.774  0.5934  0.0418  2.8463
  433MOL0     H57102   6.282   3.545   3.835  2.3481  0.5674  1.6492
  433MOL0     H57103   6.278   3.469   3.593  2.7179  0.0174 -0.3131
  433MOL0     H57104   6.334   3.625   3.542  1.0862  0.2000  0.0026
  433MOL0     H57105   6.072   3.585   3.531 -1.5495  1.4361  0.2446
  433MOL0     H57106   6.092   3.587   3.717 -0.6612  2.6997  0.9262
  433MOL0     H57107   6.158   3.827   3.548  2.1680  0.9590  1.6924
  433MOL0     H57108   6.161   3.800   3.724 -3.2146  2.5977  0.6657
  433MOL0     H57109   5.924   3.793   3.421  1.4186  1.8253 -1.6886
  433MOL0     H57110   5.663   3.843   3.400 -0.1516 -1.6278  1.1101
  433MOL0     H57111   5.714   4.015   3.427 -0.1465  0.7211  1.1929
  433MOL0     H57112   5.561   4.005   3.635 -1.1112  0.2387  0.5744
  433MOL0     H57113   5.512   3.842   3.583 -0.0355  0.5190  1.2504
  433MOL0     H57114   5.478   4.077   3.405 -1.3508 -1.8494 -2.9332
  433MOL0     H57115   5.414   3.915   3.381 -1.1077 -2.5553  2.7045
  433MOL0     H57116   5.330   4.115   3.597  2.0401  1.1871 -1.7023
  433MOL0     H57117   5.273   3.939   3.578 -1.4123  0.1332 -0.4927
  433MOL0     H57118   5.111   4.071   3.663 -3.7520 -3.2907  2.7056
  433MOL0     H57119   4.895   4.156   3.729  0.7553  0.4003 -0.6360
  433MOL0     H57120   4.506   4.485   3.672  0.3172  3.4760  0.5810
  433MOL0     H57121   4.327   4.606   3.648  1.1669  2.0461 -1.5518
  433MOL0     H57122   4.105   4.722   3.592  0.3096 -0.1431 -0.4803
  433MOL0     H57123   4.072   4.556   3.608  0.0916  1.3610  0.7209
  433MOL0     H57124   3.905   4.554   3.431 -1.5530 -0.0723 -1.8006
  433MOL0     H57125   3.938   4.723   3.393 -1.6459  0.4119  0.5257
  433MOL0     H57126   3.852   4.802   3.626  1.0487 -1.8877  2.1898
  433MOL0     H57127   3.810   4.637   3.659  1.4197  2.6449  2.0514
  433MOL0     H57128   3.718   4.817   3.427  1.3813  2.6815  2.7157
  433MOL0     H57129   3.651   4.660   3.458 -1.0765  1.3320 -0.5473
  433MOL0     H57130   3.638   4.906   3.638  2.2566 -0.0005 -1.8118
  433MOL0     H57131   3.574   4.746   3.689  1.3814 -0.5747  0.5953
  433MOL0     H57132   3.422   4.750   3.497  0.5952  0.9017 -0.7531
  433MOL0     H57133   3.500   4.902   3.442  0.0643 -0.0063  0.9048
  433MOL0     H57134   3.387   4.902   3.718 -0.4428  0.4186  0.7953
  433MOL0     H57135   3.411   5.031   3.604  0.4287 -0.3829  0.5230
  433MOL0     H57136   3.186   4.827   3.615 -1.2000 -1.1554 -1.8559
  433MOL0     H57137   3.225   4.895   3.456  0.5155  1.2514  0.8446
  433MOL0     H57138   4.309   4.515   3.222  2.0464 -3.3917 -1.3722
  433MOL0     H57139   4.517   4.419   3.242  1.3093 -0.3757  1.1610
  433MOL0     H57140   4.820   4.248   3.310 -0.7630 -1.8752 -0.7310
  433MOL0     H57141   5.041   4.136   3.263  2.1168 -1.2028  0.8295
  433MOL0     H57142   6.910   3.767   4.159  0.3122 -0.2404 -0.7174
  433MOL0     H57143   7.062   3.795   4.389  1.5434 -1.4150  2.2088
  433MOL0     H57144   7.282   3.705   4.696 -0.8915 -1.3232  2.3938
  433MOL0     H57145   7.419   3.733   4.891 -1.5716  1.7062 -1.5748
  433MOL0     H57146   7.842   3.618   4.886  0.6180 -2.2708 -0.3529
  433MOL0     H57147   7.775   3.465   4.933 -2.0247 -1.2198  0.1255
  433MOL0     H57148   7.929   3.533   5.106  0.0109  0.1069  0.2460
  433MOL0     H57149   7.844   3.693   5.116 -2.2740  0.2900  1.7022
  433MOL0     H57150   7.794   3.505   5.284 -0.7453 -0.2259 -0.6839
  433MOL0     H57151   7.683   3.424   5.172 -2.4862  0.7842  0.8829
  433MOL0     H57152   7.548   3.634   5.166 -0.8331  2.0143  0.9529
  433MOL0     H57153   7.559   3.574   5.323  0.5254  1.3813  0.6652
  433MOL0     H57154   7.766   3.939   5.391  0.9069 -0.1531 -0.4578
  433MOL0     H57155   7.753   3.533   4.701  0.8206  0.7322 -1.4421
  433MOL0     H57156   7.618   3.524   4.495 -0.0365  0.6945 -0.1488
  434MOL0     O57157   2.410   7.964   4.990 -0.0218 -0.0247 -1.4041
  434MOL0     C57158   2.414   7.935   5.114 -0.3579 -0.0437 -0.3460
  434MOL0     O57159   2.307   7.892   5.196 -0.3727 -0.0410  0.1304
  434MOL0     C57160   2.175   7.896   5.157 -0.1078  1.0225  0.2747
  434MOL0     C57161   2.118   7.982   5.061 -0.2341  0.1450 -0.1990
  434MOL0     C57162   1.986   7.967   5.013  0.2761  1.0976  0.7222
  434MOL0     C57163   1.902   7.879   5.076  0.4257 -0.5350  0.6862
  434MOL0     O57164   1.779   7.861   5.026  0.0181 -0.1436 -0.0618
  434MOL0     C57165   1.756   7.896   4.890 -0.1972 -0.3948  1.1952
  434MOL0     C57166   1.635   7.829   4.832 -0.7249 -0.3084 -0.0593
  434MOL0     C57167   1.532   7.929   4.781  0.4965  0.0561  1.1978
  434MOL0     C57168   1.406   7.842   4.755 -0.5058  0.4970 -0.7174
  434MOL0     C57169   1.307   7.919   4.669 -0.9769  0.1696 -0.1249
  434MOL0     C57170   1.169   7.835   4.637 -0.2960 -0.5668  0.5839
  434MOL0     C57171   1.054   7.919   4.587  0.0001 -0.4147 -0.6054
  434MOL0     C57172   1.059   7.985   4.457 -0.0585 -0.2561 -0.4915
  434MOL0     N57173   0.937   8.042   4.395  0.5527 -0.8212  0.1020
  434MOL0     C57174   0.885   8.171   4.420 -0.3801 -0.5961  0.0218
  434MOL0     C57175   0.772   8.179   4.346 -1.2279 -0.3372 -0.6582
  434MOL0     C57176   0.689   8.301   4.328 -0.0668 -0.3901 -0.3288
  434MOL0     C57177   0.552   8.263   4.282 -0.4314 -1.2324 -0.1953
  434MOL0     C57178   0.461   8.390   4.283  0.7602  0.1582  0.3657
  434MOL0     C57179   0.343   8.374   4.182  0.8477 -0.1394  0.2892
  434MOL0     O57180   0.282   8.499   4.161 -0.7337 -0.6504  0.0007
  434MOL0     C57181   0.179   8.517   4.068  0.1848  0.6586  0.3667
  434MOL0     C57182   0.136   8.634   4.046  0.2042 -0.2570 -0.7779
  434MOL0     C57183   0.054   8.664   3.944 -0.3638  0.2137  0.0461
  434MOL0     C57184  -0.018   8.563   3.879 -0.9606  0.6739 -0.0442
  434MOL0     C57185  -0.131   8.588   3.791 -0.8787 -0.3770  0.2958
  434MOL0     O57186  -0.185   8.479   3.731 -0.3335  0.2491 -0.3560
  434MOL0     C57187  -0.322   8.480   3.702  0.4659  0.5346 -0.2113
  434MOL0     C57188  -0.368   8.400   3.599 -0.2975  0.5706 -0.1383
  434MOL0     C57189  -0.501   8.408   3.551 -0.5273  0.0764 -0.3061
  434MOL0     C57190  -0.593   8.492   3.613 -0.2942  0.4618 -0.5853
  434MOL0     O57191  -0.722   8.491   3.564 -0.6884 -0.3828 -0.0081
  434MOL0     C57192  -0.816   8.595   3.611 -0.3939  0.0634 -0.0485
  434MOL0     C57193  -0.951   8.572   3.543  0.0729 -0.5084 -0.0742
  434MOL0     C57194  -1.033   8.470   3.626 -0.5904  0.5722 -0.0232
  434MOL0     C57195  -1.144   8.422   3.526  0.2496 -0.4490 -0.1381
  434MOL0     C57196  -1.244   8.312   3.585 -0.2365  0.9451  0.1378
  434MOL0     C57197  -1.294   8.341   3.724  0.0990 -0.8146  0.3077
  434MOL0     C57198  -1.396   8.237   3.772  0.1304 -0.2506  0.4768
  434MOL0     C57199  -1.423   8.240   3.921 -0.4115 -0.4417  0.7209
  434MOL0    Cl57200  -1.534   8.383   3.969 -0.0947  0.7331  0.1906
  434MOL0     C57201  -0.547   8.573   3.723  0.2741 -0.3330 -0.8836
  434MOL0     C57202  -0.413   8.561   3.764  0.4416  0.0385 -0.4771
  434MOL0     O57203  -0.151   8.712   3.766 -0.0266  0.2875  0.5083
  434MOL0     C57204   0.021   8.435   3.913 -0.5432 -0.2641 -0.6278
  434MOL0     C57205   0.126   8.408   4.000 -0.5774 -0.5545  0.2414
  434MOL0     N57206   0.749   8.061   4.279 -0.4239 -0.6223  0.8907
  434MOL0     N57207   0.840   7.979   4.309 -0.1863 -0.0766  0.1474
  434MOL0     C57208   1.954   7.806   5.177 -0.5500  0.7789 -0.5786
  434MOL0     C57209   2.088   7.815   5.223 -0.1384  0.9598  0.4920
  434MOL0     C57210   2.541   7.964   5.175  0.0081 -0.9078  0.0716
  434MOL0     C57211   2.553   7.936   5.304 -1.4421 -0.5688 -1.0312
  434MOL0     C57212   2.676   7.977   5.361  0.6990  0.1438 -0.3184
  434MOL0     C57213   2.784   8.027   5.290 -0.6903 -1.0049  0.5022
  434MOL0     O57214   2.902   8.052   5.361 -0.2882  0.0310 -0.4254
  434MOL0     C57215   3.025   8.035   5.292  0.3795  0.1521  0.0108
  434MOL0     C57216   3.092   8.173   5.267  1.0835  0.8712 -1.1480
  434MOL0     C57217   3.135   8.235   5.398 -0.4404 -0.6608 -1.1861
  434MOL0     C57218   3.253   8.176   5.479 -0.2579  0.1133  0.0576
  434MOL0     C57219   3.375   8.167   5.396 -0.1734 -0.0456 -0.8714
  434MOL0     C57220   3.485   8.140   5.344  0.6654 -0.1321 -0.1937
  434MOL0     C57221   2.776   8.054   5.156  0.7906  0.6746  0.5313
  434MOL0     C57222   2.650   8.018   5.097  0.8664  0.1110  0.3404
  434MOL0     H57223   2.188   8.051   5.016  2.7573 -1.9949  0.8651
  434MOL0     H57224   1.967   8.020   4.920 -0.8409  1.7388  1.3090
  434MOL0     H57225   1.839   7.861   4.828 -0.8486 -0.2678  0.2291
  434MOL0     H57226   1.745   8.003   4.869 -0.2379 -0.7808 -0.9561
  434MOL0     H57227   1.593   7.760   4.906  0.3899 -1.1468 -0.1788
  434MOL0     H57228   1.667   7.773   4.743  1.1353  1.3277 -0.4752
  434MOL0     H57229   1.556   7.991   4.695 -1.6506  1.9252  1.8469
  434MOL0     H57230   1.517   8.011   4.851  3.6848  2.5597 -0.7703
  434MOL0     H57231   1.446   7.760   4.693  2.7909  2.4167 -1.3732
  434MOL0     H57232   1.362   7.792   4.842 -0.9892  0.6249 -0.8868
  434MOL0     H57233   1.363   7.941   4.578  0.4666 -0.6856  0.5083
  434MOL0     H57234   1.278   8.010   4.721 -1.1788 -0.0817  0.2066
  434MOL0     H57235   1.136   7.797   4.734  2.3384  0.4175  1.9532
  434MOL0     H57236   1.182   7.756   4.563 -2.7552 -0.2145 -0.3410
  434MOL0     H57237   0.973   7.846   4.596 -0.4282  0.3302  3.5626
  434MOL0     H57238   1.027   7.990   4.666  2.4732 -2.8440  2.7031
  434MOL0     H57239   1.104   7.903   4.399  1.4310 -0.6122  1.0647
  434MOL0     H57240   1.130   8.069   4.460  0.2756 -0.5377 -0.3713
  434MOL0     H57241   0.927   8.243   4.490  0.6070  0.0706 -1.2109
  434MOL0     H57242   0.727   8.366   4.248  1.8388 -1.4086 -0.2958
  434MOL0     H57243   0.693   8.347   4.427  0.5392 -2.2960  0.5771
  434MOL0     H57244   0.506   8.186   4.346  0.7978 -1.1228  0.8822
  434MOL0     H57245   0.554   8.230   4.178  2.8825 -1.0914 -0.2770
  434MOL0     H57246   0.425   8.402   4.386  1.3286  3.9445  0.2708
  434MOL0     H57247   0.506   8.487   4.259 -0.2156  0.5353  0.0346
  434MOL0     H57248   0.262   8.310   4.217 -1.8027  2.7914 -0.0338
  434MOL0     H57249   0.381   8.329   4.090 -2.2356 -1.0573 -0.6438
  434MOL0     H57250   0.182   8.716   4.101  2.9321 -1.1540 -1.5742
  434MOL0     H57251   0.022   8.766   3.930 -1.3157 -0.3573 -2.4041
  434MOL0     H57252  -0.285   8.344   3.557 -0.3606  0.7797 -0.5478
  434MOL0     H57253  -0.529   8.345   3.468 -1.0732 -1.3772  0.9222
  434MOL0     H57254  -0.781   8.698   3.599  1.0588 -0.2498  1.2279
  434MOL0     H57255  -0.833   8.596   3.719  0.5933 -0.2467  0.1195
  434MOL0     H57256  -0.930   8.540   3.441 -2.4793  1.3215 -1.2539
  434MOL0     H57257  -1.016   8.658   3.527  1.9088  0.8258 -0.7089
  434MOL0     H57258  -1.072   8.511   3.719 -0.4806  1.1012 -0.2051
  434MOL0     H57259  -0.967   8.389   3.657  1.2242  1.6957 -0.7554
  434MOL0     H57260  -1.208   8.506   3.498 -0.6774 -0.0586  2.7870
  434MOL0     H57261  -1.083   8.383   3.445  0.5265  0.7937 -0.5426
  434MOL0     H57262  -1.183   8.223   3.597 -0.2106  1.1078  1.3624
  434MOL0     H57263  -1.321   8.288   3.511  0.1147  2.8234 -0.9177
  434MOL0     H57264  -1.356   8.429   3.741  0.9087 -0.7506  3.5023
  434MOL0     H57265  -1.209   8.344   3.792  1.5855  3.0650 -1.4423
  434MOL0     H57266  -1.486   8.246   3.710  1.2609  0.4830 -1.1019
  434MOL0     H57267  -1.354   8.139   3.745 -0.7155 -0.2382 -1.0063
  434MOL0     H57268  -1.324   8.233   3.966  0.0805 -0.6657 -0.3649
  434MOL0     H57269  -1.457   8.142   3.956  0.1742 -0.8422  0.2015
  434MOL0     H57270  -0.600   8.655   3.770  0.3064 -0.9330  0.2545
  434MOL0     H57271  -0.384   8.641   3.832  0.3665  2.5960 -3.2221
  434MOL0     H57272  -0.040   8.350   3.883  0.9025 -2.3681  1.9487
  434MOL0     H57273   0.154   8.305   4.015  2.6513  0.2918  0.9589
  434MOL0     H57274   1.889   7.731   5.221 -1.8209  1.3902 -1.3396
  434MOL0     H57275   2.122   7.758   5.309 -1.0699 -2.2331 -1.1103
  434MOL0     H57276   2.478   7.886   5.364 -0.4262 -0.4658  0.3723
  434MOL0     H57277   2.696   7.977   5.468  0.7407 -2.6260 -0.2446
  434MOL0     H57278   3.019   7.982   5.197  3.0092  1.1585 -0.8016
  434MOL0     H57279   3.096   7.975   5.350  1.3421  1.6245  0.4180
  434MOL0     H57280   3.181   8.156   5.206 -0.2892 -0.3179 -2.9042
  434MOL0     H57281   3.025   8.240   5.212  0.0207 -1.0911 -2.3644
  434MOL0     H57282   3.047   8.235   5.463  2.3861 -0.9055  3.0015
  434MOL0     H57283   3.157   8.340   5.380 -1.2386  0.0096  1.3741
  434MOL0     H57284   3.299   8.227   5.564  4.3420  0.8021 -2.4838
  434MOL0     H57285   3.220   8.074   5.501 -0.2282  0.0181 -0.3299
  434MOL0     H57286   3.574   8.114   5.290 -1.3433  1.0135 -4.4664
  434MOL0     H57287   2.860   8.088   5.096  1.6628 -2.2927 -0.1301
  434MOL0     H57288   2.643   8.026   4.989 -0.6059 -1.4271  0.2837
  435MOL0     O57289   2.742   9.165   9.257 -1.0908  0.4228 -0.2966
  435MOL0     C57290   2.748   9.287   9.227  0.0920  1.0481 -0.1905
  435MOL0     O57291   2.656   9.372   9.261 -0.1744  0.4128  0.9376
  435MOL0     C57292   2.538   9.320   9.308  0.4071 -0.2954 -0.7555
  435MOL0     C57293   2.531   9.263   9.438 -0.3227  0.2343 -0.5798
  435MOL0     C57294   2.410   9.214   9.481  0.4640  0.9318 -0.3160
  435MOL0     C57295   2.288   9.236   9.426 -0.3912  0.0890  0.0261
  435MOL0     O57296   2.181   9.162   9.478 -0.2072 -0.3753 -0.1403
  435MOL0     C57297   2.051   9.223   9.468 -0.6408 -0.4466 -0.0627
  435MOL0     C57298   1.963   9.183   9.580 -1.2539 -0.1703  0.4441
  435MOL0     C57299   1.824   9.247   9.549  0.1993  0.1513  0.1854
  435MOL0     C57300   1.727   9.210   9.664  1.0695 -0.0209  1.0560
  435MOL0     C57301   1.588   9.254   9.627  0.7398 -0.0103 -0.4076
  435MOL0     C57302   1.492   9.176   9.715 -0.4117 -0.3729 -0.0005
  435MOL0     C57303   1.345   9.217   9.689 -0.2365  0.7298  0.7185
  435MOL0     C57304   1.280   9.160   9.564 -0.4842 -0.2092  0.0549
  435MOL0     N57305   1.249   9.013   9.583 -0.4166 -0.8515 -0.2164
  435MOL0     C57306   1.158   8.955   9.660 -0.0830  0.9081 -0.6568
  435MOL0     C57307   1.170   8.822   9.644  0.2349  0.0278  0.4163
  435MOL0     C57308   1.088   8.715   9.714 -0.7586 -0.1974 -0.5202
  435MOL0     C57309   0.936   8.748   9.739  0.1637  0.2376  0.3945
  435MOL0     C57310   0.885   8.638   9.839 -0.4198 -0.2429  0.4160
  435MOL0     C57311   0.739   8.634   9.866  0.3459 -0.4954 -0.6289
  435MOL0     O57312   0.673   8.591   9.745 -0.2286 -0.5805 -0.2962
  435MOL0     C57313   0.535   8.588   9.750  0.3977  0.3961  0.9704
  435MOL0     C57314   0.450   8.578   9.868  0.1334 -0.2608 -0.2037
  435MOL0     C57315   0.312   8.567   9.857  0.0597 -0.5786 -0.1274
  435MOL0     C57316   0.246   8.570   9.734 -0.4807  0.3959 -0.0061
  435MOL0     C57317   0.096   8.555   9.728  0.7620 -0.3329 -0.5075
  435MOL0     O57318   0.023   8.518   9.837 -0.3741 -0.1166  1.0390
  435MOL0     C57319  -0.108   8.551   9.838 -0.4822  0.9760 -0.1451
  435MOL0     C57320  -0.204   8.467   9.788  0.1779  0.4811 -0.0593
  435MOL0     C57321  -0.336   8.501   9.783  0.0561 -0.8494  0.0658
  435MOL0     C57322  -0.379   8.619   9.837  0.0671  0.0710 -0.7252
  435MOL0     O57323  -0.509   8.666   9.818 -0.5172 -0.4631 -0.8111
  435MOL0     C57324  -0.606   8.605   9.903  0.0902 -0.7536  0.4703
  435MOL0     C57325  -0.614   8.668  10.048  0.6995  0.5103  0.1354
  435MOL0     C57326  -0.759   8.678  10.108  0.5846 -0.4473 -0.3825
  435MOL0     C57327  -0.811   8.536  10.145  0.0448  0.3324 -0.2576
  435MOL0     C57328  -0.957   8.527  10.195  0.4650 -0.1465  0.6914
  435MOL0     C57329  -0.967   8.585  10.338 -0.7113  0.8346  0.4196
  435MOL0     C57330  -1.108   8.591  10.372 -0.6208 -0.2013  0.3284
  435MOL0     C57331  -1.127   8.646  10.521 -0.6399  0.2801 -0.1554
  435MOL0    Cl57332  -1.034   8.555  10.631 -0.5530  0.1316 -0.2299
  435MOL0     C57333  -0.281   8.706   9.889  0.3352 -0.8554  0.1739
  435MOL0     C57334  -0.144   8.672   9.884  0.0286 -0.0275 -0.1569
  435MOL0     O57335   0.045   8.583   9.621 -0.6580  0.1888 -0.8771
  435MOL0     C57336   0.326   8.598   9.617 -0.6990  0.0087 -0.1594
  435MOL0     C57337   0.468   8.590   9.630  0.0503  0.2048 -0.4622
  435MOL0     N57338   1.257   8.804   9.534  0.4012 -0.3686  0.2283
  435MOL0     N57339   1.302   8.923   9.500  0.1698  0.3730 -0.2283
  435MOL0     C57340   2.297   9.307   9.304  0.9103 -0.3022 -0.0822
  435MOL0     C57341   2.412   9.357   9.244 -0.6183  0.2020 -0.2568
  435MOL0     C57342   2.875   9.332   9.163  0.3406 -0.2929 -0.2836
  435MOL0     C57343   2.984   9.245   9.142  0.4435  0.2108  0.0216
  435MOL0     C57344   3.091   9.279   9.069  0.5398  0.1703 -0.1069
  435MOL0     C57345   3.100   9.400   9.010  0.2008  0.1043 -0.6196
  435MOL0     O57346   3.196   9.431   8.921 -0.2084  0.6436  0.5917
  435MOL0     C57347   3.272   9.544   8.971 -0.1295 -0.3909 -0.5470
  435MOL0     C57348   3.413   9.523   8.914 -0.0267 -0.4981  0.1572
  435MOL0     C57349   3.508   9.623   8.971 -0.2825  0.4551 -0.3062
  435MOL0     C57350   3.652   9.579   8.983 -0.0956  0.0298  0.7826
  435MOL0     C57351   3.726   9.584   8.852  0.1801 -0.6828  0.3984
  435MOL0     C57352   3.787   9.606   8.745 -0.0552 -0.2299  0.2413
  435MOL0     C57353   2.993   9.492   9.025  0.3267  0.0722 -0.6770
  435MOL0     C57354   2.884   9.458   9.110 -0.1213  0.2839  0.5035
  435MOL0     H57355   2.631   9.249   9.479  0.0959  0.2743 -1.5490
  435MOL0     H57356   2.415   9.158   9.573  0.8418  1.8650  0.2421
  435MOL0     H57357   2.003   9.208   9.371 -1.3721 -0.3312  0.2819
  435MOL0     H57358   2.067   9.330   9.483 -0.8835 -0.5309  0.8091
  435MOL0     H57359   2.007   9.224   9.671  0.7017  0.3125 -0.6739
  435MOL0     H57360   1.944   9.075   9.584  0.2255 -0.4193  1.6645
  435MOL0     H57361   1.782   9.211   9.455 -2.5674  0.3171  1.2487
  435MOL0     H57362   1.827   9.356   9.543  0.7466  0.0598 -1.7771
  435MOL0     H57363   1.729   9.102   9.680  0.2500 -0.1829  0.1876
  435MOL0     H57364   1.761   9.256   9.757 -0.1946 -2.2042  2.6962
  435MOL0     H57365   1.559   9.241   9.522 -1.2370 -1.3936  0.2709
  435MOL0     H57366   1.591   9.361   9.653  2.3670 -0.4975  1.6981
  435MOL0     H57367   1.528   9.193   9.816  0.6533  1.4700 -0.6343
  435MOL0     H57368   1.495   9.067   9.709  1.7892 -0.2812 -1.9988
  435MOL0     H57369   1.276   9.186   9.768 -1.5497  1.6699  0.0043
  435MOL0     H57370   1.339   9.326   9.700  2.5525  1.0025  0.2181
  435MOL0     H57371   1.340   9.181   9.476 -0.8912 -0.5968 -0.3218
  435MOL0     H57372   1.185   9.213   9.554 -0.5686 -0.5880 -1.2484
  435MOL0     H57373   1.112   9.004   9.745  1.5430  2.1751 -0.4597
  435MOL0     H57374   1.119   8.698   9.818 -4.2588  2.4998  1.2185
  435MOL0     H57375   1.094   8.627   9.650  4.2722  0.3925 -1.2174
  435MOL0     H57376   0.882   8.739   9.644  2.0735 -1.3749 -0.6039
  435MOL0     H57377   0.925   8.846   9.787 -0.1823  0.4604 -0.1210
  435MOL0     H57378   0.914   8.540   9.801 -1.8242 -1.2363  1.8004
  435MOL0     H57379   0.929   8.650   9.938  2.8135 -0.8238 -0.8173
  435MOL0     H57380   0.700   8.732   9.891 -0.5294 -0.8976 -0.3954
  435MOL0     H57381   0.721   8.571   9.953 -4.4980  2.0145  0.5073
  435MOL0     H57382   0.498   8.557   9.963  0.4742  1.9793  0.1664
  435MOL0     H57383   0.255   8.579   9.949 -2.0915 -0.6646 -1.3862
  435MOL0     H57384  -0.171   8.371   9.750 -1.4076 -0.3101  0.4867
  435MOL0     H57385  -0.412   8.439   9.736 -1.7663 -0.3789  2.2273
  435MOL0     H57386  -0.591   8.497   9.911  1.4646 -0.7616 -1.4336
  435MOL0     H57387  -0.702   8.620   9.853 -0.2204 -3.1420  0.1949
  435MOL0     H57388  -0.573   8.769  10.041  0.0299  0.7033 -1.3229
  435MOL0     H57389  -0.555   8.623  10.129 -4.3493 -2.6312  2.6323
  435MOL0     H57390  -0.821   8.714  10.025 -0.0221 -1.3321 -0.3291
  435MOL0     H57391  -0.762   8.752  10.188 -0.2937 -0.8747 -0.0074
  435MOL0     H57392  -0.799   8.486  10.049  0.8286  1.5100 -0.8126
  435MOL0     H57393  -0.743   8.481  10.212  1.2055  0.0309 -1.6274
  435MOL0     H57394  -0.984   8.421  10.186 -0.2390  0.1723 -1.9651
  435MOL0     H57395  -1.028   8.572  10.125  2.0566 -2.6277 -2.8559
  435MOL0     H57396  -0.930   8.687  10.345  1.4458  0.5255 -3.3469
  435MOL0     H57397  -0.909   8.522  10.406 -1.1209  1.6584  1.5651
  435MOL0     H57398  -1.173   8.649  10.306 -0.5348 -1.9828 -1.4253
  435MOL0     H57399  -1.149   8.490  10.365 -2.7377  0.3986  2.4241
  435MOL0     H57400  -1.234   8.638  10.545 -0.9610 -0.8737 -1.7580
  435MOL0     H57401  -1.099   8.752  10.521  1.1546 -0.1369 -1.7700
  435MOL0     H57402  -0.321   8.798   9.929 -0.2643 -1.4332  0.9400
  435MOL0     H57403  -0.073   8.740   9.929  0.4103 -1.7218  1.9485
  435MOL0     H57404   0.285   8.584   9.518 -0.3072  0.9545 -0.4684
  435MOL0     H57405   0.534   8.597   9.544 -2.7195 -0.4238 -2.7887
  435MOL0     H57406   2.201   9.315   9.253  0.6743 -0.2310  0.3701
  435MOL0     H57407   2.419   9.398   9.145 -0.3383 -0.3161 -0.4575
  435MOL0     H57408   2.994   9.149   9.192 -1.9400  0.4439  1.0957
  435MOL0     H57409   3.176   9.212   9.077  1.0551  0.9818  1.4622
  435MOL0     H57410   3.283   9.546   9.080  0.7158  0.9329 -0.6310
  435MOL0     H57411   3.239   9.643   8.939  0.6615 -0.2760 -1.0523
  435MOL0     H57412   3.436   9.418   8.932 -2.0773 -0.9584  0.2497
  435MOL0     H57413   3.413   9.535   8.805  2.6183  1.4391  0.2457
  435MOL0     H57414   3.476   9.646   9.074  0.4317  1.9865 -0.3877
  435MOL0     H57415   3.499   9.719   8.919  3.8457  0.6645 -0.9279
  435MOL0     H57416   3.710   9.638   9.055 -0.2495 -0.1437  1.0474
  435MOL0     H57417   3.660   9.477   9.020  2.1353 -1.1905 -2.6006
  435MOL0     H57418   3.827   9.619   8.647 -1.1050  0.6617 -0.0928
  435MOL0     H57419   2.990   9.588   8.974 -1.0197 -0.2849 -1.3206
  435MOL0     H57420   2.800   9.525   9.121 -0.3465  0.2146 -0.7116
  436MOL0     O57421  10.795   0.875   0.478  0.2800  1.3024 -0.3083
  436MOL0     C57422  10.804   0.820   0.372 -0.6951  0.4412 -0.6830
  436MOL0     O57423  10.728   0.833   0.254 -0.0554 -0.5432  0.2787
  436MOL0     C57424  10.637   0.939   0.241  0.5303  0.5096 -0.9361
  436MOL0     C57425  10.622   0.995   0.122  0.2814 -0.6742  0.6282
  436MOL0     C57426  10.544   1.107   0.098  1.0454  0.3886 -0.4166
  436MOL0     C57427  10.458   1.153   0.199  0.0061 -0.0568  0.2298
  436MOL0     O57428  10.369   1.258   0.195 -0.2095  0.8906  0.3521
  436MOL0     C57429  10.383   1.357   0.091  0.2875 -0.0033  0.1820
  436MOL0     C57430  10.278   1.471   0.092  0.0501 -0.9069 -0.3051
  436MOL0     C57431  10.306   1.578  -0.005 -0.9416 -0.3230 -0.4922
  436MOL0     C57432  10.207   1.695   0.001  0.1532  0.1412 -0.3699
  436MOL0     C57433  10.249   1.810  -0.093 -0.7610  0.5367  0.1470
  436MOL0     C57434  10.200   1.944  -0.073 -0.2496 -0.6777  0.7431
  436MOL0     C57435  10.281   2.009   0.038  0.1237 -0.6369 -0.3796
  436MOL0     C57436  10.239   2.152   0.051 -0.2191 -0.3137 -0.1666
  436MOL0     N57437  10.270   2.228  -0.069 -0.5584 -0.3236  0.1307
  436MOL0     C57438  10.183   2.261  -0.165 -0.2973 -0.0679  0.0649
  436MOL0     C57439  10.247   2.364  -0.228 -0.5842  0.4697 -0.3808
  436MOL0     C57440  10.197   2.438  -0.349  0.3383 -0.6992  0.2435
  436MOL0     C57441  10.202   2.597  -0.343  0.2928  0.4192 -0.2502
  436MOL0     C57442  10.147   2.660  -0.216 -0.1219 -0.6615  0.4378
  436MOL0     C57443   9.997   2.640  -0.193 -0.7039  1.3772  0.6841
  436MOL0     O57444   9.928   2.750  -0.252  0.0059 -0.6654  0.7567
  436MOL0     C57445   9.794   2.754  -0.235 -0.0922 -0.4238 -0.3810
  436MOL0     C57446   9.729   2.653  -0.161  0.0703  0.4080 -0.2546
  436MOL0     C57447   9.589   2.664  -0.136  0.4217  0.3399 -0.0590
  436MOL0     C57448   9.519   2.776  -0.163 -0.5522  0.6245  0.0511
  436MOL0     C57449   9.387   2.800  -0.121  0.3799  0.2426  0.9181
  436MOL0     O57450   9.305   2.889  -0.202  0.1507  0.0018 -0.1727
  436MOL0     C57451   9.177   2.896  -0.147  0.2977 -0.3003  0.6746
  436MOL0     C57452   9.146   2.994  -0.064  0.3497  0.4206 -0.2076
  436MOL0     C57453   9.016   2.989  -0.003  0.0950  0.4433 -0.3071
  436MOL0     C57454   8.916   2.903  -0.053 -0.1988 -1.0739  0.3841
  436MOL0     O57455   8.793   2.918  -0.001 -0.4107 -0.3241  0.5631
  436MOL0     C57456   8.723   2.798   0.013  0.0673  0.3527 -0.0667
  436MOL0     C57457   8.622   2.813   0.130 -1.0171  0.4180  0.5222
  436MOL0     C57458   8.511   2.705   0.122  0.2236  0.7354 -0.5776
  436MOL0     C57459   8.457   2.686   0.263 -0.5561  0.1780 -0.7802
  436MOL0     C57460   8.355   2.567   0.284  0.1443 -0.1962  0.3930
  436MOL0     C57461   8.270   2.572   0.402 -0.0839 -0.1614  0.4721
  436MOL0     C57462   8.170   2.455   0.385  0.1399 -0.4958  1.0128
  436MOL0     C57463   8.101   2.425   0.511 -0.2360 -0.4527 -0.7699
  436MOL0    Cl57464   7.943   2.348   0.470  0.2090 -0.0463  0.1743
  436MOL0     C57465   8.948   2.809  -0.156  0.9145 -1.3945 -0.3028
  436MOL0     C57466   9.082   2.810  -0.197  0.5234  0.4191  0.2290
  436MOL0     O57467   9.342   2.737  -0.023  0.1956  0.0504 -0.1629
  436MOL0     C57468   9.593   2.875  -0.234  0.5419  0.2957 -0.2633
  436MOL0     C57469   9.726   2.868  -0.275  0.0726  0.2601 -0.0763
  436MOL0     N57470  10.368   2.368  -0.186 -1.0423 -0.2918 -0.1374
  436MOL0     N57471  10.384   2.299  -0.087 -0.3061  0.1431  0.3882
  436MOL0     C57472  10.469   1.091   0.324 -0.4370 -0.4245  0.4713
  436MOL0     C57473  10.560   0.988   0.351  0.3543  0.0130  0.5495
  436MOL0     C57474  10.894   0.707   0.381  0.5841  1.3449  0.6079
  436MOL0     C57475  10.901   0.615   0.273 -0.5757 -0.5304 -0.4021
  436MOL0     C57476  11.011   0.524   0.261  0.3509 -0.0738  0.8365
  436MOL0     C57477  11.111   0.520   0.360  0.1746 -0.5059  0.9699
  436MOL0     O57478  11.218   0.432   0.337 -0.3307  0.0348 -0.2794
  436MOL0     C57479  11.332   0.420   0.433 -0.3933 -0.5988  0.5889
  436MOL0     C57480  11.464   0.406   0.363  0.6759  0.1775  0.3072
  436MOL0     C57481  11.501   0.270   0.303  0.3530 -0.0271 -0.0860
  436MOL0     C57482  11.406   0.229   0.184 -0.3889 -0.2258  0.3581
  436MOL0     C57483  11.467   0.093   0.153  0.3136 -0.2397 -0.6717
  436MOL0     C57484  11.511  -0.020   0.140  0.7777 -0.5779 -0.6115
  436MOL0     C57485  11.097   0.612   0.465 -0.1599  0.0429  0.3114
  436MOL0     C57486  10.991   0.693   0.477  0.0994  0.6077 -0.6272
  436MOL0     H57487  10.683   0.965   0.038 -0.1729  0.1250 -0.0090
  436MOL0     H57488  10.562   1.154   0.003  1.5204  0.9386 -0.0571
  436MOL0     H57489  10.398   1.308  -0.006 -0.9361 -1.1045  0.5168
  436MOL0     H57490  10.480   1.404   0.110  3.6810 -4.4214 -3.7583
  436MOL0     H57491  10.272   1.526   0.186  0.2089 -0.2204 -0.6910
  436MOL0     H57492  10.183   1.428   0.058 -0.3781 -1.5319  1.5263
  436MOL0     H57493  10.319   1.537  -0.106  0.7061  0.2405 -0.5321
  436MOL0     H57494  10.404   1.619   0.022 -2.2691  0.7585  3.1857
  436MOL0     H57495  10.107   1.658  -0.024 -0.5956  2.2846 -0.7490
  436MOL0     H57496  10.196   1.737   0.102  4.4423 -1.3379  0.9158
  436MOL0     H57497  10.225   1.774  -0.193 -1.3686 -0.0568  0.5007
  436MOL0     H57498  10.358   1.821  -0.085 -0.6937 -0.8005  1.6708
  436MOL0     H57499  10.091   1.942  -0.062 -0.7326  0.9798 -2.5560
  436MOL0     H57500  10.208   2.001  -0.166 -3.0889 -1.1380  0.1253
  436MOL0     H57501  10.251   1.960   0.131 -4.2680 -3.1529 -2.7708
  436MOL0     H57502  10.389   2.007   0.019  0.9076  2.5506  2.6763
  436MOL0     H57503  10.287   2.203   0.134  0.4550  0.4092 -0.9874
  436MOL0     H57504  10.132   2.172   0.066  0.5597  2.7438  2.3145
  436MOL0     H57505  10.081   2.234  -0.192 -0.8003  1.5118  0.3044
  436MOL0     H57506  10.093   2.419  -0.376  1.0070 -0.9112 -2.4767
  436MOL0     H57507  10.256   2.408  -0.436  1.8809  0.0381  0.9926
  436MOL0     H57508  10.130   2.629  -0.420 -1.1352 -0.0629  0.8340
  436MOL0     H57509  10.303   2.637  -0.356  0.6150 -0.7778 -1.6469
  436MOL0     H57510  10.209   2.628  -0.132 -0.8558  0.6475  1.5266
  436MOL0     H57511  10.166   2.768  -0.219  2.3217 -0.9535  2.3991
  436MOL0     H57512   9.980   2.633  -0.086 -3.1677 -1.4101  0.2318
  436MOL0     H57513   9.965   2.541  -0.227 -0.8586  1.9512 -0.9232
  436MOL0     H57514   9.766   2.554  -0.136  0.9760  0.3219 -1.8160
  436MOL0     H57515   9.532   2.578  -0.102 -0.0942  0.0036 -1.6469
  436MOL0     H57516   9.219   3.069  -0.031 -0.9128  1.5733  0.0650
  436MOL0     H57517   8.992   3.055   0.080 -1.2521 -2.3020  1.6473
  436MOL0     H57518   8.781   2.707   0.035 -0.7855 -0.2664 -0.3423
  436MOL0     H57519   8.675   2.770  -0.081 -0.0380 -0.0908  0.1134
  436MOL0     H57520   8.584   2.915   0.126  0.4672  1.1475  2.8337
  436MOL0     H57521   8.679   2.806   0.223  0.0930  0.0112 -0.1661
  436MOL0     H57522   8.552   2.609   0.088 -0.3573 -0.7721  2.6113
  436MOL0     H57523   8.429   2.748   0.063 -0.5573 -2.5782 -2.2046
  436MOL0     H57524   8.535   2.664   0.337 -1.6698 -1.5716 -0.0692
  436MOL0     H57525   8.403   2.777   0.289 -0.6816 -0.0893 -0.0971
  436MOL0     H57526   8.419   2.480   0.301  0.4968  0.3163  1.7815
  436MOL0     H57527   8.298   2.543   0.194  0.5237 -2.7356  0.7372
  436MOL0     H57528   8.214   2.666   0.406 -4.0793 -2.3021  0.0257
  436MOL0     H57529   8.324   2.570   0.497 -2.2151  0.7488  1.7871
  436MOL0     H57530   8.092   2.484   0.314 -0.3720  2.2754  2.5444
  436MOL0     H57531   8.218   2.361   0.358 -0.9031 -1.1971  1.5446
  436MOL0     H57532   8.086   2.513   0.575  1.0051 -1.4885  1.0122
  436MOL0     H57533   8.170   2.359   0.563 -0.8397 -1.4024 -1.1384
  436MOL0     H57534   8.880   2.748  -0.214  0.4781 -1.4249  0.2413
  436MOL0     H57535   9.114   2.734  -0.267 -3.1543  1.3266 -2.7678
  436MOL0     H57536   9.557   2.973  -0.264 -0.5143  0.4650  1.4192
  436MOL0     H57537   9.773   2.954  -0.322  0.0712  0.5420  0.4235
  436MOL0     H57538  10.411   1.131   0.407  0.5162  0.1309  0.8850
  436MOL0     H57539  10.561   0.935   0.445 -1.1272 -0.3586  0.3768
  436MOL0     H57540  10.829   0.619   0.192  0.2234 -0.6441 -1.1399
  436MOL0     H57541  11.027   0.464   0.172  0.2643  3.5822 -1.8682
  436MOL0     H57542  11.326   0.335   0.501 -0.7931 -0.4492  0.7391
  436MOL0     H57543  11.336   0.503   0.504  1.1309 -1.8217  2.0375
  436MOL0     H57544  11.463   0.482   0.285 -0.5449 -0.5592 -0.4313
  436MOL0     H57545  11.543   0.445   0.427 -0.7816  3.0293  0.5344
  436MOL0     H57546  11.489   0.195   0.382 -3.1544  1.4384  0.9557
  436MOL0     H57547  11.602   0.275   0.261 -0.9804  1.5159 -3.4675
  436MOL0     H57548  11.299   0.230   0.206 -0.8759 -0.0664 -1.8138
  436MOL0     H57549  11.410   0.308   0.109  0.1484  1.1136  1.7166
  436MOL0     H57550  11.561  -0.112   0.117  2.0886  0.2686 -1.2768
  436MOL0     H57551  11.169   0.613   0.547 -1.3827 -0.5239  1.4346
  436MOL0     H57552  10.977   0.751   0.569 -2.2778 -0.2156 -0.4043
  437MOL0     O57553   8.049   0.705   9.025  0.0073 -0.1970 -0.8857
  437MOL0     C57554   8.044   0.815   9.082 -0.5074  0.1926  0.1427
  437MOL0     O57555   7.934   0.877   9.131 -0.1599  0.2795 -0.1456
  437MOL0     C57556   7.803   0.874   9.076  0.4134 -0.3304  0.3835
  437MOL0     C57557   7.717   0.969   9.129  0.8133  0.6599 -0.0449
  437MOL0     C57558   7.587   0.982   9.078  0.9686 -0.5772  0.4672
  437MOL0     C57559   7.539   0.899   8.974 -0.4223  0.1562  0.8998
  437MOL0     O57560   7.414   0.909   8.924  0.4433  0.0991  0.2994
  437MOL0     C57561   7.312   0.966   9.007  0.1555  0.3955 -0.9572
  437MOL0     C57562   7.175   0.958   8.942  0.5941  0.1128  0.4058
  437MOL0     C57563   7.111   0.811   8.932  0.0255 -0.0951 -1.2527
  437MOL0     C57564   6.992   0.807   8.838  0.0573  0.3623 -0.0912
  437MOL0     C57565   6.861   0.850   8.901  0.2864 -0.9227 -1.5994
  437MOL0     C57566   6.753   0.811   8.806  1.1293 -0.1241 -0.5741
  437MOL0     C57567   6.606   0.840   8.858  0.0396  0.4998  0.2401
  437MOL0     C57568   6.581   0.990   8.851  0.0828  0.2383  0.7147
  437MOL0     N57569   6.443   1.021   8.862  1.3345  0.7772  0.8519
  437MOL0     C57570   6.371   1.118   8.793  0.2548  0.4282 -0.4417
  437MOL0     C57571   6.247   1.117   8.842  0.3379  0.0020  0.2832
  437MOL0     C57572   6.132   1.207   8.805 -0.5679  0.2504 -0.2769
  437MOL0     C57573   6.123   1.236   8.653  0.4880  0.2227  0.2574
  437MOL0     C57574   6.123   1.109   8.563  0.1101  0.9069  0.1690
  437MOL0     C57575   6.031   1.000   8.611 -0.1375 -0.8657 -0.0384
  437MOL0     O57576   5.900   1.056   8.640 -0.0574 -0.1298  0.5081
  437MOL0     C57577   5.820   0.984   8.736 -0.2341  0.2938 -0.4908
  437MOL0     C57578   5.824   0.848   8.749 -0.4346 -0.9147  0.4094
  437MOL0     C57579   5.739   0.784   8.841 -0.0932 -0.9904  0.7083
  437MOL0     C57580   5.638   0.851   8.911 -1.1999  0.7691 -0.5285
  437MOL0     C57581   5.536   0.787   9.000  0.3750  0.0879 -0.3044
  437MOL0     O57582   5.482   0.864   9.109 -0.7066  0.2617  0.7952
  437MOL0     C57583   5.413   0.798   9.214 -0.4544 -1.0590  0.0794
  437MOL0     C57584   5.465   0.699   9.301  0.8413 -0.2613  0.5932
  437MOL0     C57585   5.381   0.645   9.397  0.0057 -0.4689 -0.3714
  437MOL0     C57586   5.253   0.695   9.421 -0.9821  0.6395  0.4653
  437MOL0     O57587   5.185   0.652   9.528  0.3889 -0.2259 -0.5273
  437MOL0     C57588   5.067   0.578   9.489  0.8541 -0.1994  0.1163
  437MOL0     C57589   5.000   0.534   9.614 -0.1132  0.5790  0.0141
  437MOL0     C57590   4.870   0.454   9.581  1.1033 -0.4300  0.4197
  437MOL0     C57591   4.780   0.443   9.710 -0.4459 -0.2883  0.9101
  437MOL0     C57592   4.826   0.324   9.807  0.1552 -0.0621 -0.4921
  437MOL0     C57593   4.784   0.353   9.950 -0.1002  0.4316 -0.8678
  437MOL0     C57594   4.861   0.268  10.058 -0.5005  0.0466 -0.6166
  437MOL0     C57595   4.976   0.349  10.119  0.1976  0.7313  0.2897
  437MOL0    Cl57596   5.034   0.267  10.262  0.2665 -0.0953  0.1790
  437MOL0     C57597   5.200   0.793   9.339 -0.5874 -0.7465  0.4399
  437MOL0     C57598   5.285   0.847   9.239  0.6118 -0.2784 -0.0284
  437MOL0     O57599   5.491   0.676   8.962 -0.3212  0.1398 -0.4340
  437MOL0     C57600   5.645   0.990   8.898  0.9553 -0.2730  0.0191
  437MOL0     C57601   5.736   1.052   8.818 -0.9510 -0.4111 -0.2937
  437MOL0     N57602   6.241   1.011   8.930 -0.1793 -0.2702 -1.0983
  437MOL0     N57603   6.358   0.961   8.939 -0.4614  0.5179  0.6413
  437MOL0     C57604   7.633   0.810   8.918 -0.7794 -0.1171  0.3157
  437MOL0     C57605   7.762   0.800   8.964  0.1583  0.2450 -0.2069
  437MOL0     C57606   8.175   0.872   9.124  0.1264 -0.8708 -0.5335
  437MOL0     C57607   8.180   1.009   9.171 -0.2746  0.3808  0.4036
  437MOL0     C57608   8.312   1.050   9.202  0.8736 -0.3172  0.4308
  437MOL0     C57609   8.430   0.969   9.197 -0.1720  0.5857 -0.1983
  437MOL0     O57610   8.559   1.015   9.234 -0.0693 -0.4562 -0.2140
  437MOL0     C57611   8.572   1.157   9.266  0.1201 -0.5073  0.7838
  437MOL0     C57612   8.723   1.196   9.253  0.4592 -0.2335  0.0064
  437MOL0     C57613   8.807   1.100   9.332  0.4236 -0.5961  0.0797
  437MOL0     C57614   8.954   1.139   9.312  0.3817  0.3701 -0.1773
  437MOL0     C57615   9.024   1.019   9.362  1.1004 -0.3110 -0.5290
  437MOL0     C57616   9.093   0.924   9.397 -0.9697 -0.6105  0.6852
  437MOL0     C57617   8.413   0.843   9.158  0.3188  0.0054  0.1244
  437MOL0     C57618   8.292   0.795   9.113  0.1111 -0.0819 -0.5788
  437MOL0     H57619   7.748   1.038   9.206 -2.1611 -0.6590  2.5590
  437MOL0     H57620   7.520   1.062   9.107  1.9633 -0.3090  2.1661
  437MOL0     H57621   7.327   1.070   9.037  0.9385 -0.4280  1.8858
  437MOL0     H57622   7.310   0.910   9.101 -1.3534  0.3568 -0.9917
  437MOL0     H57623   7.185   0.995   8.840  0.0648 -2.7889 -0.7959
  437MOL0     H57624   7.104   1.021   8.996 -0.9544 -1.0166 -0.2291
  437MOL0     H57625   7.081   0.779   9.033  2.4831  0.1819 -0.3685
  437MOL0     H57626   7.175   0.729   8.896 -3.9083 -3.1914 -1.8824
  437MOL0     H57627   7.001   0.866   8.746 -2.9263  1.3755  0.1659
  437MOL0     H57628   6.981   0.701   8.815 -0.6955  0.9018 -2.5327
  437MOL0     H57629   6.857   0.958   8.918 -0.6210 -1.2107  0.2199
  437MOL0     H57630   6.847   0.810   9.002 -0.5414  2.3659 -0.2671
  437MOL0     H57631   6.758   0.706   8.774  1.6392 -0.0823 -0.6378
  437MOL0     H57632   6.768   0.862   8.710  0.2492  0.5864 -0.3507
  437MOL0     H57633   6.546   0.795   8.779  1.7471 -0.4228 -0.5995
  437MOL0     H57634   6.586   0.791   8.953  0.7113 -0.9090 -0.3062
  437MOL0     H57635   6.622   1.034   8.760 -2.1690 -0.6501 -0.8049
  437MOL0     H57636   6.626   1.042   8.937  0.1903  1.0479  0.1794
  437MOL0     H57637   6.412   1.178   8.712  0.6564  0.2869 -0.3438
  437MOL0     H57638   6.152   1.297   8.863 -1.3490  0.9830 -1.1294
  437MOL0     H57639   6.034   1.165   8.830 -1.0669  1.0733 -0.8100
  437MOL0     H57640   6.212   1.292   8.624  1.1731  1.0577  3.5515
  437MOL0     H57641   6.037   1.292   8.615  0.6952 -0.9895 -2.1899
  437MOL0     H57642   6.110   1.145   8.461  0.8032 -2.3021 -1.1999
  437MOL0     H57643   6.215   1.049   8.559  0.2657  1.1501  0.1141
  437MOL0     H57644   6.075   0.949   8.697  0.5663 -0.8840 -0.3988
  437MOL0     H57645   6.006   0.921   8.539  1.9437 -1.7835  0.1695
  437MOL0     H57646   5.892   0.783   8.695  1.1443  1.1761 -0.2628
  437MOL0     H57647   5.737   0.676   8.857 -3.0383 -0.8602  1.8891
  437MOL0     H57648   5.558   0.645   9.286 -0.5859 -2.1775 -2.4608
  437MOL0     H57649   5.429   0.572   9.461 -1.0626 -1.7208 -0.9590
  437MOL0     H57650   5.109   0.497   9.429  1.6635  1.2071 -1.3046
  437MOL0     H57651   4.991   0.636   9.436  0.1587  0.8945  2.2107
  437MOL0     H57652   4.958   0.626   9.656 -1.6107 -0.0182 -0.1160
  437MOL0     H57653   5.077   0.494   9.681  1.4881  1.1587 -1.3896
  437MOL0     H57654   4.900   0.355   9.545  0.6523 -0.2800 -0.4030
  437MOL0     H57655   4.813   0.508   9.506 -0.4931 -2.1644  0.3039
  437MOL0     H57656   4.771   0.544   9.750 -2.4313  0.7159 -1.7862
  437MOL0     H57657   4.680   0.416   9.677 -0.1563 -0.5995  0.2556
  437MOL0     H57658   4.935   0.331   9.810  0.3378 -1.2410 -2.7215
  437MOL0     H57659   4.798   0.224   9.775 -0.2094 -1.2362  3.0720
  437MOL0     H57660   4.675   0.343   9.958 -0.3422  3.6266  3.3024
  437MOL0     H57661   4.802   0.457   9.980 -2.9891  0.4718  1.1443
  437MOL0     H57662   4.789   0.237  10.134  0.1746 -0.4683 -0.1626
  437MOL0     H57663   4.895   0.171  10.019 -0.2676  0.1058 -0.5618
  437MOL0     H57664   4.939   0.446  10.154 -0.9213  0.7635 -0.9189
  437MOL0     H57665   5.063   0.351  10.052  0.5035 -4.7003  0.1238
  437MOL0     H57666   5.095   0.815   9.354 -0.5805 -0.1373 -0.3305
  437MOL0     H57667   5.251   0.918   9.164  2.5567  0.6798 -0.0381
  437MOL0     H57668   5.568   1.053   8.942 -0.2209 -0.2476 -1.9441
  437MOL0     H57669   5.730   1.160   8.809 -2.1896 -0.1694  2.3926
  437MOL0     H57670   7.604   0.747   8.834 -0.8942 -1.3442  1.2501
  437MOL0     H57671   7.826   0.737   8.903 -0.7296  0.9283 -1.9155
  437MOL0     H57672   8.090   1.068   9.186 -0.6651 -0.0342 -0.2784
  437MOL0     H57673   8.310   1.153   9.234 -2.1958  0.0728 -0.6343
  437MOL0     H57674   8.526   1.192   9.360 -0.5138 -1.1610  0.7237
  437MOL0     H57675   8.518   1.218   9.192  1.7954  2.0849  1.5496
  437MOL0     H57676   8.755   1.195   9.148  4.2615  1.5294  0.9538
  437MOL0     H57677   8.746   1.302   9.273  1.1523 -0.6829  1.7095
  437MOL0     H57678   8.797   0.998   9.292  3.0028 -0.2060 -1.8168
  437MOL0     H57679   8.786   1.104   9.440  1.9639  0.9959  0.3573
  437MOL0     H57680   8.979   1.150   9.206 -2.4127  1.3978 -0.8091
  437MOL0     H57681   8.986   1.231   9.360 -1.0217  0.6377  0.2872
  437MOL0     H57682   9.152   0.842   9.433 -1.1946 -1.3532 -0.5961
  437MOL0     H57683   8.504   0.788   9.135 -0.8162 -1.6525 -0.5527
  437MOL0     H57684   8.289   0.693   9.074 -0.7602 -0.2295 -0.1380
  438MOL0     O57685  11.262  11.163   3.080  1.0896 -0.2675 -0.0351
  438MOL0     C57686  11.329  11.209   2.995 -0.5334  0.0859 -0.2877
  438MOL0     O57687  11.295  11.219   2.860 -0.4621  1.2087 -0.5523
  438MOL0     C57688  11.163  11.196   2.827 -0.0670 -0.6450 -0.5432
  438MOL0     C57689  11.067  11.287   2.872  0.1297  0.3709  0.5331
  438MOL0     C57690  10.933  11.264   2.840 -0.5912  0.2104 -0.4446
  438MOL0     C57691  10.899  11.147   2.778 -0.0634 -0.8594  0.2700
  438MOL0     O57692  10.767  11.116   2.748 -0.1526  0.7952 -0.1527
  438MOL0     C57693  10.658  11.213   2.783 -0.0697  0.3172 -0.2919
  438MOL0     C57694  10.521  11.141   2.771  0.4988 -0.5902  0.8292
  438MOL0     C57695  10.413  11.236   2.738  0.5200 -0.9203  0.1938
  438MOL0     C57696  10.273  11.168   2.745  0.1409  0.6795 -0.3116
  438MOL0     C57697  10.157  11.268   2.718  0.4177  0.9670  0.6278
  438MOL0     C57698  10.027  11.179   2.713  0.0843  0.8640 -0.0997
  438MOL0     C57699   9.907  11.245   2.651  1.0062 -0.7346 -0.3598
  438MOL0     C57700   9.785  11.152   2.660  0.4289  0.8772  0.0423
  438MOL0     N57701   9.809  11.016   2.603  1.1973 -0.6072  0.4590
  438MOL0     C57702   9.869  11.008   2.481 -0.9345 -0.3467  0.4058
  438MOL0     C57703   9.896  10.869   2.470  0.7119 -0.5715 -0.4710
  438MOL0     C57704   9.954  10.797   2.351  0.2232 -0.3530  0.2009
  438MOL0     C57705  10.106  10.800   2.336  0.4944 -0.0716  0.2308
  438MOL0     C57706  10.171  10.717   2.451 -0.0921 -0.3072  0.6886
  438MOL0     C57707  10.321  10.683   2.426  0.0896  0.7936  0.7212
  438MOL0     O57708  10.397  10.810   2.418  0.4372 -0.3123  0.1953
  438MOL0     C57709  10.531  10.800   2.398 -0.8255  0.5452  0.4457
  438MOL0     C57710  10.617  10.831   2.506 -0.3577  0.5233 -0.4498
  438MOL0     C57711  10.758  10.824   2.483 -0.2675  0.3816 -0.0090
  438MOL0     C57712  10.813  10.779   2.355 -0.1763  0.4349 -0.3668
  438MOL0     C57713  10.963  10.781   2.335  0.6244  0.1497 -0.4708
  438MOL0     O57714  11.032  10.799   2.451 -0.2268 -0.3919 -0.5159
  438MOL0     C57715  11.161  10.840   2.463  0.9027  1.1317 -0.4357
  438MOL0     C57716  11.225  10.921   2.376  0.0403  0.3596  0.3673
  438MOL0     C57717  11.359  10.931   2.379 -0.6188  0.4079 -0.1067
  438MOL0     C57718  11.444  10.865   2.468  0.1680  0.3567 -0.7804
  438MOL0     O57719  11.584  10.887   2.463 -0.0287 -0.0283 -0.2490
  438MOL0     C57720  11.658  10.781   2.496 -0.2969  0.4316  0.0714
  438MOL0     C57721  11.801  10.788   2.447  0.0509 -0.4115 -0.0681
  438MOL0     C57722  11.879  10.673   2.507 -0.0156 -0.3750 -0.0662
  438MOL0     C57723  12.019  10.659   2.443  0.2914 -0.5470  0.9213
  438MOL0     C57724  12.024  10.581   2.304 -0.0130  0.9195 -0.0372
  438MOL0     C57725  12.167  10.597   2.231  0.0639 -0.4439  0.0152
  438MOL0     C57726  12.284  10.529   2.310  0.6127 -0.3857  0.0378
  438MOL0     C57727  12.430  10.543   2.248  0.6521  0.1540 -0.1242
  438MOL0    Cl57728  12.547  10.442   2.336  0.2892 -0.2789 -0.1373
  438MOL0     C57729  11.379  10.783   2.563  0.3645  0.1600  0.4497
  438MOL0     C57730  11.238  10.761   2.555  0.4450  0.2972 -0.1959
  438MOL0     O57731  11.009  10.771   2.218  0.3293  0.0675 -0.8416
  438MOL0     C57732  10.725  10.726   2.264 -0.5387  0.3858  0.5374
  438MOL0     C57733  10.583  10.740   2.278  0.1139  0.1511  0.2122
  438MOL0     N57734   9.843  10.803   2.581  0.6966  0.6247  0.2451
  438MOL0     N57735   9.793  10.895   2.663 -0.3137  0.0811  0.3671
  438MOL0     C57736  10.997  11.056   2.744 -0.7280  0.4434  0.3024
  438MOL0     C57737  11.132  11.075   2.767  0.6068 -0.7737 -1.4067
  438MOL0     C57738  11.462  11.259   3.028 -1.2803 -1.0218  0.8844
  438MOL0     C57739  11.532  11.338   2.934  1.3636 -0.5585 -0.2205
  438MOL0     C57740  11.653  11.390   2.957 -0.3949 -0.0259  1.0921
  438MOL0     C57741  11.727  11.364   3.079 -0.0316  0.5989 -0.0993
  438MOL0     O57742  11.857  11.416   3.091 -0.6343  1.0595  0.4405
  438MOL0     C57743  11.942  11.356   3.194 -0.4139  0.0169 -0.7044
  438MOL0     C57744  11.923  11.435   3.329  0.9173 -0.1902  0.5368
  438MOL0     C57745  12.009  11.381   3.443  0.6629 -0.3843  0.3355
  438MOL0     C57746  11.992  11.461   3.576 -0.0995 -0.0447 -0.1947
  438MOL0     C57747  11.854  11.456   3.630  0.0236  0.4054 -0.7817
  438MOL0     C57748  11.737  11.438   3.670 -0.4500  1.2270 -0.6964
  438MOL0     C57749  11.664  11.281   3.175 -0.2815  1.0954 -0.0781
  438MOL0     C57750  11.535  11.227   3.149 -0.4549 -0.6302  0.3492
  438MOL0     H57751  11.108  11.373   2.925  0.2305 -0.2878  1.5512
  438MOL0     H57752  10.863  11.345   2.858 -1.0145 -0.3218  0.3564
  438MOL0     H57753  10.663  11.299   2.716 -1.1188  0.9469  0.3983
  438MOL0     H57754  10.658  11.245   2.888  0.7865  0.4373 -0.3244
  438MOL0     H57755  10.492  11.083   2.859  0.1264 -1.5841  0.0716
  438MOL0     H57756  10.520  11.069   2.688 -1.4716 -0.6834  0.8706
  438MOL0     H57757  10.433  11.278   2.639 -1.4175  1.6292  0.7491
  438MOL0     H57758  10.411  11.322   2.806  2.6373 -2.6897  2.7104
  438MOL0     H57759  10.271  11.091   2.667  1.3505  0.7924 -0.4731
  438MOL0     H57760  10.258  11.122   2.843 -2.3556 -0.4567 -1.1445
  438MOL0     H57761  10.176  11.297   2.614  3.2213 -3.4827 -0.3728
  438MOL0     H57762  10.144  11.356   2.782  4.0802  0.8800  1.6824
  438MOL0     H57763  10.002  11.150   2.815 -0.4032  2.0168  0.1245
  438MOL0     H57764  10.045  11.089   2.653 -0.1701  1.2791 -0.8074
  438MOL0     H57765   9.887  11.337   2.707 -3.3817 -1.5495 -0.2218
  438MOL0     H57766   9.930  11.258   2.545 -0.8435 -0.8805 -0.8069
  438MOL0     H57767   9.699  11.191   2.604 -0.9676 -0.5138  1.1154
  438MOL0     H57768   9.751  11.142   2.763 -2.9837  0.4772 -0.9927
  438MOL0     H57769   9.883  11.086   2.407 -1.7587  2.0467  2.6317
  438MOL0     H57770   9.909  10.837   2.260 -1.7604  0.6480  1.5344
  438MOL0     H57771   9.917  10.695   2.361 -0.5422  0.0896  2.5844
  438MOL0     H57772  10.140  10.904   2.340  0.4063 -0.0810  1.3235
  438MOL0     H57773  10.136  10.763   2.237  0.9124 -1.0650  0.7198
  438MOL0     H57774  10.168  10.771   2.546  2.6490  1.1830  0.0163
  438MOL0     H57775  10.115  10.623   2.458  0.5754 -0.6794  1.1623
  438MOL0     H57776  10.338  10.633   2.330 -0.6014  1.1071  0.4283
  438MOL0     H57777  10.363  10.618   2.504 -2.8952  1.1623  2.8205
  438MOL0     H57778  10.578  10.869   2.600 -0.0830 -0.4276  0.0565
  438MOL0     H57779  10.818  10.848   2.570  1.3527 -1.3077 -0.5961
  438MOL0     H57780  11.163  10.974   2.304  1.4789  2.8590  0.8631
  438MOL0     H57781  11.399  11.011   2.318 -0.4789  2.0634  2.0011
  438MOL0     H57782  11.618  10.682   2.473  0.7349 -0.0927  0.4692
  438MOL0     H57783  11.663  10.789   2.605 -0.5286  1.2501  0.0317
  438MOL0     H57784  11.846  10.879   2.487 -2.7443  1.5471 -1.0190
  438MOL0     H57785  11.811  10.780   2.339 -0.5344 -1.6577 -0.0542
  438MOL0     H57786  11.828  10.579   2.485 -0.1769 -0.0218 -1.2857
  438MOL0     H57787  11.907  10.686   2.612 -0.1478 -1.9351  0.1785
  438MOL0     H57788  12.067  10.756   2.429  0.0762 -0.1656  2.6154
  438MOL0     H57789  12.081  10.596   2.507  1.0829 -1.2239 -0.4691
  438MOL0     H57790  11.938  10.604   2.241  0.3104  0.4117 -0.6797
  438MOL0     H57791  12.010  10.476   2.331 -2.9963  0.3720 -3.1113
  438MOL0     H57792  12.190  10.703   2.220 -0.1472 -0.4873 -0.9494
  438MOL0     H57793  12.163  10.553   2.130  0.7901  0.5895 -0.4794
  438MOL0     H57794  12.275  10.567   2.412  0.8513 -1.4404  0.4651
  438MOL0     H57795  12.268  10.425   2.339 -0.5079 -0.8185 -1.8791
  438MOL0     H57796  12.456  10.649   2.257  2.7149 -0.1731 -1.3511
  438MOL0     H57797  12.436  10.527   2.139  6.9569  1.8721 -0.4467
  438MOL0     H57798  11.421  10.712   2.634 -0.7382 -0.4961  0.4599
  438MOL0     H57799  11.177  10.691   2.611 -1.2732 -0.5929 -2.9384
  438MOL0     H57800  10.770  10.659   2.191  1.0775 -0.7833  2.5020
  438MOL0     H57801  10.523  10.690   2.203  1.6919  1.0896 -1.7777
  438MOL0     H57802  10.978  10.955   2.709  0.3570  0.8246 -1.5173
  438MOL0     H57803  11.213  11.005   2.748  3.2410  1.8066 -0.3981
  438MOL0     H57804  11.498  11.355   2.832  0.1498 -1.1587  0.0648
  438MOL0     H57805  11.698  11.443   2.874 -1.4330  0.5678  0.8890
  438MOL0     H57806  12.049  11.362   3.172 -0.2660  0.5897  0.0956
  438MOL0     H57807  11.925  11.249   3.205  0.4389 -0.2451 -1.8029
  438MOL0     H57808  11.947  11.540   3.311 -1.5216  0.0478 -2.2262
  438MOL0     H57809  11.819  11.427   3.361 -0.0525  3.0231 -1.3641
  438MOL0     H57810  12.116  11.385   3.418  0.0668  0.0562 -2.5791
  438MOL0     H57811  11.984  11.275   3.454 -2.4722  0.0729 -1.2038
  438MOL0     H57812  12.070  11.441   3.650  0.8457  2.2700 -0.4786
  438MOL0     H57813  12.012  11.564   3.545 -2.6309  0.6099  0.1001
  438MOL0     H57814  11.635  11.427   3.701  0.0805  0.4962  0.8921
  438MOL0     H57815  11.713  11.266   3.271 -0.3446 -2.2059 -0.4496
  438MOL0     H57816  11.488  11.155   3.216 -3.8308  1.2161  0.1770
  439MOL0     O57817   3.491   6.375   4.929 -0.2792 -0.1034  0.1788
  439MOL0     C57818   3.516   6.289   4.847 -0.1130  0.4168 -0.2938
  439MOL0     O57819   3.417   6.220   4.776 -0.2675  0.2948  0.0736
  439MOL0     C57820   3.283   6.230   4.796  0.3767 -0.0432 -0.3440
  439MOL0     C57821   3.206   6.173   4.694  0.6839  0.3773 -0.9884
  439MOL0     C57822   3.062   6.185   4.693 -0.8976  0.5253  0.0979
  439MOL0     C57823   2.997   6.248   4.805  0.1363 -0.7390 -0.0406
  439MOL0     O57824   2.864   6.266   4.820 -0.0267  0.4529  0.2337
  439MOL0     C57825   2.782   6.155   4.789 -0.3570  0.2149 -0.9462
  439MOL0     C57826   2.644   6.220   4.793 -0.7374  0.2799 -0.1855
  439MOL0     C57827   2.536   6.151   4.713 -0.2408  0.5705 -0.3456
  439MOL0     C57828   2.485   6.009   4.758 -0.4750 -0.9012  0.3054
  439MOL0     C57829   2.404   5.936   4.649 -0.2800  0.8242  0.1959
  439MOL0     C57830   2.260   5.904   4.690  0.3519  0.8952 -0.4782
  439MOL0     C57831   2.157   6.015   4.678 -0.0093  0.0948  0.9451
  439MOL0     C57832   2.121   6.049   4.531  0.1214 -0.1838  0.0696
  439MOL0     N57833   1.982   6.097   4.517 -0.4392 -0.6244 -0.4098
  439MOL0     C57834   1.949   6.222   4.483  0.6808  0.2515  0.9815
  439MOL0     C57835   1.818   6.208   4.438  0.3444 -0.1029  0.0754
  439MOL0     C57836   1.736   6.319   4.373  0.4889  0.1678  0.4384
  439MOL0     C57837   1.706   6.446   4.455 -0.6735 -0.1581 -0.2894
  439MOL0     C57838   1.615   6.549   4.378 -0.8810  0.0021  0.1473
  439MOL0     C57839   1.472   6.507   4.331  0.2740 -0.2402  0.2228
  439MOL0     O57840   1.410   6.605   4.251 -0.3382  0.2401  0.2551
  439MOL0     C57841   1.287   6.569   4.216 -0.5643 -0.5167  0.3492
  439MOL0     C57842   1.216   6.453   4.255  0.8653  0.2929 -0.2270
  439MOL0     C57843   1.095   6.419   4.191 -0.2289 -0.1071  0.1505
  439MOL0     C57844   1.054   6.497   4.083 -0.5709  0.4367 -0.1709
  439MOL0     C57845   0.927   6.465   4.014 -0.5046 -0.4362 -0.7114
  439MOL0     O57846   0.877   6.341   4.050  0.1628  0.0671  0.5633
  439MOL0     C57847   0.757   6.322   3.989  0.5202  0.3467 -0.0096
  439MOL0     C57848   0.725   6.310   3.846  0.3291 -1.1907 -0.3020
  439MOL0     C57849   0.591   6.298   3.812  0.2574  0.0742  0.3336
  439MOL0     C57850   0.486   6.311   3.905 -0.3357  0.2926  0.2350
  439MOL0     O57851   0.356   6.315   3.873  0.0584 -0.2448 -0.4532
  439MOL0     C57852   0.322   6.296   3.737  0.4761  0.4275 -0.1189
  439MOL0     C57853   0.160   6.299   3.724 -0.0447 -0.8031  0.3675
  439MOL0     C57854   0.082   6.182   3.777 -0.9716 -0.6629 -0.2391
  439MOL0     C57855  -0.060   6.159   3.705 -1.2917 -0.4232 -0.0917
  439MOL0     C57856  -0.125   6.025   3.755 -0.3590 -0.2268  0.2588
  439MOL0     C57857  -0.256   6.002   3.674  0.1409 -0.7921 -0.0076
  439MOL0     C57858  -0.362   6.071   3.754  0.0143  0.5920  1.0657
  439MOL0     C57859  -0.495   6.069   3.691 -0.0641 -0.3910 -0.1522
  439MOL0    Cl57860  -0.573   5.912   3.729 -0.0667  0.0139 -0.2313
  439MOL0     C57861   0.514   6.317   4.035 -0.0221  0.3826 -0.1865
  439MOL0     C57862   0.646   6.324   4.078  0.1593  0.2459  0.5529
  439MOL0     O57863   0.891   6.542   3.921  0.2577 -0.2270  0.1259
  439MOL0     C57864   1.115   6.616   4.049  0.2671  1.2915 -0.1839
  439MOL0     C57865   1.231   6.658   4.112  0.6269 -0.2980  0.0589
  439MOL0     N57866   1.777   6.079   4.432  0.0158  0.6402  0.5640
  439MOL0     N57867   1.875   6.015   4.483 -0.3513  0.2006 -0.0210
  439MOL0     C57868   3.075   6.311   4.909  0.2134  0.6355  0.0013
  439MOL0     C57869   3.213   6.292   4.905  0.2140 -0.6835 -0.1228
  439MOL0     C57870   3.661   6.270   4.801  0.4339 -0.2426  0.1458
  439MOL0     C57871   3.693   6.158   4.717 -0.4645 -0.2029  0.6279
  439MOL0     C57872   3.816   6.155   4.670 -0.8771  0.5394 -0.0937
  439MOL0     C57873   3.916   6.244   4.714  0.0807 -0.1253 -0.1223
  439MOL0     O57874   4.035   6.230   4.655  0.1261 -0.2402 -0.6618
  439MOL0     C57875   4.153   6.282   4.724  0.2277 -0.5573 -0.2498
  439MOL0     C57876   4.265   6.259   4.626 -0.0783 -0.1447 -0.4364
  439MOL0     C57877   4.390   6.347   4.654  0.9235  0.1753  0.7273
  439MOL0     C57878   4.525   6.292   4.606 -0.1300  0.1027 -0.4752
  439MOL0     C57879   4.541   6.285   4.455  1.3062 -0.7414 -0.3353
  439MOL0     C57880   4.551   6.297   4.337 -0.1930  1.2499  0.6810
  439MOL0     C57881   3.881   6.345   4.802  0.3215  0.1631 -0.1724
  439MOL0     C57882   3.758   6.370   4.841  0.9847 -0.0545 -0.6721
  439MOL0     H57883   3.270   6.123   4.622 -0.0319 -3.3201  0.6786
  439MOL0     H57884   3.008   6.142   4.609  1.4436  0.7552 -1.6056
  439MOL0     H57885   2.776   6.080   4.868 -2.8233  1.9321  0.5991
  439MOL0     H57886   2.817   6.106   4.697 -0.8450  0.2167 -1.1373
  439MOL0     H57887   2.653   6.321   4.752 -1.7738  0.2782 -0.4478
  439MOL0     H57888   2.608   6.222   4.896 -1.3324 -0.3145 -0.3673
  439MOL0     H57889   2.589   6.148   4.618  0.2499  1.5921 -0.1119
  439MOL0     H57890   2.447   6.213   4.702 -1.5945 -0.8231  1.9425
  439MOL0     H57891   2.569   5.945   4.785  0.5985  0.2110 -0.3020
  439MOL0     H57892   2.437   6.017   4.856 -0.0534 -2.4025  0.6679
  439MOL0     H57893   2.461   5.849   4.617  2.8147  2.2195  1.4896
  439MOL0     H57894   2.415   6.007   4.566  3.4217  1.3227  0.9660
  439MOL0     H57895   2.258   5.883   4.798 -0.2039  1.7601 -0.3022
  439MOL0     H57896   2.226   5.813   4.640  0.2978  0.1723  0.8405
  439MOL0     H57897   2.068   5.991   4.736 -0.3906 -0.0678  0.3096
  439MOL0     H57898   2.203   6.102   4.727  0.2782  2.4058 -2.9669
  439MOL0     H57899   2.149   5.964   4.469  2.0884 -0.1309  0.8155
  439MOL0     H57900   2.199   6.116   4.492  1.7899 -1.6801  0.7003
  439MOL0     H57901   2.014   6.309   4.484  1.0444  0.0326 -0.9141
  439MOL0     H57902   1.638   6.275   4.350  0.9265 -0.5631 -0.0752
  439MOL0     H57903   1.793   6.342   4.282 -1.1955 -1.7744 -1.2236
  439MOL0     H57904   1.806   6.484   4.481  0.5659 -3.9759  1.2213
  439MOL0     H57905   1.670   6.424   4.556  2.0004 -2.2913  0.3317
  439MOL0     H57906   1.613   6.636   4.444  1.2547  1.9046 -2.1275
  439MOL0     H57907   1.673   6.582   4.292  0.5180 -2.1245  0.1889
  439MOL0     H57908   1.409   6.496   4.420 -0.7695  0.3776 -0.4179
  439MOL0     H57909   1.477   6.411   4.280 -0.9857 -0.8637  1.1899
  439MOL0     H57910   1.250   6.386   4.333 -0.4493  1.0620  1.0633
  439MOL0     H57911   1.035   6.334   4.219  0.1980 -0.0562  1.2858
  439MOL0     H57912   0.805   6.319   3.774  2.4537  1.9409  2.1497
  439MOL0     H57913   0.579   6.290   3.704  1.7177 -2.6091  0.2924
  439MOL0     H57914   0.368   6.200   3.712 -1.0096 -0.7415  1.4342
  439MOL0     H57915   0.360   6.378   3.675 -1.6021  0.9153 -0.8630
  439MOL0     H57916   0.146   6.309   3.616  1.3682  1.3294  0.3125
  439MOL0     H57917   0.122   6.394   3.761 -2.1489 -1.6589  0.5151
  439MOL0     H57918   0.074   6.199   3.885  0.3691 -1.3441 -0.0179
  439MOL0     H57919   0.141   6.090   3.766  2.8723  1.6547 -0.6136
  439MOL0     H57920  -0.112   6.246   3.746 -0.2707  0.0229  0.3084
  439MOL0     H57921  -0.048   6.165   3.596  1.5411  0.0126  0.1667
  439MOL0     H57922  -0.145   6.028   3.862 -1.3046 -0.5665  0.1108
  439MOL0     H57923  -0.062   5.937   3.740 -0.6670 -0.1750 -1.6919
  439MOL0     H57924  -0.278   5.895   3.670 -0.3423 -0.6542 -2.6556
  439MOL0     H57925  -0.248   6.032   3.569  2.2439  0.1691  0.3738
  439MOL0     H57926  -0.379   6.016   3.848  0.7480 -0.5870  0.5319
  439MOL0     H57927  -0.323   6.170   3.778  0.6639  0.9711 -1.3529
  439MOL0     H57928  -0.482   6.082   3.583  0.9368 -1.4810 -0.1857
  439MOL0     H57929  -0.551   6.147   3.743  1.3236 -0.1186  1.0126
  439MOL0     H57930   0.446   6.327   4.118 -0.8008  1.0654 -0.8885
  439MOL0     H57931   0.671   6.341   4.182  1.9955 -1.5588  0.4686
  439MOL0     H57932   1.070   6.676   3.970 -2.8884 -0.0861  0.4468
  439MOL0     H57933   1.282   6.749   4.083 -0.6282 -0.2858 -2.3071
  439MOL0     H57934   3.030   6.357   4.996  1.5270 -0.8695  1.5541
  439MOL0     H57935   3.271   6.319   4.992 -0.5308  0.0065  0.1659
  439MOL0     H57936   3.628   6.079   4.681  1.5512 -1.7925  0.3606
  439MOL0     H57937   3.832   6.083   4.591 -0.3237  0.9530 -0.3650
  439MOL0     H57938   4.172   6.225   4.815 -1.7500 -0.1527  0.4624
  439MOL0     H57939   4.148   6.389   4.746 -1.0378 -1.2473  3.6257
  439MOL0     H57940   4.284   6.152   4.620 -0.5184 -0.2537  0.0515
  439MOL0     H57941   4.229   6.289   4.527  1.4904 -0.0693 -1.0096
  439MOL0     H57942   4.396   6.358   4.763  1.7367  0.6614  0.6422
  439MOL0     H57943   4.362   6.441   4.606 -0.5995 -0.4048  0.4137
  439MOL0     H57944   4.599   6.360   4.650  0.4892 -0.7686 -0.1451
  439MOL0     H57945   4.545   6.193   4.648 -2.5992 -0.4231 -0.4161
  439MOL0     H57946   4.551   6.289   4.230 -0.0490 -1.0401  0.8096
  439MOL0     H57947   3.957   6.418   4.824  0.9620 -0.6145  0.2342
  439MOL0     H57948   3.746   6.455   4.908 -1.2381 -0.8022 -0.0020
  440MOL0     O57949   8.918   7.527   4.423 -0.8153  0.1522  0.1577
  440MOL0     C57950   8.964   7.421   4.387 -0.6676 -0.2499 -0.5268
  440MOL0     O57951   8.885   7.305   4.356  0.1858 -0.4919 -0.3099
  440MOL0     C57952   8.741   7.324   4.352 -0.2834 -0.2917 -0.4432
  440MOL0     C57953   8.669   7.371   4.461  0.8564  0.3234  0.5779
  440MOL0     C57954   8.529   7.396   4.441  0.5039 -0.9913  0.8105
  440MOL0     C57955   8.457   7.357   4.326 -0.2440  0.5283  0.7805
  440MOL0     O57956   8.323   7.383   4.334 -0.4994 -0.1012 -0.2759
  440MOL0     C57957   8.246   7.329   4.226  0.1717  0.4306 -0.4836
  440MOL0     C57958   8.093   7.345   4.266 -0.3338  0.1176 -0.3908
  440MOL0     C57959   8.045   7.296   4.408 -0.8666  0.5856 -0.1549
  440MOL0     C57960   7.905   7.324   4.472  0.2725 -0.5671  0.2591
  440MOL0     C57961   7.797   7.267   4.384 -0.2840 -0.3634 -0.9043
  440MOL0     C57962   7.658   7.261   4.444  0.4879  0.5472  0.5932
  440MOL0     C57963   7.604   7.405   4.467  0.9179  0.3092 -0.2864
  440MOL0     C57964   7.464   7.382   4.524  0.1945  0.4295 -0.0471
  440MOL0     N57965   7.400   7.510   4.560  0.4264  0.2597 -0.7727
  440MOL0     C57966   7.422   7.569   4.688 -0.4065  0.0227 -0.3272
  440MOL0     C57967   7.331   7.674   4.686 -0.2059 -0.3191 -0.2661
  440MOL0     C57968   7.309   7.777   4.794 -0.1472 -0.3173 -0.2721
  440MOL0     C57969   7.177   7.756   4.865  0.5109  0.0384  0.0048
  440MOL0     C57970   7.173   7.624   4.949 -0.4779 -0.1983  0.5408
  440MOL0     C57971   7.042   7.603   5.034 -0.7861  0.2695  0.2342
  440MOL0     O57972   6.928   7.630   4.943  0.1666  0.0218 -0.3415
  440MOL0     C57973   6.807   7.590   4.984  0.7538 -0.5124  0.8893
  440MOL0     C57974   6.720   7.563   4.888  0.2678 -0.3363  0.2971
  440MOL0     C57975   6.586   7.527   4.910  0.5871  0.0108 -0.2089
  440MOL0     C57976   6.544   7.499   5.039 -0.0003 -0.0971 -0.7126
  440MOL0     C57977   6.406   7.452   5.068 -0.1621 -0.3230 -0.3004
  440MOL0     O57978   6.376   7.400   5.194  0.4880  0.8837 -0.1848
  440MOL0     C57979   6.239   7.386   5.213 -0.2042 -0.3579  0.6103
  440MOL0     C57980   6.179   7.478   5.292  0.2251 -0.4052  0.1579
  440MOL0     C57981   6.047   7.481   5.336 -0.3554 -0.1921  0.0547
  440MOL0     C57982   5.972   7.364   5.281 -0.6099 -0.2886 -0.0472
  440MOL0     O57983   5.846   7.360   5.326 -0.2999  0.1523 -0.0283
  440MOL0     C57984   5.787   7.233   5.318 -0.6647 -0.8718 -0.3004
  440MOL0     C57985   5.645   7.245   5.374  0.2225  0.6608 -0.4115
  440MOL0     C57986   5.631   7.326   5.513  0.0328  0.1431  1.2562
  440MOL0     C57987   5.477   7.315   5.563  0.4325  0.4556  0.2322
  440MOL0     C57988   5.458   7.182   5.645 -0.0326  0.1188 -0.4134
  440MOL0     C57989   5.350   7.211   5.753  0.2330  0.5967 -0.1931
  440MOL0     C57990   5.302   7.081   5.813  0.2860 -1.3962 -0.3535
  440MOL0     C57991   5.214   7.120   5.929 -0.5930  0.4766 -1.4332
  440MOL0    Cl57992   5.061   7.165   5.853 -0.0992 -0.2529 -0.5021
  440MOL0     C57993   6.038   7.270   5.191  0.1056 -0.0224 -0.7316
  440MOL0     C57994   6.169   7.280   5.165 -0.0627  0.0401  0.1269
  440MOL0     O57995   6.331   7.465   4.974 -0.2580  0.3612  0.2133
  440MOL0     C57996   6.638   7.524   5.144  0.2153  0.0194 -0.6307
  440MOL0     C57997   6.768   7.581   5.121 -1.0063  0.2188 -0.4132
  440MOL0     N57998   7.267   7.684   4.563  0.2039 -0.5645 -0.3282
  440MOL0     N57999   7.310   7.587   4.488  0.1052  0.4238 -0.1810
  440MOL0     C58000   8.537   7.297   4.216 -0.6544 -0.7772  0.4764
  440MOL0     C58001   8.672   7.281   4.236  0.0999 -0.2039  0.3573
  440MOL0     C58002   9.111   7.413   4.387 -0.0988 -0.1716  0.8031
  440MOL0     C58003   9.185   7.525   4.393 -0.1107 -0.4305  1.0392
  440MOL0     C58004   9.328   7.517   4.382 -0.2206 -0.0534  0.3772
  440MOL0     C58005   9.394   7.394   4.389 -0.2528  0.3044  0.7590
  440MOL0     O58006   9.532   7.391   4.398  0.0341 -0.4185 -0.4130
  440MOL0     C58007   9.601   7.268   4.378  0.4194  0.4404  0.6554
  440MOL0     C58008   9.748   7.287   4.398  1.7004 -0.0899  0.1632
  440MOL0     C58009   9.821   7.357   4.287 -0.9744  0.0374  0.1107
  440MOL0     C58010   9.974   7.333   4.293  0.8535  0.9108  0.4395
  440MOL0     C58011  10.037   7.437   4.223  0.7338 -0.6638  0.5702
  440MOL0     C58012  10.082   7.530   4.164 -0.2270  0.3853 -0.2141
  440MOL0     C58013   9.307   7.284   4.383  0.2816  0.2967 -0.2017
  440MOL0     C58014   9.166   7.291   4.384 -0.0210 -0.3426  0.9849
  440MOL0     H58015   8.722   7.391   4.554  0.3932  2.8801  0.3403
  440MOL0     H58016   8.464   7.440   4.516 -1.0054  0.1191 -1.0541
  440MOL0     H58017   8.264   7.222   4.213  1.1525  0.7477 -1.9473
  440MOL0     H58018   8.261   7.376   4.129  0.5131 -2.9423 -2.2062
  440MOL0     H58019   8.047   7.290   4.183 -0.3222  0.2175 -0.4631
  440MOL0     H58020   8.073   7.452   4.254 -2.5512 -0.1516  0.3774
  440MOL0     H58021   8.123   7.334   4.475  2.8021  0.5039 -3.9517
  440MOL0     H58022   8.058   7.187   4.404 -0.7494  0.5071  1.5569
  440MOL0     H58023   7.908   7.274   4.570  0.8881 -1.6596 -0.2931
  440MOL0     H58024   7.890   7.430   4.495 -1.2756 -1.1330  2.1335
  440MOL0     H58025   7.833   7.168   4.354  1.8052  0.2589 -0.6033
  440MOL0     H58026   7.803   7.333   4.297  0.4124  0.3653 -0.3287
  440MOL0     H58027   7.669   7.216   4.543  0.1605 -0.4409  0.1985
  440MOL0     H58028   7.590   7.195   4.388  1.4400  0.4220 -0.4649
  440MOL0     H58029   7.655   7.476   4.532  0.4310  0.2536  0.1696
  440MOL0     H58030   7.613   7.454   4.370  3.9578  0.8148  0.1706
  440MOL0     H58031   7.468   7.311   4.607  0.1240 -0.1569 -0.5326
  440MOL0     H58032   7.404   7.338   4.444  0.6565 -1.4241  0.5716
  440MOL0     H58033   7.499   7.545   4.760 -0.8895 -3.0041 -0.6870
  440MOL0     H58034   7.304   7.873   4.742 -0.8095  0.7981  1.7425
  440MOL0     H58035   7.393   7.781   4.863  0.8545  1.7668 -1.5272
  440MOL0     H58036   7.099   7.760   4.788  0.6870  0.9762 -0.1371
  440MOL0     H58037   7.167   7.844   4.928  0.5985  0.0060  0.0646
  440MOL0     H58038   7.181   7.541   4.879 -0.1500  0.1481  0.1561
  440MOL0     H58039   7.266   7.611   5.006  1.2030  0.4347 -1.8693
  440MOL0     H58040   7.041   7.672   5.119  0.4831 -1.3079  1.5813
  440MOL0     H58041   7.027   7.502   5.073 -0.2348 -0.0815 -0.4418
  440MOL0     H58042   6.745   7.581   4.784 -1.7777 -0.6683 -0.3055
  440MOL0     H58043   6.524   7.498   4.825  0.3351  4.7057 -1.9129
  440MOL0     H58044   6.246   7.550   5.336  2.3289 -1.8650 -0.5032
  440MOL0     H58045   6.004   7.568   5.384  2.1210  1.3751 -0.3806
  440MOL0     H58046   5.849   7.163   5.375  0.2110 -0.6609 -0.9666
  440MOL0     H58047   5.785   7.195   5.216 -0.8492  0.3276 -0.7578
  440MOL0     H58048   5.609   7.143   5.388  1.0671  0.3534 -0.4313
  440MOL0     H58049   5.584   7.303   5.303 -3.9739  0.7717  2.8944
  440MOL0     H58050   5.642   7.433   5.492  0.0337 -0.4807 -2.4841
  440MOL0     H58051   5.706   7.304   5.589  3.4574  1.9207 -1.3256
  440MOL0     H58052   5.434   7.407   5.603 -0.2605  1.3527 -2.3870
  440MOL0     H58053   5.408   7.309   5.479 -2.9264  0.1234  2.7938
  440MOL0     H58054   5.553   7.157   5.692  0.1659  1.4628 -0.0576
  440MOL0     H58055   5.433   7.099   5.578 -0.1436 -1.6390  1.7125
  440MOL0     H58056   5.267   7.261   5.704 -0.4783  0.0731  0.4613
  440MOL0     H58057   5.387   7.280   5.829  0.0233  0.6271 -0.1173
  440MOL0     H58058   5.260   7.015   5.736 -1.3337 -0.0174 -0.7196
  440MOL0     H58059   5.390   7.030   5.853 -0.0990 -2.0590 -0.3470
  440MOL0     H58060   5.244   7.204   5.992  0.9458  0.1271 -1.6520
  440MOL0     H58061   5.207   7.033   5.994 -0.9371  3.1362  2.3997
  440MOL0     H58062   5.985   7.186   5.148  3.8856 -2.9172 -0.2593
  440MOL0     H58063   6.224   7.201   5.114 -0.9266  0.5636 -1.7086
  440MOL0     H58064   6.600   7.499   5.243  0.9326  0.1831 -0.3087
  440MOL0     H58065   6.834   7.598   5.205 -1.2775 -1.9572  0.3022
  440MOL0     H58066   8.489   7.264   4.124 -2.6967 -0.3425  1.3235
  440MOL0     H58067   8.729   7.228   4.160 -0.2180 -0.6955  0.4572
  440MOL0     H58068   9.146   7.625   4.403  2.6393  1.2313 -2.6124
  440MOL0     H58069   9.380   7.612   4.371  0.8031 -0.3245  2.4293
  440MOL0     H58070   9.576   7.220   4.283 -2.3737  0.0859  1.4670
  440MOL0     H58071   9.560   7.203   4.457 -2.1711 -1.1610 -1.8191
  440MOL0     H58072   9.754   7.356   4.483  4.4956 -0.9174  0.7405
  440MOL0     H58073   9.785   7.187   4.422  1.1426 -0.1708  0.7276
  440MOL0     H58074   9.797   7.463   4.300  1.8346  0.6047  1.4666
  440MOL0     H58075   9.784   7.318   4.192  0.3881 -0.7321 -0.1298
  440MOL0     H58076  10.008   7.296   4.391 -1.1446 -0.5673  0.6500
  440MOL0     H58077   9.992   7.245   4.231  2.2505  2.3368 -1.2764
  440MOL0     H58078  10.112   7.618   4.112 -1.9343  1.7202  0.9638
  440MOL0     H58079   9.340   7.181   4.393 -2.0592 -0.3256  2.2575
  440MOL0     H58080   9.113   7.198   4.369  0.3881 -0.1139 -2.8792
  441MOL0     O58081   7.402   7.405   2.478 -0.8756  0.3656 -0.5336
  441MOL0     C58082   7.450   7.290   2.486 -0.0728  0.8052 -0.1659
  441MOL0     O58083   7.401   7.189   2.557 -0.8089 -0.8062  0.1670
  441MOL0     C58084   7.284   7.227   2.617 -0.6089 -0.2080  0.9363
  441MOL0     C58085   7.275   7.264   2.754  0.2428 -0.0495  0.5758
  441MOL0     C58086   7.150   7.297   2.809  0.2259 -0.1784  0.0445
  441MOL0     C58087   7.036   7.301   2.731  0.1480 -0.4459 -0.3840
  441MOL0     O58088   6.909   7.323   2.781  0.1322  0.0916  0.4889
  441MOL0     C58089   6.885   7.289   2.918  0.1287  0.5283  0.2772
  441MOL0     C58090   6.750   7.316   2.966  0.5983  0.0765  0.6942
  441MOL0     C58091   6.644   7.203   2.935 -0.3520 -0.3895 -0.4689
  441MOL0     C58092   6.505   7.231   3.014 -0.1545  0.5878  0.0210
  441MOL0     C58093   6.379   7.147   2.963 -1.4277 -0.6912  0.0512
  441MOL0     C58094   6.350   7.151   2.804 -0.9001 -0.0191  0.0141
  441MOL0     C58095   6.304   7.284   2.757 -0.6298  0.0733  0.1965
  441MOL0     C58096   6.249   7.275   2.618 -0.9833 -0.2477 -0.5832
  441MOL0     N58097   6.104   7.306   2.613  0.9031 -1.0561 -1.0468
  441MOL0     C58098   5.990   7.237   2.571 -0.6754 -0.7348 -0.6669
  441MOL0     C58099   5.890   7.323   2.592 -0.1271  1.0171 -0.4284
  441MOL0     C58100   5.743   7.285   2.577 -0.1456  0.3650 -0.3885
  441MOL0     C58101   5.683   7.214   2.701 -0.7449 -0.2029 -0.1486
  441MOL0     C58102   5.721   7.278   2.835  0.2089  0.4725  0.3490
  441MOL0     C58103   5.717   7.171   2.955 -0.1745 -0.3908  0.2813
  441MOL0     O58104   5.721   7.231   3.088 -0.1418 -0.1658 -0.3853
  441MOL0     C58105   5.837   7.294   3.125  0.5545 -0.4470  0.1218
  441MOL0     C58106   5.962   7.305   3.057 -0.0247 -1.0103 -0.4365
  441MOL0     C58107   6.068   7.380   3.112 -0.6557 -0.0417  0.5116
  441MOL0     C58108   6.043   7.466   3.220  0.7229 -0.3450 -0.0773
  441MOL0     C58109   6.150   7.552   3.266 -0.5338 -0.2295 -0.7502
  441MOL0     O58110   6.247   7.579   3.173 -0.2221  0.2854  0.1114
  441MOL0     C58111   6.363   7.653   3.200  0.5642 -0.2313  0.2936
  441MOL0     C58112   6.415   7.672   3.328  0.6251  0.2083  0.1621
  441MOL0     C58113   6.527   7.754   3.348 -0.6650 -0.1349 -0.0057
  441MOL0     C58114   6.573   7.831   3.248 -0.1565  0.2410 -0.2533
  441MOL0     O58115   6.685   7.903   3.259  0.1984  0.3649  0.0497
  441MOL0     C58116   6.680   8.015   3.344 -0.5592 -0.6501 -0.2584
  441MOL0     C58117   6.645   8.140   3.267  0.2061 -1.4739  0.2470
  441MOL0     C58118   6.637   8.268   3.355 -0.2144  0.2150  0.6858
  441MOL0     C58119   6.615   8.388   3.263 -0.2025 -0.6542  0.2842
  441MOL0     C58120   6.621   8.529   3.339 -0.8118 -0.6011  0.2353
  441MOL0     C58121   6.754   8.564   3.407 -0.2330 -0.4024 -0.6692
  441MOL0     C58122   6.868   8.612   3.318  0.5716 -0.4843  0.5878
  441MOL0     C58123   6.977   8.685   3.395 -0.1273 -0.1597  0.3110
  441MOL0    Cl58124   7.082   8.752   3.272  0.3211 -0.4148  0.2919
  441MOL0     C58125   6.517   7.813   3.125  0.8814 -0.2355  0.6794
  441MOL0     C58126   6.411   7.728   3.096  0.2915 -0.1515 -0.0025
  441MOL0     O58127   6.145   7.588   3.385 -0.1282  0.7157  0.1393
  441MOL0     C58128   5.922   7.458   3.288  0.2437  0.0327  0.1464
  441MOL0     C58129   5.827   7.364   3.247 -0.0333  0.4469 -0.5442
  441MOL0     N58130   5.944   7.445   2.627 -0.3714 -0.3660 -0.2245
  441MOL0     N58131   6.074   7.438   2.627 -0.3103 -0.5287 -0.3067
  441MOL0     C58132   7.044   7.263   2.598 -0.2664 -0.1592  0.2408
  441MOL0     C58133   7.165   7.229   2.544 -0.6722  1.0292  0.3392
  441MOL0     C58134   7.580   7.270   2.418  0.1994 -0.0601 -0.2150
  441MOL0     C58135   7.640   7.145   2.434 -0.3219  0.0623  0.0580
  441MOL0     C58136   7.756   7.122   2.366  0.5670 -0.5750  0.2242
  441MOL0     C58137   7.815   7.222   2.283 -0.6708  0.5914  0.7004
  441MOL0     O58138   7.938   7.211   2.218  0.3150  0.1394 -0.7457
  441MOL0     C58139   7.970   7.078   2.176 -1.3328  0.7639 -0.3814
  441MOL0     C58140   8.113   7.103   2.114  0.0610 -0.1681 -0.5419
  441MOL0     C58141   8.148   6.977   2.047 -0.9728 -0.8163  0.7573
  441MOL0     C58142   8.288   6.983   1.990 -0.4839 -0.0524  0.1770
  441MOL0     C58143   8.384   6.959   2.089  0.0732  0.0604 -0.1109
  441MOL0     C58144   8.474   6.940   2.172  0.1609 -0.6507  0.2791
  441MOL0     C58145   7.766   7.347   2.280 -0.3301 -1.3101 -0.5572
  441MOL0     C58146   7.637   7.368   2.341 -0.3407 -0.4608  0.1086
  441MOL0     H58147   7.367   7.257   2.813 -1.1156  2.2154  3.1790
  441MOL0     H58148   7.150   7.312   2.916  0.0792 -1.4387  0.2443
  441MOL0     H58149   6.948   7.348   2.986 -0.4421 -1.7798  3.0316
  441MOL0     H58150   6.909   7.184   2.941  1.4602  0.0767 -2.6980
  441MOL0     H58151   6.709   7.413   2.938 -2.8182 -0.6323  2.6853
  441MOL0     H58152   6.756   7.318   3.076 -1.7497 -1.5652  0.9143
  441MOL0     H58153   6.685   7.102   2.948  1.4012  0.5368  2.2623
  441MOL0     H58154   6.623   7.199   2.828 -1.2086  1.3624 -0.3972
  441MOL0     H58155   6.511   7.227   3.123 -0.4177  2.7513  0.1441
  441MOL0     H58156   6.476   7.336   3.013 -1.1500  0.3405  0.7432
  441MOL0     H58157   6.288   7.169   3.020 -2.7306  3.0235 -3.0590
  441MOL0     H58158   6.404   7.046   2.996  1.3800 -0.3069 -0.6276
  441MOL0     H58159   6.275   7.072   2.791 -1.3360  0.3245  0.3644
  441MOL0     H58160   6.442   7.121   2.753 -0.4549 -0.3128  0.9532
  441MOL0     H58161   6.234   7.332   2.826 -1.4070  1.6573 -1.6131
  441MOL0     H58162   6.397   7.342   2.758 -0.1448 -0.5163 -2.3712
  441MOL0     H58163   6.276   7.183   2.564 -0.7654  0.0396 -0.9678
  441MOL0     H58164   6.303   7.350   2.560  1.0812 -0.5017  0.9028
  441MOL0     H58165   5.989   7.134   2.538  0.8611 -1.4828  1.4440
  441MOL0     H58166   5.734   7.218   2.491  2.2337  0.9072 -1.1393
  441MOL0     H58167   5.687   7.379   2.573 -3.7032 -1.5881 -0.7231
  441MOL0     H58168   5.707   7.108   2.695 -3.0755 -0.7889  0.0601
  441MOL0     H58169   5.574   7.214   2.688 -0.9861 -1.7663  1.5262
  441MOL0     H58170   5.815   7.333   2.835 -0.2564  1.2906 -0.5033
  441MOL0     H58171   5.645   7.354   2.856  0.8448  1.7341 -1.6455
  441MOL0     H58172   5.797   7.098   2.943  1.2622  1.4538 -2.5704
  441MOL0     H58173   5.625   7.117   2.932 -1.2690  1.5978 -0.2863
  441MOL0     H58174   5.983   7.248   2.967  3.7320 -1.2630  0.4129
  441MOL0     H58175   6.167   7.384   3.068 -0.4448 -0.0193  0.9831
  441MOL0     H58176   6.363   7.625   3.411  0.4033  0.1009 -0.0329
  441MOL0     H58177   6.560   7.759   3.452 -0.9107 -0.9111  0.1132
  441MOL0     H58178   6.780   8.022   3.388  0.1731  0.7941 -2.0066
  441MOL0     H58179   6.617   8.003   3.433 -0.3019 -1.7069 -0.1992
  441MOL0     H58180   6.551   8.130   3.211  0.2512  2.6189 -0.8991
  441MOL0     H58181   6.721   8.168   3.194 -1.3460  0.4236 -0.7514
  441MOL0     H58182   6.727   8.270   3.416 -0.9531 -0.8832  1.8457
  441MOL0     H58183   6.554   8.265   3.426  2.2911  1.6361  3.8906
  441MOL0     H58184   6.695   8.394   3.188 -0.0773  0.9684  0.5165
  441MOL0     H58185   6.519   8.376   3.211  0.4515 -1.3386 -0.8029
  441MOL0     H58186   6.539   8.546   3.410 -1.0103  0.1497 -0.1666
  441MOL0     H58187   6.595   8.612   3.274 -2.7025  0.6402  2.4095
  441MOL0     H58188   6.788   8.474   3.459 -2.7531 -1.3999 -0.5702
  441MOL0     H58189   6.729   8.633   3.489  0.6931 -2.6151  1.5882
  441MOL0     H58190   6.903   8.528   3.257  1.4850  0.6553 -0.4877
  441MOL0     H58191   6.818   8.682   3.251 -1.9543 -5.2705 -3.1279
  441MOL0     H58192   7.035   8.618   3.460 -2.1989 -1.4402  0.9237
  441MOL0     H58193   6.925   8.763   3.450  0.1959  0.6211 -0.4614
  441MOL0     H58194   6.554   7.873   3.043 -1.6695 -2.7108 -2.5362
  441MOL0     H58195   6.367   7.739   2.998 -1.9323  0.8535  1.0409
  441MOL0     H58196   5.904   7.519   3.376  1.7160  1.7867 -0.7148
  441MOL0     H58197   5.741   7.339   3.309  0.6634 -1.5871 -0.3268
  441MOL0     H58198   6.948   7.254   2.549  0.0992  2.0244 -1.0538
  441MOL0     H58199   7.181   7.191   2.443 -2.7979  0.6914  0.0849
  441MOL0     H58200   7.608   7.067   2.502  1.0582 -1.0045 -0.4703
  441MOL0     H58201   7.810   7.028   2.380  0.7500 -0.8340 -1.9198
  441MOL0     H58202   7.902   7.037   2.101 -0.6113 -5.5965  1.8238
  441MOL0     H58203   7.982   7.007   2.258 -1.5489 -1.4053 -2.1294
  441MOL0     H58204   8.116   7.180   2.037  0.4427  1.2711  0.8700
  441MOL0     H58205   8.190   7.117   2.190  2.0155 -0.7085 -2.3099
  441MOL0     H58206   8.082   6.946   1.965  0.8907 -0.9281 -0.7668
  441MOL0     H58207   8.140   6.891   2.115 -0.9968 -2.2519 -0.9739
  441MOL0     H58208   8.293   6.911   1.908 -0.5686  2.3407 -2.0700
  441MOL0     H58209   8.312   7.079   1.942  0.4328 -1.5351 -2.5840
  441MOL0     H58210   8.561   6.927   2.234  0.9064  0.6103 -0.4612
  441MOL0     H58211   7.810   7.424   2.217 -0.4907 -0.1459  0.7134
  441MOL0     H58212   7.585   7.461   2.321 -1.0845 -0.6161  1.2767
  442MOL0     O58213   0.585   1.116   7.913 -0.9644 -0.1094  0.2754
  442MOL0     C58214   0.568   1.027   7.833  0.0556  0.4569 -0.7330
  442MOL0     O58215   0.499   0.914   7.858  0.7705  0.3670  0.2084
  442MOL0     C58216   0.457   0.895   7.988 -0.2862  0.0076 -0.0169
  442MOL0     C58217   0.332   0.847   8.006 -1.2687 -1.0379  0.6347
  442MOL0     C58218   0.295   0.813   8.131  0.7808  0.0815  0.4931
  442MOL0     C58219   0.378   0.824   8.242  0.3249 -0.4327  0.4858
  442MOL0     O58220   0.348   0.787   8.369  1.0356  0.5297  0.2694
  442MOL0     C58221   0.282   0.663   8.374 -0.5570  0.1646 -0.1567
  442MOL0     C58222   0.285   0.609   8.518  0.4592  0.1460 -0.6925
  442MOL0     C58223   0.177   0.508   8.530 -0.8813 -0.0123  0.0256
  442MOL0     C58224   0.220   0.391   8.627 -0.2764  0.3727  0.1676
  442MOL0     C58225   0.200   0.433   8.774 -0.0944 -0.6498 -0.7169
  442MOL0     C58226   0.236   0.316   8.867 -0.6348 -0.7509 -0.8412
  442MOL0     C58227   0.229   0.364   9.007  0.3765 -0.2754 -0.1023
  442MOL0     C58228   0.241   0.250   9.100  0.0282 -1.3117  1.1285
  442MOL0     N58229   0.118   0.174   9.106  0.0666  0.2748  0.6697
  442MOL0     C58230   0.014   0.204   9.187  0.7230 -0.7031  0.0143
  442MOL0     C58231  -0.075   0.105   9.168 -0.1387 -1.1384  0.5733
  442MOL0     C58232  -0.199   0.087   9.243  0.5009  0.6488 -0.6282
  442MOL0     C58233  -0.199   0.140   9.391  0.9903 -0.1535 -0.4913
  442MOL0     C58234  -0.248   0.291   9.387  0.3405 -0.5939  0.4955
  442MOL0     C58235  -0.240   0.349   9.529  0.2215  0.0359  0.0429
  442MOL0     O58236  -0.109   0.336   9.582  1.0797  0.3700  0.6872
  442MOL0     C58237  -0.003   0.395   9.521 -0.9082 -0.1588 -0.0850
  442MOL0     C58238   0.115   0.324   9.522 -0.0914  0.1595 -0.7115
  442MOL0     C58239   0.230   0.373   9.469  0.1781  0.1217  0.0644
  442MOL0     C58240   0.225   0.501   9.419 -0.1568  0.5141 -0.5352
  442MOL0     C58241   0.348   0.553   9.351 -0.3767 -0.7738 -0.3967
  442MOL0     O58242   0.357   0.693   9.337 -0.6635 -0.8158 -0.2741
  442MOL0     C58243   0.472   0.749   9.276  0.7285  0.3855  0.2522
  442MOL0     C58244   0.455   0.867   9.207  1.1380  0.7750 -0.1978
  442MOL0     C58245   0.569   0.936   9.159 -0.1462 -0.1304  0.3277
  442MOL0     C58246   0.697   0.894   9.177  0.4769  0.2892  0.6498
  442MOL0     O58247   0.805   0.958   9.121 -0.7736 -0.1610 -0.1504
  442MOL0     C58248   0.806   0.998   8.985  0.4931 -1.0840 -1.0168
  442MOL0     C58249   0.806   0.888   8.879  0.4690 -0.3684 -0.0897
  442MOL0     C58250   0.773   0.954   8.739 -0.4558 -0.0488  0.0022
  442MOL0     C58251   0.833   0.863   8.622  0.2576  0.6314 -0.4045
  442MOL0     C58252   0.816   0.917   8.475 -0.1687 -0.3629  0.0411
  442MOL0     C58253   0.895   1.045   8.452 -0.2090 -0.6900 -0.2893
  442MOL0     C58254   0.851   1.104   8.324 -0.8406  0.3193  0.3050
  442MOL0     C58255   0.946   1.226   8.285 -0.1512  0.5415 -0.5442
  442MOL0    Cl58256   0.901   1.311   8.151  0.0712 -0.1218  0.5808
  442MOL0     C58257   0.713   0.772   9.248  0.2499 -0.0229 -0.4369
  442MOL0     C58258   0.606   0.703   9.304 -0.0076 -0.2862  0.7262
  442MOL0     O58259   0.434   0.473   9.316 -0.0434 -0.6718  0.1571
  442MOL0     C58260   0.104   0.577   9.424 -0.8200 -0.8818 -0.1328
  442MOL0     C58261  -0.012   0.532   9.477  0.9309  0.6840 -1.2890
  442MOL0     N58262  -0.029   0.036   9.060 -0.5250 -0.2145 -0.0728
  442MOL0     N58263   0.094   0.066   9.027  0.0279  0.4640 -0.7007
  442MOL0     C58264   0.515   0.857   8.226 -0.1726  0.1252 -0.2298
  442MOL0     C58265   0.555   0.891   8.095 -0.5263  0.4091 -0.4433
  442MOL0     C58266   0.621   1.067   7.700 -0.7312 -0.0718  0.0097
  442MOL0     C58267   0.632   1.196   7.667  1.0545 -0.5780  0.0569
  442MOL0     C58268   0.677   1.245   7.544  0.7222 -0.7771  0.6789
  442MOL0     C58269   0.723   1.149   7.444  0.0230 -0.1859  0.4057
  442MOL0     O58270   0.766   1.184   7.318 -0.0933  0.5377 -0.6161
  442MOL0     C58271   0.884   1.276   7.311  0.2176 -0.6233 -0.1829
  442MOL0     C58272   1.015   1.202   7.334 -0.2661 -0.5666 -0.7377
  442MOL0     C58273   1.102   1.202   7.206 -1.0227 -0.2771 -0.2929
  442MOL0     C58274   1.243   1.135   7.234  0.0383 -0.1476  0.2655
  442MOL0     C58275   1.316   1.126   7.107 -0.4284  0.0812 -0.1152
  442MOL0     C58276   1.386   1.098   7.008  0.1634  0.7783 -0.5982
  442MOL0     C58277   0.727   1.011   7.478  0.7487 -0.3773 -0.7154
  442MOL0     C58278   0.674   0.972   7.602  0.3411  0.1693 -0.7149
  442MOL0     H58279   0.266   0.838   7.921 -1.7032 -0.6902  0.9280
  442MOL0     H58280   0.195   0.770   8.135  0.2614  1.3425  2.0488
  442MOL0     H58281   0.336   0.591   8.311  0.0299 -0.2310  0.7733
  442MOL0     H58282   0.178   0.675   8.341 -0.2854  2.7742 -0.2340
  442MOL0     H58283   0.278   0.699   8.581  2.4351  1.8151 -2.6950
  442MOL0     H58284   0.374   0.552   8.545  0.8202  0.1145 -1.8875
  442MOL0     H58285   0.153   0.479   8.428 -0.9530  2.2998 -0.6825
  442MOL0     H58286   0.085   0.556   8.567 -0.9009  0.9957 -1.2633
  442MOL0     H58287   0.169   0.297   8.604  1.1412 -0.5145  0.5229
  442MOL0     H58288   0.321   0.360   8.600 -0.1198 -0.5163  1.6196
  442MOL0     H58289   0.105   0.474   8.810  0.5014  0.8139 -0.7488
  442MOL0     H58290   0.276   0.508   8.796 -1.2687  0.7764 -1.3765
  442MOL0     H58291   0.342   0.292   8.853 -0.5998  0.7617 -3.7251
  442MOL0     H58292   0.177   0.227   8.845 -1.4696 -1.0523  2.1000
  442MOL0     H58293   0.298   0.444   9.036  0.5838 -0.6041  0.3211
  442MOL0     H58294   0.134   0.417   9.023 -0.4581 -1.3473 -1.3393
  442MOL0     H58295   0.269   0.301   9.193  2.9483  1.2783 -0.9479
  442MOL0     H58296   0.329   0.190   9.074 -0.4866 -1.7921  0.4479
  442MOL0     H58297   0.009   0.280   9.264 -2.4525 -1.7926  1.0316
  442MOL0     H58298  -0.231  -0.017   9.243 -1.5860  1.2276 -1.5256
  442MOL0     H58299  -0.282   0.129   9.185  1.2544  1.7189 -0.9704
  442MOL0     H58300  -0.105   0.129   9.445  0.5592 -1.8337 -0.0233
  442MOL0     H58301  -0.264   0.081   9.456  0.8221  0.7091  0.1352
  442MOL0     H58302  -0.179   0.349   9.325 -0.8903  1.5073  1.0058
  442MOL0     H58303  -0.354   0.289   9.361  0.6909 -0.0804 -1.1104
  442MOL0     H58304  -0.306   0.288   9.591  1.8979 -1.6963  0.2190
  442MOL0     H58305  -0.281   0.451   9.526 -0.2172 -0.1150  0.6178
  442MOL0     H58306   0.123   0.224   9.564 -0.1339  0.5253  0.2067
  442MOL0     H58307   0.323   0.317   9.472  0.0697 -0.8469 -5.0816
  442MOL0     H58308   0.363   0.919   9.184  0.5332  0.2188  0.9052
  442MOL0     H58309   0.556   1.027   9.100  3.3131 -1.7924 -3.5325
  442MOL0     H58310   0.882   1.075   8.972 -0.6858  0.3674  0.4140
  442MOL0     H58311   0.714   1.055   8.976  1.4531  0.3305 -2.3260
  442MOL0     H58312   0.739   0.805   8.903  0.3471 -0.7636 -1.6699
  442MOL0     H58313   0.903   0.839   8.877 -0.9078 -3.3727  0.8477
  442MOL0     H58314   0.814   1.055   8.737  1.7278 -0.9065 -0.9672
  442MOL0     H58315   0.665   0.972   8.742 -1.6698 -4.8376 -2.9920
  442MOL0     H58316   0.937   0.835   8.645 -0.0562  0.2741  0.6305
  442MOL0     H58317   0.779   0.769   8.633  1.0882  0.3491  1.7100
  442MOL0     H58318   0.711   0.943   8.463 -0.5208 -2.2585 -1.4670
  442MOL0     H58319   0.848   0.839   8.405 -0.2124  2.6519 -3.6162
  442MOL0     H58320   1.002   1.023   8.461 -0.6877 -3.8553 -1.1957
  442MOL0     H58321   0.871   1.112   8.536  1.2834 -0.2911 -0.1555
  442MOL0     H58322   0.857   1.037   8.238  0.2899  1.1672 -0.2904
  442MOL0     H58323   0.752   1.152   8.332 -0.1477  1.9702 -0.5733
  442MOL0     H58324   1.042   1.176   8.270 -0.3172 -1.4423  3.5563
  442MOL0     H58325   0.956   1.290   8.374 -0.3438  0.2751 -0.3278
  442MOL0     H58326   0.813   0.738   9.271  0.7346 -0.9446 -3.4905
  442MOL0     H58327   0.634   0.615   9.362  1.4572  0.1773  0.7652
  442MOL0     H58328   0.097   0.675   9.378 -4.1057 -1.1559 -0.4636
  442MOL0     H58329  -0.107   0.584   9.470  0.2851  0.2438  2.1468
  442MOL0     H58330   0.584   0.858   8.310  0.1081  1.5474 -0.4611
  442MOL0     H58331   0.659   0.906   8.070 -1.1128  1.9454 -2.1838
  442MOL0     H58332   0.596   1.273   7.734 -1.7522  0.3072 -2.2493
  442MOL0     H58333   0.687   1.349   7.514  1.3791 -1.1035 -0.2735
  442MOL0     H58334   0.878   1.361   7.380 -0.5997 -1.4716  0.8389
  442MOL0     H58335   0.876   1.329   7.216  2.8321  0.1546 -0.0373
  442MOL0     H58336   1.076   1.223   7.422 -0.3131 -3.9259  0.2286
  442MOL0     H58337   0.998   1.098   7.364  2.0015 -0.5842  0.7362
  442MOL0     H58338   1.126   1.308   7.189 -1.8285 -0.0433 -0.0136
  442MOL0     H58339   1.050   1.155   7.122 -2.1288 -1.6154  1.0911
  442MOL0     H58340   1.304   1.199   7.297 -0.4520  1.5999 -0.9368
  442MOL0     H58341   1.226   1.038   7.280 -0.9363  0.2726  0.8375
  442MOL0     H58342   1.444   1.089   6.918  2.8511  2.1637  0.8658
  442MOL0     H58343   0.769   0.940   7.408  0.6186 -1.2189  0.0508
  442MOL0     H58344   0.657   0.868   7.626 -1.0038  0.6844  0.7723
  443MOL0     O58345   9.868   7.375   7.524 -0.3538  0.6554  0.3123
  443MOL0     C58346   9.918   7.283   7.457  0.1386 -0.4767  0.1539
  443MOL0     O58347   9.848   7.190   7.385 -0.6094 -0.5262 -0.3736
  443MOL0     C58348   9.711   7.194   7.396 -0.5691  0.3993 -0.6507
  443MOL0     C58349   9.639   7.192   7.273  0.3075 -0.3696 -0.0075
  443MOL0     C58350   9.495   7.182   7.271 -0.2706 -1.0327  0.0391
  443MOL0     C58351   9.427   7.173   7.394  0.5083  0.4843  0.0918
  443MOL0     O58352   9.294   7.156   7.386  0.5697 -0.2947 -0.0806
  443MOL0     C58353   9.213   7.191   7.504  0.2839  0.2207 -0.5235
  443MOL0     C58354   9.068   7.228   7.458 -0.3115 -0.3199  0.0593
  443MOL0     C58355   8.993   7.319   7.562 -0.0994 -1.0440 -0.5133
  443MOL0     C58356   8.841   7.338   7.531 -0.0315  0.2631 -0.4712
  443MOL0     C58357   8.750   7.251   7.619  0.4065  0.0341 -0.1140
  443MOL0     C58358   8.601   7.256   7.563 -0.2801  0.2039 -0.5427
  443MOL0     C58359   8.504   7.168   7.643 -0.5729  0.4707  0.3850
  443MOL0     C58360   8.378   7.121   7.565 -1.2020 -0.0200  0.2043
  443MOL0     N58361   8.307   7.032   7.654  0.5486 -0.3080 -0.6016
  443MOL0     C58362   8.306   6.895   7.658  0.6811  0.2187 -0.4933
  443MOL0     C58363   8.241   6.847   7.770 -0.4064 -0.2346 -0.8123
  443MOL0     C58364   8.225   6.700   7.826  0.3432 -0.6268  0.8368
  443MOL0     C58365   8.104   6.642   7.756  0.7534  0.9679 -0.3313
  443MOL0     C58366   7.975   6.708   7.801 -0.7748 -0.7701 -0.4315
  443MOL0     C58367   7.844   6.635   7.768 -0.0725 -0.0292  0.2973
  443MOL0     O58368   7.757   6.693   7.868 -0.1162 -0.0785 -0.3464
  443MOL0     C58369   7.625   6.677   7.851  0.1893 -0.7501  0.0062
  443MOL0     C58370   7.546   6.732   7.952 -0.1883 -0.4979  0.4427
  443MOL0     C58371   7.407   6.714   7.944 -0.0617 -0.5199 -0.5261
  443MOL0     C58372   7.347   6.635   7.852  0.0420 -0.9399  0.1224
  443MOL0     C58373   7.208   6.586   7.875  0.8082  0.0800  0.6546
  443MOL0     O58374   7.160   6.555   8.000  0.5604 -0.5196  0.5247
  443MOL0     C58375   7.027   6.549   8.009  0.6199 -0.0799 -0.6107
  443MOL0     C58376   6.959   6.430   7.978 -0.1715  0.0801  0.0644
  443MOL0     C58377   6.818   6.419   7.977  0.5643 -0.2610 -0.0058
  443MOL0     C58378   6.739   6.522   8.030 -0.6484  0.3374  1.0256
  443MOL0     O58379   6.602   6.528   8.048 -0.1223  0.0449 -0.0170
  443MOL0     C58380   6.530   6.401   8.046 -0.1330 -0.2775 -0.2268
  443MOL0     C58381   6.390   6.434   8.093  0.3009 -0.2431  0.0196
  443MOL0     C58382   6.289   6.324   8.097  0.9039  0.3677 -0.0172
  443MOL0     C58383   6.148   6.386   8.120  0.0375 -0.1135  0.5316
  443MOL0     C58384   6.044   6.280   8.102 -0.4171 -0.5653 -0.0827
  443MOL0     C58385   5.903   6.338   8.145  1.0937  0.6359  0.7313
  443MOL0     C58386   5.799   6.228   8.141 -0.8662  0.0469  1.0781
  443MOL0     C58387   5.662   6.282   8.127  0.2495 -0.9219  0.2948
  443MOL0    Cl58388   5.605   6.364   8.268  0.5868 -0.3313 -0.2033
  443MOL0     C58389   6.811   6.637   8.065  0.5230 -0.2390 -0.2646
  443MOL0     C58390   6.951   6.656   8.055 -0.5335  0.0525 -0.1135
  443MOL0     O58391   7.132   6.588   7.772 -0.8482  0.3686  0.7547
  443MOL0     C58392   7.423   6.591   7.748 -0.4743 -0.0541 -0.5911
  443MOL0     C58393   7.554   6.625   7.741 -0.0709 -0.8010 -0.4324
  443MOL0     N58394   8.197   6.966   7.831  0.1257 -0.3640 -0.1643
  443MOL0     N58395   8.246   7.070   7.770  0.1325  0.3863  0.3772
  443MOL0     C58396   9.502   7.183   7.509 -0.3077 -0.2897 -0.3924
  443MOL0     C58397   9.643   7.188   7.511  0.2331  0.6761 -0.1348
  443MOL0     C58398  10.064   7.283   7.446 -0.2563 -0.2515 -0.2704
  443MOL0     C58399  10.137   7.396   7.447 -0.0564  0.0546 -0.2961
  443MOL0     C58400  10.278   7.384   7.447 -0.5387 -0.8139 -0.3689
  443MOL0     C58401  10.347   7.258   7.434  1.0400  0.7074 -0.3468
  443MOL0     O58402  10.485   7.235   7.434  0.0628 -0.0342 -0.5231
  443MOL0     C58403  10.561   7.351   7.470  0.2393 -0.1761 -0.4034
  443MOL0     C58404  10.712   7.316   7.488 -0.3385 -0.3194  0.4664
  443MOL0     C58405  10.800   7.434   7.524  0.2655  0.7637  0.2711
  443MOL0     C58406  10.943   7.415   7.568  0.5662 -0.3040 -0.1120
  443MOL0     C58407  11.019   7.411   7.444 -0.6981  0.4124 -0.6701
  443MOL0     C58408  11.077   7.410   7.336 -0.5236 -0.5004  0.2606
  443MOL0     C58409  10.263   7.150   7.429 -0.2618  0.1373 -0.1844
  443MOL0     C58410  10.121   7.158   7.450  0.0720 -0.0144  0.3683
  443MOL0     H58411   9.695   7.200   7.180 -1.9495  1.7323 -1.3102
  443MOL0     H58412   9.442   7.185   7.176 -1.2682 -1.6516  0.5595
  443MOL0     H58413   9.251   7.274   7.563 -2.3574  0.4549  0.9798
  443MOL0     H58414   9.209   7.118   7.586  3.2157  0.5420  0.0205
  443MOL0     H58415   9.018   7.134   7.432  1.5866 -1.1475 -0.7853
  443MOL0     H58416   9.073   7.273   7.358  4.5115  0.4054  0.3801
  443MOL0     H58417   9.032   7.422   7.563 -2.9490  0.1558  1.3522
  443MOL0     H58418   9.005   7.282   7.664 -0.7184 -0.1433 -0.1018
  443MOL0     H58419   8.810   7.441   7.549 -0.5787  0.6213 -3.1274
  443MOL0     H58420   8.839   7.324   7.423  3.9438 -1.7225 -0.4945
  443MOL0     H58421   8.764   7.271   7.725 -2.9761  1.9382  0.1238
  443MOL0     H58422   8.793   7.152   7.602 -1.3549 -0.6465 -0.9197
  443MOL0     H58423   8.604   7.236   7.456 -0.7996 -0.4669 -0.4401
  443MOL0     H58424   8.572   7.361   7.573  0.3019  0.3732 -0.5915
  443MOL0     H58425   8.561   7.079   7.668 -1.9442 -1.0336 -1.5595
  443MOL0     H58426   8.466   7.211   7.736 -0.1557 -0.8457  1.1903
  443MOL0     H58427   8.409   7.088   7.466  0.4227  1.5315  0.1384
  443MOL0     H58428   8.317   7.207   7.534  1.5255  2.4914  1.3093
  443MOL0     H58429   8.349   6.828   7.584  0.4630 -2.5836  1.7210
  443MOL0     H58430   8.208   6.699   7.934 -1.5584 -1.7116  0.5817
  443MOL0     H58431   8.307   6.634   7.797  0.6520  1.3100 -3.4828
  443MOL0     H58432   8.093   6.535   7.778 -3.6873  0.6764 -2.7367
  443MOL0     H58433   8.109   6.647   7.647  1.2635 -4.4668 -0.8526
  443MOL0     H58434   7.979   6.727   7.908  1.8901  3.8654 -1.0809
  443MOL0     H58435   7.965   6.808   7.759  2.8045 -0.7052 -1.4574
  443MOL0     H58436   7.853   6.526   7.771  1.8005  0.0725 -0.2126
  443MOL0     H58437   7.812   6.657   7.666 -3.5804 -1.9195  0.8252
  443MOL0     H58438   7.607   6.770   8.032  1.7166  0.3612 -1.3291
  443MOL0     H58439   7.345   6.741   8.029 -0.3842  0.4151 -1.0398
  443MOL0     H58440   7.028   6.352   7.947  0.5615  0.7080  0.0808
  443MOL0     H58441   6.773   6.331   7.930  2.2938 -1.2352  0.0620
  443MOL0     H58442   6.580   6.326   8.108  1.4998 -0.0524 -1.2295
  443MOL0     H58443   6.527   6.370   7.941  1.6182 -0.0273 -0.3762
  443MOL0     H58444   6.352   6.512   8.027 -0.2107  0.9066  1.5908
  443MOL0     H58445   6.406   6.479   8.192  3.9333  1.3506 -1.1505
  443MOL0     H58446   6.318   6.254   8.176  1.0355 -0.3141 -0.6490
  443MOL0     H58447   6.286   6.267   8.003  2.4533 -0.4075  0.3693
  443MOL0     H58448   6.152   6.429   8.220  1.1116 -1.8744  1.2849
  443MOL0     H58449   6.135   6.468   8.048 -0.1010  0.5843  1.3379
  443MOL0     H58450   6.076   6.196   8.164  0.6202 -0.8995 -1.0366
  443MOL0     H58451   6.034   6.259   7.995 -0.2115 -0.3994 -0.1342
  443MOL0     H58452   5.876   6.414   8.072  1.7044  0.9292  0.8044
  443MOL0     H58453   5.902   6.376   8.248  0.1628 -3.9699  2.6836
  443MOL0     H58454   5.812   6.169   8.050  1.5768  1.4290  0.4171
  443MOL0     H58455   5.803   6.175   8.236 -0.2939 -3.1767 -0.6222
  443MOL0     H58456   5.595   6.196   8.120 -1.8408  0.5998  0.5173
  443MOL0     H58457   5.645   6.340   8.036  3.4835 -3.1305 -1.9301
  443MOL0     H58458   6.752   6.714   8.113  1.8062 -0.3935  1.6492
  443MOL0     H58459   6.988   6.752   8.090 -0.5200  1.3829 -3.4619
  443MOL0     H58460   7.386   6.524   7.671 -0.6017 -0.4321 -0.2048
  443MOL0     H58461   7.612   6.586   7.658 -1.1613  0.1078 -1.6521
  443MOL0     H58462   9.454   7.196   7.606 -0.1599 -2.4829  0.0231
  443MOL0     H58463   9.700   7.208   7.601 -1.3662  0.9357  0.8736
  443MOL0     H58464  10.083   7.488   7.465 -1.3435 -0.5009 -1.1838
  443MOL0     H58465  10.338   7.474   7.446  0.4652 -1.4328 -2.7998
  443MOL0     H58466  10.516   7.393   7.561 -0.1930  0.7256 -1.0172
  443MOL0     H58467  10.539   7.432   7.400 -5.0436  1.8110  2.8760
  443MOL0     H58468  10.719   7.244   7.569  0.9735  0.1560  0.8074
  443MOL0     H58469  10.749   7.280   7.392 -0.8822 -0.2018  0.2097
  443MOL0     H58470  10.751   7.479   7.611  1.5927 -0.8526  1.9611
  443MOL0     H58471  10.785   7.509   7.446 -1.5252 -0.0385 -0.2042
  443MOL0     H58472  10.980   7.496   7.631 -0.6503 -0.9757  1.5482
  443MOL0     H58473  10.946   7.322   7.626 -3.0644 -0.2755  0.4018
  443MOL0     H58474  11.108   7.399   7.234 -1.5949  2.9466 -0.5907
  443MOL0     H58475  10.313   7.055   7.408  0.2022  0.7606 -2.0917
  443MOL0     H58476  10.061   7.068   7.456 -3.1873  2.0259  0.5257
  444MOL0     O58477   6.688   9.524   4.541 -0.4022  0.0536 -0.3022
  444MOL0     C58478   6.648   9.427   4.481 -0.0285 -0.5151 -0.5699
  444MOL0     O58479   6.523   9.376   4.495  0.9049 -0.6507  0.3807
  444MOL0     C58480   6.445   9.405   4.602  0.4228 -0.7867 -0.2397
  444MOL0     C58481   6.500   9.419   4.737  0.2432  0.1413  0.2620
  444MOL0     C58482   6.424   9.458   4.843  0.0147  0.8074 -0.6114
  444MOL0     C58483   6.287   9.480   4.828  0.6242 -0.4148  0.7178
  444MOL0     O58484   6.203   9.526   4.933 -0.3896 -0.5136 -0.0249
  444MOL0     C58485   6.240   9.470   5.059  0.2195  0.6018  0.2159
  444MOL0     C58486   6.103   9.459   5.134 -0.7556 -0.1630  0.3104
  444MOL0     C58487   6.005   9.365   5.062  0.8056 -0.3545 -0.4933
  444MOL0     C58488   5.862   9.369   5.119 -0.4002  0.5473  0.0482
  444MOL0     C58489   5.836   9.346   5.269 -0.1406 -0.5840 -0.1030
  444MOL0     C58490   5.685   9.383   5.299  0.1178 -0.5325 -0.6940
  444MOL0     C58491   5.580   9.322   5.213 -0.5625  0.0570  0.5928
  444MOL0     C58492   5.455   9.315   5.296  0.4909 -0.3650 -0.1501
  444MOL0     N58493   5.331   9.289   5.218  0.1474  0.2999 -0.0492
  444MOL0     C58494   5.276   9.162   5.206  0.3461 -0.8540 -0.5416
  444MOL0     C58495   5.149   9.191   5.144  0.6954 -0.3153 -0.0139
  444MOL0     C58496   5.049   9.091   5.092 -0.0647 -0.1794  0.5500
  444MOL0     C58497   4.936   9.066   5.185 -0.6884 -0.4442  0.1056
  444MOL0     C58498   4.852   8.945   5.156  0.2218  0.0101  0.1359
  444MOL0     C58499   4.754   8.909   5.261  0.2551  0.6355 -0.4187
  444MOL0     O58500   4.674   8.799   5.211 -0.3050 -0.5727  0.0293
  444MOL0     C58501   4.550   8.789   5.255  0.2560 -0.3881  0.4873
  444MOL0     C58502   4.523   8.823   5.387  0.1880 -0.1376 -0.1440
  444MOL0     C58503   4.390   8.829   5.438 -0.1180  0.1364 -0.2219
  444MOL0     C58504   4.279   8.798   5.351  0.2219 -0.3477 -0.7730
  444MOL0     C58505   4.145   8.798   5.398  0.2067  0.3830  0.3153
  444MOL0     O58506   4.046   8.794   5.303  0.4465  0.6255 -0.4938
  444MOL0     C58507   3.923   8.751   5.350 -0.3401 -0.0439  0.1671
  444MOL0     C58508   3.883   8.612   5.364 -0.0466  0.7173  0.2924
  444MOL0     C58509   3.758   8.585   5.431 -0.1647  0.1008  0.4551
  444MOL0     C58510   3.668   8.690   5.456  0.1809 -0.4636  0.2873
  444MOL0     O58511   3.533   8.677   5.486  1.0840 -0.0590 -0.2283
  444MOL0     C58512   3.492   8.539   5.534  0.3062  0.2795  0.1712
  444MOL0     C58513   3.342   8.537   5.576 -0.5284  0.5816  0.4381
  444MOL0     C58514   3.321   8.622   5.702 -0.9095 -0.0249 -0.0750
  444MOL0     C58515   3.169   8.627   5.717  0.1076  0.3032  0.0703
  444MOL0     C58516   3.129   8.730   5.826 -0.8280 -0.4754 -0.3634
  444MOL0     C58517   2.971   8.723   5.855  0.3620  0.6777 -0.1111
  444MOL0     C58518   2.927   8.827   5.960  0.0645  0.2379  0.0845
  444MOL0     C58519   2.779   8.798   5.997 -0.4982 -0.1034 -0.2928
  444MOL0    Cl58520   2.671   8.781   5.858  0.3630  0.5231  0.1763
  444MOL0     C58521   3.708   8.819   5.427  0.4239  0.2596 -0.2198
  444MOL0     C58522   3.840   8.853   5.390 -0.1848 -0.7159  0.5231
  444MOL0     O58523   4.124   8.783   5.521  0.1657 -1.3485  0.0626
  444MOL0     C58524   4.307   8.763   5.214 -0.0073  0.2286 -0.6342
  444MOL0     C58525   4.436   8.761   5.176 -0.4352 -0.4531 -0.2322
  444MOL0     N58526   5.140   9.328   5.138 -0.1767  0.6732  0.1365
  444MOL0     N58527   5.244   9.379   5.181 -1.4177 -0.8117 -0.7723
  444MOL0     C58528   6.223   9.469   4.695 -0.4762 -0.0178  0.4687
  444MOL0     C58529   6.306   9.421   4.590 -0.8105  0.3244  0.0558
  444MOL0     C58530   6.733   9.381   4.378  0.6194  0.3071  0.3829
  444MOL0     C58531   6.854   9.447   4.333  0.4304  0.2043 -0.3839
  444MOL0     C58532   6.923   9.386   4.232 -0.1908 -1.1145  0.3297
  444MOL0     C58533   6.891   9.268   4.171 -0.2768  0.5779 -0.0183
  444MOL0     O58534   6.969   9.202   4.079 -0.6236 -0.4574  1.1895
  444MOL0     C58535   7.098   9.263   4.043 -0.0311  0.0787  0.9792
  444MOL0     C58536   7.080   9.319   3.899 -0.0871  1.0624  0.2098
  444MOL0     C58537   6.988   9.442   3.888 -0.3208  0.1284 -0.0676
  444MOL0     C58538   6.946   9.490   3.749  0.1083  0.2688 -0.0983
  444MOL0     C58539   7.060   9.554   3.677 -0.3681 -0.6874 -0.4966
  444MOL0     C58540   7.156   9.603   3.617  0.2443  0.1837 -0.9375
  444MOL0     C58541   6.774   9.203   4.217  0.0082  0.2735 -0.6344
  444MOL0     C58542   6.690   9.259   4.309 -0.9515 -0.1245 -0.3300
  444MOL0     H58543   6.606   9.420   4.763  0.2051  1.3451  0.4272
  444MOL0     H58544   6.463   9.467   4.944  0.3172  1.1628 -0.7559
  444MOL0     H58545   6.301   9.545   5.110 -2.4987  1.1882  2.9456
  444MOL0     H58546   6.284   9.370   5.058 -2.7670 -0.8779  1.6293
  444MOL0     H58547   6.056   9.557   5.143 -1.2424 -0.5550  2.4204
  444MOL0     H58548   6.132   9.423   5.233  1.9845 -0.1628 -0.3938
  444MOL0     H58549   6.033   9.262   5.085  0.2906 -0.5736 -0.8259
  444MOL0     H58550   5.992   9.379   4.954 -1.2202  2.0946 -0.0288
  444MOL0     H58551   5.801   9.455   5.090 -0.5237  0.2055 -0.7646
  444MOL0     H58552   5.803   9.288   5.073  0.3500  0.6389 -1.1293
  444MOL0     H58553   5.906   9.407   5.328  0.8990  0.3150 -2.1728
  444MOL0     H58554   5.852   9.243   5.301  0.6926 -0.7392 -0.9902
  444MOL0     H58555   5.691   9.491   5.281  2.0850 -0.4165  0.3501
  444MOL0     H58556   5.662   9.376   5.406  0.5783  2.0019 -0.3558
  444MOL0     H58557   5.570   9.385   5.124  0.4697 -0.6349 -0.0328
  444MOL0     H58558   5.615   9.223   5.184 -0.6815  0.2917 -0.3905
  444MOL0     H58559   5.450   9.411   5.348 -0.3277 -0.1489 -0.6178
  444MOL0     H58560   5.463   9.240   5.375 -4.2006  0.3371  1.3353
  444MOL0     H58561   5.323   9.064   5.209 -1.5740 -1.8185  2.8298
  444MOL0     H58562   5.089   8.992   5.067  0.5618  0.7615 -2.5881
  444MOL0     H58563   5.017   9.127   4.994  1.9937 -0.4153 -0.2551
  444MOL0     H58564   4.868   9.150   5.171  1.8663  1.3720 -2.6440
  444MOL0     H58565   4.976   9.058   5.287  2.1362 -0.5683 -0.9119
  444MOL0     H58566   4.783   8.964   5.073 -0.4388  0.9604  0.8879
  444MOL0     H58567   4.915   8.858   5.137  1.1041  0.4053  1.1481
  444MOL0     H58568   4.691   8.993   5.292 -1.5535 -0.5019 -0.8638
  444MOL0     H58569   4.802   8.867   5.350  0.6783 -1.5422 -1.6123
  444MOL0     H58570   4.595   8.859   5.460  1.0003  1.0457 -1.4639
  444MOL0     H58571   4.367   8.861   5.540  1.0350 -1.3047  0.5332
  444MOL0     H58572   3.945   8.526   5.340 -0.0881  0.8626 -0.3693
  444MOL0     H58573   3.727   8.482   5.450 -1.4494  0.7803  2.4216
  444MOL0     H58574   3.552   8.512   5.621  2.8937 -2.6278 -2.2448
  444MOL0     H58575   3.511   8.467   5.453  0.5886 -0.6327  1.0238
  444MOL0     H58576   3.326   8.430   5.591  4.2294 -0.2573  1.0197
  444MOL0     H58577   3.280   8.575   5.495 -0.9624 -0.1234  0.4340
  444MOL0     H58578   3.357   8.725   5.689 -0.8986 -0.2647 -2.3809
  444MOL0     H58579   3.361   8.568   5.789 -1.3323 -0.9518 -0.4410
  444MOL0     H58580   3.123   8.660   5.623 -2.6691 -0.2606  1.1303
  444MOL0     H58581   3.127   8.529   5.737  1.2394  0.1352  1.8580
  444MOL0     H58582   3.163   8.832   5.806 -0.1283 -0.6897 -0.2827
  444MOL0     H58583   3.178   8.707   5.921 -2.1376 -0.5496  0.3185
  444MOL0     H58584   2.950   8.622   5.893  2.2108  1.1681  2.4223
  444MOL0     H58585   2.909   8.730   5.765 -1.3475 -3.1743  0.5697
  444MOL0     H58586   2.984   8.821   6.053  0.7266  1.9545 -0.1739
  444MOL0     H58587   2.933   8.930   5.925 -0.8895  0.1079 -0.4917
  444MOL0     H58588   2.748   8.875   6.069  0.4171  0.7947 -0.8246
  444MOL0     H58589   2.790   8.703   6.051  0.5553 -0.1685 -0.5819
  444MOL0     H58590   3.639   8.898   5.454  1.3802  0.5406  1.5081
  444MOL0     H58591   3.864   8.959   5.389 -1.2949 -0.4389 -1.6663
  444MOL0     H58592   4.226   8.745   5.145  1.9538 -3.6722 -2.2472
  444MOL0     H58593   4.450   8.736   5.071 -2.7445  2.3614 -1.3607
  444MOL0     H58594   6.116   9.472   4.680 -0.1065  1.1170 -2.8324
  444MOL0     H58595   6.266   9.428   4.489 -0.9494  0.6512  0.1309
  444MOL0     H58596   6.874   9.544   4.376 -2.4468  0.0725  1.5351
  444MOL0     H58597   7.003   9.448   4.194 -0.0518 -0.1053  2.1661
  444MOL0     H58598   7.171   9.181   4.035  0.0227  0.0804  1.4266
  444MOL0     H58599   7.146   9.334   4.111 -0.9264 -0.0925  1.8046
  444MOL0     H58600   7.177   9.334   3.849 -1.2069 -0.6188 -2.7639
  444MOL0     H58601   7.037   9.235   3.844  2.0191 -1.4864  2.2258
  444MOL0     H58602   7.057   9.521   3.919  0.2918  0.3339 -1.8156
  444MOL0     H58603   6.908   9.444   3.962  0.2819  3.3116  0.6422
  444MOL0     H58604   6.904   9.406   3.694  3.5806 -0.6700 -1.6245
  444MOL0     H58605   6.863   9.561   3.755 -1.5782 -1.5292 -1.1580
  444MOL0     H58606   7.229   9.662   3.566  0.0902  1.6867  0.4943
  444MOL0     H58607   6.743   9.105   4.182 -0.1223  0.4650 -1.0520
  444MOL0     H58608   6.597   9.207   4.331 -1.3768  1.3152  1.5672
  445MOL0     O58609   9.746  11.273   7.755  0.0507  0.1998  0.0309
  445MOL0     C58610   9.810  11.168   7.772  0.3142  0.7656  0.0903
  445MOL0     O58611   9.761  11.042   7.762  0.6103 -0.1020 -0.4282
  445MOL0     C58612   9.628  11.006   7.788 -0.2418 -0.3545 -0.5428
  445MOL0     C58613   9.586  10.874   7.750  0.2141 -0.3982 -0.2018
  445MOL0     C58614   9.458  10.824   7.766  0.1948  0.1340  0.5778
  445MOL0     C58615   9.356  10.914   7.806  0.8324 -0.1279  0.5197
  445MOL0     O58616   9.226  10.876   7.819  0.6007  0.2851 -0.3578
  445MOL0     C58617   9.178  10.740   7.820 -1.2520  0.4343  0.1159
  445MOL0     C58618   9.020  10.747   7.848  0.0724  1.0282  0.0853
  445MOL0     C58619   8.970  10.824   7.966 -0.7139 -0.0046  0.4582
  445MOL0     C58620   8.822  10.838   7.947  0.9254 -1.0559 -0.3742
  445MOL0     C58621   8.766  10.933   8.059  0.2079  0.0587 -0.1255
  445MOL0     C58622   8.616  10.957   8.054 -0.3276  1.1830 -1.2613
  445MOL0     C58623   8.559  11.086   8.131  0.8307  0.4307 -0.1008
  445MOL0     C58624   8.404  11.102   8.116 -0.0089  0.1589  0.3965
  445MOL0     N58625   8.328  10.993   8.177 -0.2497 -0.1442  0.7661
  445MOL0     C58626   8.272  10.991   8.305 -0.2214  0.5821  0.3118
  445MOL0     C58627   8.182  10.891   8.299 -0.9332 -0.1834  0.1328
  445MOL0     C58628   8.087  10.875   8.413  0.6490 -0.4865  0.2524
  445MOL0     C58629   7.942  10.895   8.376 -0.3878  0.1441  0.7053
  445MOL0     C58630   7.861  10.814   8.481  0.7181  0.2848  0.4997
  445MOL0     C58631   7.705  10.861   8.476  0.4788  1.0604  0.3057
  445MOL0     O58632   7.622  10.803   8.582  0.0951  0.1094  0.1222
  445MOL0     C58633   7.492  10.773   8.559  0.1149 -0.7500  0.3875
  445MOL0     C58634   7.435  10.651   8.603  0.4531 -0.1466  0.9097
  445MOL0     C58635   7.299  10.615   8.574  0.0951  0.5548  0.1147
  445MOL0     C58636   7.216  10.708   8.506 -0.0375 -0.1281  0.5282
  445MOL0     C58637   7.073  10.686   8.481 -0.4122 -0.6844 -0.0716
  445MOL0     O58638   6.984  10.791   8.497 -0.0475  0.3433  0.2924
  445MOL0     C58639   6.853  10.764   8.460  0.6097 -0.0879 -0.1673
  445MOL0     C58640   6.828  10.705   8.339  0.1189 -0.4499  0.6427
  445MOL0     C58641   6.699  10.672   8.295  0.1288  0.2775  0.4753
  445MOL0     C58642   6.598  10.693   8.378  0.3467  0.1452 -0.2067
  445MOL0     O58643   6.471  10.653   8.320 -0.5195 -0.1777 -0.5412
  445MOL0     C58644   6.356  10.665   8.400  0.5493 -0.1686 -0.6458
  445MOL0     C58645   6.276  10.777   8.341  0.6369  0.1872 -0.0546
  445MOL0     C58646   6.124  10.785   8.359 -0.1929  0.0389 -0.9301
  445MOL0     C58647   6.093  10.797   8.509 -0.2861  0.4251  0.8493
  445MOL0     C58648   5.941  10.781   8.537 -0.3202 -0.0867 -0.1950
  445MOL0     C58649   5.854  10.903   8.486 -0.7220  0.9336  0.9810
  445MOL0     C58650   5.706  10.905   8.546  0.1812  1.1880 -0.2250
  445MOL0     C58651   5.614  10.995   8.468 -0.0735  0.2902  0.6147
  445MOL0    Cl58652   5.483  11.046   8.572 -0.0365 -0.4536  0.2390
  445MOL0     C58653   6.614  10.765   8.493 -0.0165  0.8638  0.0010
  445MOL0     C58654   6.743  10.788   8.545 -0.9835 -0.4834  0.9651
  445MOL0     O58655   7.045  10.561   8.475 -0.2197 -0.1746  0.6749
  445MOL0     C58656   7.271  10.835   8.469 -0.3822 -0.0624  0.2193
  445MOL0     C58657   7.406  10.867   8.498 -0.4759  0.2807 -0.1401
  445MOL0     N58658   8.178  10.837   8.177 -0.0497 -1.0677 -0.1002
  445MOL0     N58659   8.270  10.898   8.101  0.0927 -0.2096  0.4887
  445MOL0     C58660   9.391  11.038   7.853  0.3171 -0.0843  0.5293
  445MOL0     C58661   9.528  11.081   7.854 -0.1156 -0.0031 -0.7051
  445MOL0     C58662   9.954  11.195   7.782 -0.9628  0.3455  0.0981
  445MOL0     C58663  10.012  11.318   7.813  0.2823 -0.2232  0.1751
  445MOL0     C58664  10.157  11.329   7.825  0.2098 -0.0605 -0.0570
  445MOL0     C58665  10.241  11.224   7.790 -1.3042 -0.2675 -0.5088
  445MOL0     O58666  10.376  11.238   7.809 -0.5471 -0.3385 -0.2319
  445MOL0     C58667  10.425  11.344   7.894 -0.2502  0.0026 -0.8319
  445MOL0     C58668  10.575  11.320   7.893 -0.4831 -0.7430  0.3219
  445MOL0     C58669  10.613  11.205   7.976 -0.4605  0.1714  0.5190
  445MOL0     C58670  10.770  11.210   8.001  0.5690  0.5314  0.4174
  445MOL0     C58671  10.810  11.096   8.082  1.5463  0.2476 -0.1377
  445MOL0     C58672  10.882  10.947   8.199  0.8280  0.7002  0.7190
  445MOL0     C58673  10.185  11.105   7.751 -0.4527  0.0296  0.8216
  445MOL0     C58674  10.046  11.094   7.755 -0.3471  1.0197  1.3057
  445MOL0     H58675   9.666  10.808   7.715  0.6263  0.2485 -0.4999
  445MOL0     H58676   9.433  10.719   7.753  1.6579 -0.0973 -0.7593
  445MOL0     H58677   9.223  10.676   7.897 -1.5703 -3.4611 -2.6256
  445MOL0     H58678   9.196  10.708   7.717  0.2416  5.5643 -1.5157
  445MOL0     H58679   8.984  10.646   7.867  0.7646  0.8150  0.2677
  445MOL0     H58680   8.973  10.788   7.758 -1.4313 -0.6165  0.0639
  445MOL0     H58681   9.017  10.922   7.977  0.4043 -0.6806  2.0548
  445MOL0     H58682   8.991  10.767   8.057 -2.0275 -0.3425  0.5699
  445MOL0     H58683   8.788  10.875   7.849 -0.8856 -0.6325  0.3735
  445MOL0     H58684   8.768  10.744   7.958  1.3661 -1.1501  1.2801
  445MOL0     H58685   8.813  11.031   8.050  1.6367 -0.5381  0.5363
  445MOL0     H58686   8.795  10.898   8.158 -1.5923  0.7947  0.7206
  445MOL0     H58687   8.564  10.867   8.087  2.0406  0.3712  0.5913
  445MOL0     H58688   8.587  10.966   7.949 -2.6523  2.8142 -0.5549
  445MOL0     H58689   8.590  11.094   8.236  1.5447  3.7642 -0.4541
  445MOL0     H58690   8.601  11.174   8.082  3.5554 -0.7384 -0.0451
  445MOL0     H58691   8.380  11.092   8.010 -4.0064  0.0737  1.1500
  445MOL0     H58692   8.377  11.194   8.168 -1.9568 -0.7786  1.1546
  445MOL0     H58693   8.289  11.063   8.385 -2.4713  2.1368 -0.5262
  445MOL0     H58694   8.107  10.948   8.491  0.4097 -0.3401  0.1790
  445MOL0     H58695   8.095  10.770   8.444 -2.3895 -1.2280 -1.0180
  445MOL0     H58696   7.914  10.858   8.277 -3.1428 -3.7644  2.6883
  445MOL0     H58697   7.926  11.003   8.376  1.7498  0.5310  2.8855
  445MOL0     H58698   7.856  10.706   8.465  0.9578  0.1803  1.1335
  445MOL0     H58699   7.903  10.833   8.580  2.0356 -0.2104  0.0554
  445MOL0     H58700   7.673  10.821   8.379  1.1076 -2.3150  1.3694
  445MOL0     H58701   7.699  10.969   8.456  1.7780  0.8497 -1.4833
  445MOL0     H58702   7.499  10.585   8.662  0.4044  1.4612  2.8998
  445MOL0     H58703   7.269  10.526   8.628  1.5004 -0.8000 -1.2464
  445MOL0     H58704   6.914  10.669   8.283  0.0917 -0.5694  0.6780
  445MOL0     H58705   6.683  10.626   8.198 -0.2345  1.6018 -0.1056
  445MOL0     H58706   6.368  10.689   8.506 -1.2356 -1.3615 -0.1393
  445MOL0     H58707   6.298  10.573   8.396 -1.4007  0.8510  1.6494
  445MOL0     H58708   6.288  10.769   8.233  1.3998  2.7212 -0.2220
  445MOL0     H58709   6.311  10.874   8.379 -2.5154  0.6703  1.9726
  445MOL0     H58710   6.065  10.703   8.315 -1.9227  0.5738  0.2923
  445MOL0     H58711   6.098  10.879   8.310  0.7391  0.8202  0.0396
  445MOL0     H58712   6.150  10.717   8.557 -0.2387 -0.9949 -1.4373
  445MOL0     H58713   6.131  10.891   8.549 -0.8981  1.0805 -0.0769
  445MOL0     H58714   5.915  10.761   8.642  2.2474 -1.6200  0.2568
  445MOL0     H58715   5.910  10.690   8.486 -1.4039  0.8106 -1.2026
  445MOL0     H58716   5.866  10.911   8.378  1.6481  3.5387  1.3327
  445MOL0     H58717   5.886  10.998   8.530 -2.2960  1.2078  1.6239
  445MOL0     H58718   5.667  10.804   8.559  1.9182  0.6392  1.0753
  445MOL0     H58719   5.723  10.948   8.645  0.0086  0.2262  0.2240
  445MOL0     H58720   5.571  10.945   8.381 -0.2948  0.4128  0.6540
  445MOL0     H58721   5.671  11.082   8.432  0.5730 -0.7535 -0.9854
  445MOL0     H58722   6.538  10.805   8.560 -0.3930  2.7807 -1.4719
  445MOL0     H58723   6.751  10.828   8.646  0.1176  4.5875 -0.8209
  445MOL0     H58724   7.206  10.906   8.420 -0.2955 -0.2436 -0.1596
  445MOL0     H58725   7.430  10.969   8.470 -3.1772  0.7608 -0.9855
  445MOL0     H58726   9.309  11.088   7.904 -0.1377 -2.8566  2.7950
  445MOL0     H58727   9.552  11.175   7.903 -1.3509  0.6436 -1.3016
  445MOL0     H58728   9.950  11.404   7.834 -0.1388  0.8367 -4.3423
  445MOL0     H58729  10.179  11.423   7.875 -0.3879 -1.4876  3.1326
  445MOL0     H58730  10.384  11.339   7.995 -0.4433  0.3539 -0.8958
  445MOL0     H58731  10.408  11.444   7.855  1.5329 -0.3038 -2.6062
  445MOL0     H58732  10.606  11.316   7.788 -0.1623 -0.7963  0.4190
  445MOL0     H58733  10.629  11.405   7.933 -2.1657  0.6662 -0.2712
  445MOL0     H58734  10.579  11.115   7.924  0.4165 -0.5844  1.2326
  445MOL0     H58735  10.559  11.211   8.071  2.6119  0.3090  2.4040
  445MOL0     H58736  10.826  11.203   7.907  1.2338  1.7514  0.6942
  445MOL0     H58737  10.802  11.297   8.060  0.2145  0.8001  0.2207
  445MOL0     H58738  10.903  10.860   8.257  1.2928  1.6411  2.0228
  445MOL0     H58739  10.246  11.015   7.742 -1.4835 -0.6816  0.7561
  445MOL0     H58740  10.010  10.996   7.725  0.8935  1.0024 -0.2704
  446MOL0     O58741   5.138   8.372   6.208  0.5046  0.2494  0.2007
  446MOL0     C58742   5.191   8.438   6.290  0.2261  0.1297  0.8510
  446MOL0     O58743   5.134   8.536   6.369 -0.1352  0.8482 -0.5443
  446MOL0     C58744   5.001   8.570   6.370 -0.2421 -0.3621  0.3206
  446MOL0     C58745   4.902   8.475   6.338  0.2748  0.2333  0.4514
  446MOL0     C58746   4.773   8.512   6.367  0.5704 -0.2283  0.6714
  446MOL0     C58747   4.736   8.633   6.435  0.2999 -0.2131  0.0711
  446MOL0     O58748   4.608   8.646   6.479  0.1201 -0.3934 -0.0429
  446MOL0     C58749   4.568   8.757   6.564 -0.7422  0.1639 -0.5346
  446MOL0     C58750   4.532   8.883   6.465  0.2223  0.1563  0.3729
  446MOL0     C58751   4.385   8.919   6.445 -0.1031 -0.1781 -0.6746
  446MOL0     C58752   4.292   8.948   6.572  0.3137 -0.4415  0.1416
  446MOL0     C58753   4.140   8.962   6.547  1.0147  0.6084  0.1599
  446MOL0     C58754   4.080   8.827   6.507  0.3029  0.0894  0.6270
  446MOL0     C58755   3.926   8.848   6.463 -0.2564 -0.8621  0.1646
  446MOL0     C58756   3.934   8.926   6.324  0.5761  0.3640  0.3743
  446MOL0     N58757   3.810   8.926   6.249  0.1605 -0.7192  0.0432
  446MOL0     C58758   3.691   8.988   6.278 -0.8388  0.7422 -0.2027
  446MOL0     C58759   3.608   8.921   6.193 -0.4721  0.2016 -0.0092
  446MOL0     C58760   3.456   8.924   6.210 -0.0973  0.1831 -0.0593
  446MOL0     C58761   3.409   9.036   6.106 -0.2071 -0.1448 -0.1416
  446MOL0     C58762   3.312   9.138   6.171  0.3840 -0.3468  0.0742
  446MOL0     C58763   3.392   9.252   6.244  0.0411 -0.2483 -0.3590
  446MOL0     O58764   3.454   9.334   6.147  0.3758 -0.0607  0.2940
  446MOL0     C58765   3.589   9.333   6.151  0.0383 -0.2987  0.3564
  446MOL0     C58766   3.657   9.342   6.273 -0.8722 -0.6901 -0.3152
  446MOL0     C58767   3.797   9.347   6.288  0.6518 -0.1663  0.2339
  446MOL0     C58768   3.873   9.346   6.170  0.3175  0.6103 -0.4197
  446MOL0     C58769   4.019   9.350   6.187 -0.4520  0.4189 -0.1733
  446MOL0     O58770   4.087   9.312   6.078  0.0662 -0.9317 -0.3825
  446MOL0     C58771   4.220   9.333   6.091 -0.8001 -0.2412  0.2514
  446MOL0     C58772   4.313   9.226   6.112  0.7062 -0.5998  0.0603
  446MOL0     C58773   4.452   9.243   6.120 -0.3969  0.1486 -0.2323
  446MOL0     C58774   4.506   9.370   6.111 -0.9746  0.1009  0.0621
  446MOL0     O58775   4.641   9.392   6.135 -0.4997  0.0370 -0.3411
  446MOL0     C58776   4.732   9.295   6.179  0.0181 -0.8279  0.3005
  446MOL0     C58777   4.855   9.355   6.234 -0.2152 -0.4763 -1.1546
  446MOL0     C58778   4.921   9.267   6.342  0.7999  0.5990  0.7505
  446MOL0     C58779   5.045   9.321   6.408  0.4114  1.4445  0.6595
  446MOL0     C58780   5.114   9.230   6.505  0.3077 -0.1575  0.3034
  446MOL0     C58781   5.199   9.112   6.465  0.2216 -1.0114 -0.0305
  446MOL0     C58782   5.271   9.040   6.588 -0.0814 -0.3471  0.5736
  446MOL0     C58783   5.373   8.941   6.537  0.2289  0.6907  0.3925
  446MOL0    Cl58784   5.290   8.812   6.443 -0.1244 -0.6451  0.4829
  446MOL0     C58785   4.423   9.478   6.088 -0.0596 -0.7990  0.2895
  446MOL0     C58786   4.283   9.460   6.077 -0.1748 -0.5457 -0.0912
  446MOL0     O58787   4.065   9.398   6.292 -0.0884  0.1178 -0.2775
  446MOL0     C58788   3.806   9.334   6.045  0.4334  0.2861 -0.0724
  446MOL0     C58789   3.664   9.336   6.040  0.7541  0.0216  0.8029
  446MOL0     N58790   3.678   8.848   6.103  0.0016  0.3292  0.0364
  446MOL0     N58791   3.796   8.841   6.140 -0.2288  0.5797 -0.9276
  446MOL0     C58792   4.834   8.731   6.449 -0.5830 -0.6436  0.4104
  446MOL0     C58793   4.963   8.695   6.420 -0.7254  0.0692 -0.3794
  446MOL0     C58794   5.337   8.401   6.307  0.0337 -0.1306 -0.4207
  446MOL0     C58795   5.420   8.479   6.392  0.1885 -0.9156  0.2923
  446MOL0     C58796   5.562   8.465   6.404 -0.2285  0.2426 -0.3109
  446MOL0     C58797   5.627   8.368   6.321 -0.1191 -0.2714  0.0469
  446MOL0     O58798   5.763   8.325   6.333  0.6219  0.4113 -0.7693
  446MOL0     C58799   5.838   8.394   6.437  0.7053 -0.0231  0.0078
  446MOL0     C58800   5.982   8.396   6.410 -0.7606 -1.0753  0.2174
  446MOL0     C58801   6.010   8.466   6.275 -0.3033 -0.1725  0.6779
  446MOL0     C58802   6.152   8.485   6.230 -0.1550 -0.3365  0.4652
  446MOL0     C58803   6.232   8.587   6.294 -0.4401 -1.1279 -0.2570
  446MOL0     C58804   6.302   8.674   6.344 -0.0014 -0.2132  1.0813
  446MOL0     C58805   5.551   8.296   6.227 -0.0866 -0.0174 -0.6512
  446MOL0     C58806   5.413   8.322   6.209  0.2536 -0.2261 -0.3862
  446MOL0     H58807   4.902   8.376   6.294 -2.4164  0.3688 -0.0224
  446MOL0     H58808   4.709   8.426   6.345  1.3636 -0.8164  0.6099
  446MOL0     H58809   4.644   8.786   6.638 -3.2309  0.5674  2.0062
  446MOL0     H58810   4.478   8.725   6.616 -1.7393  2.7715 -0.5019
  446MOL0     H58811   4.560   8.877   6.359  1.9097  1.9519  0.6768
  446MOL0     H58812   4.592   8.964   6.507  1.3422  0.9167 -2.4671
  446MOL0     H58813   4.336   8.848   6.377  1.4437  1.8598 -4.1841
  446MOL0     H58814   4.387   9.009   6.383  0.2924  0.6965  0.5765
  446MOL0     H58815   4.308   8.879   6.656 -1.4193  0.5022  1.3207
  446MOL0     H58816   4.330   9.037   6.624 -0.7135 -1.4361  2.7840
  446MOL0     H58817   4.132   9.028   6.460  1.3667 -2.0359 -1.9842
  446MOL0     H58818   4.086   9.006   6.632 -0.1492  2.8444 -1.6031
  446MOL0     H58819   4.101   8.755   6.586  1.3501 -0.6523 -0.2821
  446MOL0     H58820   4.127   8.789   6.415  0.3422  1.1390  0.2061
  446MOL0     H58821   3.864   8.759   6.447 -1.7921  0.2087 -0.0539
  446MOL0     H58822   3.882   8.921   6.531  0.9908  0.2939 -0.2273
  446MOL0     H58823   4.017   8.889   6.263 -0.5233 -3.3201  0.8471
  446MOL0     H58824   3.964   9.025   6.357  3.2707 -0.1556 -0.2212
  446MOL0     H58825   3.654   9.042   6.364  0.2384  0.1471  0.6519
  446MOL0     H58826   3.426   8.936   6.314 -0.0766 -3.2960  0.4354
  446MOL0     H58827   3.414   8.829   6.177  0.4217  0.5613 -1.9880
  446MOL0     H58828   3.362   8.991   6.018  0.5608  0.9184 -1.1438
  446MOL0     H58829   3.494   9.095   6.071 -0.1285  0.4152  0.9502
  446MOL0     H58830   3.248   9.174   6.090 -0.6280  0.6980  1.2947
  446MOL0     H58831   3.247   9.096   6.248 -0.2093  2.6098  1.3267
  446MOL0     H58832   3.456   9.205   6.318  1.0989  0.4281 -0.8240
  446MOL0     H58833   3.318   9.320   6.288 -1.0934 -1.5382 -0.1948
  446MOL0     H58834   3.614   9.349   6.372  0.7600 -1.2267  0.4757
  446MOL0     H58835   3.833   9.355   6.390 -2.7571 -1.0948  1.6741
  446MOL0     H58836   4.274   9.127   6.133  2.2765 -1.0853  0.8401
  446MOL0     H58837   4.520   9.158   6.123  0.7117  0.9787 -0.9236
  446MOL0     H58838   4.752   9.218   6.104  2.7292 -1.8496  1.9075
  446MOL0     H58839   4.683   9.251   6.267 -0.5129  0.3105  0.5932
  446MOL0     H58840   4.816   9.446   6.281  0.9486  0.7163 -2.4062
  446MOL0     H58841   4.921   9.381   6.150 -0.0466  0.6500 -0.6875
  446MOL0     H58842   4.948   9.172   6.294 -2.4638 -0.1905  0.2475
  446MOL0     H58843   4.839   9.259   6.413 -3.3039  1.0998 -3.4342
  446MOL0     H58844   5.124   9.338   6.333  0.5440  1.6756  0.8475
  446MOL0     H58845   5.020   9.418   6.452  0.9429  2.7776 -1.8022
  446MOL0     H58846   5.030   9.195   6.566  0.2964  1.1887  1.0838
  446MOL0     H58847   5.178   9.289   6.571 -1.7112  2.2898  0.2181
  446MOL0     H58848   5.283   9.152   6.406 -0.1451  0.9654  0.7135
  446MOL0     H58849   5.148   9.038   6.402  3.6025 -1.3062 -2.7163
  446MOL0     H58850   5.320   9.118   6.648 -1.1626  0.5411  0.3333
  446MOL0     H58851   5.196   8.991   6.650 -3.0555  0.9716 -1.7271
  446MOL0     H58852   5.428   8.897   6.621  0.6889  2.5363  1.1056
  446MOL0     H58853   5.441   9.001   6.477  1.7784 -2.0930 -0.8558
  446MOL0     H58854   4.471   9.575   6.099  0.0857 -0.5243 -2.2317
  446MOL0     H58855   4.217   9.546   6.071 -0.6999 -0.7069  2.2862
  446MOL0     H58856   3.860   9.318   5.952 -3.0857 -1.6111 -1.9592
  446MOL0     H58857   3.618   9.338   5.942 -0.8134  3.1056  1.4666
  446MOL0     H58858   4.819   8.829   6.493 -0.7255 -1.0172  1.2138
  446MOL0     H58859   5.046   8.762   6.438  0.8172 -1.9019  0.2477
  446MOL0     H58860   5.365   8.544   6.459 -1.4089 -0.9700 -0.9246
  446MOL0     H58861   5.606   8.515   6.490 -2.6416 -0.8271  1.6623
  446MOL0     H58862   5.818   8.347   6.534 -0.8297 -3.2874 -1.7232
  446MOL0     H58863   5.795   8.495   6.441  0.0916 -0.3153  1.0367
  446MOL0     H58864   6.042   8.442   6.490  1.3810 -0.9626 -1.3508
  446MOL0     H58865   6.017   8.293   6.414 -2.6818 -1.8006 -0.5547
  446MOL0     H58866   5.958   8.562   6.278 -0.4582 -0.2725  1.6345
  446MOL0     H58867   5.961   8.403   6.201  2.8201 -1.7202 -0.2591
  446MOL0     H58868   6.209   8.391   6.236  2.2574  1.0669  0.8871
  446MOL0     H58869   6.149   8.503   6.122  0.5601 -1.8624  0.1528
  446MOL0     H58870   6.371   8.751   6.371  0.4721 -0.8223  1.6106
  446MOL0     H58871   5.600   8.214   6.176 -1.6575 -2.1859  1.1135
  446MOL0     H58872   5.358   8.265   6.135 -0.8533 -1.2832  1.2022
  447MOL0     O58873  10.645   1.489   9.373  0.2111  0.0607 -0.5133
  447MOL0     C58874  10.655   1.503   9.502 -0.5977  0.3826  0.0478
  447MOL0     O58875  10.575   1.570   9.585  0.6386  0.3468 -0.1469
  447MOL0     C58876  10.471   1.626   9.528  1.1986 -1.0963  0.4066
  447MOL0     C58877  10.478   1.718   9.422 -0.1539  1.2021  0.6100
  447MOL0     C58878  10.365   1.779   9.366  0.6911  1.0895  0.3625
  447MOL0     C58879  10.240   1.732   9.404 -0.7087  0.1295 -0.1500
  447MOL0     O58880  10.135   1.771   9.326 -0.3126 -0.6740  0.1998
  447MOL0     C58881   9.997   1.772   9.375 -0.2030  1.3447 -0.2860
  447MOL0     C58882   9.910   1.890   9.321  0.3794 -0.8048  0.0455
  447MOL0     C58883   9.766   1.900   9.367 -0.1576 -0.3302  0.1506
  447MOL0     C58884   9.690   1.767   9.341  0.8565  0.2434 -0.4230
  447MOL0     C58885   9.644   1.749   9.196 -0.2400 -0.6714  0.1867
  447MOL0     C58886   9.746   1.699   9.089  0.1574  0.2817  0.2712
  447MOL0     C58887   9.695   1.593   8.992 -0.0721 -0.1544  0.2531
  447MOL0     C58888   9.607   1.652   8.878 -0.1158 -0.8806 -0.5907
  447MOL0     N58889   9.668   1.714   8.754 -0.4965 -0.8593 -0.1486
  447MOL0     C58890   9.793   1.686   8.702 -0.9056  0.2199  0.1673
  447MOL0     C58891   9.814   1.765   8.600  0.3351 -0.3702  1.3861
  447MOL0     C58892   9.938   1.783   8.526 -0.1557  0.4317 -0.3799
  447MOL0     C58893   9.950   1.685   8.405  0.2515  0.0210 -0.5354
  447MOL0     C58894   9.873   1.754   8.297 -0.4713  0.1405  0.4693
  447MOL0     C58895   9.864   1.655   8.170  0.0144  0.5632 -0.1826
  447MOL0     O58896   9.797   1.530   8.197  0.7626 -0.3272 -0.1394
  447MOL0     C58897   9.659   1.540   8.179 -1.1177  0.2490  0.4405
  447MOL0     C58898   9.603   1.494   8.055  0.2724 -0.2289 -0.6139
  447MOL0     C58899   9.467   1.500   8.026  0.2261 -0.0803  0.7038
  447MOL0     C58900   9.370   1.542   8.124 -0.1849 -0.3262 -0.8721
  447MOL0     C58901   9.231   1.545   8.102  0.4681 -0.3961  0.7554
  447MOL0     O58902   9.187   1.502   7.983 -0.5592 -0.1077 -0.0517
  447MOL0     C58903   9.051   1.516   7.960  0.7874 -0.5867 -0.4526
  447MOL0     C58904   8.994   1.640   7.919 -0.8928  0.0595  0.2247
  447MOL0     C58905   8.859   1.656   7.890  0.3049 -0.0331 -0.4589
  447MOL0     C58906   8.769   1.547   7.905  0.4540  0.2823 -0.4901
  447MOL0     O58907   8.633   1.540   7.884 -0.8818 -0.4281  0.4078
  447MOL0     C58908   8.559   1.652   7.910 -0.3868 -0.0744 -0.9739
  447MOL0     C58909   8.413   1.621   7.912  0.0402 -0.3307  0.6076
  447MOL0     C58910   8.332   1.741   7.970  0.5212  0.2007  0.2371
  447MOL0     C58911   8.185   1.700   7.990 -0.2188  0.3142 -0.7368
  447MOL0     C58912   8.094   1.819   8.049  0.4702 -0.0931 -0.0435
  447MOL0     C58913   7.941   1.782   8.048 -0.4261  0.5152  0.4168
  447MOL0     C58914   7.859   1.889   8.131 -0.6319  0.2898  0.9254
  447MOL0     C58915   7.721   1.881   8.086  0.3395 -0.2012  0.7436
  447MOL0    Cl58916   7.623   1.773   8.183 -0.0504  0.2562  0.3737
  447MOL0     C58917   8.823   1.423   7.951  0.6006 -0.0105 -0.3426
  447MOL0     C58918   8.969   1.405   7.972  0.3065  0.4771 -0.1225
  447MOL0     O58919   9.165   1.594   8.188 -0.8178 -0.1179  0.4357
  447MOL0     C58920   9.424   1.576   8.254 -0.2451  0.6690 -0.4878
  447MOL0     C58921   9.561   1.572   8.275 -0.2795 -0.1106 -0.2633
  447MOL0     N58922   9.705   1.854   8.591  0.4893 -0.0556  0.9187
  447MOL0     N58923   9.623   1.819   8.679  0.1786  0.3957 -0.6150
  447MOL0     C58924  10.227   1.641   9.505 -0.7545 -0.9986 -0.9501
  447MOL0     C58925  10.339   1.586   9.575 -0.2201 -0.4112  0.9201
  447MOL0     C58926  10.789   1.460   9.557 -0.4966 -0.9287  0.1152
  447MOL0     C58927  10.903   1.457   9.473 -0.1490  0.9106  0.6017
  447MOL0     C58928  11.026   1.421   9.518  0.5639 -0.5094 -0.4674
  447MOL0     C58929  11.050   1.392   9.651 -0.0710  0.7098 -0.1286
  447MOL0     O58930  11.175   1.359   9.696 -0.4622  0.0217 -1.0669
  447MOL0     C58931  11.198   1.385   9.838 -0.0974 -0.0449 -0.6772
  447MOL0     C58932  11.347   1.383   9.862 -0.3975  0.6153  0.2713
  447MOL0     C58933  11.382   1.418  10.004 -0.1599 -0.2000 -0.7402
  447MOL0     C58934  11.533   1.421  10.017  0.4369 -0.4261 -0.4731
  447MOL0     C58935  11.548   1.432  10.170 -0.3053 -0.0103 -0.6361
  447MOL0     C58936  11.567   1.422  10.289 -0.1238 -0.0522 -0.0335
  447MOL0     C58937  10.940   1.404   9.745 -0.0546  0.2133 -0.5826
  447MOL0     C58938  10.807   1.427   9.689 -0.4936  0.1688  0.1647
  447MOL0     H58939  10.571   1.763   9.390  0.9796 -1.2029  0.3304
  447MOL0     H58940  10.372   1.856   9.290 -0.6929  2.2893  1.3941
  447MOL0     H58941   9.997   1.781   9.484  3.5396 -1.5627  0.1814
  447MOL0     H58942   9.952   1.674   9.358 -0.4091  0.7049  3.3055
  447MOL0     H58943   9.917   1.890   9.211  0.9251 -0.2097  0.0760
  447MOL0     H58944   9.949   1.989   9.344 -0.1247 -0.5435 -0.2031
  447MOL0     H58945   9.712   1.979   9.314 -1.3950 -1.9087 -1.0609
  447MOL0     H58946   9.768   1.910   9.476  1.0040 -0.3149  0.1398
  447MOL0     H58947   9.744   1.676   9.372  0.6931 -0.0351 -0.9547
  447MOL0     H58948   9.596   1.772   9.397  1.5694 -1.8661  1.1308
  447MOL0     H58949   9.582   1.836   9.172 -0.3870  0.9502  5.1832
  447MOL0     H58950   9.565   1.673   9.194 -0.4679 -0.4323  0.0676
  447MOL0     H58951   9.816   1.645   9.154  0.3380 -1.5039 -1.3286
  447MOL0     H58952   9.787   1.780   9.028 -1.7773  0.1260 -1.3504
  447MOL0     H58953   9.785   1.552   8.945 -0.9033 -1.8552  0.0525
  447MOL0     H58954   9.635   1.523   9.051 -3.6999 -0.1737 -3.0211
  447MOL0     H58955   9.556   1.733   8.931  0.8419 -0.4899 -0.2348
  447MOL0     H58956   9.536   1.572   8.855 -0.3808 -0.8606  0.1135
  447MOL0     H58957   9.867   1.607   8.711 -0.0690  0.9906  0.1815
  447MOL0     H58958  10.026   1.764   8.590 -1.8279  0.5360  2.0841
  447MOL0     H58959   9.953   1.885   8.491  1.5998 -0.3965 -2.2822
  447MOL0     H58960   9.916   1.585   8.431  3.4380 -2.1590 -3.7820
  447MOL0     H58961  10.051   1.679   8.364 -0.0557  1.6488 -1.6384
  447MOL0     H58962   9.770   1.786   8.317 -1.1224 -0.4592 -1.6437
  447MOL0     H58963   9.931   1.840   8.262  2.2786 -1.8467 -0.2050
  447MOL0     H58964   9.963   1.624   8.136  0.0184  0.7535 -0.3454
  447MOL0     H58965   9.817   1.710   8.089  1.0231  2.4297  0.4362
  447MOL0     H58966   9.675   1.454   7.984  1.1423  0.7316 -0.2898
  447MOL0     H58967   9.428   1.468   7.930 -1.7561  0.8571  1.1380
  447MOL0     H58968   9.060   1.725   7.903  0.5309 -1.3213 -1.7668
  447MOL0     H58969   8.817   1.752   7.862  0.3202  0.5625  1.4438
  447MOL0     H58970   8.570   1.718   7.824  0.6789 -0.5695 -1.2370
  447MOL0     H58971   8.587   1.711   7.998 -2.2694 -1.8268  0.9153
  447MOL0     H58972   8.398   1.526   7.966 -2.7048  0.9155  2.2548
  447MOL0     H58973   8.384   1.606   7.807  0.1208  0.1456  0.5193
  447MOL0     H58974   8.339   1.837   7.919 -0.9039 -0.1580 -0.7009
  447MOL0     H58975   8.374   1.760   8.069 -1.2427 -0.9844  1.2524
  447MOL0     H58976   8.137   1.669   7.897 -0.6218 -3.4502  0.5714
  447MOL0     H58977   8.168   1.619   8.061  0.6820  2.6708  2.4171
  447MOL0     H58978   8.121   1.901   7.981  2.1835  0.5072  1.2929
  447MOL0     H58979   8.125   1.841   8.151 -0.6524 -0.2199  0.3416
  447MOL0     H58980   7.931   1.679   8.086 -1.5824 -0.2848 -1.8996
  447MOL0     H58981   7.911   1.774   7.944 -2.6112 -1.3835  1.1095
  447MOL0     H58982   7.850   1.855   8.234  2.0581  0.5976  1.3494
  447MOL0     H58983   7.903   1.989   8.132  2.5336 -0.9179 -0.7745
  447MOL0     H58984   7.721   1.846   7.982 -3.1689 -0.8179  0.8207
  447MOL0     H58985   7.679   1.981   8.074 -0.7924 -0.8335 -0.9721
  447MOL0     H58986   8.768   1.331   7.970 -0.7456  0.8020 -0.1701
  447MOL0     H58987   9.017   1.314   8.007  1.3608  1.5605  1.3570
  447MOL0     H58988   9.359   1.604   8.336  0.7685  3.4460 -0.5320
  447MOL0     H58989   9.601   1.592   8.374  0.1693  1.2703 -0.7068
  447MOL0     H58990  10.128   1.608   9.535  0.0822 -3.0744 -0.2753
  447MOL0     H58991  10.331   1.512   9.654  1.2008 -1.8319 -0.2052
  447MOL0     H58992  10.882   1.468   9.367  0.9917  0.0674  0.2654
  447MOL0     H58993  11.102   1.419   9.440  1.7608  0.7332  0.6114
  447MOL0     H58994  11.137   1.315   9.896 -0.9325  0.3954 -1.0086
  447MOL0     H58995  11.155   1.485   9.854  0.7370  0.3909 -1.1449
  447MOL0     H58996  11.369   1.277   9.849 -0.1250  0.5356  1.2933
  447MOL0     H58997  11.386   1.443   9.779 -0.2539 -0.0724 -0.1712
  447MOL0     H58998  11.332   1.358  10.081  2.2359  1.3199  2.2647
  447MOL0     H58999  11.343   1.520  10.020 -0.7659 -0.7459  1.8189
  447MOL0     H59000  11.589   1.333   9.984  0.1386 -0.0445 -2.0716
  447MOL0     H59001  11.571   1.518   9.984 -1.4704  0.3143 -0.6750
  447MOL0     H59002  11.588   1.398  10.391 -2.0885  1.6594  0.8528
  447MOL0     H59003  10.957   1.384   9.851  1.7240  2.0240 -0.4703
  447MOL0     H59004  10.718   1.426   9.751 -1.4516  0.8463 -1.1373
  448MOL0     O59005   4.317  11.015   7.863 -0.2666  0.2743  0.0579
  448MOL0     C59006   4.284  11.107   7.794 -0.7346  0.6031  0.0624
  448MOL0     O59007   4.160  11.113   7.733 -0.8503 -0.1220  0.2623
  448MOL0     C59008   4.063  11.018   7.756  0.2063  0.0684 -0.0096
  448MOL0     C59009   4.091  10.877   7.762  0.9155  0.2911 -0.1688
  448MOL0     C59010   3.988  10.782   7.764 -0.0473  0.0479  0.7782
  448MOL0     C59011   3.862  10.829   7.780 -0.5833  0.1039  0.4972
  448MOL0     O59012   3.768  10.729   7.779  0.1325  0.1723 -0.5163
  448MOL0     C59013   3.648  10.746   7.854 -0.0305 -1.1386  0.5290
  448MOL0     C59014   3.536  10.651   7.812 -0.2976 -0.7974 -0.0896
  448MOL0     C59015   3.494  10.671   7.662  0.5537 -0.3217  0.2197
  448MOL0     C59016   3.432  10.814   7.643  0.9449 -0.1115  0.0389
  448MOL0     C59017   3.383  10.845   7.503  0.2515  0.2318  1.0835
  448MOL0     C59018   3.277  10.947   7.512  0.2176 -0.5179 -0.7632
  448MOL0     C59019   3.247  11.006   7.364  0.1420 -0.7918 -0.0906
  448MOL0     C59020   3.161  11.134   7.370 -0.2938  1.0547 -0.1298
  448MOL0     N59021   3.033  11.095   7.423  0.6394  0.1102  0.4033
  448MOL0     C59022   2.928  11.053   7.344 -0.3552 -0.3441 -0.2441
  448MOL0     C59023   2.824  11.035   7.425  1.3661  0.3701 -0.0890
  448MOL0     C59024   2.686  11.006   7.384  0.0247  0.7800  0.5528
  448MOL0     C59025   2.641  11.111   7.284 -0.2960 -0.4038 -0.1536
  448MOL0     C59026   2.481  11.112   7.274 -0.0638 -0.9759 -0.1163
  448MOL0     C59027   2.428  11.182   7.146  0.8958  0.3567  0.5877
  448MOL0     O59028   2.447  11.086   7.036 -0.6825 -1.1926  0.1608
  448MOL0     C59029   2.363  11.083   6.928  0.4485 -0.4879  0.0070
  448MOL0     C59030   2.254  11.160   6.899  0.0199 -0.0643 -0.4982
  448MOL0     C59031   2.182  11.151   6.778 -0.2426  0.3014 -0.8544
  448MOL0     C59032   2.214  11.047   6.691  0.7796  0.5152 -0.9363
  448MOL0     C59033   2.138  11.032   6.557 -0.1027 -0.6298 -0.7148
  448MOL0     O59034   2.018  11.094   6.553  0.0942  0.3987  0.9479
  448MOL0     C59035   1.965  11.140   6.436 -0.6549  0.3290  0.1794
  448MOL0     C59036   2.043  11.188   6.326 -0.8954  0.2982  0.5783
  448MOL0     C59037   1.980  11.220   6.204 -0.2667 -0.4321 -0.4395
  448MOL0     C59038   1.848  11.227   6.187  0.5416  0.9910  0.0112
  448MOL0     O59039   1.809  11.249   6.056  0.4045 -0.1696 -0.1941
  448MOL0     C59040   1.663  11.276   6.038 -0.7460  0.6152 -1.3783
  448MOL0     C59041   1.640  11.402   5.962  0.4853  0.6936  0.7027
  448MOL0     C59042   1.497  11.449   5.944  1.1306  0.4980 -0.1759
  448MOL0     C59043   1.502  11.589   5.893  0.6760  0.6513  0.3787
  448MOL0     C59044   1.367  11.650   5.863  0.0116  0.0601 -0.0475
  448MOL0     C59045   1.388  11.781   5.787 -0.8360  0.5170  0.2363
  448MOL0     C59046   1.252  11.830   5.731  0.2897  0.1020 -1.0616
  448MOL0     C59047   1.267  11.958   5.658 -0.8791  0.2946 -0.6841
  448MOL0    Cl59048   1.095  12.024   5.639  0.2043 -0.2377 -0.3442
  448MOL0     C59049   1.773  11.170   6.297 -0.4451 -1.2821 -0.3215
  448MOL0     C59050   1.828  11.135   6.425  0.6041 -0.8998 -0.2784
  448MOL0     O59051   2.191  10.975   6.465 -0.3732 -0.3655 -0.4391
  448MOL0     C59052   2.326  10.965   6.711  0.5113 -0.2690 -0.0140
  448MOL0     C59053   2.392  10.982   6.836  0.5394 -0.1499 -0.4756
  448MOL0     N59054   2.866  11.061   7.554 -0.5629 -0.5364 -0.3605
  448MOL0     N59055   2.991  11.088   7.555 -0.1695  0.0489  0.0714
  448MOL0     C59056   3.836  10.969   7.772  0.0621 -0.5571 -0.0813
  448MOL0     C59057   3.934  11.061   7.755 -0.5240  0.7843 -1.0898
  448MOL0     C59058   4.392  11.201   7.753  0.1014  0.1014  0.2618
  448MOL0     C59059   4.525  11.158   7.759 -0.7379  0.6569  0.2563
  448MOL0     C59060   4.623  11.255   7.737 -0.3136  0.5116 -0.4551
  448MOL0     C59061   4.602  11.390   7.717  0.6869 -0.3965 -0.2033
  448MOL0     O59062   4.712  11.473   7.702 -0.7325 -1.2137 -0.1855
  448MOL0     C59063   4.701  11.596   7.631  0.5676  0.1588  0.1875
  448MOL0     C59064   4.825  11.670   7.615  0.2136 -1.1580 -0.1734
  448MOL0     C59065   4.817  11.760   7.491 -0.1958  0.6509 -0.0367
  448MOL0     C59066   4.940  11.849   7.463 -0.0403  0.4333  1.3567
  448MOL0     C59067   4.936  11.979   7.535  0.4924  0.2535  0.2104
  448MOL0     C59068   4.927  12.062   7.615 -1.3378  0.0383 -0.1416
  448MOL0     C59069   4.468  11.422   7.693  0.0518 -0.0048  0.4996
  448MOL0     C59070   4.360  11.333   7.710 -0.8605  0.6172  0.7114
  448MOL0     H59071   4.180  10.825   7.729  1.2299 -2.2527  3.8738
  448MOL0     H59072   4.018  10.679   7.752  0.8580  0.3505  0.3223
  448MOL0     H59073   3.615  10.850   7.850  1.3828 -0.7180 -0.9902
  448MOL0     H59074   3.658  10.718   7.960 -2.3835 -5.9165 -0.2208
  448MOL0     H59075   3.452  10.669   7.879  1.4405 -1.1911  2.3283
  448MOL0     H59076   3.558  10.546   7.835 -2.4518 -2.1834 -3.5452
  448MOL0     H59077   3.423  10.599   7.621 -0.4688  1.3831 -1.1165
  448MOL0     H59078   3.582  10.662   7.597  0.0589 -0.9852 -0.3726
  448MOL0     H59079   3.338  10.803   7.699  2.1280  1.1964  2.4508
  448MOL0     H59080   3.485  10.899   7.688 -2.8741  2.1035  0.8940
  448MOL0     H59081   3.343  10.762   7.444  1.3847  0.6284 -0.2970
  448MOL0     H59082   3.463  10.891   7.446  0.7024 -1.2034  0.5161
  448MOL0     H59083   3.322  11.025   7.574 -1.2326 -0.5854  0.4396
  448MOL0     H59084   3.190  10.917   7.571  1.5511 -1.3488  0.8450
  448MOL0     H59085   3.337  11.023   7.305  0.6338  1.6265  1.2394
  448MOL0     H59086   3.194  10.932   7.303 -1.8679  0.3194  0.2379
  448MOL0     H59087   3.151  11.157   7.264  1.7034  0.4135 -0.4958
  448MOL0     H59088   3.224  11.205   7.425  2.4891  0.7922 -2.7429
  448MOL0     H59089   2.929  11.037   7.236  2.0183 -0.6826 -0.2212
  448MOL0     H59090   2.622  11.006   7.472  0.5070  1.6478  0.9150
  448MOL0     H59091   2.684  10.912   7.328  2.6944  2.3380 -2.5585
  448MOL0     H59092   2.682  11.087   7.186 -1.0391 -3.3159  0.1643
  448MOL0     H59093   2.675  11.212   7.308 -0.3167 -0.3841 -0.2062
  448MOL0     H59094   2.434  11.013   7.268 -1.9503 -0.1293 -0.2087
  448MOL0     H59095   2.446  11.168   7.362  1.0681  0.4771 -0.5531
  448MOL0     H59096   2.476  11.276   7.118 -0.9132  1.1589 -0.0086
  448MOL0     H59097   2.321  11.207   7.143  0.3903 -1.7137  0.1077
  448MOL0     H59098   2.216  11.225   6.977  0.0833 -2.9725  2.1328
  448MOL0     H59099   2.097  11.218   6.769 -1.2799 -0.2731  2.9437
  448MOL0     H59100   2.148  11.211   6.331 -1.6375  4.1746  1.4568
  448MOL0     H59101   2.037  11.261   6.121 -1.7035  1.5601 -0.5016
  448MOL0     H59102   1.628  11.315   6.134  3.4190 -0.2667  0.7565
  448MOL0     H59103   1.608  11.183   6.025 -0.0164 -0.3136  1.5225
  448MOL0     H59104   1.678  11.398   5.860 -2.1168 -1.0495 -0.2935
  448MOL0     H59105   1.694  11.481   6.016 -1.5038  1.7953  1.1905
  448MOL0     H59106   1.447  11.439   6.041  0.1481  1.0190 -0.6055
  448MOL0     H59107   1.439  11.386   5.875  0.2783 -0.1478  1.0798
  448MOL0     H59108   1.542  11.650   5.974 -1.9669  2.1558  0.6603
  448MOL0     H59109   1.561  11.588   5.801 -0.4060 -0.6865 -0.3585
  448MOL0     H59110   1.320  11.661   5.961  0.7230 -1.9734  0.5811
  448MOL0     H59111   1.298  11.576   5.821 -0.6049 -1.4546  3.3285
  448MOL0     H59112   1.463  11.768   5.708 -0.8486 -2.2258  0.5832
  448MOL0     H59113   1.441  11.846   5.858  1.4734 -0.8310 -0.1569
  448MOL0     H59114   1.214  11.750   5.666  4.4691 -1.4103 -2.0444
  448MOL0     H59115   1.187  11.842   5.817  2.7799 -2.7316  1.4714
  448MOL0     H59116   1.297  11.926   5.558  0.3277 -1.1540  0.1043
  448MOL0     H59117   1.343  12.027   5.697  0.9056 -2.6578  1.5094
  448MOL0     H59118   1.667  11.167   6.273 -0.2128 -0.1806 -1.6800
  448MOL0     H59119   1.762  11.097   6.502  2.5399  3.5170  4.1087
  448MOL0     H59120   2.352  10.883   6.645 -0.2880 -0.9440  0.4971
  448MOL0     H59121   2.471  10.916   6.869 -1.4625 -2.3280  0.2527
  448MOL0     H59122   3.746  11.030   7.778  0.5759  0.3764 -1.3851
  448MOL0     H59123   3.903  11.165   7.754 -3.4448 -0.0130 -2.7204
  448MOL0     H59124   4.562  11.061   7.791 -1.9051  0.7056  1.8761
  448MOL0     H59125   4.728  11.232   7.755  0.0035  1.0425 -1.5672
  448MOL0     H59126   4.622  11.655   7.678  1.3963  0.8379  0.7445
  448MOL0     H59127   4.660  11.574   7.532  0.2895  1.7047 -0.0629
  448MOL0     H59128   4.841  11.739   7.699  0.8728 -1.5215  0.0044
  448MOL0     H59129   4.910  11.604   7.597  1.4923  0.9676 -2.5212
  448MOL0     H59130   4.738  11.836   7.498  1.1154  2.2667 -1.7833
  448MOL0     H59131   4.800  11.699   7.401 -1.2537  0.5077  0.2487
  448MOL0     H59132   5.031  11.796   7.490  1.7346  2.7987  0.3522
  448MOL0     H59133   4.935  11.856   7.354  2.0415 -1.5635  1.0507
  448MOL0     H59134   4.912  12.128   7.698 -1.4694  0.5214 -0.5418
  448MOL0     H59135   4.460  11.525   7.659  0.0130 -0.4164 -0.7862
  448MOL0     H59136   4.255  11.357   7.696 -0.7598 -0.1881 -2.0785
  449MOL0     O59137   0.331   1.876   7.155  0.3040  0.0245  0.3240
  449MOL0     C59138   0.299   1.891   7.040  0.1632 -0.0840  0.6480
  449MOL0     O59139   0.363   1.975   6.949 -0.0166 -0.1312  0.3431
  449MOL0     C59140   0.494   2.015   6.978 -0.0924  0.1738 -0.9577
  449MOL0     C59141   0.597   1.921   7.018  0.9039  0.4519  0.8858
  449MOL0     C59142   0.719   1.969   7.059 -1.1350 -0.1733  0.1565
  449MOL0     C59143   0.761   2.099   7.030  0.8651 -0.3096 -0.1827
  449MOL0     O59144   0.883   2.148   7.049 -0.5122  0.3446 -0.1415
  449MOL0     C59145   0.912   2.116   7.189 -0.9161  0.3594  0.9568
  449MOL0     C59146   1.013   2.217   7.240 -0.0175 -0.2559  0.9286
  449MOL0     C59147   1.150   2.181   7.206 -1.3821 -0.3005 -0.1219
  449MOL0     C59148   1.268   2.284   7.218  0.0678  0.9205 -0.6835
  449MOL0     C59149   1.275   2.385   7.115 -0.2343 -1.2538 -0.4351
  449MOL0     C59150   1.354   2.505   7.161  0.2010 -0.7113 -0.1243
  449MOL0     C59151   1.382   2.605   7.036 -0.0191  0.8273 -0.2542
  449MOL0     C59152   1.445   2.728   7.079 -0.3567 -0.0630 -0.0852
  449MOL0     N59153   1.373   2.823   7.171  0.0072 -0.3969  0.4672
  449MOL0     C59154   1.279   2.914   7.135 -0.7000  0.2110 -0.3084
  449MOL0     C59155   1.264   2.991   7.243  0.6816  0.2385 -0.3496
  449MOL0     C59156   1.151   3.100   7.251  0.3428  0.3365  0.4152
  449MOL0     C59157   1.005   3.065   7.197  0.6380  0.7289 -0.2603
  449MOL0     C59158   0.916   3.193   7.199 -0.1707  0.2929  0.3526
  449MOL0     C59159   0.960   3.292   7.087  0.6051  0.2272 -0.9016
  449MOL0     O59160   0.918   3.238   6.960  0.1311 -0.2452 -0.6029
  449MOL0     C59161   0.932   3.329   6.859  0.3267  0.1118  0.0599
  449MOL0     C59162   0.994   3.462   6.868 -0.7141  1.1546 -0.6998
  449MOL0     C59163   1.000   3.540   6.758 -0.4482  0.0572 -0.3727
  449MOL0     C59164   0.945   3.503   6.640  0.0153 -0.3821 -0.3784
  449MOL0     C59165   0.938   3.601   6.522 -0.3221  0.6853 -0.0802
  449MOL0     O59166   0.879   3.554   6.410  0.5412 -0.4991  0.9348
  449MOL0     C59167   0.845   3.642   6.308 -0.4047 -1.0979 -0.3606
  449MOL0     C59168   0.753   3.745   6.330 -0.3323 -0.2286 -0.1247
  449MOL0     C59169   0.731   3.841   6.231 -0.0253  0.3311 -0.4207
  449MOL0     C59170   0.786   3.823   6.098 -0.1759  0.2019  0.3550
  449MOL0     O59171   0.738   3.892   5.991  0.1569  0.1112  0.0176
  449MOL0     C59172   0.667   4.018   6.004 -0.3680  0.3972 -0.4870
  449MOL0     C59173   0.523   3.987   5.986 -0.2454  0.4316  0.4968
  449MOL0     C59174   0.436   4.102   5.930  1.2782  0.1310 -0.7034
  449MOL0     C59175   0.303   4.045   5.865  0.0114 -0.0449 -0.2884
  449MOL0     C59176   0.200   4.153   5.838  0.9705  0.4621  0.1154
  449MOL0     C59177   0.113   4.106   5.717 -0.3415  0.2959 -0.1930
  449MOL0     C59178  -0.015   4.185   5.705  0.6705 -0.0710  0.1521
  449MOL0     C59179  -0.087   4.161   5.571  0.4593  0.0536 -0.3241
  449MOL0    Cl59180  -0.213   4.275   5.572 -0.4559  0.2562 -0.1728
  449MOL0     C59181   0.878   3.715   6.085  0.5704 -0.6183  0.2498
  449MOL0     C59182   0.912   3.626   6.190 -0.6943 -0.5244  0.4896
  449MOL0     O59183   0.984   3.710   6.540 -0.6359 -0.1291  0.4431
  449MOL0     C59184   0.889   3.378   6.635  0.3469  0.8572  0.4314
  449MOL0     C59185   0.879   3.287   6.738  0.1654 -0.1178 -0.2034
  449MOL0     N59186   1.361   2.959   7.334  0.4450  0.7357 -0.3521
  449MOL0     N59187   1.414   2.848   7.301  0.2564 -0.3382 -0.3452
  449MOL0     C59188   0.665   2.188   6.979  0.0302  0.4743 -0.3686
  449MOL0     C59189   0.538   2.148   6.952  0.3859  0.3220  0.7242
  449MOL0     C59190   0.182   1.824   6.987 -0.3266  0.8259  0.5736
  449MOL0     C59191   0.113   1.869   6.875  0.5290 -0.1659 -0.3942
  449MOL0     C59192  -0.001   1.802   6.829  0.3141 -0.0874 -1.1910
  449MOL0     C59193  -0.047   1.694   6.896 -0.1770 -0.2616  0.3510
  449MOL0     O59194  -0.147   1.628   6.843  0.7132 -0.4111  0.3900
  449MOL0     C59195  -0.261   1.627   6.925  0.5107 -0.1133  0.3728
  449MOL0     C59196  -0.386   1.650   6.845  0.7637 -0.3482  0.0258
  449MOL0     C59197  -0.511   1.629   6.927 -1.0137 -0.7743 -0.7687
  449MOL0     C59198  -0.627   1.619   6.829 -1.1779  1.0827 -0.1032
  449MOL0     C59199  -0.749   1.616   6.910  0.0954  0.1003  0.0636
  449MOL0     C59200  -0.853   1.621   6.970 -0.0333 -0.0118  0.6027
  449MOL0     C59201   0.013   1.651   7.017 -0.0769  0.3953 -0.6438
  449MOL0     C59202   0.132   1.708   7.060  0.5815  0.8203  0.6124
  449MOL0     H59203   0.572   1.816   7.035  1.7837  0.3247  1.4759
  449MOL0     H59204   0.797   1.905   7.098 -0.6564  2.3053  3.7817
  449MOL0     H59205   0.968   2.022   7.195 -0.8344  0.1250 -1.9499
  449MOL0     H59206   0.825   2.111   7.255 -1.3088  1.8209  0.5908
  449MOL0     H59207   0.999   2.221   7.349  0.2899 -2.6714  1.0928
  449MOL0     H59208   0.989   2.313   7.193  2.8010  1.5023  2.7626
  449MOL0     H59209   1.160   2.162   7.098 -0.8089  4.1880 -1.0509
  449MOL0     H59210   1.171   2.087   7.258 -0.9558 -0.5531 -0.7266
  449MOL0     H59211   1.269   2.345   7.309  1.1216  3.9205 -2.5543
  449MOL0     H59212   1.367   2.237   7.225 -0.0463  0.5795 -1.3336
  449MOL0     H59213   1.174   2.409   7.080  0.9648  1.7163 -2.2166
  449MOL0     H59214   1.324   2.332   7.033  2.7248 -0.4705  0.7202
  449MOL0     H59215   1.452   2.469   7.193  0.3309 -1.0034 -0.8353
  449MOL0     H59216   1.311   2.556   7.248 -1.3046  0.1815 -1.3278
  449MOL0     H59217   1.457   2.562   6.970  1.0287  1.1747  0.6892
  449MOL0     H59218   1.287   2.619   6.984  0.1779 -0.9958 -1.1378
  449MOL0     H59219   1.465   2.789   6.990  1.1959  0.9344  0.9181
  449MOL0     H59220   1.543   2.705   7.121 -0.1096  0.1518 -0.5362
  449MOL0     H59221   1.222   2.913   7.043 -1.9486 -0.1333  0.4440
  449MOL0     H59222   1.191   3.190   7.204  0.3566  0.9837  1.6267
  449MOL0     H59223   1.133   3.125   7.356 -2.9915  0.2998 -0.0215
  449MOL0     H59224   0.954   2.996   7.265  1.9613 -1.4127 -1.3182
  449MOL0     H59225   1.016   3.025   7.095  2.6009  4.2400 -1.6017
  449MOL0     H59226   0.810   3.167   7.202 -0.1262  0.1795  1.1677
  449MOL0     H59227   0.928   3.235   7.299 -3.7684 -1.0737  1.5103
  449MOL0     H59228   1.068   3.312   7.087  0.5872  1.1457  3.0130
  449MOL0     H59229   0.911   3.385   7.118  3.0124  1.0276  0.8794
  449MOL0     H59230   1.050   3.490   6.957 -1.0401 -0.3547  0.0085
  449MOL0     H59231   1.049   3.637   6.759 -1.9071  0.8181  1.1174
  449MOL0     H59232   0.698   3.762   6.422 -0.1729  0.8211 -0.2039
  449MOL0     H59233   0.654   3.913   6.258  0.2244  0.1825  0.7291
  449MOL0     H59234   0.702   4.075   5.917 -0.5994  2.7495  0.8925
  449MOL0     H59235   0.682   4.059   6.104  2.5274 -0.3618 -0.5095
  449MOL0     H59236   0.482   3.950   6.080 -1.0239  0.2967  0.1097
  449MOL0     H59237   0.521   3.909   5.910 -1.8236  1.2453 -0.3424
  449MOL0     H59238   0.485   4.166   5.856  1.9021  2.2020  1.3529
  449MOL0     H59239   0.400   4.156   6.018  0.4740 -0.4091 -0.6937
  449MOL0     H59240   0.343   4.004   5.772 -0.2767  0.4792 -0.6514
  449MOL0     H59241   0.264   3.966   5.929 -1.6006  1.7138  1.0331
  449MOL0     H59242   0.247   4.249   5.812 -1.9540  1.6913 -1.0489
  449MOL0     H59243   0.136   4.151   5.926  2.0801  3.4549  1.1376
  449MOL0     H59244   0.085   4.001   5.727 -1.2817  0.5219 -0.3467
  449MOL0     H59245   0.175   4.114   5.627  1.0867  1.5162  0.8393
  449MOL0     H59246  -0.075   4.151   5.790 -1.2952  1.6757 -0.4330
  449MOL0     H59247  -0.002   4.292   5.725 -0.4676 -0.3042  2.5166
  449MOL0     H59248  -0.127   4.060   5.561 -0.8754  0.5902 -0.6295
  449MOL0     H59249  -0.017   4.189   5.491  0.7770  1.6242  0.4583
  449MOL0     H59250   0.925   3.704   5.988 -0.5422  1.4081 -0.5887
  449MOL0     H59251   0.981   3.542   6.193  0.1335  0.1534  2.4747
  449MOL0     H59252   0.825   3.348   6.553  0.4791 -2.9289  1.5414
  449MOL0     H59253   0.821   3.197   6.722 -1.6552  0.2523  3.3877
  449MOL0     H59254   0.692   2.291   6.961 -0.5610  2.1571  5.9757
  449MOL0     H59255   0.467   2.212   6.901  2.7376  2.5716  0.0744
  449MOL0     H59256   0.146   1.963   6.831 -0.5556  0.2825 -0.2706
  449MOL0     H59257  -0.043   1.835   6.734  1.0639 -1.7004 -2.1177
  449MOL0     H59258  -0.264   1.698   7.008 -1.1540  3.8342 -2.7409
  449MOL0     H59259  -0.268   1.530   6.976 -2.2866  0.2844  0.8853
  449MOL0     H59260  -0.366   1.751   6.809 -0.1352  0.9967  3.0070
  449MOL0     H59261  -0.393   1.595   6.750  2.1788  1.2242 -1.0470
  449MOL0     H59262  -0.524   1.720   6.986 -1.5006 -0.6305 -1.0875
  449MOL0     H59263  -0.508   1.540   6.991  1.5179  0.3120  0.7612
  449MOL0     H59264  -0.620   1.706   6.763  1.6793 -0.5903 -2.2454
  449MOL0     H59265  -0.612   1.539   6.756 -1.5586  0.7215  0.2081
  449MOL0     H59266  -0.955   1.613   7.004  0.8239 -0.5677  3.2670
  449MOL0     H59267  -0.031   1.564   7.065 -3.8780  2.1727 -0.4914
  449MOL0     H59268   0.184   1.673   7.148 -0.9357 -2.0772  0.4641
  450MOL0     O59269   2.186   0.623   9.768 -0.7239 -0.1040 -0.6892
  450MOL0     C59270   2.237   0.647   9.880  0.9219  0.0283 -0.2064
  450MOL0     O59271   2.174   0.717   9.983 -0.2162 -0.0084  0.2797
  450MOL0     C59272   2.051   0.764   9.957  0.4199  0.2466 -0.2482
  450MOL0     C59273   1.941   0.673   9.966 -0.0271 -0.3667 -0.7282
  450MOL0     C59274   1.814   0.723   9.945 -1.2997 -0.8272 -0.1093
  450MOL0     C59275   1.788   0.856   9.899 -0.4981 -0.5754  0.3006
  450MOL0     O59276   1.660   0.906   9.895 -0.2490  0.1263 -0.1204
  450MOL0     C59277   1.565   0.813   9.855 -0.2708  0.5165  0.4051
  450MOL0     C59278   1.455   0.898   9.789  0.1117 -0.6621  0.1926
  450MOL0     C59279   1.321   0.818   9.758 -0.4742  0.9128 -0.3862
  450MOL0     C59280   1.237   0.903   9.669 -0.5956 -0.1272 -0.4374
  450MOL0     C59281   1.104   0.831   9.651  0.3606 -0.1690 -0.1408
  450MOL0     C59282   1.007   0.932   9.585  0.2495  0.0578  0.1369
  450MOL0     C59283   0.874   0.858   9.578  0.0671  0.0081 -0.3853
  450MOL0     C59284   0.799   0.862   9.711 -0.0493  0.2385 -0.1321
  450MOL0     N59285   0.671   0.797   9.703 -0.1717 -0.4157  0.3381
  450MOL0     C59286   0.639   0.665   9.711 -0.4876 -0.3856 -0.2803
  450MOL0     C59287   0.504   0.669   9.703 -0.1923  0.0831  0.0694
  450MOL0     C59288   0.419   0.541   9.695 -0.2231 -0.5471 -0.6213
  450MOL0     C59289   0.395   0.461   9.828  0.3842 -1.1413  0.5037
  450MOL0     C59290   0.284   0.523   9.913 -0.2472  0.0185  1.8227
  450MOL0     C59291   0.144   0.505   9.851  0.3658 -0.1051  0.3128
  450MOL0     O59292   0.056   0.603   9.910  0.0274 -0.7118 -0.1038
  450MOL0     C59293  -0.065   0.595   9.857  0.6878 -0.2453 -0.5788
  450MOL0     C59294  -0.107   0.702   9.780 -0.3840  0.0975  0.6760
  450MOL0     C59295  -0.237   0.711   9.736 -0.3646  0.1647  0.5960
  450MOL0     C59296  -0.326   0.607   9.764  0.8818  0.6404 -0.2729
  450MOL0     C59297  -0.470   0.613   9.716  1.1780 -0.6272  0.7614
  450MOL0     O59298  -0.519   0.747   9.706 -0.3047  0.4981  0.4781
  450MOL0     C59299  -0.649   0.770   9.667 -0.1150 -0.5091  0.1259
  450MOL0     C59300  -0.728   0.858   9.742  0.6496  0.0219 -0.1467
  450MOL0     C59301  -0.866   0.866   9.704  0.7061  0.0075 -0.3462
  450MOL0     C59302  -0.927   0.784   9.614  0.1303 -0.5854  0.4433
  450MOL0     O59303  -1.067   0.775   9.591 -0.8776  0.4910 -0.1753
  450MOL0     C59304  -1.146   0.879   9.652 -0.1244 -0.2837 -0.0854
  450MOL0     C59305  -1.281   0.857   9.578  0.2486  0.0662 -0.1905
  450MOL0     C59306  -1.275   0.833   9.422 -0.0395 -0.1846  0.1836
  450MOL0     C59307  -1.415   0.792   9.370 -0.0876 -0.6972  0.4755
  450MOL0     C59308  -1.404   0.819   9.223 -0.1415  0.7008  0.9987
  450MOL0     C59309  -1.541   0.803   9.157 -0.4197 -0.0526 -0.4953
  450MOL0     C59310  -1.543   0.789   9.008  0.2539 -0.2062 -0.8173
  450MOL0     C59311  -1.670   0.809   8.938 -0.0903  0.6464 -0.5551
  450MOL0    Cl59312  -1.735   0.976   8.956 -0.2675 -0.0886 -0.2061
  450MOL0     C59313  -0.851   0.699   9.543 -0.2705 -0.8949 -0.0650
  450MOL0     C59314  -0.715   0.688   9.572 -0.5186  0.5154 -0.1106
  450MOL0     O59315  -0.531   0.510   9.715  0.0496 -0.2262 -0.2785
  450MOL0     C59316  -0.293   0.505   9.850  0.7104  0.1232 -0.3454
  450MOL0     C59317  -0.157   0.497   9.896 -0.0303  0.5824  0.1913
  450MOL0     N59318   0.454   0.797   9.686 -0.1376  0.0584 -0.7971
  450MOL0     N59319   0.554   0.868   9.700 -0.0359 -0.2849 -0.3959
  450MOL0     C59320   1.899   0.944   9.890 -0.4924 -0.3834  0.4777
  450MOL0     C59321   2.026   0.897   9.932 -0.1317  0.1127  0.0076
  450MOL0     C59322   2.381   0.613   9.900 -0.8140  0.2352  0.9047
  450MOL0     C59323   2.458   0.531   9.817  0.3968 -0.2930  0.2785
  450MOL0     C59324   2.602   0.529   9.827  0.7984 -0.5897  0.0439
  450MOL0     C59325   2.659   0.592   9.933 -0.7037  0.3247 -0.0091
  450MOL0     O59326   2.797   0.613   9.950 -0.0992  0.7528 -0.2379
  450MOL0     C59327   2.869   0.600   9.831 -0.3637  0.8255 -0.0799
  450MOL0     C59328   3.002   0.674   9.850  0.0744  0.1315  0.1682
  450MOL0     C59329   3.103   0.628   9.742 -0.1159 -0.1480  0.4991
  450MOL0     C59330   3.219   0.727   9.750 -0.1617 -0.0929 -0.7928
  450MOL0     C59331   3.310   0.686   9.862  1.3016  0.6794  0.9955
  450MOL0     C59332   3.384   0.662   9.950 -0.1944 -0.0737  0.8842
  450MOL0     C59333   2.582   0.640  10.040 -0.2560 -0.2009  0.2997
  450MOL0     C59334   2.444   0.658  10.022 -1.0817  0.5079 -0.0429
  450MOL0     H59335   1.951   0.566   9.979 -0.7281 -0.2908  0.7829
  450MOL0     H59336   1.728   0.661   9.968 -1.1823 -1.1825 -0.6006
  450MOL0     H59337   1.526   0.763   9.944 -1.0290 -1.6068 -1.0516
  450MOL0     H59338   1.603   0.735   9.789 -2.7519 -1.2303  0.9066
  450MOL0     H59339   1.495   0.942   9.698  0.8002 -0.2154  0.6966
  450MOL0     H59340   1.423   0.977   9.857 -4.3683 -2.5066  0.5465
  450MOL0     H59341   1.268   0.793   9.851  0.6368 -1.0495 -0.2287
  450MOL0     H59342   1.345   0.723   9.711 -0.4728 -0.2769  1.8893
  450MOL0     H59343   1.231   0.998   9.722  1.7901 -1.2909  2.2164
  450MOL0     H59344   1.281   0.936   9.575  1.9731  3.2278  1.7081
  450MOL0     H59345   1.075   0.790   9.748  5.0345 -2.1530  0.6903
  450MOL0     H59346   1.118   0.747   9.582  1.6154 -0.6980  0.7116
  450MOL0     H59347   1.041   0.965   9.486  0.7330  0.2832  0.3762
  450MOL0     H59348   1.000   1.023   9.644 -0.5181 -0.2049  0.4643
  450MOL0     H59349   0.811   0.894   9.496  1.2117  1.2786 -0.7649
  450MOL0     H59350   0.897   0.755   9.552 -0.3077  0.0677 -0.9746
  450MOL0     H59351   0.786   0.964   9.747 -0.5180  0.4365 -0.8449
  450MOL0     H59352   0.856   0.823   9.796  1.2415  1.0301 -0.5996
  450MOL0     H59353   0.699   0.575   9.722 -1.4473 -0.8016  2.5499
  450MOL0     H59354   0.459   0.472   9.620 -3.1295  0.1924 -3.0568
  450MOL0     H59355   0.331   0.585   9.648  0.3039  1.0334 -0.1772
  450MOL0     H59356   0.481   0.472   9.895  0.7910  0.2069 -0.2016
  450MOL0     H59357   0.377   0.354   9.814 -3.8393 -0.7030  1.2806
  450MOL0     H59358   0.284   0.495  10.019  1.6633  2.5248  2.5938
  450MOL0     H59359   0.306   0.630   9.912  1.1003 -0.2309 -0.2343
  450MOL0     H59360   0.113   0.404   9.880  3.1220 -1.2549 -0.4436
  450MOL0     H59361   0.151   0.509   9.741 -3.6467 -0.3625 -0.1151
  450MOL0     H59362  -0.025   0.764   9.748  1.9817 -2.8719  0.5137
  450MOL0     H59363  -0.273   0.789   9.670 -3.0240 -1.9449 -0.6723
  450MOL0     H59364  -0.691   0.925   9.819 -1.2021 -0.5942  1.3473
  450MOL0     H59365  -0.939   0.927   9.756  0.8844  0.1612 -0.2763
  450MOL0     H59366  -1.116   0.979   9.621  0.2496 -0.6870 -1.0519
  450MOL0     H59367  -1.168   0.862   9.758 -1.5221 -1.3873 -0.5119
  450MOL0     H59368  -1.355   0.934   9.605  0.6007 -0.5245  2.7119
  450MOL0     H59369  -1.316   0.760   9.615  0.0539  1.0645  2.4683
  450MOL0     H59370  -1.204   0.751   9.407 -0.8906 -0.8343 -0.3848
  450MOL0     H59371  -1.234   0.918   9.366 -1.5305 -0.5921 -1.6142
  450MOL0     H59372  -1.426   0.686   9.396  1.3663 -0.7222  1.1124
  450MOL0     H59373  -1.487   0.855   9.423  1.2684  1.0650  0.3368
  450MOL0     H59374  -1.335   0.754   9.169 -0.8065  1.3757 -0.7317
  450MOL0     H59375  -1.373   0.922   9.204  4.2932 -0.5643  0.2207
  450MOL0     H59376  -1.605   0.890   9.178 -0.9046  0.0552 -2.2919
  450MOL0     H59377  -1.594   0.714   9.191 -0.5570 -0.2973 -1.3388
  450MOL0     H59378  -1.479   0.871   8.976  0.6744  1.2518  3.2456
  450MOL0     H59379  -1.507   0.689   8.982 -0.1364 -0.7161  0.4813
  450MOL0     H59380  -1.740   0.733   8.972  1.4309 -0.3243  0.5513
  450MOL0     H59381  -1.664   0.793   8.830  0.0550 -0.7689 -0.3575
  450MOL0     H59382  -0.906   0.631   9.480 -2.0869 -1.2474  1.7975
  450MOL0     H59383  -0.662   0.625   9.502  0.2598  1.1100 -0.0701
  450MOL0     H59384  -0.372   0.444   9.890 -0.2312  0.5694 -1.4669
  450MOL0     H59385  -0.129   0.415   9.960  4.0284 -0.2779 -2.3541
  450MOL0     H59386   1.900   1.048   9.860  2.3187 -0.3376  0.4911
  450MOL0     H59387   2.115   0.959   9.931  1.2616 -1.7720  0.4993
  450MOL0     H59388   2.410   0.479   9.735  0.1856  0.7380 -0.2607
  450MOL0     H59389   2.649   0.474   9.746 -1.5619 -1.3543 -0.8944
  450MOL0     H59390   2.812   0.631   9.743 -0.1375 -0.1316 -0.5815
  450MOL0     H59391   2.904   0.497   9.825 -1.1595  0.4813  0.8835
  450MOL0     H59392   2.987   0.782   9.839 -0.7620  0.1674  1.5273
  450MOL0     H59393   3.029   0.651   9.953 -1.1526  0.8074  0.6606
  450MOL0     H59394   3.055   0.636   9.644 -0.8619  0.3436  0.8968
  450MOL0     H59395   3.145   0.530   9.764 -1.4475 -0.2494  2.8767
  450MOL0     H59396   3.270   0.721   9.654  0.6473  0.5768 -0.4067
  450MOL0     H59397   3.182   0.829   9.761 -2.7560 -0.7051 -2.6753
  450MOL0     H59398   3.443   0.650  10.039  1.1729  1.5292  0.2553
  450MOL0     H59399   2.628   0.689  10.125 -0.2070  0.6126 -0.1773
  450MOL0     H59400   2.388   0.705  10.103 -0.8265 -0.5027  0.7279
  451MOL0     O59401   5.682   0.541   2.672 -0.2354  0.5700  0.5377
  451MOL0     C59402   5.769   0.565   2.752 -0.5565 -0.2301 -0.1901
  451MOL0     O59403   5.743   0.590   2.884 -0.1483 -0.6114 -0.3169
  451MOL0     C59404   5.614   0.582   2.931 -0.6874 -0.1326  0.4023
  451MOL0     C59405   5.550   0.694   2.983 -0.5433 -0.1425 -0.7621
  451MOL0     C59406   5.420   0.678   3.047  0.2780 -0.5949  0.2628
  451MOL0     C59407   5.359   0.560   3.036 -0.0170  0.8565 -0.8171
  451MOL0     O59408   5.238   0.530   3.093  0.8620 -0.0512  0.2183
  451MOL0     C59409   5.128   0.606   3.043 -0.5103  0.1430 -0.0035
  451MOL0     C59410   5.017   0.608   3.143  1.2231  0.3742 -0.3269
  451MOL0     C59411   4.883   0.662   3.089 -0.1265  0.1706 -0.4204
  451MOL0     C59412   4.823   0.571   2.994  1.1463  0.9265  0.8393
  451MOL0     C59413   4.693   0.628   2.928 -1.0556  0.7931  0.3299
  451MOL0     C59414   4.643   0.524   2.837  0.3202 -0.1472 -0.4714
  451MOL0     C59415   4.572   0.408   2.906  0.6583  0.6965  0.4056
  451MOL0     C59416   4.446   0.459   2.980  0.5164  0.4996  0.4167
  451MOL0     N59417   4.370   0.345   3.042  0.2237  0.0296  0.3529
  451MOL0     C59418   4.324   0.226   2.985 -0.2591 -0.2406  0.5617
  451MOL0     C59419   4.256   0.159   3.093 -1.1729  0.0883 -0.3088
  451MOL0     C59420   4.216   0.014   3.083  0.3728  0.2225 -0.3716
  451MOL0     C59421   4.077   0.009   3.017  0.5504  0.2510  0.4370
  451MOL0     C59422   4.065  -0.086   2.895  0.4601  0.1547  1.3096
  451MOL0     C59423   3.927  -0.069   2.828 -0.8381 -0.6800  0.0811
  451MOL0     O59424   3.824  -0.130   2.902 -0.1779  0.1670  0.2628
  451MOL0     C59425   3.700  -0.108   2.869 -0.2706  0.2087  0.8812
  451MOL0     C59426   3.605  -0.108   2.965  0.4095 -0.2852 -1.1989
  451MOL0     C59427   3.460  -0.096   2.938 -0.6615  0.0509  0.3717
  451MOL0     C59428   3.416  -0.099   2.807  0.0793 -0.4612  0.4192
  451MOL0     C59429   3.272  -0.120   2.779 -0.0330 -0.0752  0.1058
  451MOL0     O59430   3.196  -0.156   2.878 -0.3096  0.6176 -0.2054
  451MOL0     C59431   3.063  -0.176   2.847 -0.5376 -0.3928 -0.4587
  451MOL0     C59432   3.016  -0.305   2.848  1.0696  0.4304  0.4148
  451MOL0     C59433   2.879  -0.334   2.830 -0.6650 -0.3340 -0.4654
  451MOL0     C59434   2.785  -0.232   2.819 -0.7139 -0.6859 -0.4221
  451MOL0     O59435   2.650  -0.252   2.830  0.4216  0.3144 -0.3730
  451MOL0     C59436   2.609  -0.393   2.805  0.4612 -0.3329  0.0163
  451MOL0     C59437   2.459  -0.391   2.756  0.1546  0.0088 -0.1428
  451MOL0     C59438   2.359  -0.326   2.850  0.5266 -0.4482 -0.0150
  451MOL0     C59439   2.213  -0.348   2.792  0.2480 -0.8926 -0.0893
  451MOL0     C59440   2.093  -0.273   2.858  0.5812 -0.0929  0.3319
  451MOL0     C59441   2.116  -0.124   2.861  0.1374 -0.2051  1.1836
  451MOL0     C59442   2.002  -0.059   2.933  0.4941  0.3438 -0.9812
  451MOL0     C59443   1.868  -0.053   2.867 -0.4560  0.5727  0.2655
  451MOL0    Cl59444   1.758   0.054   2.950  0.0504 -0.3175 -0.4016
  451MOL0     C59445   2.835  -0.096   2.811  0.4658  0.4509  1.5714
  451MOL0     C59446   2.970  -0.071   2.818  1.1025 -0.0799  0.0192
  451MOL0     O59447   3.231  -0.090   2.669 -0.4189  0.4559 -0.3500
  451MOL0     C59448   3.515  -0.103   2.710  0.1233 -0.4593  0.0021
  451MOL0     C59449   3.653  -0.098   2.743 -0.2912 -0.0741  0.3691
  451MOL0     N59450   4.288   0.220   3.208  0.3102 -0.3035 -0.2301
  451MOL0     N59451   4.349   0.329   3.179  0.2143 -0.3589 -0.6229
  451MOL0     C59452   5.427   0.447   2.982  0.3034 -0.2064 -0.3454
  451MOL0     C59453   5.552   0.464   2.926 -0.3682 -0.0353  0.0673
  451MOL0     C59454   5.901   0.565   2.688  0.3250  0.2498  0.1144
  451MOL0     C59455   5.926   0.512   2.562 -0.1920  0.7397 -0.5947
  451MOL0     C59456   6.048   0.538   2.502 -0.4737  0.5306 -0.4444
  451MOL0     C59457   6.153   0.619   2.561 -0.5719 -0.3001 -1.5027
  451MOL0     O59458   6.273   0.645   2.510 -0.2368  0.1948 -0.4843
  451MOL0     C59459   6.280   0.636   2.371  0.2651 -0.3134  0.9677
  451MOL0     C59460   6.408   0.695   2.326 -0.1844 -0.0113 -0.0396
  451MOL0     C59461   6.459   0.639   2.185 -0.9631 -1.0756  0.1020
  451MOL0     C59462   6.614   0.652   2.186 -0.5167  0.4528  0.2761
  451MOL0     C59463   6.664   0.669   2.051 -0.7532 -0.6418  0.2169
  451MOL0     C59464   6.708   0.719   1.945  0.3089  0.2731 -0.4892
  451MOL0     C59465   6.131   0.667   2.685  0.1867 -0.0972 -0.2414
  451MOL0     C59466   6.011   0.636   2.749  0.8673  0.0905 -0.7386
  451MOL0     H59467   5.608   0.785   2.965 -0.3383  0.4281  2.1710
  451MOL0     H59468   5.374   0.762   3.099 -0.3158  0.6581 -2.1311
  451MOL0     H59469   5.101   0.564   2.946  1.0320 -1.9666  0.4280
  451MOL0     H59470   5.153   0.712   3.031 -0.3914  0.1085 -0.0615
  451MOL0     H59471   5.046   0.680   3.219 -1.4889  0.2161  0.9750
  451MOL0     H59472   5.003   0.510   3.189  2.4999  0.6430  0.6900
  451MOL0     H59473   4.901   0.762   3.050 -2.1680  1.0822  0.7771
  451MOL0     H59474   4.807   0.680   3.166 -0.5459 -3.2286  0.1425
  451MOL0     H59475   4.890   0.555   2.910 -2.0679  0.0268 -1.7740
  451MOL0     H59476   4.791   0.480   3.047 -3.2238  1.8252  0.1078
  451MOL0     H59477   4.711   0.718   2.868  0.8557  0.7502  0.7833
  451MOL0     H59478   4.620   0.651   3.007 -1.4452 -2.4223  1.0793
  451MOL0     H59479   4.728   0.490   2.777  1.4513  1.4394  0.1750
  451MOL0     H59480   4.568   0.571   2.772 -1.2262  0.6115  1.7501
  451MOL0     H59481   4.534   0.341   2.828  1.5875  1.0179 -0.3487
  451MOL0     H59482   4.636   0.358   2.979  1.3262  0.6750 -0.1814
  451MOL0     H59483   4.371   0.505   2.915  0.2848  0.2659  0.5123
  451MOL0     H59484   4.470   0.528   3.061  1.1343  1.4539 -0.5574
  451MOL0     H59485   4.328   0.205   2.878  1.0758 -0.4843  0.6341
  451MOL0     H59486   4.216  -0.038   3.179  1.1658  3.4053  1.4951
  451MOL0     H59487   4.290  -0.050   3.033 -0.6308 -0.0606 -1.5482
  451MOL0     H59488   4.050   0.108   2.980  2.4621  0.5127 -0.4025
  451MOL0     H59489   4.003  -0.012   3.094 -2.7199  0.0011 -2.5139
  451MOL0     H59490   4.132  -0.055   2.814  1.0525 -0.4123  1.5769
  451MOL0     H59491   4.089  -0.191   2.915  0.8565 -0.1709 -0.7121
  451MOL0     H59492   3.936  -0.109   2.727 -1.6975 -1.5550  0.3375
  451MOL0     H59493   3.905   0.038   2.828 -1.7339 -0.8553  0.4291
  451MOL0     H59494   3.632  -0.109   3.070  0.9014  0.5362 -1.3052
  451MOL0     H59495   3.389  -0.088   3.020 -2.3139  1.4008 -1.1192
  451MOL0     H59496   3.094  -0.380   2.858  0.6519  0.0951  1.2163
  451MOL0     H59497   2.852  -0.438   2.844 -2.3850  0.4422  3.0813
  451MOL0     H59498   2.623  -0.451   2.897  2.5117  0.1797  0.0763
  451MOL0     H59499   2.671  -0.442   2.730 -1.0176 -2.1115 -0.1188
  451MOL0     H59500   2.424  -0.493   2.736 -2.6548  0.1628  2.9863
  451MOL0     H59501   2.455  -0.339   2.660 -0.0442  1.2763  0.5263
  451MOL0     H59502   2.389  -0.222   2.859  0.8374 -0.3310 -2.0332
  451MOL0     H59503   2.374  -0.384   2.942  1.4077 -0.6380 -0.2695
  451MOL0     H59504   2.222  -0.294   2.697 -2.0169 -0.0734  0.1143
  451MOL0     H59505   2.200  -0.455   2.774  2.1543 -1.5054  1.7265
  451MOL0     H59506   2.061  -0.312   2.955 -1.4680  0.7031  0.0436
  451MOL0     H59507   2.002  -0.289   2.799 -0.3905  1.8620  1.2071
  451MOL0     H59508   2.137  -0.086   2.761  2.3019 -1.6728  0.9979
  451MOL0     H59509   2.203  -0.101   2.924  1.1006  0.4471 -0.3328
  451MOL0     H59510   1.989  -0.119   3.023 -2.5705  0.5603 -1.1746
  451MOL0     H59511   2.031   0.041   2.966 -0.2910 -0.1947  1.5909
  451MOL0     H59512   1.837  -0.157   2.859 -1.4975  1.0205 -2.5996
  451MOL0     H59513   1.876  -0.012   2.766 -1.8364  2.0083  0.7034
  451MOL0     H59514   2.753  -0.026   2.798  0.0567 -0.2499  0.1890
  451MOL0     H59515   2.996   0.034   2.828 -3.8837  1.3700 -0.0134
  451MOL0     H59516   3.488  -0.114   2.605 -0.7013 -2.1261  0.3493
  451MOL0     H59517   3.720  -0.108   2.659 -0.3409  1.3405  0.1370
  451MOL0     H59518   5.375   0.352   2.974 -2.5827  1.1430  0.8617
  451MOL0     H59519   5.601   0.385   2.870 -1.9009  0.0937 -1.5456
  451MOL0     H59520   5.860   0.444   2.510 -0.0085 -0.7821  1.0505
  451MOL0     H59521   6.064   0.483   2.410 -2.3579  1.7562 -1.5646
  451MOL0     H59522   6.195   0.678   2.317  0.8554 -0.8918 -0.4648
  451MOL0     H59523   6.285   0.533   2.335  0.2232 -0.0179  0.0756
  451MOL0     H59524   6.392   0.803   2.312  2.1503  0.2138 -1.6034
  451MOL0     H59525   6.483   0.674   2.403 -1.3050  1.0883  1.4000
  451MOL0     H59526   6.414   0.701   2.107  0.3752  0.8008  0.7593
  451MOL0     H59527   6.419   0.538   2.173 -1.2748 -1.0717  1.0494
  451MOL0     H59528   6.635   0.746   2.238  0.8076 -0.8565  2.2433
  451MOL0     H59529   6.667   0.579   2.248 -1.4466 -0.1674  0.3675
  451MOL0     H59530   6.761   0.736   1.854  0.8141  2.6487  0.1872
  451MOL0     H59531   6.202   0.725   2.743 -0.9322  0.7311  0.3323
  451MOL0     H59532   5.994   0.673   2.849 -2.1960  1.5898 -1.6804
  452MOL0     O59533   0.127   9.859   4.164 -0.1968  0.3303  0.1548
  452MOL0     C59534   0.176   9.873   4.046  0.0449 -0.9817  0.1310
  452MOL0     O59535   0.106   9.900   3.928 -0.4586  0.2102 -0.4131
  452MOL0     C59536  -0.032   9.909   3.923  0.4242 -0.0940  0.4179
  452MOL0     C59537  -0.092   9.891   3.793  0.2613  0.3777  0.3559
  452MOL0     C59538  -0.236   9.893   3.768 -0.6286  0.1696 -0.8775
  452MOL0     C59539  -0.325   9.913   3.882 -0.1420  0.5774 -0.3923
  452MOL0     O59540  -0.464   9.898   3.881 -0.5580 -0.3144  0.1182
  452MOL0     C59541  -0.534   9.950   3.774  0.2835 -0.3289 -0.4099
  452MOL0     C59542  -0.672   9.961   3.819  1.4682  0.5636 -0.4417
  452MOL0     C59543  -0.720   9.828   3.877 -0.7429  0.3735  0.2733
  452MOL0     C59544  -0.866   9.822   3.924 -0.1197  0.2906 -0.2060
  452MOL0     C59545  -0.915   9.673   3.938 -0.3587 -0.6094 -0.0892
  452MOL0     C59546  -1.059   9.644   3.950  0.9172  0.3246  0.6671
  452MOL0     C59547  -1.126   9.758   4.038 -1.0519  0.4683 -0.0629
  452MOL0     C59548  -1.272   9.724   4.076  0.4545 -0.3005  0.2226
  452MOL0     N59549  -1.329   9.836   4.151  0.2707 -0.4785  0.0160
  452MOL0     C59550  -1.302   9.871   4.284  0.5211 -0.0671  0.1460
  452MOL0     C59551  -1.366   9.990   4.297 -0.1650 -0.1394  0.1453
  452MOL0     C59552  -1.382  10.057   4.428  0.2308 -0.4809 -1.0221
  452MOL0     C59553  -1.476   9.983   4.531  0.3570  0.3083  0.4327
  452MOL0     C59554  -1.615   9.973   4.465 -0.1425 -0.4229 -0.4873
  452MOL0     C59555  -1.706   9.887   4.549  0.2838 -0.5903  0.0160
  452MOL0     O59556  -1.835   9.895   4.480 -0.3478  0.3637 -0.1631
  452MOL0     C59557  -1.950   9.851   4.548 -0.0147  0.4540  0.3990
  452MOL0     C59558  -1.948   9.766   4.663  0.0521  0.1583  0.1366
  452MOL0     C59559  -2.068   9.705   4.710  0.0668  0.6213  0.1932
  452MOL0     C59560  -2.192   9.738   4.646  0.4280 -0.3455 -0.7714
  452MOL0     C59561  -2.318   9.668   4.690  0.6777  0.4117 -0.2296
  452MOL0     O59562  -2.435   9.736   4.648  0.0175  0.0021  0.7731
  452MOL0     C59563  -2.551   9.670   4.690  0.4081  0.5179  0.3059
  452MOL0     C59564  -2.641   9.642   4.586 -0.4558 -0.7835  0.1460
  452MOL0     C59565  -2.763   9.581   4.610  0.2652 -1.2237  0.3826
  452MOL0     C59566  -2.807   9.550   4.741  0.7263 -0.3209  0.4221
  452MOL0     O59567  -2.930   9.491   4.769  0.6080 -0.4241  0.3086
  452MOL0     C59568  -3.052   9.526   4.703  0.5603  0.5437  0.1534
  452MOL0     C59569  -3.150   9.428   4.774  0.0313  0.2438 -0.3908
  452MOL0     C59570  -3.292   9.453   4.712  1.3154  0.6619 -0.3832
  452MOL0     C59571  -3.401   9.354   4.776  1.5862 -0.7664  0.3222
  452MOL0     C59572  -3.536   9.340   4.694 -0.0888  0.4327  0.2011
  452MOL0     C59573  -3.653   9.274   4.772 -0.5315 -0.1299 -0.3921
  452MOL0     C59574  -3.776   9.255   4.705  0.2501 -0.8897  0.7342
  452MOL0     C59575  -3.872   9.153   4.763  0.6974  0.2472  0.6466
  452MOL0    Cl59576  -3.952   9.213   4.906  0.0321  0.5020  0.0694
  452MOL0     C59577  -2.724   9.590   4.846  0.3247  0.9963 -0.6615
  452MOL0     C59578  -2.596   9.645   4.824 -0.6929 -1.3568  0.0363
  452MOL0     O59579  -2.312   9.569   4.764  0.7950 -0.5997  0.2774
  452MOL0     C59580  -2.189   9.825   4.532 -0.3444  0.9276 -0.7900
  452MOL0     C59581  -2.072   9.880   4.489  0.2265 -0.5724 -0.0513
  452MOL0     N59582  -1.427  10.025   4.181 -0.1338  0.4168 -0.3813
  452MOL0     N59583  -1.405   9.936   4.091 -0.6311  0.3306 -1.1037
  452MOL0     C59584  -0.262   9.921   4.014 -0.0060 -0.3050 -0.2066
  452MOL0     C59585  -0.121   9.928   4.036  0.2018 -0.1536  1.1714
  452MOL0     C59586   0.317   9.841   4.018  0.0623  0.6365  0.6100
  452MOL0     C59587   0.409   9.797   4.112 -0.3810 -0.3648 -0.6150
  452MOL0     C59588   0.538   9.774   4.079  0.8786  1.1512  0.3640
  452MOL0     C59589   0.588   9.783   3.952  0.5184  0.3385 -0.0621
  452MOL0     O59590   0.726   9.778   3.940  0.7513 -0.3091  0.0774
  452MOL0     C59591   0.790   9.810   3.823 -0.3528  0.2242  0.7557
  452MOL0     C59592   0.941   9.764   3.835  0.4699 -0.3285  0.4313
  452MOL0     C59593   1.024   9.854   3.935 -0.0492 -0.4785  0.1141
  452MOL0     C59594   1.157   9.781   3.968 -0.1298  0.1668  1.1769
  452MOL0     C59595   1.272   9.872   3.924  0.1116  0.3824  1.0324
  452MOL0     C59596   1.365   9.947   3.899  0.4817 -0.6360 -0.1870
  452MOL0     C59597   0.502   9.821   3.847  0.2215 -0.3150 -0.3607
  452MOL0     C59598   0.367   9.856   3.881 -0.2720  0.3184  0.0113
  452MOL0     H59599  -0.033   9.890   3.702  0.2093  0.7081  0.3193
  452MOL0     H59600  -0.271   9.860   3.671  3.1145 -0.7402 -2.0739
  452MOL0     H59601  -0.522   9.889   3.685  1.2520  1.1433 -1.3405
  452MOL0     H59602  -0.489  10.048   3.752 -1.8067  0.9865  0.8133
  452MOL0     H59603  -0.730   9.987   3.730 -0.7304  2.8447  1.5054
  452MOL0     H59604  -0.690  10.045   3.886 -4.0198  0.3042 -1.1257
  452MOL0     H59605  -0.662   9.798   3.964 -1.7027 -2.5305 -0.0009
  452MOL0     H59606  -0.695   9.743   3.813  2.4452  0.2364  1.4944
  452MOL0     H59607  -0.891   9.879   4.014  0.3274 -0.4881  0.4265
  452MOL0     H59608  -0.933   9.853   3.843 -1.9720 -1.2542  0.6564
  452MOL0     H59609  -0.864   9.645   4.031 -0.5309 -1.7925 -0.3268
  452MOL0     H59610  -0.872   9.614   3.856  4.1869  0.5215  1.1610
  452MOL0     H59611  -1.090   9.545   3.984 -1.1922  0.0859 -1.6571
  452MOL0     H59612  -1.096   9.657   3.848 -0.7846 -1.8792  0.9353
  452MOL0     H59613  -1.065   9.771   4.128 -2.0187  3.4008  0.2713
  452MOL0     H59614  -1.122   9.854   3.985 -0.1940 -0.8535 -2.5751
  452MOL0     H59615  -1.274   9.638   4.143 -2.9352  0.4778  1.3046
  452MOL0     H59616  -1.327   9.702   3.984 -0.2322  0.6051  0.4059
  452MOL0     H59617  -1.255   9.825   4.370 -2.4789 -0.8883  1.5103
  452MOL0     H59618  -1.417  10.160   4.419 -0.1884 -0.2894  1.7748
  452MOL0     H59619  -1.284  10.067   4.476  0.2148 -1.6153 -0.7310
  452MOL0     H59620  -1.462  10.028   4.630  0.4811 -1.8534  1.4705
  452MOL0     H59621  -1.437   9.882   4.548 -2.4817 -0.5307  2.9753
  452MOL0     H59622  -1.654  10.074   4.452 -0.6045 -0.3682  1.1080
  452MOL0     H59623  -1.608   9.927   4.365  0.6568 -1.3146 -0.0353
  452MOL0     H59624  -1.717   9.936   4.646 -0.7152 -0.8638  0.0571
  452MOL0     H59625  -1.668   9.786   4.569  0.9843  0.2480  3.7511
  452MOL0     H59626  -1.850   9.742   4.705 -0.1152 -1.3726 -0.2886
  452MOL0     H59627  -2.053   9.629   4.786 -0.4719  1.6091  1.3132
  452MOL0     H59628  -2.606   9.643   4.483  3.1802 -1.2154  1.2442
  452MOL0     H59629  -2.830   9.553   4.530  0.1862  0.7731 -0.3157
  452MOL0     H59630  -3.040   9.500   4.598 -2.6210 -0.4290 -0.0970
  452MOL0     H59631  -3.087   9.630   4.701 -3.4206 -0.6184 -1.8397
  452MOL0     H59632  -3.158   9.453   4.881  0.8446  3.9293 -1.0755
  452MOL0     H59633  -3.127   9.322   4.762 -0.8168  0.0277 -0.1996
  452MOL0     H59634  -3.304   9.445   4.603  1.2007  2.4413 -0.5234
  452MOL0     H59635  -3.325   9.554   4.736 -1.8387 -0.7877  2.1795
  452MOL0     H59636  -3.360   9.253   4.787 -0.9027 -1.6903  1.8824
  452MOL0     H59637  -3.418   9.385   4.880  2.3828  0.2271  0.1743
  452MOL0     H59638  -3.518   9.270   4.612 -3.6575 -1.4242  0.7933
  452MOL0     H59639  -3.569   9.433   4.646 -0.6571  0.4578  0.6265
  452MOL0     H59640  -3.672   9.331   4.863  3.3430 -0.1034  0.5670
  452MOL0     H59641  -3.618   9.175   4.802 -1.4634  0.0036  1.2423
  452MOL0     H59642  -3.827   9.351   4.695  0.3315 -0.8826  0.3999
  452MOL0     H59643  -3.756   9.223   4.603  0.2019  1.5452 -0.0990
  452MOL0     H59644  -3.823   9.058   4.784 -0.4432 -0.9858 -1.8349
  452MOL0     H59645  -3.952   9.114   4.699  0.3410 -2.9925  2.8133
  452MOL0     H59646  -2.755   9.591   4.950  0.3571  4.7919 -0.5611
  452MOL0     H59647  -2.526   9.664   4.904 -2.1436 -3.4075  1.8882
  452MOL0     H59648  -2.272   9.849   4.467 -1.1867  0.1012 -0.0456
  452MOL0     H59649  -2.073   9.948   4.405 -1.2320 -0.1766  0.2582
  452MOL0     H59650  -0.329   9.922   4.100  0.7452 -0.0193  0.3856
  452MOL0     H59651  -0.090   9.938   4.140  1.1581 -0.1738  0.8917
  452MOL0     H59652   0.371   9.787   4.214 -1.8657 -1.0891 -1.2067
  452MOL0     H59653   0.607   9.744   4.157  0.6880  1.6070  0.7148
  452MOL0     H59654   0.783   9.919   3.817  1.2731  0.4418  2.2259
  452MOL0     H59655   0.752   9.757   3.735  0.8201  0.4737  0.0875
  452MOL0     H59656   0.930   9.662   3.870 -0.3431 -0.6403 -0.6777
  452MOL0     H59657   0.998   9.759   3.742  2.5643  0.1921  1.6218
  452MOL0     H59658   0.964   9.882   4.022 -0.7949 -2.2570  0.2044
  452MOL0     H59659   1.035   9.940   3.869 -3.3081 -0.8743 -1.1433
  452MOL0     H59660   1.165   9.772   4.077  1.5750  3.3989  1.4413
  452MOL0     H59661   1.168   9.683   3.919 -2.2047  0.4799 -0.0224
  452MOL0     H59662   1.447  10.014   3.884  0.7870 -1.2570 -1.4902
  452MOL0     H59663   0.532   9.836   3.744  0.3622 -0.3800 -0.3293
  452MOL0     H59664   0.305   9.901   3.804 -0.6821  2.9952  1.7707
  453MOL0     O59665   4.449   9.455   7.806  0.6666  0.5942 -0.3022
  453MOL0     C59666   4.477   9.513   7.915  0.2998  0.7954  0.8058
  453MOL0     O59667   4.399   9.517   8.028  0.4746  0.6653  0.4666
  453MOL0     C59668   4.274   9.462   8.022 -0.9046 -0.2624  0.4689
  453MOL0     C59669   4.247   9.332   7.976 -0.1709 -0.2372  0.2512
  453MOL0     C59670   4.123   9.279   8.004  0.3062 -0.5494 -0.7695
  453MOL0     C59671   4.018   9.355   8.053  0.0247 -0.4531 -0.8265
  453MOL0     O59672   3.899   9.288   8.050  0.4088 -0.0481 -0.0516
  453MOL0     C59673   3.785   9.331   8.114  0.2525  0.1517 -0.4664
  453MOL0     C59674   3.802   9.335   8.278 -0.3663  0.5610 -0.9851
  453MOL0     C59675   3.672   9.310   8.359  0.1692 -0.0139  0.4701
  453MOL0     C59676   3.578   9.426   8.361  0.0990  0.0267  0.7974
  453MOL0     C59677   3.439   9.374   8.425  0.2695 -0.0758  0.5886
  453MOL0     C59678   3.346   9.496   8.464 -0.5321  0.4931  0.6351
  453MOL0     C59679   3.223   9.451   8.542 -0.8187  0.4173 -0.4479
  453MOL0     C59680   3.169   9.578   8.620  0.0712 -0.5243  0.9055
  453MOL0     N59681   3.026   9.577   8.648  0.2187  0.0308 -0.3504
  453MOL0     C59682   2.943   9.465   8.667 -0.5568  0.2090  0.7638
  453MOL0     C59683   2.821   9.510   8.697 -0.2186 -0.1150  0.0767
  453MOL0     C59684   2.701   9.427   8.718  0.3553  0.5191 -0.3172
  453MOL0     C59685   2.569   9.495   8.783  0.1200 -0.0627 -0.2631
  453MOL0     C59686   2.601   9.537   8.920 -0.2180 -0.1686 -0.1409
  453MOL0     C59687   2.491   9.622   8.988  0.1713 -0.0182 -0.4368
  453MOL0     O59688   2.364   9.562   8.975 -0.2330 -0.1244 -0.6324
  453MOL0     C59689   2.258   9.588   9.058  0.5648 -0.4248 -0.0971
  453MOL0     C59690   2.245   9.692   9.140  0.0270 -0.4038 -0.9490
  453MOL0     C59691   2.131   9.704   9.232 -0.9606 -0.2714 -0.0196
  453MOL0     C59692   2.023   9.616   9.218 -0.1408 -0.1354  0.0936
  453MOL0     C59693   1.898   9.645   9.299 -0.4070  0.3123 -0.1430
  453MOL0     O59694   1.800   9.546   9.318 -0.7544 -0.3105  0.4043
  453MOL0     C59695   1.691   9.566   9.392  0.5845  0.0127 -0.1317
  453MOL0     C59696   1.679   9.648   9.510 -0.3929 -0.3953 -0.0725
  453MOL0     C59697   1.554   9.664   9.577  0.3399 -0.6767  0.6852
  453MOL0     C59698   1.438   9.595   9.526  0.6778  0.1239 -0.1536
  453MOL0     O59699   1.312   9.610   9.582  0.5289 -0.6772  1.1782
  453MOL0     C59700   1.265   9.741   9.578  0.0797  0.5064  0.3813
  453MOL0     C59701   1.121   9.746   9.519 -0.1402 -0.7787  0.0851
  453MOL0     C59702   1.024   9.692   9.622 -0.7577  0.0227 -0.6866
  453MOL0     C59703   0.876   9.699   9.576  0.7092 -1.0673 -0.7109
  453MOL0     C59704   0.794   9.593   9.654 -0.0322 -0.6872 -0.8307
  453MOL0     C59705   0.647   9.613   9.618 -0.0663 -0.1893 -0.2347
  453MOL0     C59706   0.567   9.529   9.711 -0.3156  0.5640 -1.0956
  453MOL0     C59707   0.415   9.560   9.702 -0.1963  0.6351 -0.4536
  453MOL0    Cl59708   0.318   9.440   9.798 -0.2218  0.4083  0.0383
  453MOL0     C59709   1.447   9.512   9.408 -0.3842 -0.5741 -0.5156
  453MOL0     C59710   1.574   9.493   9.342 -0.3720  0.0199  0.8341
  453MOL0     O59711   1.890   9.762   9.346 -0.3172 -0.2037  0.4004
  453MOL0     C59712   2.030   9.520   9.125  0.2207 -0.0350  0.2412
  453MOL0     C59713   2.144   9.507   9.047  0.4140 -0.3496 -0.2043
  453MOL0     N59714   2.831   9.652   8.694 -0.3964  0.1525 -0.2785
  453MOL0     N59715   2.953   9.691   8.671 -1.0495  0.3390  0.1667
  453MOL0     C59716   4.043   9.488   8.095  0.4063  0.5030  0.3345
  453MOL0     C59717   4.169   9.539   8.081  0.1753 -0.0682 -0.3324
  453MOL0     C59718   4.621   9.559   7.930 -0.1739 -0.4756  0.5308
  453MOL0     C59719   4.724   9.554   7.831 -0.0663 -1.0122 -0.3230
  453MOL0     C59720   4.854   9.599   7.857  0.6891 -0.1556  0.4086
  453MOL0     C59721   4.887   9.658   7.978 -0.2337 -0.3488 -0.3534
  453MOL0     O59722   5.006   9.724   7.995 -0.2719  0.5301  0.3531
  453MOL0     C59723   5.003   9.862   7.953  0.0725  0.5967 -1.1921
  453MOL0     C59724   5.146   9.911   7.930 -0.2660 -0.8329 -0.0987
  453MOL0     C59725   5.222   9.835   7.814 -0.0430 -0.6082 -0.4012
  453MOL0     C59726   5.192   9.888   7.670 -0.8036 -0.1487 -0.8066
  453MOL0     C59727   5.237  10.021   7.656 -2.0157  0.0711 -0.0744
  453MOL0     C59728   5.272  10.139   7.637  0.1786 -0.6106  0.0467
  453MOL0     C59729   4.784   9.677   8.071  0.1141 -0.2626  1.2334
  453MOL0     C59730   4.655   9.634   8.043  0.0528  0.1029  0.3568
  453MOL0     H59731   4.326   9.267   7.940  1.7897  1.1692  1.8163
  453MOL0     H59732   4.103   9.173   7.986 -0.5415 -0.6145  0.4509
  453MOL0     H59733   3.708   9.263   8.077 -0.0715 -1.6260  3.0429
  453MOL0     H59734   3.761   9.433   8.084  0.0262 -0.5374 -2.8822
  453MOL0     H59735   3.855   9.428   8.301 -1.1165  0.9044 -0.6388
  453MOL0     H59736   3.872   9.255   8.307 -2.6277 -1.5388 -0.9420
  453MOL0     H59737   3.698   9.278   8.460  0.0245 -1.3490  0.1008
  453MOL0     H59738   3.617   9.226   8.316 -3.3999  2.2114  0.2645
  453MOL0     H59739   3.615   9.514   8.414 -0.2704  0.7615 -0.1313
  453MOL0     H59740   3.549   9.460   8.262 -2.2995 -0.9647  1.0834
  453MOL0     H59741   3.461   9.319   8.517 -4.3308  2.0339  3.2847
  453MOL0     H59742   3.393   9.304   8.355 -1.5809 -1.1638  2.7641
  453MOL0     H59743   3.316   9.544   8.370  2.9262 -0.6654 -1.2380
  453MOL0     H59744   3.404   9.572   8.517  1.2652  2.4910 -3.6876
  453MOL0     H59745   3.156   9.400   8.472  0.3375  1.6053 -2.5370
  453MOL0     H59746   3.260   9.376   8.612  2.7280 -0.1315 -2.6631
  453MOL0     H59747   3.200   9.662   8.557  0.6037  0.2591  2.1762
  453MOL0     H59748   3.236   9.590   8.705  1.2673  3.9646 -0.4242
  453MOL0     H59749   2.981   9.363   8.670  0.3134  0.5423  3.3010
  453MOL0     H59750   2.723   9.340   8.781 -0.2885  0.6958  0.1607
  453MOL0     H59751   2.669   9.390   8.620 -1.6362 -0.2214  0.5693
  453MOL0     H59752   2.483   9.428   8.788  0.9400 -1.1347 -0.1013
  453MOL0     H59753   2.546   9.583   8.722  2.6356  1.0800  0.3110
  453MOL0     H59754   2.625   9.445   8.972  0.6152 -1.2302 -2.2794
  453MOL0     H59755   2.693   9.595   8.906  0.0917 -0.8724 -1.1309
  453MOL0     H59756   2.489   9.721   8.941 -0.8014  0.7605  1.1442
  453MOL0     H59757   2.517   9.638   9.093 -0.6842 -0.8514 -0.0937
  453MOL0     H59758   2.323   9.768   9.134  0.3832 -0.7357 -0.5416
  453MOL0     H59759   2.128   9.790   9.298 -2.3222 -0.6498  0.4472
  453MOL0     H59760   1.760   9.696   9.564 -0.9804  3.5382 -2.2929
  453MOL0     H59761   1.537   9.736   9.656 -0.4718 -1.1499  0.9515
  453MOL0     H59762   1.320   9.818   9.523 -1.2235  1.9061  0.9326
  453MOL0     H59763   1.267   9.787   9.678  2.2518  3.4642 -0.8544
  453MOL0     H59764   1.120   9.692   9.424 -0.1364  3.6864 -2.7498
  453MOL0     H59765   1.088   9.850   9.520  1.1946 -0.2980  2.5809
  453MOL0     H59766   1.028   9.759   9.709  2.9218  0.1818 -0.7948
  453MOL0     H59767   1.047   9.591   9.657 -0.0343  0.4027 -0.0190
  453MOL0     H59768   0.833   9.797   9.599 -0.7092 -1.0351 -3.1254
  453MOL0     H59769   0.860   9.691   9.468 -4.0986  0.2637 -0.3222
  453MOL0     H59770   0.811   9.615   9.760 -0.7615 -1.2534 -0.5816
  453MOL0     H59771   0.833   9.493   9.631  1.3131  0.3049 -3.2285
  453MOL0     H59772   0.638   9.578   9.515  1.0247  2.9599 -1.5323
  453MOL0     H59773   0.624   9.720   9.618  2.5473  0.4691 -2.1257
  453MOL0     H59774   0.582   9.422   9.692 -0.6298 -0.0078  1.5203
  453MOL0     H59775   0.605   9.546   9.812  0.3575 -3.6642 -0.4138
  453MOL0     H59776   0.393   9.553   9.595  2.6329  0.6331 -1.1294
  453MOL0     H59777   0.395   9.658   9.748  0.1623  1.6446 -2.3400
  453MOL0     H59778   1.359   9.475   9.357 -2.7050  2.1946  1.1588
  453MOL0     H59779   1.567   9.447   9.244 -1.8536  2.1717 -0.1120
  453MOL0     H59780   1.948   9.449   9.120 -0.4211  0.7939 -1.9809
  453MOL0     H59781   2.153   9.419   8.984  3.2797  0.9798 -1.8335
  453MOL0     H59782   3.963   9.539   8.146  0.9090  2.3328 -0.6250
  453MOL0     H59783   4.182   9.642   8.113 -0.1989  0.5503 -2.0185
  453MOL0     H59784   4.696   9.519   7.732 -2.6058  1.7205 -0.7387
  453MOL0     H59785   4.909   9.583   7.765 -1.6053  1.4188 -1.3614
  453MOL0     H59786   4.960   9.921   8.035  0.4141  0.4540 -0.9069
  453MOL0     H59787   4.939   9.878   7.866 -0.7098 -3.1109 -1.4557
  453MOL0     H59788   5.141  10.017   7.904 -1.4702 -1.2412 -1.7539
  453MOL0     H59789   5.207   9.889   8.018  1.1541 -0.0026 -0.8462
  453MOL0     H59790   5.212   9.726   7.825 -0.9294 -0.5485 -0.4704
  453MOL0     H59791   5.327   9.846   7.839 -0.4046 -0.9580  1.4469
  453MOL0     H59792   5.247   9.819   7.605  0.6651 -1.4308  1.6574
  453MOL0     H59793   5.089   9.884   7.632 -1.2522  3.8502 -0.3822
  453MOL0     H59794   5.313  10.238   7.629  1.8234 -1.4037 -2.1623
  453MOL0     H59795   4.800   9.726   8.166 -2.7555 -0.1717  1.7730
  453MOL0     H59796   4.576   9.641   8.117 -1.7190  1.2745 -1.5135
  454MOL0     O59797   1.236   6.107   8.482  0.3306 -0.5615  0.5967
  454MOL0     C59798   1.302   6.002   8.471 -0.6226  0.5319 -0.0308
  454MOL0     O59799   1.417   5.984   8.388  0.5591 -0.6091  0.1161
  454MOL0     C59800   1.450   6.094   8.309  0.1537  0.3802 -0.4471
  454MOL0     C59801   1.562   6.173   8.326 -1.2069 -0.6014 -0.4676
  454MOL0     C59802   1.592   6.277   8.239  0.6383 -0.2605 -0.1741
  454MOL0     C59803   1.513   6.299   8.124  0.9066  0.4273 -1.1711
  454MOL0     O59804   1.542   6.411   8.046  0.5368 -0.1925  0.1049
  454MOL0     C59805   1.672   6.460   8.020 -0.9341  0.5884  0.2344
  454MOL0     C59806   1.730   6.369   7.907  0.4667  1.1125  0.1143
  454MOL0     C59807   1.841   6.433   7.823  0.1973 -0.1732  0.1514
  454MOL0     C59808   1.965   6.473   7.897 -0.0656 -0.4142 -0.0232
  454MOL0     C59809   2.077   6.494   7.799 -0.1843 -0.2086 -0.8459
  454MOL0     C59810   2.207   6.521   7.881 -0.1252 -0.4812  0.0928
  454MOL0     C59811   2.219   6.656   7.949  1.3289  0.1234 -0.5754
  454MOL0     C59812   2.366   6.688   7.951  0.6800  0.2630 -0.0803
  454MOL0     N59813   2.385   6.783   8.056 -0.2162 -0.3692 -0.1164
  454MOL0     C59814   2.300   6.893   8.084  0.3975 -0.3108 -0.7796
  454MOL0     C59815   2.383   6.961   8.162  0.2042 -0.9560 -0.6066
  454MOL0     C59816   2.343   7.106   8.204 -0.1777  0.3326  0.7931
  454MOL0     C59817   2.376   7.212   8.104 -0.3170  0.5026  0.5858
  454MOL0     C59818   2.347   7.351   8.157 -0.6353  0.0868  0.5954
  454MOL0     C59819   2.198   7.381   8.202 -0.3012  0.9972 -0.1577
  454MOL0     O59820   2.176   7.506   8.263 -0.3283 -0.1245 -0.8228
  454MOL0     C59821   2.041   7.535   8.289 -0.2523  1.0903  0.6152
  454MOL0     C59822   2.034   7.656   8.351  0.6085  0.1150  0.1984
  454MOL0     C59823   1.915   7.704   8.397  0.2045 -0.9340 -0.1052
  454MOL0     C59824   1.798   7.639   8.369 -0.0369  0.0622 -0.3951
  454MOL0     C59825   1.677   7.695   8.429 -0.2920  0.6009 -0.1174
  454MOL0     O59826   1.573   7.610   8.459 -0.8636 -0.2677 -0.3185
  454MOL0     C59827   1.450   7.662   8.510 -0.2898  0.1544  0.5200
  454MOL0     C59828   1.396   7.592   8.618  0.4618 -0.2462 -0.2356
  454MOL0     C59829   1.285   7.649   8.691 -0.3146 -0.1945 -0.2593
  454MOL0     C59830   1.228   7.770   8.658 -1.1244 -0.0913 -0.0783
  454MOL0     O59831   1.124   7.830   8.730 -0.9212  0.7782  0.0484
  454MOL0     C59832   1.026   7.919   8.675  1.2953 -0.1326  0.0436
  454MOL0     C59833   0.899   7.921   8.763 -0.1958 -0.0002 -0.2310
  454MOL0     C59834   0.939   7.991   8.900  0.0971  0.5881  0.2868
  454MOL0     C59835   0.832   8.102   8.915  0.7803  0.1571 -0.1670
  454MOL0     C59836   0.864   8.184   9.043 -1.0163  0.1066  0.5348
  454MOL0     C59837   0.985   8.281   9.032  0.3173 -1.0332 -0.7023
  454MOL0     C59838   1.022   8.349   9.163 -0.2152  0.9217  0.3087
  454MOL0     C59839   0.910   8.400   9.245 -0.5160  0.1509  0.2923
  454MOL0    Cl59840   0.952   8.506   9.378 -0.1308 -0.3414 -0.6720
  454MOL0     C59841   1.291   7.836   8.546 -0.4038  0.6490 -0.5671
  454MOL0     C59842   1.394   7.780   8.468  0.2757  0.1757  0.2152
  454MOL0     O59843   1.685   7.809   8.475 -0.9187 -0.7072 -0.7162
  454MOL0     C59844   1.799   7.517   8.298  0.4128 -0.0058  1.1664
  454MOL0     C59845   1.923   7.463   8.256 -0.1246 -0.8040 -0.4199
  454MOL0     N59846   2.494   6.895   8.196  0.4537  0.5299  0.1769
  454MOL0     N59847   2.496   6.781   8.137  0.1032 -0.1302  0.4581
  454MOL0     C59848   1.406   6.215   8.092  0.1960  0.0520 -0.0720
  454MOL0     C59849   1.380   6.112   8.182  0.1505 -0.3995 -0.7883
  454MOL0     C59850   1.289   5.896   8.578 -0.2945  0.3147 -0.3816
  454MOL0     C59851   1.176   5.888   8.659  0.3466 -0.1358 -0.3617
  454MOL0     C59852   1.161   5.784   8.755  0.3155 -0.5645  0.6923
  454MOL0     C59853   1.242   5.667   8.740 -0.3193 -0.3619  0.2128
  454MOL0     O59854   1.215   5.559   8.814 -0.0640  0.4333  0.0990
  454MOL0     C59855   1.302   5.456   8.828 -0.3351 -0.7738  0.1144
  454MOL0     C59856   1.255   5.335   8.917  0.2114 -0.6727 -0.1715
  454MOL0     C59857   1.349   5.220   8.939 -1.0284 -0.2281  0.7558
  454MOL0     C59858   1.391   5.145   8.806  0.3116  0.2394  0.1587
  454MOL0     C59859   1.288   5.146   8.708  0.3355 -0.3631 -0.1342
  454MOL0     C59860   1.201   5.148   8.621 -0.2632  0.0827 -0.1585
  454MOL0     C59861   1.346   5.672   8.650  0.1038 -0.4257  0.6916
  454MOL0     C59862   1.376   5.787   8.577 -1.1482 -0.2881 -1.4121
  454MOL0     H59863   1.629   6.162   8.411 -1.6456  3.0912  0.5254
  454MOL0     H59864   1.673   6.347   8.259  1.1146 -0.7978 -0.2032
  454MOL0     H59865   1.733   6.454   8.109  2.4652 -0.6093 -1.9866
  454MOL0     H59866   1.665   6.565   7.988 -0.0131  0.6034  0.0800
  454MOL0     H59867   1.640   6.366   7.844  0.2009 -1.7581  0.4903
  454MOL0     H59868   1.752   6.268   7.941 -3.2497  0.3468  0.7274
  454MOL0     H59869   1.800   6.519   7.770 -1.1689 -0.8521  0.0821
  454MOL0     H59870   1.878   6.369   7.743 -1.1313  1.4246 -1.8291
  454MOL0     H59871   1.951   6.553   7.970 -0.1197 -0.6240  0.2002
  454MOL0     H59872   1.989   6.383   7.955 -2.1018 -1.1748 -0.2636
  454MOL0     H59873   2.055   6.578   7.732 -2.8443 -2.3377 -2.8616
  454MOL0     H59874   2.093   6.406   7.736 -0.6277 -1.8356  1.1838
  454MOL0     H59875   2.293   6.509   7.814 -0.6250 -2.0930 -0.3136
  454MOL0     H59876   2.221   6.439   7.952 -1.1409 -0.6110  0.1487
  454MOL0     H59877   2.166   6.741   7.906  0.7548  1.9321  3.3011
  454MOL0     H59878   2.198   6.637   8.054  1.2003 -0.6350 -0.7318
  454MOL0     H59879   2.392   6.732   7.854  0.5565  1.4123  0.3806
  454MOL0     H59880   2.426   6.602   7.981 -1.4670 -1.0136  0.7427
  454MOL0     H59881   2.217   6.934   8.027  0.6759  1.8275  0.2304
  454MOL0     H59882   2.389   7.128   8.301  2.1804  0.9216 -0.3883
  454MOL0     H59883   2.234   7.097   8.209 -0.3520 -0.2676 -2.0906
  454MOL0     H59884   2.312   7.198   8.017 -2.1285  2.4867  1.5202
  454MOL0     H59885   2.483   7.210   8.079 -0.3099  1.2650  0.5387
  454MOL0     H59886   2.422   7.383   8.230 -1.2639  0.5003  1.0818
  454MOL0     H59887   2.359   7.407   8.064  1.8914  1.1560  1.4710
  454MOL0     H59888   2.149   7.305   8.263 -0.8090  2.5367  1.4634
  454MOL0     H59889   2.148   7.382   8.105 -1.0851  3.0947  0.1996
  454MOL0     H59890   2.126   7.713   8.357  0.4372  0.2588  1.9902
  454MOL0     H59891   1.910   7.800   8.447 -0.4320 -1.9293  1.8927
  454MOL0     H59892   1.433   7.497   8.655 -0.8827 -0.3858  0.8291
  454MOL0     H59893   1.238   7.597   8.775  0.4772  0.7335  0.7886
  454MOL0     H59894   0.993   7.877   8.580 -1.4557 -0.6056  1.1192
  454MOL0     H59895   1.055   8.024   8.663 -1.0624  0.6646  0.8278
  454MOL0     H59896   0.865   7.820   8.788  0.8413 -0.7510 -1.6617
  454MOL0     H59897   0.823   7.976   8.707  2.1179  3.9207  0.1421
  454MOL0     H59898   1.042   8.027   8.889  0.5669 -0.6704  0.3299
  454MOL0     H59899   0.938   7.925   8.987 -0.0470 -0.1541 -0.2695
  454MOL0     H59900   0.836   8.158   8.821  2.6781 -2.9237 -2.1483
  454MOL0     H59901   0.732   8.061   8.927  0.9909 -0.6908 -1.0960
  454MOL0     H59902   0.863   8.124   9.134  0.9858 -0.4714  0.2257
  454MOL0     H59903   0.776   8.249   9.051 -0.1088  1.5514 -0.6924
  454MOL0     H59904   0.965   8.365   8.965 -0.0308 -1.3038 -0.9393
  454MOL0     H59905   1.079   8.234   9.001  1.3905 -0.7199  1.8210
  454MOL0     H59906   1.078   8.269   9.213 -2.0667 -3.1737 -3.5136
  454MOL0     H59907   1.093   8.433   9.155  2.7702 -0.6505  5.6805
  454MOL0     H59908   0.849   8.317   9.281 -1.4973  1.3538  1.5452
  454MOL0     H59909   0.840   8.460   9.187 -0.6694 -2.1800 -2.0963
  454MOL0     H59910   1.242   7.925   8.509 -0.0197  1.6187  1.1508
  454MOL0     H59911   1.433   7.825   8.377  0.4909 -0.9994 -0.2929
  454MOL0     H59912   1.702   7.475   8.271 -0.3410  1.0725  2.0803
  454MOL0     H59913   1.928   7.371   8.199 -1.4837 -1.3793  0.3580
  454MOL0     H59914   1.344   6.233   8.004  1.6578  2.5144 -0.6810
  454MOL0     H59915   1.295   6.046   8.163  2.1220 -3.0627 -0.8835
  454MOL0     H59916   1.106   5.970   8.650 -0.1938 -0.5670 -0.1058
  454MOL0     H59917   1.077   5.786   8.824  0.7852  1.1746  1.2865
  454MOL0     H59918   1.396   5.495   8.866 -0.1279 -2.7027  1.7119
  454MOL0     H59919   1.317   5.422   8.725 -2.1939 -0.7433 -0.2169
  454MOL0     H59920   1.227   5.378   9.013 -1.7079  3.8814 -2.4926
  454MOL0     H59921   1.161   5.296   8.877  0.6481 -1.0221 -0.8858
  454MOL0     H59922   1.307   5.154   9.016  1.5177 -2.0886  0.6583
  454MOL0     H59923   1.446   5.251   8.978  1.0812 -1.3549 -3.0657
  454MOL0     H59924   1.481   5.197   8.769 -0.7754  0.4731 -2.4278
  454MOL0     H59925   1.427   5.045   8.830 -0.8838 -0.9321 -2.5192
  454MOL0     H59926   1.109   5.136   8.568 -2.1855 -0.2260  2.9950
  454MOL0     H59927   1.427   5.600   8.644  0.3161 -0.2814  1.6306
  454MOL0     H59928   1.465   5.794   8.516 -0.4355  1.6804 -0.2341
  455MOL0     O59929   6.214   4.877   8.073  0.3664  0.2389 -0.1190
  455MOL0     C59930   6.283   4.922   7.979 -0.0518  0.0216  0.4262
  455MOL0     O59931   6.233   4.963   7.868 -0.2716 -0.4263 -0.1931
  455MOL0     C59932   6.103   4.959   7.825  0.4524 -0.5270 -0.5226
  455MOL0     C59933   5.984   4.946   7.904  0.1392 -0.2568 -0.2255
  455MOL0     C59934   5.849   4.938   7.853 -0.1346  0.0599  0.1423
  455MOL0     C59935   5.824   4.944   7.715  0.3252 -0.2882 -0.5279
  455MOL0     O59936   5.698   4.911   7.674 -0.5296  0.1303  0.2315
  455MOL0     C59937   5.664   4.894   7.537 -0.1387 -1.0620 -0.3419
  455MOL0     C59938   5.534   4.828   7.509 -0.7459  0.0572  0.4965
  455MOL0     C59939   5.418   4.924   7.532  0.6179 -0.6158 -0.0769
  455MOL0     C59940   5.283   4.854   7.530  0.6556 -0.2468  0.0039
  455MOL0     C59941   5.175   4.963   7.563 -0.0626  0.0006  0.5678
  455MOL0     C59942   5.039   4.899   7.582  0.7194 -0.3061 -0.1040
  455MOL0     C59943   4.923   5.010   7.593 -0.1069  1.0083 -0.1420
  455MOL0     C59944   4.794   4.941   7.598 -0.6729 -0.3042 -0.1842
  455MOL0     N59945   4.688   5.034   7.615  0.4677 -0.7050  0.2521
  455MOL0     C59946   4.644   5.069   7.735 -0.0424 -0.5882 -0.2851
  455MOL0     C59947   4.535   5.150   7.714 -0.0637  0.1715 -0.0320
  455MOL0     C59948   4.450   5.225   7.811 -0.2000 -0.9411  0.6571
  455MOL0     C59949   4.296   5.235   7.767  0.2552  0.4130  0.1502
  455MOL0     C59950   4.206   5.334   7.842 -0.7649 -0.8060 -0.6212
  455MOL0     C59951   4.085   5.359   7.757  0.2822 -0.2138  0.5603
  455MOL0     O59952   4.000   5.467   7.796 -0.0529  0.0075 -0.6902
  455MOL0     C59953   3.873   5.440   7.752  1.1995 -0.0811 -0.0905
  455MOL0     C59954   3.811   5.340   7.666  0.3010  0.0797  0.2074
  455MOL0     C59955   3.667   5.348   7.665  0.3659  0.2793 -0.2303
  455MOL0     C59956   3.592   5.428   7.743 -0.0938 -0.1181 -0.6746
  455MOL0     C59957   3.441   5.429   7.740 -1.0012 -0.4151 -0.0978
  455MOL0     O59958   3.380   5.549   7.776 -0.0887  0.6346  0.1420
  455MOL0     C59959   3.245   5.555   7.749  0.2314  0.4549  0.7259
  455MOL0     C59960   3.189   5.543   7.616 -0.5063  1.1876  0.3224
  455MOL0     C59961   3.055   5.555   7.604  0.1435  0.5828 -0.3926
  455MOL0     C59962   2.964   5.568   7.712 -0.4378  0.3725  0.2965
  455MOL0     O59963   2.829   5.593   7.714 -0.5545  0.0590  1.9009
  455MOL0     C59964   2.779   5.665   7.602 -0.1538 -1.1275 -0.4173
  455MOL0     C59965   2.636   5.698   7.629  0.4404 -0.5656  0.1978
  455MOL0     C59966   2.554   5.579   7.691 -0.8986  0.4002  0.1649
  455MOL0     C59967   2.404   5.601   7.671 -0.0806 -0.0845  0.5928
  455MOL0     C59968   2.317   5.499   7.745 -0.2571 -1.0091 -0.1531
  455MOL0     C59969   2.186   5.567   7.793 -0.4083  0.2100 -1.1182
  455MOL0     C59970   2.110   5.445   7.854  0.6135  0.0201  0.6989
  455MOL0     C59971   1.973   5.486   7.904 -0.1028 -0.8340  0.1103
  455MOL0    Cl59972   1.885   5.580   7.779 -0.1272 -0.3325 -0.3409
  455MOL0     C59973   3.018   5.569   7.841 -0.1240  0.0811 -0.0984
  455MOL0     C59974   3.157   5.560   7.863 -0.2245  0.3443 -0.5239
  455MOL0     O59975   3.386   5.332   7.695 -0.1833  0.0417 -0.2525
  455MOL0     C59976   3.656   5.511   7.837 -0.6044  0.1514 -0.0699
  455MOL0     C59977   3.792   5.516   7.840 -0.6560  0.2403 -0.0822
  455MOL0     N59978   4.507   5.153   7.572 -0.6672 -0.6065  0.2084
  455MOL0     N59979   4.602   5.070   7.517  0.0369  0.2527  0.6112
  455MOL0     C59980   5.941   4.959   7.632 -1.1625 -0.4095  0.4523
  455MOL0     C59981   6.071   4.966   7.687 -0.2307 -0.8913  0.1304
  455MOL0     C59982   6.432   4.936   7.992 -0.9745  0.6298 -0.3367
  455MOL0     C59983   6.493   4.879   8.107 -0.6274  0.3168 -0.0646
  455MOL0     C59984   6.632   4.889   8.122  0.5101 -0.4189 -0.2257
  455MOL0     C59985   6.717   4.943   8.026  0.8164  1.0811 -0.6201
  455MOL0     O59986   6.856   4.932   8.033 -0.1300 -0.3554 -0.1845
  455MOL0     C59987   6.922   4.941   8.162 -0.7093 -0.4911  0.2292
  455MOL0     C59988   7.026   4.823   8.167  0.5509  0.8325 -0.4839
  455MOL0     C59989   7.125   4.821   8.052 -0.1465 -0.1424 -0.1322
  455MOL0     C59990   7.232   4.723   8.070  0.1565  0.9054 -0.2369
  455MOL0     C59991   7.351   4.761   7.984 -0.0263 -0.3053 -0.3972
  455MOL0     C59992   7.444   4.808   7.921 -0.6698 -0.4783 -0.6773
  455MOL0     C59993   6.666   4.976   7.902  0.7849 -0.4578 -0.4127
  455MOL0     C59994   6.520   4.985   7.889 -0.7385  0.0516  0.1596
  455MOL0     H59995   5.990   4.945   8.012  1.9868 -2.2644 -0.2578
  455MOL0     H59996   5.767   4.920   7.921 -0.7626 -0.8362 -0.8198
  455MOL0     H59997   5.743   4.827   7.502  1.2300 -0.0934  0.8246
  455MOL0     H59998   5.670   4.984   7.474  1.9542 -1.2588 -0.4887
  455MOL0     H59999   5.528   4.734   7.565  2.8987 -0.2640  0.5777
  455MOL0     H60000   5.519   4.798   7.405 -1.8754 -2.5002  1.3115
  455MOL0     H60001   5.417   4.998   7.452  2.5568  1.7739  1.9305
  455MOL0     H60002   5.425   4.986   7.622 -2.6618  5.2792 -3.2919
  455MOL0     H60003   5.259   4.810   7.433 -3.0003  1.6971 -0.1747
  455MOL0     H60004   5.278   4.775   7.605 -2.2083 -0.7464 -0.5980
  455MOL0     H60005   5.179   5.040   7.485  2.1229  1.3067  1.8689
  455MOL0     H60006   5.209   5.016   7.653  2.0351  1.0971 -0.7800
  455MOL0     H60007   5.035   4.839   7.673  3.6083 -1.2587 -0.4954
  455MOL0     H60008   5.015   4.837   7.495  1.2344 -0.4757 -0.1284
  455MOL0     H60009   4.943   5.076   7.677  0.1398  1.1137 -0.2827
  455MOL0     H60010   4.931   5.074   7.505 -1.2443  0.8168 -0.4077
  455MOL0     H60011   4.803   4.870   7.681  2.8080 -0.5211 -0.5866
  455MOL0     H60012   4.768   4.886   7.508  1.4589 -1.4572 -0.1673
  455MOL0     H60013   4.690   5.056   7.832 -1.9467  1.8106  1.0459
  455MOL0     H60014   4.490   5.326   7.828 -1.1460 -0.2332 -1.0801
  455MOL0     H60015   4.452   5.169   7.905  0.4911 -1.0662  0.5737
  455MOL0     H60016   4.259   5.135   7.792  1.2155 -0.1725 -0.6717
  455MOL0     H60017   4.281   5.261   7.661 -0.9571 -1.0447 -0.0727
  455MOL0     H60018   4.170   5.292   7.937 -1.5518 -2.2465 -1.5153
  455MOL0     H60019   4.256   5.430   7.859  0.6426 -1.9442  2.4140
  455MOL0     H60020   4.032   5.264   7.765  1.9116 -1.2587 -0.4925
  455MOL0     H60021   4.111   5.387   7.655 -1.5816 -1.3810 -0.2833
  455MOL0     H60022   3.860   5.265   7.606  1.5074  1.0786 -0.1084
  455MOL0     H60023   3.622   5.267   7.609 -1.7883 -1.1978  3.3278
  455MOL0     H60024   3.261   5.534   7.536  0.4595 -1.0352  1.3586
  455MOL0     H60025   3.009   5.565   7.507 -0.3046  0.5965 -0.1831
  455MOL0     H60026   2.785   5.599   7.514 -1.7544  0.7044 -2.0049
  455MOL0     H60027   2.837   5.755   7.579 -0.9746 -0.7167 -0.9208
  455MOL0     H60028   2.591   5.739   7.539  0.1906 -0.1922  0.4908
  455MOL0     H60029   2.617   5.777   7.702  0.6991 -1.0389  0.7931
  455MOL0     H60030   2.584   5.571   7.796 -0.4061 -1.0354 -0.0522
  455MOL0     H60031   2.565   5.481   7.642 -1.1604 -1.4750  3.5712
  455MOL0     H60032   2.384   5.705   7.699 -0.2219 -0.5790  2.4727
  455MOL0     H60033   2.379   5.597   7.565 -2.6185  0.4779  1.1012
  455MOL0     H60034   2.364   5.458   7.835  0.8763  0.5961  0.0304
  455MOL0     H60035   2.303   5.410   7.684  0.3725  0.4980 -2.6311
  455MOL0     H60036   2.134   5.608   7.705 -0.3524 -0.1971 -1.3400
  455MOL0     H60037   2.207   5.643   7.869  1.2744 -0.2317 -1.1017
  455MOL0     H60038   2.092   5.372   7.775  2.7007 -0.2834  0.4528
  455MOL0     H60039   2.161   5.402   7.940 -1.1152  3.8581  3.9927
  455MOL0     H60040   1.996   5.543   7.994  2.8270 -0.1325 -0.9582
  455MOL0     H60041   1.926   5.389   7.924  1.3206 -1.9540 -1.6035
  455MOL0     H60042   2.950   5.602   7.919  1.8085  1.2422  1.1857
  455MOL0     H60043   3.198   5.570   7.963  0.8702 -0.9712 -0.8035
  455MOL0     H60044   3.599   5.578   7.902 -0.0624 -0.4607  1.0609
  455MOL0     H60045   3.844   5.592   7.897 -1.6096  0.7092  0.1923
  455MOL0     H60046   5.920   4.970   7.526 -1.6315  0.2355  0.6107
  455MOL0     H60047   6.153   4.987   7.619 -0.5654 -0.3187 -0.1065
  455MOL0     H60048   6.441   4.842   8.195 -0.3389 -2.0019 -0.8264
  455MOL0     H60049   6.669   4.845   8.214  0.2535  0.3173  0.2360
  455MOL0     H60050   6.849   4.941   8.244 -1.2601  0.9332 -0.2267
  455MOL0     H60051   6.974   5.036   8.176  1.3713 -1.6648  0.8801
  455MOL0     H60052   7.072   4.824   8.267 -1.4232 -4.2154  0.7896
  455MOL0     H60053   6.975   4.726   8.161 -0.1782  1.1824 -0.1227
  455MOL0     H60054   7.162   4.924   8.047 -0.9844  0.1508 -0.5598
  455MOL0     H60055   7.064   4.803   7.963 -2.0055  0.7146  0.9029
  455MOL0     H60056   7.275   4.725   8.170  2.3333  1.4842 -1.1280
  455MOL0     H60057   7.198   4.623   8.040 -0.0882  0.1685  2.2989
  455MOL0     H60058   7.529   4.848   7.869 -1.0873 -0.2636 -1.1961
  455MOL0     H60059   6.731   5.003   7.819  0.6287  0.3679 -0.2768
  455MOL0     H60060   6.467   5.017   7.800  0.7659 -1.3858 -1.3099
  456MOL0     O60061   1.123   8.220   1.584 -1.2620 -0.3010 -0.0607
  456MOL0     C60062   1.236   8.191   1.541 -0.3434  0.3508  0.4624
  456MOL0     O60063   1.265   8.170   1.404 -0.8319 -0.1143 -0.7887
  456MOL0     C60064   1.182   8.210   1.307 -1.3982 -0.5010  0.3746
  456MOL0     C60065   1.188   8.149   1.178  0.1139  0.7503 -1.1232
  456MOL0     C60066   1.092   8.177   1.084  0.0995  0.2946 -0.3683
  456MOL0     C60067   1.009   8.286   1.100  0.3942  0.1069  0.1793
  456MOL0     O60068   0.921   8.323   0.999 -0.2106 -0.2110  0.9273
  456MOL0     C60069   0.785   8.297   1.032 -0.0299 -0.6656 -0.5704
  456MOL0     C60070   0.676   8.338   0.926  0.1022 -0.9008 -0.1170
  456MOL0     C60071   0.718   8.292   0.781 -0.0259  0.6112  0.2035
  456MOL0     C60072   0.595   8.301   0.685  0.4851  0.1963 -0.6005
  456MOL0     C60073   0.638   8.299   0.534 -0.7309 -0.4472 -0.0886
  456MOL0     C60074   0.526   8.268   0.426 -0.0910  0.4227  0.2512
  456MOL0     C60075   0.469   8.129   0.440  0.4986  0.0237 -1.0937
  456MOL0     C60076   0.403   8.078   0.311 -0.4072  0.3051  1.0947
  456MOL0     N60077   0.276   8.153   0.277 -0.7470  0.5559 -0.7785
  456MOL0     C60078   0.190   8.114   0.174 -0.5337  0.2081  0.7174
  456MOL0     C60079   0.081   8.201   0.182  0.2708  0.6158 -0.2290
  456MOL0     C60080  -0.036   8.201   0.081  0.2060  0.8469 -0.1934
  456MOL0     C60081  -0.181   8.162   0.142 -0.2630  0.7375  0.4719
  456MOL0     C60082  -0.187   8.031   0.225  0.5665 -0.2407  0.1619
  456MOL0     C60083  -0.321   8.015   0.287 -0.8683  0.2027 -0.4105
  456MOL0     O60084  -0.413   7.993   0.179 -0.5032 -0.0955  0.1747
  456MOL0     C60085  -0.551   8.009   0.202 -0.5237  0.0515  0.9441
  456MOL0     C60086  -0.607   8.027   0.326  0.7286  0.0471 -0.2647
  456MOL0     C60087  -0.741   8.072   0.334  0.4215  0.6706 -0.4003
  456MOL0     C60088  -0.819   8.074   0.221  0.9500 -0.9085  0.5780
  456MOL0     C60089  -0.959   8.125   0.224  0.5209  0.5313  0.6177
  456MOL0     O60090  -1.038   8.122   0.106 -0.3575 -0.3945 -0.2311
  456MOL0     C60091  -1.176   8.113   0.114 -0.5455  0.3036 -0.4012
  456MOL0     C60092  -1.254   8.148   0.005 -0.5307 -0.0323  0.6739
  456MOL0     C60093  -1.394   8.151   0.017 -0.7586 -0.6986  0.3047
  456MOL0     C60094  -1.463   8.104   0.124  0.4011 -0.6875  0.0495
  456MOL0     O60095  -1.602   8.111   0.111  0.4122 -0.0782  0.0846
  456MOL0     C60096  -1.670   8.038   0.214 -1.1365 -0.8004  0.1892
  456MOL0     C60097  -1.821   8.060   0.202 -0.4899 -0.4417 -0.0163
  456MOL0     C60098  -1.910   8.016   0.325  0.3734 -0.6043  0.8447
  456MOL0     C60099  -1.910   7.861   0.352  0.3314 -0.7474  0.5832
  456MOL0     C60100  -2.017   7.801   0.445 -0.0453 -0.4345 -0.3626
  456MOL0     C60101  -2.034   7.859   0.588 -0.9068 -0.7839 -0.7413
  456MOL0     C60102  -2.063   7.754   0.695 -0.5299 -0.0357  0.6994
  456MOL0     C60103  -2.200   7.678   0.652 -0.4078  0.0172 -0.0802
  456MOL0    Cl60104  -2.337   7.802   0.657 -0.2166  0.2576  0.4697
  456MOL0     C60105  -1.384   8.067   0.238  1.8619 -0.0726  0.1043
  456MOL0     C60106  -1.246   8.070   0.231 -0.5315  0.7131  0.0850
  456MOL0     O60107  -0.990   8.186   0.326 -0.2038 -0.7653  0.2848
  456MOL0     C60108  -0.769   8.039   0.097 -0.9217 -0.5646  0.6743
  456MOL0     C60109  -0.638   7.991   0.095 -0.7753 -1.0276  0.1296
  456MOL0     N60110   0.087   8.268   0.307 -0.0170 -0.6588  0.4749
  456MOL0     N60111   0.212   8.252   0.353 -0.3085 -0.2239 -0.2350
  456MOL0     C60112   1.021   8.359   1.210  0.3353 -0.5914  0.2898
  456MOL0     C60113   1.100   8.322   1.315 -0.1034  0.5621  0.7395
  456MOL0     C60114   1.353   8.185   1.626  0.4445  0.3963  0.4605
  456MOL0     C60115   1.339   8.218   1.759  0.0223 -0.5630 -0.1237
  456MOL0     C60116   1.451   8.209   1.848  0.8190 -0.8635 -0.2758
  456MOL0     C60117   1.575   8.161   1.803 -0.3957  0.0450  0.0612
  456MOL0     O60118   1.678   8.144   1.894  0.6046  0.1707  0.1262
  456MOL0     C60119   1.786   8.056   1.860  0.8766 -0.1171  0.5841
  456MOL0     C60120   1.869   8.040   1.992  0.8870  0.8293  1.4833
  456MOL0     C60121   1.944   7.901   2.004 -0.1999  0.1645  1.0984
  456MOL0     C60122   2.077   7.919   1.919 -0.5050 -0.7200  0.9979
  456MOL0     C60123   2.179   7.826   1.969  0.2650 -1.6648 -0.7038
  456MOL0     C60124   2.262   7.747   2.020 -0.1905 -0.2722 -0.5799
  456MOL0     C60125   1.576   8.115   1.668  0.2604 -0.3030 -0.2726
  456MOL0     C60126   1.471   8.130   1.586  0.0331  0.3653  0.4434
  456MOL0     H60127   1.263   8.070   1.171  0.6730  1.1202  0.3316
  456MOL0     H60128   1.084   8.105   1.003 -2.9191 -2.5568  2.1582
  456MOL0     H60129   0.778   8.355   1.124  1.1076 -0.8922 -0.3266
  456MOL0     H60130   0.767   8.191   1.054 -0.7972 -0.1776  1.3939
  456MOL0     H60131   0.664   8.446   0.924  1.4596 -0.7403 -0.8287
  456MOL0     H60132   0.579   8.292   0.945 -0.1439  0.4361  2.2218
  456MOL0     H60133   0.742   8.185   0.786 -4.6832 -0.7270 -0.9076
  456MOL0     H60134   0.808   8.345   0.751  0.2649  0.1557  0.2646
  456MOL0     H60135   0.518   8.224   0.701 -1.0123  1.1911 -2.4754
  456MOL0     H60136   0.539   8.394   0.696  0.4801  0.3340 -1.6325
  456MOL0     H60137   0.716   8.223   0.522 -1.8847 -1.4118 -2.0397
  456MOL0     H60138   0.692   8.393   0.518  2.2976 -1.6046  2.3822
  456MOL0     H60139   0.582   8.277   0.332 -0.0455  0.0000  0.2354
  456MOL0     H60140   0.453   8.349   0.421  1.0415  1.6397  2.1881
  456MOL0     H60141   0.544   8.058   0.476 -0.4724  0.6344  2.5684
  456MOL0     H60142   0.389   8.145   0.512 -0.9680 -0.8060 -2.4711
  456MOL0     H60143   0.370   7.976   0.332 -1.8973  1.0597  2.6354
  456MOL0     H60144   0.470   8.070   0.225  0.8948  2.4699  1.8234
  456MOL0     H60145   0.208   8.061   0.080  0.2780  1.1351  0.3306
  456MOL0     H60146  -0.008   8.128   0.005 -0.0006  0.5202  0.0408
  456MOL0     H60147  -0.034   8.294   0.023 -0.4496  1.6290  0.9892
  456MOL0     H60148  -0.250   8.157   0.057  0.0082 -1.4082  0.3351
  456MOL0     H60149  -0.211   8.244   0.208  1.3791  2.3682 -0.7160
  456MOL0     H60150  -0.165   7.951   0.154 -1.4520 -0.5347 -0.1920
  456MOL0     H60151  -0.110   8.037   0.302 -1.7333  3.6585  2.4933
  456MOL0     H60152  -0.346   8.097   0.355 -0.8805 -0.1558  0.0191
  456MOL0     H60153  -0.317   7.924   0.348 -1.5643  0.7621  0.4982
  456MOL0     H60154  -0.556   8.022   0.422  0.6075 -0.2259 -0.2134
  456MOL0     H60155  -0.774   8.104   0.432  2.4646  1.2324  0.1467
  456MOL0     H60156  -1.209   8.176  -0.089  0.9233 -0.0514  1.3443
  456MOL0     H60157  -1.452   8.188  -0.067 -2.1051  0.8388  1.8154
  456MOL0     H60158  -1.648   8.065   0.318  0.5000 -0.3654 -0.2567
  456MOL0     H60159  -1.635   7.936   0.197  0.4641  0.0928 -2.3473
  456MOL0     H60160  -1.854   8.011   0.109 -3.0742 -0.4855  0.8615
  456MOL0     H60161  -1.829   8.168   0.189  0.6980  0.0100  2.4566
  456MOL0     H60162  -2.011   8.050   0.304  1.5574  1.1744 -2.7129
  456MOL0     H60163  -1.876   8.068   0.415  0.3044  0.5176  0.2401
  456MOL0     H60164  -1.912   7.810   0.255  2.4421  0.4402 -0.1516
  456MOL0     H60165  -1.815   7.843   0.403  0.5112 -0.8024  0.2333
  456MOL0     H60166  -1.980   7.699   0.459  2.9327  0.8775  3.4233
  456MOL0     H60167  -2.118   7.802   0.404 -0.6169  1.1994  0.9671
  456MOL0     H60168  -2.107   7.940   0.580 -0.6426 -0.5565 -0.8937
  456MOL0     H60169  -1.938   7.904   0.617 -1.3038  0.1763 -0.8824
  456MOL0     H60170  -1.988   7.674   0.698  0.0009  0.3975 -0.5503
  456MOL0     H60171  -2.072   7.808   0.790  2.0629  1.3168  0.2662
  456MOL0     H60172  -2.225   7.596   0.721 -6.3309 -1.4708 -3.3462
  456MOL0     H60173  -2.178   7.623   0.560 -2.0854 -1.6069  0.4170
  456MOL0     H60174  -1.436   8.033   0.327 -1.1566  0.6120 -1.2483
  456MOL0     H60175  -1.198   8.034   0.321 -1.5691  1.7300  1.0763
  456MOL0     H60176  -0.830   8.028   0.008  0.0196  0.1056 -0.0717
  456MOL0     H60177  -0.605   7.950   0.001 -1.8106 -0.9984 -0.2547
  456MOL0     H60178   0.970   8.454   1.210  0.7309 -0.3728  0.6563
  456MOL0     H60179   1.095   8.393   1.397 -1.0580  2.7073 -1.0779
  456MOL0     H60180   1.244   8.248   1.800 -0.5486 -2.5751  0.1616
  456MOL0     H60181   1.441   8.236   1.953 -1.8964 -0.4155 -0.5745
  456MOL0     H60182   1.845   8.099   1.778  1.9691  1.1127  1.9560
  456MOL0     H60183   1.741   7.960   1.833 -0.3829  1.1754 -2.2243
  456MOL0     H60184   1.938   8.125   1.997  0.9397  0.9631 -0.8030
  456MOL0     H60185   1.796   8.056   2.072 -0.3340 -0.5493  0.6911
  456MOL0     H60186   1.888   7.818   1.959  0.7513  0.5847 -1.0162
  456MOL0     H60187   1.956   7.878   2.110  0.0111 -0.5339  0.9305
  456MOL0     H60188   2.066   7.898   1.812  3.3554 -1.4581  0.6064
  456MOL0     H60189   2.121   8.016   1.945 -0.7100 -1.3050  3.8659
  456MOL0     H60190   2.332   7.679   2.064  0.2174 -0.8807 -2.0960
  456MOL0     H60191   1.658   8.051   1.638  0.9210 -0.4842  1.7447
  456MOL0     H60192   1.483   8.082   1.489  0.2923  0.0481  0.6339
  457MOL0     O60193   2.575   5.059   6.833 -0.4258 -0.3252 -0.0581
  457MOL0     C60194   2.619   5.082   6.949  0.0179 -0.8636 -0.7230
  457MOL0     O60195   2.546   5.115   7.062  0.0984  0.7783  0.2789
  457MOL0     C60196   2.418   5.148   7.040 -0.4148 -0.8998  0.4133
  457MOL0     C60197   2.402   5.283   7.005 -1.2515 -0.0050  1.1288
  457MOL0     C60198   2.273   5.337   6.983 -0.9897  0.0729  0.1315
  457MOL0     C60199   2.166   5.261   7.007  0.1760  0.1132  0.5913
  457MOL0     O60200   2.040   5.313   6.998  0.7371  0.0599  0.1232
  457MOL0     C60201   1.921   5.233   6.985 -0.2112  0.2846  0.0081
  457MOL0     C60202   1.804   5.326   6.984 -0.4518 -0.3750 -0.6230
  457MOL0     C60203   1.686   5.242   7.008  0.5221 -0.7351  0.2611
  457MOL0     C60204   1.559   5.318   6.977 -0.0808 -0.3828  0.2331
  457MOL0     C60205   1.433   5.234   7.016  0.2965 -0.1571 -0.2823
  457MOL0     C60206   1.407   5.209   7.154 -1.0355 -1.0508 -0.4353
  457MOL0     C60207   1.278   5.154   7.190 -0.2958 -0.2927 -0.5514
  457MOL0     C60208   1.288   5.101   7.336  1.2720 -0.9536 -1.0591
  457MOL0     N60209   1.250   5.195   7.446  0.7870  0.6846 -0.5531
  457MOL0     C60210   1.240   5.334   7.455 -0.1919 -0.6936 -0.2378
  457MOL0     C60211   1.172   5.364   7.566 -0.4190 -0.5798 -0.2210
  457MOL0     C60212   1.140   5.501   7.619 -0.0225 -0.2425 -0.2696
  457MOL0     C60213   0.999   5.488   7.685 -0.1308  0.6079 -0.2858
  457MOL0     C60214   0.974   5.622   7.756 -0.7406 -0.8639 -0.6664
  457MOL0     C60215   0.824   5.656   7.778 -0.2449  0.2386 -0.1289
  457MOL0     O60216   0.819   5.784   7.834  0.0584  0.4279  0.2687
  457MOL0     C60217   0.694   5.838   7.868  0.3033  0.6178  0.1602
  457MOL0     C60218   0.577   5.765   7.855 -0.4415  0.4547  0.7795
  457MOL0     C60219   0.458   5.830   7.873  0.0929 -0.4065  0.5113
  457MOL0     C60220   0.455   5.963   7.923 -0.1229  0.1145 -0.0282
  457MOL0     C60221   0.319   6.024   7.949  0.1560  0.5128 -0.6592
  457MOL0     O60222   0.213   5.952   7.909  0.8987 -0.6292 -0.2171
  457MOL0     C60223   0.086   6.013   7.888  0.7910 -0.4567  0.1429
  457MOL0     C60224   0.070   6.153   7.866  0.0945 -0.3127  1.1316
  457MOL0     C60225  -0.059   6.204   7.837  0.0568 -0.6868  0.4949
  457MOL0     C60226  -0.167   6.118   7.847 -0.2179 -0.3011  0.7128
  457MOL0     O60227  -0.291   6.174   7.829 -0.4221 -0.5887 -0.6412
  457MOL0     C60228  -0.364   6.113   7.728 -0.4843  0.1437  0.1762
  457MOL0     C60229  -0.496   6.192   7.705 -0.5230  0.7551  0.4097
  457MOL0     C60230  -0.456   6.328   7.664  0.3234 -0.9904 -0.0819
  457MOL0     C60231  -0.587   6.403   7.619  0.2862  0.7924  0.0057
  457MOL0     C60232  -0.549   6.549   7.578  0.2328 -1.1805 -0.5646
  457MOL0     C60233  -0.604   6.650   7.676  0.4808 -0.2473  0.0238
  457MOL0     C60234  -0.556   6.787   7.639 -0.0090  1.0388 -0.3359
  457MOL0     C60235  -0.604   6.839   7.508 -0.4703  0.0128  0.3160
  457MOL0    Cl60236  -0.778   6.842   7.473 -0.1681 -0.1711 -0.5971
  457MOL0     C60237  -0.154   5.982   7.871 -0.0255  0.6945  0.1535
  457MOL0     C60238  -0.025   5.925   7.885  0.1092 -0.3206  0.7182
  457MOL0     O60239   0.317   6.142   7.990 -0.1484  0.3864 -0.3906
  457MOL0     C60240   0.573   6.033   7.937 -0.6059  0.4673  0.3091
  457MOL0     C60241   0.696   5.969   7.909  0.9912  0.3996 -0.5290
  457MOL0     N60242   1.147   5.251   7.627  0.2464  0.2507 -0.0217
  457MOL0     N60243   1.179   5.142   7.557  0.1660 -0.4448 -0.4634
  457MOL0     C60244   2.179   5.125   7.042 -0.2122 -0.1550  0.2028
  457MOL0     C60245   2.307   5.069   7.062  0.0029 -0.0057  0.1837
  457MOL0     C60246   2.762   5.068   6.960 -0.3492  1.0429  0.5084
  457MOL0     C60247   2.814   5.068   7.091  0.1181  0.7002  0.0454
  457MOL0     C60248   2.949   5.040   7.108  0.1705 -1.3619  0.7088
  457MOL0     C60249   3.043   5.028   6.996  0.1877  0.2573 -0.4330
  457MOL0     O60250   3.177   5.012   7.022 -0.1136  0.5571  0.2524
  457MOL0     C60251   3.271   5.066   6.931 -0.7316 -0.2020 -0.5525
  457MOL0     C60252   3.409   5.081   6.988  0.0055  0.6748 -0.0924
  457MOL0     C60253   3.467   4.957   7.036 -0.6207  0.5405 -0.0251
  457MOL0     C60254   3.519   4.879   6.913  0.1971  0.3049 -0.4189
  457MOL0     C60255   3.550   4.735   6.939 -0.1155 -1.3271 -0.2857
  457MOL0     C60256   3.585   4.631   6.973 -0.1150 -0.8120  0.0541
  457MOL0     C60257   2.984   5.023   6.874  0.3451  0.5731  0.0818
  457MOL0     C60258   2.851   5.036   6.849  0.4875  1.2679  0.1525
  457MOL0     H60259   2.483   5.353   6.983  0.9079 -1.6619  3.3303
  457MOL0     H60260   2.269   5.440   6.949 -0.5117  0.1015  0.1540
  457MOL0     H60261   1.904   5.154   7.058  0.5884 -0.3691 -0.4891
  457MOL0     H60262   1.933   5.188   6.886  0.7115 -0.2635  0.3575
  457MOL0     H60263   1.791   5.384   6.892 -2.2789  1.1902  0.5401
  457MOL0     H60264   1.816   5.391   7.071  0.8304  0.0272 -1.0835
  457MOL0     H60265   1.678   5.207   7.111 -0.1982 -1.4065 -0.0151
  457MOL0     H60266   1.697   5.151   6.948  3.5400 -1.7240  2.0915
  457MOL0     H60267   1.553   5.415   7.027  2.3566 -0.1762  0.2444
  457MOL0     H60268   1.557   5.330   6.868  0.9928  2.7211  0.4499
  457MOL0     H60269   1.429   5.146   6.952 -1.5997 -0.7434  0.5430
  457MOL0     H60270   1.348   5.292   6.978 -0.7021 -0.3209  1.5388
  457MOL0     H60271   1.433   5.302   7.204 -1.7957 -1.7099  1.2533
  457MOL0     H60272   1.486   5.141   7.186  0.3749  0.6584 -0.1383
  457MOL0     H60273   1.206   5.235   7.178  2.0317  2.0781  0.3362
  457MOL0     H60274   1.248   5.072   7.125 -1.7213  0.8383 -1.3902
  457MOL0     H60275   1.392   5.081   7.360  1.1864 -0.7236 -0.4917
  457MOL0     H60276   1.228   5.009   7.342  1.5038 -1.1751 -1.9628
  457MOL0     H60277   1.278   5.409   7.386  1.5126  1.4335  2.7797
  457MOL0     H60278   1.147   5.574   7.537 -1.1908 -2.3624 -2.3966
  457MOL0     H60279   1.210   5.513   7.702 -1.7708  0.8491  1.1076
  457MOL0     H60280   0.993   5.413   7.764 -1.9779  2.7746  1.7825
  457MOL0     H60281   0.926   5.458   7.609 -0.6729  2.8249 -0.7328
  457MOL0     H60282   1.021   5.633   7.854 -0.3257 -0.1024 -0.9428
  457MOL0     H60283   1.022   5.698   7.693  2.0158  0.4067  2.6694
  457MOL0     H60284   0.776   5.586   7.847 -1.2359  1.1831  0.1674
  457MOL0     H60285   0.779   5.645   7.679  1.3313 -0.6612 -0.7787
  457MOL0     H60286   0.563   5.662   7.825 -1.8300  0.8266  0.0881
  457MOL0     H60287   0.366   5.774   7.857 -0.6697  0.6915  0.9748
  457MOL0     H60288   0.155   6.220   7.856 -0.3161  0.6608  3.5151
  457MOL0     H60289  -0.063   6.307   7.803  0.6469 -0.1900  1.8568
  457MOL0     H60290  -0.399   6.011   7.744  0.8574 -1.1338 -3.8701
  457MOL0     H60291  -0.306   6.109   7.635 -0.0953 -1.1160  0.4645
  457MOL0     H60292  -0.558   6.177   7.793 -1.3563 -1.0274 -0.4232
  457MOL0     H60293  -0.542   6.140   7.621 -0.0512  1.2642 -0.1776
  457MOL0     H60294  -0.370   6.330   7.597  0.8421  0.3274  0.6021
  457MOL0     H60295  -0.422   6.375   7.756 -0.0358 -1.4172  0.2697
  457MOL0     H60296  -0.620   6.345   7.532  1.2870  0.9233 -0.4724
  457MOL0     H60297  -0.672   6.408   7.687 -0.8760  0.9900 -1.4148
  457MOL0     H60298  -0.593   6.579   7.483 -1.0793  0.1893  0.4397
  457MOL0     H60299  -0.441   6.568   7.577 -0.2022  1.7907  0.3162
  457MOL0     H60300  -0.573   6.627   7.778 -1.4152  1.4516  1.0462
  457MOL0     H60301  -0.713   6.652   7.670  0.4311 -3.1496 -2.0708
  457MOL0     H60302  -0.590   6.850   7.722 -0.0073  0.8484 -0.1907
  457MOL0     H60303  -0.447   6.781   7.648 -0.1686 -1.6954  0.7970
  457MOL0     H60304  -0.561   6.783   7.425  1.8840  0.0984  1.3933
  457MOL0     H60305  -0.564   6.941   7.501  1.3938 -0.6050  1.3841
  457MOL0     H60306  -0.241   5.916   7.870  1.0095 -0.7099  0.0696
  457MOL0     H60307   0.004   5.821   7.900 -0.2808 -0.7507 -1.1726
  457MOL0     H60308   0.578   6.130   7.984  1.9852 -0.3289  1.8979
  457MOL0     H60309   0.786   6.029   7.913  0.5590  1.1856 -1.9521
  457MOL0     H60310   2.091   5.062   7.050 -0.1135 -0.3800 -0.4550
  457MOL0     H60311   2.307   4.961   7.071 -2.3906  0.0510  1.9878
  457MOL0     H60312   2.743   5.093   7.169 -3.1817 -1.1232 -2.1621
  457MOL0     H60313   2.986   5.052   7.210  0.7374 -3.3164  0.7656
  457MOL0     H60314   3.237   5.162   6.892 -2.3998 -0.6959 -0.3885
  457MOL0     H60315   3.274   4.987   6.855 -0.7076  0.1237 -0.8923
  457MOL0     H60316   3.472   5.126   6.911  1.3746 -4.0630 -2.1028
  457MOL0     H60317   3.414   5.151   7.072  0.0320 -1.6164  1.9327
  457MOL0     H60318   3.395   4.888   7.082  2.2628 -3.2437 -0.7162
  457MOL0     H60319   3.535   4.968   7.121 -0.7472  0.4501  0.0893
  457MOL0     H60320   3.441   4.891   6.837 -0.9540  1.4068  0.8610
  457MOL0     H60321   3.606   4.930   6.871 -0.1229  0.7555 -0.5410
  457MOL0     H60322   3.616   4.530   6.993  1.9622 -0.5436 -1.4290
  457MOL0     H60323   3.043   5.001   6.785 -1.7450 -1.1039 -0.9668
  457MOL0     H60324   2.820   5.045   6.746 -1.0332 -0.3856  0.4270
  458MOL0     O60325   2.843   2.664   1.668 -0.4781 -0.8233 -1.0329
  458MOL0     C60326   2.888   2.695   1.777 -0.1739 -0.5112 -0.4752
  458MOL0     O60327   2.834   2.685   1.905  0.5521  0.4878 -0.5126
  458MOL0     C60328   2.714   2.636   1.928  0.2571  0.4412 -0.0152
  458MOL0     C60329   2.631   2.701   2.024 -0.1525  0.0860  0.5763
  458MOL0     C60330   2.499   2.659   2.057 -0.1536 -0.3522  0.2733
  458MOL0     C60331   2.445   2.551   1.988  0.1428 -1.2409 -0.2332
  458MOL0     O60332   2.330   2.487   2.013  0.1903  0.0642 -0.5026
  458MOL0     C60333   2.308   2.468   2.156 -0.5971 -0.0808  0.9635
  458MOL0     C60334   2.199   2.366   2.182 -0.3337 -1.0100  0.6787
  458MOL0     C60335   2.051   2.425   2.175 -0.2518 -0.5019 -0.1488
  458MOL0     C60336   1.955   2.318   2.218  0.1908  0.1013 -0.2571
  458MOL0     C60337   1.804   2.353   2.221 -0.1818  0.7595 -0.1395
  458MOL0     C60338   1.763   2.466   2.319  0.1133 -0.0335  0.4964
  458MOL0     C60339   1.616   2.492   2.299 -0.4345  0.0741  0.1647
  458MOL0     C60340   1.519   2.395   2.376 -0.6540  0.4214 -0.5657
  458MOL0     N60341   1.380   2.424   2.345 -0.3299  0.4033 -0.2680
  458MOL0     C60342   1.276   2.369   2.399  0.3225  0.4981  0.0801
  458MOL0     C60343   1.168   2.441   2.360  0.3157  0.5409 -0.3023
  458MOL0     C60344   1.022   2.438   2.423 -0.6673 -0.2290  0.0692
  458MOL0     C60345   0.913   2.381   2.343 -0.5055  0.3227  0.6078
  458MOL0     C60346   0.903   2.421   2.196 -1.0006 -0.0167 -0.5097
  458MOL0     C60347   0.847   2.563   2.185 -0.0798 -0.8519  0.2662
  458MOL0     O60348   0.702   2.569   2.218 -0.2271 -0.8006 -0.6602
  458MOL0     C60349   0.614   2.527   2.124 -0.3898  0.6106  0.6807
  458MOL0     C60350   0.636   2.528   1.984  0.5630 -1.2024  0.0704
  458MOL0     C60351   0.531   2.510   1.895 -0.4685  0.1368  0.2735
  458MOL0     C60352   0.397   2.500   1.944 -0.1122  0.0561  0.0234
  458MOL0     C60353   0.278   2.512   1.861 -0.0939 -0.5552  0.4964
  458MOL0     O60354   0.310   2.526   1.726  0.4113  0.1457 -0.5305
  458MOL0     C60355   0.207   2.516   1.632 -0.4267 -0.1103 -0.1299
  458MOL0     C60356   0.147   2.391   1.593  0.1331  0.0223 -0.3371
  458MOL0     C60357   0.036   2.392   1.507  0.4516 -0.1109 -0.4658
  458MOL0     C60358  -0.013   2.515   1.463 -1.2052  0.2525 -0.0384
  458MOL0     O60359  -0.127   2.501   1.379  0.0378 -0.7083 -0.0990
  458MOL0     C60360  -0.197   2.620   1.342 -0.6495  1.1229  0.1518
  458MOL0     C60361  -0.317   2.583   1.253 -0.7177  0.4462  0.4500
  458MOL0     C60362  -0.416   2.525   1.350  0.0507 -1.0674 -0.0571
  458MOL0     C60363  -0.514   2.433   1.277 -0.2666 -0.5756 -0.3444
  458MOL0     C60364  -0.601   2.370   1.377  0.5338  0.2111  0.1087
  458MOL0     C60365  -0.703   2.271   1.318 -0.1821 -0.4724  0.0438
  458MOL0     C60366  -0.791   2.323   1.205 -0.7415 -0.0620  0.1338
  458MOL0     C60367  -0.914   2.242   1.191  0.1205 -0.1899  0.6065
  458MOL0    Cl60368  -1.056   2.255   1.319 -1.1076  0.6481  0.4745
  458MOL0     C60369   0.037   2.637   1.513 -0.1236 -0.4225  1.1318
  458MOL0     C60370   0.145   2.640   1.604  0.5829 -0.4568  1.0092
  458MOL0     O60371   0.161   2.494   1.905 -0.0049 -0.3148  0.3478
  458MOL0     C60372   0.375   2.504   2.082 -0.6644 -0.1069 -0.7751
  458MOL0     C60373   0.485   2.516   2.172 -0.6141  0.2753 -0.2550
  458MOL0     N60374   1.213   2.532   2.266 -0.3384  1.0740  0.4234
  458MOL0     N60375   1.334   2.510   2.252 -0.0923 -0.0892 -0.5655
  458MOL0     C60376   2.526   2.485   1.893  0.3467 -0.1513  0.5670
  458MOL0     C60377   2.655   2.532   1.858  0.4633  0.5693  0.1693
  458MOL0     C60378   3.033   2.741   1.774 -0.4213  0.8797  0.2245
  458MOL0     C60379   3.101   2.760   1.652 -0.3155 -0.6231  0.0623
  458MOL0     C60380   3.242   2.776   1.650  0.3737  0.9708 -0.9225
  458MOL0     C60381   3.321   2.772   1.770  0.5865  0.0068 -0.3780
  458MOL0     O60382   3.454   2.782   1.790  0.4298  0.4681  0.2859
  458MOL0     C60383   3.550   2.803   1.685  1.1692  0.2399  0.6147
  458MOL0     C60384   3.597   2.945   1.657 -0.3769  0.8980 -0.3757
  458MOL0     C60385   3.640   3.006   1.792 -0.2869  0.0504  0.5426
  458MOL0     C60386   3.775   2.962   1.842  0.6508 -0.9194  0.6987
  458MOL0     C60387   3.778   2.969   1.986 -0.7430 -0.3921 -0.8338
  458MOL0     C60388   3.808   2.963   2.111  0.4911  0.1852  0.6538
  458MOL0     C60389   3.257   2.763   1.889 -0.0184 -0.2657  0.0005
  458MOL0     C60390   3.119   2.750   1.887 -0.4310  0.1752 -0.1705
  458MOL0     H60391   2.671   2.789   2.074 -1.3686  0.0064  1.7351
  458MOL0     H60392   2.444   2.705   2.138 -4.3065  0.8105 -2.8804
  458MOL0     H60393   2.280   2.567   2.194 -2.5142  1.4485 -3.7455
  458MOL0     H60394   2.403   2.437   2.201  0.0892  0.5930  0.0295
  458MOL0     H60395   2.222   2.326   2.282  3.2854 -3.1063 -0.7713
  458MOL0     H60396   2.222   2.286   2.111  0.5040  0.8895 -1.2716
  458MOL0     H60397   2.021   2.457   2.074 -1.8636  0.2897  0.5467
  458MOL0     H60398   2.046   2.512   2.240 -1.7494 -2.1505  2.0796
  458MOL0     H60399   1.976   2.229   2.157  0.8212  0.2368 -0.2411
  458MOL0     H60400   1.985   2.287   2.318 -0.7824 -5.2082 -1.3087
  458MOL0     H60401   1.758   2.266   2.268 -0.8785  2.6692  3.0291
  458MOL0     H60402   1.762   2.359   2.120  0.2365 -1.0485 -0.4429
  458MOL0     H60403   1.818   2.557   2.296 -0.8170  0.7530  1.3099
  458MOL0     H60404   1.787   2.439   2.423 -0.8837 -1.2812  0.4267
  458MOL0     H60405   1.594   2.596   2.322  0.2502  0.3210 -0.2615
  458MOL0     H60406   1.587   2.492   2.193 -2.1839 -0.0187  0.6253
  458MOL0     H60407   1.544   2.404   2.482  0.8320 -1.6130 -0.6872
  458MOL0     H60408   1.540   2.292   2.346  0.7866  0.0880  1.3721
  458MOL0     H60409   1.287   2.299   2.482 -0.5022 -1.9931 -1.7888
  458MOL0     H60410   0.984   2.541   2.428  0.0896  0.3387 -3.3264
  458MOL0     H60411   1.020   2.391   2.522 -0.0591 -1.3037 -0.4137
  458MOL0     H60412   0.812   2.390   2.384 -1.3178 -0.7046 -1.0494
  458MOL0     H60413   0.928   2.273   2.335  0.4135  0.4612  0.2962
  458MOL0     H60414   1.002   2.427   2.150  0.7383  1.4766  3.0228
  458MOL0     H60415   0.839   2.358   2.134 -1.8903  1.0341 -0.6824
  458MOL0     H60416   0.870   2.607   2.088  0.4618  1.4754  1.3754
  458MOL0     H60417   0.908   2.620   2.256 -0.0581 -3.6832  2.7210
  458MOL0     H60418   0.737   2.542   1.948  2.3230 -2.6838  3.8665
  458MOL0     H60419   0.547   2.510   1.787 -4.5961  1.3531 -0.5177
  458MOL0     H60420   0.177   2.297   1.640  0.8691  1.3381  1.9982
  458MOL0     H60421  -0.002   2.297   1.472 -2.5893  0.7956  0.0632
  458MOL0     H60422  -0.128   2.675   1.278  1.2660  0.8660  1.8651
  458MOL0     H60423  -0.215   2.691   1.424 -1.9062  2.6357 -1.3616
  458MOL0     H60424  -0.286   2.514   1.173  0.8169  0.2720  1.1569
  458MOL0     H60425  -0.357   2.673   1.207  0.3748  0.8100  0.1901
  458MOL0     H60426  -0.463   2.606   1.407 -3.2524 -0.7439 -2.9801
  458MOL0     H60427  -0.365   2.457   1.419  0.6875 -0.0546  0.4923
  458MOL0     H60428  -0.581   2.479   1.203 -1.4696 -1.5837  0.0842
  458MOL0     H60429  -0.457   2.350   1.235 -0.4243 -0.4744 -0.7631
  458MOL0     H60430  -0.658   2.452   1.423  2.3692  2.0187 -0.6834
  458MOL0     H60431  -0.543   2.316   1.453 -1.3507 -0.2216  1.3148
  458MOL0     H60432  -0.770   2.240   1.399 -0.0780  2.0418  1.1855
  458MOL0     H60433  -0.646   2.185   1.283  2.3092  1.3161 -0.5996
  458MOL0     H60434  -0.827   2.424   1.230 -3.6814 -1.0483  0.2512
  458MOL0     H60435  -0.728   2.331   1.116 -1.0207  1.0987  0.0177
  458MOL0     H60436  -0.886   2.138   1.173  2.0923  0.6499 -1.7289
  458MOL0     H60437  -0.953   2.271   1.093  3.2847  0.7135 -0.4958
  458MOL0     H60438  -0.015   2.726   1.478  3.0388  0.7786 -1.1025
  458MOL0     H60439   0.171   2.733   1.653  3.7310  0.0208 -1.2867
  458MOL0     H60440   0.278   2.504   2.130 -0.1253  0.8929  0.3782
  458MOL0     H60441   0.458   2.529   2.276  0.7909  0.2618  0.1296
  458MOL0     H60442   2.487   2.407   1.829 -0.0188  1.1224 -0.8066
  458MOL0     H60443   2.700   2.474   1.778  2.0701 -2.1280  2.8570
  458MOL0     H60444   3.058   2.762   1.552 -2.6265  1.5114  1.0127
  458MOL0     H60445   3.288   2.799   1.554  0.5285  2.4342 -0.5249
  458MOL0     H60446   3.515   2.778   1.584 -2.2227  0.4843  1.6038
  458MOL0     H60447   3.637   2.743   1.713  3.1557  2.0654 -1.3006
  458MOL0     H60448   3.683   2.940   1.590  0.9868 -2.4930  1.3470
  458MOL0     H60449   3.510   3.001   1.621 -2.3394 -1.8579 -0.2134
  458MOL0     H60450   3.564   2.991   1.869  1.4472 -0.3054  2.2668
  458MOL0     H60451   3.644   3.115   1.782 -0.9904  0.2509  2.1521
  458MOL0     H60452   3.789   2.855   1.823 -0.4586 -0.8616 -0.5779
  458MOL0     H60453   3.860   3.009   1.792  1.9315  1.5247  4.7217
  458MOL0     H60454   3.819   2.955   2.218 -0.4231 -0.6729  0.6977
  458MOL0     H60455   3.319   2.775   1.977 -0.4584 -0.0619  0.2883
  458MOL0     H60456   3.077   2.751   1.987  3.2964 -1.3831  1.5714
  459MOL0     O60457   3.572   0.117   6.191 -0.7104 -0.5635 -0.0249
  459MOL0     C60458   3.543   0.010   6.155  0.1643  1.1484  0.5252
  459MOL0     O60459   3.629  -0.092   6.130 -0.4434 -0.2193 -0.5016
  459MOL0     C60460   3.764  -0.067   6.163  0.0326 -0.5122  0.3652
  459MOL0     C60461   3.802  -0.046   6.301  0.7250  0.4209  0.8062
  459MOL0     C60462   3.927  -0.026   6.339  0.1192  0.1604  0.2382
  459MOL0     C60463   4.024  -0.026   6.244  0.2827 -0.1976  0.0076
  459MOL0     O60464   4.146   0.018   6.283 -0.4562  0.2339 -0.6880
  459MOL0     C60465   4.263  -0.061   6.239 -0.6170  0.3790  0.5884
  459MOL0     C60466   4.380  -0.017   6.320  0.1804  0.7817  0.4264
  459MOL0     C60467   4.513  -0.104   6.303  0.4691 -0.9216 -0.0962
  459MOL0     C60468   4.611  -0.081   6.415  0.2054  0.9611 -0.4270
  459MOL0     C60469   4.748  -0.144   6.395  1.2805  0.1454  0.1234
  459MOL0     C60470   4.840  -0.054   6.300  0.6279 -0.5899 -0.5546
  459MOL0     C60471   4.980  -0.104   6.308 -0.3650  0.1514  0.5422
  459MOL0     C60472   5.079  -0.017   6.225 -0.9464  0.2788  0.0562
  459MOL0     N60473   5.216  -0.063   6.242 -0.6731  0.4819  0.3430
  459MOL0     C60474   5.277  -0.144   6.150 -0.2830  0.4546  0.5543
  459MOL0     C60475   5.400  -0.169   6.197  0.0697  0.7587  0.3441
  459MOL0     C60476   5.500  -0.254   6.138 -0.2538 -0.5169  0.5271
  459MOL0     C60477   5.640  -0.189   6.122 -0.4753  0.8394  1.1656
  459MOL0     C60478   5.636  -0.092   5.999  0.6218  0.2837 -0.6572
  459MOL0     C60479   5.777  -0.059   5.952 -0.3926 -0.2530 -0.3607
  459MOL0     O60480   5.839   0.025   6.052 -0.2211  0.1195 -0.1295
  459MOL0     C60481   5.977   0.057   6.036  0.6068 -0.0573  0.7022
  459MOL0     C60482   6.036   0.120   6.136  0.5398  0.3039  0.3788
  459MOL0     C60483   6.168   0.163   6.130  0.5479  0.3361  0.4840
  459MOL0     C60484   6.255   0.126   6.027 -0.2613 -1.7989 -0.9062
  459MOL0     C60485   6.401   0.155   6.030  0.9422  0.2505 -0.1994
  459MOL0     O60486   6.469   0.107   5.922 -0.4409 -0.5327  0.6854
  459MOL0     C60487   6.607   0.108   5.921 -1.0596 -0.5832 -0.4267
  459MOL0     C60488   6.685   0.214   5.979 -0.3028  0.3993  0.5743
  459MOL0     C60489   6.823   0.210   5.974  0.1496 -0.5679 -0.1929
  459MOL0     C60490   6.887   0.105   5.900  0.2779  0.9113 -0.0560
  459MOL0     O60491   7.020   0.118   5.885 -0.4066 -0.1425 -0.3401
  459MOL0     C60492   7.088   0.005   5.825 -0.3109 -0.5897  0.4338
  459MOL0     C60493   7.243   0.014   5.838  0.3218  0.1104 -0.5387
  459MOL0     C60494   7.308  -0.126   5.829 -0.3671 -0.5927  0.0715
  459MOL0     C60495   7.462  -0.115   5.843  0.0149  0.4173 -0.2185
  459MOL0     C60496   7.541  -0.244   5.787  0.2117 -0.1566  0.0464
  459MOL0     C60497   7.683  -0.247   5.829  0.1717  0.1377 -0.7410
  459MOL0     C60498   7.749  -0.378   5.775 -0.0109 -0.6059 -0.6285
  459MOL0     C60499   7.890  -0.402   5.813  0.3864 -0.3601 -0.5062
  459MOL0    Cl60500   7.938  -0.570   5.755  0.1371 -0.5782 -0.2090
  459MOL0     C60501   6.812  -0.005   5.847 -1.1762 -0.6817 -0.0692
  459MOL0     C60502   6.673   0.002   5.867  0.0388 -0.3473 -0.0771
  459MOL0     O60503   6.444   0.208   6.132  0.2647  0.1883 -0.8005
  459MOL0     C60504   6.184   0.076   5.913 -0.8637 -0.7524 -0.3083
  459MOL0     C60505   6.048   0.051   5.920  0.3930 -0.0673  0.5616
  459MOL0     N60506   5.421  -0.090   6.310 -0.2324  0.3793  0.5097
  459MOL0     N60507   5.306  -0.028   6.338  0.1322  0.0906 -0.0968
  459MOL0     C60508   3.992  -0.047   6.111 -0.7492  0.0882  0.0622
  459MOL0     C60509   3.858  -0.071   6.068 -0.3197 -0.7674 -1.5859
  459MOL0     C60510   3.400  -0.021   6.121  0.5129  0.4952  0.4645
  459MOL0     C60511   3.369  -0.144   6.052 -0.0898 -0.1082  0.0273
  459MOL0     C60512   3.242  -0.174   6.017  0.1938  0.6114  0.5407
  459MOL0     C60513   3.133  -0.088   6.052 -1.1738  0.1360  0.4830
  459MOL0     O60514   3.006  -0.126   6.020 -0.3844 -0.3302  0.2996
  459MOL0     C60515   2.975  -0.252   5.952 -0.7557 -0.9155 -1.5877
  459MOL0     C60516   2.830  -0.266   5.918 -0.2726 -0.6613 -0.4370
  459MOL0     C60517   2.791  -0.412   5.921 -0.5054  0.7881  0.0592
  459MOL0     C60518   2.684  -0.434   5.811  0.0452  0.0325  0.5731
  459MOL0     C60519   2.636  -0.576   5.810 -0.0498  0.4708 -0.1409
  459MOL0     C60520   2.588  -0.683   5.786 -0.3946  0.4248 -0.0102
  459MOL0     C60521   3.159   0.040   6.109  0.5718 -0.3300  0.4632
  459MOL0     C60522   3.292   0.065   6.152  0.0063 -0.2725 -0.6779
  459MOL0     H60523   3.724  -0.030   6.375 -2.4422 -0.4059 -2.0735
  459MOL0     H60524   3.951  -0.014   6.444 -1.6937 -1.0804  0.8498
  459MOL0     H60525   4.292  -0.043   6.135 -0.9089 -0.6713  0.3090
  459MOL0     H60526   4.238  -0.168   6.246 -1.3683  0.2587 -2.4200
  459MOL0     H60527   4.358  -0.022   6.427  1.5557 -1.1157  0.6679
  459MOL0     H60528   4.407   0.081   6.278 -4.4070  2.0786  0.0094
  459MOL0     H60529   4.565  -0.073   6.211 -2.0253  2.8381 -0.4833
  459MOL0     H60530   4.484  -0.209   6.292 -2.7187 -0.0785 -0.8834
  459MOL0     H60531   4.633   0.024   6.436  2.2763  1.0276 -2.5985
  459MOL0     H60532   4.555  -0.118   6.502 -0.0110 -0.3045 -1.0770
  459MOL0     H60533   4.741  -0.247   6.359 -3.5833  1.1027 -2.4517
  459MOL0     H60534   4.789  -0.145   6.497  1.0680 -1.5214  0.2232
  459MOL0     H60535   4.830   0.051   6.327  1.4680 -0.4502 -0.7558
  459MOL0     H60536   4.803  -0.067   6.198  1.8658 -0.1071 -1.0914
  459MOL0     H60537   5.010  -0.101   6.413 -2.8444  2.9631  1.3037
  459MOL0     H60538   4.972  -0.207   6.272 -1.9096  0.8187 -1.1949
  459MOL0     H60539   5.068   0.089   6.251 -2.7803  1.1344 -3.5445
  459MOL0     H60540   5.054  -0.034   6.120 -0.1551 -1.8125  0.1641
  459MOL0     H60541   5.229  -0.179   6.060 -0.1916  2.7093 -0.4364
  459MOL0     H60542   5.458  -0.287   6.043  1.1057  0.2753 -0.3867
  459MOL0     H60543   5.515  -0.340   6.203  2.1402 -0.1988  0.4793
  459MOL0     H60544   5.711  -0.271   6.104 -2.9597 -1.7355  2.3156
  459MOL0     H60545   5.667  -0.142   6.217  0.6319  1.2813  0.6529
  459MOL0     H60546   5.597  -0.149   5.915  1.3812 -1.2483 -0.0131
  459MOL0     H60547   5.575  -0.005   6.027 -2.3755 -2.0990  0.7355
  459MOL0     H60548   5.769   0.006   5.864 -3.1712 -0.4330 -0.3329
  459MOL0     H60549   5.833  -0.153   5.944 -1.5236 -0.9393 -0.3922
  459MOL0     H60550   5.974   0.145   6.221  1.4860  0.7342  0.9567
  459MOL0     H60551   6.207   0.223   6.212  0.5362 -0.2568  0.9326
  459MOL0     H60552   6.627   0.292   6.027 -1.8419  0.7602 -1.7597
  459MOL0     H60553   6.878   0.298   6.007 -1.7262  1.6262 -2.5304
  459MOL0     H60554   7.053  -0.009   5.722 -2.0591  3.3479  0.3145
  459MOL0     H60555   7.043  -0.073   5.888 -3.2345  1.8446  1.6060
  459MOL0     H60556   7.263   0.052   5.939  3.9053 -1.8028 -0.3529
  459MOL0     H60557   7.289   0.091   5.775  1.7110  0.4413  0.7868
  459MOL0     H60558   7.291  -0.156   5.725 -1.4095 -0.8773  0.3107
  459MOL0     H60559   7.269  -0.203   5.896  3.0215 -0.0704  2.9222
  459MOL0     H60560   7.500  -0.028   5.789  0.2157 -0.2138 -1.1118
  459MOL0     H60561   7.482  -0.111   5.951  2.5594  2.3039 -0.6699
  459MOL0     H60562   7.530  -0.231   5.679  1.5214  2.4418  0.1487
  459MOL0     H60563   7.489  -0.331   5.830 -2.7414  1.5560  0.2382
  459MOL0     H60564   7.690  -0.240   5.938 -1.2807 -3.6589 -0.2419
  459MOL0     H60565   7.737  -0.160   5.791  0.1623  2.5508  4.0157
  459MOL0     H60566   7.698  -0.462   5.824 -0.0247 -0.8978 -1.1424
  459MOL0     H60567   7.731  -0.390   5.668  0.4628  1.5549 -0.9976
  459MOL0     H60568   7.892  -0.382   5.920  4.2872  1.6436 -0.7903
  459MOL0     H60569   7.950  -0.329   5.757  1.1872 -1.2612 -0.8472
  459MOL0     H60570   6.860  -0.082   5.788 -0.0387 -0.5719  0.6744
  459MOL0     H60571   6.622  -0.089   5.837  0.3561 -0.3046 -0.7550
  459MOL0     H60572   6.235   0.081   5.817 -1.8776 -0.7560 -0.8610
  459MOL0     H60573   6.000   0.007   5.833  0.4522 -1.0106  1.0006
  459MOL0     H60574   4.072  -0.051   6.038 -0.9049 -0.2191 -0.0964
  459MOL0     H60575   3.841  -0.094   5.963 -0.4656 -1.7751 -1.3464
  459MOL0     H60576   3.443  -0.218   6.024 -0.3954 -0.2308 -0.4692
  459MOL0     H60577   3.227  -0.262   5.956  0.1313  1.6722 -1.0384
  459MOL0     H60578   3.000  -0.334   6.020  1.1064 -1.5890 -3.0291
  459MOL0     H60579   3.041  -0.268   5.867  2.7558 -2.2059  1.1188
  459MOL0     H60580   2.763  -0.213   5.986  1.4042 -1.0576  1.6550
  459MOL0     H60581   2.817  -0.223   5.819 -1.1170  2.5285  0.9205
  459MOL0     H60582   2.755  -0.457   6.015 -3.8743 -0.3663 -1.6241
  459MOL0     H60583   2.876  -0.472   5.887 -0.6455  0.1746  0.7630
  459MOL0     H60584   2.601  -0.367   5.832  1.6442  1.4154  3.0532
  459MOL0     H60585   2.729  -0.407   5.716 -1.9130 -1.4366 -0.8617
  459MOL0     H60586   2.548  -0.781   5.767  2.2385 -0.4173 -1.6954
  459MOL0     H60587   3.074   0.104   6.130  2.1758  1.4179  2.0147
  459MOL0     H60588   3.303   0.157   6.209 -0.1717 -0.1953 -0.7673
  460MOL0     O60589   2.759   0.175   4.268  0.9993  0.0335 -0.8074
  460MOL0     C60590   2.681   0.151   4.175  0.5644 -0.2767 -0.2369
  460MOL0     O60591   2.721   0.133   4.043  0.3968 -0.3859  0.2805
  460MOL0     C60592   2.855   0.149   4.007 -0.1262  0.4203  0.0131
  460MOL0     C60593   2.957   0.072   4.072  0.6699  0.5981  0.5041
  460MOL0     C60594   3.090   0.072   4.025 -1.0184 -0.1358 -0.1341
  460MOL0     C60595   3.121   0.160   3.915 -0.0831  0.5183  0.9041
  460MOL0     O60596   3.249   0.158   3.847  0.6831 -0.6628 -0.2053
  460MOL0     C60597   3.291   0.034   3.786 -0.0025 -0.4591 -0.7029
  460MOL0     C60598   3.416   0.033   3.703 -0.2814  0.3288  0.5955
  460MOL0     C60599   3.539   0.084   3.769  0.5952 -0.6003  0.4601
  460MOL0     C60600   3.597  -0.022   3.859  0.6195 -0.7837  0.0021
  460MOL0     C60601   3.703   0.024   3.951 -0.4215 -0.8838  0.0584
  460MOL0     C60602   3.814   0.108   3.884  0.2236 -0.2638 -0.5964
  460MOL0     C60603   3.907   0.164   3.993  0.3170 -0.3045 -0.3855
  460MOL0     C60604   3.880   0.307   4.047  0.7703  0.3962  0.0639
  460MOL0     N60605   3.991   0.347   4.140  0.1614 -0.6997 -0.2157
  460MOL0     C60606   4.126   0.349   4.106 -1.4899 -1.0976 -0.0636
  460MOL0     C60607   4.181   0.384   4.224 -1.1498  0.3094  0.2519
  460MOL0     C60608   4.334   0.405   4.251  0.4299  0.3770 -0.2449
  460MOL0     C60609   4.420   0.311   4.167 -0.0127  0.5502 -1.4966
  460MOL0     C60610   4.405   0.163   4.205  0.3214 -0.5161 -0.2017
  460MOL0     C60611   4.352   0.095   4.076 -0.2016  0.2239 -0.1873
  460MOL0     O60612   4.338  -0.050   4.093  0.8221 -0.7506 -0.2900
  460MOL0     C60613   4.243  -0.113   4.173  0.4737 -0.3108 -0.1260
  460MOL0     C60614   4.253  -0.247   4.187  0.4784 -0.0135  0.2619
  460MOL0     C60615   4.162  -0.309   4.272  0.4586 -0.1575 -0.0799
  460MOL0     C60616   4.063  -0.236   4.339  1.3115 -0.8931  0.0926
  460MOL0     C60617   3.967  -0.297   4.419  0.1353  0.6949 -0.5323
  460MOL0     O60618   3.871  -0.215   4.484 -0.2864  0.3442  0.4294
  460MOL0     C60619   3.760  -0.266   4.545  0.4365  0.0168  0.6056
  460MOL0     C60620   3.706  -0.191   4.641 -0.2346 -0.0033  0.6474
  460MOL0     C60621   3.586  -0.229   4.703  0.0785 -0.2206 -0.1360
  460MOL0     C60622   3.513  -0.345   4.673 -0.3368  0.5046 -0.0759
  460MOL0     O60623   3.394  -0.386   4.732 -0.0875 -0.5235 -0.1077
  460MOL0     C60624   3.368  -0.363   4.861 -0.8643  0.3267  0.5818
  460MOL0     C60625   3.228  -0.413   4.884  0.4210  0.1932  0.2732
  460MOL0     C60626   3.118  -0.345   4.792  0.8850 -0.4147  0.3340
  460MOL0     C60627   2.975  -0.388   4.823 -0.2256 -0.3488  0.7765
  460MOL0     C60628   2.924  -0.307   4.944 -0.0096 -0.5524 -0.0562
  460MOL0     C60629   2.781  -0.364   4.960 -0.2286 -0.1278 -0.4821
  460MOL0     C60630   2.705  -0.295   5.079 -0.2081  0.3406  0.3217
  460MOL0     C60631   2.563  -0.342   5.068  0.4230  0.1703 -0.7414
  460MOL0    Cl60632   2.475  -0.272   5.194 -0.0169 -0.0098 -0.0625
  460MOL0     C60633   3.570  -0.422   4.571  0.0778  0.0053  0.2410
  460MOL0     C60634   3.690  -0.383   4.510 -0.2026  0.1379 -0.0640
  460MOL0     O60635   3.968  -0.418   4.434 -0.1828  0.2431  0.4074
  460MOL0     C60636   4.051  -0.092   4.315 -0.4026 -1.3015 -0.5394
  460MOL0     C60637   4.147  -0.030   4.236 -0.2631 -0.4194 -0.1180
  460MOL0     N60638   4.091   0.390   4.327  0.1463 -0.3577  0.3574
  460MOL0     N60639   3.970   0.384   4.271  0.0587  0.3006  0.1425
  460MOL0     C60640   3.022   0.229   3.851 -0.9682 -0.7456  0.0971
  460MOL0     C60641   2.889   0.229   3.893  0.6006 -1.0838  0.2576
  460MOL0     C60642   2.536   0.137   4.207  0.6046 -0.5744  0.1132
  460MOL0     C60643   2.484   0.184   4.331 -0.8430 -0.4538  1.1623
  460MOL0     C60644   2.349   0.189   4.368 -0.6401  0.0405 -0.0816
  460MOL0     C60645   2.255   0.123   4.281 -0.1627 -0.6950 -0.1580
  460MOL0     O60646   2.117   0.109   4.310 -0.2978  0.8265  0.7171
  460MOL0     C60647   2.054   0.175   4.424  0.4553  0.8708  0.2762
  460MOL0     C60648   2.009   0.321   4.377  0.1443  0.4204 -0.5063
  460MOL0     C60649   1.981   0.429   4.477 -0.4184  0.5279  0.1504
  460MOL0     C60650   1.836   0.452   4.524  0.3116 -0.6236  0.1629
  460MOL0     C60651   1.790   0.324   4.579 -0.2724 -0.5679 -0.1229
  460MOL0     C60652   1.768   0.221   4.629 -0.0703 -0.4055 -0.4365
  460MOL0     C60653   2.306   0.091   4.155 -0.0190 -0.6196  0.1572
  460MOL0     C60654   2.434   0.099   4.118  0.4195  1.2961  0.4200
  460MOL0     H60655   2.921   0.018   4.159 -1.6672  0.3131 -0.5614
  460MOL0     H60656   3.170   0.033   4.087 -1.1382 -0.7132 -0.3371
  460MOL0     H60657   3.216   0.009   3.710  0.6400 -0.0933 -1.4702
  460MOL0     H60658   3.299  -0.040   3.865  0.0188  0.0799 -0.1882
  460MOL0     H60659   3.394   0.086   3.609 -0.1233  0.0304  0.3883
  460MOL0     H60660   3.436  -0.064   3.657  2.0413  1.3047 -0.6440
  460MOL0     H60661   3.517   0.181   3.815 -0.2258  1.0670 -3.1530
  460MOL0     H60662   3.618   0.094   3.694  0.5770  1.8381  0.6856
  460MOL0     H60663   3.511  -0.063   3.913  0.0364  0.4369  0.0275
  460MOL0     H60664   3.644  -0.100   3.798  1.8075  0.0070 -0.1245
  460MOL0     H60665   3.749  -0.061   4.002  0.2417 -0.0147  0.9606
  460MOL0     H60666   3.657   0.078   4.034 -0.7719 -0.2526 -0.5328
  460MOL0     H60667   3.767   0.187   3.825 -1.0868 -0.4064  0.2143
  460MOL0     H60668   3.874   0.042   3.821 -1.7795 -3.9492  1.0363
  460MOL0     H60669   3.897   0.094   4.077 -2.9238 -1.6995 -1.7434
  460MOL0     H60670   4.010   0.164   3.957  0.9877 -1.9840  1.3723
  460MOL0     H60671   3.786   0.312   4.103 -0.0348  1.5514 -1.3052
  460MOL0     H60672   3.870   0.370   3.958  3.5233 -0.8433 -1.2509
  460MOL0     H60673   4.180   0.332   4.013  0.8002 -0.9266  1.1668
  460MOL0     H60674   4.342   0.385   4.358  0.3477 -2.7119 -0.7368
  460MOL0     H60675   4.358   0.510   4.231 -2.6184  1.5373  1.4038
  460MOL0     H60676   4.524   0.335   4.192  0.5145 -4.0287  2.0545
  460MOL0     H60677   4.416   0.330   4.059 -1.4969  0.9735 -1.3858
  460MOL0     H60678   4.499   0.121   4.242 -1.0600 -1.9020  1.9555
  460MOL0     H60679   4.345   0.158   4.296 -0.9944  1.9826 -0.8485
  460MOL0     H60680   4.431   0.094   4.000 -0.8174  0.3541 -0.8433
  460MOL0     H60681   4.256   0.138   4.047 -1.0805  0.3638  2.6950
  460MOL0     H60682   4.337  -0.291   4.134 -1.3577 -0.9713 -1.9925
  460MOL0     H60683   4.152  -0.416   4.287 -0.6345  0.2191  2.3444
  460MOL0     H60684   3.762  -0.100   4.658  0.6427  0.0976 -2.2338
  460MOL0     H60685   3.554  -0.159   4.779  0.6444  1.7246 -1.6108
  460MOL0     H60686   3.381  -0.257   4.883 -1.1385  0.5444 -0.2822
  460MOL0     H60687   3.443  -0.411   4.924 -1.2841 -0.6415  0.3637
  460MOL0     H60688   3.206  -0.406   4.991 -0.9500 -1.2498  0.1151
  460MOL0     H60689   3.226  -0.520   4.860 -1.4576  0.8433 -3.1396
  460MOL0     H60690   3.150  -0.373   4.692  0.8512 -2.4521  0.8619
  460MOL0     H60691   3.115  -0.236   4.801 -0.2496 -0.2316 -1.7418
  460MOL0     H60692   2.912  -0.377   4.735 -1.2219 -1.1361  1.3684
  460MOL0     H60693   2.973  -0.495   4.842 -1.9180 -0.8576 -1.7677
  460MOL0     H60694   2.925  -0.200   4.922 -0.4312  0.1211  2.7937
  460MOL0     H60695   2.979  -0.322   5.038 -0.6970  1.2963  0.6766
  460MOL0     H60696   2.785  -0.470   4.986 -0.7173 -0.3772 -1.4072
  460MOL0     H60697   2.723  -0.341   4.871  1.8147  1.2911 -1.5343
  460MOL0     H60698   2.756  -0.322   5.171 -2.0119 -1.0762  0.9749
  460MOL0     H60699   2.713  -0.186   5.081 -2.2551  0.5896 -1.1489
  460MOL0     H60700   2.570  -0.451   5.080  1.2805  0.2831 -0.1171
  460MOL0     H60701   2.504  -0.317   4.979  0.1102  1.8225 -0.0848
  460MOL0     H60702   3.522  -0.515   4.542  0.0063  1.2735 -4.5683
  460MOL0     H60703   3.731  -0.454   4.438  1.2736  0.4083  0.4793
  460MOL0     H60704   3.983  -0.019   4.358  1.6330 -0.2031  0.9917
  460MOL0     H60705   4.149   0.078   4.233  0.0797 -0.4262 -0.1213
  460MOL0     H60706   3.058   0.279   3.761  1.6092 -2.3182  0.1715
  460MOL0     H60707   2.822   0.293   3.835 -0.9385 -2.0762  0.8802
  460MOL0     H60708   2.554   0.230   4.401 -0.5573  2.6712 -0.9598
  460MOL0     H60709   2.316   0.232   4.462 -1.4432  0.7308 -0.6558
  460MOL0     H60710   2.128   0.186   4.503  0.3167 -1.7616  0.8570
  460MOL0     H60711   1.964   0.132   4.469  1.9228 -1.5180  1.0978
  460MOL0     H60712   2.095   0.356   4.320  1.7933 -3.2948 -0.5933
  460MOL0     H60713   1.922   0.316   4.310 -0.5395 -1.4421  0.4648
  460MOL0     H60714   2.024   0.520   4.436  0.9053 -0.6601 -1.2171
  460MOL0     H60715   2.041   0.403   4.565 -0.6342 -0.0603  0.1313
  460MOL0     H60716   1.836   0.534   4.597  0.8582  2.6188 -3.1737
  460MOL0     H60717   1.771   0.494   4.446  1.8294 -0.0675 -0.8496
  460MOL0     H60718   1.750   0.123   4.668  0.3762 -0.2163  0.2576
  460MOL0     H60719   2.238   0.064   4.075  0.0774  3.7210 -1.6483
  460MOL0     H60720   2.476   0.076   4.021 -3.5073 -1.4622 -0.8889
  461MOL0     O60721   4.692   8.696   2.593 -0.7112  0.3846 -0.4406
  461MOL0     C60722   4.794   8.627   2.616 -0.1329  0.3621  0.6114
  461MOL0     O60723   4.801   8.524   2.705 -0.0280 -0.1168 -0.1065
  461MOL0     C60724   4.706   8.494   2.796 -0.4328  0.0571 -1.4902
  461MOL0     C60725   4.598   8.571   2.833  0.4475 -0.9880 -0.0608
  461MOL0     C60726   4.515   8.525   2.937 -0.4714  0.9110  0.7959
  461MOL0     C60727   4.548   8.409   3.007 -0.0333 -0.5341  0.8487
  461MOL0     O60728   4.466   8.374   3.104  0.4406 -0.0797  0.2478
  461MOL0     C60729   4.515   8.314   3.222  0.6307 -0.4938 -1.1539
  461MOL0     C60730   4.404   8.290   3.326 -0.6745  0.1775 -0.1705
  461MOL0     C60731   4.292   8.199   3.273 -0.0745  0.4432 -0.4045
  461MOL0     C60732   4.320   8.057   3.230  1.0272 -1.0006  0.9895
  461MOL0     C60733   4.195   7.984   3.193  0.2112  0.7949 -1.2260
  461MOL0     C60734   4.152   8.010   3.054  0.0590 -1.0038 -0.1766
  461MOL0     C60735   4.008   7.957   3.025  0.3817  0.8319  1.4089
  461MOL0     C60736   3.955   7.989   2.875 -0.4055  0.6953  0.0373
  461MOL0     N60737   3.812   7.972   2.872  0.3735  0.3173 -0.0875
  461MOL0     C60738   3.746   7.848   2.885 -0.4755 -0.3307  0.5210
  461MOL0     C60739   3.621   7.875   2.845  0.0895 -0.5493  0.2433
  461MOL0     C60740   3.494   7.786   2.842  0.0653 -0.1735  0.3720
  461MOL0     C60741   3.519   7.630   2.853 -0.5025 -0.2148  0.3410
  461MOL0     C60742   3.404   7.539   2.840  0.0885  0.2582 -0.0037
  461MOL0     C60743   3.438   7.396   2.874 -0.3608 -0.0265 -0.3956
  461MOL0     O60744   3.424   7.371   3.018  0.6287  0.3538  0.2993
  461MOL0     C60745   3.294   7.330   3.046  0.0462  0.0277  0.1262
  461MOL0     C60746   3.285   7.286   3.177 -1.1110 -0.0911 -0.9069
  461MOL0     C60747   3.173   7.218   3.228 -0.2818 -0.3936  0.1355
  461MOL0     C60748   3.065   7.191   3.143 -0.8155 -0.5464  0.1350
  461MOL0     C60749   2.942   7.125   3.179  0.8748  0.3734 -0.0406
  461MOL0     O60750   2.930   7.077   3.309 -0.2000 -0.5132  0.0979
  461MOL0     C60751   2.801   7.035   3.340 -0.0443  0.2547 -0.0841
  461MOL0     C60752   2.697   7.127   3.359 -0.4223  0.0448  0.3967
  461MOL0     C60753   2.570   7.084   3.394 -0.2325 -0.3241  0.6310
  461MOL0     C60754   2.537   6.953   3.411  0.2782 -0.3996 -0.8078
  461MOL0     O60755   2.404   6.919   3.457  0.8734 -1.0346 -0.3470
  461MOL0     C60756   2.379   6.786   3.508  0.5125  0.5517  0.6988
  461MOL0     C60757   2.250   6.764   3.598  0.6354 -0.6793 -0.1417
  461MOL0     C60758   2.121   6.786   3.524 -0.1758  0.5272 -0.1456
  461MOL0     C60759   2.002   6.746   3.610 -0.1834 -0.1757  0.3956
  461MOL0     C60760   1.876   6.773   3.539 -0.9376 -0.1002 -0.7697
  461MOL0     C60761   1.849   6.921   3.488  0.4493  0.0036 -0.7458
  461MOL0     C60762   1.704   6.961   3.451  0.2081 -0.4867 -1.0288
  461MOL0     C60763   1.619   7.010   3.572 -0.4390 -0.1345  0.6520
  461MOL0    Cl60764   1.442   7.021   3.530  0.0424 -0.0920  0.3529
  461MOL0     C60765   2.644   6.856   3.395  0.7088 -0.4042 -0.1357
  461MOL0     C60766   2.773   6.901   3.361  0.2057 -0.1640 -0.1189
  461MOL0     O60767   2.860   7.089   3.099 -0.3053 -0.1528  0.7361
  461MOL0     C60768   3.076   7.248   3.016 -0.2756  0.8680  0.6198
  461MOL0     C60769   3.185   7.317   2.962 -0.6831  0.0640 -0.6470
  461MOL0     N60770   3.607   8.013   2.823 -0.4962 -0.1975 -0.6283
  461MOL0     N60771   3.722   8.074   2.848  0.1879  0.8800 -0.1122
  461MOL0     C60772   4.664   8.339   2.975  0.0631  0.3344 -0.1672
  461MOL0     C60773   4.743   8.374   2.866 -0.9390 -0.4416 -0.2931
  461MOL0     C60774   4.919   8.661   2.553  0.3191 -0.0687  0.0781
  461MOL0     C60775   4.933   8.774   2.466 -0.2719 -1.3426 -0.1295
  461MOL0     C60776   5.057   8.811   2.402  0.3376  0.8379 -0.6128
  461MOL0     C60777   5.167   8.734   2.420  0.0108 -0.7976 -0.1593
  461MOL0     O60778   5.291   8.765   2.388 -1.5320 -0.4761  0.0796
  461MOL0     C60779   5.369   8.848   2.477 -0.5863  0.9802  0.3392
  461MOL0     C60780   5.523   8.837   2.442  0.1973 -0.7683  0.8173
  461MOL0     C60781   5.549   8.849   2.291 -0.4078  0.2608  0.3067
  461MOL0     C60782   5.698   8.863   2.254 -0.0585 -0.2430  0.5963
  461MOL0     C60783   5.703   8.886   2.113 -0.0334 -0.3980 -0.0155
  461MOL0     C60784   5.706   8.892   1.995  0.5626 -0.7859 -0.9964
  461MOL0     C60785   5.154   8.618   2.493 -0.2712 -0.5334 -0.1174
  461MOL0     C60786   5.038   8.584   2.561  0.1466  0.4538  0.1482
  461MOL0     H60787   4.588   8.676   2.809 -1.9182 -0.9754  0.6924
  461MOL0     H60788   4.436   8.593   2.967 -2.0986 -0.5418 -0.0040
  461MOL0     H60789   4.591   8.379   3.266  1.1338 -1.9898  0.2713
  461MOL0     H60790   4.571   8.228   3.184  0.2251 -0.1933 -2.4799
  461MOL0     H60791   4.365   8.392   3.336 -1.2284  0.0583 -0.9439
  461MOL0     H60792   4.437   8.260   3.425 -2.7389  0.0809  0.5399
  461MOL0     H60793   4.249   8.242   3.182  2.3713  0.4225 -1.6776
  461MOL0     H60794   4.230   8.190   3.363  0.7371 -0.6645  0.0748
  461MOL0     H60795   4.396   8.053   3.152 -0.0876  1.0007 -0.2774
  461MOL0     H60796   4.370   8.016   3.318  0.0612 -1.7187  1.2229
  461MOL0     H60797   4.119   8.005   3.269  0.0564 -2.5813 -0.2961
  461MOL0     H60798   4.214   7.876   3.197  0.4583  0.8435 -1.0125
  461MOL0     H60799   4.227   7.966   2.987  0.1534  0.2525 -0.9185
  461MOL0     H60800   4.135   8.116   3.037  0.0845 -0.9814 -0.0659
  461MOL0     H60801   3.997   7.848   3.032 -0.9605  0.7613 -0.7690
  461MOL0     H60802   3.941   8.007   3.095  0.5709 -1.3987  3.3127
  461MOL0     H60803   4.009   7.921   2.810 -1.4758 -0.8361  0.6838
  461MOL0     H60804   3.985   8.091   2.850 -0.0145  0.8877  1.1964
  461MOL0     H60805   3.790   7.755   2.919 -0.1228 -1.0943 -1.9067
  461MOL0     H60806   3.452   7.807   2.743 -0.6869  1.2872  0.9661
  461MOL0     H60807   3.420   7.810   2.919  0.0040 -1.7705  0.8614
  461MOL0     H60808   3.573   7.610   2.946 -0.4262 -1.0208  0.1316
  461MOL0     H60809   3.591   7.603   2.775  0.4517 -0.9257  1.4325
  461MOL0     H60810   3.330   7.583   2.908  1.9861 -0.7390  2.9023
  461MOL0     H60811   3.382   7.542   2.733  1.6166 -2.8713 -0.5098
  461MOL0     H60812   3.545   7.381   2.860  0.4228 -2.4964  5.4086
  461MOL0     H60813   3.381   7.325   2.813 -1.0566  1.5884 -1.7295
  461MOL0     H60814   3.371   7.286   3.243  0.0884 -3.5048 -2.2440
  461MOL0     H60815   3.165   7.174   3.327 -1.9400 -0.2568  0.1002
  461MOL0     H60816   2.708   7.234   3.345 -1.3315  0.2372  1.0648
  461MOL0     H60817   2.486   7.151   3.412 -2.2414 -2.7400  0.9701
  461MOL0     H60818   2.461   6.770   3.578  0.6652  1.7950  0.8227
  461MOL0     H60819   2.381   6.714   3.426 -2.7468 -0.6032  1.4827
  461MOL0     H60820   2.253   6.820   3.693  1.9226 -3.5285  1.6245
  461MOL0     H60821   2.248   6.659   3.629  0.4403 -1.1863 -1.7980
  461MOL0     H60822   2.129   6.725   3.433  0.1275 -0.2735  0.4019
  461MOL0     H60823   2.122   6.893   3.503  2.7360  0.1498 -2.7161
  461MOL0     H60824   2.014   6.640   3.631  1.9421 -0.1155 -0.3038
  461MOL0     H60825   2.008   6.800   3.705  0.2017  0.9611 -0.2491
  461MOL0     H60826   1.796   6.740   3.606 -1.0408  0.7269 -0.4731
  461MOL0     H60827   1.875   6.712   3.448  2.2076 -1.1644 -0.1973
  461MOL0     H60828   1.906   6.938   3.397 -2.2668 -2.8151 -3.1856
  461MOL0     H60829   1.886   6.995   3.560  1.5694 -0.1355 -1.1631
  461MOL0     H60830   1.699   7.041   3.377 -0.7850 -0.7819 -1.3048
  461MOL0     H60831   1.650   6.876   3.409  1.9808 -0.8051 -2.8217
  461MOL0     H60832   1.660   7.104   3.610  0.6888  0.3374 -1.5470
  461MOL0     H60833   1.630   6.945   3.659  0.6426 -0.4051  0.3267
  461MOL0     H60834   2.631   6.755   3.431 -0.5993  0.0585  0.7422
  461MOL0     H60835   2.859   6.836   3.351 -2.1883 -3.5526 -0.4672
  461MOL0     H60836   2.997   7.244   2.942 -1.1756  1.3060  1.5191
  461MOL0     H60837   3.184   7.333   2.855 -1.7422 -2.6615 -1.1216
  461MOL0     H60838   4.705   8.251   3.023 -0.4104 -0.9655 -2.0322
  461MOL0     H60839   4.830   8.312   2.845 -0.5158 -1.5903  3.8343
  461MOL0     H60840   4.841   8.827   2.444  1.0029  1.0420  0.0508
  461MOL0     H60841   5.056   8.904   2.346 -3.6034  2.2390  1.4110
  461MOL0     H60842   5.356   8.814   2.580  1.5084 -0.0309  0.3291
  461MOL0     H60843   5.341   8.954   2.476  0.5308  1.2857 -0.5215
  461MOL0     H60844   5.553   8.934   2.483 -0.3079 -0.5600  0.7024
  461MOL0     H60845   5.578   8.755   2.489  3.2326  0.2084 -0.7650
  461MOL0     H60846   5.497   8.940   2.261 -0.0091  1.3088  2.6379
  461MOL0     H60847   5.503   8.765   2.238 -2.3994  1.8043 -0.5020
  461MOL0     H60848   5.737   8.950   2.308 -1.8495  0.4237  0.9065
  461MOL0     H60849   5.749   8.770   2.279 -2.1848 -1.5043  0.5278
  461MOL0     H60850   5.701   8.899   1.888 -1.7450  0.4598 -0.8823
  461MOL0     H60851   5.242   8.555   2.488 -1.4473 -2.1485 -1.8404
  461MOL0     H60852   5.033   8.492   2.618 -0.7096  0.0312 -0.5876
  462MOL0     O60853  10.499   2.921  10.778  0.1645 -0.4056  0.1695
  462MOL0     C60854  10.529   3.038  10.790 -0.0711 -0.1733 -0.4049
  462MOL0     O60855  10.442   3.149  10.784  0.8644 -0.6357 -0.0789
  462MOL0     C60856  10.304   3.143  10.779 -0.6055 -0.0551  0.2151
  462MOL0     C60857  10.215   3.034  10.778  0.5864 -0.4015  0.2271
  462MOL0     C60858  10.075   3.049  10.756 -0.0005 -0.0559  0.0369
  462MOL0     C60859  10.025   3.184  10.747 -0.4998 -0.0205 -0.0961
  462MOL0     O60860   9.897   3.215  10.712  0.2410 -0.0745  0.0223
  462MOL0     C60861   9.825   3.127  10.635 -0.4590 -0.1635  0.4466
  462MOL0     C60862   9.740   3.200  10.529 -0.1855  0.2239 -0.2512
  462MOL0     C60863   9.659   3.312  10.600  0.3925 -0.0739 -0.1372
  462MOL0     C60864   9.570   3.387  10.509  0.3506 -0.2042  0.0130
  462MOL0     C60865   9.509   3.512  10.574 -0.0175 -0.7319  0.0331
  462MOL0     C60866   9.413   3.571  10.460 -0.0011 -0.3045  0.1207
  462MOL0     C60867   9.343   3.692  10.520 -0.2497 -0.3432  0.0848
  462MOL0     C60868   9.222   3.718  10.431  1.0536  0.4540 -0.0961
  462MOL0     N60869   9.123   3.796  10.505  0.3008  0.0749  0.3357
  462MOL0     C60870   9.029   3.757  10.598  0.6702  0.1961 -0.0151
  462MOL0     C60871   8.963   3.869  10.638 -1.0079 -0.3832 -0.0597
  462MOL0     C60872   8.851   3.883  10.740  0.2113  0.3734  0.2549
  462MOL0     C60873   8.733   3.781  10.728 -0.0835 -0.2716 -0.1939
  462MOL0     C60874   8.665   3.746  10.859  0.3567  0.1536 -0.6096
  462MOL0     C60875   8.604   3.873  10.921  0.0770  0.3666 -0.2604
  462MOL0     O60876   8.540   3.849  11.061 -1.1259  0.0929  0.1287
  462MOL0     C60877   8.412   3.800  11.074  0.0051 -0.5099 -0.1710
  462MOL0     C60878   8.379   3.779  11.207 -1.1296 -0.3014  0.2084
  462MOL0     C60879   8.260   3.717  11.231  0.1952 -0.5438 -0.3277
  462MOL0     C60880   8.169   3.689  11.130  1.4731 -0.6732  0.1775
  462MOL0     C60881   8.041   3.633  11.178 -0.2701  0.1316  1.0442
  462MOL0     O60882   8.031   3.595  11.307  0.2562  0.8925  0.5562
  462MOL0     C60883   7.926   3.508  11.334 -0.6498 -0.6705  0.8177
  462MOL0     C60884   7.953   3.380  11.335  0.6837 -0.1196 -0.0402
  462MOL0     C60885   7.860   3.284  11.385 -0.1713 -0.4653  0.3292
  462MOL0     C60886   7.735   3.328  11.426 -0.5602 -0.0620 -0.2240
  462MOL0     O60887   7.637   3.247  11.478 -0.3658 -0.1287 -0.1469
  462MOL0     C60888   7.660   3.100  11.470 -0.3871 -0.8097 -0.8436
  462MOL0     C60889   7.547   3.029  11.530 -0.1267  0.1850 -1.3505
  462MOL0     C60890   7.409   3.047  11.463 -0.4654  0.3669  0.1114
  462MOL0     C60891   7.315   2.939  11.522  0.8116 -0.2599 -0.0069
  462MOL0     C60892   7.172   2.983  11.505 -0.8949 -0.1541  0.0353
  462MOL0     C60893   7.067   2.889  11.572 -0.3536  0.8936 -0.1297
  462MOL0     C60894   7.114   2.828  11.704  0.1489 -0.2004 -0.2225
  462MOL0     C60895   7.014   2.739  11.784 -0.1040  0.0935  0.5033
  462MOL0    Cl60896   6.973   2.601  11.676 -0.0086 -0.0010  0.2220
  462MOL0     C60897   7.703   3.465  11.423 -0.9375  0.1059  0.3002
  462MOL0     C60898   7.800   3.556  11.369 -0.3723 -0.1873  0.7029
  462MOL0     O60899   7.954   3.616  11.093 -0.6836  0.8260 -1.1431
  462MOL0     C60900   8.198   3.711  10.996 -0.6274 -0.6582  0.1788
  462MOL0     C60901   8.323   3.770  10.968 -0.0837  0.3649 -0.1088
  462MOL0     N60902   9.024   3.976  10.574 -0.4506  0.4826  0.7637
  462MOL0     N60903   9.125   3.934  10.502  0.6444  0.1618 -0.3734
  462MOL0     C60904  10.110   3.296  10.772  0.5667  0.2511  0.4499
  462MOL0     C60905  10.249   3.268  10.787  0.3270  0.0908  0.1291
  462MOL0     C60906  10.675   3.070  10.786 -0.0299  0.5449  0.1258
  462MOL0     C60907  10.774   2.974  10.802 -0.4581 -0.0791  0.2817
  462MOL0     C60908  10.909   3.000  10.789  0.7387 -0.5016 -0.2143
  462MOL0     C60909  10.957   3.130  10.746  0.3638  0.5321 -0.0961
  462MOL0     O60910  11.080   3.155  10.707 -1.2185  0.1648  0.4518
  462MOL0     C60911  11.178   3.045  10.686  0.5405  0.2194  0.0145
  462MOL0     C60912  11.313   3.093  10.635 -0.2804 -0.2796  0.6239
  462MOL0     C60913  11.407   3.107  10.753 -0.3142 -0.0936  0.6421
  462MOL0     C60914  11.503   3.232  10.725 -0.4629  0.9540  0.0565
  462MOL0     C60915  11.629   3.237  10.799 -1.5773 -0.2031 -0.1275
  462MOL0     C60916  11.728   3.237  10.866  0.3178  0.4197  0.1029
  462MOL0     C60917  10.857   3.231  10.731  0.3310 -0.1592  1.0912
  462MOL0     C60918  10.723   3.195  10.751 -0.2243 -0.2552 -1.1208
  462MOL0     H60919  10.246   2.930  10.787 -1.1630 -0.9722  0.1396
  462MOL0     H60920  10.010   2.962  10.764  2.1490 -1.6213  1.8091
  462MOL0     H60921   9.762   3.051  10.682 -0.4058 -1.3375 -1.2649
  462MOL0     H60922   9.895   3.070  10.574 -1.5199 -1.2709  0.2125
  462MOL0     H60923   9.677   3.132  10.470 -1.8245  1.9543 -0.6153
  462MOL0     H60924   9.813   3.248  10.464  1.4578 -0.1562  1.2523
  462MOL0     H60925   9.740   3.380  10.627  0.7123 -0.3221 -0.4603
  462MOL0     H60926   9.611   3.284  10.694 -1.7118  2.8532 -0.2203
  462MOL0     H60927   9.625   3.417  10.420  0.9742 -0.1272  0.4147
  462MOL0     H60928   9.494   3.321  10.466  2.7616 -1.2436 -2.9749
  462MOL0     H60929   9.589   3.585  10.592 -2.1931  1.4615  1.2903
  462MOL0     H60930   9.443   3.487  10.657 -1.1068 -1.3678 -0.9912
  462MOL0     H60931   9.343   3.494  10.424 -0.1906 -0.4784  0.8514
  462MOL0     H60932   9.471   3.599  10.372  0.3807 -1.5647 -0.0580
  462MOL0     H60933   9.317   3.686  10.626 -1.5064 -1.4076 -0.2607
  462MOL0     H60934   9.418   3.772  10.510 -0.6338 -0.0272 -0.2984
  462MOL0     H60935   9.161   3.632  10.405 -0.4035  1.9082 -1.7801
  462MOL0     H60936   9.265   3.761  10.340  1.6825 -0.3140 -0.1662
  462MOL0     H60937   9.007   3.653  10.618 -1.4497  0.6794  0.4709
  462MOL0     H60938   8.804   3.977  10.711 -0.1812 -0.3118 -1.4774
  462MOL0     H60939   8.892   3.900  10.840  3.1978  2.9533 -1.1960
  462MOL0     H60940   8.769   3.686  10.689 -1.9565 -0.4468 -1.6328
  462MOL0     H60941   8.658   3.821  10.659  2.5321  3.6236 -1.1211
  462MOL0     H60942   8.594   3.671  10.823  0.4631 -0.0381 -0.4247
  462MOL0     H60943   8.745   3.709  10.925 -1.9093  0.6019  2.6327
  462MOL0     H60944   8.529   3.913  10.852  0.2782 -1.5348 -1.6544
  462MOL0     H60945   8.671   3.956  10.946  0.5038 -0.4665  1.5413
  462MOL0     H60946   8.443   3.793  11.293 -0.2033 -2.1021 -0.1608
  462MOL0     H60947   8.226   3.706  11.334 -3.3174 -1.2092 -1.4197
  462MOL0     H60948   8.052   3.348  11.304  1.2080 -2.1100  3.1718
  462MOL0     H60949   7.883   3.177  11.386  1.2035 -0.2554  3.3342
  462MOL0     H60950   7.750   3.091  11.531  0.4167  3.1000 -1.1683
  462MOL0     H60951   7.679   3.077  11.365 -2.2786 -0.4074 -1.3061
  462MOL0     H60952   7.536   3.059  11.634  1.6358 -0.1179 -1.0516
  462MOL0     H60953   7.567   2.921  11.525  1.1416  0.3619 -0.4690
  462MOL0     H60954   7.412   3.046  11.354  0.6507  1.0793  0.1188
  462MOL0     H60955   7.370   3.146  11.488  0.9526  0.9051  0.3103
  462MOL0     H60956   7.327   2.837  11.485  0.3890 -0.5438  0.6208
  462MOL0     H60957   7.341   2.930  11.628 -0.5344  1.6797  0.5336
  462MOL0     H60958   7.147   2.989  11.399  1.5949  1.0649 -0.5490
  462MOL0     H60959   7.167   3.086  11.544  1.4036  0.0086  0.0628
  462MOL0     H60960   7.037   2.812  11.500 -1.8991 -0.7949  2.2081
  462MOL0     H60961   6.973   2.937  11.597 -1.0127 -1.0016  1.2422
  462MOL0     H60962   7.201   2.762  11.700  0.1526 -0.1828 -0.4774
  462MOL0     H60963   7.127   2.912  11.772 -4.6568 -0.3081  1.2044
  462MOL0     H60964   6.924   2.799  11.798 -0.9526 -0.4641 -2.0220
  462MOL0     H60965   7.075   2.709  11.870  0.2427  1.6363  0.8270
  462MOL0     H60966   7.606   3.483  11.469 -1.4382 -1.2547 -0.1607
  462MOL0     H60967   7.776   3.662  11.374  0.4304  0.0431 -0.0815
  462MOL0     H60968   8.134   3.684  10.913 -1.3301 -0.1368  0.5341
  462MOL0     H60969   8.345   3.784  10.863  1.6206  2.8387  0.4904
  462MOL0     H60970  10.077   3.398  10.755  0.5557  0.3611  1.1082
  462MOL0     H60971  10.319   3.347  10.812 -0.4837  1.0457 -0.5137
  462MOL0     H60972  10.741   2.873  10.826 -2.2594  1.0554  3.1029
  462MOL0     H60973  10.980   2.919  10.806  1.1261 -0.1161  0.0245
  462MOL0     H60974  11.138   2.973  10.614  0.8801  2.0737 -2.1499
  462MOL0     H60975  11.189   2.990  10.780  0.4839  1.5655  0.8372
  462MOL0     H60976  11.361   3.025  10.563  1.7773  3.1940 -1.5784
  462MOL0     H60977  11.302   3.180  10.570 -1.3445  1.3523  2.8717
  462MOL0     H60978  11.477   3.023  10.759 -0.0122 -0.0212 -1.2755
  462MOL0     H60979  11.353   3.124  10.847  1.5751 -3.0047  2.4274
  462MOL0     H60980  11.543   3.227  10.623  2.1520 -2.4695  1.0446
  462MOL0     H60981  11.453   3.329  10.732  3.4304  3.2791 -1.3033
  462MOL0     H60982  11.827   3.225  10.905  0.2049 -0.6222  0.0912
  462MOL0     H60983  10.873   3.333  10.698 -1.8913  0.2242  1.0834
  462MOL0     H60984  10.651   3.274  10.733 -1.3484 -1.0319 -0.2251
  463MOL0     O60985   1.823   6.108   1.989  0.2327 -0.2206 -0.7174
  463MOL0     C60986   1.780   6.109   1.870 -0.4124  0.0366  0.9957
  463MOL0     O60987   1.658   6.065   1.830 -1.2806 -0.0422  0.1428
  463MOL0     C60988   1.565   6.032   1.919  0.2523  0.5376 -0.3047
  463MOL0     C60989   1.480   6.131   1.965 -0.3235  0.0424  0.7724
  463MOL0     C60990   1.378   6.095   2.045 -0.2679  0.4326 -0.7291
  463MOL0     C60991   1.350   5.974   2.093  0.7972  0.1685 -0.1773
  463MOL0     O60992   1.236   5.957   2.178 -0.7599 -0.1048 -0.4929
  463MOL0     C60993   1.118   5.905   2.124 -0.1703  0.0140 -0.2588
  463MOL0     C60994   1.015   5.898   2.232 -0.4349  0.5938 -0.7506
  463MOL0     C60995   0.885   5.818   2.201  1.1491 -0.3184 -0.1248
  463MOL0     C60996   0.812   5.796   2.326 -0.3524  0.0122 -0.7003
  463MOL0     C60997   0.747   5.917   2.392 -1.1038  0.1934  0.4591
  463MOL0     C60998   0.739   5.896   2.547 -0.7022 -0.6061  0.0647
  463MOL0     C60999   0.884   5.898   2.606 -0.9713  0.4583  0.5966
  463MOL0     C61000   0.885   5.937   2.752  0.6318  0.0645 -0.0721
  463MOL0     N61001   0.807   5.830   2.827  0.4681 -0.8781  0.2255
  463MOL0     C61002   0.670   5.824   2.840  0.2494  0.1332  0.3499
  463MOL0     C61003   0.645   5.697   2.877 -0.2418 -1.2132 -0.1048
  463MOL0     C61004   0.509   5.641   2.922 -0.1970  0.0130  0.1098
  463MOL0     C61005   0.462   5.543   2.810  0.2030 -1.1787 -0.2717
  463MOL0     C61006   0.337   5.469   2.845  0.8254 -0.2173  0.3105
  463MOL0     C61007   0.340   5.365   2.961 -0.6267  0.4030  0.1534
  463MOL0     O61008   0.235   5.264   2.952 -0.2101  0.4199  0.0079
  463MOL0     C61009   0.178   5.224   3.068 -0.8647  1.5284  0.2603
  463MOL0     C61010   0.209   5.257   3.197 -0.0505 -0.0008  0.6110
  463MOL0     C61011   0.126   5.207   3.307 -0.2122 -0.3868 -0.0499
  463MOL0     C61012   0.019   5.119   3.277  0.3757  0.6010  0.1332
  463MOL0     C61013  -0.067   5.063   3.386  0.6393  0.9321 -0.5524
  463MOL0     O61014  -0.156   4.965   3.349 -0.1863  0.0205  0.1387
  463MOL0     C61015  -0.237   4.904   3.442 -0.7486  0.2821  0.8732
  463MOL0     C61016  -0.370   4.891   3.405 -0.1942  0.2182  0.2786
  463MOL0     C61017  -0.463   4.828   3.482 -0.3889 -0.1274 -0.6315
  463MOL0     C61018  -0.423   4.785   3.608  0.7878 -0.1852 -0.0597
  463MOL0     O61019  -0.510   4.738   3.711 -0.4159 -0.0736  0.4592
  463MOL0     C61020  -0.640   4.703   3.667 -0.1918 -0.1202 -0.0429
  463MOL0     C61021  -0.725   4.670   3.788  0.1790 -0.2324 -0.2797
  463MOL0     C61022  -0.863   4.638   3.738 -0.0586  0.1751 -0.1183
  463MOL0     C61023  -0.932   4.747   3.651  0.1846  0.1113  0.5325
  463MOL0     C61024  -1.074   4.719   3.619  0.2744  0.1656  0.1864
  463MOL0     C61025  -1.167   4.723   3.736  0.6850  0.8043 -0.3931
  463MOL0     C61026  -1.313   4.715   3.680 -0.1824  0.7323  0.4209
  463MOL0     C61027  -1.423   4.735   3.792 -1.2017  0.1361  0.3969
  463MOL0    Cl61028  -1.399   4.620   3.933 -0.0475  0.2092 -0.6149
  463MOL0     C61029  -0.289   4.789   3.640 -0.1692 -0.6149  0.8985
  463MOL0     C61030  -0.196   4.853   3.562  0.3806  0.2769  0.0634
  463MOL0     O61031  -0.033   5.098   3.504  0.3297 -0.4254 -0.3792
  463MOL0     C61032  -0.006   5.081   3.146 -0.2816  0.3007  0.7710
  463MOL0     C61033   0.072   5.133   3.045 -0.5144  0.4133  0.4767
  463MOL0     N61034   0.765   5.629   2.878 -0.5909  0.2731  0.0565
  463MOL0     N61035   0.860   5.706   2.846 -0.0281 -0.2678 -0.6436
  463MOL0     C61036   1.439   5.869   2.057 -0.4467  0.2368  0.2281
  463MOL0     C61037   1.547   5.896   1.969  0.6716 -0.3988  0.4868
  463MOL0     C61038   1.869   6.155   1.761 -0.8023  0.0539  0.4622
  463MOL0     C61039   1.832   6.115   1.630 -0.6367  0.1623  0.4073
  463MOL0     C61040   1.896   6.168   1.513 -0.1338 -0.4969 -0.1039
  463MOL0     C61041   1.999   6.258   1.538  0.4157  0.7933 -0.4873
  463MOL0     O61042   2.054   6.310   1.431 -0.5955 -0.3664  0.8186
  463MOL0     C61043   2.196   6.310   1.420  0.5979 -0.4080  1.4295
  463MOL0     C61044   2.243   6.455   1.391  0.3050 -0.7452  0.0256
  463MOL0     C61045   2.181   6.527   1.265  0.9805  0.2975 -0.2076
  463MOL0     C61046   2.241   6.468   1.131 -0.2615 -0.2080 -0.1437
  463MOL0     C61047   2.148   6.474   1.017 -1.1090 -0.2359 -0.0374
  463MOL0     C61048   2.065   6.494   0.929 -0.1441  0.4273  0.2629
  463MOL0     C61049   2.025   6.312   1.664 -0.6090 -0.1205  0.0014
  463MOL0     C61050   1.970   6.259   1.776 -0.1640 -0.0995  0.0266
  463MOL0     H61051   1.493   6.234   1.934 -1.6699 -0.0517 -0.1948
  463MOL0     H61052   1.323   6.182   2.079 -0.9903 -0.2831  0.0046
  463MOL0     H61053   1.137   5.808   2.079  1.4704 -1.2640  2.8670
  463MOL0     H61054   1.071   5.974   2.053  0.6356  0.6789 -0.1591
  463MOL0     H61055   0.988   6.002   2.254 -0.7426  1.0579 -3.0603
  463MOL0     H61056   1.076   5.859   2.314  0.3067  1.9162 -0.6362
  463MOL0     H61057   0.900   5.727   2.142  1.2238  1.8904 -3.8286
  463MOL0     H61058   0.820   5.886   2.146  1.0400 -0.1722  0.1781
  463MOL0     H61059   0.734   5.723   2.304  1.2531 -1.3865 -2.1199
  463MOL0     H61060   0.877   5.747   2.398 -0.5071 -0.6986 -1.0349
  463MOL0     H61061   0.643   5.933   2.360 -0.4565 -1.2997 -2.7899
  463MOL0     H61062   0.792   6.012   2.364 -1.6144  0.0035 -1.1079
  463MOL0     H61063   0.674   5.811   2.571 -0.5960 -0.8430 -0.4780
  463MOL0     H61064   0.690   5.987   2.582  4.3941  1.5966  2.4936
  463MOL0     H61065   0.935   5.801   2.600  0.8734  1.4795 -1.2747
  463MOL0     H61066   0.942   5.971   2.549 -3.1583  0.1723 -2.2471
  463MOL0     H61067   0.826   6.029   2.761 -1.8763 -0.8211 -4.4034
  463MOL0     H61068   0.985   5.963   2.787  0.7826 -1.3735  0.5962
  463MOL0     H61069   0.602   5.909   2.837 -1.5340 -1.2561 -1.0814
  463MOL0     H61070   0.428   5.713   2.942 -0.1225  0.6695 -1.8066
  463MOL0     H61071   0.535   5.586   3.013 -2.1723 -2.2240 -0.5470
  463MOL0     H61072   0.544   5.472   2.796  1.4916 -0.0913  1.2786
  463MOL0     H61073   0.453   5.593   2.713 -0.0205  1.3671  0.9736
  463MOL0     H61074   0.260   5.541   2.876  0.7336 -1.1895  2.4980
  463MOL0     H61075   0.308   5.418   2.752  0.3405  2.2831 -0.9899
  463MOL0     H61076   0.345   5.421   3.055  1.5192 -0.5361  0.6651
  463MOL0     H61077   0.431   5.305   2.961 -1.1612 -0.4687  1.6683
  463MOL0     H61078   0.299   5.315   3.217  0.3811 -0.4362 -0.0280
  463MOL0     H61079   0.150   5.231   3.410 -2.0354 -0.9391  0.5464
  463MOL0     H61080  -0.404   4.923   3.307 -2.0548  1.1863  1.1809
  463MOL0     H61081  -0.569   4.829   3.461 -1.6492  4.2128  3.9714
  463MOL0     H61082  -0.631   4.627   3.589 -2.1772 -0.9905  0.5175
  463MOL0     H61083  -0.677   4.799   3.631 -3.6259 -0.6163  1.6886
  463MOL0     H61084  -0.723   4.756   3.856  2.1407  0.4075 -1.0677
  463MOL0     H61085  -0.681   4.586   3.843 -3.5181 -2.0791  0.1663
  463MOL0     H61086  -0.925   4.630   3.828 -0.8791  1.6396 -0.5188
  463MOL0     H61087  -0.878   4.552   3.672 -1.6732  0.1602  0.2278
  463MOL0     H61088  -0.919   4.841   3.705  2.2533 -0.0512  0.3846
  463MOL0     H61089  -0.887   4.753   3.552 -0.6534  0.6377  0.1701
  463MOL0     H61090  -1.067   4.624   3.566  0.1649  0.4212 -0.3059
  463MOL0     H61091  -1.102   4.796   3.546 -2.0609 -1.3111 -0.5894
  463MOL0     H61092  -1.144   4.806   3.804  0.3304  0.0937  0.6174
  463MOL0     H61093  -1.148   4.627   3.784  3.2892  1.6314  0.4095
  463MOL0     H61094  -1.320   4.790   3.600  1.5348 -1.7950 -2.3094
  463MOL0     H61095  -1.326   4.617   3.633  2.4118  0.8158 -0.6411
  463MOL0     H61096  -1.516   4.709   3.741 -0.6394 -3.9706  1.1547
  463MOL0     H61097  -1.428   4.832   3.843 -3.6628 -0.6914  1.9055
  463MOL0     H61098  -0.260   4.760   3.740 -1.1072 -4.5193  0.2255
  463MOL0     H61099  -0.092   4.867   3.590  0.1893 -0.9668  1.5297
  463MOL0     H61100  -0.087   5.014   3.119  0.7175 -1.6554  2.3443
  463MOL0     H61101   0.047   5.095   2.946 -1.4098  1.6054  0.2235
  463MOL0     H61102   1.430   5.767   2.094 -3.2240  0.2414 -0.2395
  463MOL0     H61103   1.600   5.811   1.926 -0.6641  0.1364 -2.4843
  463MOL0     H61104   1.759   6.037   1.615  2.0916 -3.2480  3.1343
  463MOL0     H61105   1.882   6.143   1.408 -0.4959  2.4551 -0.8480
  463MOL0     H61106   2.239   6.258   1.335  0.6486  0.4976  0.8911
  463MOL0     H61107   2.250   6.266   1.505  3.2025 -0.6213 -0.2479
  463MOL0     H61108   2.205   6.517   1.473  2.5084 -0.4956  0.9316
  463MOL0     H61109   2.352   6.457   1.384  0.4836 -1.9338  1.6796
  463MOL0     H61110   2.178   6.636   1.276  0.2252  0.3494 -0.8302
  463MOL0     H61111   2.072   6.518   1.261  0.4627  4.4893 -0.4188
  463MOL0     H61112   2.323   6.533   1.099 -0.8153  0.3673 -0.4087
  463MOL0     H61113   2.275   6.365   1.146  1.3735  0.3194 -0.0412
  463MOL0     H61114   1.996   6.510   0.849 -2.6963 -0.6046  2.1229
  463MOL0     H61115   2.099   6.391   1.668 -2.3368  1.4906  2.2942
  463MOL0     H61116   1.981   6.296   1.878 -2.0302  0.3341  0.1114
  464MOL0     O61117   3.646   6.641   6.529  0.3372  0.4840 -0.0872
  464MOL0     C61118   3.747   6.678   6.591 -0.5196  0.3201  1.1431
  464MOL0     O61119   3.754   6.674   6.726 -0.1625 -0.4223 -0.2892
  464MOL0     C61120   3.642   6.692   6.802  0.4064  0.3802  0.2861
  464MOL0     C61121   3.525   6.761   6.763  0.7118 -0.3346  0.3562
  464MOL0     C61122   3.406   6.748   6.845 -1.0068 -0.0251  0.2757
  464MOL0     C61123   3.412   6.687   6.966 -0.4442 -0.6054  0.3150
  464MOL0     O61124   3.293   6.682   7.033 -0.1435  1.0129 -0.2448
  464MOL0     C61125   3.291   6.631   7.170 -1.2755 -0.4879 -0.1094
  464MOL0     C61126   3.151   6.644   7.227 -0.3231  0.0193 -0.0799
  464MOL0     C61127   3.077   6.773   7.208  0.2886 -0.3259  0.5064
  464MOL0     C61128   2.965   6.780   7.314  0.8577  0.4659 -0.5349
  464MOL0     C61129   2.867   6.653   7.307  0.8162 -0.5269 -0.1833
  464MOL0     C61130   2.733   6.668   7.383  0.5748 -0.4411  0.7179
  464MOL0     C61131   2.748   6.641   7.531  0.8515 -0.2468  0.1901
  464MOL0     C61132   2.623   6.685   7.602 -0.4624  0.0709  0.9608
  464MOL0     N61133   2.500   6.613   7.580 -0.2518  0.5921 -0.3617
  464MOL0     C61134   2.471   6.479   7.589 -1.2733 -0.9603  0.1724
  464MOL0     C61135   2.348   6.466   7.538  1.0617 -0.1879  0.1732
  464MOL0     C61136   2.279   6.332   7.509 -0.9649  0.1862  0.2917
  464MOL0     C61137   2.159   6.344   7.409 -0.7410 -0.0207 -0.1096
  464MOL0     C61138   2.087   6.215   7.382  0.6383 -0.0562 -0.6104
  464MOL0     C61139   1.989   6.238   7.269 -0.1940 -0.0430 -0.4052
  464MOL0     O61140   1.874   6.157   7.268  0.0357  1.4058  0.4735
  464MOL0     C61141   1.770   6.184   7.353 -1.2727 -1.0044  0.4117
  464MOL0     C61142   1.765   6.291   7.456  0.5370  0.6394  0.3466
  464MOL0     C61143   1.645   6.302   7.526  0.1438  0.5335 -0.7878
  464MOL0     C61144   1.531   6.215   7.498 -0.1793  0.1192 -0.1622
  464MOL0     C61145   1.416   6.208   7.597 -0.9392 -0.3749  0.4283
  464MOL0     O61146   1.301   6.159   7.544  0.0059 -0.3990 -0.7630
  464MOL0     C61147   1.201   6.165   7.629  1.2260 -0.6596 -0.1883
  464MOL0     C61148   1.154   6.052   7.693 -0.6061 -0.2720 -0.6035
  464MOL0     C61149   1.072   6.061   7.802  0.6227  0.2003 -0.4102
  464MOL0     C61150   1.015   6.183   7.842  0.0113 -0.2138 -0.5309
  464MOL0     O61151   0.941   6.188   7.958 -0.2655  0.3717  0.0556
  464MOL0     C61152   0.991   6.284   8.058 -0.2883  0.0498 -0.8086
  464MOL0     C61153   1.007   6.208   8.194 -0.2098 -0.0495 -0.5687
  464MOL0     C61154   0.877   6.158   8.255  0.0082  0.6694 -0.3123
  464MOL0     C61155   0.899   6.179   8.416 -0.4045 -1.1995  0.1942
  464MOL0     C61156   0.777   6.130   8.497  0.0591 -0.5544  0.1371
  464MOL0     C61157   0.645   6.195   8.447 -0.6072 -0.0779  0.6980
  464MOL0     C61158   0.532   6.160   8.539  0.0269 -0.2627  0.0826
  464MOL0     C61159   0.408   6.256   8.513  0.2519  0.7892  0.5501
  464MOL0    Cl61160   0.392   6.289   8.339  0.2070  0.0982 -0.2439
  464MOL0     C61161   1.040   6.292   7.767  0.3707  0.0494  0.0833
  464MOL0     C61162   1.134   6.287   7.661  0.0569 -0.2995 -1.3530
  464MOL0     O61163   1.434   6.249   7.714 -0.4882  1.0688  0.0194
  464MOL0     C61164   1.534   6.134   7.385  0.2305  0.3627  0.1836
  464MOL0     C61165   1.658   6.110   7.317 -0.9506 -0.5193 -0.4468
  464MOL0     N61166   2.290   6.592   7.520 -0.2849 -0.3222 -0.4179
  464MOL0     N61167   2.394   6.675   7.534  0.2784  0.1331  0.7170
  464MOL0     C61168   3.531   6.625   7.009 -0.3322 -1.1065  0.2290
  464MOL0     C61169   3.646   6.633   6.928 -0.6930  0.5146  0.1165
  464MOL0     C61170   3.862   6.719   6.505  0.2284  0.2337  0.2394
  464MOL0     C61171   3.862   6.691   6.365 -0.4451  0.5176  0.3753
  464MOL0     C61172   3.956   6.749   6.278  0.3944 -0.0061 -1.1222
  464MOL0     C61173   4.050   6.840   6.318  0.7037 -0.1612 -0.2895
  464MOL0     O61174   4.150   6.886   6.228 -0.3134  0.4603 -0.1008
  464MOL0     C61175   4.216   7.016   6.240  0.3624  0.1262  0.0106
  464MOL0     C61176   4.342   7.019   6.149  0.3888 -1.2959  0.1086
  464MOL0     C61177   4.451   6.924   6.198 -0.4418  0.2572  0.0033
  464MOL0     C61178   4.583   7.001   6.238 -0.7000 -0.7771  0.3632
  464MOL0     C61179   4.645   7.051   6.112 -0.2657  0.0802 -0.7678
  464MOL0     C61180   4.702   7.094   6.014  0.2636 -0.7851  0.3203
  464MOL0     C61181   4.049   6.863   6.459  0.3594 -0.2967 -0.5447
  464MOL0     C61182   3.959   6.810   6.549 -0.7752 -0.8683  0.3100
  464MOL0     H61183   3.514   6.812   6.667 -0.5274  0.0117  0.6633
  464MOL0     H61184   3.314   6.793   6.808 -1.6935 -0.6669  1.1557
  464MOL0     H61185   3.366   6.683   7.231 -0.8875 -1.6762  0.4582
  464MOL0     H61186   3.321   6.527   7.166 -0.1604 -0.1200 -2.0980
  464MOL0     H61187   3.155   6.609   7.331 -0.1694  0.5349  0.0922
  464MOL0     H61188   3.099   6.558   7.184  0.3654 -1.5420  2.0330
  464MOL0     H61189   3.038   6.784   7.106 -0.9802  1.5447  1.1419
  464MOL0     H61190   3.158   6.844   7.225  0.7448 -0.6633 -0.1944
  464MOL0     H61191   3.017   6.772   7.410  0.8065 -0.2493 -0.5592
  464MOL0     H61192   2.907   6.872   7.311 -0.1404 -0.1505 -0.8097
  464MOL0     H61193   2.917   6.567   7.353  0.0958  0.9401  3.7700
  464MOL0     H61194   2.844   6.630   7.203  1.7176 -0.1581 -0.4781
  464MOL0     H61195   2.659   6.606   7.333 -1.3318  2.7057 -0.6991
  464MOL0     H61196   2.697   6.770   7.364 -0.7231 -1.5244 -3.5451
  464MOL0     H61197   2.789   6.547   7.568  0.6678  0.9850  3.9655
  464MOL0     H61198   2.824   6.715   7.560  0.2440  0.7058 -0.5694
  464MOL0     H61199   2.600   6.790   7.580 -1.0804  0.2434  2.3404
  464MOL0     H61200   2.650   6.684   7.708  2.1136 -0.9057  0.3727
  464MOL0     H61201   2.542   6.401   7.615  1.0567  0.2120 -2.2350
  464MOL0     H61202   2.250   6.295   7.608 -1.3404 -1.3110 -0.3619
  464MOL0     H61203   2.354   6.263   7.469  0.7364  2.1152 -0.0452
  464MOL0     H61204   2.194   6.394   7.318  0.4346 -0.6111  0.0008
  464MOL0     H61205   2.098   6.413   7.467 -0.9040  0.3039 -0.6675
  464MOL0     H61206   2.152   6.133   7.352  0.5191  0.1137 -1.3477
  464MOL0     H61207   2.029   6.180   7.468  1.3444 -2.6707 -1.1107
  464MOL0     H61208   2.041   6.222   7.174 -1.3442  2.0691 -1.4710
  464MOL0     H61209   1.950   6.340   7.277 -1.7736 -0.7522  2.5297
  464MOL0     H61210   1.855   6.347   7.479  1.8798 -0.7929 -1.1416
  464MOL0     H61211   1.638   6.365   7.614  1.5956  2.8799 -2.2684
  464MOL0     H61212   1.189   5.957   7.654  2.2359  0.5736 -0.2833
  464MOL0     H61213   1.056   5.971   7.861  0.9554 -0.0922 -0.7630
  464MOL0     H61214   0.917   6.364   8.068  0.6734  1.0734 -1.5879
  464MOL0     H61215   1.086   6.334   8.035 -1.3665  1.4132 -2.5014
  464MOL0     H61216   1.056   6.286   8.254 -3.2927  0.4330  1.5460
  464MOL0     H61217   1.080   6.127   8.182  0.1109  0.3513 -1.4128
  464MOL0     H61218   0.854   6.055   8.227  1.5897 -0.1211  1.1288
  464MOL0     H61219   0.798   6.226   8.220 -0.6130  0.8892  1.3921
  464MOL0     H61220   0.992   6.130   8.446 -0.9211 -2.1781  0.2232
  464MOL0     H61221   0.913   6.285   8.439 -0.3877 -0.4921 -2.6824
  464MOL0     H61222   0.801   6.158   8.600  1.6931 -1.0262 -0.0804
  464MOL0     H61223   0.771   6.022   8.484 -0.2097 -0.2509 -3.0088
  464MOL0     H61224   0.619   6.152   8.350 -1.3360  1.4216  0.2040
  464MOL0     H61225   0.665   6.302   8.455 -0.8244 -0.0017  0.2481
  464MOL0     H61226   0.507   6.056   8.514  2.1396 -1.0384  0.9093
  464MOL0     H61227   0.558   6.158   8.646 -0.1988 -3.4480  0.1931
  464MOL0     H61228   0.407   6.347   8.573 -1.5678 -0.0219  1.8691
  464MOL0     H61229   0.314   6.208   8.542 -0.6963  1.9228 -0.5444
  464MOL0     H61230   1.008   6.389   7.803  2.1102  0.2604  1.1472
  464MOL0     H61231   1.171   6.372   7.604  0.8698  3.2998  3.8817
  464MOL0     H61232   1.459   6.060   7.359  4.1117 -2.9384 -3.1251
  464MOL0     H61233   1.668   6.048   7.228 -3.5767 -0.5701 -0.7907
  464MOL0     H61234   3.538   6.566   7.100 -2.4573 -2.3441 -0.3200
  464MOL0     H61235   3.731   6.576   6.963 -2.5566 -2.3444  0.2789
  464MOL0     H61236   3.777   6.642   6.320  0.1570 -0.5946  0.4116
  464MOL0     H61237   3.947   6.723   6.173  2.7665 -2.2324 -0.8532
  464MOL0     H61238   4.256   7.028   6.340  0.0954 -1.3865  0.3121
  464MOL0     H61239   4.143   7.095   6.218 -0.4251 -1.0246 -1.7432
  464MOL0     H61240   4.316   7.001   6.045  0.1871 -1.7597  0.2405
  464MOL0     H61241   4.365   7.126   6.160 -0.6793 -1.0680  0.2921
  464MOL0     H61242   4.467   6.839   6.131 -0.9409  2.0916 -2.6169
  464MOL0     H61243   4.417   6.879   6.291  4.2583 -2.2193  0.7777
  464MOL0     H61244   4.563   7.090   6.298  0.1636  0.9998 -1.8648
  464MOL0     H61245   4.657   6.941   6.293 -0.4428 -1.1788 -0.4104
  464MOL0     H61246   4.749   7.110   5.919 -2.2136 -0.3586 -0.9060
  464MOL0     H61247   4.121   6.936   6.496 -0.0437 -0.9803  1.7772
  464MOL0     H61248   3.954   6.847   6.651 -0.4625 -3.3500  1.3037
  465MOL0     O61249   5.832   1.893   5.972 -0.9936  0.0241 -0.6943
  465MOL0     C61250   5.880   1.947   6.070  0.0626  0.3691  0.3462
  465MOL0     O61251   5.816   2.015   6.166  0.2930 -0.5674  0.2256
  465MOL0     C61252   5.682   2.001   6.178  0.0758 -0.4800  0.6276
  465MOL0     C61253   5.607   2.114   6.194 -0.3582 -0.7568  1.0863
  465MOL0     C61254   5.471   2.106   6.205 -0.8804  0.5893 -1.1117
  465MOL0     C61255   5.408   1.983   6.199  0.7861  0.4430 -0.8712
  465MOL0     O61256   5.271   1.980   6.212 -0.6080 -0.0740 -0.6374
  465MOL0     C61257   5.218   2.035   6.338 -0.0550  0.4244 -0.1370
  465MOL0     C61258   5.109   1.945   6.388  0.4486 -0.7979 -0.6183
  465MOL0     C61259   4.978   1.974   6.310 -0.0837 -0.0009 -0.6347
  465MOL0     C61260   4.860   1.893   6.377 -0.3022  0.6862 -0.1564
  465MOL0     C61261   4.733   1.915   6.304 -0.4011  0.4721 -0.3501
  465MOL0     C61262   4.618   1.838   6.372  0.8089  0.9677  0.3872
  465MOL0     C61263   4.483   1.895   6.327  0.4334  0.1583  0.8279
  465MOL0     C61264   4.386   1.779   6.332 -0.3443  0.9566 -0.1681
  465MOL0     N61265   4.360   1.748   6.474  0.6331 -0.1415  0.2679
  465MOL0     C61266   4.379   1.624   6.520 -0.2961  0.4019  0.6767
  465MOL0     C61267   4.304   1.598   6.629  0.3158 -0.4473 -0.3143
  465MOL0     C61268   4.311   1.478   6.721 -0.5760 -0.0592  1.3004
  465MOL0     C61269   4.275   1.347   6.659  0.2184 -0.0914  0.2684
  465MOL0     C61270   4.124   1.345   6.609  0.3914 -0.1327  0.5751
  465MOL0     C61271   4.023   1.389   6.708 -0.9373 -0.2896 -0.4527
  465MOL0     O61272   3.896   1.351   6.654 -0.3594  0.4947 -0.6947
  465MOL0     C61273   3.782   1.425   6.697  0.6292  0.1975 -0.0186
  465MOL0     C61274   3.785   1.520   6.801 -0.1104  0.4246  0.6744
  465MOL0     C61275   3.664   1.580   6.846  0.2958  0.3354 -0.6190
  465MOL0     C61276   3.543   1.558   6.774  0.7739 -0.2382 -0.3389
  465MOL0     C61277   3.419   1.625   6.825 -0.2809  0.0264 -0.2078
  465MOL0     O61278   3.306   1.602   6.771  0.0225 -0.7956  0.6262
  465MOL0     C61279   3.193   1.678   6.794 -0.4107 -0.2279  0.5241
  465MOL0     C61280   3.075   1.620   6.836  0.0823  0.1717 -0.1367
  465MOL0     C61281   2.953   1.685   6.865 -0.7427 -0.1325  0.6466
  465MOL0     C61282   2.951   1.820   6.842  0.0747 -0.0630  0.8639
  465MOL0     O61283   2.836   1.901   6.858  0.2709  0.6732 -0.7077
  465MOL0     C61284   2.705   1.845   6.864 -1.0317  0.1815 -0.0204
  465MOL0     C61285   2.585   1.939   6.890  0.2159 -0.0059  0.2784
  465MOL0     C61286   2.462   1.880   6.818  0.8589  0.4911 -0.5629
  465MOL0     C61287   2.337   1.939   6.887 -1.3354 -0.4102 -0.2213
  465MOL0     C61288   2.219   1.941   6.799 -0.0142  0.2486  0.7083
  465MOL0     C61289   2.100   2.008   6.860  0.1533  0.5590  0.8115
  465MOL0     C61290   1.990   2.028   6.750  1.1925 -0.9371 -0.3703
  465MOL0     C61291   1.854   2.034   6.808  0.0165  0.0716 -0.5441
  465MOL0    Cl61292   1.795   1.868   6.828 -0.2354  0.1300 -0.4542
  465MOL0     C61293   3.072   1.882   6.798  0.3625  0.2543 -0.2915
  465MOL0     C61294   3.191   1.814   6.773  0.0657 -0.0394 -0.5347
  465MOL0     O61295   3.431   1.708   6.914 -0.4373  0.6512  0.2232
  465MOL0     C61296   3.543   1.472   6.668  0.2154  1.0881  0.4622
  465MOL0     C61297   3.663   1.406   6.629 -0.5494  0.3288  0.4011
  465MOL0     N61298   4.237   1.718   6.653  0.2463  0.0196  0.7831
  465MOL0     N61299   4.271   1.808   6.560 -0.7060 -0.8834 -0.6615
  465MOL0     C61300   5.484   1.868   6.197 -0.0854  0.3535  1.3185
  465MOL0     C61301   5.622   1.871   6.187  0.6738  0.2519 -0.5242
  465MOL0     C61302   6.030   1.929   6.091 -0.2947  0.8367  0.1398
  465MOL0     C61303   6.100   1.977   6.206  0.1508  0.2166  0.9436
  465MOL0     C61304   6.236   1.945   6.231  0.3570  1.3372  0.8119
  465MOL0     C61305   6.317   1.901   6.127 -0.3690 -0.6124  0.5319
  465MOL0     O61306   6.449   1.901   6.162  0.6589 -0.2352  0.5092
  465MOL0     C61307   6.531   1.832   6.060 -0.0376 -0.0263  0.8214
  465MOL0     C61308   6.676   1.881   6.091 -0.6260  0.3733 -0.2741
  465MOL0     C61309   6.770   1.849   5.977 -0.0390  0.1876  0.3236
  465MOL0     C61310   6.915   1.890   6.020  0.1194 -0.1617  0.9735
  465MOL0     C61311   7.017   1.865   5.920  0.2734 -0.8134 -0.0744
  465MOL0     C61312   7.096   1.840   5.831 -0.9258 -0.8717 -0.1527
  465MOL0     C61313   6.254   1.869   5.999  0.0753  0.5916  0.0076
  465MOL0     C61314   6.112   1.875   5.993 -0.3600 -0.5421 -0.0978
  465MOL0     H61315   5.655   2.212   6.193 -1.4781 -0.2007 -0.4892
  465MOL0     H61316   5.404   2.191   6.217 -1.3116  0.2116 -0.7769
  465MOL0     H61317   5.181   2.138   6.340 -2.0824 -0.2377  2.4302
  465MOL0     H61318   5.301   2.034   6.409  0.3209  0.2948 -0.5750
  465MOL0     H61319   5.084   1.970   6.491 -2.7291  0.5908 -1.5992
  465MOL0     H61320   5.144   1.841   6.379  4.9713  0.4285  0.2000
  465MOL0     H61321   4.991   1.945   6.206  2.0309 -0.3117 -0.3327
  465MOL0     H61322   4.949   2.079   6.320  0.0424 -0.0624  0.6260
  465MOL0     H61323   4.900   1.791   6.378  2.7621  1.7555 -1.4882
  465MOL0     H61324   4.863   1.927   6.481  4.0771  0.8967 -0.1604
  465MOL0     H61325   4.759   1.881   6.203 -0.8486  0.4020 -0.4430
  465MOL0     H61326   4.700   2.019   6.308  1.5188  1.0894  1.6167
  465MOL0     H61327   4.627   1.857   6.480 -1.8373 -1.0225  1.0758
  465MOL0     H61328   4.624   1.730   6.358  0.3590  1.2462 -2.5009
  465MOL0     H61329   4.449   1.977   6.389 -3.5605  0.3648 -1.3216
  465MOL0     H61330   4.491   1.936   6.226  5.1645  1.9944  1.6797
  465MOL0     H61331   4.431   1.694   6.280 -1.7305  0.4765 -0.6399
  465MOL0     H61332   4.286   1.800   6.291 -0.5405 -0.0432 -0.2255
  465MOL0     H61333   4.443   1.555   6.466  0.2568 -1.6202  3.6663
  465MOL0     H61334   4.249   1.483   6.811 -2.6889 -2.4640  0.0942
  465MOL0     H61335   4.417   1.474   6.751 -0.1490  2.0308  0.2409
  465MOL0     H61336   4.296   1.279   6.742 -0.1388 -0.9524 -0.3232
  465MOL0     H61337   4.341   1.328   6.573 -0.2690  0.1084 -0.1569
  465MOL0     H61338   4.111   1.405   6.519 -6.0030 -2.5653 -0.6655
  465MOL0     H61339   4.085   1.243   6.596 -1.2137  0.3913  0.9778
  465MOL0     H61340   4.020   1.497   6.721  0.6797 -0.4477  2.0167
  465MOL0     H61341   4.061   1.345   6.801 -1.2876 -0.1494 -0.2407
  465MOL0     H61342   3.876   1.530   6.860  0.6951 -1.9488 -0.0277
  465MOL0     H61343   3.675   1.657   6.922 -0.2049 -0.9057  0.7575
  465MOL0     H61344   3.063   1.513   6.849  3.0229 -0.5578 -2.3943
  465MOL0     H61345   2.868   1.629   6.903  0.0635 -1.0478  1.1104
  465MOL0     H61346   2.700   1.762   6.934 -2.4717 -0.0620 -0.3833
  465MOL0     H61347   2.696   1.797   6.766 -0.7183 -1.5073  0.7421
  465MOL0     H61348   2.594   2.038   6.844  1.1778 -1.8069 -3.8593
  465MOL0     H61349   2.559   1.944   6.997 -0.8635  2.0950 -0.0232
  465MOL0     H61350   2.477   1.772   6.816 -0.3171  0.3248 -2.3083
  465MOL0     H61351   2.462   1.919   6.716 -0.0774  0.4189 -0.5989
  465MOL0     H61352   2.317   1.877   6.975  1.1840 -1.5570 -0.3571
  465MOL0     H61353   2.360   2.043   6.909 -3.8406  0.8321 -2.8607
  465MOL0     H61354   2.181   1.844   6.766 -0.8709  0.5971  0.6547
  465MOL0     H61355   2.240   1.986   6.702 -1.1008  1.3722  0.9648
  465MOL0     H61356   2.124   2.100   6.915 -1.7642  0.5474  1.7638
  465MOL0     H61357   2.055   1.953   6.943 -1.4255 -1.4300 -1.2321
  465MOL0     H61358   2.016   2.123   6.701  0.7512 -1.7779 -2.3153
  465MOL0     H61359   1.991   1.950   6.674 -2.4598 -2.5989  1.0516
  465MOL0     H61360   1.784   2.086   6.741 -0.9574 -1.0730 -0.4526
  465MOL0     H61361   1.841   2.082   6.906 -0.2592 -1.4999  0.2266
  465MOL0     H61362   3.068   1.989   6.785 -0.6062 -0.0494 -3.4620
  465MOL0     H61363   3.288   1.860   6.757  0.6382  0.4769  3.4246
  465MOL0     H61364   3.452   1.444   6.617  0.5993  0.6011  0.0241
  465MOL0     H61365   3.660   1.339   6.543  3.5163  2.5158 -1.7684
  465MOL0     H61366   5.436   1.771   6.208 -2.1028  1.3197  1.4329
  465MOL0     H61367   5.670   1.774   6.173  0.5440  0.3978 -2.1804
  465MOL0     H61368   6.046   2.033   6.282 -1.5805  0.2008 -0.2223
  465MOL0     H61369   6.271   1.970   6.331  0.5221 -0.7810  1.3190
  465MOL0     H61370   6.532   1.870   5.958  0.9963  1.7040  1.4364
  465MOL0     H61371   6.535   1.722   6.065 -1.5730 -0.1902 -0.6148
  465MOL0     H61372   6.695   1.987   6.113  1.3011 -0.4912  2.8052
  465MOL0     H61373   6.703   1.824   6.180  1.0110  1.0876 -0.2831
  465MOL0     H61374   6.747   1.903   5.885  0.6876 -5.0131 -3.3629
  465MOL0     H61375   6.752   1.745   5.949 -3.5881  0.7315  0.1150
  465MOL0     H61376   6.902   1.999   6.027 -0.0442 -0.0651 -0.4699
  465MOL0     H61377   6.943   1.851   6.118  1.2293  1.1956  1.2341
  465MOL0     H61378   7.164   1.817   5.752 -2.7965  0.5527 -2.2781
  465MOL0     H61379   6.314   1.856   5.910 -2.3640  0.6970 -1.7252
  465MOL0     H61380   6.083   1.840   5.894  0.6046  1.7711 -1.2913
  466MOL0     O61381   4.237   7.470   4.063 -0.1550  0.3008  0.0386
  466MOL0     C61382   4.274   7.425   4.169  0.1505  0.5811  0.5401
  466MOL0     O61383   4.197   7.395   4.276 -0.2552  0.5171  0.2105
  466MOL0     C61384   4.066   7.439   4.298  0.7119  0.9243  0.6136
  466MOL0     C61385   3.984   7.507   4.208 -0.1145  0.1005 -0.3612
  466MOL0     C61386   3.849   7.531   4.244  0.9668 -0.2970  0.4691
  466MOL0     C61387   3.801   7.487   4.368  0.2494 -0.3343  0.5660
  466MOL0     O61388   3.665   7.509   4.408  0.0248 -0.0488 -0.1003
  466MOL0     C61389   3.587   7.621   4.364  0.3823 -0.7613 -0.3779
  466MOL0     C61390   3.469   7.625   4.470  0.1793  0.6441 -0.1209
  466MOL0     C61391   3.374   7.734   4.446 -0.0367  0.0790  0.0620
  466MOL0     C61392   3.254   7.727   4.549 -0.1269  0.2335 -0.7314
  466MOL0     C61393   3.287   7.771   4.697  0.4900 -0.3307 -0.8555
  466MOL0     C61394   3.287   7.921   4.708  0.8020 -0.6811  0.0771
  466MOL0     C61395   3.300   7.965   4.852 -0.1592  0.3733  0.4756
  466MOL0     C61396   3.159   7.948   4.918 -0.8417  0.9227 -0.1300
  466MOL0     N61397   3.044   8.028   4.875  0.6144  0.5995  0.4764
  466MOL0     C61398   3.039   8.167   4.880  1.0810  0.2621  0.4326
  466MOL0     C61399   2.906   8.189   4.826 -0.3357  0.1622 -0.0708
  466MOL0     C61400   2.834   8.325   4.808  0.4892  0.0422  0.1266
  466MOL0     C61401   2.717   8.345   4.911  0.7638  0.0616  0.1016
  466MOL0     C61402   2.578   8.341   4.842 -0.1262 -0.5760 -0.1289
  466MOL0     C61403   2.464   8.345   4.938 -0.9305  0.5774  0.1454
  466MOL0     O61404   2.335   8.352   4.863 -0.1469 -0.1811  0.5517
  466MOL0     C61405   2.225   8.350   4.941 -0.1448  0.0748 -0.2136
  466MOL0     C61406   2.102   8.327   4.879  0.4008 -0.4251  0.0068
  466MOL0     C61407   1.988   8.309   4.958  0.2752 -0.2725 -0.2653
  466MOL0     C61408   1.987   8.323   5.097 -0.8269  0.3162  0.2428
  466MOL0     C61409   1.854   8.308   5.185  0.5169  0.3473 -0.1822
  466MOL0     O61410   1.861   8.341   5.315 -0.5719 -0.1970  0.8374
  466MOL0     C61411   1.770   8.281   5.400  0.2370  0.0508 -0.3234
  466MOL0     C61412   1.625   8.291   5.391  0.0637  0.0949 -0.0692
  466MOL0     C61413   1.544   8.235   5.494 -0.1430  0.1384 -0.4991
  466MOL0     C61414   1.596   8.155   5.598 -1.0912  0.2082 -0.6251
  466MOL0     O61415   1.518   8.092   5.690 -0.9022 -0.2805  0.1130
  466MOL0     C61416   1.380   8.068   5.660  0.0940  0.5523  0.9923
  466MOL0     C61417   1.297   7.995   5.768 -0.0857  0.3357 -0.3384
  466MOL0     C61418   1.328   8.060   5.899 -0.1737 -0.0027 -1.0853
  466MOL0     C61419   1.246   8.007   6.017 -0.1102  0.8252  0.3994
  466MOL0     C61420   1.307   8.059   6.150 -0.3863  0.2945 -0.3369
  466MOL0     C61421   1.254   7.983   6.276 -0.4509 -1.2211  0.9441
  466MOL0     C61422   1.341   8.030   6.390  0.0585 -0.0937 -0.8399
  466MOL0     C61423   1.314   7.947   6.515 -0.4506 -0.4179 -0.1460
  466MOL0    Cl61424   1.146   7.942   6.560  0.4958 -0.0976 -0.4678
  466MOL0     C61425   1.735   8.167   5.616 -0.5997  0.2037  0.0627
  466MOL0     C61426   1.819   8.222   5.520 -0.2813  0.6150 -0.4700
  466MOL0     O61427   1.766   8.245   5.129  0.6084  0.1605 -0.4979
  466MOL0     C61428   2.110   8.346   5.156  0.6519  0.3348  0.2479
  466MOL0     C61429   2.225   8.363   5.079  0.3440 -0.9337  0.0862
  466MOL0     N61430   2.845   8.067   4.801  0.4267  0.1097 -0.2734
  466MOL0     N61431   2.937   7.972   4.824  0.8520  0.2229 -0.0759
  466MOL0     C61432   3.879   7.419   4.458  0.9052  0.5628 -0.3595
  466MOL0     C61433   4.009   7.398   4.421 -0.1845 -0.0345 -0.2329
  466MOL0     C61434   4.421   7.394   4.183 -0.2475  0.2990  0.1297
  466MOL0     C61435   4.462   7.304   4.275  0.5730 -0.2612 -1.2292
  466MOL0     C61436   4.598   7.265   4.289 -0.3075  0.2747 -0.2736
  466MOL0     C61437   4.703   7.304   4.207 -0.6381 -0.4358  0.8456
  466MOL0     O61438   4.826   7.253   4.247 -0.1886 -0.1438 -0.2177
  466MOL0     C61439   4.932   7.243   4.154 -0.0004 -0.6129  0.3949
  466MOL0     C61440   4.997   7.377   4.151  0.0703  1.4644 -0.9097
  466MOL0     C61441   5.110   7.378   4.057  0.1543 -0.7621  0.5523
  466MOL0     C61442   5.077   7.437   3.923  0.2859  1.0503  0.2995
  466MOL0     C61443   5.197   7.477   3.849 -0.0443 -0.4502  0.0172
  466MOL0     C61444   5.287   7.518   3.779 -0.2156  0.5961  0.9055
  466MOL0     C61445   4.659   7.376   4.097  0.1003 -0.2309  0.3818
  466MOL0     C61446   4.525   7.424   4.089 -0.7808 -0.2196  0.2605
  466MOL0     H61447   4.015   7.543   4.111 -1.9621  1.2115 -0.5841
  466MOL0     H61448   3.790   7.584   4.170  0.9420 -1.5053 -0.4209
  466MOL0     H61449   3.548   7.607   4.262  3.4181  0.3840 -1.8071
  466MOL0     H61450   3.642   7.715   4.364  0.4266 -0.7851  0.2432
  466MOL0     H61451   3.500   7.616   4.575  0.0884 -0.4382 -0.1795
  466MOL0     H61452   3.418   7.531   4.448  3.1403 -0.3746 -3.4747
  466MOL0     H61453   3.339   7.730   4.342 -0.6153  2.1831  0.1115
  466MOL0     H61454   3.424   7.831   4.452  0.4142 -0.1464 -0.0090
  466MOL0     H61455   3.182   7.798   4.509  0.1722  0.1048 -1.5264
  466MOL0     H61456   3.211   7.626   4.541 -1.8792  0.9446 -0.6681
  466MOL0     H61457   3.382   7.725   4.727  0.8371  1.0519  0.2446
  466MOL0     H61458   3.205   7.727   4.753  2.2718 -1.0247  1.3791
  466MOL0     H61459   3.192   7.970   4.684  0.8324 -0.3630  0.6048
  466MOL0     H61460   3.373   7.956   4.650  1.1654 -1.2883  0.2310
  466MOL0     H61461   3.376   7.907   4.905 -0.0969 -1.4510 -1.4665
  466MOL0     H61462   3.323   8.072   4.852  2.3465 -0.0879 -0.7690
  466MOL0     H61463   3.177   7.974   5.023 -1.1562  1.5614 -0.2294
  466MOL0     H61464   3.131   7.842   4.921  1.3859  0.2068 -1.4254
  466MOL0     H61465   3.119   8.233   4.911  0.4241  2.0089 -1.3941
  466MOL0     H61466   2.803   8.313   4.704  1.8920 -2.4389 -0.0895
  466MOL0     H61467   2.903   8.409   4.811 -1.7299  2.0052 -0.7732
  466MOL0     H61468   2.725   8.446   4.952 -1.1930  0.2489  0.0970
  466MOL0     H61469   2.721   8.272   4.992  3.7903 -0.5981 -0.5038
  466MOL0     H61470   2.573   8.423   4.769 -1.3031 -0.4727  0.0458
  466MOL0     H61471   2.567   8.258   4.772  1.6722  0.7739 -2.1535
  466MOL0     H61472   2.478   8.433   5.001  0.0602  0.1427  0.5375
  466MOL0     H61473   2.467   8.260   5.007 -1.2685  1.2040  0.9593
  466MOL0     H61474   2.097   8.332   4.771  1.8236 -0.0711 -0.0703
  466MOL0     H61475   1.891   8.313   4.910  0.7340  1.1255 -1.1404
  466MOL0     H61476   1.574   8.350   5.316 -2.1651 -1.1902  0.3374
  466MOL0     H61477   1.435   8.237   5.490 -0.3009  1.7886  2.3090
  466MOL0     H61478   1.364   8.014   5.566  2.4001  0.0517  0.8352
  466MOL0     H61479   1.333   8.166   5.650 -2.6478 -0.6889  0.5410
  466MOL0     H61480   1.322   7.889   5.782  1.7349  0.9695  1.7169
  466MOL0     H61481   1.189   7.997   5.752 -0.1998 -2.4080 -0.4433
  466MOL0     H61482   1.297   8.165   5.908 -0.4418 -0.1508 -0.1116
  466MOL0     H61483   1.435   8.062   5.921  0.1750  1.7784 -2.6425
  466MOL0     H61484   1.140   8.031   6.005 -0.5756 -0.0091  2.3763
  466MOL0     H61485   1.245   7.898   6.032 -2.3901  0.8915  1.1533
  466MOL0     H61486   1.300   8.168   6.147 -0.1021  0.3204 -0.1567
  466MOL0     H61487   1.411   8.025   6.147 -1.2278 -2.7531  0.4975
  466MOL0     H61488   1.264   7.874   6.273  0.7284 -1.1446  1.3172
  466MOL0     H61489   1.149   8.010   6.288 -1.2347 -3.1652 -0.7950
  466MOL0     H61490   1.447   8.023   6.362  0.8169 -2.9871  2.1285
  466MOL0     H61491   1.311   8.131   6.419 -1.5666 -1.2059  1.6316
  466MOL0     H61492   1.369   7.989   6.600 -0.5335 -1.0846  0.2446
  466MOL0     H61493   1.357   7.851   6.484  0.4453 -0.0184 -0.1829
  466MOL0     H61494   1.800   8.120   5.688 -0.9889  0.5348  0.6366
  466MOL0     H61495   1.925   8.240   5.528 -0.1292 -0.3956 -0.1275
  466MOL0     H61496   2.105   8.354   5.264  1.2679 -2.0081  0.5033
  466MOL0     H61497   2.315   8.370   5.138  1.2404 -1.8415 -1.1268
  466MOL0     H61498   3.824   7.385   4.546  0.2239  1.7485 -0.3105
  466MOL0     H61499   4.075   7.343   4.487 -2.5988 -1.3419  1.2678
  466MOL0     H61500   4.400   7.261   4.354 -1.3018  1.4317 -1.7056
  466MOL0     H61501   4.630   7.197   4.367  0.4553 -1.7556 -2.2552
  466MOL0     H61502   4.896   7.221   4.054 -0.4508  1.4198  0.0603
  466MOL0     H61503   4.996   7.163   4.192 -0.1614  0.1591  2.4569
  466MOL0     H61504   4.921   7.448   4.116 -1.4278 -1.1149 -3.2544
  466MOL0     H61505   5.024   7.404   4.253  1.1360  0.3422 -0.8777
  466MOL0     H61506   5.152   7.278   4.039 -1.7210 -1.5009  0.0146
  466MOL0     H61507   5.186   7.444   4.099  0.6060 -1.2503  0.5197
  466MOL0     H61508   5.029   7.350   3.877  2.1892 -0.7504  1.5473
  466MOL0     H61509   5.005   7.519   3.936 -1.0354 -0.2379  1.4369
  466MOL0     H61510   5.360   7.544   3.705  0.0681 -0.0619  0.9512
  466MOL0     H61511   4.722   7.387   4.010  0.7353 -2.6460  0.4661
  466MOL0     H61512   4.503   7.465   3.991 -0.7931  1.5657  0.9796
  467MOL0     O61513  10.691   4.709   3.198 -0.1263  0.5968  0.5208
  467MOL0     C61514  10.630   4.681   3.095  0.1387  0.0130 -0.3502
  467MOL0     O61515  10.682   4.691   2.969 -0.1839  0.0562  0.8159
  467MOL0     C61516  10.806   4.740   2.947  0.4075 -0.0792 -0.2910
  467MOL0     C61517  10.818   4.840   2.851 -0.8861  0.1496  0.4223
  467MOL0     C61518  10.945   4.891   2.818 -0.4943 -0.1108  0.6689
  467MOL0     C61519  11.059   4.844   2.892 -0.8951  0.2916 -0.0758
  467MOL0     O61520  11.182   4.900   2.852  0.3497 -0.2754 -0.5514
  467MOL0     C61521  11.275   4.807   2.803 -0.2119 -0.4018 -0.0374
  467MOL0     C61522  11.238   4.758   2.658  0.0615  0.9120  0.4251
  467MOL0     C61523  11.349   4.667   2.594  0.4428 -0.2021 -0.6856
  467MOL0     C61524  11.364   4.530   2.665  0.6085  0.0692  0.6084
  467MOL0     C61525  11.240   4.443   2.648 -0.1286  1.0461 -0.7672
  467MOL0     C61526  11.274   4.296   2.687 -0.6222 -0.5217  0.1164
  467MOL0     C61527  11.311   4.294   2.834 -0.0724 -0.1946  0.2987
  467MOL0     C61528  11.344   4.147   2.870  0.6100 -0.2660 -0.0269
  467MOL0     N61529  11.479   4.099   2.827  0.4127 -0.0456 -0.8723
  467MOL0     C61530  11.605   4.141   2.867  0.2889 -0.9833 -0.3902
  467MOL0     C61531  11.687   4.056   2.802  0.9178  0.1958 -0.2925
  467MOL0     C61532  11.837   4.059   2.830  0.1953  0.0030  0.1147
  467MOL0     C61533  11.913   4.173   2.758  0.5462 -0.7295  0.0098
  467MOL0     C61534  11.892   4.175   2.609  0.8460 -0.2084 -0.3858
  467MOL0     C61535  11.781   4.264   2.558 -0.8002  0.1318 -0.0326
  467MOL0     O61536  11.802   4.281   2.417  0.5932 -0.4075 -0.1451
  467MOL0     C61537  11.695   4.304   2.334 -0.3664  0.8560  0.3315
  467MOL0     C61538  11.562   4.328   2.371  0.3422 -0.3652 -0.7740
  467MOL0     C61539  11.460   4.341   2.273 -0.3633  0.0407 -0.0711
  467MOL0     C61540  11.487   4.316   2.134  0.4365  0.4172  0.4067
  467MOL0     C61541  11.368   4.303   2.038 -0.1651  0.7566 -0.3529
  467MOL0     O61542  11.244   4.314   2.101 -0.6721 -0.0891 -0.1694
  467MOL0     C61543  11.128   4.280   2.040 -0.3318 -0.2723  1.0438
  467MOL0     C61544  11.031   4.246   2.133 -0.1440  0.5255 -0.0558
  467MOL0     C61545  10.908   4.210   2.086 -0.6025 -0.3170  0.0124
  467MOL0     C61546  10.874   4.216   1.946  0.1879 -0.2995  0.4699
  467MOL0     O61547  10.749   4.196   1.892  0.3947  0.6541  0.2893
  467MOL0     C61548  10.651   4.158   1.984 -0.7110 -0.1433  0.8718
  467MOL0     C61549  10.533   4.124   1.902  0.2195 -0.5485 -0.0012
  467MOL0     C61550  10.429   4.228   1.915  0.6989  0.7724 -0.1210
  467MOL0     C61551  10.316   4.194   1.819  0.5514 -0.0427 -0.3344
  467MOL0     C61552  10.183   4.266   1.852 -0.1296 -0.3116 -0.2432
  467MOL0     C61553  10.191   4.418   1.898 -0.2641  0.6949  0.9355
  467MOL0     C61554  10.055   4.484   1.884  0.2174 -1.0354  0.5673
  467MOL0     C61555   9.940   4.426   1.957  0.5609 -1.0307 -0.6709
  467MOL0    Cl61556   9.791   4.527   1.974  0.4138 -0.1586  0.4739
  467MOL0     C61557  10.972   4.246   1.855 -0.7199  0.4750 -0.6943
  467MOL0     C61558  11.103   4.274   1.907 -0.0919  0.2910  0.5281
  467MOL0     O61559  11.397   4.275   1.918 -1.1023  0.1737 -0.5311
  467MOL0     C61560  11.618   4.288   2.104  0.3996  0.9114  0.3494
  467MOL0     C61561  11.725   4.288   2.199 -0.7438 -0.2297 -0.4425
  467MOL0     N61562  11.619   3.966   2.722 -0.3698  0.0171 -0.5663
  467MOL0     N61563  11.488   3.990   2.747  0.0977 -0.9776 -0.2178
  467MOL0     C61564  11.041   4.740   2.982  0.3758 -0.3701  0.6634
  467MOL0     C61565  10.916   4.689   3.009 -0.4169  1.1108  0.3241
  467MOL0     C61566  10.489   4.655   3.117  0.3604 -0.3177  0.7706
  467MOL0     C61567  10.429   4.653   3.239  0.7188  0.6930  0.1088
  467MOL0     C61568  10.295   4.609   3.249  0.5371 -0.3525  0.2511
  467MOL0     C61569  10.218   4.591   3.131  1.6553 -1.0559  0.2558
  467MOL0     O61570  10.083   4.560   3.152  0.0108 -0.2419 -0.1775
  467MOL0     C61571   9.983   4.559   3.045  0.4064 -0.1873  0.1499
  467MOL0     C61572   9.850   4.542   3.109  0.4646  1.4076  0.3144
  467MOL0     C61573   9.805   4.659   3.204  0.6468 -0.0651 -0.8039
  467MOL0     C61574   9.700   4.623   3.315  0.1329  0.9883  0.4169
  467MOL0     C61575   9.567   4.593   3.251 -0.0635  0.0424 -0.4075
  467MOL0     C61576   9.471   4.566   3.186 -0.0429 -0.6920 -0.8248
  467MOL0     C61577  10.288   4.607   3.008 -0.1426 -0.4267 -0.4087
  467MOL0     C61578  10.417   4.626   3.002  0.1283  0.0078 -0.1050
  467MOL0     H61579  10.737   4.885   2.796  0.4197 -0.0384 -1.7958
  467MOL0     H61580  10.964   4.969   2.745 -1.3181  0.8874  1.4996
  467MOL0     H61581  11.279   4.723   2.873 -2.6642  1.0425  2.0413
  467MOL0     H61582  11.372   4.856   2.805  0.6779 -2.0826  2.5277
  467MOL0     H61583  11.208   4.851   2.608  0.6858  0.1545 -1.4506
  467MOL0     H61584  11.141   4.708   2.663 -0.4653  1.8212 -0.4158
  467MOL0     H61585  11.445   4.716   2.578  0.2792  0.0467 -0.9213
  467MOL0     H61586  11.307   4.643   2.496 -3.1971  2.9843 -0.1564
  467MOL0     H61587  11.446   4.488   2.606 -1.2944  1.2373 -3.2614
  467MOL0     H61588  11.386   4.546   2.771 -1.6270  1.7489  0.8967
  467MOL0     H61589  11.213   4.457   2.543  0.4368  0.2255 -1.0315
  467MOL0     H61590  11.158   4.480   2.710 -0.4490  1.3580 -1.3748
  467MOL0     H61591  11.366   4.271   2.632 -1.0664  0.9122 -1.3458
  467MOL0     H61592  11.192   4.227   2.663  0.5067 -1.4571 -1.2829
  467MOL0     H61593  11.396   4.360   2.854 -0.5486  0.3285  0.6438
  467MOL0     H61594  11.223   4.312   2.897 -1.1353 -1.1761 -0.8489
  467MOL0     H61595  11.271   4.076   2.829  0.0502  0.9886 -1.2739
  467MOL0     H61596  11.340   4.126   2.977  1.7391 -2.7194 -0.3986
  467MOL0     H61597  11.637   4.227   2.926 -2.4190  0.1479 -0.3965
  467MOL0     H61598  11.887   3.966   2.800 -0.0423 -0.4996  1.1940
  467MOL0     H61599  11.855   4.071   2.938  1.2152 -0.0558 -0.0355
  467MOL0     H61600  12.018   4.175   2.787  0.3953 -2.1974  0.7917
  467MOL0     H61601  11.861   4.260   2.799 -2.1207 -2.4388  0.5487
  467MOL0     H61602  11.982   4.197   2.550  0.0273 -0.7325 -1.8789
  467MOL0     H61603  11.870   4.079   2.562 -2.6212 -0.5037  1.4918
  467MOL0     H61604  11.795   4.362   2.603  4.4883  0.1229 -1.1017
  467MOL0     H61605  11.682   4.228   2.589 -1.4638  1.3453 -0.6625
  467MOL0     H61606  11.539   4.331   2.477  0.9650 -2.6349 -0.5184
  467MOL0     H61607  11.357   4.356   2.304 -1.0919 -2.1133 -1.2052
  467MOL0     H61608  11.055   4.222   2.236  3.6358 -0.7451 -1.0659
  467MOL0     H61609  10.837   4.165   2.155  0.9665 -0.9321  1.2924
  467MOL0     H61610  10.622   4.236   2.055  1.3352  0.7448  0.8022
  467MOL0     H61611  10.676   4.067   2.040  1.5476  1.2009  2.1650
  467MOL0     H61612  10.506   4.024   1.937  0.2896 -0.5251  0.1238
  467MOL0     H61613  10.562   4.115   1.797 -2.0624 -4.9751 -0.4679
  467MOL0     H61614  10.473   4.325   1.889 -1.9562  1.9661 -0.3918
  467MOL0     H61615  10.396   4.240   2.019 -0.2745  2.0280 -0.5488
  467MOL0     H61616  10.345   4.230   1.720 -0.0491 -0.8942 -0.8344
  467MOL0     H61617  10.293   4.087   1.815 -1.8805  0.4649 -2.4085
  467MOL0     H61618  10.141   4.200   1.929  1.9225 -1.0682  0.3054
  467MOL0     H61619  10.116   4.256   1.766 -1.9572  2.1850  0.7480
  467MOL0     H61620  10.258   4.475   1.833  0.4376 -0.3531  0.7003
  467MOL0     H61621  10.227   4.434   2.000  1.7727 -0.4887  0.4619
  467MOL0     H61622  10.062   4.589   1.912 -0.7710 -0.4994 -1.0663
  467MOL0     H61623  10.039   4.489   1.776  0.9046  0.7509  0.5272
  467MOL0     H61624   9.974   4.399   2.058  1.0306  2.9540  0.4211
  467MOL0     H61625   9.920   4.334   1.902  0.4898 -1.1670 -0.4200
  467MOL0     H61626  10.946   4.252   1.750 -0.4715  5.3757 -0.7210
  467MOL0     H61627  11.179   4.291   1.833  1.0076 -2.0900  0.9967
  467MOL0     H61628  11.640   4.266   2.000  1.0065  0.2412  0.6126
  467MOL0     H61629  11.821   4.272   2.151  0.1106  0.1715  1.0494
  467MOL0     H61630  11.127   4.701   3.036  1.9940  2.7967  0.5755
  467MOL0     H61631  10.919   4.601   3.072  0.9404 -0.8372 -2.2646
  467MOL0     H61632  10.482   4.675   3.332  0.8077 -1.3086  0.5789
  467MOL0     H61633  10.247   4.610   3.347 -1.7335 -3.1587 -0.6587
  467MOL0     H61634   9.993   4.461   2.998 -0.8253 -1.6523  2.7191
  467MOL0     H61635   9.992   4.638   2.969  3.1454 -0.7434 -0.2197
  467MOL0     H61636   9.778   4.541   3.027  0.6470 -1.3127  0.0975
  467MOL0     H61637   9.850   4.443   3.157  0.4760  0.5216 -1.4266
  467MOL0     H61638   9.767   4.751   3.158  1.5111 -0.0219 -1.4750
  467MOL0     H61639   9.896   4.690   3.257 -1.0761  0.8298  1.8024
  467MOL0     H61640   9.735   4.540   3.377 -0.3832  0.9878  0.7142
  467MOL0     H61641   9.687   4.712   3.378 -0.8099  1.5162 -0.4903
  467MOL0     H61642   9.377   4.544   3.139  0.7228 -0.9554 -2.2751
  467MOL0     H61643  10.234   4.586   2.916  0.6245 -0.4265 -0.8709
  467MOL0     H61644  10.460   4.602   2.906 -1.3329 -0.7274 -0.6032
  468MOL0     O61645  10.097   5.362   6.201 -0.1247 -0.5614 -0.6348
  468MOL0     C61646  10.178   5.296   6.255 -0.1682  0.2451 -0.5590
  468MOL0     O61647  10.152   5.195   6.345 -0.0172  1.1361  0.6613
  468MOL0     C61648  10.016   5.171   6.375 -0.6904 -0.0728  0.6651
  468MOL0     C61649   9.957   5.045   6.363  0.7154  0.4180 -1.3969
  468MOL0     C61650   9.825   5.015   6.412  0.2664 -0.2748  0.1434
  468MOL0     C61651   9.751   5.130   6.460  0.2669  0.3643 -0.1690
  468MOL0     O61652   9.621   5.123   6.503  0.2465 -0.7539 -0.7285
  468MOL0     C61653   9.526   5.033   6.433 -0.5092 -0.3284 -0.0803
  468MOL0     C61654   9.506   4.900   6.511  0.1792 -0.5709  0.3417
  468MOL0     C61655   9.393   4.818   6.453  0.5762  0.3911  0.6420
  468MOL0     C61656   9.434   4.726   6.330  0.1239 -0.4383 -0.5087
  468MOL0     C61657   9.314   4.669   6.275  0.0021  1.3030 -0.1668
  468MOL0     C61658   9.256   4.558   6.357 -0.2494  0.4509  0.3746
  468MOL0     C61659   9.168   4.459   6.280 -0.5250 -0.9968  0.2621
  468MOL0     C61660   9.026   4.491   6.284  0.1785 -0.7284 -0.6855
  468MOL0     N61661   8.953   4.417   6.182 -0.1133 -0.9137  0.1049
  468MOL0     C61662   8.862   4.316   6.208 -0.0377  0.8579  0.1399
  468MOL0     C61663   8.814   4.290   6.082 -0.4746 -0.0260  0.4144
  468MOL0     C61664   8.719   4.188   6.029 -0.1235 -0.8376 -0.9680
  468MOL0     C61665   8.616   4.241   5.926  0.6599 -0.1052 -1.1199
  468MOL0     C61666   8.642   4.194   5.787  0.7064  0.1018 -0.1389
  468MOL0     C61667   8.530   4.220   5.687 -0.5729 -0.2845  0.4265
  468MOL0     O61668   8.403   4.162   5.721 -0.5686  0.5979 -0.6059
  468MOL0     C61669   8.306   4.172   5.623 -0.6373 -0.1128 -0.7507
  468MOL0     C61670   8.175   4.138   5.663  0.3022  0.4239 -0.2036
  468MOL0     C61671   8.057   4.163   5.584  0.4830  0.9206  0.5700
  468MOL0     C61672   8.077   4.218   5.464  0.0574 -0.1834  0.0304
  468MOL0     C61673   7.965   4.252   5.374 -0.5506  0.1497  0.4765
  468MOL0     O61674   7.975   4.376   5.329  0.6165 -0.5709  0.4494
  468MOL0     C61675   7.881   4.410   5.234  0.1889 -0.4741 -0.0645
  468MOL0     C61676   7.893   4.387   5.098  0.4955 -0.4263  0.3350
  468MOL0     C61677   7.794   4.420   5.010 -0.1164  0.0243  0.3891
  468MOL0     C61678   7.673   4.477   5.052 -1.2959 -0.5984 -0.1996
  468MOL0     O61679   7.573   4.525   4.969 -0.5258  0.9146 -0.1292
  468MOL0     C61680   7.580   4.510   4.828  0.1655 -0.4825  1.0048
  468MOL0     C61681   7.440   4.520   4.766  0.4314  0.2060  0.6354
  468MOL0     C61682   7.434   4.457   4.625 -0.1988 -0.4520 -0.9177
  468MOL0     C61683   7.291   4.454   4.572 -0.5080  0.1110  1.0299
  468MOL0     C61684   7.275   4.409   4.430  1.0877  0.2944  0.9272
  468MOL0     C61685   7.129   4.397   4.368  0.4173 -0.4175 -0.3278
  468MOL0     C61686   7.163   4.357   4.221 -0.2150 -0.3267 -0.3508
  468MOL0     C61687   7.053   4.314   4.123  0.2571 -0.1083  0.0193
  468MOL0    Cl61688   6.928   4.434   4.113  0.3427 -0.1599  0.4489
  468MOL0     C61689   7.651   4.488   5.187  0.2773 -0.1111  0.5660
  468MOL0     C61690   7.755   4.452   5.277  0.5459  0.0007  0.2919
  468MOL0     O61691   7.880   4.169   5.350  0.3137 -0.2546 -0.1382
  468MOL0     C61692   8.210   4.245   5.416 -1.0334  0.5541 -0.4721
  468MOL0     C61693   8.322   4.226   5.498 -0.7834 -0.5426 -0.1785
  468MOL0     N61694   8.867   4.385   5.998  0.5480 -0.0282 -0.5101
  468MOL0     N61695   8.961   4.456   6.051 -0.4290  0.0023 -0.4690
  468MOL0     C61696   9.818   5.252   6.469 -0.2436  0.6630 -0.4696
  468MOL0     C61697   9.951   5.269   6.440 -0.2538  0.9093  0.6379
  468MOL0     C61698  10.316   5.317   6.226 -0.4620 -1.0205 -0.8257
  468MOL0     C61699  10.346   5.413   6.123 -0.7513 -0.9818  0.2318
  468MOL0     C61700  10.481   5.431   6.088  0.3738  0.0039 -0.3664
  468MOL0     C61701  10.582   5.353   6.145 -0.7938 -0.5566 -0.2577
  468MOL0     O61702  10.704   5.371   6.083 -0.8981  0.3455 -0.4016
  468MOL0     C61703  10.815   5.286   6.119 -0.7033  1.0875 -0.6948
  468MOL0     C61704  10.814   5.144   6.070 -0.0698  0.2052 -0.9635
  468MOL0     C61705  10.829   5.120   5.922 -0.5918  0.1068 -0.6607
  468MOL0     C61706  10.944   5.188   5.845  0.0058  0.3564 -0.1475
  468MOL0     C61707  11.072   5.127   5.870  0.2952  0.1058 -0.1254
  468MOL0     C61708  11.180   5.092   5.919 -0.6324 -0.0560 -1.1072
  468MOL0     C61709  10.544   5.254   6.239  0.3818 -0.4600  0.0807
  468MOL0     C61710  10.415   5.234   6.273 -0.3480 -0.6038  0.7218
  468MOL0     H61711  10.013   4.959   6.328  0.2066 -0.5363  0.0094
  468MOL0     H61712   9.766   4.924   6.416 -1.3892  0.8142  1.6772
  468MOL0     H61713   9.561   5.015   6.330 -0.4332  0.4899 -0.2039
  468MOL0     H61714   9.429   5.084   6.429  0.4533  1.5285 -2.1115
  468MOL0     H61715   9.485   4.926   6.615  0.5139 -0.3263  0.3462
  468MOL0     H61716   9.594   4.836   6.517  1.0080  0.4791 -0.3451
  468MOL0     H61717   9.305   4.872   6.416 -0.0360 -0.6142  0.6054
  468MOL0     H61718   9.348   4.760   6.534 -1.4075  0.9960  0.0071
  468MOL0     H61719   9.472   4.790   6.249  1.6126  3.5113  2.8936
  468MOL0     H61720   9.516   4.662   6.363 -0.3318  0.2913  2.2929
  468MOL0     H61721   9.343   4.616   6.185 -0.3851  3.2300 -1.4956
  468MOL0     H61722   9.234   4.735   6.239 -0.3064  0.4019 -1.1714
  468MOL0     H61723   9.199   4.585   6.447 -0.9390 -1.8562  0.7140
  468MOL0     H61724   9.343   4.497   6.382 -1.7745 -2.2066 -0.2759
  468MOL0     H61725   9.202   4.458   6.176 -0.5495  1.3365  0.1819
  468MOL0     H61726   9.176   4.356   6.315 -0.8803 -1.4456 -0.9332
  468MOL0     H61727   9.017   4.600   6.271  1.9081 -0.8056 -2.9498
  468MOL0     H61728   8.994   4.457   6.383 -0.8547  0.0628 -0.7294
  468MOL0     H61729   8.832   4.273   6.303  0.5169  1.3125  0.5303
  468MOL0     H61730   8.662   4.153   6.115 -2.0071 -1.0389 -2.2403
  468MOL0     H61731   8.769   4.105   5.978 -2.2428 -1.5517 -1.9955
  468MOL0     H61732   8.629   4.350   5.927 -1.3549  0.2033  1.8014
  468MOL0     H61733   8.520   4.213   5.970  0.0495  1.0006 -1.7022
  468MOL0     H61734   8.734   4.239   5.747 -0.8536  0.4529 -3.7966
  468MOL0     H61735   8.646   4.085   5.791 -0.2472  0.0672  0.3999
  468MOL0     H61736   8.569   4.186   5.591  2.8569 -2.7838  2.4687
  468MOL0     H61737   8.509   4.326   5.668  0.5494  0.3814  2.5763
  468MOL0     H61738   8.164   4.105   5.766 -2.3157  1.1828 -0.1726
  468MOL0     H61739   7.959   4.139   5.624  1.4046 -1.5069  1.5869
  468MOL0     H61740   7.981   4.338   5.057  0.5613 -0.0470  0.0164
  468MOL0     H61741   7.818   4.432   4.905  0.4447 -0.3923  0.4669
  468MOL0     H61742   7.613   4.409   4.801 -2.4287 -0.7096 -1.8632
  468MOL0     H61743   7.647   4.583   4.782  1.3142 -1.6725  0.7097
  468MOL0     H61744   7.410   4.625   4.769  1.3409  0.4564  2.9588
  468MOL0     H61745   7.367   4.478   4.836  0.5685  1.0258  1.2890
  468MOL0     H61746   7.461   4.351   4.629 -4.2916 -1.6298  1.2418
  468MOL0     H61747   7.500   4.494   4.546 -1.5565 -2.7115 -3.3114
  468MOL0     H61748   7.235   4.380   4.631 -1.4351  0.8813  1.1387
  468MOL0     H61749   7.243   4.552   4.582 -1.2771 -0.2840  1.3251
  468MOL0     H61750   7.301   4.303   4.424  0.0322 -0.0046  1.4926
  468MOL0     H61751   7.342   4.467   4.366  2.1064 -0.3740  1.3568
  468MOL0     H61752   7.075   4.492   4.371 -2.5261 -1.9979 -0.0181
  468MOL0     H61753   7.067   4.324   4.420 -0.4026  1.3546  1.3030
  468MOL0     H61754   7.216   4.448   4.191 -2.4667  1.7177  1.4303
  468MOL0     H61755   7.234   4.275   4.227  2.1908  1.2643 -3.6293
  468MOL0     H61756   7.012   4.217   4.153 -1.5934  0.1196 -1.5772
  468MOL0     H61757   7.114   4.312   4.032  0.9682 -0.4638  0.4900
  468MOL0     H61758   7.557   4.534   5.217 -0.5006  0.0166 -1.8530
  468MOL0     H61759   7.740   4.461   5.384  0.4204 -0.6024  0.3279
  468MOL0     H61760   8.227   4.297   5.322  1.3350  0.2708 -0.2644
  468MOL0     H61761   8.418   4.247   5.453 -0.5100 -2.3487 -0.4971
  468MOL0     H61762   9.772   5.343   6.507  0.5836  0.4999  1.0321
  468MOL0     H61763   9.984   5.371   6.460 -1.2640  1.8531 -2.0890
  468MOL0     H61764  10.278   5.476   6.067  1.6532  1.8023  0.1688
  468MOL0     H61765  10.520   5.497   6.011  0.7650 -1.6462 -1.6504
  468MOL0     H61766  10.819   5.276   6.228  1.1271 -0.1847 -0.8312
  468MOL0     H61767  10.908   5.332   6.085 -0.8382  0.7048 -1.5959
  468MOL0     H61768  10.893   5.090   6.123 -0.9150 -2.1382 -1.9321
  468MOL0     H61769  10.720   5.093   6.097  0.1713  0.1849 -0.1252
  468MOL0     H61770  10.735   5.156   5.879 -0.6727 -0.3074 -0.8376
  468MOL0     H61771  10.831   5.012   5.906 -0.3148 -0.0198  0.1719
  468MOL0     H61772  10.913   5.208   5.742 -0.8064  2.1589  0.4105
  468MOL0     H61773  10.964   5.284   5.893  1.2412 -0.6735  1.5204
  468MOL0     H61774  11.278   5.077   5.959 -0.5412  1.9362 -0.5008
  468MOL0     H61775  10.623   5.191   6.276  1.6030  1.8571  1.6773
  468MOL0     H61776  10.381   5.156   6.340 -0.1649 -3.3019 -2.0891
  469MOL0     O61777   3.006   0.136   8.364  0.5990 -0.5496 -0.9210
  469MOL0     C61778   3.021   0.016   8.358 -0.3995 -0.3645 -0.8528
  469MOL0     O61779   2.931  -0.087   8.361  0.1784  0.3472  0.1718
  469MOL0     C61780   2.804  -0.064   8.321 -0.3785 -0.8554  1.2494
  469MOL0     C61781   2.774   0.001   8.193  0.4839 -0.1990  0.7802
  469MOL0     C61782   2.638   0.011   8.156 -0.6574 -0.4236  0.8229
  469MOL0     C61783   2.541  -0.071   8.215 -0.0514  1.0747  0.2838
  469MOL0     O61784   2.419  -0.062   8.155  0.2806  0.2880  0.3485
  469MOL0     C61785   2.310  -0.154   8.190 -0.4074 -0.7862 -0.3936
  469MOL0     C61786   2.196  -0.133   8.095  0.3267  0.3235 -0.1289
  469MOL0     C61787   2.084  -0.242   8.115 -0.4455 -0.5062 -0.3745
  469MOL0     C61788   1.972  -0.213   8.018 -0.0116 -0.0948 -0.7456
  469MOL0     C61789   1.831  -0.278   8.050 -0.0805 -0.0714 -0.0244
  469MOL0     C61790   1.848  -0.429   8.060 -0.0853  0.0860 -0.0324
  469MOL0     C61791   1.713  -0.510   8.059  0.9342 -0.4579 -0.4032
  469MOL0     C61792   1.619  -0.486   7.938  0.2801 -0.3952 -0.3661
  469MOL0     N61793   1.508  -0.581   7.928 -0.5632  0.7892  0.2362
  469MOL0     C61794   1.526  -0.701   7.853  0.1912 -0.3706 -1.1968
  469MOL0     C61795   1.399  -0.742   7.826  0.4704  0.3562  0.2000
  469MOL0     C61796   1.352  -0.869   7.747 -0.4111 -0.9858  0.2025
  469MOL0     C61797   1.255  -0.846   7.638 -0.5306  0.5770  0.2737
  469MOL0     C61798   1.193  -0.979   7.598 -0.6244 -0.0445  0.4245
  469MOL0     C61799   1.152  -0.991   7.452 -0.1812 -0.2423 -0.3195
  469MOL0     O61800   1.053  -0.900   7.427  0.2874  0.8681 -0.1369
  469MOL0     C61801   0.932  -0.962   7.444  1.1809 -0.1973 -0.3796
  469MOL0     C61802   0.880  -1.038   7.340 -0.1474 -0.7346  0.3784
  469MOL0     C61803   0.750  -1.091   7.354 -0.3813 -0.2378  1.1025
  469MOL0     C61804   0.675  -1.080   7.468 -0.4820  0.0341  0.6452
  469MOL0     C61805   0.543  -1.135   7.474 -0.4083  0.3238 -0.1023
  469MOL0     O61806   0.511  -1.251   7.404 -0.5614 -0.4000  0.2656
  469MOL0     C61807   0.391  -1.298   7.428  0.0409  0.2148 -0.6235
  469MOL0     C61808   0.325  -1.349   7.313  0.1753  0.4630 -0.5410
  469MOL0     C61809   0.208  -1.417   7.331 -0.1563 -0.5911  0.4191
  469MOL0     C61810   0.159  -1.439   7.456  0.1292 -0.1312  0.4125
  469MOL0     O61811   0.042  -1.502   7.481 -0.4914  0.3096  0.5789
  469MOL0     C61812  -0.063  -1.512   7.388 -0.1415 -0.9623  0.1727
  469MOL0     C61813  -0.196  -1.547   7.451  0.8286 -0.0070  1.2138
  469MOL0     C61814  -0.312  -1.559   7.359 -0.0089 -0.0597 -0.0965
  469MOL0     C61815  -0.445  -1.579   7.439 -0.5654 -0.4769  0.2048
  469MOL0     C61816  -0.565  -1.574   7.348  0.4554  0.3374  0.2995
  469MOL0     C61817  -0.692  -1.618   7.428 -0.2359  1.0895 -0.0520
  469MOL0     C61818  -0.800  -1.655   7.324  0.3129 -0.0932  0.6053
  469MOL0     C61819  -0.937  -1.678   7.389  0.0996 -0.3757 -0.3200
  469MOL0    Cl61820  -1.015  -1.837   7.340 -0.4409 -0.2456  0.0123
  469MOL0     C61821   0.228  -1.391   7.568  0.1378  0.2962 -0.3496
  469MOL0     C61822   0.345  -1.323   7.559  0.3027 -1.4284 -0.1019
  469MOL0     O61823   0.465  -1.077   7.548 -0.6420 -0.1723  0.3558
  469MOL0     C61824   0.725  -1.003   7.578 -0.4034 -0.2750  0.3500
  469MOL0     C61825   0.854  -0.949   7.561 -1.0399 -0.0621  0.2074
  469MOL0     N61826   1.310  -0.653   7.883  0.1844  1.4711  0.6680
  469MOL0     N61827   1.375  -0.565   7.944  0.9060  0.3543 -0.0560
  469MOL0     C61828   2.569  -0.138   8.333 -0.1270  0.7559  0.0174
  469MOL0     C61829   2.701  -0.129   8.383 -0.1096  0.1855 -0.5048
  469MOL0     C61830   3.166  -0.026   8.317  0.3270 -0.3910 -0.7111
  469MOL0     C61831   3.272   0.063   8.291 -0.1412  0.4259 -0.6106
  469MOL0     C61832   3.409   0.023   8.270  0.1194 -0.0533 -0.0037
  469MOL0     C61833   3.434  -0.114   8.263  0.4186 -0.7478  0.0958
  469MOL0     O61834   3.549  -0.167   8.218  0.4337 -0.2131 -0.1238
  469MOL0     C61835   3.649  -0.074   8.170 -0.7133  0.1639  0.2231
  469MOL0     C61836   3.759  -0.155   8.101  0.3108 -0.6838  0.2727
  469MOL0     C61837   3.852  -0.220   8.198  0.3010  0.1118 -0.8372
  469MOL0     C61838   3.928  -0.333   8.134 -0.8471  0.0641  0.0790
  469MOL0     C61839   4.035  -0.383   8.223  0.4478  0.5505  0.0193
  469MOL0     C61840   4.117  -0.447   8.287 -0.4411 -0.7775  0.1693
  469MOL0     C61841   3.333  -0.204   8.301 -0.5478 -0.3138 -0.5277
  469MOL0     C61842   3.199  -0.170   8.315  0.1827  0.3870  0.0015
  469MOL0     H61843   2.848   0.055   8.135 -0.2250 -1.8297 -1.8082
  469MOL0     H61844   2.606   0.072   8.072 -0.7023 -0.0254  1.1234
  469MOL0     H61845   2.283  -0.151   8.296  0.9407 -2.1747  0.0239
  469MOL0     H61846   2.351  -0.255   8.180  0.4140 -0.7348  1.8149
  469MOL0     H61847   2.229  -0.125   7.991 -1.6163  0.6150 -0.7621
  469MOL0     H61848   2.167  -0.032   8.127 -0.4274  0.7751 -2.1332
  469MOL0     H61849   2.045  -0.235   8.217  0.7028 -2.9363  0.3121
  469MOL0     H61850   2.120  -0.343   8.092 -1.6017 -0.4674 -2.6060
  469MOL0     H61851   1.963  -0.104   8.016 -1.4148 -0.0565  2.1411
  469MOL0     H61852   2.012  -0.239   7.920 -0.8684 -2.0420 -0.6200
  469MOL0     H61853   1.753  -0.263   7.975  1.8707  1.0583 -1.9206
  469MOL0     H61854   1.792  -0.238   8.144 -1.3721 -3.8998  1.2430
  469MOL0     H61855   1.904  -0.458   8.149 -0.5563  0.8049  0.5108
  469MOL0     H61856   1.900  -0.467   7.972 -2.7558 -4.5179  0.0528
  469MOL0     H61857   1.735  -0.617   8.065 -1.6131 -0.9662  2.1882
  469MOL0     H61858   1.661  -0.481   8.151  0.7904 -0.8804 -0.3484
  469MOL0     H61859   1.664  -0.476   7.839  0.1930 -2.0985 -0.5973
  469MOL0     H61860   1.556  -0.398   7.956 -1.2463 -1.3063 -0.9884
  469MOL0     H61861   1.626  -0.737   7.830  1.5531  0.0649  3.0866
  469MOL0     H61862   1.324  -0.945   7.820 -0.3557 -0.3365  0.9205
  469MOL0     H61863   1.438  -0.913   7.696 -0.4021  1.0881 -1.7818
  469MOL0     H61864   1.310  -0.797   7.557  1.7722  0.4311  1.6602
  469MOL0     H61865   1.181  -0.784   7.688  1.3700  0.8667  2.9751
  469MOL0     H61866   1.266  -1.059   7.610  0.0499  0.5612  0.3803
  469MOL0     H61867   1.113  -1.010   7.666 -2.8627  0.0012 -2.0287
  469MOL0     H61868   1.130  -1.092   7.418  1.7049 -0.6060 -0.5718
  469MOL0     H61869   1.240  -0.956   7.397  0.6960 -1.9838 -0.0855
  469MOL0     H61870   0.924  -1.052   7.242 -1.0065 -2.6706  0.2198
  469MOL0     H61871   0.706  -1.144   7.269  0.8086  1.3556 -0.5937
  469MOL0     H61872   0.353  -1.328   7.210  0.6538 -0.3201 -0.5732
  469MOL0     H61873   0.149  -1.438   7.243 -0.1852 -0.6840  0.4608
  469MOL0     H61874  -0.035  -1.592   7.319  0.6985 -2.0770  1.7417
  469MOL0     H61875  -0.073  -1.420   7.329  2.4209 -1.7941 -1.7181
  469MOL0     H61876  -0.236  -1.473   7.522 -0.3324 -0.7330  1.3431
  469MOL0     H61877  -0.182  -1.639   7.508  2.4232 -0.3545  0.3275
  469MOL0     H61878  -0.295  -1.642   7.290  1.6237  0.6819 -0.6425
  469MOL0     H61879  -0.323  -1.466   7.302 -2.0195 -1.7436 -2.6797
  469MOL0     H61880  -0.433  -1.676   7.488  1.1912 -2.8440 -4.2834
  469MOL0     H61881  -0.461  -1.502   7.514  3.3751  0.2523  0.5076
  469MOL0     H61882  -0.558  -1.641   7.262 -3.8914 -0.2225  0.1443
  469MOL0     H61883  -0.576  -1.474   7.306  0.9027 -0.5050 -1.9585
  469MOL0     H61884  -0.724  -1.533   7.490 -0.0843 -1.1071  3.2635
  469MOL0     H61885  -0.673  -1.703   7.493 -1.6338  0.3557 -0.5513
  469MOL0     H61886  -0.810  -1.570   7.256 -1.9186  0.1341  1.1421
  469MOL0     H61887  -0.777  -1.749   7.272 -0.1909 -1.2098  2.3012
  469MOL0     H61888  -1.012  -1.602   7.367 -0.8530 -0.7255  1.5118
  469MOL0     H61889  -0.930  -1.690   7.497 -0.0752 -0.0250 -0.2691
  469MOL0     H61890   0.194  -1.409   7.670  1.8362  0.5026  0.3000
  469MOL0     H61891   0.395  -1.298   7.651 -1.9032 -0.2464  0.8666
  469MOL0     H61892   0.659  -0.991   7.664 -2.1794  1.0099 -1.1071
  469MOL0     H61893   0.892  -0.899   7.650 -0.6292 -1.7820  1.0288
  469MOL0     H61894   2.499  -0.184   8.401  1.2755 -0.0989  0.9478
  469MOL0     H61895   2.716  -0.184   8.475 -1.3111  2.3368  1.0619
  469MOL0     H61896   3.254   0.170   8.305 -0.8369  0.3894 -1.1601
  469MOL0     H61897   3.486   0.099   8.263  0.0222 -0.0281 -1.0215
  469MOL0     H61898   3.680  -0.007   8.251 -0.7405  0.1780  0.2214
  469MOL0     H61899   3.608  -0.006   8.094 -0.1246 -1.3525 -1.5367
  469MOL0     H61900   3.715  -0.232   8.037 -2.6561  0.4195  0.8457
  469MOL0     H61901   3.806  -0.087   8.030 -1.0863  2.2308  1.9579
  469MOL0     H61902   3.795  -0.268   8.278 -0.5107 -1.3723 -2.2578
  469MOL0     H61903   3.914  -0.144   8.245  1.5625 -1.1871 -0.3575
  469MOL0     H61904   3.862  -0.414   8.102 -1.0912 -0.0761  0.9211
  469MOL0     H61905   3.972  -0.295   8.041 -2.6231  1.8782 -0.0794
  469MOL0     H61906   4.183  -0.512   8.339 -0.5685 -0.7609  0.3494
  469MOL0     H61907   3.360  -0.309   8.309 -0.7396 -0.3270 -0.0040
  469MOL0     H61908   3.119  -0.242   8.326 -0.0211  0.8076  1.6354
  470MOL0     O61909   9.070   6.854   6.827  0.4889  0.2381 -0.3721
  470MOL0     C61910   9.072   6.932   6.727 -0.1154 -0.5183 -0.0946
  470MOL0     O61911   9.003   6.916   6.615  0.7448 -0.3346 -1.3173
  470MOL0     C61912   8.890   6.843   6.631  0.3072 -0.3870 -0.1329
  470MOL0     C61913   8.899   6.715   6.580 -0.1857  0.5666  0.2307
  470MOL0     C61914   8.786   6.640   6.567  0.4701  0.3468 -0.4359
  470MOL0     C61915   8.659   6.685   6.612  0.2736  0.5308  0.2456
  470MOL0     O61916   8.540   6.614   6.607 -0.2840 -0.0289 -0.4534
  470MOL0     C61917   8.546   6.469   6.606  0.2504  0.5018 -0.3724
  470MOL0     C61918   8.409   6.400   6.639 -0.2148 -0.1465  0.4789
  470MOL0     C61919   8.290   6.474   6.566 -0.8354 -0.1383 -0.6193
  470MOL0     C61920   8.161   6.402   6.596 -0.7698 -0.1770  0.8626
  470MOL0     C61921   8.136   6.275   6.519  0.4569  0.0049 -0.7888
  470MOL0     C61922   8.005   6.221   6.566 -0.6680 -0.8459 -0.2584
  470MOL0     C61923   7.977   6.084   6.506 -0.5779  0.4962  0.0211
  470MOL0     C61924   7.854   6.025   6.587  0.7308  0.5616  0.8786
  470MOL0     N61925   7.772   5.906   6.539 -0.5927  0.0790  0.6598
  470MOL0     C61926   7.811   5.772   6.513 -0.3247  0.1790 -0.2700
  470MOL0     C61927   7.700   5.701   6.497 -0.3791 -0.7609 -0.7686
  470MOL0     C61928   7.677   5.557   6.481 -1.0122  0.5295  0.3969
  470MOL0     C61929   7.532   5.506   6.507  0.4744  0.3403 -1.0442
  470MOL0     C61930   7.445   5.511   6.383 -0.2127  0.6407 -0.6864
  470MOL0     C61931   7.299   5.533   6.418  0.5808  0.1262  0.2710
  470MOL0     O61932   7.248   5.421   6.488  0.3187  0.1922 -0.2173
  470MOL0     C61933   7.110   5.407   6.495  0.8650 -0.4188  0.0736
  470MOL0     C61934   7.068   5.288   6.542  0.4215 -0.4029 -1.0449
  470MOL0     C61935   6.927   5.251   6.542  0.4139  0.5421  0.4432
  470MOL0     C61936   6.834   5.338   6.476 -0.7887  0.4938  0.5662
  470MOL0     C61937   6.685   5.307   6.450 -1.0880 -0.3119  0.1734
  470MOL0     O61938   6.642   5.184   6.491 -0.8424  0.1561 -0.0609
  470MOL0     C61939   6.515   5.136   6.449 -0.0533 -0.4408 -0.3008
  470MOL0     C61940   6.437   5.056   6.538  0.2459  0.4269 -0.4654
  470MOL0     C61941   6.318   4.992   6.486  0.5421  0.2026 -0.0815
  470MOL0     C61942   6.262   5.012   6.359 -0.9935  0.0568  0.5580
  470MOL0     O61943   6.141   4.950   6.325  0.1767 -0.4133 -0.4840
  470MOL0     C61944   6.158   4.812   6.268 -0.4810 -0.8796  0.1640
  470MOL0     C61945   6.076   4.799   6.135  0.2035 -0.8563 -0.3359
  470MOL0     C61946   5.930   4.819   6.153  0.0986  1.5401 -0.7776
  470MOL0     C61947   5.846   4.779   6.033 -0.4314  0.1320 -0.0195
  470MOL0     C61948   5.692   4.789   6.042 -0.4875  0.4448  0.4501
  470MOL0     C61949   5.628   4.707   6.159 -0.1429 -0.3375 -0.4250
  470MOL0     C61950   5.647   4.553   6.143  0.2882 -0.0665  0.2318
  470MOL0     C61951   5.609   4.493   6.012 -0.3301 -0.1218 -1.0041
  470MOL0    Cl61952   5.437   4.530   5.993 -0.1342  0.6204  0.2988
  470MOL0     C61953   6.335   5.100   6.276 -0.6717  0.5346 -0.3330
  470MOL0     C61954   6.459   5.156   6.320  0.4217  0.0593  0.5521
  470MOL0     O61955   6.615   5.385   6.387 -0.9625  0.0117 -0.4071
  470MOL0     C61956   6.881   5.465   6.432 -0.1995  0.8182 -0.1178
  470MOL0     C61957   7.013   5.505   6.445 -0.3500 -0.3201 -0.6241
  470MOL0     N61958   7.595   5.796   6.510 -0.6040  0.3257  1.1476
  470MOL0     N61959   7.639   5.918   6.536 -0.9108  0.0613  0.3061
  470MOL0     C61960   8.652   6.813   6.667 -0.3868  0.0852  0.3172
  470MOL0     C61961   8.765   6.899   6.661  0.3341 -0.3612 -0.2241
  470MOL0     C61962   9.182   7.034   6.724 -0.2042  0.6018  0.6673
  470MOL0     C61963   9.270   7.032   6.833 -0.4278  0.4529 -0.0205
  470MOL0     C61964   9.382   7.122   6.837  0.2671  1.2562  0.1570
  470MOL0     C61965   9.397   7.217   6.741  0.2757 -0.4207 -0.8792
  470MOL0     O61966   9.496   7.315   6.763  0.2508 -0.3887  0.7679
  470MOL0     C61967   9.500   7.416   6.657 -0.1426 -0.4370 -0.2541
  470MOL0     C61968   9.605   7.515   6.682 -1.1867  0.1322 -0.9836
  470MOL0     C61969   9.753   7.464   6.711 -0.0308  0.3193 -0.2186
  470MOL0     C61970   9.824   7.407   6.594 -0.0749 -0.3947  0.3248
  470MOL0     C61971   9.964   7.411   6.621 -0.6051 -0.7035 -0.7603
  470MOL0     C61972  10.081   7.436   6.623 -0.8212 -0.7797  1.1776
  470MOL0     C61973   9.299   7.231   6.645 -0.3434 -0.7726 -0.0194
  470MOL0     C61974   9.194   7.140   6.632 -0.9776  0.6307 -0.4818
  470MOL0     H61975   8.992   6.685   6.533 -0.5346  2.1674 -1.5844
  470MOL0     H61976   8.798   6.543   6.519 -0.8133 -1.0760  1.9164
  470MOL0     H61977   8.622   6.434   6.676  2.2307  0.0490 -2.6419
  470MOL0     H61978   8.585   6.436   6.510 -1.5724 -1.5003 -0.5146
  470MOL0     H61979   8.386   6.390   6.745 -1.0593  0.0811  0.3237
  470MOL0     H61980   8.411   6.296   6.605 -1.8138  0.0541 -0.3575
  470MOL0     H61981   8.312   6.488   6.460  2.7751  3.3978  0.3614
  470MOL0     H61982   8.265   6.570   6.612 -0.3365  1.2083 -3.0081
  470MOL0     H61983   8.148   6.390   6.705  4.1597 -0.3961  1.6594
  470MOL0     H61984   8.079   6.469   6.571 -1.0066 -0.3532  1.1593
  470MOL0     H61985   8.207   6.195   6.538  1.0971  0.0511 -2.6892
  470MOL0     H61986   8.132   6.295   6.411 -2.6244  0.5129 -0.6848
  470MOL0     H61987   7.928   6.295   6.545  1.9700  2.5388  1.0232
  470MOL0     H61988   8.006   6.208   6.675 -0.2688 -1.5969 -0.3402
  470MOL0     H61989   7.950   6.092   6.400  1.0576 -0.6125 -0.5090
  470MOL0     H61990   8.060   6.016   6.526 -0.7009  0.3166 -0.0818
  470MOL0     H61991   7.782   6.105   6.606 -1.1790 -0.5695 -1.1131
  470MOL0     H61992   7.887   5.988   6.684  0.9661  0.0985  0.6264
  470MOL0     H61993   7.911   5.731   6.528 -0.5589  0.0436  1.0296
  470MOL0     H61994   7.739   5.503   6.554 -1.9526  0.5875  1.2648
  470MOL0     H61995   7.708   5.528   6.380  0.0485 -0.1719  0.9076
  470MOL0     H61996   7.478   5.567   6.580  1.3824 -0.1827  0.1168
  470MOL0     H61997   7.546   5.410   6.558 -0.6250  0.1321 -1.1160
  470MOL0     H61998   7.476   5.590   6.314  0.3118 -0.2552 -1.5008
  470MOL0     H61999   7.455   5.420   6.322 -1.8128  0.4800 -0.7414
  470MOL0     H62000   7.248   5.547   6.322  0.9746  0.4814  0.1127
  470MOL0     H62001   7.284   5.624   6.476  0.0497  1.5390 -1.9582
  470MOL0     H62002   7.134   5.211   6.581  3.1052  2.1778 -0.2121
  470MOL0     H62003   6.893   5.157   6.584 -0.1943  0.7858  0.5142
  470MOL0     H62004   6.473   5.049   6.640 -0.1118  0.6649 -0.3199
  470MOL0     H62005   6.268   4.925   6.554  2.1555 -3.4464 -2.1542
  470MOL0     H62006   6.150   4.740   6.349 -0.3404  0.5075  1.4464
  470MOL0     H62007   6.259   4.797   6.228 -0.4114 -0.1429  0.0514
  470MOL0     H62008   6.104   4.697   6.105  0.7434 -1.0763  0.8605
  470MOL0     H62009   6.114   4.875   6.067  1.1264  0.8069  1.9090
  470MOL0     H62010   5.919   4.927   6.163 -0.6832  1.4197 -0.2545
  470MOL0     H62011   5.892   4.775   6.246 -0.3064  0.8889 -1.2398
  470MOL0     H62012   5.876   4.835   5.944  0.4511  1.6783  1.1926
  470MOL0     H62013   5.872   4.676   6.007  3.3832  0.9716 -0.1704
  470MOL0     H62014   5.639   4.755   5.953 -1.0801 -1.3942  1.4380
  470MOL0     H62015   5.670   4.895   6.058 -2.6820 -0.1885  2.3352
  470MOL0     H62016   5.524   4.739   6.167 -0.2861 -1.0862  1.0707
  470MOL0     H62017   5.677   4.729   6.255  0.8767 -0.4833 -0.9021
  470MOL0     H62018   5.749   4.523   6.169 -1.1722 -4.6777  1.5213
  470MOL0     H62019   5.579   4.504   6.213 -0.9003  0.3112 -0.6312
  470MOL0     H62020   5.631   4.385   6.008 -0.8550 -0.3193  0.5886
  470MOL0     H62021   5.671   4.533   5.931 -0.1766  0.1709 -0.7419
  470MOL0     H62022   6.292   5.109   6.177  2.6752  0.1142 -1.9766
  470MOL0     H62023   6.507   5.218   6.245  0.4399 -2.1778 -1.4164
  470MOL0     H62024   6.804   5.534   6.401 -2.7149 -2.4653 -1.8778
  470MOL0     H62025   7.057   5.599   6.413 -1.1584  0.0633 -0.6412
  470MOL0     H62026   8.562   6.869   6.693  0.5022  2.3911 -1.2208
  470MOL0     H62027   8.759   7.007   6.669  2.4715 -0.1592 -0.6614
  470MOL0     H62028   9.265   6.964   6.917 -1.3305 -2.6439 -2.4095
  470MOL0     H62029   9.448   7.121   6.922  2.7282 -1.2014 -1.5829
  470MOL0     H62030   9.407   7.473   6.652  0.3193  0.1777 -2.2294
  470MOL0     H62031   9.515   7.362   6.563 -1.2216  0.0888 -0.7458
  470MOL0     H62032   9.623   7.582   6.597  2.7540 -0.7040 -0.9834
  470MOL0     H62033   9.577   7.586   6.760 -0.4350  1.5137 -1.9214
  470MOL0     H62034   9.750   7.390   6.792  0.4241 -0.7931 -1.1772
  470MOL0     H62035   9.811   7.549   6.748  0.2873 -0.6279  1.5801
  470MOL0     H62036   9.794   7.304   6.572 -2.9027  0.2586  0.7744
  470MOL0     H62037   9.799   7.451   6.497  0.3338 -1.8259 -0.4493
  470MOL0     H62038  10.183   7.464   6.607 -1.7806  2.6728  0.3139
  470MOL0     H62039   9.290   7.310   6.571 -0.3004  1.3111  2.0651
  470MOL0     H62040   9.124   7.160   6.552 -0.9896 -1.2880 -0.9882
  471MOL0     O62041   9.314   2.929   6.969  0.2371  0.0797 -0.0638
  471MOL0     C62042   9.380   2.853   7.035 -0.4392  0.3419  0.7551
  471MOL0     O62043   9.344   2.728   7.084 -0.3992  0.6769 -0.3459
  471MOL0     C62044   9.212   2.682   7.087 -0.3566  0.2120 -0.5398
  471MOL0     C62045   9.124   2.701   6.981 -0.3937 -0.2165  0.1627
  471MOL0     C62046   8.994   2.652   6.985 -0.2605  0.5284  0.1060
  471MOL0     C62047   8.946   2.598   7.102  0.1817  0.3869  0.2511
  471MOL0     O62048   8.816   2.545   7.095 -0.2277 -0.4772  0.8403
  471MOL0     C62049   8.786   2.426   7.180  0.1489  0.1863  0.4821
  471MOL0     C62050   8.633   2.398   7.171 -1.0434  0.5038 -0.2760
  471MOL0     C62051   8.580   2.383   7.027 -0.3744  0.4734 -0.4924
  471MOL0     C62052   8.432   2.326   7.023 -0.3851 -0.0103 -1.0189
  471MOL0     C62053   8.392   2.299   6.875 -0.1991 -0.3495  1.0297
  471MOL0     C62054   8.241   2.293   6.853  0.6192 -0.7899 -0.1323
  471MOL0     C62055   8.189   2.314   6.706 -0.6607 -0.0541 -0.2402
  471MOL0     C62056   8.053   2.240   6.689 -1.0912  0.4250 -0.7686
  471MOL0     N62057   7.966   2.273   6.802 -0.5165  0.1500  0.3591
  471MOL0     C62058   7.926   2.190   6.906  0.8557  0.1366  0.3120
  471MOL0     C62059   7.818   2.260   6.957 -0.5237 -0.3713  0.6730
  471MOL0     C62060   7.735   2.234   7.073  0.0093 -0.2277  0.7488
  471MOL0     C62061   7.592   2.201   7.049  0.2996 -0.5088 -0.2207
  471MOL0     C62062   7.525   2.326   6.990 -0.0818 -0.1430  0.0363
  471MOL0     C62063   7.372   2.335   6.986  0.5507 -0.6820 -0.0183
  471MOL0     O62064   7.324   2.225   6.910  0.5699 -0.1360  0.1879
  471MOL0     C62065   7.194   2.223   6.885 -0.0679 -0.1742 -0.4762
  471MOL0     C62066   7.137   2.117   6.813  0.0170 -0.7333  0.4144
  471MOL0     C62067   6.998   2.124   6.778  0.6868  0.3367  0.1871
  471MOL0     C62068   6.914   2.235   6.819 -0.0095  0.2818 -0.1819
  471MOL0     C62069   6.773   2.245   6.773 -0.5062 -0.3444  0.3475
  471MOL0     O62070   6.702   2.335   6.842 -0.5390 -0.1520 -0.0029
  471MOL0     C62071   6.582   2.382   6.793 -0.1328  0.1422 -0.2704
  471MOL0     C62072   6.564   2.518   6.793 -0.3847 -0.8438  0.0503
  471MOL0     C62073   6.447   2.576   6.737 -0.4780  0.4285  0.6932
  471MOL0     C62074   6.345   2.496   6.683  0.1776 -0.2084  0.5044
  471MOL0     O62075   6.246   2.566   6.614  0.3146  0.2045 -0.3705
  471MOL0     C62076   6.122   2.490   6.580 -0.5197 -0.1494  0.4760
  471MOL0     C62077   6.030   2.581   6.499  0.2645  0.0495  0.6740
  471MOL0     C62078   5.893   2.501   6.492  0.1915  0.0984  0.0872
  471MOL0     C62079   5.777   2.574   6.420 -0.8439  0.0260  0.5516
  471MOL0     C62080   5.655   2.605   6.505 -0.2499 -0.6636  0.2043
  471MOL0     C62081   5.580   2.489   6.578 -0.1198  0.0302 -0.5356
  471MOL0     C62082   5.523   2.376   6.491 -0.0321  0.1229 -0.2347
  471MOL0     C62083   5.420   2.271   6.554 -0.8804  0.2507 -0.4587
  471MOL0    Cl62084   5.283   2.348   6.649 -0.3928 -0.0952  0.0997
  471MOL0     C62085   6.358   2.358   6.701  0.1285  0.3892 -0.8774
  471MOL0     C62086   6.474   2.296   6.751 -0.1928  0.7450  0.0155
  471MOL0     O62087   6.730   2.177   6.681  0.2769 -0.2551  0.2241
  471MOL0     C62088   6.965   2.328   6.910  0.3816  0.3950  0.2040
  471MOL0     C62089   7.101   2.321   6.930 -0.9477  0.2180 -0.2647
  471MOL0     N62090   7.814   2.384   6.892  0.0319  0.0161 -0.0686
  471MOL0     N62091   7.902   2.388   6.804 -0.3590  0.0791 -0.0293
  471MOL0     C62092   9.027   2.580   7.211 -0.3526 -0.1701  0.1169
  471MOL0     C62093   9.161   2.619   7.202  0.4427  0.3750  0.2702
  471MOL0     C62094   9.527   2.879   7.038  1.0498  0.0241 -0.7782
  471MOL0     C62095   9.588   2.974   6.959 -0.4404  0.0523 -0.3226
  471MOL0     C62096   9.720   2.993   6.957 -0.2905  0.3643  0.4314
  471MOL0     C62097   9.806   2.914   7.032  0.4919  0.1014  0.1015
  471MOL0     O62098   9.937   2.957   7.034 -0.1077  0.7620 -0.0342
  471MOL0     C62099  10.017   2.900   7.141 -0.1312 -0.0748  0.0046
  471MOL0     C62100  10.137   2.993   7.174 -0.4787 -0.5352 -1.3469
  471MOL0     C62101  10.230   2.936   7.276  0.4844  0.4920 -0.6563
  471MOL0     C62102  10.350   3.029   7.300 -0.2237 -0.2452 -0.7062
  471MOL0     C62103  10.433   2.978   7.413  0.3700  0.0502  0.1133
  471MOL0     C62104  10.477   2.930   7.514 -0.1292 -0.3606  0.1634
  471MOL0     C62105   9.748   2.807   7.097  0.0588 -1.1818  0.3663
  471MOL0     C62106   9.611   2.790   7.113  0.9448 -0.4285  0.1518
  471MOL0     H62107   9.153   2.757   6.892 -0.0159 -0.5812  0.0551
  471MOL0     H62108   8.921   2.658   6.905 -0.3735 -1.2234  0.0448
  471MOL0     H62109   8.811   2.445   7.285 -0.6903  0.0274  0.7137
  471MOL0     H62110   8.840   2.336   7.148 -1.1793  0.0389 -1.5369
  471MOL0     H62111   8.569   2.477   7.211 -2.9857 -1.3854  0.5812
  471MOL0     H62112   8.618   2.306   7.229  2.0138  0.4044  0.4856
  471MOL0     H62113   8.641   2.305   6.980  2.4372  0.7084  2.3396
  471MOL0     H62114   8.588   2.475   6.969 -0.5343  1.0906  0.4316
  471MOL0     H62115   8.436   2.229   7.073 -2.4092  0.6301  0.5260
  471MOL0     H62116   8.369   2.396   7.079  2.4043  1.4552  0.4976
  471MOL0     H62117   8.436   2.208   6.831 -0.4691  0.4270 -0.9421
  471MOL0     H62118   8.422   2.380   6.808 -1.3987  0.0499  0.9557
  471MOL0     H62119   8.190   2.366   6.917  1.3832  0.7908 -1.2748
  471MOL0     H62120   8.210   2.192   6.883 -1.0943 -1.0183 -2.4405
  471MOL0     H62121   8.180   2.417   6.671 -0.3570  0.3648  0.8699
  471MOL0     H62122   8.267   2.264   6.647 -1.5945  0.8687 -2.3497
  471MOL0     H62123   8.065   2.131   6.687 -0.3834  0.4912 -0.2440
  471MOL0     H62124   8.014   2.270   6.591 -1.3345  1.4943 -0.3537
  471MOL0     H62125   7.956   2.089   6.934  0.2024 -0.6386 -1.6201
  471MOL0     H62126   7.732   2.315   7.147 -3.0791 -0.4819  1.0420
  471MOL0     H62127   7.779   2.145   7.119  1.2689  0.1252  0.2564
  471MOL0     H62128   7.549   2.163   7.143  1.9832 -0.2383  0.7000
  471MOL0     H62129   7.577   2.127   6.970  0.3155 -1.8504  0.9801
  471MOL0     H62130   7.559   2.418   7.040 -0.9011  1.3019 -1.9068
  471MOL0     H62131   7.554   2.335   6.884 -2.0513 -1.2568 -0.6511
  471MOL0     H62132   7.340   2.429   6.941 -0.5143 -0.8930  0.2658
  471MOL0     H62133   7.336   2.339   7.089  0.3108 -1.5403 -0.0656
  471MOL0     H62134   7.203   2.037   6.781  3.5594  2.1215 -0.0319
  471MOL0     H62135   6.949   2.055   6.712 -2.5154  1.0084  1.6680
  471MOL0     H62136   6.647   2.578   6.827 -1.2380 -0.2645  1.2024
  471MOL0     H62137   6.447   2.685   6.731 -3.2026  0.4302 -2.1758
  471MOL0     H62138   6.075   2.466   6.676 -3.2009 -1.6067 -1.0761
  471MOL0     H62139   6.129   2.393   6.529  1.1917  0.9158 -1.5062
  471MOL0     H62140   6.074   2.585   6.399 -0.4625 -1.8864  0.2384
  471MOL0     H62141   6.014   2.678   6.546  0.3176  0.7150 -0.6359
  471MOL0     H62142   5.876   2.468   6.595  0.5778 -1.0049 -0.1958
  471MOL0     H62143   5.898   2.407   6.436  0.8760  1.3494 -2.1013
  471MOL0     H62144   5.813   2.672   6.389 -1.4464 -0.3666 -1.5791
  471MOL0     H62145   5.743   2.533   6.325 -0.7428  0.1995  0.4417
  471MOL0     H62146   5.587   2.656   6.436  1.0387  1.9125  0.6840
  471MOL0     H62147   5.682   2.669   6.589 -1.7758 -1.2751  1.1940
  471MOL0     H62148   5.497   2.538   6.629 -0.5700 -0.6810 -0.5793
  471MOL0     H62149   5.643   2.448   6.658 -1.0977  0.1962  0.3438
  471MOL0     H62150   5.453   2.419   6.420  0.2888 -2.2849 -2.1624
  471MOL0     H62151   5.605   2.319   6.446 -0.6635 -1.3531  0.4198
  471MOL0     H62152   5.484   2.209   6.617 -0.5028 -1.1056 -2.1229
  471MOL0     H62153   5.370   2.199   6.489 -1.4607 -1.3125  1.6115
  471MOL0     H62154   6.292   2.279   6.666  0.0457  0.4526 -0.8662
  471MOL0     H62155   6.497   2.190   6.750 -1.9824  0.3199  0.6423
  471MOL0     H62156   6.914   2.414   6.953  2.0833  1.6319 -0.1696
  471MOL0     H62157   7.140   2.407   6.984 -1.2190  0.2109 -0.0545
  471MOL0     H62158   8.995   2.550   7.310 -0.5761  0.4544  0.2364
  471MOL0     H62159   9.213   2.595   7.294 -0.8847  0.6421  1.1263
  471MOL0     H62160   9.536   3.048   6.899  2.8979  2.6346 -0.3034
  471MOL0     H62161   9.741   3.075   6.889  1.5918 -1.2696 -1.0744
  471MOL0     H62162  10.041   2.795   7.121 -1.4647 -0.6310  1.1298
  471MOL0     H62163   9.959   2.888   7.233  0.5356 -0.5977  0.3675
  471MOL0     H62164  10.199   3.001   7.084  1.3663  2.6787  0.0349
  471MOL0     H62165  10.111   3.096   7.202 -0.0632 -0.5846 -0.7694
  471MOL0     H62166  10.264   2.836   7.249  0.9028  0.1522  1.0072
  471MOL0     H62167  10.184   2.937   7.376 -0.7774  0.4479 -1.2198
  471MOL0     H62168  10.410   3.022   7.209 -1.4927  1.7544 -1.7555
  471MOL0     H62169  10.316   3.133   7.301  1.9416  0.5395 -1.4771
  471MOL0     H62170  10.514   2.895   7.608 -1.1516  2.5171  1.7370
  471MOL0     H62171   9.805   2.730   7.148  0.8947 -1.9545 -1.6324
  471MOL0     H62172   9.578   2.695   7.153  0.0372  0.2010  0.9449
  472MOL0     O62173  10.091   4.935   7.304 -0.1221 -0.9840 -0.2954
  472MOL0     C62174  10.038   4.824   7.323 -0.8761 -0.1622 -0.3572
  472MOL0     O62175  10.101   4.710   7.355 -0.3402 -0.3505 -0.1740
  472MOL0     C62176  10.240   4.709   7.379 -0.8097 -0.1062 -0.3533
  472MOL0     C62177  10.341   4.705   7.281  0.6480 -0.1737 -0.5635
  472MOL0     C62178  10.474   4.704   7.311  0.0571  0.5200 -0.7836
  472MOL0     C62179  10.523   4.713   7.443  0.5965  0.1995  0.0237
  472MOL0     O62180  10.655   4.699   7.471  0.5414 -0.4029 -0.0316
  472MOL0     C62181  10.693   4.719   7.611 -0.2683 -0.3424 -0.0515
  472MOL0     C62182  10.835   4.670   7.616 -0.2714  0.5702 -0.4902
  472MOL0     C62183  10.915   4.671   7.751 -0.1484  0.7087  0.3655
  472MOL0     C62184  10.913   4.823   7.824 -0.0521  0.1912  0.1281
  472MOL0     C62185  10.976   4.821   7.960  0.0368 -0.7564 -0.6553
  472MOL0     C62186  10.998   4.961   8.024  0.7439 -0.6141 -0.1344
  472MOL0     C62187  11.126   4.982   8.097 -0.0482  0.3449 -0.7177
  472MOL0     C62188  11.141   5.125   8.151 -0.0990 -0.1329  0.1777
  472MOL0     N62189  11.233   5.133   8.266  0.6131 -0.0072  0.1143
  472MOL0     C62190  11.211   5.197   8.382  0.2054  0.2973  0.0597
  472MOL0     C62191  11.336   5.213   8.438  0.3297  0.0433  0.0215
  472MOL0     C62192  11.369   5.278   8.574  0.4613 -0.5931  0.0502
  472MOL0     C62193  11.339   5.432   8.562 -0.3867 -0.2835 -0.7624
  472MOL0     C62194  11.307   5.483   8.694  0.2022 -0.7608  0.8626
  472MOL0     C62195  11.157   5.505   8.717 -0.6656 -0.6747 -0.3868
  472MOL0     O62196  11.095   5.592   8.617  0.3016  0.0051  0.3104
  472MOL0     C62197  10.957   5.599   8.618 -0.4806 -0.7572 -0.3221
  472MOL0     C62198  10.900   5.675   8.512  0.1409  0.5571 -0.6919
  472MOL0     C62199  10.759   5.684   8.515  0.2592  0.1753 -0.0309
  472MOL0     C62200  10.671   5.615   8.607 -0.2094 -0.5619 -0.2814
  472MOL0     C62201  10.527   5.638   8.612  0.4139 -0.3339 -0.4024
  472MOL0     O62202  10.478   5.706   8.509 -0.7386  0.2064  1.3478
  472MOL0     C62203  10.346   5.729   8.513  1.0381 -0.7925 -0.6969
  472MOL0     C62204  10.260   5.655   8.433 -0.1553  0.2618 -0.4361
  472MOL0     C62205  10.125   5.683   8.420 -0.9889  0.5731 -0.0707
  472MOL0     C62206  10.083   5.803   8.482 -0.1719  0.3470  0.4897
  472MOL0     O62207   9.947   5.845   8.467  0.0786  0.4414 -0.1396
  472MOL0     C62208   9.859   5.822   8.580 -0.2621 -0.0062  1.1890
  472MOL0     C62209   9.716   5.814   8.513  0.3192 -0.1010 -0.9949
  472MOL0     C62210   9.724   5.710   8.407  0.3347 -1.1159 -0.2665
  472MOL0     C62211   9.598   5.615   8.407 -1.8658 -0.8121  0.2201
  472MOL0     C62212   9.623   5.512   8.296 -1.0086  0.3205 -0.5070
  472MOL0     C62213   9.500   5.419   8.257  0.4583  0.2281 -0.0295
  472MOL0     C62214   9.386   5.499   8.189  0.9245 -0.8750  0.0782
  472MOL0     C62215   9.375   5.480   8.045 -0.2829  0.2328 -0.3706
  472MOL0    Cl62216   9.492   5.574   7.957  0.2576 -0.1890  0.0011
  472MOL0     C62217  10.160   5.873   8.576  0.3009  0.3921 -0.0672
  472MOL0     C62218  10.290   5.835   8.585 -0.3051 -0.8220 -1.0933
  472MOL0     O62219  10.473   5.602   8.717  0.0219  0.5912 -0.3345
  472MOL0     C62220  10.735   5.544   8.713 -0.1757 -0.0626 -0.1803
  472MOL0     C62221  10.879   5.538   8.712  0.4787  0.2648  0.5095
  472MOL0     N62222  11.414   5.143   8.358  0.5182 -1.0636  0.8378
  472MOL0     N62223  11.368   5.110   8.247 -0.3357  1.0712 -0.0560
  472MOL0     C62224  10.421   4.722   7.535  0.7968  0.5968  0.4080
  472MOL0     C62225  10.284   4.723   7.503  0.8064  1.0789 -0.3292
  472MOL0     C62226   9.889   4.809   7.305  0.0707 -0.0662 -0.5512
  472MOL0     C62227   9.821   4.921   7.262  0.5977  0.1811  1.0044
  472MOL0     C62228   9.679   4.928   7.270  0.1552 -0.3605 -0.3264
  472MOL0     C62229   9.616   4.810   7.310  0.8226  1.0487 -0.2940
  472MOL0     O62230   9.481   4.800   7.315  0.1116  0.6643  0.1604
  472MOL0     C62231   9.399   4.913   7.281  0.1626  0.2210  0.4380
  472MOL0     C62232   9.259   4.869   7.311 -0.7396 -0.1407  0.0660
  472MOL0     C62233   9.230   4.736   7.238  0.5890  0.0153  0.6452
  472MOL0     C62234   9.075   4.720   7.225 -0.5037 -0.3613 -0.0541
  472MOL0     C62235   9.018   4.819   7.121 -0.2182  0.5564 -0.2072
  472MOL0     C62236   8.960   4.889   7.045  0.7238  1.1156 -0.0553
  472MOL0     C62237   9.686   4.687   7.338  0.0737 -0.1834  1.0847
  472MOL0     C62238   9.819   4.690   7.340 -0.4474 -0.4123  0.2015
  472MOL0     H62239  10.309   4.684   7.180  0.4533 -2.4995 -0.0809
  472MOL0     H62240  10.545   4.696   7.229  1.1143 -0.4861  0.1987
  472MOL0     H62241  10.642   4.650   7.678  1.5813  0.8318  2.7687
  472MOL0     H62242  10.696   4.823   7.647  2.3045 -0.7884  1.1956
  472MOL0     H62243  10.893   4.745   7.561 -0.3725  2.3618  1.7103
  472MOL0     H62244  10.845   4.573   7.565 -1.6461  1.7560 -3.2324
  472MOL0     H62245  11.017   4.639   7.730 -0.5211  0.3364 -0.9410
  472MOL0     H62246  10.873   4.592   7.814 -0.2146 -0.7851 -1.4899
  472MOL0     H62247  10.968   4.895   7.763  0.2280  0.5113  0.7496
  472MOL0     H62248  10.812   4.855   7.854 -0.1486 -2.0155  2.5310
  472MOL0     H62249  11.077   4.781   7.949  0.1698 -1.7320  2.9481
  472MOL0     H62250  10.925   4.756   8.031  1.8135  0.1312  1.5691
  472MOL0     H62251  10.916   4.982   8.092  0.0227 -0.9094 -0.9013
  472MOL0     H62252  10.994   5.037   7.945  0.5716 -0.8580 -0.3604
  472MOL0     H62253  11.132   4.908   8.176  2.7717  0.3957 -0.7780
  472MOL0     H62254  11.212   4.958   8.033  0.7959 -0.2969  0.6146
  472MOL0     H62255  11.039   5.155   8.178  0.7632  1.1639  2.2680
  472MOL0     H62256  11.182   5.192   8.075  0.3390  0.6014  1.0326
  472MOL0     H62257  11.121   5.236   8.429 -0.3059  0.0780 -0.7141
  472MOL0     H62258  11.465   5.254   8.622  0.8323  0.9180  0.1171
  472MOL0     H62259  11.306   5.227   8.647  0.8221 -0.8544  0.1827
  472MOL0     H62260  11.254   5.442   8.494  0.4826 -2.6989 -2.3097
  472MOL0     H62261  11.433   5.469   8.519 -0.3102  1.9964  1.0881
  472MOL0     H62262  11.361   5.429   8.772  1.2700  0.7497  1.2157
  472MOL0     H62263  11.346   5.585   8.697 -0.3023 -0.5684  1.1049
  472MOL0     H62264  11.146   5.555   8.815  1.2585 -2.7742  0.9821
  472MOL0     H62265  11.107   5.408   8.724 -1.1987 -0.4175 -0.5529
  472MOL0     H62266  10.963   5.728   8.442  0.2444  1.5792  0.1575
  472MOL0     H62267  10.727   5.743   8.430  0.2070 -1.8313 -1.4484
  472MOL0     H62268  10.296   5.564   8.385  0.5444  0.0835  0.3933
  472MOL0     H62269  10.052   5.632   8.357 -1.8826  1.8451 -0.1191
  472MOL0     H62270   9.861   5.908   8.647 -1.8845  1.2240 -0.2619
  472MOL0     H62271   9.883   5.730   8.635  0.2178  0.2133  1.3495
  472MOL0     H62272   9.696   5.912   8.468 -0.0361 -0.3697 -1.4182
  472MOL0     H62273   9.646   5.796   8.595  1.2731  1.5196  0.2524
  472MOL0     H62274   9.814   5.648   8.414  1.4643  0.5765  1.1965
  472MOL0     H62275   9.734   5.759   8.310 -0.0895  0.6158  0.5228
  472MOL0     H62276   9.578   5.552   8.494 -4.8747 -0.8458 -0.4063
  472MOL0     H62277   9.511   5.678   8.387 -1.3770  0.1566  1.0512
  472MOL0     H62278   9.710   5.448   8.315 -0.9412  0.4937 -0.2378
  472MOL0     H62279   9.647   5.561   8.201 -2.8633  0.3685 -0.9922
  472MOL0     H62280   9.460   5.366   8.344 -0.1001 -1.1093 -1.0610
  472MOL0     H62281   9.533   5.345   8.184 -1.7056  0.9881 -1.8825
  472MOL0     H62282   9.290   5.476   8.235  1.3256 -0.1233  1.3336
  472MOL0     H62283   9.388   5.607   8.210 -5.2735  0.1168 -2.3037
  472MOL0     H62284   9.278   5.518   8.012  0.0973 -1.8258 -4.4750
  472MOL0     H62285   9.380   5.372   8.028 -1.1413  0.5742 -3.4289
  472MOL0     H62286  10.118   5.954   8.635  3.1731  1.2556  0.9706
  472MOL0     H62287  10.366   5.900   8.628 -0.1285  0.3711 -3.1225
  472MOL0     H62288  10.684   5.516   8.804  1.3482  0.2316  0.7896
  472MOL0     H62289  10.916   5.475   8.793 -1.6147  0.1180  1.4017
  472MOL0     H62290  10.441   4.715   7.641 -1.0318 -2.2189  0.7011
  472MOL0     H62291  10.212   4.726   7.584  1.0571  0.7509 -0.0909
  472MOL0     H62292   9.868   5.015   7.237 -0.7249  1.0344  1.6686
  472MOL0     H62293   9.631   5.025   7.257 -1.5572 -0.3286  4.2652
  472MOL0     H62294   9.409   4.941   7.176 -2.4748  1.2670  0.3930
  472MOL0     H62295   9.416   5.002   7.343  1.7367  1.5356 -1.7240
  472MOL0     H62296   9.252   4.847   7.418  0.1547 -0.7133  0.0206
  472MOL0     H62297   9.192   4.954   7.295  0.8464  1.5533  1.9505
  472MOL0     H62298   9.279   4.644   7.270 -0.4103 -1.1047 -0.9262
  472MOL0     H62299   9.273   4.738   7.138 -1.6619  1.5392 -0.3610
  472MOL0     H62300   9.048   4.624   7.180  0.6525 -0.4405 -0.6204
  472MOL0     H62301   9.008   4.747   7.307  2.0497  0.8161  1.7739
  472MOL0     H62302   8.916   4.961   6.979  0.2971  0.3592 -0.6021
  472MOL0     H62303   9.622   4.601   7.354 -0.8513  0.0952 -0.7592
  472MOL0     H62304   9.878   4.611   7.385  1.2712  1.4371  1.3821
  473MOL0     O62305   1.147   1.033   4.492  0.0072 -0.1706  0.4287
  473MOL0     C62306   1.242   1.014   4.567 -0.9537 -0.2849  0.2632
  473MOL0     O62307   1.252   1.064   4.696  0.8332  0.5304  0.3752
  473MOL0     C62308   1.150   1.157   4.725 -0.0574  0.0385  0.3901
  473MOL0     C62309   1.030   1.134   4.782 -0.4035 -0.8702 -0.1202
  473MOL0     C62310   0.935   1.237   4.804  0.5590  0.4602  0.0972
  473MOL0     C62311   0.966   1.371   4.779  1.3525 -0.7112 -0.0502
  473MOL0     O62312   0.878   1.475   4.797  0.3475 -0.2129  0.0641
  473MOL0     C62313   0.736   1.450   4.804  1.2093  0.2201 -0.3250
  473MOL0     C62314   0.669   1.584   4.798 -0.0945 -0.1370  0.3159
  473MOL0     C62315   0.526   1.568   4.856  0.3316  0.1703 -0.0780
  473MOL0     C62316   0.443   1.703   4.855 -0.2434  0.5551 -1.1534
  473MOL0     C62317   0.316   1.686   4.937  0.6813 -0.5575 -0.3567
  473MOL0     C62318   0.336   1.704   5.088 -0.5646 -0.0407  0.7235
  473MOL0     C62319   0.209   1.672   5.170  0.1780  0.3820  0.7286
  473MOL0     C62320   0.086   1.752   5.145  0.4427 -0.3419 -0.5307
  473MOL0     N62321  -0.026   1.754   5.238  0.5504 -0.7161  0.3426
  473MOL0     C62322  -0.151   1.820   5.212  0.4445 -0.1528 -0.5944
  473MOL0     C62323  -0.218   1.818   5.331 -0.2352  0.0787  0.5487
  473MOL0     C62324  -0.349   1.882   5.361  0.0966 -0.0746 -0.5278
  473MOL0     C62325  -0.465   1.789   5.372 -0.3060  0.3834 -0.0112
  473MOL0     C62326  -0.501   1.735   5.232  0.1393  0.6621 -0.8013
  473MOL0     C62327  -0.641   1.664   5.249 -0.4740 -0.0527 -0.6282
  473MOL0     O62328  -0.681   1.634   5.113  0.3273  0.4047  0.4101
  473MOL0     C62329  -0.808   1.595   5.095  1.4221  0.9723 -0.2360
  473MOL0     C62330  -0.905   1.580   5.187  0.3521  0.0079 -0.1366
  473MOL0     C62331  -1.028   1.537   5.159  0.5626 -0.7033 -0.2542
  473MOL0     C62332  -1.076   1.523   5.026  0.3215  0.0433  0.4888
  473MOL0     C62333  -1.219   1.471   4.993 -0.7474 -1.0020  0.1787
  473MOL0     O62334  -1.298   1.449   5.097  0.1402  0.3904 -0.3985
  473MOL0     C62335  -1.431   1.413   5.101 -0.0062 -0.0760  0.0887
  473MOL0     C62336  -1.523   1.457   5.197  0.9100 -0.1142 -0.2404
  473MOL0     C62337  -1.650   1.397   5.196 -0.2361 -1.2600 -0.2926
  473MOL0     C62338  -1.703   1.316   5.098 -0.7803 -0.5317  0.3107
  473MOL0     O62339  -1.828   1.265   5.109 -0.2628  0.0628  0.5205
  473MOL0     C62340  -1.918   1.249   5.002 -0.3564  0.0079 -0.8709
  473MOL0     C62341  -1.962   1.381   4.941  0.1312 -0.3247 -0.6017
  473MOL0     C62342  -2.059   1.467   5.029  0.0821  0.8270  0.3204
  473MOL0     C62343  -2.181   1.387   5.077 -0.2905  0.1923 -0.8096
  473MOL0     C62344  -2.255   1.326   4.962  0.0636 -0.9358 -0.2494
  473MOL0     C62345  -2.407   1.308   5.008 -0.3795  0.0262  0.1754
  473MOL0     C62346  -2.489   1.230   4.909  0.6093  0.3212 -0.0704
  473MOL0     C62347  -2.505   1.289   4.770  0.0957  0.4445 -0.5340
  473MOL0    Cl62348  -2.598   1.452   4.765 -0.1283  0.1430  0.0146
  473MOL0     C62349  -1.610   1.280   4.997 -0.3316 -0.2538  0.4708
  473MOL0     C62350  -1.477   1.327   4.996  0.3353  0.7340  0.1570
  473MOL0     O62351  -1.254   1.464   4.877 -0.3442  0.4401  0.4249
  473MOL0     C62352  -0.987   1.564   4.927 -1.2459 -0.5988  0.0672
  473MOL0     C62353  -0.849   1.589   4.962  0.4572 -1.1289  0.5124
  473MOL0     N62354  -0.139   1.742   5.417  0.3120 -0.0349  0.2600
  473MOL0     N62355  -0.026   1.710   5.367 -0.3271 -0.5440 -0.6526
  473MOL0     C62356   1.090   1.403   4.717  0.1424 -0.4684 -0.0192
  473MOL0     C62357   1.178   1.298   4.691 -0.5741 -0.6506 -0.0019
  473MOL0     C62358   1.354   0.924   4.526  1.3194 -0.5657  0.6389
  473MOL0     C62359   1.340   0.867   4.397 -0.0788  0.2860 -0.2284
  473MOL0     C62360   1.439   0.782   4.341 -0.0357  0.4119 -0.3652
  473MOL0     C62361   1.566   0.776   4.399 -0.2011  0.7334 -0.6634
  473MOL0     O62362   1.673   0.726   4.330 -0.4689 -0.5449 -0.4084
  473MOL0     C62363   1.663   0.686   4.187  0.1518  0.5476  0.7156
  473MOL0     C62364   1.795   0.625   4.145  0.4114  0.1608  0.4078
  473MOL0     C62365   1.897   0.736   4.108  0.2402  0.3966  0.0875
  473MOL0     C62366   2.042   0.716   4.151  0.6903  0.6230  0.1280
  473MOL0     C62367   2.088   0.577   4.114  0.3458 -0.7842  0.5689
  473MOL0     C62368   2.125   0.468   4.082  0.3042 -0.3140  1.2750
  473MOL0     C62369   1.581   0.832   4.528  1.0072 -0.1846  0.5358
  473MOL0     C62370   1.473   0.900   4.594 -0.5474 -0.0823 -0.2551
  473MOL0     H62371   1.010   1.032   4.814  0.2356 -1.1231 -0.5103
  473MOL0     H62372   0.842   1.214   4.854  0.7574 -0.2986  0.1188
  473MOL0     H62373   0.694   1.393   4.888  0.9537 -0.9236 -1.2017
  473MOL0     H62374   0.700   1.402   4.713 -1.0094  2.1833 -0.5666
  473MOL0     H62375   0.663   1.625   4.696  1.2582 -3.3482 -1.1884
  473MOL0     H62376   0.727   1.646   4.866  1.2340  0.5343 -1.3491
  473MOL0     H62377   0.522   1.531   4.959 -3.5804  2.6724  0.8941
  473MOL0     H62378   0.472   1.494   4.795  0.6984  0.0105 -0.2108
  473MOL0     H62379   0.509   1.782   4.894 -0.8866 -0.6832  2.9572
  473MOL0     H62380   0.403   1.739   4.760 -2.1180  2.1384  0.1512
  473MOL0     H62381   0.261   1.593   4.920 -1.5312  0.4630  0.7555
  473MOL0     H62382   0.243   1.759   4.899  1.4927 -0.3408 -1.5471
  473MOL0     H62383   0.366   1.807   5.109  1.2922 -0.4805  0.3982
  473MOL0     H62384   0.421   1.644   5.124 -0.6655  0.7256  2.3156
  473MOL0     H62385   0.177   1.567   5.166 -0.4312  0.5444  1.1791
  473MOL0     H62386   0.236   1.696   5.273  0.2854 -0.4511  0.9047
  473MOL0     H62387   0.042   1.721   5.050 -1.7312  1.6506 -0.2796
  473MOL0     H62388   0.116   1.856   5.133  1.2303 -0.1075  2.6294
  473MOL0     H62389  -0.188   1.853   5.116  0.5233  1.1852 -0.1846
  473MOL0     H62390  -0.369   1.962   5.288  0.8593  2.7248  2.1071
  473MOL0     H62391  -0.331   1.928   5.458 -0.3438 -1.8444  0.4294
  473MOL0     H62392  -0.552   1.835   5.419 -1.1238 -2.2374  1.2258
  473MOL0     H62393  -0.442   1.706   5.439  0.9819  0.9085  0.2369
  473MOL0     H62394  -0.498   1.817   5.160  0.1721  3.1574  1.8347
  473MOL0     H62395  -0.432   1.657   5.198 -0.2593  0.1387 -0.4220
  473MOL0     H62396  -0.717   1.727   5.296 -2.5827 -3.9482  1.6847
  473MOL0     H62397  -0.635   1.571   5.307  0.4229 -0.5099 -1.4121
  473MOL0     H62398  -0.876   1.597   5.290  0.7057  2.8451 -0.6361
  473MOL0     H62399  -1.110   1.517   5.227 -0.1162  1.0180 -0.5140
  473MOL0     H62400  -1.499   1.533   5.270 -1.5423  0.4217  0.0983
  473MOL0     H62401  -1.705   1.409   5.288  1.8667 -3.7503  1.4483
  473MOL0     H62402  -2.006   1.200   5.045  0.4352 -0.7290 -0.0525
  473MOL0     H62403  -1.872   1.180   4.931 -2.1671 -2.4345  0.1877
  473MOL0     H62404  -2.021   1.367   4.850  3.2142  1.0872 -2.9837
  473MOL0     H62405  -1.869   1.431   4.913  0.5170  0.2232  1.4696
  473MOL0     H62406  -2.107   1.556   4.988 -4.8178 -0.3004  2.9103
  473MOL0     H62407  -2.016   1.490   5.128  0.9000 -2.5784  0.8592
  473MOL0     H62408  -2.172   1.305   5.149  0.6841 -0.3319 -1.4906
  473MOL0     H62409  -2.246   1.460   5.126 -3.5265 -3.0284  0.1043
  473MOL0     H62410  -2.205   1.234   4.930  0.9000  0.3826 -3.0615
  473MOL0     H62411  -2.255   1.399   4.880 -1.6476  1.4874  1.7374
  473MOL0     H62412  -2.449   1.408   5.023  0.2448 -0.1198  3.9872
  473MOL0     H62413  -2.409   1.256   5.105  1.1131  0.5355  0.5041
  473MOL0     H62414  -2.445   1.130   4.903  0.7953  0.1063  3.0425
  473MOL0     H62415  -2.587   1.218   4.957  0.9237  1.6542  0.9593
  473MOL0     H62416  -2.546   1.208   4.710  1.7560 -0.6438 -0.2698
  473MOL0     H62417  -2.406   1.304   4.725 -0.1543 -1.1538 -1.6665
  473MOL0     H62418  -1.650   1.230   4.909 -0.8969 -0.6586  0.9528
  473MOL0     H62419  -1.426   1.299   4.905 -0.9923 -1.2732 -0.0567
  473MOL0     H62420  -1.025   1.557   4.826  0.0185  1.5687 -0.6287
  473MOL0     H62421  -0.769   1.590   4.888 -0.3843 -0.0332 -0.4377
  473MOL0     H62422   1.113   1.508   4.703  2.1456 -1.0109 -1.2010
  473MOL0     H62423   1.269   1.323   4.637 -0.8943 -4.3622 -2.5879
  473MOL0     H62424   1.247   0.892   4.346  1.0611  2.0567 -1.5496
  473MOL0     H62425   1.421   0.755   4.237  1.1001  0.1030 -0.4920
  473MOL0     H62426   1.639   0.769   4.120  1.4995  0.9949  0.7482
  473MOL0     H62427   1.590   0.606   4.170  0.7548  0.2588 -0.6270
  473MOL0     H62428   1.836   0.566   4.227 -0.6047  0.9514  1.5148
  473MOL0     H62429   1.794   0.561   4.056  0.3257  2.2390 -1.1667
  473MOL0     H62430   1.872   0.835   4.147  1.7601  1.2231 -0.9364
  473MOL0     H62431   1.898   0.759   4.001 -2.7817  0.0544 -0.0933
  473MOL0     H62432   2.112   0.784   4.102 -0.3053  2.4183  1.0925
  473MOL0     H62433   2.046   0.739   4.258  0.0161 -0.3431  0.3754
  473MOL0     H62434   2.134   0.364   4.055 -0.7638  0.0655 -0.7896
  473MOL0     H62435   1.680   0.836   4.572  0.4194  1.1228  1.8052
  473MOL0     H62436   1.505   0.961   4.678 -0.6954  2.1268 -1.7219
  474MOL0     O62437   0.339   9.099   3.560 -0.3470  0.3510 -0.0561
  474MOL0     C62438   0.403   9.002   3.518  0.2834  0.4947  0.5300
  474MOL0     O62439   0.349   8.891   3.447 -0.6376  0.3544 -0.0971
  474MOL0     C62440   0.217   8.898   3.417  0.5267  0.5700  0.3202
  474MOL0     C62441   0.123   8.855   3.506 -0.5146 -0.1752  0.1851
  474MOL0     C62442  -0.010   8.886   3.484 -0.1931 -0.9020 -0.1467
  474MOL0     C62443  -0.055   8.935   3.363 -0.9757 -0.0953  0.9675
  474MOL0     O62444  -0.185   8.958   3.327 -0.3518 -0.8152  0.3787
  474MOL0     C62445  -0.292   8.896   3.408  0.2316 -0.5526  0.3472
  474MOL0     C62446  -0.417   8.925   3.333 -0.4975  0.0825  0.1691
  474MOL0     C62447  -0.544   8.837   3.356 -0.2309 -0.1951  0.2540
  474MOL0     C62448  -0.668   8.885   3.276 -0.1999  0.3415 -0.7758
  474MOL0     C62449  -0.783   8.805   3.298  1.2427 -0.1639 -1.1102
  474MOL0     C62450  -0.895   8.851   3.212 -0.0618 -0.1811 -0.3307
  474MOL0     C62451  -1.023   8.802   3.266  0.2623 -0.0277  0.0464
  474MOL0     C62452  -1.129   8.836   3.161  0.0874  0.2204 -0.5548
  474MOL0     N62453  -1.263   8.793   3.194  1.2232  0.5474 -0.2688
  474MOL0     C62454  -1.375   8.872   3.172 -0.5430 -0.1820  0.0329
  474MOL0     C62455  -1.481   8.796   3.186 -0.8376 -0.4490 -0.3512
  474MOL0     C62456  -1.617   8.851   3.150 -0.3416  0.3653  0.3775
  474MOL0     C62457  -1.685   8.755   3.057  0.5042 -0.3117 -0.6138
  474MOL0     C62458  -1.840   8.767   3.073  0.0726  0.0901 -0.8005
  474MOL0     C62459  -1.898   8.899   3.043 -0.3129 -0.4023 -0.6360
  474MOL0     O62460  -2.039   8.900   3.067  0.4169 -0.3371  0.2736
  474MOL0     C62461  -2.132   8.878   2.967 -0.6144 -0.1506  0.2047
  474MOL0     C62462  -2.247   8.954   2.955  0.7065 -0.0329  0.0284
  474MOL0     C62463  -2.363   8.920   2.870  0.3963 -0.5829 -0.1554
  474MOL0     C62464  -2.360   8.808   2.793 -0.5870  0.0767 -0.4535
  474MOL0     C62465  -2.476   8.759   2.726 -0.2568 -0.6737  0.9439
  474MOL0     O62466  -2.591   8.825   2.740  0.1497  0.2299 -0.5439
  474MOL0     C62467  -2.695   8.846   2.646  0.1856 -0.2247 -0.5867
  474MOL0     C62468  -2.814   8.923   2.693 -0.8334  0.1004 -0.6876
  474MOL0     C62469  -2.907   8.961   2.603  0.2216 -0.2784 -0.6691
  474MOL0     C62470  -2.908   8.920   2.464 -0.0077  0.6178  0.2721
  474MOL0     O62471  -3.002   8.951   2.367 -0.0851  0.7468 -0.7903
  474MOL0     C62472  -3.140   8.952   2.400  0.1220  0.3207 -0.2957
  474MOL0     C62473  -3.185   8.815   2.461  0.1099  0.1334  0.0732
  474MOL0     C62474  -3.330   8.785   2.435  0.2504 -0.1216  0.1808
  474MOL0     C62475  -3.420   8.897   2.497  0.1363 -0.0736  0.0508
  474MOL0     C62476  -3.566   8.859   2.507  0.5946  0.3933  0.1131
  474MOL0     C62477  -3.626   8.818   2.365  0.9405  0.2102 -0.8072
  474MOL0     C62478  -3.782   8.802   2.393 -0.6897  0.2763 -0.2733
  474MOL0     C62479  -3.846   8.937   2.420 -0.3549 -0.0076  0.5469
  474MOL0    Cl62480  -3.942   8.908   2.567 -0.2323 -0.2591  0.0689
  474MOL0     C62481  -2.787   8.852   2.424  0.0973 -0.0174  0.0103
  474MOL0     C62482  -2.681   8.812   2.510  0.0427 -0.2368  0.2597
  474MOL0     O62483  -2.465   8.663   2.652  0.4372 -0.6105  0.3125
  474MOL0     C62484  -2.238   8.737   2.794 -0.5468  0.8292 -0.9149
  474MOL0     C62485  -2.125   8.772   2.876 -0.5525 -0.0346  0.3363
  474MOL0     N62486  -1.438   8.667   3.227  0.2724  0.1578  0.3248
  474MOL0     N62487  -1.312   8.663   3.222  0.6034 -0.1486 -0.2108
  474MOL0     C62488   0.047   8.963   3.263 -0.0938  1.6404  0.9435
  474MOL0     C62489   0.185   8.955   3.301  0.4959 -0.1664  0.5074
  474MOL0     C62490   0.552   9.020   3.534  0.5118  0.7017  0.0707
  474MOL0     C62491   0.646   8.912   3.511  0.4512  0.0661 -0.5955
  474MOL0     C62492   0.783   8.929   3.531 -1.4309  0.0665 -0.1951
  474MOL0     C62493   0.830   9.048   3.577 -0.1901  0.6830 -0.8679
  474MOL0     O62494   0.956   9.072   3.619 -0.3094 -0.0326  0.6221
  474MOL0     C62495   1.020   9.148   3.514  0.9556  0.5799  0.0301
  474MOL0     C62496   1.128   9.250   3.565  0.0261  0.1541 -0.4626
  474MOL0     C62497   1.091   9.333   3.687  0.6018  0.2114  0.0816
  474MOL0     C62498   1.149   9.477   3.692  0.5160  0.5151 -0.4954
  474MOL0     C62499   1.124   9.557   3.570  0.5557  0.5436 -0.4645
  474MOL0     C62500   1.078   9.616   3.471  0.3042  0.2687  0.1137
  474MOL0     C62501   0.746   9.150   3.592  0.1834 -0.6771 -0.0537
  474MOL0     C62502   0.606   9.145   3.582  0.0732 -0.6107  1.4833
  474MOL0     H62503   0.144   8.813   3.603  0.6682 -2.0713 -0.8146
  474MOL0     H62504  -0.070   8.897   3.574 -1.8783 -0.9045 -1.2323
  474MOL0     H62505  -0.285   8.953   3.502 -1.4937 -0.4246  0.4301
  474MOL0     H62506  -0.279   8.788   3.422 -5.8743 -2.1114 -2.8739
  474MOL0     H62507  -0.397   8.934   3.226  0.6533  1.1275  0.4336
  474MOL0     H62508  -0.450   9.025   3.365 -2.6073 -0.1319 -1.1866
  474MOL0     H62509  -0.567   8.822   3.462 -1.4107 -0.5452 -0.0354
  474MOL0     H62510  -0.511   8.741   3.315  2.1698  1.1410 -1.1856
  474MOL0     H62511  -0.690   8.986   3.310  2.4414  0.3708  1.1149
  474MOL0     H62512  -0.651   8.873   3.169 -1.7152 -0.5343 -0.9634
  474MOL0     H62513  -0.816   8.809   3.402 -0.4513 -2.9316 -1.4101
  474MOL0     H62514  -0.757   8.701   3.274  0.9821  0.0117 -2.2339
  474MOL0     H62515  -0.888   8.831   3.105 -2.6182  2.0014 -1.0258
  474MOL0     H62516  -0.897   8.960   3.222  0.8625 -0.2855  1.4584
  474MOL0     H62517  -1.034   8.696   3.289 -2.2738  0.5359  1.8544
  474MOL0     H62518  -1.049   8.849   3.361  0.3750 -1.4150  0.7758
  474MOL0     H62519  -1.098   8.793   3.065  2.3942  0.8071 -0.1522
  474MOL0     H62520  -1.129   8.943   3.138  1.3540  1.4105  3.8584
  474MOL0     H62521  -1.367   8.970   3.127  0.7094 -0.7865 -1.1299
  474MOL0     H62522  -1.604   8.946   3.097 -1.3392  1.3452  1.8272
  474MOL0     H62523  -1.672   8.866   3.243  0.6843  1.5711  0.8101
  474MOL0     H62524  -1.660   8.652   3.084  0.6027 -0.4635 -1.2733
  474MOL0     H62525  -1.658   8.786   2.956  1.6090  0.8667  0.0119
  474MOL0     H62526  -1.901   8.694   3.020 -2.3683  1.8455 -0.5718
  474MOL0     H62527  -1.854   8.747   3.180 -1.0691  2.9105 -0.3414
  474MOL0     H62528  -1.886   8.931   2.939 -0.5464 -2.5700 -1.3862
  474MOL0     H62529  -1.839   8.966   3.105 -0.1902 -1.3991  0.3616
  474MOL0     H62530  -2.252   9.027   3.035 -2.1672 -0.2268  0.1349
  474MOL0     H62531  -2.444   8.990   2.883  1.0794 -0.0410  1.4793
  474MOL0     H62532  -2.819   8.952   2.797 -2.0319  1.4983 -1.0917
  474MOL0     H62533  -2.996   9.010   2.641 -1.8178 -3.1319 -1.4654
  474MOL0     H62534  -3.191   8.970   2.305  0.7675  0.2458 -0.6562
  474MOL0     H62535  -3.160   9.034   2.470 -3.2177  0.6984 -1.5114
  474MOL0     H62536  -3.163   8.827   2.568  0.1341  0.3694  0.0432
  474MOL0     H62537  -3.125   8.733   2.422  2.3520  1.5231  0.4242
  474MOL0     H62538  -3.349   8.693   2.491 -1.3106  0.4259  0.6067
  474MOL0     H62539  -3.353   8.764   2.330 -1.8679  1.9190  0.1585
  474MOL0     H62540  -3.383   8.938   2.592  0.2115 -1.2532  0.5504
  474MOL0     H62541  -3.408   8.990   2.441  1.7511  1.5531  2.8578
  474MOL0     H62542  -3.610   8.954   2.538 -1.9630 -0.5595 -0.3476
  474MOL0     H62543  -3.589   8.789   2.588  1.8221 -2.7761 -2.0730
  474MOL0     H62544  -3.587   8.718   2.343  1.1439  0.5264 -1.9413
  474MOL0     H62545  -3.601   8.888   2.284 -0.7420  0.8286 -0.8298
  474MOL0     H62546  -3.835   8.745   2.316 -0.0316 -0.5791 -0.1169
  474MOL0     H62547  -3.793   8.749   2.488  2.0334  1.3660  0.7209
  474MOL0     H62548  -3.915   8.959   2.338 -0.9235  0.7887  1.2239
  474MOL0     H62549  -3.779   9.023   2.429 -3.4212  2.6461  0.0138
  474MOL0     H62550  -2.784   8.830   2.318 -0.2062  0.1027 -0.0224
  474MOL0     H62551  -2.590   8.780   2.460  0.9362  0.2821  1.4928
  474MOL0     H62552  -2.226   8.658   2.720 -0.3969  0.7266 -0.7819
  474MOL0     H62553  -2.036   8.711   2.866  0.4788  1.0925  2.2857
  474MOL0     H62554   0.025   9.000   3.163 -0.4393  0.1552  0.4527
  474MOL0     H62555   0.262   8.973   3.227 -1.0730 -1.5169 -1.5916
  474MOL0     H62556   0.617   8.816   3.470  1.6996 -0.2322 -0.8446
  474MOL0     H62557   0.848   8.851   3.492  0.5144  2.7236 -2.7648
  474MOL0     H62558   0.953   9.204   3.448  3.3907 -1.0470 -4.2491
  474MOL0     H62559   1.068   9.072   3.451 -0.2186 -1.3005  1.3141
  474MOL0     H62560   1.218   9.191   3.584 -0.6772 -0.7082  0.2721
  474MOL0     H62561   1.160   9.312   3.481  2.1390  1.0016  0.8622
  474MOL0     H62562   1.129   9.290   3.780 -0.3953 -1.6276 -0.2988
  474MOL0     H62563   0.982   9.330   3.690  0.4736 -1.4894 -2.7506
  474MOL0     H62564   1.113   9.517   3.787  0.8594 -0.2109 -0.0479
  474MOL0     H62565   1.257   9.467   3.702  0.4667 -0.4331 -0.8383
  474MOL0     H62566   1.036   9.674   3.392  1.6602  0.6045 -0.3874
  474MOL0     H62567   0.793   9.231   3.647  0.5664 -0.1128 -1.1822
  474MOL0     H62568   0.546   9.232   3.607 -0.9007 -0.5114 -0.9505
  475MOL0     O62569   7.918   6.250   7.849 -0.0930 -0.0795 -0.4135
  475MOL0     C62570   7.980   6.227   7.747  0.4757 -0.4819  0.0145
  475MOL0     O62571   7.927   6.182   7.636  0.4914  0.3534 -0.3606
  475MOL0     C62572   7.795   6.160   7.626  1.0079 -0.0577 -0.2756
  475MOL0     C62573   7.743   6.202   7.503  0.4944 -0.1883  0.1871
  475MOL0     C62574   7.603   6.188   7.482  0.6602 -1.0913 -0.9468
  475MOL0     C62575   7.519   6.142   7.583  0.1231  0.1278 -0.7957
  475MOL0     O62576   7.380   6.151   7.565 -0.8606 -0.6764  0.2603
  475MOL0     C62577   7.293   6.179   7.678 -0.2613  0.1423 -0.4654
  475MOL0     C62578   7.175   6.085   7.674 -0.4071 -1.3021 -0.3006
  475MOL0     C62579   7.084   6.108   7.555 -1.1222 -0.8029 -0.1977
  475MOL0     C62580   6.992   5.991   7.525  0.3670  0.1736 -0.7051
  475MOL0     C62581   6.913   6.020   7.392  0.0870 -0.1464  0.1341
  475MOL0     C62582   6.821   5.891   7.363 -0.0003 -0.0174 -0.9594
  475MOL0     C62583   6.760   5.882   7.222 -0.0089  0.3168 -0.1868
  475MOL0     C62584   6.843   5.810   7.120 -0.2612  0.5563  0.2143
  475MOL0     N62585   6.873   5.673   7.153  0.1236  0.5159  0.2256
  475MOL0     C62586   6.772   5.577   7.131 -0.3429  0.2595 -0.2946
  475MOL0     C62587   6.833   5.451   7.174  0.7386 -0.2158  0.5685
  475MOL0     C62588   6.770   5.316   7.185 -1.0039 -0.7019 -0.0873
  475MOL0     C62589   6.631   5.297   7.130  0.4550 -0.6265  0.0412
  475MOL0     C62590   6.574   5.154   7.130  0.4172  0.2094  0.4468
  475MOL0     C62591   6.418   5.160   7.152  0.2179 -0.0054 -0.8375
  475MOL0     O62592   6.364   5.206   7.035  0.2266  0.4895  0.8191
  475MOL0     C62593   6.228   5.222   7.023 -0.3500  0.8336  0.6339
  475MOL0     C62594   6.170   5.236   6.894 -0.4090  0.3233 -0.2963
  475MOL0     C62595   6.033   5.262   6.885  0.3235 -0.6310 -0.5182
  475MOL0     C62596   5.948   5.287   6.991  0.3279  0.5090  0.2415
  475MOL0     C62597   5.806   5.331   6.971  0.3013  0.1466  0.5022
  475MOL0     O62598   5.764   5.341   6.841  0.3110 -0.5319 -0.8281
  475MOL0     C62599   5.625   5.370   6.818  0.2718 -0.1750 -0.4690
  475MOL0     C62600   5.600   5.453   6.707  0.3491  0.5192 -0.4004
  475MOL0     C62601   5.465   5.485   6.682  0.0934  0.1253  0.3327
  475MOL0     C62602   5.363   5.453   6.773 -0.7181 -0.3233 -0.1865
  475MOL0     O62603   5.240   5.507   6.766 -0.2894 -0.3710 -0.0085
  475MOL0     C62604   5.125   5.425   6.781  0.0211  0.3047  0.9266
  475MOL0     C62605   5.047   5.423   6.654 -0.1667 -0.4157 -0.1854
  475MOL0     C62606   4.904   5.374   6.675  0.1727 -0.6552  0.3374
  475MOL0     C62607   4.886   5.232   6.650  1.5244  0.4184  0.0211
  475MOL0     C62608   4.751   5.169   6.690 -0.2987 -0.3402  0.0601
  475MOL0     C62609   4.734   5.033   6.621  0.3914  0.7727 -0.1649
  475MOL0     C62610   4.639   4.939   6.695 -0.2188 -0.3970  0.2070
  475MOL0     C62611   4.509   5.008   6.702  0.2678 -0.6909 -0.0919
  475MOL0    Cl62612   4.392   4.908   6.763 -0.0565 -0.0196  0.2507
  475MOL0     C62613   5.387   5.361   6.870 -0.0451 -0.0453 -0.0322
  475MOL0     C62614   5.519   5.319   6.896  1.3762 -0.2049  0.2313
  475MOL0     O62615   5.744   5.365   7.074 -0.3248 -0.8360  0.3283
  475MOL0     C62616   6.000   5.268   7.121  0.8673  0.1252 -0.4551
  475MOL0     C62617   6.139   5.231   7.133  0.0230  0.2013 -0.4889
  475MOL0     N62618   6.967   5.484   7.185 -0.6967  0.3323 -0.1397
  475MOL0     N62619   6.991   5.617   7.171 -0.2456  0.8919  0.2444
  475MOL0     C62620   7.570   6.098   7.708  0.5293 -0.4673 -0.3204
  475MOL0     C62621   7.709   6.106   7.725  0.8531  0.0954  0.5421
  475MOL0     C62622   8.126   6.222   7.757 -0.4909  0.2066  0.1013
  475MOL0     C62623   8.196   6.243   7.876  0.8319  0.6358 -0.2045
  475MOL0     C62624   8.337   6.252   7.881  0.2616 -0.7770 -0.3647
  475MOL0     C62625   8.417   6.219   7.769  0.2613  0.3896 -0.1504
  475MOL0     O62626   8.556   6.204   7.771 -0.1841  0.3840 -0.5133
  475MOL0     C62627   8.630   6.230   7.893  0.1907  0.9220  0.5604
  475MOL0     C62628   8.625   6.377   7.945  0.8202  1.1679  0.4748
  475MOL0     C62629   8.665   6.482   7.838 -0.4731 -0.2069  0.4838
  475MOL0     C62630   8.657   6.616   7.907 -0.9108  0.7396  0.9800
  475MOL0     C62631   8.672   6.720   7.803 -0.7770  0.2535  0.5271
  475MOL0     C62632   8.662   6.805   7.718 -0.2868  0.1790  0.6263
  475MOL0     C62633   8.349   6.209   7.653  0.1985  0.0892 -0.4533
  475MOL0     C62634   8.207   6.204   7.640  0.0902  0.8258  0.3402
  475MOL0     H62635   7.807   6.254   7.432 -0.1645 -0.0075 -0.2879
  475MOL0     H62636   7.550   6.222   7.394 -1.8177  3.7122  1.9667
  475MOL0     H62637   7.254   6.281   7.670  2.7269  1.3251 -1.6927
  475MOL0     H62638   7.341   6.184   7.776 -1.7256 -0.4048  0.3056
  475MOL0     H62639   7.114   6.099   7.764 -0.7696 -1.3384 -0.5365
  475MOL0     H62640   7.210   5.982   7.681  0.1902 -1.0829 -0.0327
  475MOL0     H62641   7.139   6.129   7.463 -0.4676  1.8066  0.7069
  475MOL0     H62642   7.029   6.201   7.573 -2.3938 -1.1132 -2.1304
  475MOL0     H62643   7.043   5.895   7.517 -0.1667 -0.0217 -2.1139
  475MOL0     H62644   6.923   5.984   7.610 -1.0399  0.2922 -1.7938
  475MOL0     H62645   6.973   6.034   7.301  0.1886  2.0876  0.4858
  475MOL0     H62646   6.848   6.107   7.405 -1.6744 -1.5733  1.2468
  475MOL0     H62647   6.735   5.898   7.429  0.4106 -2.2394 -0.1259
  475MOL0     H62648   6.874   5.797   7.382  0.0298 -0.1163 -1.5095
  475MOL0     H62649   6.661   5.836   7.222 -1.1350  2.4543 -3.0470
  475MOL0     H62650   6.756   5.988   7.196 -0.8922  0.2514 -0.3196
  475MOL0     H62651   6.931   5.869   7.092 -0.2464 -0.1803 -1.3736
  475MOL0     H62652   6.784   5.797   7.029 -0.1663  1.7742 -0.0291
  475MOL0     H62653   6.671   5.603   7.103 -0.1977 -0.5673 -1.7006
  475MOL0     H62654   6.770   5.302   7.294  2.3851  1.5383  0.3796
  475MOL0     H62655   6.833   5.235   7.147  2.2811 -0.3314  3.7960
  475MOL0     H62656   6.623   5.350   7.035 -0.0444  1.4905  1.1873
  475MOL0     H62657   6.558   5.355   7.187  1.7154  1.8322 -0.6526
  475MOL0     H62658   6.588   5.110   7.031 -2.7333  2.0636 -0.9787
  475MOL0     H62659   6.607   5.083   7.206 -0.3072 -0.3668  0.2392
  475MOL0     H62660   6.387   5.222   7.237  0.2214 -1.5323  0.3362
  475MOL0     H62661   6.365   5.065   7.158 -0.4292  0.2819 -1.8180
  475MOL0     H62662   6.226   5.219   6.803 -1.3182  0.5158 -0.8992
  475MOL0     H62663   5.998   5.285   6.785  1.5282  0.5856 -0.6904
  475MOL0     H62664   5.675   5.466   6.629 -1.6667 -5.7815 -4.2035
  475MOL0     H62665   5.436   5.537   6.591 -1.4798  2.7880  2.1929
  475MOL0     H62666   5.068   5.473   6.860 -1.9113  2.5594 -1.6440
  475MOL0     H62667   5.153   5.321   6.801  1.4192  0.9391  2.4335
  475MOL0     H62668   5.101   5.382   6.568  1.4531 -0.4729  0.8163
  475MOL0     H62669   5.035   5.528   6.624 -1.6591  0.4437  3.0292
  475MOL0     H62670   4.837   5.426   6.606  1.1624 -1.8637 -1.6218
  475MOL0     H62671   4.867   5.391   6.777  0.9393 -1.3381  0.7401
  475MOL0     H62672   4.909   5.212   6.545 -4.6023  0.9491 -1.8351
  475MOL0     H62673   4.959   5.182   6.713  1.8244  0.8551  0.0263
  475MOL0     H62674   4.669   5.231   6.651  0.7634  1.0942 -0.0085
  475MOL0     H62675   4.743   5.175   6.799  2.2609  1.2147  0.2687
  475MOL0     H62676   4.832   4.988   6.604  0.2732 -0.5699  2.2100
  475MOL0     H62677   4.699   5.054   6.519 -0.2177 -1.1498 -0.3988
  475MOL0     H62678   4.633   4.846   6.638  2.7639 -0.9892  0.6765
  475MOL0     H62679   4.686   4.929   6.794  0.7938  2.4143  0.0968
  475MOL0     H62680   4.475   5.040   6.603 -1.1627 -0.4613  0.4638
  475MOL0     H62681   4.509   5.102   6.758  0.9556  1.4343 -3.3541
  475MOL0     H62682   5.307   5.317   6.928 -0.1224 -0.1861 -0.2489
  475MOL0     H62683   5.543   5.240   6.966 -3.1893 -1.6661  0.4847
  475MOL0     H62684   5.941   5.284   7.210  3.2278  1.2504  0.9926
  475MOL0     H62685   6.172   5.209   7.233  1.3169 -2.6322 -1.4495
  475MOL0     H62686   7.514   6.051   7.789  1.8333 -0.9758  0.3232
  475MOL0     H62687   7.753   6.070   7.818  2.8026 -0.7316 -0.6534
  475MOL0     H62688   8.143   6.257   7.969  0.0732 -2.1546 -0.1033
  475MOL0     H62689   8.383   6.260   7.979  2.4479 -2.1587 -1.2009
  475MOL0     H62690   8.735   6.201   7.887  0.4024  1.9087 -0.9081
  475MOL0     H62691   8.585   6.162   7.966 -2.1390  1.5775 -0.1725
  475MOL0     H62692   8.528   6.406   7.987 -0.1475 -3.0087  1.6727
  475MOL0     H62693   8.697   6.385   8.027  0.9810 -2.3898  0.8535
  475MOL0     H62694   8.594   6.478   7.755  0.4015 -0.2659 -0.2735
  475MOL0     H62695   8.767   6.453   7.811 -0.0194  0.0666  1.8272
  475MOL0     H62696   8.554   6.631   7.942 -1.6535  0.7669 -1.0596
  475MOL0     H62697   8.727   6.631   7.990 -2.3520 -1.4284  2.6943
  475MOL0     H62698   8.652   6.889   7.653 -3.0780 -1.1977 -0.8928
  475MOL0     H62699   8.406   6.177   7.566  1.1246  1.4897 -0.3924
  475MOL0     H62700   8.151   6.189   7.548  2.9532  0.7316 -1.4962
  476MOL0     O62701   2.370   1.328   4.537  0.0364 -0.4010  0.7797
  476MOL0     C62702   2.381   1.398   4.436 -0.6494 -0.3152 -0.5475
  476MOL0     O62703   2.282   1.465   4.374 -0.2532 -0.1043  0.3391
  476MOL0     C62704   2.152   1.465   4.416  0.4885 -0.9933 -0.4619
  476MOL0     C62705   2.096   1.436   4.538  0.1660  0.4260  0.2688
  476MOL0     C62706   1.957   1.454   4.569 -0.8336  0.0720  0.3570
  476MOL0     C62707   1.865   1.510   4.477  0.1068  0.5881  0.0292
  476MOL0     O62708   1.733   1.524   4.521  0.1294  0.2318 -0.2409
  476MOL0     C62709   1.645   1.589   4.424  0.2060  0.5349 -0.2914
  476MOL0     C62710   1.507   1.565   4.474  0.3988 -0.6230  0.2669
  476MOL0     C62711   1.400   1.642   4.402  0.2375 -0.1627 -0.7998
  476MOL0     C62712   1.263   1.597   4.461  0.0955 -0.3634  0.2153
  476MOL0     C62713   1.132   1.670   4.431 -0.9733  0.5202  0.5531
  476MOL0     C62714   1.096   1.679   4.289  0.2509  0.1818  0.6148
  476MOL0     C62715   0.962   1.755   4.277  0.0142  0.1507  0.6998
  476MOL0     C62716   0.830   1.664   4.278 -0.4577  0.0760  0.2104
  476MOL0     N62717   0.707   1.734   4.242  0.5264 -0.4739 -0.3153
  476MOL0     C62718   0.639   1.720   4.120 -0.0220  0.4033 -0.1428
  476MOL0     C62719   0.521   1.778   4.144  0.0814  0.7785 -0.3090
  476MOL0     C62720   0.418   1.791   4.034  0.1049  0.1655  0.1014
  476MOL0     C62721   0.289   1.864   4.073  0.2941 -0.0090  0.3104
  476MOL0     C62722   0.316   2.018   4.065 -0.1907 -0.4903  0.9184
  476MOL0     C62723   0.193   2.107   4.093  0.1584  0.0666  0.5688
  476MOL0     O62724   0.127   2.061   4.207  0.3826  0.0111  1.1179
  476MOL0     C62725   0.005   2.119   4.241 -0.4540 -0.8883 -0.0169
  476MOL0     C62726  -0.057   2.214   4.160  0.0109 -0.3881  0.3064
  476MOL0     C62727  -0.176   2.261   4.201  0.0235 -0.5271 -0.1627
  476MOL0     C62728  -0.239   2.232   4.329 -0.1792 -0.1803  0.5775
  476MOL0     C62729  -0.356   2.306   4.369 -0.4077 -0.4156  0.4486
  476MOL0     O62730  -0.380   2.306   4.501 -0.3633 -0.4550 -0.7550
  476MOL0     C62731  -0.499   2.340   4.565  0.6318  0.6332  0.1618
  476MOL0     C62732  -0.619   2.316   4.514  0.0482  1.5178 -0.1916
  476MOL0     C62733  -0.735   2.340   4.589 -0.8947  0.9580  0.3794
  476MOL0     C62734  -0.734   2.416   4.707  0.3720  0.0453  0.3553
  476MOL0     O62735  -0.850   2.437   4.773  0.5647 -0.1089 -0.7012
  476MOL0     C62736  -0.888   2.570   4.810 -0.7316 -0.8191  0.7588
  476MOL0     C62737  -1.011   2.560   4.894  0.0853 -0.2520 -0.6441
  476MOL0     C62738  -1.131   2.514   4.823 -0.7188  0.9349 -0.2729
  476MOL0     C62739  -1.249   2.495   4.916 -0.0666  0.0386 -0.4889
  476MOL0     C62740  -1.371   2.429   4.852 -0.4878  0.6127  0.5621
  476MOL0     C62741  -1.482   2.422   4.960 -0.5144  0.1618 -0.1214
  476MOL0     C62742  -1.608   2.348   4.915 -0.1405 -0.3641 -1.3596
  476MOL0     C62743  -1.710   2.339   5.023  0.0898 -0.4631  0.3997
  476MOL0    Cl62744  -1.851   2.235   4.974  0.3690 -0.4385  0.1756
  476MOL0     C62745  -0.608   2.447   4.760 -0.4666 -0.5790  0.2613
  476MOL0     C62746  -0.497   2.412   4.683  0.1612 -0.5801 -0.3243
  476MOL0     O62747  -0.435   2.348   4.283  0.1091 -0.2432  0.1090
  476MOL0     C62748  -0.177   2.126   4.397  0.0914 -0.3234 -0.0680
  476MOL0     C62749  -0.058   2.070   4.355 -0.3230 -0.4250 -0.3751
  476MOL0     N62750   0.516   1.835   4.272  0.1429 -0.1093 -0.2760
  476MOL0     N62751   0.631   1.798   4.329  0.5275 -0.3001 -0.7848
  476MOL0     C62752   1.928   1.535   4.348  0.4384 -0.0770  0.7258
  476MOL0     C62753   2.059   1.509   4.316  0.3497 -0.3620 -0.1026
  476MOL0     C62754   2.520   1.431   4.394  0.9867 -0.6327  0.7766
  476MOL0     C62755   2.625   1.360   4.447 -0.0253 -0.6111 -0.7208
  476MOL0     C62756   2.757   1.370   4.406 -0.2954  0.2892 -0.4161
  476MOL0     C62757   2.790   1.464   4.307  0.4540  0.1598 -0.4171
  476MOL0     O62758   2.918   1.464   4.274 -0.5259  0.4175 -0.4231
  476MOL0     C62759   2.962   1.558   4.178  0.8336  0.1245  0.2138
  476MOL0     C62760   2.952   1.711   4.219  1.6683  0.1252 -0.0119
  476MOL0     C62761   3.056   1.740   4.332  0.3620  1.0997  0.0717
  476MOL0     C62762   3.013   1.711   4.477 -0.4838 -0.1874 -0.8804
  476MOL0     C62763   3.104   1.771   4.574 -0.2371  0.2004  0.1485
  476MOL0     C62764   3.161   1.848   4.646  0.3763  0.3405  0.1652
  476MOL0     C62765   2.686   1.529   4.235  0.4123 -0.2632 -0.9174
  476MOL0     C62766   2.551   1.516   4.289  0.1393  0.0165  0.6585
  476MOL0     H62767   2.169   1.410   4.614  2.8609  2.8453 -1.2916
  476MOL0     H62768   1.927   1.427   4.670  2.3480 -0.1841  1.3159
  476MOL0     H62769   1.660   1.534   4.331 -2.0571 -0.1970 -0.2881
  476MOL0     H62770   1.660   1.697   4.412  2.9472  0.4379  1.2471
  476MOL0     H62771   1.506   1.606   4.575 -0.6387  1.8414 -0.6503
  476MOL0     H62772   1.483   1.459   4.472 -1.6649 -0.2013 -2.2546
  476MOL0     H62773   1.409   1.636   4.293  0.0324  3.6971 -1.1675
  476MOL0     H62774   1.411   1.750   4.421 -0.4652 -0.0464 -1.0241
  476MOL0     H62775   1.247   1.491   4.439 -0.2747  0.3809 -3.8617
  476MOL0     H62776   1.275   1.602   4.570  2.2122 -1.1658  0.0614
  476MOL0     H62777   1.134   1.773   4.467 -0.8048 -0.0195  2.1369
  476MOL0     H62778   1.050   1.620   4.483 -2.0781  0.2297 -1.3559
  476MOL0     H62779   1.093   1.581   4.240  2.3312 -0.4840  1.7154
  476MOL0     H62780   1.163   1.742   4.230  0.1557 -1.6160 -1.5723
  476MOL0     H62781   0.956   1.840   4.345 -2.4530  2.8155 -2.5247
  476MOL0     H62782   0.959   1.797   4.176 -0.6270 -1.2075  0.1288
  476MOL0     H62783   0.815   1.622   4.379  1.4135  0.3876  0.6535
  476MOL0     H62784   0.841   1.589   4.200 -2.7879 -1.9042  1.6075
  476MOL0     H62785   0.656   1.668   4.026 -2.4737 -0.8249 -0.0104
  476MOL0     H62786   0.388   1.691   4.004  1.5974 -0.4756  0.6239
  476MOL0     H62787   0.470   1.843   3.953  2.8102 -1.4983  0.6363
  476MOL0     H62788   0.261   1.824   4.171  1.5721 -0.0407  0.6696
  476MOL0     H62789   0.212   1.834   4.001  4.3206 -1.6195 -3.8355
  476MOL0     H62790   0.403   2.061   4.116  2.1643 -1.9626 -1.5899
  476MOL0     H62791   0.337   2.041   3.961  0.1387  1.9887  1.4850
  476MOL0     H62792   0.131   2.108   4.003  1.2054  0.4469 -0.1694
  476MOL0     H62793   0.227   2.211   4.096 -1.0601  0.5526 -1.0082
  476MOL0     H62794  -0.024   2.239   4.060  0.6251  2.1190  1.0512
  476MOL0     H62795  -0.217   2.336   4.134 -2.8851  0.0384  2.0772
  476MOL0     H62796  -0.621   2.252   4.426  1.2328  0.1155  0.7381
  476MOL0     H62797  -0.830   2.301   4.555 -1.6335  0.1240  3.1525
  476MOL0     H62798  -0.906   2.625   4.717 -1.9955  0.0155  1.4599
  476MOL0     H62799  -0.806   2.613   4.868  0.5049  0.0305 -1.4940
  476MOL0     H62800  -1.042   2.660   4.923 -5.3237 -0.7782 -3.2892
  476MOL0     H62801  -0.991   2.507   4.988 -3.7636  1.2827  1.2389
  476MOL0     H62802  -1.102   2.421   4.773  2.6463  2.4435 -1.4665
  476MOL0     H62803  -1.158   2.586   4.745 -2.3318 -0.8930 -1.5047
  476MOL0     H62804  -1.209   2.436   4.999  1.0465  2.2096  0.6020
  476MOL0     H62805  -1.272   2.589   4.967  1.2894 -0.1498  0.5091
  476MOL0     H62806  -1.339   2.331   4.815 -1.3740  0.9380 -1.1346
  476MOL0     H62807  -1.407   2.500   4.777  0.1341  0.1711 -0.1772
  476MOL0     H62808  -1.504   2.521   5.001 -1.2984 -0.8305  2.0525
  476MOL0     H62809  -1.428   2.365   5.036 -0.1303  0.3877 -0.2247
  476MOL0     H62810  -1.656   2.394   4.828 -0.2237 -0.2826 -1.2698
  476MOL0     H62811  -1.566   2.251   4.887  1.1522 -0.6478  1.2851
  476MOL0     H62812  -1.745   2.441   5.043 -1.0231 -1.0047  1.3093
  476MOL0     H62813  -1.659   2.312   5.116 -1.6146  1.1881  1.8875
  476MOL0     H62814  -0.587   2.509   4.847  4.1440 -1.5880  0.1480
  476MOL0     H62815  -0.401   2.448   4.720  0.8527 -1.0477 -1.6077
  476MOL0     H62816  -0.227   2.083   4.483  2.6615 -1.1777  1.0901
  476MOL0     H62817  -0.011   1.989   4.410 -0.2614 -0.6302 -0.7226
  476MOL0     H62818   1.852   1.556   4.273 -2.0257  0.5481  3.2459
  476MOL0     H62819   2.095   1.553   4.224  1.0481  1.3159  0.9300
  476MOL0     H62820   2.605   1.274   4.509  0.1377  0.3403  0.6859
  476MOL0     H62821   2.828   1.315   4.468 -3.5116 -2.5262  1.1120
  476MOL0     H62822   2.900   1.547   4.089  0.3415  0.4600  0.5148
  476MOL0     H62823   3.061   1.536   4.136 -0.6100 -0.6495 -3.0763
  476MOL0     H62824   2.973   1.776   4.133  0.8185  0.5047  0.0576
  476MOL0     H62825   2.851   1.735   4.253  1.2739 -1.5853  0.0884
  476MOL0     H62826   3.078   1.848   4.336  2.4744  0.8155 -1.9199
  476MOL0     H62827   3.147   1.686   4.307 -0.4154  1.3875 -4.1149
  476MOL0     H62828   2.914   1.755   4.488 -0.0837  0.4178  0.5226
  476MOL0     H62829   3.011   1.602   4.489  0.7367 -0.2973 -1.5109
  476MOL0     H62830   3.212   1.897   4.727  0.5470 -0.1855  0.3846
  476MOL0     H62831   2.709   1.585   4.145  0.7669  1.8330  0.4032
  476MOL0     H62832   2.475   1.573   4.236  1.2608  1.5967  0.6623
  477MOL0     O62833   5.938   7.312   4.634  0.0302  0.2615  0.0266
  477MOL0     C62834   6.013   7.246   4.703 -0.4941  0.1916  0.7051
  477MOL0     O62835   5.977   7.166   4.808 -0.2621 -0.0933  0.3220
  477MOL0     C62836   5.856   7.169   4.865  0.0969  0.2518  0.0266
  477MOL0     C62837   5.803   7.293   4.919 -0.2787  1.0366  0.8593
  477MOL0     C62838   5.679   7.280   4.980 -0.0562 -0.4131 -0.9268
  477MOL0     C62839   5.602   7.158   4.993  0.4588 -0.4884 -0.0140
  477MOL0     O62840   5.487   7.152   5.067 -0.0984 -0.0803  0.7956
  477MOL0     C62841   5.405   7.265   5.063  0.2184  0.2698  0.4267
  477MOL0     C62842   5.255   7.235   5.088  0.7696  0.5337 -0.7559
  477MOL0     C62843   5.243   7.172   5.236 -0.0967  0.2337  0.3411
  477MOL0     C62844   5.109   7.107   5.258 -0.4522 -0.8071 -0.1892
  477MOL0     C62845   5.114   7.040   5.392 -0.3591 -0.8013 -0.8058
  477MOL0     C62846   5.029   6.914   5.403  0.4228  0.6906 -0.0706
  477MOL0     C62847   5.021   6.845   5.534 -0.8823  0.2207  0.3224
  477MOL0     C62848   4.968   6.937   5.649  0.0084  0.1775 -1.2052
  477MOL0     N62849   4.816   6.938   5.666 -0.1555  0.7008  0.1271
  477MOL0     C62850   4.723   6.987   5.573  0.1311 -0.2052  0.0673
  477MOL0     C62851   4.601   6.976   5.632 -0.4577 -0.7405 -0.9289
  477MOL0     C62852   4.460   7.010   5.588  0.2242 -0.8562 -0.5099
  477MOL0     C62853   4.366   7.083   5.682  0.1095  0.0247 -0.9059
  477MOL0     C62854   4.221   7.054   5.639 -0.6531  0.5561  0.5762
  477MOL0     C62855   4.130   7.043   5.761 -0.7385  1.0580 -0.8918
  477MOL0     O62856   4.001   6.995   5.724 -0.5054 -0.2450 -0.1881
  477MOL0     C62857   3.908   6.995   5.831 -0.6017  0.2398  0.3101
  477MOL0     C62858   3.781   6.949   5.809 -0.3300 -0.1383 -0.3801
  477MOL0     C62859   3.696   6.932   5.907  0.0412  0.0025 -0.9383
  477MOL0     C62860   3.723   6.968   6.040 -0.6148  0.2213  0.0810
  477MOL0     C62861   3.625   6.944   6.145  0.3417 -0.0863  0.5466
  477MOL0     O62862   3.649   6.999   6.266  0.2115 -0.5160 -0.1014
  477MOL0     C62863   3.538   7.028   6.345 -0.2074 -0.1578  0.0439
  477MOL0     C62864   3.511   7.166   6.363  0.5203  0.3818  0.6650
  477MOL0     C62865   3.397   7.202   6.434  0.1415 -0.3383  0.7464
  477MOL0     C62866   3.313   7.103   6.503 -0.1780  0.3619  0.1408
  477MOL0     O62867   3.208   7.129   6.583  0.6059 -0.0984 -0.8686
  477MOL0     C62868   3.213   7.244   6.672  0.3460  0.7585 -0.1592
  477MOL0     C62869   3.116   7.220   6.782  0.9474 -0.4133  0.4891
  477MOL0     C62870   2.972   7.202   6.752  0.3194 -0.3770  0.5390
  477MOL0     C62871   2.896   7.170   6.884  0.2622  0.2972  0.3340
  477MOL0     C62872   2.748   7.118   6.863 -1.3406 -0.1158  0.0745
  477MOL0     C62873   2.699   7.048   6.987 -0.0939 -1.0650 -0.4646
  477MOL0     C62874   2.564   6.971   6.960 -0.5185 -0.2808  1.2610
  477MOL0     C62875   2.543   6.845   7.038 -0.2517 -0.3669  0.3883
  477MOL0    Cl62876   2.513   6.876   7.214  0.1777  0.1859  0.1615
  477MOL0     C62877   3.352   6.970   6.499 -0.4545 -0.5612  1.0558
  477MOL0     C62878   3.463   6.935   6.411  0.1347 -0.8330 -0.4138
  477MOL0     O62879   3.519   6.890   6.110  0.3216 -0.6337  0.2333
  477MOL0     C62880   3.854   7.010   6.065  1.2548 -0.5950 -0.2019
  477MOL0     C62881   3.942   7.029   5.961 -0.0704  0.5323 -0.5825
  477MOL0     N62882   4.621   6.902   5.745 -0.2646  0.0771  0.4400
  477MOL0     N62883   4.742   6.885   5.765  0.0437  0.5353 -0.0802
  477MOL0     C62884   5.661   7.045   4.934  0.0779  0.4482  0.2238
  477MOL0     C62885   5.794   7.052   4.894 -0.2038 -0.1668 -0.4768
  477MOL0     C62886   6.156   7.255   4.668  0.5041  0.5155 -0.1893
  477MOL0     C62887   6.208   7.347   4.571 -0.7535  0.3685 -0.0677
  477MOL0     C62888   6.352   7.341   4.557 -0.3083 -0.1697  0.4705
  477MOL0     C62889   6.430   7.240   4.612 -0.8582 -0.1727  0.6571
  477MOL0     O62890   6.557   7.252   4.575  0.5572 -1.0980  0.7977
  477MOL0     C62891   6.654   7.185   4.642  0.7531 -0.5797 -0.9745
  477MOL0     C62892   6.786   7.212   4.573 -0.8010 -0.1250  0.0704
  477MOL0     C62893   6.852   7.352   4.614  0.0844 -0.1754  0.1465
  477MOL0     C62894   6.978   7.395   4.534  0.3497  0.3262 -0.0834
  477MOL0     C62895   7.077   7.281   4.510 -0.1105 -1.4020 -0.3141
  477MOL0     C62896   7.160   7.190   4.522  0.2198 -0.2307 -0.1266
  477MOL0     C62897   6.384   7.150   4.700  0.9941 -0.2047  0.0358
  477MOL0     C62898   6.243   7.164   4.732 -0.4361  0.2913 -0.0998
  477MOL0     H62899   5.857   7.386   4.909  2.1489 -0.4538 -1.2378
  477MOL0     H62900   5.633   7.375   5.005  0.5982  0.0292 -1.3811
  477MOL0     H62901   5.416   7.306   4.962 -2.5580 -1.7472 -0.8100
  477MOL0     H62902   5.444   7.342   5.130  2.4675  1.0228 -1.6062
  477MOL0     H62903   5.225   7.162   5.012  3.3638 -0.3904 -0.9885
  477MOL0     H62904   5.203   7.330   5.068  1.3015  1.6072  2.3890
  477MOL0     H62905   5.258   7.258   5.303 -2.8680 -0.5832  2.1645
  477MOL0     H62906   5.327   7.104   5.254 -0.9296 -0.8755  0.0841
  477MOL0     H62907   5.023   7.175   5.251 -0.3514 -0.7944 -1.7434
  477MOL0     H62908   5.092   7.033   5.180 -0.2112  0.3985 -1.4363
  477MOL0     H62909   5.084   7.114   5.467  2.1573 -0.9018  0.3740
  477MOL0     H62910   5.216   7.016   5.421 -1.0230 -2.5584  0.2248
  477MOL0     H62911   5.068   6.843   5.329 -0.6671 -0.3067  0.2764
  477MOL0     H62912   4.932   6.943   5.359 -0.3400  0.0444  1.1390
  477MOL0     H62913   4.950   6.763   5.521  0.1787 -0.6409 -0.2306
  477MOL0     H62914   5.124   6.813   5.552  0.1873  2.2492 -1.6999
  477MOL0     H62915   4.988   7.040   5.621 -0.1987  0.7336  0.6038
  477MOL0     H62916   5.021   6.923   5.744  1.2677 -3.2611 -2.2527
  477MOL0     H62917   4.743   7.039   5.480 -3.9779 -1.0957 -1.5491
  477MOL0     H62918   4.421   6.916   5.547  1.2164 -1.3532 -0.3485
  477MOL0     H62919   4.470   7.074   5.500 -1.4203  0.3751  0.1520
  477MOL0     H62920   4.399   7.187   5.693  0.9570 -0.1589 -1.5462
  477MOL0     H62921   4.368   7.035   5.780 -1.3705 -3.0061 -2.2060
  477MOL0     H62922   4.188   7.133   5.571  1.6665 -0.5300 -2.0442
  477MOL0     H62923   4.211   6.966   5.574 -2.2501  0.7693  0.4958
  477MOL0     H62924   4.130   7.137   5.817  0.3735 -0.4731  1.8563
  477MOL0     H62925   4.172   6.969   5.830  0.1310  1.3901 -1.0583
  477MOL0     H62926   3.759   6.929   5.705 -1.3324  0.2677 -0.2531
  477MOL0     H62927   3.597   6.904   5.874 -0.9599  1.0609  1.0093
  477MOL0     H62928   3.567   7.241   6.310  0.6628 -0.3667 -0.2629
  477MOL0     H62929   3.357   7.302   6.431 -0.0072 -0.3895 -2.2553
  477MOL0     H62930   3.187   7.333   6.613  0.9624  0.0342 -1.5691
  477MOL0     H62931   3.308   7.256   6.724 -0.8024  1.2409  1.9338
  477MOL0     H62932   3.117   7.305   6.851  0.4659  4.2316 -4.5838
  477MOL0     H62933   3.151   7.125   6.823  1.1798 -0.5376  0.0029
  477MOL0     H62934   2.971   7.117   6.683 -0.8435  0.3539 -0.3862
  477MOL0     H62935   2.945   7.299   6.709  0.1245 -0.5870  0.1764
  477MOL0     H62936   2.955   7.091   6.932  1.4340  0.9235 -0.0248
  477MOL0     H62937   2.890   7.256   6.951 -0.5612  0.7762 -0.3369
  477MOL0     H62938   2.753   7.050   6.777 -1.4907 -0.4115  0.2994
  477MOL0     H62939   2.689   7.208   6.840  0.5559  1.4811  1.1178
  477MOL0     H62940   2.696   7.122   7.067 -0.7179  0.3628 -1.7575
  477MOL0     H62941   2.774   6.970   7.000  2.9341  1.4549 -1.7414
  477MOL0     H62942   2.478   7.038   6.976 -0.3434  0.3862 -0.3448
  477MOL0     H62943   2.570   6.933   6.858 -2.4968 -0.3851  1.1392
  477MOL0     H62944   2.631   6.781   7.035 -0.2988 -0.5086  1.6195
  477MOL0     H62945   2.455   6.797   6.994  0.8988 -1.3839 -0.9281
  477MOL0     H62946   3.293   6.890   6.544 -0.3965 -2.2335 -1.6605
  477MOL0     H62947   3.493   6.833   6.390 -1.1784 -0.6236 -3.9522
  477MOL0     H62948   3.895   7.040   6.161 -1.4629  2.0556  0.3190
  477MOL0     H62949   4.044   7.061   5.977 -0.2792  0.5787  0.7789
  477MOL0     H62950   5.612   6.949   4.938 -0.6918  0.7920 -0.6168
  477MOL0     H62951   5.848   6.971   4.847  1.1032  1.7210 -2.4523
  477MOL0     H62952   6.141   7.420   4.526 -2.0468 -0.9069 -0.2743
  477MOL0     H62953   6.405   7.417   4.500 -2.5196  0.9919 -0.1777
  477MOL0     H62954   6.631   7.079   4.634 -1.0612 -0.1718 -1.4533
  477MOL0     H62955   6.660   7.220   4.746  3.2017  0.5590 -1.4176
  477MOL0     H62956   6.850   7.129   4.603 -0.8144  0.0069  0.4706
  477MOL0     H62957   6.775   7.216   4.465  4.0884  0.2690 -0.6464
  477MOL0     H62958   6.882   7.353   4.719 -2.6847  2.7794  1.0567
  477MOL0     H62959   6.787   7.439   4.621  0.9611  0.4581  0.4921
  477MOL0     H62960   6.949   7.444   4.441  2.1008  2.6151  0.4844
  477MOL0     H62961   7.028   7.473   4.593 -1.4129  0.5155  1.2441
  477MOL0     H62962   7.233   7.115   4.545 -0.9206 -0.7252  2.2141
  477MOL0     H62963   6.456   7.090   4.756 -0.1148 -1.7064 -0.0909
  477MOL0     H62964   6.200   7.099   4.808  3.1513 -1.7242  0.4047
  478MOL0     O62965   0.383   6.145   1.069  0.2840  0.1586  0.3155
  478MOL0     C62966   0.396   6.269   1.046  0.0897  0.9546  0.0224
  478MOL0     O62967   0.293   6.352   1.023 -0.9872  0.5294  0.2808
  478MOL0     C62968   0.164   6.324   1.061  0.6290  0.6261 -0.7704
  478MOL0     C62969   0.063   6.409   1.020 -0.0876 -0.5741  0.7226
  478MOL0     C62970  -0.071   6.384   1.038 -0.0694  0.4387 -0.5556
  478MOL0     C62971  -0.117   6.274   1.113 -0.9010 -0.8600  0.3690
  478MOL0     O62972  -0.250   6.246   1.109 -0.5337  0.1263 -0.6121
  478MOL0     C62973  -0.300   6.152   1.202 -0.0769  0.3243  0.3634
  478MOL0     C62974  -0.451   6.138   1.203 -0.0724 -0.3237 -0.1509
  478MOL0     C62975  -0.526   6.272   1.216 -0.1698  0.4294 -0.2637
  478MOL0     C62976  -0.674   6.246   1.253  0.6849 -0.4761  1.0323
  478MOL0     C62977  -0.754   6.369   1.198  0.0951  0.4735  0.5988
  478MOL0     C62978  -0.777   6.368   1.044  0.4700  0.5200 -0.4957
  478MOL0     C62979  -0.893   6.466   1.023  0.5712 -0.0439  0.8731
  478MOL0     C62980  -0.906   6.514   0.882 -0.2610 -0.2348  0.9145
  478MOL0     N62981  -0.972   6.411   0.793  0.3055 -0.7586  0.1503
  478MOL0     C62982  -0.911   6.367   0.684 -0.1535  0.0129  0.1074
  478MOL0     C62983  -0.986   6.269   0.641 -0.6140 -0.4197 -0.5722
  478MOL0     C62984  -0.958   6.179   0.519  0.4651  0.1323 -1.1904
  478MOL0     C62985  -0.818   6.125   0.504  0.6592 -0.3325 -0.5908
  478MOL0     C62986  -0.755   6.078   0.376 -0.0552  0.3367 -1.2625
  478MOL0     C62987  -0.600   6.065   0.382  0.4758  0.9267 -0.1719
  478MOL0     O62988  -0.550   6.019   0.252 -0.0159  0.0956 -0.3130
  478MOL0     C62989  -0.407   6.028   0.232  0.3393  0.2036  0.2554
  478MOL0     C62990  -0.368   5.998   0.099  0.2689  0.1881 -0.0987
  478MOL0     C62991  -0.232   5.994   0.069 -0.9366 -0.4484  0.7237
  478MOL0     C62992  -0.135   6.042   0.163  0.6602 -0.1504 -0.7475
  478MOL0     C62993   0.007   6.035   0.131 -0.3784 -0.4616  0.4468
  478MOL0     O62994   0.088   6.081   0.228  0.9569 -0.3797 -0.0465
  478MOL0     C62995   0.225   6.063   0.212 -0.6852 -0.0677 -0.3843
  478MOL0     C62996   0.309   6.172   0.224  0.0251 -0.1849  0.8100
  478MOL0     C62997   0.449   6.162   0.218 -0.7082  0.0208 -0.4850
  478MOL0     C62998   0.507   6.030   0.214  0.6849  0.0264  0.3197
  478MOL0     O62999   0.643   6.001   0.216 -0.0154  0.1615  0.2663
  478MOL0     C63000   0.730   6.109   0.241 -0.7647  0.6167  0.2171
  478MOL0     C63001   0.876   6.057   0.247 -0.1529  0.3915 -0.5217
  478MOL0     C63002   0.913   6.032   0.101 -0.4086 -0.3926 -0.2165
  478MOL0     C63003   1.047   5.954   0.086  0.0610  0.1301  1.3123
  478MOL0     C63004   1.117   5.994  -0.040  1.1029  0.0706  0.4771
  478MOL0     C63005   1.247   5.924  -0.079  0.5333  0.1206  0.5071
  478MOL0     C63006   1.209   5.796  -0.152  0.1907 -0.2991  0.0991
  478MOL0     C63007   1.332   5.730  -0.212 -0.5879 -0.4938 -0.1266
  478MOL0    Cl63008   1.387   5.830  -0.359 -0.6742 -0.1136 -0.3278
  478MOL0     C63009   0.429   5.919   0.187  0.0432  0.1569 -0.5746
  478MOL0     C63010   0.288   5.934   0.197 -0.2052 -0.1945 -0.2276
  478MOL0     O63011   0.044   5.986   0.028 -0.5873  0.3356 -0.3582
  478MOL0     C63012  -0.182   6.063   0.293 -0.4847  0.1716  1.3861
  478MOL0     C63013  -0.311   6.050   0.332  0.1033  0.0343 -0.4097
  478MOL0     N63014  -1.093   6.254   0.727  0.1498 -0.5587  0.0138
  478MOL0     N63015  -1.080   6.338   0.821  0.1052  1.1631 -0.0285
  478MOL0     C63016  -0.012   6.192   1.165  0.5744  0.2761  0.3053
  478MOL0     C63017   0.120   6.223   1.150  0.3512  0.2727 -0.6020
  478MOL0     C63018   0.531   6.320   1.037  0.7489  0.6376 -0.5551
  478MOL0     C63019   0.643   6.239   1.021  0.6214  0.6654 -0.0303
  478MOL0     C63020   0.775   6.289   1.013 -0.3206 -0.1196  0.3847
  478MOL0     C63021   0.797   6.423   1.011 -0.7530 -0.0584 -0.3130
  478MOL0     O63022   0.931   6.459   1.011  0.6831 -0.3453 -0.5429
  478MOL0     C63023   0.969   6.602   0.993 -0.3384 -0.1949 -0.4193
  478MOL0     C63024   1.121   6.639   1.012  0.5280 -0.4963 -0.4177
  478MOL0     C63025   1.198   6.655   0.885 -0.4110 -0.8510  0.4065
  478MOL0     C63026   1.345   6.702   0.915  0.0477 -0.7925 -0.4759
  478MOL0     C63027   1.428   6.718   0.792  1.0109  0.2429 -0.6581
  478MOL0     C63028   1.508   6.711   0.702  0.4961  0.7693  0.1293
  478MOL0     C63029   0.687   6.510   1.024  0.1136  0.7877 -0.2536
  478MOL0     C63030   0.558   6.458   1.032  0.0266 -0.0037 -1.0592
  478MOL0     H63031   0.094   6.500   0.970  0.7659  1.8451  5.1201
  478MOL0     H63032  -0.143   6.444   0.984 -1.0914  0.9943  1.3089
  478MOL0     H63033  -0.270   6.190   1.301  2.5496 -0.4005 -0.0817
  478MOL0     H63034  -0.255   6.052   1.198  0.4042  0.5273  0.5652
  478MOL0     H63035  -0.467   6.063   1.280  1.5790 -1.7547 -1.1375
  478MOL0     H63036  -0.484   6.086   1.113 -1.2339 -0.7723  0.5155
  478MOL0     H63037  -0.523   6.327   1.122 -0.3475  0.0480 -0.4953
  478MOL0     H63038  -0.480   6.334   1.293  0.4974  0.6241 -0.8020
  478MOL0     H63039  -0.714   6.151   1.217 -0.2345 -0.8052  2.8604
  478MOL0     H63040  -0.677   6.241   1.362  2.2334  2.5393  1.3375
  478MOL0     H63041  -0.706   6.465   1.218 -1.3464  0.8324  2.5379
  478MOL0     H63042  -0.851   6.376   1.248 -2.6621  2.1982 -4.2636
  478MOL0     H63043  -0.810   6.265   1.028 -0.6607  0.6397  0.8572
  478MOL0     H63044  -0.689   6.399   0.987  2.5665 -0.8184  1.8339
  478MOL0     H63045  -0.983   6.415   1.057  1.1066 -0.1063  2.2251
  478MOL0     H63046  -0.870   6.547   1.092  1.4433 -0.2862  0.8785
  478MOL0     H63047  -0.810   6.532   0.834 -0.0781 -1.7323  0.6531
  478MOL0     H63048  -0.969   6.603   0.882 -0.9834 -0.3931 -4.1931
  478MOL0     H63049  -0.823   6.410   0.638 -1.6288  3.5209  0.2588
  478MOL0     H63050  -0.980   6.244   0.434 -0.0534  3.3990  1.2557
  478MOL0     H63051  -1.037   6.103   0.520  0.6706 -0.2294 -4.0499
  478MOL0     H63052  -0.817   6.043   0.577 -0.9648 -0.0870 -0.2527
  478MOL0     H63053  -0.756   6.211   0.531 -0.7773  0.5002  0.1585
  478MOL0     H63054  -0.800   5.980   0.359 -0.6588  0.0773  1.3832
  478MOL0     H63055  -0.787   6.146   0.296 -2.1868  2.4799  1.2499
  478MOL0     H63056  -0.562   5.995   0.458  3.3584  1.9454 -0.5601
  478MOL0     H63057  -0.562   6.165   0.402 -3.1509  2.5526 -0.5828
  478MOL0     H63058  -0.438   5.979   0.019 -1.5906 -0.1231  1.5081
  478MOL0     H63059  -0.193   5.958  -0.025 -1.3802  0.3262  0.2297
  478MOL0     H63060   0.265   6.269   0.242 -1.9022 -1.0119  0.7398
  478MOL0     H63061   0.507   6.253   0.225 -1.7571  0.7250 -0.6901
  478MOL0     H63062   0.708   6.143   0.343  0.1241  0.6347  0.4135
  478MOL0     H63063   0.722   6.189   0.167  1.5803  1.4898  0.8020
  478MOL0     H63064   0.894   5.961   0.297 -2.6312 -0.4176 -1.0194
  478MOL0     H63065   0.941   6.132   0.293 -2.3614  2.6794 -0.9453
  478MOL0     H63066   0.919   6.122   0.040  0.7644 -0.9971 -1.0187
  478MOL0     H63067   0.843   5.966   0.049  0.1807 -0.4856 -0.8960
  478MOL0     H63068   1.114   5.976   0.170  0.0989  1.4136  0.9620
  478MOL0     H63069   1.027   5.846   0.080 -2.4850  0.6190 -0.4742
  478MOL0     H63070   1.141   6.100  -0.025  0.0632  0.2900  0.6313
  478MOL0     H63071   1.045   5.985  -0.121 -0.0175 -0.7458  1.5141
  478MOL0     H63072   1.300   5.898   0.013  0.7211 -1.6944 -0.0681
  478MOL0     H63073   1.311   5.983  -0.144  1.0958 -0.7896  0.2119
  478MOL0     H63074   1.180   5.726  -0.073  2.1513 -2.8167 -1.2502
  478MOL0     H63075   1.133   5.809  -0.230  1.5907 -0.9731 -1.4268
  478MOL0     H63076   1.325   5.627  -0.247  3.5674 -1.5669  1.5585
  478MOL0     H63077   1.409   5.732  -0.134  0.1255  0.1309 -0.8427
  478MOL0     H63078   0.456   5.818   0.156 -4.0070 -0.5861 -2.3975
  478MOL0     H63079   0.231   5.843   0.181  0.7377 -1.0845  1.2283
  478MOL0     H63080  -0.106   6.092   0.365  1.0153  2.1710 -0.8775
  478MOL0     H63081  -0.349   6.057   0.434  2.1155 -0.7439  0.4448
  478MOL0     H63082  -0.047   6.110   1.227  0.2452  0.1812 -0.0084
  478MOL0     H63083   0.197   6.165   1.201  1.2372  1.0277 -1.0470
  478MOL0     H63084   0.649   6.131   1.007  5.5694  0.6797  0.1575
  478MOL0     H63085   0.859   6.221   1.004  0.0634  0.4833 -0.8807
  478MOL0     H63086   0.914   6.652   1.073 -1.7372 -2.8666  0.4035
  478MOL0     H63087   0.935   6.640   0.896  1.1828  0.2969 -0.7804
  478MOL0     H63088   1.129   6.736   1.062  2.9630 -0.0729 -1.4718
  478MOL0     H63089   1.170   6.557   1.065  0.7067 -1.7750 -2.4524
  478MOL0     H63090   1.156   6.733   0.821 -0.6317 -1.3824 -0.1032
  478MOL0     H63091   1.195   6.560   0.831  2.9110  0.2949 -2.0772
  478MOL0     H63092   1.338   6.800   0.963 -1.7634 -0.5447 -1.1829
  478MOL0     H63093   1.399   6.624   0.970  0.8830  0.8981  1.2429
  478MOL0     H63094   1.577   6.678   0.627  0.2818 -1.7307  0.9553
  478MOL0     H63095   0.707   6.616   1.008  1.4463  0.6959  0.6395
  478MOL0     H63096   0.483   6.536   1.026  0.1335  0.0301 -2.1743
  479MOL0     O63097   3.256   7.058   9.373 -0.1666  0.5316  0.5316
  479MOL0     C63098   3.313   7.162   9.394 -0.7417 -1.0128 -0.2736
  479MOL0     O63099   3.258   7.276   9.447  0.4773  0.5135 -0.3168
  479MOL0     C63100   3.118   7.289   9.450  0.2334  0.8230  0.2215
  479MOL0     C63101   3.061   7.406   9.406  0.3571  0.9000  0.0546
  479MOL0     C63102   2.923   7.416   9.386  1.0681  0.6715  0.1149
  479MOL0     C63103   2.838   7.307   9.416  0.1006 -0.4652 -0.7349
  479MOL0     O63104   2.706   7.322   9.389 -0.0489  1.7202 -0.1704
  479MOL0     C63105   2.604   7.242   9.459 -0.3504  0.6936  0.1832
  479MOL0     C63106   2.472   7.275   9.384 -0.0607 -0.9934  0.2458
  479MOL0     C63107   2.348   7.208   9.454 -1.6786 -0.5550  0.1163
  479MOL0     C63108   2.214   7.245   9.395 -0.5145  1.4230 -0.6902
  479MOL0     C63109   2.166   7.130   9.302  0.0716 -0.0540  0.1656
  479MOL0     C63110   2.045   7.178   9.216  0.1310 -0.5624 -0.0717
  479MOL0     C63111   2.004   7.068   9.126 -0.2351  0.0304  0.2963
  479MOL0     C63112   1.899   7.129   9.030 -0.1812  0.5464  0.0753
  479MOL0     N63113   1.835   7.018   8.958  0.3580  0.8156 -0.2192
  479MOL0     C63114   1.887   6.933   8.863  0.3526 -0.3904  0.9314
  479MOL0     C63115   1.780   6.869   8.809 -0.1260 -0.5121 -0.0626
  479MOL0     C63116   1.784   6.767   8.698 -0.1225 -0.6096 -0.1960
  479MOL0     C63117   1.864   6.640   8.733 -0.4645 -0.3040 -0.2498
  479MOL0     C63118   1.773   6.565   8.838 -0.5341  0.9069 -0.4314
  479MOL0     C63119   1.834   6.429   8.889  0.1761 -0.5930  0.4464
  479MOL0     O63120   1.893   6.356   8.783  0.1578  0.1043  0.2732
  479MOL0     C63121   1.963   6.248   8.815  0.7938  0.6248  0.2011
  479MOL0     C63122   1.961   6.189   8.946  0.9924 -0.7342 -0.1933
  479MOL0     C63123   2.029   6.075   8.971 -0.5447 -0.6070 -0.0545
  479MOL0     C63124   2.096   6.007   8.866  0.1967 -0.3883 -0.7399
  479MOL0     C63125   2.176   5.880   8.897 -0.8438 -0.5092 -0.0700
  479MOL0     O63126   2.230   5.818   8.781 -0.3896  0.4933 -0.2288
  479MOL0     C63127   2.240   5.681   8.788 -0.9203  0.5761 -0.2325
  479MOL0     C63128   2.348   5.631   8.723 -0.1369  0.5284  1.0357
  479MOL0     C63129   2.370   5.493   8.703  0.6644  0.3978 -0.3062
  479MOL0     C63130   2.282   5.401   8.755 -0.5186 -0.1453  0.0262
  479MOL0     O63131   2.299   5.267   8.739  0.0600 -0.3899 -0.0659
  479MOL0     C63132   2.360   5.225   8.613 -0.3545 -0.1083  0.2163
  479MOL0     C63133   2.278   5.102   8.577  0.2099 -0.8364 -0.0304
  479MOL0     C63134   2.321   5.038   8.445 -0.0558  0.0667 -0.5365
  479MOL0     C63135   2.466   4.991   8.444 -0.9390 -0.2175  0.3007
  479MOL0     C63136   2.501   4.871   8.356  0.0963  0.2164  0.5511
  479MOL0     C63137   2.504   4.912   8.199 -0.6652  0.4636 -1.2377
  479MOL0     C63138   2.556   4.782   8.130  0.3831  0.2635 -0.4030
  479MOL0     C63139   2.508   4.786   7.979  0.5010  0.1429 -0.4439
  479MOL0    Cl63140   2.597   4.657   7.895  0.1591  0.0576 -0.2938
  479MOL0     C63141   2.173   5.450   8.831 -0.0593 -0.6126  0.2626
  479MOL0     C63142   2.156   5.587   8.856  0.1517 -0.6158 -0.5870
  479MOL0     O63143   2.191   5.839   9.012  0.0202  0.5357  0.0893
  479MOL0     C63144   2.085   6.054   8.736 -0.3957 -0.2547 -0.1627
  479MOL0     C63145   2.023   6.179   8.711  0.0602  0.4721  0.3223
  479MOL0     N63146   1.673   6.900   8.894 -0.0270  0.0338  0.0809
  479MOL0     N63147   1.703   6.988   8.978  0.2372 -0.3560  0.8697
  479MOL0     C63148   2.884   7.193   9.468  0.0073  0.0659 -1.2744
  479MOL0     C63149   3.027   7.180   9.490 -0.0390 -0.0662  0.1736
  479MOL0     C63150   3.462   7.171   9.390  0.3242  0.4257  0.1497
  479MOL0     C63151   3.539   7.058   9.360 -0.8718  0.0112 -0.3472
  479MOL0     C63152   3.679   7.055   9.353 -0.5393  0.3345  0.4771
  479MOL0     C63153   3.748   7.176   9.373 -0.4362  0.1601 -0.1200
  479MOL0     O63154   3.881   7.187   9.363 -0.2725  0.3616  0.2313
  479MOL0     C63155   3.973   7.074   9.347 -0.9268 -0.2090 -0.1371
  479MOL0     C63156   3.972   6.979   9.469  0.5307 -0.1967 -0.5339
  479MOL0     C63157   4.084   6.868   9.471 -0.5534  0.2142 -0.2988
  479MOL0     C63158   4.227   6.912   9.500  0.1999 -0.0493 -0.2914
  479MOL0     C63159   4.282   6.989   9.381 -1.0305  0.1302 -0.6861
  479MOL0     C63160   4.328   7.053   9.286 -0.2748 -0.6862 -0.2201
  479MOL0     C63161   3.675   7.289   9.396 -0.6590 -0.4378  0.6865
  479MOL0     C63162   3.537   7.288   9.403  0.7684  0.4911  1.5794
  479MOL0     H63163   3.133   7.487   9.393 -1.2968  2.4349  0.0876
  479MOL0     H63164   2.870   7.502   9.346 -1.8664 -0.4658  1.2890
  479MOL0     H63165   2.592   7.276   9.562  1.5395 -0.9852  1.0228
  479MOL0     H63166   2.624   7.135   9.472 -4.9844 -0.6734 -1.9631
  479MOL0     H63167   2.480   7.245   9.279 -1.6509 -0.8487  0.0502
  479MOL0     H63168   2.465   7.384   9.386 -1.8255 -1.0847  0.7241
  479MOL0     H63169   2.340   7.232   9.561 -0.0525 -1.3232  0.4327
  479MOL0     H63170   2.366   7.100   9.462  0.3500 -0.4906 -2.4454
  479MOL0     H63171   2.139   7.250   9.475  0.2826 -0.6220  0.2329
  479MOL0     H63172   2.216   7.341   9.343  3.5314  1.9851  0.1971
  479MOL0     H63173   2.145   7.046   9.369  0.6323  0.1878  0.6522
  479MOL0     H63174   2.243   7.093   9.234  0.1987 -0.0757  0.3197
  479MOL0     H63175   2.068   7.265   9.153  0.7195  0.7320  1.8305
  479MOL0     H63176   1.956   7.201   9.274  1.2561  0.9582  1.1466
  479MOL0     H63177   2.091   7.025   9.077  1.3897  3.8710 -0.5317
  479MOL0     H63178   1.952   6.989   9.181  0.6030 -1.0612 -0.4469
  479MOL0     H63179   1.934   7.213   8.970 -0.5816  2.2726  2.1310
  479MOL0     H63180   1.820   7.175   9.090 -1.4534  0.8542 -1.7610
  479MOL0     H63181   1.989   6.928   8.828  1.9201  0.4163  4.8308
  479MOL0     H63182   1.825   6.828   8.616 -0.0244  0.4843  0.6381
  479MOL0     H63183   1.687   6.731   8.664 -0.1637  0.7394 -1.6580
  479MOL0     H63184   1.961   6.662   8.778 -1.8984 -0.9845  3.5654
  479MOL0     H63185   1.872   6.590   8.637 -0.3040 -2.0756  0.6491
  479MOL0     H63186   1.749   6.633   8.920  0.2453 -0.2547  0.8040
  479MOL0     H63187   1.687   6.547   8.773 -0.2342  1.9933 -1.1415
  479MOL0     H63188   1.749   6.378   8.935 -1.4011 -0.1188 -1.7437
  479MOL0     H63189   1.901   6.463   8.968  0.0386  5.3577 -1.4768
  479MOL0     H63190   1.919   6.244   9.029  1.1279  0.2129 -0.7345
  479MOL0     H63191   2.041   6.032   9.070 -1.9764 -4.0868 -1.2234
  479MOL0     H63192   2.425   5.696   8.682 -0.8907  1.1202  0.5254
  479MOL0     H63193   2.449   5.461   8.637  0.1864 -2.5238  0.4211
  479MOL0     H63194   2.465   5.198   8.626 -0.4897 -0.4310  0.6934
  479MOL0     H63195   2.353   5.297   8.531  0.5831 -0.6006 -0.3097
  479MOL0     H63196   2.172   5.128   8.583  0.6237  0.5661  2.5646
  479MOL0     H63197   2.283   5.043   8.668 -0.9458  1.0259  1.3108
  479MOL0     H63198   2.311   5.111   8.364 -0.2278 -1.3498 -1.8452
  479MOL0     H63199   2.255   4.952   8.429 -2.4005  1.8010 -0.6583
  479MOL0     H63200   2.527   5.079   8.421 -2.1065  0.9962  1.6766
  479MOL0     H63201   2.491   4.964   8.547  4.0461  0.2365 -0.5207
  479MOL0     H63202   2.438   4.783   8.374  1.1780 -0.3563  1.7598
  479MOL0     H63203   2.603   4.832   8.364 -0.4519 -1.3836  0.1591
  479MOL0     H63204   2.571   4.998   8.187  0.2173  0.0960  0.5935
  479MOL0     H63205   2.403   4.937   8.166 -0.7267 -0.3087 -1.6557
  479MOL0     H63206   2.664   4.794   8.145  0.7490 -3.9781  2.0489
  479MOL0     H63207   2.521   4.699   8.191 -0.2727  1.3058  0.6818
  479MOL0     H63208   2.541   4.884   7.941  0.9997  0.8813  1.7726
  479MOL0     H63209   2.400   4.769   7.976  0.7350 -2.5549  2.3016
  479MOL0     H63210   2.109   5.376   8.878  0.2015 -0.0955  1.4558
  479MOL0     H63211   2.078   5.621   8.924  0.1019 -1.1075 -0.3969
  479MOL0     H63212   2.141   6.001   8.659  1.6921  0.3291  0.8760
  479MOL0     H63213   2.037   6.220   8.612  1.3442 -0.5574  0.0444
  479MOL0     H63214   2.830   7.104   9.498  0.3813  0.5171  0.9072
  479MOL0     H63215   3.074   7.094   9.537  0.8080  0.0895 -0.3685
  479MOL0     H63216   3.489   6.963   9.347 -1.4438 -0.1753  2.5769
  479MOL0     H63217   3.736   6.968   9.323  0.0625  1.0096 -0.3936
  479MOL0     H63218   4.070   7.125   9.336 -0.7854 -0.3148  0.5972
  479MOL0     H63219   3.943   7.022   9.256  0.1131 -0.2215 -0.4948
  479MOL0     H63220   3.968   7.043   9.558 -1.0426 -1.9764  0.7320
  479MOL0     H63221   3.877   6.927   9.458 -0.2885  0.9419  0.7632
  479MOL0     H63222   4.089   6.825   9.370  2.7645  0.4645 -0.3374
  479MOL0     H63223   4.059   6.788   9.542 -0.7600  0.1207 -0.4739
  479MOL0     H63224   4.223   6.981   9.585  1.1906  0.5536 -0.7140
  479MOL0     H63225   4.290   6.829   9.532  0.1854 -0.3086 -0.9205
  479MOL0     H63226   4.384   7.092   9.204  0.4016  0.8901  0.9378
  479MOL0     H63227   3.730   7.383   9.388 -2.5594  0.5743 -1.5368
  479MOL0     H63228   3.477   7.374   9.431 -2.1694 -1.4316  1.6650
  480MOL0     O63229   5.359   2.877   4.800 -0.7872 -0.1414 -0.0498
  480MOL0     C63230   5.420   2.899   4.906 -0.3333  0.3086 -0.7179
  480MOL0     O63231   5.360   2.954   5.023 -0.6454 -0.5972 -1.2044
  480MOL0     C63232   5.223   2.949   5.035 -0.6556  0.9537 -0.0860
  480MOL0     C63233   5.158   3.058   5.092 -0.0854  0.2968 -0.2770
  480MOL0     C63234   5.016   3.052   5.109 -0.0420 -0.3197 -0.7130
  480MOL0     C63235   4.936   2.938   5.083  0.8213  0.2999  0.1124
  480MOL0     O63236   4.804   2.937   5.111  0.6294 -0.8906 -0.0249
  480MOL0     C63237   4.712   2.867   5.026  0.0820 -0.2533  0.7924
  480MOL0     C63238   4.567   2.873   5.078  0.0759 -1.1730  1.0165
  480MOL0     C63239   4.443   2.845   4.991 -0.2298 -0.2589  0.4341
  480MOL0     C63240   4.319   2.844   5.070 -1.0765  0.4427 -0.1049
  480MOL0     C63241   4.195   2.834   4.982 -0.4508  0.0617  0.5010
  480MOL0     C63242   4.062   2.806   5.071 -0.0841  0.1970 -0.2808
  480MOL0     C63243   3.948   2.784   4.983  0.8848  0.1278 -0.6404
  480MOL0     C63244   3.913   2.905   4.883  0.3690  0.0198  0.5404
  480MOL0     N63245   3.781   2.892   4.822  0.4581  0.2555 -0.2467
  480MOL0     C63246   3.670   2.879   4.902  0.5912  0.2376 -0.0231
  480MOL0     C63247   3.563   2.836   4.832 -0.2504 -0.0268  0.9853
  480MOL0     C63248   3.418   2.820   4.873  0.3767  0.3433 -1.4104
  480MOL0     C63249   3.308   2.829   4.761 -0.3126  0.5754  1.3361
  480MOL0     C63250   3.171   2.807   4.821 -0.5049 -0.0215 -0.7920
  480MOL0     C63251   3.052   2.822   4.735  0.5389 -0.0666 -0.0198
  480MOL0     O63252   2.924   2.774   4.799  0.5436  0.2681 -1.2462
  480MOL0     C63253   2.807   2.801   4.732  0.0529 -1.0363 -0.3268
  480MOL0     C63254   2.793   2.881   4.614  0.0284 -0.3860 -0.6660
  480MOL0     C63255   2.670   2.888   4.548  0.0860 -0.3266 -0.3220
  480MOL0     C63256   2.554   2.831   4.601  0.7295 -0.0949  0.7622
  480MOL0     C63257   2.429   2.858   4.541  0.1115  0.3142 -1.3366
  480MOL0     O63258   2.323   2.808   4.616  0.5181 -0.5396  0.1100
  480MOL0     C63259   2.188   2.827   4.580  0.3026  0.6722 -0.3283
  480MOL0     C63260   2.089   2.736   4.634  0.7637  0.6805  0.1844
  480MOL0     C63261   1.955   2.752   4.609  0.3090  0.5234  1.3692
  480MOL0     C63262   1.906   2.856   4.522 -0.1336 -0.3148 -1.0180
  480MOL0     O63263   1.770   2.865   4.501 -0.8157  0.3195 -0.1683
  480MOL0     C63264   1.725   2.967   4.415 -1.0543 -0.3099  1.0727
  480MOL0     C63265   1.576   2.973   4.396 -0.3715 -0.4077  0.4480
  480MOL0     C63266   1.518   3.069   4.503 -0.0591  0.0885  0.6337
  480MOL0     C63267   1.384   3.122   4.455 -0.1277 -0.5598 -0.3940
  480MOL0     C63268   1.300   3.180   4.571  0.6465 -0.2779 -0.7101
  480MOL0     C63269   1.149   3.190   4.531 -0.0647 -0.1349 -1.0017
  480MOL0     C63270   1.063   3.235   4.639 -0.0948 -0.4618  0.0631
  480MOL0     C63271   0.925   3.283   4.595  0.4686 -0.0731  0.4310
  480MOL0    Cl63272   0.814   3.141   4.540 -0.5667  0.1571 -0.1802
  480MOL0     C63273   2.007   2.945   4.477 -0.3031 -0.4497  0.4502
  480MOL0     C63274   2.140   2.923   4.503  0.4227 -0.5081 -0.0735
  480MOL0     O63275   2.426   2.906   4.429 -0.6676  0.1695 -0.0952
  480MOL0     C63276   2.565   2.766   4.716 -0.2664 -0.1827 -0.0035
  480MOL0     C63277   2.693   2.744   4.780 -0.1407 -0.5284  0.4898
  480MOL0     N63278   3.613   2.825   4.701  0.1640  0.0740 -0.1850
  480MOL0     N63279   3.736   2.853   4.700 -0.1499  0.0093  0.9747
  480MOL0     C63280   5.005   2.825   5.037  0.0278  0.0359  0.4432
  480MOL0     C63281   5.144   2.837   5.009  0.1869 -0.0472 -0.0001
  480MOL0     C63282   5.565   2.886   4.907 -0.1830  0.1877 -0.2806
  480MOL0     C63283   5.628   2.806   4.810  1.5216 -0.5379  0.2290
  480MOL0     C63284   5.761   2.786   4.807 -0.6786  0.4481 -0.0908
  480MOL0     C63285   5.841   2.845   4.909  0.8193 -0.5595 -0.1334
  480MOL0     O63286   5.981   2.847   4.906  0.8644  0.6805 -0.0825
  480MOL0     C63287   6.053   2.780   4.803  0.8410 -0.3393  0.5974
  480MOL0     C63288   6.201   2.819   4.805  0.4289  0.1759 -0.8432
  480MOL0     C63289   6.240   2.951   4.872 -0.0544  0.6023 -0.1255
  480MOL0     C63290   6.279   2.942   5.017 -0.1136  0.0891 -0.5476
  480MOL0     C63291   6.402   2.869   5.050 -0.0460 -0.9779  0.0905
  480MOL0     C63292   6.507   2.813   5.041 -0.0886 -0.0618 -0.1262
  480MOL0     C63293   5.783   2.926   5.014 -0.6178  0.7729 -0.1757
  480MOL0     C63294   5.642   2.936   5.015 -0.3419  0.4849 -0.0750
  480MOL0     H63295   5.204   3.150   5.125  1.7065 -1.2084  1.6821
  480MOL0     H63296   4.959   3.139   5.141 -1.5362 -1.4711 -0.0834
  480MOL0     H63297   4.739   2.761   5.019 -0.0619 -0.2335 -0.3459
  480MOL0     H63298   4.728   2.913   4.928 -0.0086 -1.1362  0.3528
  480MOL0     H63299   4.551   2.976   5.111 -0.2706 -1.1379  0.7512
  480MOL0     H63300   4.556   2.804   5.162 -2.7919 -0.7062  1.1444
  480MOL0     H63301   4.458   2.748   4.943 -1.6327  0.0713 -0.7615
  480MOL0     H63302   4.433   2.915   4.908 -1.9814 -0.0750  0.7437
  480MOL0     H63303   4.317   2.753   5.132  1.7298 -0.0141 -0.5551
  480MOL0     H63304   4.317   2.931   5.136  1.0769  0.0838  0.5395
  480MOL0     H63305   4.222   2.746   4.922 -1.7109 -0.4097  0.5982
  480MOL0     H63306   4.195   2.927   4.924 -0.4423  0.8215  1.6809
  480MOL0     H63307   4.043   2.893   5.135 -3.3279 -0.6975  0.1538
  480MOL0     H63308   4.078   2.713   5.127 -2.6091 -1.1546 -1.6543
  480MOL0     H63309   3.966   2.697   4.919 -2.2042  0.8739 -2.8241
  480MOL0     H63310   3.860   2.775   5.047  1.3654  5.3111  1.2424
  480MOL0     H63311   3.987   2.922   4.804 -2.8215 -0.6195 -2.8463
  480MOL0     H63312   3.916   2.992   4.950 -0.5366  0.9444 -0.5882
  480MOL0     H63313   3.670   2.887   5.010  1.7755 -2.7903  0.3026
  480MOL0     H63314   3.404   2.902   4.943  0.8882  0.9310 -1.9770
  480MOL0     H63315   3.405   2.723   4.922 -1.0108 -0.6579 -3.6082
  480MOL0     H63316   3.333   2.758   4.682  3.7649  0.7222  2.3138
  480MOL0     H63317   3.312   2.920   4.700 -0.0903 -3.0116 -4.7817
  480MOL0     H63318   3.156   2.707   4.862  1.9421 -0.7289 -1.4946
  480MOL0     H63319   3.172   2.853   4.921  3.3233  0.4458 -0.9195
  480MOL0     H63320   3.072   2.769   4.642  1.5907 -0.0861  0.2065
  480MOL0     H63321   3.048   2.931   4.720 -3.3667  0.3924  2.8371
  480MOL0     H63322   2.879   2.932   4.571  0.6660 -2.4462 -2.0316
  480MOL0     H63323   2.668   2.941   4.453 -1.7201 -1.6488 -1.0883
  480MOL0     H63324   2.111   2.643   4.685 -0.8559 -2.2275 -3.8710
  480MOL0     H63325   1.885   2.677   4.644  3.1670 -3.3047 -0.3096
  480MOL0     H63326   1.773   2.934   4.323  0.9238 -0.2876  2.0445
  480MOL0     H63327   1.768   3.064   4.441  2.2405 -1.4229  0.2641
  480MOL0     H63328   1.542   2.871   4.378  2.5565 -1.0267 -2.5860
  480MOL0     H63329   1.558   3.020   4.299  0.3723 -0.0444  0.4723
  480MOL0     H63330   1.590   3.150   4.521  1.3074 -0.4782 -1.8180
  480MOL0     H63331   1.506   3.020   4.600 -0.4905  1.6704  1.4106
  480MOL0     H63332   1.392   3.210   4.390  0.5882  1.3159  2.0711
  480MOL0     H63333   1.320   3.047   4.408 -2.7130  0.6242  1.0077
  480MOL0     H63334   1.334   3.282   4.592 -0.0310  0.0789 -1.2984
  480MOL0     H63335   1.305   3.126   4.665  1.3268 -0.9647 -1.1247
  480MOL0     H63336   1.113   3.091   4.502  0.4069 -0.0567 -1.8711
  480MOL0     H63337   1.132   3.258   4.448 -0.2820 -1.7514 -2.3346
  480MOL0     H63338   1.063   3.151   4.708  1.7742 -1.7141 -1.3546
  480MOL0     H63339   1.106   3.313   4.703 -0.6643  0.0368 -0.1463
  480MOL0     H63340   0.934   3.357   4.516 -2.1598  0.3565  0.4316
  480MOL0     H63341   0.877   3.328   4.683 -1.3587  2.2494 -1.6170
  480MOL0     H63342   1.978   3.033   4.421  1.3163 -2.2295 -3.5465
  480MOL0     H63343   2.210   3.000   4.472 -1.1467  1.1243  0.3028
  480MOL0     H63344   2.481   2.724   4.770 -0.8418  1.4686  0.4228
  480MOL0     H63345   2.695   2.680   4.868  0.4197 -1.0591  0.1030
  480MOL0     H63346   4.972   2.726   5.007  2.0652 -0.2041 -1.2083
  480MOL0     H63347   5.195   2.755   4.959  0.5360 -1.1324  2.0358
  480MOL0     H63348   5.556   2.760   4.742 -1.6879 -0.6651  3.4083
  480MOL0     H63349   5.807   2.716   4.738  0.9972 -0.2075  1.5928
  480MOL0     H63350   6.009   2.805   4.706 -2.4996  0.7360  2.2208
  480MOL0     H63351   6.048   2.672   4.819 -3.4969 -0.3145  0.6359
  480MOL0     H63352   6.264   2.739   4.843  0.1881  0.8686  1.1458
  480MOL0     H63353   6.232   2.834   4.701  2.1529 -1.6919 -0.6483
  480MOL0     H63354   6.158   3.022   4.863 -0.0813  0.7162  0.8751
  480MOL0     H63355   6.329   2.993   4.824  0.2088  2.8235  2.0575
  480MOL0     H63356   6.291   3.045   5.052 -0.6054  0.4907 -1.5415
  480MOL0     H63357   6.191   2.897   5.065 -3.0918  3.6356 -2.1720
  480MOL0     H63358   6.599   2.758   5.049 -0.1660 -0.0100  1.4828
  480MOL0     H63359   5.856   2.961   5.087 -0.1053 -1.1826  0.2997
  480MOL0     H63360   5.593   2.993   5.094  0.4438  1.6070 -0.3919
  481MOL0     O63361   9.019   3.899   7.122  0.0010  0.8200  0.6080
  481MOL0     C63362   9.090   3.889   7.031  0.2361  1.0109  1.0630
  481MOL0     O63363   9.060   3.835   6.910  0.4703 -0.0137 -0.1154
  481MOL0     C63364   8.930   3.797   6.878 -0.4007 -0.6390  0.9924
  481MOL0     C63365   8.850   3.721   6.965 -0.0964 -0.1756  0.3086
  481MOL0     C63366   8.718   3.688   6.929  0.5232  0.4813  0.8085
  481MOL0     C63367   8.657   3.733   6.815  0.1628  0.6263 -0.3719
  481MOL0     O63368   8.526   3.695   6.778  0.0876 -0.5408  0.0247
  481MOL0     C63369   8.463   3.598   6.858  1.0962  0.4879  0.4013
  481MOL0     C63370   8.338   3.548   6.782  0.2775  0.4782  0.2757
  481MOL0     C63371   8.248   3.667   6.772  0.9133 -1.1780 -0.3606
  481MOL0     C63372   8.097   3.627   6.766 -0.0520  0.9427 -0.1170
  481MOL0     C63373   8.011   3.748   6.778 -0.0903  0.1397  0.2914
  481MOL0     C63374   7.864   3.705   6.766 -0.5991 -0.6837  1.1882
  481MOL0     C63375   7.771   3.819   6.803  0.1082  1.5314 -0.1696
  481MOL0     C63376   7.631   3.790   6.755 -0.8768  0.5013  0.2953
  481MOL0     N63377   7.540   3.889   6.817 -0.1220 -0.1926 -0.2355
  481MOL0     C63378   7.490   3.993   6.751  0.0943 -0.2700 -0.2139
  481MOL0     C63379   7.443   4.081   6.849 -0.4292  0.0375  1.0239
  481MOL0     C63380   7.378   4.207   6.793  0.3296 -0.8176  0.1010
  481MOL0     C63381   7.246   4.233   6.867 -0.3351 -0.2775 -0.0575
  481MOL0     C63382   7.147   4.124   6.870 -0.0587  0.7881  1.4637
  481MOL0     C63383   7.005   4.179   6.902  0.2970 -0.0732  0.0371
  481MOL0     O63384   6.900   4.111   6.832  0.9237  0.2378 -0.1264
  481MOL0     C63385   6.768   4.167   6.857 -0.5207 -0.0765  1.0264
  481MOL0     C63386   6.704   4.130   6.971  0.4120 -0.1065 -0.3984
  481MOL0     C63387   6.570   4.164   6.999 -0.0122  0.4782  0.2851
  481MOL0     C63388   6.497   4.235   6.903  0.0873  0.1836 -0.2406
  481MOL0     C63389   6.353   4.249   6.902 -0.3641  0.3721 -0.4623
  481MOL0     O63390   6.306   4.342   6.817  0.0424  0.3046  0.7464
  481MOL0     C63391   6.171   4.372   6.830  1.0962  0.3701 -0.4968
  481MOL0     C63392   6.125   4.444   6.940 -0.4049  0.3349  0.6982
  481MOL0     C63393   5.989   4.468   6.956  0.4550  0.7917 -0.0091
  481MOL0     C63394   5.892   4.418   6.875  0.0801 -0.7279 -0.7049
  481MOL0     O63395   5.766   4.472   6.902  0.7926  0.3935 -0.0796
  481MOL0     C63396   5.663   4.412   6.822 -0.2245  0.1872 -0.2629
  481MOL0     C63397   5.530   4.488   6.845  0.5958 -0.6169  0.3969
  481MOL0     C63398   5.410   4.431   6.781  0.4419  0.4118  0.0076
  481MOL0     C63399   5.281   4.500   6.826 -0.9116 -0.5770  0.2673
  481MOL0     C63400   5.250   4.453   6.973  0.3333 -0.0933  0.1557
  481MOL0     C63401   5.122   4.522   7.022  0.2250 -0.1883  0.7706
  481MOL0     C63402   5.093   4.485   7.170  0.9679  0.4217 -0.4997
  481MOL0     C63403   4.954   4.539   7.227 -0.3970  0.1138  0.4313
  481MOL0    Cl63404   4.934   4.722   7.233  0.0190  0.2197 -0.4671
  481MOL0     C63405   5.932   4.331   6.767 -1.1819 -0.4497 -0.3839
  481MOL0     C63406   6.073   4.313   6.748 -0.3915 -0.0225  0.5128
  481MOL0     O63407   6.289   4.171   6.967  0.7588  0.0248  0.5088
  481MOL0     C63408   6.569   4.274   6.783  0.1952  0.0044 -0.4957
  481MOL0     C63409   6.700   4.239   6.759  0.3266 -0.3302 -0.2478
  481MOL0     N63410   7.466   4.021   6.971  0.0241  0.5557  0.0037
  481MOL0     N63411   7.510   3.901   6.951 -0.3419  0.2867  0.0028
  481MOL0     C63412   8.740   3.807   6.727 -0.2993 -0.2961 -0.1000
  481MOL0     C63413   8.870   3.848   6.759 -0.5439  0.2119 -0.0424
  481MOL0     C63414   9.227   3.927   7.051  0.3264 -0.5626 -0.7148
  481MOL0     C63415   9.304   3.886   7.160 -0.4874  0.1092  0.4712
  481MOL0     C63416   9.438   3.902   7.164 -1.2226 -1.4089 -0.6275
  481MOL0     C63417   9.513   3.966   7.058  0.4216 -0.1752 -0.6127
  481MOL0     O63418   9.651   3.976   7.056  0.0937  0.7051  0.1295
  481MOL0     C63419   9.732   3.915   7.152  0.2449 -0.6755  0.1945
  481MOL0     C63420   9.849   3.848   7.081 -0.3195  0.3066 -0.2417
  481MOL0     C63421   9.962   3.788   7.159 -0.4479  0.0869  0.4424
  481MOL0     C63422  10.026   3.899   7.246 -0.2385  0.3931 -0.1691
  481MOL0     C63423  10.162   3.846   7.283  0.1863  0.1054  0.1156
  481MOL0     C63424  10.264   3.819   7.335 -0.3872 -0.0441  0.2600
  481MOL0     C63425   9.430   4.015   6.957 -0.6496  0.1474  1.3820
  481MOL0     C63426   9.292   3.994   6.949  0.0603  0.8890 -0.1918
  481MOL0     H63427   8.892   3.711   7.065  0.0033 -1.9699  0.1145
  481MOL0     H63428   8.664   3.623   6.997  4.2198 -5.4270 -1.1103
  481MOL0     H63429   8.437   3.643   6.955  3.7468 -1.5985  2.2258
  481MOL0     H63430   8.528   3.513   6.879  0.5002  0.3968  2.0330
  481MOL0     H63431   8.295   3.466   6.839 -0.3617  1.2093  0.8578
  481MOL0     H63432   8.358   3.501   6.685 -0.5842  1.3306 -0.3355
  481MOL0     H63433   8.278   3.720   6.681  0.2486 -2.7606 -1.5461
  481MOL0     H63434   8.250   3.732   6.861 -2.2919 -1.6571  0.1921
  481MOL0     H63435   8.080   3.558   6.682 -2.7434 -1.4379  2.1773
  481MOL0     H63436   8.080   3.568   6.856  1.6889 -2.1878 -1.6475
  481MOL0     H63437   8.031   3.825   6.702 -3.5791 -3.2720 -4.7260
  481MOL0     H63438   8.043   3.771   6.880  2.5416 -3.3446  0.4389
  481MOL0     H63439   7.862   3.628   6.844  0.8382 -0.3050  1.6281
  481MOL0     H63440   7.846   3.663   6.666 -0.9503  0.9026  0.5474
  481MOL0     H63441   7.778   3.828   6.912  3.1150 -1.4994  0.0669
  481MOL0     H63442   7.800   3.913   6.755 -2.5243  1.1871 -2.6310
  481MOL0     H63443   7.601   3.688   6.781 -3.2902  1.1230  0.1891
  481MOL0     H63444   7.617   3.792   6.646 -1.4143  2.3516  0.3593
  481MOL0     H63445   7.494   4.008   6.644 -0.9086 -4.4190 -0.9987
  481MOL0     H63446   7.345   4.201   6.688  0.7189  1.4343 -0.1991
  481MOL0     H63447   7.455   4.283   6.810 -1.9746  2.1221 -1.4227
  481MOL0     H63448   7.205   4.323   6.819 -0.7027 -0.3730  0.0770
  481MOL0     H63449   7.263   4.267   6.970  0.3367 -0.2174 -0.1807
  481MOL0     H63450   7.141   4.092   6.765  3.9234  0.3929  1.2025
  481MOL0     H63451   7.173   4.048   6.944  1.1524 -1.2627 -0.9280
  481MOL0     H63452   7.006   4.286   6.880 -0.1723  0.0237  0.4679
  481MOL0     H63453   6.989   4.173   7.010  1.4880 -0.3063  0.2093
  481MOL0     H63454   6.756   4.071   7.047  0.5216  1.3224  0.6676
  481MOL0     H63455   6.530   4.118   7.088  2.5549 -3.0164 -0.1589
  481MOL0     H63456   6.192   4.490   7.012 -2.3601  1.0092  2.1543
  481MOL0     H63457   5.958   4.531   7.039 -0.7230  1.6765 -1.0911
  481MOL0     H63458   5.645   4.309   6.855 -1.7403  0.2180 -0.9371
  481MOL0     H63459   5.688   4.411   6.716 -1.0913 -2.0398 -0.4977
  481MOL0     H63460   5.552   4.590   6.810  3.2822 -1.5075 -0.8033
  481MOL0     H63461   5.514   4.487   6.953 -0.7822 -0.2026  0.2091
  481MOL0     H63462   5.404   4.323   6.798  0.3881  0.1629 -1.4457
  481MOL0     H63463   5.410   4.449   6.673 -0.8220 -1.8948 -0.4397
  481MOL0     H63464   5.304   4.606   6.814  3.6314 -1.2196  1.1545
  481MOL0     H63465   5.195   4.478   6.763 -0.1006 -0.4314 -0.9150
  481MOL0     H63466   5.333   4.489   7.034  1.7626  4.0418 -3.6075
  481MOL0     H63467   5.248   4.344   6.978  0.9880 -0.2330 -1.6033
  481MOL0     H63468   5.046   4.491   6.949  0.8440 -0.0168  0.0481
  481MOL0     H63469   5.131   4.629   7.005  1.4869 -0.6658 -2.2681
  481MOL0     H63470   5.096   4.376   7.171 -0.4500  0.3091 -2.5538
  481MOL0     H63471   5.165   4.538   7.233  2.1208 -3.4500  1.7529
  481MOL0     H63472   4.941   4.499   7.328  2.7222  0.2717  0.9826
  481MOL0     H63473   4.867   4.510   7.166  0.2681 -0.1106 -0.4229
  481MOL0     H63474   5.871   4.284   6.690  0.8362 -1.9079 -1.1609
  481MOL0     H63475   6.103   4.249   6.665  1.4711  4.7773 -3.0116
  481MOL0     H63476   6.518   4.326   6.702  3.2096  2.5079 -0.9769
  481MOL0     H63477   6.751   4.272   6.669 -2.1700  2.3560 -0.8098
  481MOL0     H63478   8.690   3.843   6.637  2.0660 -1.4052 -1.9638
  481MOL0     H63479   8.924   3.923   6.703  0.9042  0.4216  1.5561
  481MOL0     H63480   9.254   3.833   7.240  0.5865 -1.8251 -0.0686
  481MOL0     H63481   9.491   3.879   7.256  0.5991 -0.6617 -1.4351
  481MOL0     H63482   9.694   3.834   7.216  2.2151 -0.5797  1.5579
  481MOL0     H63483   9.770   3.996   7.215  1.6870 -2.0728  1.1932
  481MOL0     H63484   9.815   3.764   7.020 -2.0762  2.0515 -1.8121
  481MOL0     H63485   9.879   3.918   7.001 -0.7533 -2.0526 -2.6027
  481MOL0     H63486  10.043   3.746   7.097 -0.9648 -0.1091 -0.1073
  481MOL0     H63487   9.930   3.704   7.221  1.3920 -1.4148 -0.5082
  481MOL0     H63488  10.031   3.996   7.196 -1.8891  0.3414 -0.4969
  481MOL0     H63489   9.960   3.916   7.332 -1.0135 -2.3889 -0.0897
  481MOL0     H63490  10.356   3.793   7.383 -1.5804 -1.3920  1.9587
  481MOL0     H63491   9.488   4.061   6.878 -2.5138  2.6644  1.3574
  481MOL0     H63492   9.240   4.024   6.859 -1.2900 -0.3141  0.1380
  482MOL0     O63493   0.686   7.912   7.970  0.1972 -0.0425 -0.3201
  482MOL0     C63494   0.665   7.797   7.938  0.3085  0.1812 -0.3706
  482MOL0     O63495   0.758   7.731   7.868  1.0841  0.7675  0.2118
  482MOL0     C63496   0.857   7.801   7.816 -0.6747 -0.0332  0.7165
  482MOL0     C63497   0.828   7.910   7.726  0.4816  0.3724 -0.0144
  482MOL0     C63498   0.940   7.974   7.664 -0.3742  0.9844  0.0054
  482MOL0     C63499   1.070   7.935   7.690  0.4474  1.2608 -1.1430
  482MOL0     O63500   1.168   7.999   7.623  0.4895  0.2580  0.4910
  482MOL0     C63501   1.292   8.012   7.693 -0.7937 -0.9209  0.3396
  482MOL0     C63502   1.354   8.134   7.618 -0.7645  0.2495 -1.3469
  482MOL0     C63503   1.512   8.140   7.642 -0.6302  1.0174  0.0348
  482MOL0     C63504   1.583   8.011   7.582 -0.5389  0.2148 -0.9781
  482MOL0     C63505   1.731   8.019   7.583 -0.2027  0.7110 -0.7272
  482MOL0     C63506   1.791   7.878   7.548  1.1028  0.6722  0.0718
  482MOL0     C63507   1.942   7.858   7.549  0.7128 -0.4217  0.5066
  482MOL0     C63508   2.012   7.974   7.471 -0.3579  0.5658 -0.0433
  482MOL0     N63509   2.004   7.955   7.330 -0.4714  0.2184  1.3419
  482MOL0     C63510   2.072   7.855   7.271  0.5008 -0.2619 -0.7284
  482MOL0     C63511   2.053   7.876   7.137 -0.4703  0.1518  0.6299
  482MOL0     C63512   2.144   7.812   7.033 -1.0977 -0.2372  0.3309
  482MOL0     C63513   2.271   7.894   6.987 -0.0664  0.3438  0.0203
  482MOL0     C63514   2.332   7.831   6.861  1.0677 -0.2281  0.0861
  482MOL0     C63515   2.476   7.872   6.836  0.3866 -0.2115 -0.4059
  482MOL0     O63516   2.553   7.852   6.959  0.1288 -0.0689  1.1184
  482MOL0     C63517   2.689   7.853   6.928 -0.3471 -1.3560 -0.0469
  482MOL0     C63518   2.765   7.823   7.038 -0.5421  1.1570  0.0577
  482MOL0     C63519   2.905   7.846   7.034  0.0890  0.3168  0.9152
  482MOL0     C63520   2.966   7.901   6.925 -0.3006 -0.4922  0.2623
  482MOL0     C63521   3.098   7.960   6.942  0.1960  1.0139 -0.0512
  482MOL0     O63522   3.129   7.986   7.072 -0.2968 -0.3806 -0.0107
  482MOL0     C63523   3.258   8.020   7.112  0.4581 -0.9195 -0.3068
  482MOL0     C63524   3.263   8.079   7.232  0.1160  0.3305 -1.4114
  482MOL0     C63525   3.381   8.115   7.294  0.0054  0.6080 -0.3748
  482MOL0     C63526   3.504   8.077   7.239 -1.3281  1.2379 -0.7666
  482MOL0     O63527   3.612   8.101   7.311 -0.5610 -0.9841  0.0829
  482MOL0     C63528   3.741   8.107   7.241  0.4671 -0.2185  0.3583
  482MOL0     C63529   3.845   8.117   7.350  0.5750 -0.3368 -0.4478
  482MOL0     C63530   3.982   8.170   7.302 -0.1026  0.1942 -0.2553
  482MOL0     C63531   4.087   8.168   7.414 -0.0017  0.2221 -0.4012
  482MOL0     C63532   4.212   8.236   7.367 -0.0974 -0.2564  0.3817
  482MOL0     C63533   4.309   8.257   7.488  0.5608 -0.0021  0.5282
  482MOL0     C63534   4.380   8.123   7.523  0.1912  0.1381 -0.6069
  482MOL0     C63535   4.505   8.132   7.613 -0.5527  0.1626  0.4116
  482MOL0    Cl63536   4.448   8.204   7.766 -0.3819  0.1578 -0.1452
  482MOL0     C63537   3.499   8.006   7.118 -0.1056 -0.1173  0.2198
  482MOL0     C63538   3.380   7.987   7.048 -0.1431  1.8149  0.0656
  482MOL0     O63539   3.168   7.986   6.839  0.0696  0.7081 -0.0424
  482MOL0     C63540   2.888   7.919   6.806 -0.1431 -0.2288 -0.6782
  482MOL0     C63541   2.752   7.903   6.812  0.3543  0.6744 -0.1225
  482MOL0     N63542   1.949   7.974   7.128 -0.5158 -0.1344 -0.4218
  482MOL0     N63543   1.931   8.029   7.243 -0.3859  1.2540 -0.1775
  482MOL0     C63544   1.095   7.829   7.785 -0.4395 -0.1355  0.3315
  482MOL0     C63545   0.984   7.766   7.847 -0.4574 -1.1074  0.2995
  482MOL0     C63546   0.549   7.726   8.001 -0.0486 -0.2787  0.4030
  482MOL0     C63547   0.517   7.595   7.972  0.3688  0.7782 -0.2044
  482MOL0     C63548   0.408   7.530   8.030  0.1003 -0.5644 -0.5557
  482MOL0     C63549   0.321   7.596   8.121  0.2588 -1.0121  0.4375
  482MOL0     O63550   0.202   7.543   8.153 -0.5243 -0.3373 -0.2471
  482MOL0     C63551   0.169   7.409   8.120  0.2833 -1.0085 -0.1608
  482MOL0     C63552   0.039   7.382   8.195  0.4000  0.7319 -0.6737
  482MOL0     C63553  -0.067   7.463   8.125  0.1011 -0.5644  0.5114
  482MOL0     C63554  -0.218   7.447   8.175 -0.1799 -0.5167 -0.5389
  482MOL0     C63555  -0.266   7.320   8.121  0.2162  0.0532 -0.0590
  482MOL0     C63556  -0.306   7.226   8.057  0.1112  0.4094  0.0796
  482MOL0     C63557   0.352   7.728   8.147 -0.5345  0.1528 -0.3726
  482MOL0     C63558   0.455   7.794   8.082  0.5931  0.4618 -0.1283
  482MOL0     H63559   0.730   7.943   7.694  0.5892  0.4999 -0.2174
  482MOL0     H63560   0.918   8.044   7.584 -1.3786 -0.6882 -1.2346
  482MOL0     H63561   1.354   7.923   7.675 -1.1899 -0.8036 -1.8824
  482MOL0     H63562   1.275   8.039   7.797 -1.9905 -0.2324 -0.0247
  482MOL0     H63563   1.309   8.228   7.652 -0.1247  0.9088 -2.2647
  482MOL0     H63564   1.340   8.119   7.510  1.2602 -2.5860 -1.3387
  482MOL0     H63565   1.544   8.150   7.746  1.0927  1.0496 -0.4840
  482MOL0     H63566   1.563   8.223   7.593  3.7117 -1.6630 -0.5147
  482MOL0     H63567   1.555   7.923   7.641 -1.0235  1.2057  0.3244
  482MOL0     H63568   1.548   7.995   7.480  1.0586 -2.4790 -1.2005
  482MOL0     H63569   1.767   8.045   7.683 -0.8386 -0.6180 -0.1260
  482MOL0     H63570   1.764   8.093   7.509  0.4300 -0.5311 -1.7363
  482MOL0     H63571   1.759   7.856   7.445 -0.3560  1.2046  0.3818
  482MOL0     H63572   1.731   7.810   7.610 -2.4558  1.9302 -1.6950
  482MOL0     H63573   1.976   7.856   7.653 -3.1131  1.7195  2.0236
  482MOL0     H63574   1.972   7.759   7.515  0.9373 -0.0284 -0.4685
  482MOL0     H63575   2.119   7.957   7.490  0.0043  0.8286 -1.6325
  482MOL0     H63576   1.973   8.074   7.491 -1.6146  1.2215 -4.6558
  482MOL0     H63577   2.132   7.776   7.317  1.7816  0.7979 -0.5120
  482MOL0     H63578   2.079   7.783   6.950  2.8377 -5.1477 -1.5451
  482MOL0     H63579   2.172   7.715   7.075 -0.5244 -0.7715 -1.2203
  482MOL0     H63580   2.334   7.898   7.077 -1.1726 -0.5758  0.8655
  482MOL0     H63581   2.243   7.999   6.973 -0.8491  0.3774  1.5519
  482MOL0     H63582   2.332   7.721   6.870  0.1882 -0.2826 -0.4112
  482MOL0     H63583   2.270   7.864   6.777 -1.6241 -0.3531  1.8866
  482MOL0     H63584   2.481   7.980   6.820 -2.6640  0.1869  0.7015
  482MOL0     H63585   2.504   7.817   6.745  0.3692  0.8554 -1.0776
  482MOL0     H63586   2.713   7.803   7.130 -1.9377  2.5275 -0.3907
  482MOL0     H63587   2.956   7.838   7.130  0.0938  3.8359  1.3338
  482MOL0     H63588   3.171   8.098   7.286 -0.4228 -1.6252 -1.5533
  482MOL0     H63589   3.361   8.156   7.392 -3.1699 -0.1858 -0.5729
  482MOL0     H63590   3.755   8.195   7.177  2.1147  0.0345  1.0225
  482MOL0     H63591   3.764   8.014   7.188  2.8378  1.1222 -1.1144
  482MOL0     H63592   3.845   8.022   7.404 -1.1935 -1.0955 -1.6664
  482MOL0     H63593   3.823   8.184   7.433 -0.1651  0.3496 -1.1888
  482MOL0     H63594   3.957   8.264   7.252  0.1135 -1.2628 -3.3188
  482MOL0     H63595   4.018   8.108   7.220  0.7714 -0.3787  0.5318
  482MOL0     H63596   4.050   8.232   7.494  0.1701 -1.5820  1.1687
  482MOL0     H63597   4.091   8.063   7.442  0.4124 -0.0312 -1.3616
  482MOL0     H63598   4.175   8.332   7.331  1.0733 -0.2866 -1.0199
  482MOL0     H63599   4.253   8.175   7.285  1.4618 -0.7772  1.5024
  482MOL0     H63600   4.263   8.300   7.577  0.9221 -1.6692  1.5686
  482MOL0     H63601   4.387   8.328   7.457 -1.2695  0.5357 -3.5340
  482MOL0     H63602   4.309   8.048   7.559 -1.3052  2.1464  0.8631
  482MOL0     H63603   4.422   8.083   7.430  0.8297 -1.3875  0.2907
  482MOL0     H63604   4.584   8.195   7.571 -1.4659 -0.4785 -2.5262
  482MOL0     H63605   4.549   8.033   7.631 -0.3569 -0.1988 -1.7772
  482MOL0     H63606   3.594   7.969   7.080  0.2699  2.1529 -1.2419
  482MOL0     H63607   3.377   7.931   6.956 -0.1297  0.1698  1.0371
  482MOL0     H63608   2.924   7.963   6.714 -2.5358  2.9835 -0.2284
  482MOL0     H63609   2.704   7.929   6.718 -0.3313  0.8292  0.2636
  482MOL0     H63610   1.200   7.814   7.807 -0.1765 -0.7540 -1.1905
  482MOL0     H63611   0.991   7.682   7.916  1.1022  0.9288  2.8053
  482MOL0     H63612   0.586   7.545   7.904  0.6092 -1.0201  1.2944
  482MOL0     H63613   0.396   7.425   8.005 -2.9913 -0.9250  1.7982
  482MOL0     H63614   0.254   7.351   8.156  2.1241  1.1246 -0.8854
  482MOL0     H63615   0.146   7.381   8.017  0.2799  1.4478 -0.8740
  482MOL0     H63616   0.029   7.275   8.175  0.8802  0.3005  1.1581
  482MOL0     H63617   0.052   7.397   8.303  2.2310 -1.2416 -0.5348
  482MOL0     H63618  -0.054   7.449   8.017  0.4783 -0.2824  0.5196
  482MOL0     H63619  -0.054   7.571   8.141 -1.3963 -0.4913  1.3776
  482MOL0     H63620  -0.232   7.463   8.282 -2.2390  0.2886 -0.8861
  482MOL0     H63621  -0.263   7.533   8.125  1.9889  0.5407 -0.8133
  482MOL0     H63622  -0.336   7.134   8.012 -0.1252  0.7134 -0.3797
  482MOL0     H63623   0.278   7.768   8.216 -0.6088 -1.0319  0.2655
  482MOL0     H63624   0.466   7.899   8.108  0.3662  0.1975  1.1399
  483MOL0     O63625   0.855   8.309   5.951  0.0392  0.2339  0.6330
  483MOL0     C63626   0.812   8.368   6.055  0.3392 -0.3088 -0.6495
  483MOL0     O63627   0.678   8.385   6.083  0.5978 -0.6486  0.4789
  483MOL0     C63628   0.579   8.303   6.022 -0.5128  0.1138  0.1341
  483MOL0     C63629   0.447   8.354   6.021 -0.1910 -1.3049  0.8379
  483MOL0     C63630   0.340   8.283   5.963  0.3091 -0.0035  0.2272
  483MOL0     C63631   0.364   8.158   5.899  0.1688  0.6977  0.0407
  483MOL0     O63632   0.261   8.080   5.846 -0.0267  0.6654  0.0573
  483MOL0     C63633   0.123   8.086   5.895 -0.3013 -0.9192  0.4407
  483MOL0     C63634   0.059   8.177   5.789  0.5241  0.8370  0.2229
  483MOL0     C63635  -0.102   8.163   5.778  0.4073  0.4860 -0.8572
  483MOL0     C63636  -0.159   8.185   5.917  0.5807 -0.7431  0.3529
  483MOL0     C63637  -0.310   8.165   5.925  0.6030  0.8800  0.6106
  483MOL0     C63638  -0.391   8.264   5.841  0.2157 -0.2256  0.1327
  483MOL0     C63639  -0.540   8.229   5.839  0.3244  0.5689  0.2178
  483MOL0     C63640  -0.598   8.215   5.986  0.2502  0.0839  0.5992
  483MOL0     N63641  -0.742   8.220   5.994  0.2942  0.6648  0.0758
  483MOL0     C63642  -0.831   8.149   5.914 -0.5981 -0.3150 -0.5011
  483MOL0     C63643  -0.949   8.182   5.976  0.3477  0.1457 -0.9971
  483MOL0     C63644  -1.074   8.110   5.926  0.6720  0.3951 -1.0279
  483MOL0     C63645  -1.202   8.193   5.918  0.5340  0.5591  0.1267
  483MOL0     C63646  -1.303   8.177   6.036 -0.7812 -0.0730 -0.5950
  483MOL0     C63647  -1.253   8.241   6.169  0.0662 -0.0918 -0.5967
  483MOL0     O63648  -1.356   8.204   6.260  0.0828 -0.0534 -0.1159
  483MOL0     C63649  -1.431   8.297   6.323 -0.8147 -0.4087 -0.2154
  483MOL0     C63650  -1.435   8.436   6.296 -0.2427  0.4955 -0.1535
  483MOL0     C63651  -1.506   8.518   6.373  0.1793 -0.2067  0.0078
  483MOL0     C63652  -1.569   8.473   6.483  0.2523  0.3400  0.6984
  483MOL0     C63653  -1.611   8.567   6.584 -0.1419  0.0420 -0.0173
  483MOL0     O63654  -1.612   8.532   6.711  0.2643  1.2792  0.0917
  483MOL0     C63655  -1.616   8.638   6.797 -0.4026  0.4636 -0.2663
  483MOL0     C63656  -1.497   8.705   6.818  0.2691  0.5789 -0.0326
  483MOL0     C63657  -1.494   8.817   6.894 -0.4102 -0.2945  0.1328
  483MOL0     C63658  -1.601   8.845   6.971 -0.7430 -0.3856  0.4463
  483MOL0     O63659  -1.588   8.949   7.056 -0.4111 -0.2727 -0.0514
  483MOL0     C63660  -1.696   8.984   7.149  0.4373  0.2535  0.1623
  483MOL0     C63661  -1.803   9.060   7.076 -0.8614  0.4977  0.2759
  483MOL0     C63662  -1.920   9.093   7.167 -0.5881 -0.3156  0.0997
  483MOL0     C63663  -2.033   8.988   7.160  0.5222 -0.4020  0.3878
  483MOL0     C63664  -2.166   9.032   7.224  0.7127  0.2128  0.3543
  483MOL0     C63665  -2.224   9.147   7.142  0.8556 -0.2509  0.1846
  483MOL0     C63666  -2.375   9.165   7.172 -1.5548  0.3273 -0.8980
  483MOL0     C63667  -2.438   9.262   7.072 -0.0411 -1.1204 -0.5068
  483MOL0    Cl63668  -2.357   9.429   7.066  0.0087 -0.3630 -0.2226
  483MOL0     C63669  -1.718   8.767   6.970 -0.5197 -0.0751  0.0684
  483MOL0     C63670  -1.729   8.661   6.877  0.2483  0.3550 -0.2396
  483MOL0     O63671  -1.658   8.671   6.539 -0.0688 -0.2482  0.9314
  483MOL0     C63672  -1.590   8.336   6.505 -0.3816  0.0320  0.1610
  483MOL0     C63673  -1.521   8.253   6.420  0.5396  0.1355 -1.2190
  483MOL0     N63674  -0.940   8.273   6.077  0.1129  1.1480  0.6245
  483MOL0     N63675  -0.817   8.286   6.098 -0.0322  0.4298 -0.3925
  483MOL0     C63676   0.497   8.104   5.910 -0.7093 -0.1283 -0.4220
  483MOL0     C63677   0.601   8.178   5.971 -1.1478 -0.4454 -0.3122
  483MOL0     C63678   0.911   8.388   6.166 -0.6344 -0.0460  0.0172
  483MOL0     C63679   1.046   8.347   6.166  0.3763  0.5417 -0.2146
  483MOL0     C63680   1.131   8.375   6.276  0.6022  0.4067 -0.7662
  483MOL0     C63681   1.079   8.436   6.393 -0.6642  0.1503 -0.1602
  483MOL0     O63682   1.164   8.446   6.506  0.1410 -0.4034  0.2911
  483MOL0     C63683   1.272   8.538   6.496 -0.4603 -0.1764 -0.8594
  483MOL0     C63684   1.390   8.512   6.578  0.0224  0.3636 -0.5717
  483MOL0     C63685   1.489   8.630   6.592 -0.3937 -0.4518 -0.0119
  483MOL0     C63686   1.428   8.772   6.596 -0.0007  0.7920 -0.4584
  483MOL0     C63687   1.541   8.869   6.585 -0.5578  0.4146  1.0454
  483MOL0     C63688   1.628   8.957   6.590 -0.4396 -0.3097  0.9373
  483MOL0     C63689   0.947   8.474   6.401 -0.0631  0.8949  0.0314
  483MOL0     C63690   0.863   8.461   6.286  0.5107  0.1905 -0.5770
  483MOL0     H63691   0.420   8.443   6.076 -1.0118 -1.9510  1.5054
  483MOL0     H63692   0.242   8.327   5.955  0.9771  2.3852  3.4675
  483MOL0     H63693   0.128   8.137   5.992 -1.2064  0.4127 -0.1830
  483MOL0     H63694   0.076   7.987   5.899  0.5798 -1.3493  0.6052
  483MOL0     H63695   0.090   8.152   5.688 -1.6529  2.5465 -0.9504
  483MOL0     H63696   0.093   8.280   5.796 -1.7382  1.6403  0.1943
  483MOL0     H63697  -0.131   8.060   5.758  1.2453 -0.4152  2.0404
  483MOL0     H63698  -0.140   8.242   5.713 -1.4083  1.3709  1.1704
  483MOL0     H63699  -0.105   8.113   5.980 -2.6966 -0.9576  3.2190
  483MOL0     H63700  -0.127   8.283   5.953 -0.8870  0.4174 -1.3099
  483MOL0     H63701  -0.334   8.176   6.031 -0.2946 -1.7640  0.7517
  483MOL0     H63702  -0.336   8.064   5.890  0.4688  1.8157 -2.2454
  483MOL0     H63703  -0.350   8.258   5.740 -0.9243 -1.2912 -0.2929
  483MOL0     H63704  -0.375   8.364   5.881  1.2173 -0.8838  1.4677
  483MOL0     H63705  -0.599   8.301   5.782  2.1761 -0.2353 -2.9508
  483MOL0     H63706  -0.551   8.129   5.795 -1.7495  0.4852  0.8434
  483MOL0     H63707  -0.549   8.290   6.050  0.0441  0.4489  0.3381
  483MOL0     H63708  -0.561   8.118   6.018 -1.3045 -1.4600 -1.9301
  483MOL0     H63709  -0.818   8.083   5.829 -0.4764  1.6799 -2.1282
  483MOL0     H63710  -1.083   8.032   6.002  2.8259  1.4255  0.3761
  483MOL0     H63711  -1.066   8.055   5.831 -0.0629 -0.6172 -0.5203
  483MOL0     H63712  -1.251   8.159   5.826 -0.2806  0.7242  0.4944
  483MOL0     H63713  -1.168   8.296   5.903 -0.8451  0.7138 -2.4945
  483MOL0     H63714  -1.386   8.242   6.005 -0.6953 -0.9886 -2.9278
  483MOL0     H63715  -1.328   8.072   6.047 -0.5874 -0.0913 -0.3359
  483MOL0     H63716  -1.228   8.348   6.165  0.2823 -0.1369 -0.4618
  483MOL0     H63717  -1.162   8.182   6.186 -1.0138 -1.6132  0.1656
  483MOL0     H63718  -1.376   8.479   6.216  0.6267 -2.0718 -0.9630
  483MOL0     H63719  -1.508   8.623   6.347 -0.3980 -0.4657 -1.0800
  483MOL0     H63720  -1.416   8.662   6.760  1.0754  2.7742 -0.6157
  483MOL0     H63721  -1.402   8.873   6.910 -1.5880  1.1779  2.2312
  483MOL0     H63722  -1.647   9.045   7.225 -1.9831  0.0068  2.0385
  483MOL0     H63723  -1.730   8.901   7.212 -0.3327  1.3935  1.3004
  483MOL0     H63724  -1.820   9.009   6.981  1.2564 -2.8662  1.5157
  483MOL0     H63725  -1.748   9.148   7.041  1.2884 -1.7562 -2.5338
  483MOL0     H63726  -1.954   9.190   7.130  0.3130 -1.3320 -3.7988
  483MOL0     H63727  -1.878   9.104   7.267 -0.5963  4.3805 -0.2165
  483MOL0     H63728  -2.050   8.966   7.054  2.3812 -0.3969  0.0503
  483MOL0     H63729  -1.989   8.898   7.204  2.7629 -0.6706 -2.1179
  483MOL0     H63730  -2.161   9.076   7.323 -1.8680  1.2474  0.0790
  483MOL0     H63731  -2.235   8.948   7.235  1.0986 -0.1653 -0.0002
  483MOL0     H63732  -2.207   9.129   7.035  1.8970 -0.3523  0.3499
  483MOL0     H63733  -2.171   9.237   7.173 -1.4345  1.1806  0.1182
  483MOL0     H63734  -2.429   9.070   7.173  0.0584 -0.6438  0.5755
  483MOL0     H63735  -2.379   9.205   7.274 -0.7027 -0.7969 -0.3983
  483MOL0     H63736  -2.545   9.275   7.094  0.2108 -0.8735  0.6542
  483MOL0     H63737  -2.440   9.206   6.978  0.1847 -0.9016 -0.6425
  483MOL0     H63738  -1.802   8.787   7.035 -0.1514 -0.4706  0.6737
  483MOL0     H63739  -1.818   8.601   6.862  2.0108 -2.1589 -1.4903
  483MOL0     H63740  -1.640   8.287   6.588 -0.2746 -4.1307 -1.9656
  483MOL0     H63741  -1.525   8.146   6.438 -2.3710 -0.0118 -2.1358
  483MOL0     H63742   0.527   8.008   5.871 -0.2171 -1.9412  3.9307
  483MOL0     H63743   0.696   8.126   5.974  0.3568  1.9344 -2.8621
  483MOL0     H63744   1.070   8.283   6.082 -0.6405  1.7005 -1.4441
  483MOL0     H63745   1.234   8.343   6.282  0.5870  0.6583  1.9409
  483MOL0     H63746   1.229   8.637   6.511 -0.7166 -0.5038  0.6886
  483MOL0     H63747   1.318   8.517   6.399  3.0430  0.0666  0.5915
  483MOL0     H63748   1.353   8.481   6.676  0.3523  3.5623  0.6675
  483MOL0     H63749   1.450   8.430   6.536 -1.4458  1.0991 -4.5681
  483MOL0     H63750   1.557   8.619   6.507  0.8008 -2.6762  1.1591
  483MOL0     H63751   1.538   8.617   6.689 -0.4006 -1.3733 -0.1269
  483MOL0     H63752   1.359   8.797   6.515 -2.4381  1.4870  1.6947
  483MOL0     H63753   1.377   8.792   6.691 -1.6205 -2.1511 -0.5724
  483MOL0     H63754   1.701   9.033   6.574  1.1179 -1.7549  0.8391
  483MOL0     H63755   0.908   8.519   6.491 -2.1172  1.6106 -1.1455
  483MOL0     H63756   0.757   8.482   6.294  0.9865  2.3829  0.9093
  484MOL0     O63757   8.268   8.088   1.632 -0.3912 -0.8925  0.2083
  484MOL0     C63758   8.273   8.069   1.510 -0.7310  1.2411 -0.4383
  484MOL0     O63759   8.202   8.145   1.421  0.3443  0.9817 -0.5452
  484MOL0     C63760   8.115   8.242   1.478 -0.5439  0.7731 -0.3500
  484MOL0     C63761   7.986   8.206   1.493  0.2206 -0.3578 -0.0436
  484MOL0     C63762   7.884   8.299   1.523 -0.3138  0.2360 -0.2704
  484MOL0     C63763   7.918   8.425   1.545 -0.3783 -0.0886  0.4640
  484MOL0     O63764   7.826   8.505   1.601  0.0661 -0.3715 -0.2558
  484MOL0     C63765   7.859   8.632   1.665  0.2871 -0.1373 -0.2430
  484MOL0     C63766   7.733   8.696   1.724  0.4215  0.3085  0.2376
  484MOL0     C63767   7.651   8.755   1.607  0.4826  0.1149  1.0691
  484MOL0     C63768   7.511   8.821   1.636  0.2961  0.1816  0.1303
  484MOL0     C63769   7.404   8.725   1.689 -0.0359  0.4779 -0.2280
  484MOL0     C63770   7.255   8.770   1.675  0.4196 -0.0029 -0.0802
  484MOL0     C63771   7.153   8.684   1.748 -0.1500 -0.0258 -0.6304
  484MOL0     C63772   7.059   8.610   1.656 -1.0221 -0.3577  0.0416
  484MOL0     N63773   7.127   8.521   1.567  0.2121 -0.4296 -1.1984
  484MOL0     C63774   7.226   8.436   1.592 -0.4216  0.0994  0.2780
  484MOL0     C63775   7.236   8.347   1.488 -0.2028  0.2487 -0.5922
  484MOL0     C63776   7.343   8.233   1.474 -0.8607 -0.1775 -0.5830
  484MOL0     C63777   7.414   8.230   1.338  0.8879 -0.4127 -0.5676
  484MOL0     C63778   7.546   8.172   1.338 -0.5116 -0.2448  0.4849
  484MOL0     C63779   7.615   8.177   1.204  0.7368 -0.3127  1.0622
  484MOL0     O63780   7.751   8.123   1.208  0.1868  0.7610  0.1344
  484MOL0     C63781   7.829   8.119   1.103  0.3073 -0.1026  0.6351
  484MOL0     C63782   7.949   8.054   1.123 -0.5132 -0.2546  1.0726
  484MOL0     C63783   8.047   8.028   1.013  0.3557  0.2042 -0.3739
  484MOL0     C63784   8.003   8.068   0.882 -0.0336 -0.8157 -0.4488
  484MOL0     C63785   8.082   8.043   0.763  0.0863  0.4898  0.5433
  484MOL0     O63786   8.219   8.010   0.781  0.2637  0.0212  0.2176
  484MOL0     C63787   8.288   7.978   0.671  0.1662  0.3698 -0.5356
  484MOL0     C63788   8.262   7.867   0.586 -0.0248 -0.3746 -1.2158
  484MOL0     C63789   8.354   7.839   0.483 -0.0933 -0.1761  0.2903
  484MOL0     C63790   8.472   7.915   0.471  0.5012 -0.6314 -0.0022
  484MOL0     O63791   8.569   7.872   0.381 -0.6817  0.8575  0.7946
  484MOL0     C63792   8.683   7.816   0.453  0.0527 -0.7368  0.9333
  484MOL0     C63793   8.781   7.736   0.364  1.0234  0.1050 -0.3458
  484MOL0     C63794   8.877   7.834   0.302  0.2024 -0.7242 -0.4729
  484MOL0     C63795   8.971   7.767   0.200 -1.1313  0.2839  0.5870
  484MOL0     C63796   9.064   7.860   0.125 -0.4476  0.5116 -0.6954
  484MOL0     C63797   9.003   7.908  -0.011 -0.5977 -0.7199  0.4330
  484MOL0     C63798   9.113   7.990  -0.080  0.2795  0.1643 -0.4608
  484MOL0     C63799   9.077   8.022  -0.232  0.2053 -0.5625 -0.2651
  484MOL0    Cl63800   9.193   8.134  -0.296  0.2544  0.3555  0.1813
  484MOL0     C63801   8.493   8.023   0.554  0.7568 -0.5556  0.5083
  484MOL0     C63802   8.400   8.053   0.655  0.1176 -0.2637 -0.6396
  484MOL0     O63803   8.025   8.046   0.652 -0.5946 -0.2475 -0.3613
  484MOL0     C63804   7.873   8.122   0.862  0.1905  0.1065  0.1331
  484MOL0     C63805   7.790   8.151   0.973 -1.1403  0.0308  0.3443
  484MOL0     N63806   7.144   8.392   1.395 -0.8764 -0.8885 -0.3106
  484MOL0     N63807   7.075   8.490   1.445  0.2645 -0.0139 -0.0627
  484MOL0     C63808   8.042   8.470   1.530  0.0417 -0.8292 -0.2235
  484MOL0     C63809   8.143   8.379   1.498 -0.0142 -0.5114 -0.5610
  484MOL0     C63810   8.362   7.953   1.458 -0.0371  0.1871  0.1171
  484MOL0     C63811   8.334   7.891   1.340  0.3878 -0.3879  0.1489
  484MOL0     C63812   8.411   7.778   1.287  0.6086  0.4541  0.1105
  484MOL0     C63813   8.516   7.725   1.361  0.1834  0.6280 -0.7375
  484MOL0     O63814   8.566   7.601   1.316 -0.1757 -0.0136 -0.5319
  484MOL0     C63815   8.696   7.570   1.370 -0.0785 -0.7099 -0.3931
  484MOL0     C63816   8.802   7.645   1.295 -1.3159  0.4918 -0.3776
  484MOL0     C63817   8.936   7.590   1.345 -0.7207 -0.0643 -1.0725
  484MOL0     C63818   9.043   7.674   1.287  0.4230  0.2427  0.1227
  484MOL0     C63819   9.171   7.677   1.359 -0.2953  0.4924  0.5391
  484MOL0     C63820   9.281   7.677   1.407  0.7002  0.2025 -0.8476
  484MOL0     C63821   8.544   7.792   1.479 -0.6228  0.4687  0.2510
  484MOL0     C63822   8.469   7.902   1.529 -0.0266 -0.0725  0.7363
  484MOL0     H63823   7.962   8.101   1.475  2.4139 -0.8102 -0.5474
  484MOL0     H63824   7.782   8.269   1.544 -0.3290  0.2469 -0.3289
  484MOL0     H63825   7.900   8.714   1.606 -0.1365 -0.0075 -0.3600
  484MOL0     H63826   7.931   8.620   1.747 -0.8053  3.1775  1.3527
  484MOL0     H63827   7.760   8.777   1.793 -1.2966  0.1733  1.1049
  484MOL0     H63828   7.671   8.623   1.777 -2.4541  2.3588 -0.0588
  484MOL0     H63829   7.627   8.676   1.535 -0.2924  1.2506  0.0154
  484MOL0     H63830   7.718   8.824   1.556  1.2639 -1.9600 -0.8794
  484MOL0     H63831   7.531   8.905   1.704  1.0990 -1.1214  1.5866
  484MOL0     H63832   7.461   8.850   1.544  0.9442 -2.2797 -1.0525
  484MOL0     H63833   7.431   8.697   1.791  1.1955  0.4942 -0.5337
  484MOL0     H63834   7.411   8.630   1.634  0.7888  0.3894  0.0156
  484MOL0     H63835   7.240   8.770   1.567  2.8980 -3.6605 -0.6278
  484MOL0     H63836   7.254   8.875   1.705  2.6376  0.9176 -2.8354
  484MOL0     H63837   7.200   8.609   1.812 -2.1833 -2.6263 -2.0249
  484MOL0     H63838   7.088   8.747   1.809 -0.5915  0.2912 -1.4089
  484MOL0     H63839   7.002   8.683   1.598  1.0601 -0.2499 -2.0186
  484MOL0     H63840   6.993   8.546   1.715 -0.3734 -0.7092  0.4081
  484MOL0     H63841   7.292   8.452   1.677  0.9487  2.0837 -1.0674
  484MOL0     H63842   7.301   8.133   1.485 -4.2599  1.0835 -1.1245
  484MOL0     H63843   7.411   8.249   1.558 -0.5087 -0.0630 -0.8863
  484MOL0     H63844   7.411   8.329   1.291 -2.5295 -1.5306 -3.1823
  484MOL0     H63845   7.346   8.173   1.274 -1.8529  1.7641  0.2259
  484MOL0     H63846   7.608   8.226   1.410 -0.9915  0.6175  0.2611
  484MOL0     H63847   7.539   8.066   1.364 -0.0023 -0.8787 -1.7626
  484MOL0     H63848   7.609   8.277   1.160  0.1441 -0.7021  0.2157
  484MOL0     H63849   7.557   8.107   1.142  0.6812 -2.4380  3.3799
  484MOL0     H63850   7.974   8.040   1.227 -1.7611  1.8762  1.7106
  484MOL0     H63851   8.140   7.984   1.047  0.4680  1.7178  1.5048
  484MOL0     H63852   8.187   7.796   0.619  1.5632 -0.8701  1.6932
  484MOL0     H63853   8.361   7.752   0.418  1.3500 -0.2118  0.4667
  484MOL0     H63854   8.648   7.743   0.526  0.2256 -1.0149  0.7435
  484MOL0     H63855   8.739   7.893   0.507 -1.9967  0.9362  0.7814
  484MOL0     H63856   8.723   7.677   0.293 -0.7740 -1.1752  2.0483
  484MOL0     H63857   8.831   7.666   0.431  2.7624  3.1675  1.8286
  484MOL0     H63858   8.930   7.890   0.379 -1.2067  2.3689 -1.5449
  484MOL0     H63859   8.815   7.904   0.244  0.7872 -0.1844 -0.4544
  484MOL0     H63860   9.032   7.692   0.251 -0.5222 -0.0154 -0.5438
  484MOL0     H63861   8.912   7.710   0.129 -2.6749  0.7135  1.4754
  484MOL0     H63862   9.156   7.808   0.098 -0.7300 -0.6024  0.4356
  484MOL0     H63863   9.098   7.943   0.188  1.2681 -1.3514  0.9703
  484MOL0     H63864   8.923   7.977   0.015  1.6393  0.9717  3.5587
  484MOL0     H63865   8.968   7.831  -0.080 -1.6925  0.9597 -0.9385
  484MOL0     H63866   9.127   8.089  -0.037 -0.7843  1.1714 -2.2985
  484MOL0     H63867   9.206   7.933  -0.065 -1.7936 -3.4224  0.0619
  484MOL0     H63868   8.970   8.043  -0.241  0.4150  0.9813  0.3799
  484MOL0     H63869   9.092   7.929  -0.288  1.3563 -0.4796 -0.1319
  484MOL0     H63870   8.583   8.081   0.535  0.6288 -1.5991 -4.9749
  484MOL0     H63871   8.429   8.121   0.735  0.4750 -1.2137  0.0623
  484MOL0     H63872   7.854   8.169   0.767 -0.8582  3.1282  1.7114
  484MOL0     H63873   7.686   8.180   0.966 -1.2187 -0.1945  0.5531
  484MOL0     H63874   8.084   8.568   1.550  2.7309 -1.1875 -3.3272
  484MOL0     H63875   8.247   8.407   1.483  0.6956 -2.9077 -0.4692
  484MOL0     H63876   8.242   7.909   1.286  0.0575 -2.0169  0.1392
  484MOL0     H63877   8.389   7.735   1.190 -2.7131  1.8535  0.0914
  484MOL0     H63878   8.723   7.466   1.354 -1.6384 -1.7330  2.6943
  484MOL0     H63879   8.696   7.566   1.480 -0.2913 -0.1706 -0.3696
  484MOL0     H63880   8.785   7.618   1.191  1.4166  1.5070 -1.1707
  484MOL0     H63881   8.803   7.751   1.320 -0.5552  0.6644 -1.1057
  484MOL0     H63882   8.947   7.482   1.330 -3.8947 -0.9534  1.6661
  484MOL0     H63883   8.923   7.602   1.453 -2.7383 -3.1285 -0.8690
  484MOL0     H63884   9.066   7.641   1.186 -3.4619 -1.2974 -0.3947
  484MOL0     H63885   9.006   7.774   1.261 -2.4350 -1.0244 -1.0959
  484MOL0     H63886   9.379   7.682   1.450  0.1159 -0.5594  0.6510
  484MOL0     H63887   8.628   7.754   1.538  2.2965 -1.5610 -4.5918
  484MOL0     H63888   8.491   7.940   1.628 -1.1242 -0.9263  1.3295
  485MOL0     O63889   3.021   4.329   0.604  0.0199 -0.0482 -0.3753
  485MOL0     C63890   3.074   4.253   0.519 -0.2119 -0.4098  0.6269
  485MOL0     O63891   3.016   4.199   0.406 -0.3500  0.8437  0.6334
  485MOL0     C63892   2.882   4.219   0.400  0.2290  0.8354 -0.8757
  485MOL0     C63893   2.849   4.323   0.318  0.3292  0.4205 -0.0867
  485MOL0     C63894   2.710   4.345   0.304 -0.2116 -0.7722 -0.0274
  485MOL0     C63895   2.611   4.280   0.378 -0.1495  0.7155 -0.6579
  485MOL0     O63896   2.484   4.323   0.375  0.9607  0.0906  0.2700
  485MOL0     C63897   2.373   4.243   0.431  0.0322 -0.4015  0.1967
  485MOL0     C63898   2.244   4.331   0.437  0.2617  0.6190 -0.5907
  485MOL0     C63899   2.141   4.255   0.532 -0.2106 -1.1167  0.6590
  485MOL0     C63900   2.022   4.333   0.576  0.3502 -1.0334  0.6676
  485MOL0     C63901   1.929   4.256   0.674 -0.2206 -1.3863  0.4588
  485MOL0     C63902   1.784   4.309   0.670 -0.5329 -0.2324 -0.1516
  485MOL0     C63903   1.772   4.440   0.742 -0.1760 -0.2527 -0.8740
  485MOL0     C63904   1.625   4.471   0.782  0.0231 -0.7621 -0.5856
  485MOL0     N63905   1.615   4.623   0.816 -0.2850 -0.4264 -0.3156
  485MOL0     C63906   1.698   4.683   0.900  0.3965 -0.4587 -0.3568
  485MOL0     C63907   1.680   4.818   0.891  0.1706  0.3015  1.3883
  485MOL0     C63908   1.757   4.915   0.966  0.4014 -0.7014 -0.7217
  485MOL0     C63909   1.867   4.980   0.892  0.2022  0.0313  0.4026
  485MOL0     C63910   2.000   4.897   0.907 -0.5886 -0.8797  1.1005
  485MOL0     C63911   2.108   4.959   0.815  0.4202 -0.6287 -0.1725
  485MOL0     O63912   2.141   5.083   0.868 -0.1962 -0.0191 -0.6714
  485MOL0     C63913   2.255   5.143   0.821 -0.0742 -0.2651 -0.3725
  485MOL0     C63914   2.285   5.267   0.885 -0.5056  0.2342 -0.2907
  485MOL0     C63915   2.393   5.341   0.850 -0.1943  1.2409 -0.3007
  485MOL0     C63916   2.476   5.300   0.740 -0.2942 -1.5257 -0.2862
  485MOL0     C63917   2.588   5.385   0.703  0.5281  0.6604  0.4888
  485MOL0     O63918   2.659   5.328   0.599  0.1959 -0.0056  0.1855
  485MOL0     C63919   2.764   5.396   0.550  0.3570  0.2067 -0.3197
  485MOL0     C63920   2.764   5.414   0.417 -0.0856  0.2756  0.0909
  485MOL0     C63921   2.875   5.467   0.351 -0.3164 -0.4751  0.2645
  485MOL0     C63922   2.983   5.514   0.428  0.6433 -0.6742 -0.4197
  485MOL0     O63923   3.079   5.581   0.364 -0.4546 -0.0323 -0.2248
  485MOL0     C63924   3.125   5.510   0.244  0.2657 -0.6121 -0.3828
  485MOL0     C63925   3.272   5.471   0.267 -0.2464  0.0640 -0.4958
  485MOL0     C63926   3.339   5.434   0.136 -0.2611 -0.3871 -0.7557
  485MOL0     C63927   3.454   5.330   0.148  0.5268 -0.2462 -0.0607
  485MOL0     C63928   3.513   5.304   0.002 -0.4774 -0.0924  0.1733
  485MOL0     C63929   3.569   5.158  -0.019  0.7166  0.3250  0.6834
  485MOL0     C63930   3.466   5.046  -0.024  0.0716 -0.4625 -0.7835
  485MOL0     C63931   3.367   5.060  -0.142 -0.1716  0.1872  0.2870
  485MOL0    Cl63932   3.235   4.939  -0.154 -0.4035  0.2458  0.8049
  485MOL0     C63933   2.979   5.505   0.568  0.1239  0.0404  1.2528
  485MOL0     C63934   2.874   5.440   0.627  0.2410 -0.8082  0.0125
  485MOL0     O63935   2.604   5.499   0.747  0.6512  0.8701 -0.3640
  485MOL0     C63936   2.446   5.179   0.674 -0.0972 -0.7619 -0.2566
  485MOL0     C63937   2.339   5.102   0.714 -0.4682 -0.1806  0.8226
  485MOL0     N63938   1.592   4.837   0.779  0.2841 -0.2192  0.8027
  485MOL0     N63939   1.564   4.719   0.744  0.2847  0.0630  0.2318
  485MOL0     C63940   2.653   4.170   0.463  0.0304 -0.5135  1.1025
  485MOL0     C63941   2.785   4.143   0.472 -0.6525  0.2394  0.9345
  485MOL0     C63942   3.221   4.213   0.531 -0.2597 -0.9308  0.2839
  485MOL0     C63943   3.302   4.180   0.424 -0.0802 -0.4337  0.6613
  485MOL0     C63944   3.436   4.143   0.438  0.3040 -0.3886  0.1271
  485MOL0     C63945   3.497   4.149   0.561 -0.4616  0.3357 -0.1411
  485MOL0     O63946   3.636   4.138   0.581  0.2832 -0.8534 -0.1102
  485MOL0     C63947   3.729   4.125   0.477  0.4910 -1.1700  0.2455
  485MOL0     C63948   3.730   3.982   0.435 -0.5564 -0.9168  0.4922
  485MOL0     C63949   3.733   3.881   0.556  0.2244 -0.3485 -0.1574
  485MOL0     C63950   3.745   3.735   0.510  0.0810  0.0926 -0.7319
  485MOL0     C63951   3.870   3.718   0.426 -0.6387 -0.1303 -0.0694
  485MOL0     C63952   3.974   3.723   0.353  0.2711  0.1669  0.7136
  485MOL0     C63953   3.414   4.170   0.675 -0.8553 -1.1080  1.5147
  485MOL0     C63954   3.280   4.208   0.661  0.3048  0.4071  0.2545
  485MOL0     H63955   2.922   4.376   0.258 -0.3372 -0.2767 -1.5930
  485MOL0     H63956   2.683   4.432   0.244  3.7629  1.0226  0.5001
  485MOL0     H63957   2.388   4.210   0.534 -0.5639 -0.5043  0.2504
  485MOL0     H63958   2.352   4.157   0.367 -3.4937 -0.8380  1.7375
  485MOL0     H63959   2.203   4.337   0.336 -0.4785  2.8308 -0.2101
  485MOL0     H63960   2.274   4.431   0.471  0.7048  0.5787 -0.8510
  485MOL0     H63961   2.192   4.224   0.624  2.2932  0.4882 -0.0699
  485MOL0     H63962   2.103   4.166   0.481  2.4908 -1.0885 -1.7106
  485MOL0     H63963   2.053   4.430   0.616 -3.8273  1.2156 -0.9866
  485MOL0     H63964   1.972   4.365   0.484  2.0473  0.4023  0.1796
  485MOL0     H63965   1.962   4.259   0.779 -1.5662  0.4655  0.8782
  485MOL0     H63966   1.908   4.155   0.638  2.7009 -2.2418  0.9138
  485MOL0     H63967   1.719   4.238   0.721 -0.2123 -1.1518 -0.9873
  485MOL0     H63968   1.744   4.315   0.568  1.3918 -0.6003 -0.9695
  485MOL0     H63969   1.820   4.435   0.840 -0.8140  0.3299 -0.5288
  485MOL0     H63970   1.815   4.524   0.686 -1.9965 -0.6102 -2.9393
  485MOL0     H63971   1.601   4.417   0.874  1.8289 -0.1631  0.2769
  485MOL0     H63972   1.551   4.461   0.702  0.0216  0.7981 -0.8120
  485MOL0     H63973   1.763   4.634   0.972  0.3811 -0.4952 -0.3678
  485MOL0     H63974   1.793   4.859   1.053  0.8736 -1.9880 -1.7177
  485MOL0     H63975   1.681   4.990   0.989  0.7149 -0.1777 -1.3624
  485MOL0     H63976   1.904   5.073   0.936  2.7801 -0.7924  0.1555
  485MOL0     H63977   1.835   5.013   0.792 -1.2715  0.5167  1.0121
  485MOL0     H63978   2.021   4.881   1.013 -2.6475 -0.7378  1.5717
  485MOL0     H63979   1.977   4.800   0.862 -3.5825  0.2092  0.0333
  485MOL0     H63980   2.059   4.981   0.719 -1.8692  2.1892  1.4574
  485MOL0     H63981   2.201   4.904   0.802  1.9724  1.4232  1.4545
  485MOL0     H63982   2.218   5.307   0.961 -1.2041  0.4383 -1.0023
  485MOL0     H63983   2.418   5.432   0.902 -1.4485  0.1625  2.3738
  485MOL0     H63984   2.676   5.391   0.357  1.1087  1.1548 -2.1210
  485MOL0     H63985   2.867   5.473   0.243 -0.3026 -3.1442  0.0437
  485MOL0     H63986   3.123   5.580   0.160 -1.7095 -0.1118  0.0338
  485MOL0     H63987   3.071   5.419   0.218  1.7622 -1.1306 -1.8325
  485MOL0     H63988   3.274   5.378   0.324 -0.7085  1.0471  1.2151
  485MOL0     H63989   3.326   5.552   0.318  3.4146 -1.5031 -1.5398
  485MOL0     H63990   3.371   5.528   0.090  0.6895  0.6101  1.7773
  485MOL0     H63991   3.250   5.390   0.091 -0.5830 -3.1414  2.1677
  485MOL0     H63992   3.527   5.369   0.219 -0.3009  0.5804  0.3577
  485MOL0     H63993   3.418   5.241   0.200  1.0693 -1.6245 -1.9105
  485MOL0     H63994   3.595   5.375  -0.007 -1.5108  0.7853 -4.5642
  485MOL0     H63995   3.438   5.327  -0.074 -1.3938 -1.1126  0.7165
  485MOL0     H63996   3.648   5.141   0.054  1.9777  4.2183  0.4416
  485MOL0     H63997   3.623   5.164  -0.114  1.0983 -0.0767  0.8752
  485MOL0     H63998   3.524   4.954  -0.039  1.9607  0.1255  2.1087
  485MOL0     H63999   3.411   5.057   0.070  2.4811  2.2707  0.4650
  485MOL0     H64000   3.425   5.057  -0.235  1.0758 -1.4725  1.0719
  485MOL0     H64001   3.317   5.157  -0.131 -1.1533 -0.2913  0.0852
  485MOL0     H64002   3.064   5.534   0.629 -1.1310  1.0963  2.5805
  485MOL0     H64003   2.876   5.433   0.736 -0.8134  0.7466  0.1581
  485MOL0     H64004   2.515   5.133   0.604  2.6018  1.5537  0.6748
  485MOL0     H64005   2.317   5.007   0.667 -1.6198 -0.1413  1.2499
  485MOL0     H64006   2.582   4.115   0.524  0.6465 -1.2334  1.1941
  485MOL0     H64007   2.824   4.069   0.542  0.2132 -0.2727 -0.0561
  485MOL0     H64008   3.260   4.158   0.326  2.0757 -0.6827 -0.2846
  485MOL0     H64009   3.487   4.121   0.345 -0.5860 -0.8293 -0.2657
  485MOL0     H64010   3.820   4.158   0.529 -1.2175  0.8829  2.1664
  485MOL0     H64011   3.713   4.192   0.392 -2.4023 -1.4444  0.4896
  485MOL0     H64012   3.643   3.963   0.371 -0.3129  2.9132 -1.2465
  485MOL0     H64013   3.812   3.959   0.367 -0.4632  3.7039 -1.3414
  485MOL0     H64014   3.640   3.897   0.612  2.2372 -0.5564  3.5621
  485MOL0     H64015   3.814   3.905   0.625  0.4071 -1.7413  0.1265
  485MOL0     H64016   3.746   3.681   0.605  0.7410  0.4267 -0.5425
  485MOL0     H64017   3.661   3.705   0.446  1.3106 -1.7494 -1.6064
  485MOL0     H64018   4.058   3.738   0.289  1.0140  1.8855  2.0192
  485MOL0     H64019   3.467   4.157   0.769  2.4178  1.7293  0.3022
  485MOL0     H64020   3.213   4.213   0.746  0.6087 -3.8863  0.9576
  486MOL0     O64021   9.860  10.683   0.755  0.2442  0.5379  0.5898
  486MOL0     C64022   9.941  10.605   0.710  0.1108 -0.2277  0.1220
  486MOL0     O64023   9.913  10.510   0.614  0.1772 -0.3174  0.8682
  486MOL0     C64024   9.789  10.509   0.564  0.2282 -0.3092  0.7130
  486MOL0     C64025   9.681  10.473   0.643 -0.3560 -0.6320 -0.1488
  486MOL0     C64026   9.547  10.475   0.609  0.3634 -0.1305  0.3518
  486MOL0     C64027   9.526  10.488   0.470  0.8315 -0.1923 -0.5157
  486MOL0     O64028   9.396  10.485   0.414  0.8999  0.0963  0.4406
  486MOL0     C64029   9.283  10.411   0.473  0.0403 -0.0625  0.0074
  486MOL0     C64030   9.175  10.423   0.360 -0.4147  0.1430  0.6500
  486MOL0     C64031   9.035  10.374   0.394 -0.1062  0.5496 -0.2621
  486MOL0     C64032   8.929  10.444   0.298 -0.0666 -0.4120  0.0327
  486MOL0     C64033   8.785  10.418   0.342  0.1829 -0.5756 -0.1652
  486MOL0     C64034   8.682  10.502   0.258  0.1756  0.7538 -0.7032
  486MOL0     C64035   8.543  10.468   0.304  0.2299 -0.1199 -0.8075
  486MOL0     C64036   8.420  10.529   0.233  0.9972 -0.1471 -0.4292
  486MOL0     N64037   8.289  10.491   0.278  0.5761  0.4400 -0.7891
  486MOL0     C64038   8.202  10.579   0.334 -0.6103  0.8243  0.3313
  486MOL0     C64039   8.101  10.496   0.375 -0.5037 -0.6783  0.7813
  486MOL0     C64040   7.961  10.533   0.413  0.0662  0.6466  0.7277
  486MOL0     C64041   7.864  10.466   0.310  0.1174 -0.5361 -0.5936
  486MOL0     C64042   7.842  10.315   0.318  0.4021  0.4847 -1.3283
  486MOL0     C64043   7.702  10.275   0.272 -0.4283  0.4992  1.2473
  486MOL0     O64044   7.604  10.353   0.337 -0.4895  0.3586 -0.9922
  486MOL0     C64045   7.468  10.321   0.317 -1.1559  0.0240  0.5291
  486MOL0     C64046   7.434  10.191   0.277 -0.5919 -0.2765  0.3335
  486MOL0     C64047   7.292  10.164   0.255 -0.0477  0.2835  0.3782
  486MOL0     C64048   7.195  10.265   0.263  0.5468  0.0094  0.0315
  486MOL0     C64049   7.047  10.229   0.254  0.2588 -0.0993 -1.0471
  486MOL0     O64050   6.961  10.334   0.235  0.4389  0.1510  1.0695
  486MOL0     C64051   6.821  10.325   0.256  0.2914  0.4330 -0.2884
  486MOL0     C64052   6.732  10.210   0.251  0.6185  0.2285  1.1233
  486MOL0     C64053   6.595  10.230   0.258 -0.0890  0.3988 -0.6443
  486MOL0     C64054   6.539  10.359   0.289 -0.2640 -0.4285 -0.2671
  486MOL0     O64055   6.407  10.388   0.297 -0.5956 -0.0468 -0.3730
  486MOL0     C64056   6.325  10.295   0.363 -0.6806 -0.2228  0.1612
  486MOL0     C64057   6.211  10.366   0.428  0.0188 -0.6379 -0.0021
  486MOL0     C64058   6.132  10.264   0.510 -0.5171  0.1724  1.0356
  486MOL0     C64059   6.007  10.327   0.566  1.2468 -0.3365 -0.8361
  486MOL0     C64060   5.930  10.237   0.669  0.3478  0.2592  0.5797
  486MOL0     C64061   5.817  10.313   0.741 -0.1841 -0.1820  0.0812
  486MOL0     C64062   5.707  10.351   0.656  0.7845 -0.3259 -0.0296
  486MOL0     C64063   5.585  10.392   0.748  0.4634  0.9460  0.6107
  486MOL0    Cl64064   5.428  10.380   0.678 -0.2578  0.0043 -0.2166
  486MOL0     C64065   6.627  10.478   0.287  0.2672 -0.2234  0.5637
  486MOL0     C64066   6.763  10.460   0.268  0.7040  0.9447  0.0382
  486MOL0     O64067   7.009  10.112   0.272 -0.6208 -0.2215  0.3685
  486MOL0     C64068   7.243  10.400   0.278  0.9230  0.1919  1.1748
  486MOL0     C64069   7.374  10.423   0.311  0.7280 -0.8320 -0.1721
  486MOL0     N64070   8.144  10.366   0.370 -1.5216 -0.0376 -1.1335
  486MOL0     N64071   8.252  10.367   0.309 -0.0625  0.9523 -0.0972
  486MOL0     C64072   9.626  10.528   0.389 -0.6646  0.3561  0.8603
  486MOL0     C64073   9.758  10.526   0.429 -0.0712 -0.6875 -0.3732
  486MOL0     C64074  10.068  10.604   0.787 -0.6246  0.5459 -0.2659
  486MOL0     C64075  10.171  10.530   0.734  0.7569 -0.1247 -0.7512
  486MOL0     C64076  10.306  10.536   0.787  0.4707  0.6249  0.1649
  486MOL0     C64077  10.318  10.608   0.904 -1.0403  0.1016 -0.3133
  486MOL0     O64078  10.438  10.616   0.976 -0.1481 -0.3342 -0.8354
  486MOL0     C64079  10.569  10.601   0.923 -0.7548 -0.1694 -0.5991
  486MOL0     C64080  10.677  10.619   1.033  0.8738 -0.0733 -0.5752
  486MOL0     C64081  10.677  10.505   1.134  0.3429 -0.0655  0.2503
  486MOL0     C64082  10.720  10.548   1.272  0.1722 -0.1032 -0.0692
  486MOL0     C64083  10.708  10.439   1.375  0.1757 -0.1379 -0.4234
  486MOL0     C64084  10.711  10.342   1.448 -0.6733  0.8166 -0.2019
  486MOL0     C64085  10.218  10.685   0.958  1.0099  0.2301 -0.0131
  486MOL0     C64086  10.091  10.689   0.894 -0.4291  0.0362  0.4530
  486MOL0     H64087   9.704  10.443   0.745 -1.8355  2.4331  1.2262
  486MOL0     H64088   9.462  10.458   0.675  0.9398 -0.8380  0.9268
  486MOL0     H64089   9.250  10.457   0.567 -0.0873 -0.2416  0.0494
  486MOL0     H64090   9.310  10.307   0.490 -0.2040 -0.0746  0.3421
  486MOL0     H64091   9.213  10.379   0.268 -0.3867  0.2091  0.6295
  486MOL0     H64092   9.174  10.532   0.346 -0.6226  0.2207  1.2123
  486MOL0     H64093   9.006  10.397   0.497 -0.5298  3.6192 -0.9711
  486MOL0     H64094   9.045  10.266   0.379  0.4507  0.7502 -1.4323
  486MOL0     H64095   8.946  10.552   0.295 -1.3762 -0.1596 -4.0365
  486MOL0     H64096   8.949  10.409   0.196 -1.5570  1.7786 -1.0881
  486MOL0     H64097   8.774  10.440   0.449 -0.6637  0.4833 -0.4465
  486MOL0     H64098   8.767  10.311   0.332 -0.6670 -0.5769  1.2310
  486MOL0     H64099   8.693  10.478   0.152 -2.1648 -1.2039 -0.5838
  486MOL0     H64100   8.705  10.607   0.277 -1.5923  1.1794 -0.7375
  486MOL0     H64101   8.530  10.360   0.292 -0.9878 -0.1072  0.2095
  486MOL0     H64102   8.533  10.501   0.408 -0.3591  1.7373 -1.4085
  486MOL0     H64103   8.431  10.492   0.130 -0.1802  0.6803 -0.8648
  486MOL0     H64104   8.420  10.637   0.216 -4.1334  0.5730  2.4229
  486MOL0     H64105   8.191  10.684   0.307  0.6676  1.1348  0.9494
  486MOL0     H64106   7.949  10.641   0.401  0.1854  0.5871  0.0085
  486MOL0     H64107   7.939  10.499   0.515 -0.8872  1.2666  0.7394
  486MOL0     H64108   7.913  10.478   0.213 -1.1740 -1.7139 -1.4334
  486MOL0     H64109   7.769  10.522   0.310  1.1029  1.2002 -0.5805
  486MOL0     H64110   7.917  10.260   0.261  2.0918  1.3721 -0.0500
  486MOL0     H64111   7.857  10.277   0.420 -0.8934 -0.2300 -1.3861
  486MOL0     H64112   7.698  10.167   0.289 -0.1469  0.0644 -1.1455
  486MOL0     H64113   7.699  10.280   0.163  0.6085  0.2080  1.1983
  486MOL0     H64114   7.499  10.105   0.289 -4.4781 -4.1020 -2.7295
  486MOL0     H64115   7.271  10.058   0.251  0.9775  0.0102  1.6177
  486MOL0     H64116   6.772  10.111   0.230  1.1941  0.3261  1.7168
  486MOL0     H64117   6.519  10.153   0.249 -1.7870  1.3995  3.2014
  486MOL0     H64118   6.378  10.246   0.445 -0.4377 -0.7539 -0.3011
  486MOL0     H64119   6.297  10.221   0.287 -1.8350  1.4524 -1.1044
  486MOL0     H64120   6.147  10.400   0.345  0.7394 -0.7608 -0.6240
  486MOL0     H64121   6.253  10.452   0.480  3.3781  0.4071 -3.8834
  486MOL0     H64122   6.195  10.240   0.597  1.8013 -2.9672 -1.2718
  486MOL0     H64123   6.113  10.177   0.446  0.1246 -0.1724  1.3039
  486MOL0     H64124   6.045  10.420   0.609  0.2973 -0.4740  0.3363
  486MOL0     H64125   5.940  10.342   0.481  0.2346 -2.4252 -0.4613
  486MOL0     H64126   6.005  10.216   0.746  0.5795  2.4142  1.0144
  486MOL0     H64127   5.901  10.142   0.624  1.6047  0.5180 -0.8390
  486MOL0     H64128   5.863  10.396   0.795  1.5272 -1.1044  0.1105
  486MOL0     H64129   5.772  10.243   0.812 -0.3513 -1.8563 -1.6144
  486MOL0     H64130   5.741  10.436   0.597 -0.3488 -0.2130 -0.5437
  486MOL0     H64131   5.681  10.267   0.591  0.8172 -0.6608  0.3862
  486MOL0     H64132   5.594  10.495   0.782  2.8959  1.6137 -1.6800
  486MOL0     H64133   5.585  10.325   0.835 -2.3220  0.9322  0.6853
  486MOL0     H64134   6.590  10.580   0.277  2.7034  0.5637 -1.5358
  486MOL0     H64135   6.822  10.551   0.256  0.5645  0.8705 -1.3472
  486MOL0     H64136   7.183  10.490   0.269  3.6308  1.9929 -0.1181
  486MOL0     H64137   7.409  10.522   0.338 -0.1285 -0.2885 -1.0250
  486MOL0     H64138   9.604  10.540   0.284  0.7087  0.5421  0.5689
  486MOL0     H64139   9.828  10.556   0.351  0.4165 -0.0522  0.2944
  486MOL0     H64140  10.149  10.457   0.656  1.4182 -1.5671  0.3729
  486MOL0     H64141  10.380  10.472   0.740 -0.9269 -1.9120  1.2253
  486MOL0     H64142  10.583  10.671   0.840  2.7958 -2.5548 -2.2201
  486MOL0     H64143  10.560  10.495   0.898 -1.4416 -0.0920 -0.6862
  486MOL0     H64144  10.780  10.624   0.998  1.3799 -0.9846  0.7236
  486MOL0     H64145  10.660  10.714   1.086 -0.4828  0.2505 -1.5399
  486MOL0     H64146  10.737  10.429   1.083  2.2531  3.2934 -2.9759
  486MOL0     H64147  10.580  10.455   1.142 -1.3361  3.1367  1.7603
  486MOL0     H64148  10.818  10.596   1.268 -1.0899  2.6799  0.2706
  486MOL0     H64149  10.653  10.630   1.299  0.5920  0.8764 -1.8447
  486MOL0     H64150  10.711  10.267   1.524 -0.2921  1.5481  0.5418
  486MOL0     H64151  10.242  10.753   1.039  1.1017  0.0112  0.1474
  486MOL0     H64152  10.012  10.761   0.914 -2.6771 -0.8053 -4.0162
  487MOL0     O64153   8.522  11.154   6.152  0.3352 -0.4564 -0.2803
  487MOL0     C64154   8.612  11.129   6.236 -0.6109 -0.1510  0.3574
  487MOL0     O64155   8.605  11.154   6.371  0.1668 -0.3253  0.4093
  487MOL0     C64156   8.507  11.237   6.423 -0.5118 -0.5152  1.0245
  487MOL0     C64157   8.553  11.360   6.476 -0.1512  0.1609  0.4248
  487MOL0     C64158   8.465  11.450   6.528 -0.1131 -0.7677  0.5688
  487MOL0     C64159   8.331  11.424   6.520  0.4004 -1.1435 -0.5126
  487MOL0     O64160   8.262  11.526   6.566 -0.3030 -0.3586  0.3909
  487MOL0     C64161   8.134  11.549   6.508 -0.0299  0.4588  0.5799
  487MOL0     C64162   8.082  11.688   6.545 -0.2670 -0.5379 -0.6322
  487MOL0     C64163   8.168  11.806   6.517 -0.0405  0.5261 -0.6230
  487MOL0     C64164   8.110  11.940   6.567  0.0782  0.4527 -0.3005
  487MOL0     C64165   7.989  11.990   6.490  0.5005 -0.6854 -0.3214
  487MOL0     C64166   7.903  12.097   6.564 -0.4734  0.0062  0.5471
  487MOL0     C64167   7.806  12.032   6.675  0.4097  0.4266  0.2100
  487MOL0     C64168   7.727  12.140   6.737  0.5803 -0.8444  0.6045
  487MOL0     N64169   7.653  12.225   6.647  0.4436 -0.4895  0.0457
  487MOL0     C64170   7.530  12.189   6.604 -0.1538  0.1049 -0.3711
  487MOL0     C64171   7.503  12.275   6.502 -0.5855  0.2056 -0.4273
  487MOL0     C64172   7.380  12.265   6.416 -0.3381 -0.4045 -0.0036
  487MOL0     C64173   7.262  12.334   6.481  0.5286  0.7310  0.8944
  487MOL0     C64174   7.153  12.322   6.381 -0.0319 -0.1859  0.2107
  487MOL0     C64175   7.019  12.352   6.444 -0.0390 -0.1834  1.1169
  487MOL0     O64176   6.927  12.332   6.340  0.0085  0.1898 -0.0797
  487MOL0     C64177   6.796  12.372   6.364  0.5980 -0.8428  0.2612
  487MOL0     C64178   6.692  12.283   6.363  0.6133  0.1709  0.5619
  487MOL0     C64179   6.557  12.326   6.361 -0.1590 -0.0629 -0.0067
  487MOL0     C64180   6.530  12.467   6.387 -0.1338  0.3897 -0.4527
  487MOL0     C64181   6.388  12.511   6.408 -0.3657 -0.4347  0.2914
  487MOL0     O64182   6.292  12.415   6.406  0.0073 -0.0010 -0.3478
  487MOL0     C64183   6.163  12.458   6.446  0.2091  0.1049 -0.4102
  487MOL0     C64184   6.157  12.517   6.576  0.6605 -0.0122  0.2462
  487MOL0     C64185   6.031  12.554   6.621 -0.2511  0.3749 -0.0740
  487MOL0     C64186   5.913  12.527   6.554 -0.1839 -0.4111 -0.1153
  487MOL0     O64187   5.806  12.560   6.624  0.2206 -0.5528 -0.6261
  487MOL0     C64188   5.679  12.499   6.589  0.3848 -0.6973 -0.6067
  487MOL0     C64189   5.570  12.551   6.693  1.0423  0.3853  0.0459
  487MOL0     C64190   5.436  12.529   6.644  0.2672 -0.2967  0.6871
  487MOL0     C64191   5.320  12.604   6.716 -1.3902 -0.2383 -0.5081
  487MOL0     C64192   5.183  12.579   6.657  0.2984  0.1971  0.9200
  487MOL0     C64193   5.076  12.623   6.759 -0.3180 -0.6450  0.1088
  487MOL0     C64194   4.945  12.622   6.682 -0.9810 -0.3898 -0.3271
  487MOL0     C64195   4.834  12.685   6.770  0.7055 -0.1000 -1.2007
  487MOL0    Cl64196   4.699  12.726   6.659 -0.0810 -0.1752  0.7712
  487MOL0     C64197   5.919  12.456   6.424 -0.1653 -0.4096  0.4374
  487MOL0     C64198   6.047  12.420   6.378 -0.2791  0.4521 -0.0821
  487MOL0     O64199   6.374  12.635   6.425  0.6364 -0.2406  0.8757
  487MOL0     C64200   6.646  12.552   6.393  0.3925  0.4619 -0.0574
  487MOL0     C64201   6.777  12.511   6.388  0.7899  0.3756 -0.5186
  487MOL0     N64202   7.608  12.361   6.482 -0.2182  0.0274 -0.7917
  487MOL0     N64203   7.698  12.328   6.566 -0.6577  0.0490 -0.8900
  487MOL0     C64204   8.279  11.298   6.486 -0.0138  0.0952 -0.4142
  487MOL0     C64205   8.372  11.202   6.435  0.2613  0.0654  0.3993
  487MOL0     C64206   8.719  11.046   6.171  0.0630 -0.7631 -0.6949
  487MOL0     C64207   8.751  11.047   6.032  0.1005 -1.1579 -0.6917
  487MOL0     C64208   8.858  10.975   5.979 -0.0726  0.4235  0.0561
  487MOL0     C64209   8.931  10.891   6.057 -0.5965 -1.4086 -0.0569
  487MOL0     O64210   9.024  10.813   5.992 -0.1157  0.1392 -0.2258
  487MOL0     C64211   9.097  10.713   6.069  0.3137 -0.2525 -0.1707
  487MOL0     C64212   9.207  10.774   6.144  0.4609  0.2826 -0.0687
  487MOL0     C64213   9.273  10.681   6.253  0.0175  0.4001 -0.1399
  487MOL0     C64214   9.369  10.749   6.344 -0.6333  0.3173 -0.8394
  487MOL0     C64215   9.393  10.697   6.479 -0.8103  0.2181  0.6073
  487MOL0     C64216   9.406  10.638   6.583  0.0015  0.4967  0.7251
  487MOL0     C64217   8.911  10.888   6.195  0.8004  0.4701 -0.2562
  487MOL0     C64218   8.802  10.957   6.247 -0.1496  0.4534 -0.9865
  487MOL0     H64219   8.660  11.376   6.475 -0.2900  1.2649 -1.4015
  487MOL0     H64220   8.503  11.544   6.567 -0.1816 -0.4516 -0.1131
  487MOL0     H64221   8.069  11.470   6.546 -0.0267  0.4969  0.6663
  487MOL0     H64222   8.124  11.558   6.400  2.0381 -1.1507  0.1835
  487MOL0     H64223   8.058  11.690   6.652 -0.0605 -1.9572 -0.5376
  487MOL0     H64224   7.996  11.705   6.480  0.1162  0.9208 -0.8101
  487MOL0     H64225   8.177  11.828   6.410 -0.9314 -0.6961 -0.9822
  487MOL0     H64226   8.269  11.792   6.555 -0.0600 -1.2256 -1.1265
  487MOL0     H64227   8.079  11.923   6.670 -0.1414  4.1073  0.3763
  487MOL0     H64228   8.186  12.019   6.566 -1.7030  2.2698 -1.4239
  487MOL0     H64229   7.915  11.912   6.471 -1.0288  1.2123 -2.8764
  487MOL0     H64230   8.023  12.028   6.393  0.7439  0.7170  0.2772
  487MOL0     H64231   7.849  12.133   6.475  1.5091  0.0609 -0.6993
  487MOL0     H64232   7.965  12.175   6.610 -0.6728  0.1118  0.6360
  487MOL0     H64233   7.734  11.962   6.633  1.2166  0.7958 -1.8708
  487MOL0     H64234   7.866  11.968   6.741 -2.4770 -0.8867  1.7348
  487MOL0     H64235   7.784  12.217   6.789 -1.0466  1.6834 -1.1166
  487MOL0     H64236   7.662  12.094   6.812 -3.2187  1.6520 -0.8089
  487MOL0     H64237   7.479  12.102   6.643  0.8084  0.9743  3.1589
  487MOL0     H64238   7.354  12.162   6.388  1.3692  0.0845 -4.0835
  487MOL0     H64239   7.401  12.330   6.331  0.5284 -1.6064 -0.7551
  487MOL0     H64240   7.280  12.440   6.502 -0.1525  2.2606 -4.4968
  487MOL0     H64241   7.236  12.291   6.578 -2.0856 -1.6489 -0.7237
  487MOL0     H64242   7.162  12.392   6.297 -0.8222  2.7107  2.3718
  487MOL0     H64243   7.145  12.219   6.346  0.2763 -0.1871  0.1415
  487MOL0     H64244   7.026  12.456   6.475 -2.3709 -0.1237  1.6310
  487MOL0     H64245   6.998  12.284   6.528  0.7629  0.3854  1.7925
  487MOL0     H64246   6.711  12.179   6.337 -3.1190 -0.4308 -0.2490
  487MOL0     H64247   6.481  12.249   6.350 -1.0165  0.7887 -0.1829
  487MOL0     H64248   6.243  12.545   6.635  1.4187 -1.1490 -0.2880
  487MOL0     H64249   6.028  12.607   6.716  2.4482 -4.8567  3.4098
  487MOL0     H64250   5.682  12.390   6.580 -1.0521 -0.8091  0.0655
  487MOL0     H64251   5.650  12.545   6.494  0.4917 -1.7072 -1.1350
  487MOL0     H64252   5.592  12.657   6.709 -1.5217  1.1864 -1.1594
  487MOL0     H64253   5.577  12.516   6.796 -1.4546  0.7721  0.4163
  487MOL0     H64254   5.412  12.423   6.645  0.7635 -0.4828 -1.7367
  487MOL0     H64255   5.436  12.556   6.538 -1.7389 -3.6791 -0.2971
  487MOL0     H64256   5.333  12.571   6.819  0.9783  0.9230 -0.3673
  487MOL0     H64257   5.335  12.712   6.730 -0.5331 -0.4987  0.8064
  487MOL0     H64258   5.160  12.474   6.633  1.7789 -0.0486  0.5006
  487MOL0     H64259   5.168  12.623   6.558  0.5876 -0.2499  0.6718
  487MOL0     H64260   5.107  12.723   6.789 -1.7461 -0.7424  2.1467
  487MOL0     H64261   5.072  12.553   6.843 -1.4498  0.9551  1.4680
  487MOL0     H64262   4.944  12.688   6.595 -2.3259  1.9279  1.3382
  487MOL0     H64263   4.914  12.520   6.654  0.2824 -0.4410 -1.6363
  487MOL0     H64264   4.862  12.782   6.814  2.0404 -1.6024  1.5274
  487MOL0     H64265   4.787  12.618   6.843 -1.5925  4.0504  1.5742
  487MOL0     H64266   5.830  12.434   6.366 -0.1422  1.0374 -0.2075
  487MOL0     H64267   6.059  12.376   6.280 -0.5963  2.7496 -1.2037
  487MOL0     H64268   6.630  12.658   6.410  0.0910  0.2104  1.3250
  487MOL0     H64269   6.861  12.577   6.399  0.4954  0.8267 -0.9550
  487MOL0     H64270   8.179  11.257   6.486  0.5212 -1.3138  0.4900
  487MOL0     H64271   8.346  11.101   6.405  2.9193 -1.8175  3.6495
  487MOL0     H64272   8.692  11.111   5.968  2.2384  1.2372 -0.4154
  487MOL0     H64273   8.873  10.993   5.873 -1.2859 -2.8057 -0.7915
  487MOL0     H64274   9.138  10.640   5.999  2.6894  0.7402  0.1121
  487MOL0     H64275   9.038  10.663   6.147  4.0782  0.1446  3.2805
  487MOL0     H64276   9.277  10.807   6.066  1.5558 -0.7566  0.4302
  487MOL0     H64277   9.160  10.858   6.197  0.7903  0.9081 -0.7398
  487MOL0     H64278   9.313  10.592   6.204 -0.1053  0.3669 -0.1802
  487MOL0     H64279   9.187  10.658   6.318 -1.4935 -0.6612 -2.3587
  487MOL0     H64280   9.463  10.754   6.288 -0.3488  0.6235 -0.3398
  487MOL0     H64281   9.331  10.851   6.355 -2.3231 -0.3542 -0.0492
  487MOL0     H64282   9.409  10.591   6.679  2.8168 -2.7189 -0.7199
  487MOL0     H64283   8.954  10.815   6.263 -2.0944  0.3029  1.6028
  487MOL0     H64284   8.772  10.950   6.351 -1.8888 -1.2301 -1.5373
  488MOL0     O64285   6.187   3.469   4.886  0.4553  1.0227 -0.7803
  488MOL0     C64286   6.291   3.526   4.855  0.6423 -0.1065 -0.0814
  488MOL0     O64287   6.303   3.634   4.777 -0.0047 -0.1913  0.2711
  488MOL0     C64288   6.184   3.702   4.762 -0.2998 -0.2416  1.0328
  488MOL0     C64289   6.116   3.723   4.640 -0.4175  0.3696  0.8169
  488MOL0     C64290   5.998   3.792   4.629  0.6519  0.5274  0.5227
  488MOL0     C64291   5.932   3.853   4.734  0.1614 -0.3565 -0.0920
  488MOL0     O64292   5.808   3.912   4.736  0.2569 -0.3395  0.4907
  488MOL0     C64293   5.711   3.846   4.650 -0.1354 -0.2053 -0.6138
  488MOL0     C64294   5.562   3.848   4.709  0.0610  0.1807 -0.6765
  488MOL0     C64295   5.464   3.766   4.629 -0.1003 -0.6075 -0.0213
  488MOL0     C64296   5.323   3.752   4.689  0.4866 -0.0459  0.0344
  488MOL0     C64297   5.227   3.686   4.593 -1.0634 -0.0002 -0.0832
  488MOL0     C64298   5.085   3.685   4.636  0.0700  0.0712  0.8741
  488MOL0     C64299   5.015   3.816   4.677  0.4389 -0.0929  0.1427
  488MOL0     C64300   4.872   3.789   4.733 -0.4463  0.2365 -0.1464
  488MOL0     N64301   4.794   3.717   4.631 -0.4090  0.0232 -0.1410
  488MOL0     C64302   4.726   3.769   4.523 -0.4839  0.1404 -0.4730
  488MOL0     C64303   4.677   3.663   4.458  0.0284  0.6181 -0.9642
  488MOL0     C64304   4.620   3.644   4.330 -0.7259 -0.0862  0.5008
  488MOL0     C64305   4.532   3.761   4.275  0.4841 -0.3077 -0.7097
  488MOL0     C64306   4.434   3.827   4.379  0.5352 -0.3552 -0.1925
  488MOL0     C64307   4.319   3.742   4.407 -0.5670 -0.4665 -0.1929
  488MOL0     O64308   4.250   3.687   4.287 -0.5344  0.3787 -0.1638
  488MOL0     C64309   4.149   3.765   4.240 -0.1521 -0.7152 -0.4090
  488MOL0     C64310   4.018   3.716   4.248 -0.4154 -0.5519 -0.4804
  488MOL0     C64311   3.917   3.788   4.190  0.0295  0.4212  0.4152
  488MOL0     C64312   3.944   3.910   4.127 -0.0552 -0.7207  0.3937
  488MOL0     C64313   3.837   3.984   4.072  0.1290 -0.6232 -0.4649
  488MOL0     O64314   3.732   3.906   4.022 -0.9796  0.5113 -0.2324
  488MOL0     C64315   3.614   3.961   3.980 -0.5698 -0.2860  0.0325
  488MOL0     C64316   3.549   4.074   4.021 -0.0155  0.1937 -0.2504
  488MOL0     C64317   3.426   4.110   3.968 -0.6007 -0.3162  0.6056
  488MOL0     C64318   3.365   4.036   3.868  0.5637  0.1804 -0.0402
  488MOL0     O64319   3.245   4.091   3.812 -0.0437  0.2224 -0.0498
  488MOL0     C64320   3.216   4.062   3.675  0.4745 -0.2898  0.7852
  488MOL0     C64321   3.100   4.149   3.625 -0.9171 -0.6288 -0.0817
  488MOL0     C64322   2.987   4.145   3.731  0.1375 -0.0375 -0.0790
  488MOL0     C64323   2.856   4.201   3.664  0.5111  0.0316  0.5390
  488MOL0     C64324   2.733   4.190   3.756 -0.7510 -0.0988  0.0124
  488MOL0     C64325   2.633   4.298   3.713 -0.3776 -0.5100 -0.1195
  488MOL0     C64326   2.510   4.299   3.800 -0.0521 -1.3032  0.8804
  488MOL0     C64327   2.407   4.406   3.764 -0.1686 -0.0393 -0.1149
  488MOL0    Cl64328   2.345   4.386   3.596  0.1369  0.0235  0.2708
  488MOL0     C64329   3.439   3.933   3.816 -0.8212 -0.1346 -0.3537
  488MOL0     C64330   3.561   3.894   3.873  0.8459 -0.5969 -1.0526
  488MOL0     O64331   3.839   4.108   4.058 -0.1933 -0.5563  0.2873
  488MOL0     C64332   4.076   3.956   4.112 -0.0093  0.0406 -0.0048
  488MOL0     C64333   4.175   3.879   4.167 -1.0694 -0.2556 -0.4036
  488MOL0     N64334   4.697   3.555   4.541  0.7469  0.4779  0.0853
  488MOL0     N64335   4.774   3.587   4.635 -0.0578  0.1746  0.7722
  488MOL0     C64336   6.005   3.845   4.848 -0.5453 -0.3764 -0.9844
  488MOL0     C64337   6.122   3.778   4.860 -0.4245  0.0856  0.0555
  488MOL0     C64338   6.417   3.456   4.900  0.0844  0.0459  0.1454
  488MOL0     C64339   6.543   3.529   4.890  0.0696  0.1211 -0.1402
  488MOL0     C64340   6.657   3.469   4.936  0.4365 -0.2772 -0.2077
  488MOL0     C64341   6.658   3.337   4.985 -1.1313  0.3271 -0.0673
  488MOL0     O64342   6.786   3.288   5.020 -0.1583 -0.1460 -0.2494
  488MOL0     C64343   6.809   3.147   5.050  0.5844 -0.1588 -0.4009
  488MOL0     C64344   6.947   3.106   5.097 -0.6247 -0.0540 -0.1563
  488MOL0     C64345   7.064   3.193   5.039  0.3918  0.4457 -0.1288
  488MOL0     C64346   7.141   3.290   5.121  0.0830 -0.5465 -0.4744
  488MOL0     C64347   7.279   3.295   5.078 -0.3996 -0.2663 -0.4266
  488MOL0     C64348   7.397   3.314   5.063  0.0797 -1.1767  0.0118
  488MOL0     C64349   6.540   3.270   4.997 -0.2080 -0.0824 -0.3107
  488MOL0     C64350   6.415   3.322   4.958 -0.0848 -1.1610 -0.8156
  488MOL0     H64351   6.159   3.673   4.554 -1.4484  1.4742 -0.3947
  488MOL0     H64352   5.943   3.791   4.535  3.7897 -1.2614 -1.5006
  488MOL0     H64353   5.745   3.742   4.646  0.2587 -0.0787 -0.6426
  488MOL0     H64354   5.722   3.887   4.549  0.8118  0.2844 -0.3307
  488MOL0     H64355   5.544   3.955   4.721  2.0271  0.5726 -0.7632
  488MOL0     H64356   5.563   3.800   4.807  0.1624 -2.8926 -2.0642
  488MOL0     H64357   5.506   3.674   4.587 -0.5780 -0.0260 -1.8784
  488MOL0     H64358   5.450   3.817   4.533 -1.2832 -1.4262 -0.3043
  488MOL0     H64359   5.315   3.691   4.779  0.9515  0.6077  0.5278
  488MOL0     H64360   5.281   3.849   4.715 -0.7457  0.0128 -1.9287
  488MOL0     H64361   5.265   3.587   4.566 -2.0271  0.1835 -2.3584
  488MOL0     H64362   5.245   3.741   4.500  0.0723  0.3377  0.3197
  488MOL0     H64363   5.090   3.625   4.727  1.3625 -0.5828  0.3962
  488MOL0     H64364   5.028   3.636   4.556  0.5256  0.5442  0.2463
  488MOL0     H64365   5.075   3.867   4.752  1.0514 -2.7330  1.5911
  488MOL0     H64366   5.005   3.891   4.598  2.2450  1.3515  1.2058
  488MOL0     H64367   4.824   3.885   4.755 -0.6530  0.1060 -0.0318
  488MOL0     H64368   4.893   3.736   4.826 -0.6689 -0.6987 -0.6163
  488MOL0     H64369   4.733   3.876   4.503 -2.2955  0.1200 -1.3600
  488MOL0     H64370   4.566   3.550   4.319 -1.4674  0.5221 -1.5035
  488MOL0     H64371   4.704   3.628   4.262 -1.0333  3.7043 -1.0407
  488MOL0     H64372   4.479   3.737   4.183 -0.6432 -1.9277  0.3048
  488MOL0     H64373   4.592   3.847   4.245 -1.7002  0.9445 -1.7877
  488MOL0     H64374   4.488   3.863   4.467  0.2978  0.7250 -0.4784
  488MOL0     H64375   4.394   3.916   4.329  1.3946 -0.3311 -0.8581
  488MOL0     H64376   4.253   3.812   4.460  0.3952 -0.8381  1.5808
  488MOL0     H64377   4.342   3.657   4.472  1.2467  0.5693  0.6106
  488MOL0     H64378   4.000   3.613   4.275  2.1020 -1.7606 -2.8998
  488MOL0     H64379   3.817   3.748   4.176  0.3306 -0.2257  0.0810
  488MOL0     H64380   3.593   4.139   4.096  0.9452  1.5122 -1.8707
  488MOL0     H64381   3.380   4.199   4.009  0.4217  0.3110  0.4271
  488MOL0     H64382   3.197   3.957   3.654  2.1435 -0.3620 -0.6274
  488MOL0     H64383   3.303   4.087   3.614  0.9414 -1.2458  1.0440
  488MOL0     H64384   3.056   4.111   3.532 -0.5629 -1.1855 -0.0242
  488MOL0     H64385   3.119   4.254   3.600 -1.0285 -0.5434  0.1871
  488MOL0     H64386   3.005   4.205   3.820 -1.9041  1.9824 -0.9225
  488MOL0     H64387   2.969   4.045   3.771 -3.6228  0.8808  0.8755
  488MOL0     H64388   2.868   4.299   3.617 -0.7898 -0.8630 -1.8904
  488MOL0     H64389   2.835   4.137   3.577 -1.7089  2.1308 -0.6005
  488MOL0     H64390   2.765   4.224   3.855 -2.7929  4.7710 -0.6879
  488MOL0     H64391   2.687   4.091   3.761 -0.2308 -0.3064  0.7960
  488MOL0     H64392   2.612   4.294   3.605 -0.8005 -0.7689 -0.0302
  488MOL0     H64393   2.690   4.389   3.730  0.3330 -1.1403  0.9801
  488MOL0     H64394   2.473   4.196   3.798 -1.8584 -0.6897 -0.7294
  488MOL0     H64395   2.541   4.331   3.900 -0.1492  1.8300  0.0108
  488MOL0     H64396   2.458   4.503   3.771  0.1121  0.0095 -2.3426
  488MOL0     H64397   2.321   4.403   3.832  1.2689  0.0720  1.8011
  488MOL0     H64398   3.414   3.881   3.723  0.4323 -1.6327  0.1123
  488MOL0     H64399   3.623   3.808   3.847 -0.6907 -1.4403 -2.1095
  488MOL0     H64400   4.100   4.046   4.057  1.0922  0.9184  1.8118
  488MOL0     H64401   4.276   3.916   4.156 -0.0203 -1.9429  2.4442
  488MOL0     H64402   5.972   3.891   4.942 -0.0125  0.5073 -1.2221
  488MOL0     H64403   6.168   3.791   4.958 -2.7110 -2.3934  1.6043
  488MOL0     H64404   6.546   3.632   4.855  0.8271  0.0796 -0.2054
  488MOL0     H64405   6.746   3.531   4.937 -0.3500  0.8846  0.8666
  488MOL0     H64406   6.786   3.094   4.957  0.1852  0.9393 -0.9445
  488MOL0     H64407   6.725   3.107   5.107 -0.5733  0.1241 -1.8402
  488MOL0     H64408   6.961   3.111   5.206 -2.9530  0.7581  0.1503
  488MOL0     H64409   6.967   3.002   5.069  3.4614 -0.1585  2.2454
  488MOL0     H64410   7.020   3.237   4.948 -1.8350 -0.3757  0.4712
  488MOL0     H64411   7.139   3.125   5.001  0.6619 -0.0989  1.3148
  488MOL0     H64412   7.107   3.394   5.114 -1.7408 -0.7557  3.0270
  488MOL0     H64413   7.127   3.264   5.226 -0.7238  0.7236 -0.2426
  488MOL0     H64414   7.504   3.323   5.063  0.3318 -2.8416  3.1220
  488MOL0     H64415   6.561   3.170   5.032 -1.4398 -0.8127 -1.5454
  488MOL0     H64416   6.318   3.274   4.973  0.4665 -1.9939  0.2066
  489MOL0     O64417   2.140   0.070   8.777  0.5712  0.6236  0.4366
  489MOL0     C64418   2.233   0.029   8.709 -0.5401  0.1527  0.1957
  489MOL0     O64419   2.233  -0.072   8.619  0.0404  0.7474  0.3691
  489MOL0     C64420   2.112  -0.126   8.577  0.5427 -0.1464 -0.1763
  489MOL0     C64421   2.122  -0.256   8.526 -0.2994 -0.9903 -0.3225
  489MOL0     C64422   2.019  -0.323   8.458 -0.0020  0.0961  0.2361
  489MOL0     C64423   1.885  -0.259   8.470  0.5898 -0.8870 -0.3777
  489MOL0     O64424   1.778  -0.334   8.417  0.3060  0.1290  0.3546
  489MOL0     C64425   1.652  -0.302   8.464  1.0755 -0.7200 -0.1940
  489MOL0     C64426   1.541  -0.405   8.421  0.5158 -0.2738 -0.6021
  489MOL0     C64427   1.437  -0.327   8.340  0.9987  0.8330  0.1333
  489MOL0     C64428   1.308  -0.429   8.306  0.0018  0.8472  0.9435
  489MOL0     C64429   1.222  -0.381   8.194  0.3343 -0.7754  0.8859
  489MOL0     C64430   1.103  -0.487   8.164  0.0666  0.2672 -0.3973
  489MOL0     C64431   1.038  -0.466   8.034  0.7591 -1.6943 -0.3282
  489MOL0     C64432   0.937  -0.580   8.014 -0.0784  0.1475  0.4781
  489MOL0     N64433   0.880  -0.585   7.877  1.0306  0.2678  0.3502
  489MOL0     C64434   0.828  -0.480   7.797  0.7451  0.3070  0.5233
  489MOL0     C64435   0.764  -0.534   7.689 -0.2023  0.4286  0.2865
  489MOL0     C64436   0.679  -0.454   7.584  0.7702 -0.2522 -0.4326
  489MOL0     C64437   0.521  -0.488   7.582 -0.2997 -0.0854  0.6385
  489MOL0     C64438   0.507  -0.639   7.584  0.4894 -0.7249 -0.2850
  489MOL0     C64439   0.367  -0.699   7.542  0.2303  0.2134  0.3660
  489MOL0     O64440   0.321  -0.628   7.425 -0.4185  0.1521  0.6665
  489MOL0     C64441   0.188  -0.646   7.394  0.0688  1.3008  0.9251
  489MOL0     C64442   0.077  -0.684   7.482  0.2051  0.7138  0.4501
  489MOL0     C64443  -0.054  -0.701   7.429 -0.1222 -0.1836  0.4687
  489MOL0     C64444  -0.076  -0.660   7.300 -0.5007 -0.4324  0.8241
  489MOL0     C64445  -0.208  -0.684   7.236  0.7566 -0.2742 -0.2675
  489MOL0     O64446  -0.315  -0.745   7.316 -0.2239  0.0872  0.3828
  489MOL0     C64447  -0.437  -0.781   7.265  0.4274 -0.0888 -0.1293
  489MOL0     C64448  -0.455  -0.868   7.155 -0.4776 -0.7546 -0.1644
  489MOL0     C64449  -0.576  -0.901   7.104  1.3693 -1.0007  0.0329
  489MOL0     C64450  -0.698  -0.850   7.162  0.1498  0.1941  0.0436
  489MOL0     O64451  -0.817  -0.878   7.106  0.2502 -0.0729  0.0614
  489MOL0     C64452  -0.936  -0.858   7.192 -0.3025  0.8679  0.2754
  489MOL0     C64453  -1.049  -0.950   7.135  0.4997 -0.3994  0.5028
  489MOL0     C64454  -1.184  -0.921   7.196  0.6161  0.4269 -0.4487
  489MOL0     C64455  -1.292  -1.018   7.150  0.2175  0.4045  0.0083
  489MOL0     C64456  -1.420  -0.994   7.229 -0.1960 -0.7313 -0.0810
  489MOL0     C64457  -1.532  -1.083   7.161 -0.4423 -0.7189 -0.4465
  489MOL0     C64458  -1.652  -1.126   7.247  1.3143 -0.1607  0.5815
  489MOL0     C64459  -1.745  -1.019   7.301  1.1218  0.1699 -0.1188
  489MOL0    Cl64460  -1.826  -0.938   7.151 -0.0094 -0.2179 -0.3885
  489MOL0     C64461  -0.685  -0.766   7.276 -0.2102  0.5242  0.4701
  489MOL0     C64462  -0.556  -0.733   7.323  0.0010 -0.2723 -0.8550
  489MOL0     O64463  -0.221  -0.680   7.116  0.1985 -0.1183 -0.1801
  489MOL0     C64464   0.026  -0.607   7.228  1.3895  0.9597  1.1281
  489MOL0     C64465   0.154  -0.603   7.269 -0.1733 -0.0328  0.1256
  489MOL0     N64466   0.787  -0.669   7.702  0.5987 -0.1852  0.4011
  489MOL0     N64467   0.857  -0.701   7.805 -1.1348  0.2573  0.0390
  489MOL0     C64468   1.873  -0.134   8.522 -0.6716  0.6466  0.6013
  489MOL0     C64469   1.985  -0.061   8.567 -1.2453  0.9662  0.3182
  489MOL0     C64470   2.363   0.090   8.725  0.1488  0.6100 -0.4531
  489MOL0     C64471   2.460   0.102   8.620  0.3656  0.5483  0.0734
  489MOL0     C64472   2.585   0.166   8.649 -0.6391 -1.0175 -0.1136
  489MOL0     C64473   2.618   0.224   8.769 -0.7542  1.0999  0.7215
  489MOL0     O64474   2.744   0.277   8.793 -0.1460 -1.1755  0.0332
  489MOL0     C64475   2.866   0.203   8.785 -0.3120 -0.4294  0.5627
  489MOL0     C64476   2.977   0.274   8.707  0.0389  0.9245 -0.4097
  489MOL0     C64477   3.112   0.199   8.717  0.4365 -0.1768 -0.3129
  489MOL0     C64478   3.207   0.275   8.814 -0.0463  0.1915  0.0802
  489MOL0     C64479   3.153   0.261   8.952  1.0360  0.4232  0.8583
  489MOL0     C64480   3.097   0.246   9.059  0.8584 -0.3277 -0.2087
  489MOL0     C64481   2.522   0.213   8.871 -0.1958  0.2988  0.5052
  489MOL0     C64482   2.403   0.149   8.851  0.0398 -0.3889 -0.0145
  489MOL0     H64483   2.218  -0.307   8.527  0.5073  0.4925 -0.2386
  489MOL0     H64484   2.045  -0.414   8.406 -1.1614  0.9394 -1.9349
  489MOL0     H64485   1.623  -0.203   8.428 -0.5886 -0.7603  0.9545
  489MOL0     H64486   1.645  -0.300   8.573 -2.3494 -3.0010 -0.2118
  489MOL0     H64487   1.492  -0.446   8.509  0.8270  1.7578  0.5786
  489MOL0     H64488   1.577  -0.491   8.364 -2.2029 -1.9485  0.0416
  489MOL0     H64489   1.478  -0.318   8.239  1.4474 -3.3651 -0.2294
  489MOL0     H64490   1.400  -0.235   8.387 -0.8289 -0.3855  1.1938
  489MOL0     H64491   1.354  -0.526   8.283  2.8484  2.7190 -2.0810
  489MOL0     H64492   1.253  -0.443   8.400  1.1626  0.3113  1.5622
  489MOL0     H64493   1.284  -0.362   8.106  0.5843  0.8929  1.3911
  489MOL0     H64494   1.169  -0.289   8.218 -1.3605 -1.7682  1.1276
  489MOL0     H64495   1.026  -0.502   8.241  0.7320 -0.0900  0.2147
  489MOL0     H64496   1.158  -0.581   8.160 -0.6495 -0.2064  0.5808
  489MOL0     H64497   0.990  -0.368   8.039 -1.3592 -2.7220  1.2229
  489MOL0     H64498   1.111  -0.466   7.953  0.7457  0.9793 -0.4043
  489MOL0     H64499   0.857  -0.591   8.088  0.1228  1.4076  0.9022
  489MOL0     H64500   0.995  -0.672   8.030  1.9912  1.1918 -0.5494
  489MOL0     H64501   0.828  -0.374   7.822 -0.2700  0.1025  1.4483
  489MOL0     H64502   0.730  -0.458   7.487  3.2319 -0.8343  0.8178
  489MOL0     H64503   0.684  -0.348   7.608  0.7878 -0.1257 -0.9734
  489MOL0     H64504   0.479  -0.444   7.492 -1.8092  1.9736  2.2411
  489MOL0     H64505   0.474  -0.450   7.673  0.2521 -2.1074  1.8208
  489MOL0     H64506   0.575  -0.694   7.519  1.2025  3.2024 -3.2542
  489MOL0     H64507   0.526  -0.677   7.684  1.7477 -1.1297 -0.6570
  489MOL0     H64508   0.290  -0.688   7.619 -1.3407 -0.5131 -1.0479
  489MOL0     H64509   0.380  -0.805   7.519 -0.0670  0.3246 -0.3468
  489MOL0     H64510   0.100  -0.718   7.582  1.7889 -1.0486 -0.4293
  489MOL0     H64511  -0.138  -0.732   7.491 -1.6229  1.7099 -0.4774
  489MOL0     H64512  -0.365  -0.916   7.117  0.3529 -1.8474  2.8448
  489MOL0     H64513  -0.570  -0.984   7.034 -0.5133 -0.1416 -1.2392
  489MOL0     H64514  -0.962  -0.752   7.184 -1.0592  0.5323 -3.3685
  489MOL0     H64515  -0.906  -0.882   7.295  1.2597  3.7388  0.6039
  489MOL0     H64516  -1.014  -1.052   7.153 -1.5327 -1.3472 -0.5606
  489MOL0     H64517  -1.052  -0.930   7.028 -0.3712  6.0562  1.3374
  489MOL0     H64518  -1.216  -0.818   7.177 -1.0200 -0.1892 -1.1666
  489MOL0     H64519  -1.168  -0.947   7.301 -0.4449 -1.1622 -0.6513
  489MOL0     H64520  -1.304  -1.011   7.042  0.0840 -2.4417 -0.2381
  489MOL0     H64521  -1.241  -1.113   7.164  3.2737  1.8967 -0.1562
  489MOL0     H64522  -1.451  -0.891   7.247 -0.2058 -0.7173 -0.1792
  489MOL0     H64523  -1.413  -1.031   7.331 -1.0044 -1.0867 -0.1414
  489MOL0     H64524  -1.489  -1.175   7.121  0.1401 -0.1611 -1.1384
  489MOL0     H64525  -1.573  -1.037   7.071  0.6162 -1.6900 -1.4510
  489MOL0     H64526  -1.703  -1.198   7.181  0.7272  1.2691 -0.5846
  489MOL0     H64527  -1.625  -1.189   7.332 -0.2178 -0.2148  1.0669
  489MOL0     H64528  -1.687  -0.945   7.356 -0.4033  0.6385  0.9415
  489MOL0     H64529  -1.822  -1.045   7.375  0.1522  0.5909 -0.9427
  489MOL0     H64530  -0.771  -0.709   7.311 -0.0215  0.6003  0.8052
  489MOL0     H64531  -0.553  -0.656   7.399 -3.9763 -1.4460  0.7582
  489MOL0     H64532   0.017  -0.592   7.121  0.4845 -6.1803 -0.3394
  489MOL0     H64533   0.224  -0.564   7.196 -2.7058  1.9636 -1.3781
  489MOL0     H64534   1.781  -0.079   8.505 -1.6141 -1.6768 -2.7392
  489MOL0     H64535   1.976   0.040   8.604  0.4873  0.7333  1.5041
  489MOL0     H64536   2.448   0.070   8.517  2.2583  0.9910 -0.3063
  489MOL0     H64537   2.660   0.174   8.571  0.4824 -0.2477  1.0063
  489MOL0     H64538   2.854   0.100   8.750 -1.3509  0.4772 -1.9992
  489MOL0     H64539   2.898   0.187   8.888 -2.4907 -1.5247  1.1045
  489MOL0     H64540   2.944   0.278   8.602  2.4115  0.3885 -1.2303
  489MOL0     H64541   2.985   0.377   8.743 -1.3620  1.3793 -1.3142
  489MOL0     H64542   3.158   0.211   8.618 -0.6235  4.0359 -0.5014
  489MOL0     H64543   3.096   0.092   8.728  1.7717 -0.1123  4.3636
  489MOL0     H64544   3.307   0.232   8.805  0.4983  1.7463 -2.2914
  489MOL0     H64545   3.224   0.379   8.784  1.1412 -0.9377 -3.6602
  489MOL0     H64546   3.059   0.236   9.159  0.6812 -1.2329 -0.3589
  489MOL0     H64547   2.542   0.244   8.974 -0.4540  0.3730  0.5337
  489MOL0     H64548   2.330   0.143   8.932 -0.9648  1.4633 -0.7227
  490MOL0     O64549   9.066   7.954   7.895 -0.4855  0.2194 -0.1087
  490MOL0     C64550   9.105   7.887   7.803 -0.5369  1.0980 -0.0637
  490MOL0     O64551   9.018   7.842   7.709 -0.6896  0.2468  0.1641
  490MOL0     C64552   8.894   7.883   7.698  0.3527  0.7916 -0.1684
  490MOL0     C64553   8.833   8.012   7.731  0.3613  0.3931  0.0614
  490MOL0     C64554   8.691   8.019   7.737 -0.1528  0.3631  0.2418
  490MOL0     C64555   8.610   7.912   7.715 -0.3007 -0.2542  0.5832
  490MOL0     O64556   8.473   7.926   7.734 -0.0744 -0.3444 -0.3307
  490MOL0     C64557   8.397   7.880   7.620 -0.3883  0.5426 -0.3377
  490MOL0     C64558   8.313   7.753   7.667 -0.0245 -0.9440  0.4528
  490MOL0     C64559   8.199   7.723   7.563 -1.1978 -0.2850  1.0721
  490MOL0     C64560   8.077   7.826   7.562  0.2361  0.0992 -0.2857
  490MOL0     C64561   7.945   7.776   7.506 -0.3841 -0.1510  0.2553
  490MOL0     C64562   7.864   7.701   7.603 -0.0501 -0.5641  0.2627
  490MOL0     C64563   7.725   7.640   7.553 -0.7580 -0.6488 -0.8973
  490MOL0     C64564   7.629   7.757   7.546 -0.5075 -0.4260 -0.7397
  490MOL0     N64565   7.503   7.713   7.490 -0.0690 -0.0472 -0.1996
  490MOL0     C64566   7.420   7.616   7.557 -0.0805 -1.0050  0.1836
  490MOL0     C64567   7.321   7.588   7.464  0.1536  0.0098 -0.4113
  490MOL0     C64568   7.227   7.476   7.475 -0.5352  0.6295  0.5090
  490MOL0     C64569   7.213   7.402   7.335  0.2903 -1.1008 -0.0063
  490MOL0     C64570   7.095   7.294   7.343 -0.4051 -0.0191 -0.1364
  490MOL0     C64571   6.964   7.359   7.367  0.2931  0.3421 -0.1704
  490MOL0     O64572   6.875   7.288   7.279 -0.5528  0.1612  0.4738
  490MOL0     C64573   6.735   7.299   7.299 -0.6360  0.6427  0.3735
  490MOL0     C64574   6.651   7.220   7.225  1.1187 -0.1205  0.3524
  490MOL0     C64575   6.511   7.221   7.242  0.6178 -0.7680 -0.7950
  490MOL0     C64576   6.458   7.320   7.328 -0.6081  0.0003  0.4566
  490MOL0     C64577   6.315   7.340   7.330  0.3310 -0.5446 -0.8141
  490MOL0     O64578   6.241   7.235   7.303 -0.2979  0.4493 -0.1141
  490MOL0     C64579   6.113   7.251   7.321  0.6746 -0.3241  0.3646
  490MOL0     C64580   6.053   7.238   7.195  0.2284 -0.0940 -0.2736
  490MOL0     C64581   5.920   7.246   7.174  0.1581  0.3631  0.9251
  490MOL0     C64582   5.835   7.261   7.288 -0.4092 -1.4087 -0.2452
  490MOL0     O64583   5.698   7.262   7.289  0.0531  0.6109  0.0982
  490MOL0     C64584   5.636   7.258   7.156  0.1185  0.2792  0.0876
  490MOL0     C64585   5.484   7.233   7.186  0.1611  0.6800 -0.1643
  490MOL0     C64586   5.401   7.240   7.058  0.3409  0.3740  0.5999
  490MOL0     C64587   5.259   7.212   7.095  0.1095  0.0680  0.4073
  490MOL0     C64588   5.157   7.261   6.980 -0.5835  0.5663 -0.2960
  490MOL0     C64589   5.021   7.213   7.030  0.3183  0.6899  0.4493
  490MOL0     C64590   4.906   7.235   6.923 -0.4044 -0.2661 -0.2729
  490MOL0     C64591   4.782   7.148   6.941  0.3778  0.0722 -0.2099
  490MOL0    Cl64592   4.687   7.182   7.092 -0.0720 -0.3549 -0.1500
  490MOL0     C64593   5.902   7.278   7.412  0.5785 -0.2324 -0.3164
  490MOL0     C64594   6.035   7.275   7.435 -0.7438  0.9656 -0.2660
  490MOL0     O64595   6.271   7.454   7.359  0.0039  0.0328  0.2800
  490MOL0     C64596   6.537   7.419   7.393 -0.3840  0.3117 -0.1610
  490MOL0     C64597   6.674   7.406   7.373 -0.4844 -0.1387 -0.1006
  490MOL0     N64598   7.341   7.681   7.353 -0.0671  0.3407 -0.5684
  490MOL0     N64599   7.445   7.757   7.380  0.2625  0.6962  0.1902
  490MOL0     C64600   8.667   7.787   7.677 -0.1188 -0.8990 -0.0713
  490MOL0     C64601   8.807   7.773   7.672  0.3290  0.4453  0.0801
  490MOL0     C64602   9.246   7.841   7.812  1.3981 -0.7677 -0.0840
  490MOL0     C64603   9.283   7.719   7.749  0.3641  0.6531 -0.8628
  490MOL0     C64604   9.403   7.664   7.765  0.6316 -0.6322 -0.1702
  490MOL0     C64605   9.502   7.726   7.853  0.3088 -0.0904 -0.6325
  490MOL0     O64606   9.631   7.683   7.841  0.6476  0.0892 -0.3821
  490MOL0     C64607   9.738   7.735   7.934  0.2126 -0.3921  0.0752
  490MOL0     C64608   9.823   7.859   7.877 -0.1673 -0.2785 -0.2230
  490MOL0     C64609   9.922   7.792   7.777  0.0659 -0.1386  0.7345
  490MOL0     C64610  10.040   7.881   7.762  0.6525 -0.2116 -0.1119
  490MOL0     C64611  10.012   8.015   7.703  0.8920  0.0278  0.7682
  490MOL0     C64612   9.981   8.127   7.675  0.1055 -0.2365 -0.4115
  490MOL0     C64613   9.465   7.852   7.917  0.2165  0.1316  0.1798
  490MOL0     C64614   9.337   7.899   7.906  0.3343 -0.5068  1.1763
  490MOL0     H64615   8.898   8.096   7.751 -0.9952  1.8230 -1.1970
  490MOL0     H64616   8.656   8.118   7.763 -1.0521 -0.4839  2.5252
  490MOL0     H64617   8.463   7.850   7.539 -1.2757  0.3008 -0.9922
  490MOL0     H64618   8.338   7.965   7.584 -1.0819  1.0990  1.9434
  490MOL0     H64619   8.267   7.789   7.760 -0.9479 -0.4604 -0.1676
  490MOL0     H64620   8.374   7.665   7.685  1.2394  0.1617  1.8812
  490MOL0     H64621   8.156   7.626   7.591 -0.0526 -0.8219  1.0418
  490MOL0     H64622   8.254   7.726   7.468  1.2906  5.2687  2.3104
  490MOL0     H64623   8.066   7.868   7.663  0.1834  0.1614 -0.3173
  490MOL0     H64624   8.112   7.909   7.501  0.6090 -0.4882 -0.8816
  490MOL0     H64625   7.957   7.710   7.419 -1.4850 -0.9279  0.6714
  490MOL0     H64626   7.890   7.859   7.462 -2.2539 -2.5740 -2.3757
  490MOL0     H64627   7.840   7.759   7.692 -3.7790 -0.9625 -0.3330
  490MOL0     H64628   7.926   7.620   7.643 -0.4675 -0.3950  1.2737
  490MOL0     H64629   7.735   7.587   7.458  2.1232 -2.6638  0.4029
  490MOL0     H64630   7.689   7.568   7.627 -1.0290  1.7268  1.4637
  490MOL0     H64631   7.671   7.842   7.492  1.7539  0.4410  2.0999
  490MOL0     H64632   7.611   7.786   7.650 -1.0539 -0.6846 -0.7611
  490MOL0     H64633   7.459   7.556   7.639  2.4103  0.9845  0.5604
  490MOL0     H64634   7.131   7.513   7.512 -2.0980 -3.7562  1.3483
  490MOL0     H64635   7.272   7.407   7.547 -4.4485 -1.5699  1.1135
  490MOL0     H64636   7.308   7.354   7.315  0.2795 -1.1557  0.0734
  490MOL0     H64637   7.198   7.462   7.245  0.5441 -2.2495 -0.8289
  490MOL0     H64638   7.099   7.242   7.247  0.3700  0.3561 -0.3182
  490MOL0     H64639   7.125   7.221   7.419  4.0357  1.6282  0.0186
  490MOL0     H64640   6.960   7.466   7.347 -4.6870 -0.2442 -4.3107
  490MOL0     H64641   6.936   7.349   7.472  0.4633  1.5837  0.0065
  490MOL0     H64642   6.693   7.129   7.184  0.8497  0.1402 -0.5294
  490MOL0     H64643   6.453   7.144   7.191  1.7880 -2.4585  0.3312
  490MOL0     H64644   6.122   7.229   7.111 -0.2509  0.3154 -0.7173
  490MOL0     H64645   5.879   7.244   7.074  0.4258  1.7665  0.7616
  490MOL0     H64646   5.679   7.181   7.092  0.1227  0.4932 -0.1683
  490MOL0     H64647   5.646   7.356   7.109  1.2635  0.0998 -0.0654
  490MOL0     H64648   5.448   7.302   7.262  1.0859  3.5422 -2.1903
  490MOL0     H64649   5.472   7.131   7.225 -1.6480  1.0337  0.3184
  490MOL0     H64650   5.430   7.174   6.975 -0.4061  1.4375 -0.5502
  490MOL0     H64651   5.399   7.346   7.029 -0.1082  0.2462  0.1499
  490MOL0     H64652   5.255   7.103   7.100 -2.2904 -0.0070 -1.5061
  490MOL0     H64653   5.228   7.247   7.194 -1.9922  0.3778 -0.3118
  490MOL0     H64654   5.192   7.213   6.889  3.7384  0.3615  1.2417
  490MOL0     H64655   5.158   7.370   6.971 -1.4521  0.5246 -1.0268
  490MOL0     H64656   4.995   7.258   7.127  0.3189  1.5266  0.0663
  490MOL0     H64657   5.033   7.104   7.036  1.5734  0.8337  0.7469
  490MOL0     H64658   4.889   7.343   6.920  1.9405  0.1359 -1.7791
  490MOL0     H64659   4.947   7.223   6.823  0.8729 -0.0617  0.2117
  490MOL0     H64660   4.809   7.042   6.945 -2.6370 -0.8111  4.2068
  490MOL0     H64661   4.717   7.175   6.858  0.8494  2.9846  0.2605
  490MOL0     H64662   5.839   7.304   7.496  0.3898  1.0230 -0.8222
  490MOL0     H64663   6.069   7.279   7.538  2.6913  2.5034 -1.2876
  490MOL0     H64664   6.506   7.495   7.463  1.7372  1.4578 -0.3721
  490MOL0     H64665   6.734   7.491   7.404  0.2633 -1.1285  1.3137
  490MOL0     H64666   8.592   7.714   7.648 -0.1065 -0.3922 -1.4531
  490MOL0     H64667   8.858   7.683   7.639  2.3866  1.8126 -0.6944
  490MOL0     H64668   9.214   7.684   7.672 -1.0652 -3.2032  1.8630
  490MOL0     H64669   9.419   7.581   7.696 -0.4853 -2.1862  1.3704
  490MOL0     H64670   9.797   7.647   7.962  0.0594 -0.4001  0.3710
  490MOL0     H64671   9.694   7.768   8.028  1.7492  2.2724 -0.0321
  490MOL0     H64672   9.768   7.947   7.841  0.5585  0.6920  0.9549
  490MOL0     H64673   9.884   7.901   7.957 -0.6522 -1.7579  0.9645
  490MOL0     H64674   9.881   7.778   7.676  0.4195 -1.6475  0.7813
  490MOL0     H64675   9.951   7.695   7.817  0.8043  1.5070  4.5786
  490MOL0     H64676  10.090   7.896   7.858 -1.0033 -0.4818  0.8315
  490MOL0     H64677  10.116   7.831   7.701  1.4932  0.6332  0.2047
  490MOL0     H64678   9.957   8.224   7.634 -0.9113  0.1585  1.0380
  490MOL0     H64679   9.535   7.909   7.977  1.8311 -0.1197 -1.3643
  490MOL0     H64680   9.293   7.977   7.968 -4.1757 -3.2884  1.9376
  491MOL0     O64681   6.498   1.513   0.231  0.1088 -0.4704  0.4396
  491MOL0     C64682   6.495   1.558   0.341 -0.0837  0.2354 -0.3179
  491MOL0     O64683   6.422   1.507   0.449 -0.4941  0.3982  0.1449
  491MOL0     C64684   6.324   1.418   0.419  0.6119 -1.0731  0.4212
  491MOL0     C64685   6.357   1.300   0.356  0.5158  0.5187  0.7146
  491MOL0     C64686   6.256   1.207   0.322  0.5871  0.0762  0.2110
  491MOL0     C64687   6.122   1.231   0.351  0.8207  0.2227  0.8364
  491MOL0     O64688   6.026   1.151   0.313  0.2927  0.4626 -0.3010
  491MOL0     C64689   6.034   1.012   0.346 -0.4188 -0.5103  0.9795
  491MOL0     C64690   5.920   0.931   0.280 -0.3860 -0.1249  0.3464
  491MOL0     C64691   5.806   0.905   0.371 -0.3054 -0.1456 -1.0398
  491MOL0     C64692   5.720   0.807   0.307  0.8952 -0.0538 -0.8049
  491MOL0     C64693   5.597   0.774   0.394  0.5518  0.5140  0.0639
  491MOL0     C64694   5.500   0.882   0.405 -0.2709 -0.3181 -0.1782
  491MOL0     C64695   5.381   0.833   0.476  0.4232 -0.2885 -0.4566
  491MOL0     C64696   5.283   0.947   0.505 -0.7346  0.6498  0.8987
  491MOL0     N64697   5.148   0.895   0.524  0.6073 -0.0607 -0.6909
  491MOL0     C64698   5.085   0.870   0.645  0.8312 -0.9241 -0.4376
  491MOL0     C64699   4.959   0.851   0.610  0.4605 -0.5449  0.6532
  491MOL0     C64700   4.846   0.850   0.706 -0.2876 -0.5098 -0.0559
  491MOL0     C64701   4.804   0.708   0.719 -0.0502  1.2482  1.0206
  491MOL0     C64702   4.667   0.682   0.659  0.1240 -0.5258 -0.2977
  491MOL0     C64703   4.652   0.532   0.657  0.6724  0.3474 -0.0905
  491MOL0     O64704   4.667   0.479   0.783  0.4251 -0.4283  0.0169
  491MOL0     C64705   4.559   0.507   0.867 -0.0776 -0.3005  0.2079
  491MOL0     C64706   4.426   0.506   0.838 -0.5937  0.0677  0.6415
  491MOL0     C64707   4.332   0.546   0.938  0.2053 -0.5177 -0.4972
  491MOL0     C64708   4.385   0.561   1.070  0.3013  0.6241  0.0882
  491MOL0     C64709   4.297   0.604   1.175  0.0584  0.0254  0.0386
  491MOL0     O64710   4.338   0.609   1.300 -0.1569 -0.1169  0.6000
  491MOL0     C64711   4.252   0.648   1.399 -0.3072  0.9408 -0.3669
  491MOL0     C64712   4.126   0.570   1.417  0.6972 -0.1580 -0.3443
  491MOL0     C64713   4.037   0.624   1.505 -0.1554 -0.1295 -0.7854
  491MOL0     C64714   4.066   0.728   1.598 -0.2564 -0.6235 -0.1169
  491MOL0     O64715   3.981   0.772   1.694 -0.4294 -0.1706  0.4111
  491MOL0     C64716   3.885   0.670   1.745 -0.1098  0.6617  0.1467
  491MOL0     C64717   3.814   0.737   1.858  0.4769  0.3538 -0.4800
  491MOL0     C64718   3.736   0.644   1.956  0.9001 -0.1493  0.3571
  491MOL0     C64719   3.820   0.583   2.061 -0.0148  0.6827  0.9818
  491MOL0     C64720   3.741   0.491   2.150  0.7440 -0.5455 -0.4999
  491MOL0     C64721   3.835   0.404   2.234  0.3670  0.6367 -0.2497
  491MOL0     C64722   3.762   0.289   2.293  0.3477  1.3134 -0.0970
  491MOL0     C64723   3.838   0.232   2.411 -0.3154 -0.0345  0.4904
  491MOL0    Cl64724   3.753   0.087   2.464  0.2579 -0.4455 -0.4176
  491MOL0     C64725   4.189   0.786   1.593 -0.6096 -0.4918 -0.1759
  491MOL0     C64726   4.283   0.745   1.494  0.5519  0.3394  0.6912
  491MOL0     O64727   4.184   0.631   1.141  0.9908  0.6598  0.2223
  491MOL0     C64728   4.515   0.546   1.099 -0.6278 -0.0529 -0.5057
  491MOL0     C64729   4.604   0.533   0.991  0.6866 -0.7763 -0.8251
  491MOL0     N64730   4.946   0.854   0.469  0.6671 -0.4312  0.2686
  491MOL0     N64731   5.061   0.873   0.420 -0.6677 -1.0538  0.3109
  491MOL0     C64732   6.093   1.347   0.420  0.0363  0.2489 -0.1200
  491MOL0     C64733   6.191   1.440   0.460 -0.5715 -0.3301  0.1206
  491MOL0     C64734   6.588   1.660   0.381  0.3860 -0.6434  0.5601
  491MOL0     C64735   6.576   1.737   0.502  0.7205  0.7892 -0.0663
  491MOL0     C64736   6.643   1.855   0.517 -0.1173 -0.5221  1.2982
  491MOL0     C64737   6.739   1.904   0.425 -1.0954  0.6547  0.1265
  491MOL0     O64738   6.807   2.023   0.453 -0.8050 -0.2058 -0.4057
  491MOL0     C64739   6.832   2.125   0.352 -0.6497  0.0784 -0.6574
  491MOL0     C64740   6.965   2.173   0.353 -0.0736  0.1290  0.2315
  491MOL0     C64741   6.996   2.240   0.485 -0.4637 -0.9526 -0.5982
  491MOL0     C64742   7.140   2.224   0.523  0.6949  0.6126  0.3757
  491MOL0     C64743   7.245   2.285   0.443 -0.0230  0.2331  0.3126
  491MOL0     C64744   7.324   2.360   0.378  0.8858 -0.0476  0.2126
  491MOL0     C64745   6.759   1.823   0.308  0.2227  0.7904 -0.2914
  491MOL0     C64746   6.678   1.711   0.282  0.5514 -0.7668  0.2963
  491MOL0     H64747   6.455   1.269   0.321  0.4014  0.1100  0.7535
  491MOL0     H64748   6.283   1.131   0.251  0.1495  2.1423 -2.3183
  491MOL0     H64749   6.041   0.999   0.454  1.0839  1.4384  1.1757
  491MOL0     H64750   6.123   0.971   0.297 -1.2591 -1.1822 -0.0163
  491MOL0     H64751   5.972   0.842   0.243 -1.3526  0.6817 -3.4190
  491MOL0     H64752   5.887   0.987   0.193 -1.0832  3.1303  2.5454
  491MOL0     H64753   5.759   1.001   0.397 -2.5607 -1.6529  0.8840
  491MOL0     H64754   5.855   0.864   0.460 -0.6408  2.0825  0.2623
  491MOL0     H64755   5.686   0.857   0.215 -0.9853  0.4332  0.1018
  491MOL0     H64756   5.760   0.707   0.286 -0.0367 -0.3710 -1.1269
  491MOL0     H64757   5.629   0.732   0.490  0.1234 -1.3885 -0.5758
  491MOL0     H64758   5.550   0.700   0.328  0.8331 -0.4358  0.9089
  491MOL0     H64759   5.474   0.921   0.306 -0.0021 -1.0180 -0.5331
  491MOL0     H64760   5.545   0.964   0.461 -1.5463  0.6867 -0.5770
  491MOL0     H64761   5.317   0.767   0.417 -4.3082 -0.5779  4.2097
  491MOL0     H64762   5.403   0.776   0.567 -2.4580 -0.7096  0.1054
  491MOL0     H64763   5.278   1.020   0.424 -0.3585 -0.4915 -0.1769
  491MOL0     H64764   5.327   0.993   0.594 -1.2403 -0.4461  1.7386
  491MOL0     H64765   5.127   0.885   0.744 -1.3060 -3.2298  0.9374
  491MOL0     H64766   4.769   0.925   0.687  0.9327  0.5897 -0.8216
  491MOL0     H64767   4.894   0.870   0.802  2.9852 -1.9462 -1.2670
  491MOL0     H64768   4.795   0.683   0.826 -1.0646  0.1422  0.7018
  491MOL0     H64769   4.886   0.647   0.681 -0.7201  1.5425 -1.0106
  491MOL0     H64770   4.588   0.738   0.712 -0.4358  1.2935 -2.8634
  491MOL0     H64771   4.666   0.720   0.556 -3.0824  0.6068  0.0368
  491MOL0     H64772   4.732   0.490   0.595 -0.4793 -1.6543 -0.3113
  491MOL0     H64773   4.559   0.511   0.605  2.2132 -0.8300 -2.5289
  491MOL0     H64774   4.389   0.497   0.736 -2.1806 -0.9190  1.2565
  491MOL0     H64775   4.225   0.553   0.925 -0.4070 -2.3724  2.5443
  491MOL0     H64776   4.101   0.497   1.341 -0.8595  0.9093 -0.8980
  491MOL0     H64777   3.939   0.577   1.515 -0.0814 -0.1280 -0.0310
  491MOL0     H64778   3.937   0.581   1.781 -0.6288 -0.2719 -1.3151
  491MOL0     H64779   3.810   0.649   1.668  0.1327  0.4641 -0.0328
  491MOL0     H64780   3.749   0.812   1.811  1.7668  0.8565 -1.5133
  491MOL0     H64781   3.884   0.789   1.923  1.5672 -2.1453  0.4600
  491MOL0     H64782   3.691   0.564   1.897  0.7764  1.0848 -1.2974
  491MOL0     H64783   3.662   0.700   2.014 -1.0624 -3.1562  0.9570
  491MOL0     H64784   3.901   0.526   2.014 -0.7671 -1.2249  1.8916
  491MOL0     H64785   3.852   0.674   2.113 -1.9640  1.2112  1.3126
  491MOL0     H64786   3.694   0.426   2.076 -3.3188  1.2278  0.2553
  491MOL0     H64787   3.663   0.543   2.207  1.0336 -2.4489  1.7984
  491MOL0     H64788   3.883   0.462   2.314  1.5416 -1.2420  0.4687
  491MOL0     H64789   3.913   0.361   2.170  2.4687  1.4105  1.6360
  491MOL0     H64790   3.663   0.305   2.337 -0.2323 -1.6940 -0.1154
  491MOL0     H64791   3.745   0.215   2.214 -2.8581  0.6300  1.0741
  491MOL0     H64792   3.839   0.302   2.495 -3.0796  1.7666 -0.8279
  491MOL0     H64793   3.944   0.212   2.391 -0.1118  2.1867 -1.0423
  491MOL0     H64794   4.200   0.861   1.671 -1.9884  0.1318 -0.5483
  491MOL0     H64795   4.382   0.788   1.487  0.8022 -0.3899 -0.4746
  491MOL0     H64796   4.557   0.552   1.199 -2.7895 -4.2258  0.8907
  491MOL0     H64797   4.710   0.521   1.012  0.7728  0.8949 -0.1517
  491MOL0     H64798   5.994   1.386   0.437  0.3015  0.4905  0.9298
  491MOL0     H64799   6.172   1.527   0.523  1.5875 -0.1418  0.5845
  491MOL0     H64800   6.520   1.703   0.589  1.6102 -1.1935 -0.2170
  491MOL0     H64801   6.635   1.907   0.612 -1.3955  2.7774 -0.4459
  491MOL0     H64802   6.756   2.204   0.346 -0.4778  0.5656  2.3617
  491MOL0     H64803   6.832   2.090   0.248  1.0462 -0.5585 -0.4649
  491MOL0     H64804   7.035   2.092   0.331 -1.6289 -1.1704 -0.1149
  491MOL0     H64805   6.980   2.250   0.276 -2.4952 -1.4667 -2.0033
  491MOL0     H64806   6.930   2.194   0.560 -1.3562 -0.8369 -1.3065
  491MOL0     H64807   6.965   2.345   0.482  1.7000 -0.0343  2.9277
  491MOL0     H64808   7.148   2.259   0.626 -1.5899 -0.1102  0.8606
  491MOL0     H64809   7.162   2.117   0.527  0.5640  0.5205 -0.9061
  491MOL0     H64810   7.380   2.424   0.314  1.1375 -0.8956 -0.4185
  491MOL0     H64811   6.832   1.868   0.242 -0.3327  2.7096  0.3454
  491MOL0     H64812   6.704   1.669   0.185  1.4737 -4.0755  1.7978
  492MOL0     O64813   7.617   4.150   3.589  0.0361 -0.9135 -0.3547
  492MOL0     C64814   7.582   4.082   3.687 -0.4519 -0.3882  0.5118
  492MOL0     O64815   7.472   4.003   3.704  0.5441 -0.8122 -0.2776
  492MOL0     C64816   7.381   4.009   3.600  0.4370  0.4111  0.8170
  492MOL0     C64817   7.382   3.926   3.497 -0.5203 -0.3601  1.2300
  492MOL0     C64818   7.301   3.951   3.390  0.0960  0.1947  0.7615
  492MOL0     C64819   7.213   4.062   3.382  0.8934 -0.7939  0.1165
  492MOL0     O64820   7.117   4.080   3.286  0.1310  0.1521  0.2112
  492MOL0     C64821   7.124   4.030   3.157  0.3679  0.5037  0.4273
  492MOL0     C64822   7.003   4.082   3.086  0.0288  0.9779 -0.8356
  492MOL0     C64823   7.016   4.235   3.082 -0.3973 -0.1629  0.7602
  492MOL0     C64824   6.883   4.308   3.046 -0.1388 -0.5014  0.4751
  492MOL0     C64825   6.882   4.461   3.077  0.3695  0.0711 -0.4727
  492MOL0     C64826   6.762   4.537   3.026 -0.5550  0.3602 -0.2138
  492MOL0     C64827   6.629   4.480   3.031 -0.3651  0.3246 -0.7323
  492MOL0     C64828   6.519   4.592   3.011  0.5404 -0.3771 -0.4591
  492MOL0     N64829   6.384   4.544   3.008 -0.3490  0.0274 -0.4927
  492MOL0     C64830   6.301   4.533   2.892 -0.8180  0.8041  1.9068
  492MOL0     C64831   6.198   4.466   2.940  0.4802 -0.5406  0.2410
  492MOL0     C64832   6.088   4.436   2.841 -0.2166  0.3237  0.2451
  492MOL0     C64833   5.952   4.412   2.924 -1.0868 -0.1404  0.3253
  492MOL0     C64834   5.888   4.544   2.989  0.5555 -0.0756  0.8274
  492MOL0     C64835   5.738   4.553   3.003  0.0386 -1.1023 -0.0981
  492MOL0     O64836   5.672   4.551   2.868  0.1001  0.6565 -0.2882
  492MOL0     C64837   5.536   4.521   2.848 -0.3488  0.1475 -0.1879
  492MOL0     C64838   5.451   4.480   2.954  0.1888  0.1057 -0.3916
  492MOL0     C64839   5.321   4.438   2.916 -0.0279 -0.0772 -0.2397
  492MOL0     C64840   5.274   4.447   2.780 -1.0235 -0.5843 -0.4399
  492MOL0     C64841   5.133   4.407   2.741 -1.8221 -0.2002 -1.2406
  492MOL0     O64842   5.069   4.335   2.843 -0.3797  0.6538  0.6035
  492MOL0     C64843   4.934   4.320   2.856  0.1850 -0.2404  0.4533
  492MOL0     C64844   4.843   4.302   2.746 -0.0669 -0.6626  0.0154
  492MOL0     C64845   4.709   4.313   2.758 -0.4857 -1.0449  0.5359
  492MOL0     C64846   4.653   4.307   2.886  0.5760 -0.3603 -0.1968
  492MOL0     O64847   4.520   4.307   2.917 -0.0007  0.1703  0.2454
  492MOL0     C64848   4.437   4.264   2.812 -0.3381 -1.2087  1.2304
  492MOL0     C64849   4.314   4.196   2.870 -0.0361  0.1955  0.6403
  492MOL0     C64850   4.236   4.306   2.943 -1.0155  0.8243 -0.3009
  492MOL0     C64851   4.121   4.247   3.009 -0.3940  0.7926 -0.6646
  492MOL0     C64852   4.052   4.344   3.106  0.0483  0.1198  0.0251
  492MOL0     C64853   3.914   4.306   3.157  0.0972  0.1777  1.0431
  492MOL0     C64854   3.825   4.324   3.034 -0.3801  0.0078  0.2034
  492MOL0     C64855   3.674   4.292   3.060  0.8682 -0.5929  0.0255
  492MOL0    Cl64856   3.587   4.352   2.907 -0.1512 -0.1455  0.0364
  492MOL0     C64857   4.737   4.306   2.999 -0.1031  0.3485 -0.3510
  492MOL0     C64858   4.875   4.326   2.985  0.3860 -0.1110 -0.5882
  492MOL0     O64859   5.083   4.436   2.635  0.0850 -0.2687  0.0179
  492MOL0     C64860   5.367   4.482   2.680 -0.3946 -0.4094 -0.3220
  492MOL0     C64861   5.492   4.525   2.712 -0.9234 -1.1111  0.3291
  492MOL0     N64862   6.209   4.452   3.074  0.5997 -0.8607  0.6156
  492MOL0     N64863   6.324   4.487   3.113  1.0106 -0.9468  0.2218
  492MOL0     C64864   7.204   4.149   3.492 -1.5647 -0.4116 -0.0093
  492MOL0     C64865   7.289   4.121   3.606  0.2012  0.0579 -0.1140
  492MOL0     C64866   7.672   4.088   3.802 -0.0001  0.0362 -0.3541
  492MOL0     C64867   7.806   4.133   3.792 -0.6162 -0.3685  0.5168
  492MOL0     C64868   7.890   4.138   3.901 -0.7994 -0.1727 -0.7637
  492MOL0     C64869   7.857   4.083   4.025  0.1986  0.3020  1.1775
  492MOL0     O64870   7.948   4.074   4.129  0.3690 -0.1505  0.6626
  492MOL0     C64871   7.941   3.967   4.222 -0.0104 -1.1308  0.3838
  492MOL0     C64872   8.079   3.967   4.295 -0.4460 -0.0491  1.0488
  492MOL0     C64873   8.094   4.077   4.396 -0.3416  0.5400  0.4807
  492MOL0     C64874   8.234   4.132   4.422 -0.2999  0.2640  0.3225
  492MOL0     C64875   8.330   4.050   4.500  0.4153  0.4129  0.4922
  492MOL0     C64876   8.420   3.991   4.562  0.1221  0.4469  0.3679
  492MOL0     C64877   7.726   4.033   4.031  0.6820 -0.0094  0.2525
  492MOL0     C64878   7.626   4.044   3.931 -0.7192 -0.2636  0.1521
  492MOL0     H64879   7.445   3.839   3.482 -1.7319 -0.9790 -0.8925
  492MOL0     H64880   7.291   3.877   3.311  0.4446  0.5693  0.3586
  492MOL0     H64881   7.130   3.920   3.151 -0.6365  0.4515  0.1309
  492MOL0     H64882   7.208   4.076   3.105 -1.1324  0.3880 -2.2718
  492MOL0     H64883   6.909   4.051   3.132  0.8294  2.1444  1.7388
  492MOL0     H64884   7.013   4.039   2.986  1.5220  1.1543 -0.7847
  492MOL0     H64885   7.092   4.257   3.006 -1.7771  0.7512 -0.4160
  492MOL0     H64886   7.037   4.284   3.177  0.0130  4.1108 -1.2932
  492MOL0     H64887   6.862   4.286   2.941  1.0664 -0.8468  0.2943
  492MOL0     H64888   6.810   4.252   3.104  1.0415 -1.8792  0.6932
  492MOL0     H64889   6.975   4.506   3.041  1.5259 -0.4505  1.6939
  492MOL0     H64890   6.888   4.471   3.186 -0.1557 -1.2870 -0.2969
  492MOL0     H64891   6.768   4.567   2.921 -1.2565 -2.0935 -1.0304
  492MOL0     H64892   6.743   4.617   3.098  1.0258  0.0698  0.5681
  492MOL0     H64893   6.615   4.405   2.952  1.7995  1.9068 -2.7394
  492MOL0     H64894   6.617   4.436   3.131  1.9753 -1.7268 -1.2589
  492MOL0     H64895   6.539   4.625   2.909  2.3849 -0.5954 -0.2062
  492MOL0     H64896   6.527   4.681   3.074  1.4835 -0.4846 -0.4070
  492MOL0     H64897   6.321   4.565   2.790 -2.5868  1.3825  1.7070
  492MOL0     H64898   6.113   4.338   2.798 -0.4291  0.2776  0.2247
  492MOL0     H64899   6.074   4.504   2.757 -3.8994 -2.5609 -1.8055
  492MOL0     H64900   5.983   4.353   3.011 -0.5039  0.7469  0.7454
  492MOL0     H64901   5.883   4.353   2.864 -1.7309  1.7427 -0.8777
  492MOL0     H64902   5.920   4.566   3.091 -2.7472  0.8521  1.8082
  492MOL0     H64903   5.912   4.636   2.935 -1.5857  0.2625  0.3667
  492MOL0     H64904   5.714   4.652   3.043  3.2713 -0.0166 -0.5536
  492MOL0     H64905   5.711   4.467   3.065  1.4055  0.9600  3.6689
  492MOL0     H64906   5.493   4.479   3.054 -2.2950  0.4716  0.7404
  492MOL0     H64907   5.256   4.406   2.997 -1.9245 -0.8616 -1.9999
  492MOL0     H64908   4.877   4.306   2.643  2.7744  0.7790  0.8766
  492MOL0     H64909   4.657   4.318   2.662 -0.3994 -2.5260  0.3881
  492MOL0     H64910   4.489   4.185   2.759  0.2335 -1.4927  2.1942
  492MOL0     H64911   4.404   4.345   2.747 -2.2356 -1.3000  2.0050
  492MOL0     H64912   4.337   4.107   2.930 -1.1975 -1.7336 -1.5809
  492MOL0     H64913   4.247   4.178   2.786  2.9818  2.8324 -2.5908
  492MOL0     H64914   4.198   4.384   2.877  0.8750 -0.8130 -3.5503
  492MOL0     H64915   4.306   4.351   3.014 -2.7590  1.7533  0.8896
  492MOL0     H64916   4.057   4.221   2.924 -0.5266 -3.1256  0.4421
  492MOL0     H64917   4.152   4.158   3.064  1.3902  3.4208  3.0176
  492MOL0     H64918   4.039   4.442   3.058 -1.3842  0.9397  1.9514
  492MOL0     H64919   4.116   4.349   3.194 -1.5719  1.0399  1.2053
  492MOL0     H64920   3.879   4.379   3.231 -0.2472  2.7591 -1.5067
  492MOL0     H64921   3.907   4.206   3.201 -1.9851  1.1515  3.1585
  492MOL0     H64922   3.826   4.427   2.996 -2.3387 -0.4087 -1.1439
  492MOL0     H64923   3.858   4.250   2.961 -3.8885 -0.2551 -1.3503
  492MOL0     H64924   3.638   4.347   3.148  1.7306  0.5083 -0.2917
  492MOL0     H64925   3.652   4.186   3.075 -0.2098 -0.2387  1.1017
  492MOL0     H64926   4.683   4.310   3.093 -0.8908 -0.3282 -0.7597
  492MOL0     H64927   4.936   4.336   3.074 -0.3669 -0.6936  0.0058
  492MOL0     H64928   5.332   4.496   2.578  1.6792  0.6408 -0.9426
  492MOL0     H64929   5.553   4.555   2.627 -1.2768  2.7616  1.2574
  492MOL0     H64930   7.142   4.236   3.469  0.8619  0.5101 -4.1045
  492MOL0     H64931   7.302   4.198   3.680 -0.4547  0.3089 -0.2527
  492MOL0     H64932   7.846   4.171   3.699  2.1856 -2.5538  0.7136
  492MOL0     H64933   7.995   4.164   3.890 -0.7508 -0.9892 -2.5842
  492MOL0     H64934   7.925   3.871   4.173  1.0254 -1.8358  1.3578
  492MOL0     H64935   7.871   3.996   4.300 -0.0829  1.9604 -0.6936
  492MOL0     H64936   8.095   3.875   4.352  2.6238 -0.7598 -0.7436
  492MOL0     H64937   8.155   3.970   4.217 -0.5051 -3.1078  0.7497
  492MOL0     H64938   8.035   4.055   4.486 -3.0113  2.1944 -0.7381
  492MOL0     H64939   8.045   4.160   4.345  0.4857  2.3787  2.4812
  492MOL0     H64940   8.274   4.158   4.324 -0.4351 -0.1362  0.1584
  492MOL0     H64941   8.207   4.231   4.462 -0.7575  0.9993 -1.6834
  492MOL0     H64942   8.504   3.941   4.606 -1.8108 -3.0582  0.4312
  492MOL0     H64943   7.689   3.986   4.122 -1.1615  1.4279  0.3207
  492MOL0     H64944   7.522   4.019   3.948 -0.7668  0.9611  1.9778
  493MOL0     O64945   1.097   4.445   6.824  0.2474 -0.2091  0.7838
  493MOL0     C64946   1.121   4.514   6.727  0.6443 -0.1306  0.0387
  493MOL0     O64947   1.027   4.573   6.648 -0.4205 -1.1027 -0.2398
  493MOL0     C64948   0.903   4.585   6.703  0.5130 -0.7624 -0.2449
  493MOL0     C64949   0.815   4.483   6.706 -0.4782 -0.6087  0.0644
  493MOL0     C64950   0.687   4.505   6.754  0.8589 -0.1859  0.5633
  493MOL0     C64951   0.645   4.635   6.794 -0.4644  0.6746  0.2332
  493MOL0     O64952   0.521   4.672   6.832  1.3480  0.7760  0.0675
  493MOL0     C64953   0.412   4.637   6.746 -0.7662 -0.0939 -0.5647
  493MOL0     C64954   0.400   4.716   6.613  0.7133 -0.4573 -0.0498
  493MOL0     C64955   0.266   4.662   6.537 -0.7723 -0.2283 -0.9047
  493MOL0     C64956   0.241   4.759   6.430  0.6362 -0.5356  0.4809
  493MOL0     C64957   0.141   4.690   6.334 -0.2349  0.0673 -0.2321
  493MOL0     C64958   0.029   4.780   6.263 -0.6261 -0.2787 -0.0568
  493MOL0     C64959  -0.045   4.872   6.362 -0.4134 -0.8175  0.3502
  493MOL0     C64960  -0.142   4.970   6.281  0.4347 -0.1401 -0.1249
  493MOL0     N64961  -0.229   5.034   6.379 -0.1722 -0.5032  0.0637
  493MOL0     C64962  -0.203   5.143   6.451 -0.1962  0.7680 -1.7905
  493MOL0     C64963  -0.320   5.170   6.516  0.6099  0.2780 -0.6633
  493MOL0     C64964  -0.339   5.275   6.616  0.7969  0.0339  0.1226
  493MOL0     C64965  -0.490   5.326   6.608 -0.7637  0.0308  0.2937
  493MOL0     C64966  -0.562   5.250   6.724 -1.6765 -0.6059  0.6781
  493MOL0     C64967  -0.710   5.238   6.698 -0.6157  0.9594 -0.3933
  493MOL0     O64968  -0.758   5.370   6.694 -0.0795 -0.1367 -0.7763
  493MOL0     C64969  -0.891   5.390   6.701 -0.1722 -0.0619  0.0062
  493MOL0     C64970  -0.929   5.518   6.739 -0.8362 -0.0399 -0.6489
  493MOL0     C64971  -1.062   5.557   6.755  0.8543  0.1904 -0.0996
  493MOL0     C64972  -1.164   5.465   6.741  0.6794  0.5533 -0.0764
  493MOL0     C64973  -1.305   5.501   6.771  0.2401 -0.0474  0.9892
  493MOL0     O64974  -1.393   5.420   6.829 -0.5583  0.4133 -0.0502
  493MOL0     C64975  -1.523   5.463   6.857  0.0532 -0.0652  0.0933
  493MOL0     C64976  -1.562   5.573   6.940  0.0572  0.1141 -0.3701
  493MOL0     C64977  -1.690   5.616   6.966 -0.3349 -1.0623  1.0878
  493MOL0     C64978  -1.792   5.538   6.910  0.0742 -0.3277  0.0049
  493MOL0     O64979  -1.928   5.575   6.929 -1.0599 -0.4202  0.1623
  493MOL0     C64980  -2.024   5.471   6.973  1.2074  0.9048  0.3083
  493MOL0     C64981  -2.149   5.534   7.039  0.5168  0.3484 -0.4670
  493MOL0     C64982  -2.270   5.432   7.045 -0.1119  0.0651  0.2176
  493MOL0     C64983  -2.252   5.327   7.148  0.8102 -0.7066  0.0346
  493MOL0     C64984  -2.370   5.231   7.168  0.1358  0.0941 -0.4797
  493MOL0     C64985  -2.356   5.167   7.300  0.2791  0.3115 -0.1710
  493MOL0     C64986  -2.481   5.076   7.327  0.7298  0.6649 -1.0415
  493MOL0     C64987  -2.531   5.066   7.473  0.1327  0.8313 -0.2766
  493MOL0    Cl64988  -2.623   5.202   7.529  0.3424 -0.1928 -0.3421
  493MOL0     C64989  -1.761   5.415   6.842  0.6720 -0.5573 -0.2670
  493MOL0     C64990  -1.629   5.380   6.819 -0.2784  0.3740  0.9625
  493MOL0     O64991  -1.318   5.620   6.748 -0.7754  0.2253 -0.3113
  493MOL0     C64992  -1.127   5.333   6.709  0.5957  0.4399  0.2432
  493MOL0     C64993  -0.992   5.292   6.686 -0.1942 -0.2619  0.0172
  493MOL0     N64994  -0.413   5.069   6.486  0.1151  0.6557  0.5051
  493MOL0     N64995  -0.355   4.990   6.405  0.4065  0.0979  0.4911
  493MOL0     C64996   0.735   4.740   6.796 -0.5993 -0.8482  0.3697
  493MOL0     C64997   0.866   4.715   6.752  0.3946 -0.0084  0.8824
  493MOL0     C64998   1.257   4.524   6.675  0.5326  0.1488  0.3839
  493MOL0     C64999   1.297   4.609   6.573 -0.0024 -0.4500  0.0966
  493MOL0     C65000   1.433   4.604   6.530  0.7137  0.9359  0.1140
  493MOL0     C65001   1.525   4.507   6.579  0.6503  0.4374  0.4644
  493MOL0     O65002   1.647   4.492   6.517  0.1839 -0.3128 -0.1703
  493MOL0     C65003   1.637   4.487   6.375 -0.4077  0.0994 -0.8344
  493MOL0     C65004   1.764   4.419   6.313  0.4437  0.4119 -0.6238
  493MOL0     C65005   1.894   4.493   6.347 -0.0384 -0.0536 -0.4911
  493MOL0     C65006   2.006   4.453   6.260 -0.3012  0.5405  0.4927
  493MOL0     C65007   2.006   4.304   6.239 -0.3241  0.2687  0.3669
  493MOL0     C65008   2.002   4.183   6.228 -0.7795  0.7848 -1.0217
  493MOL0     C65009   1.482   4.419   6.682 -0.0340 -0.5789 -0.5068
  493MOL0     C65010   1.352   4.437   6.735 -0.0182  0.3455 -0.5350
  493MOL0     H65011   0.839   4.384   6.667  0.6084  0.8898 -3.5786
  493MOL0     H65012   0.619   4.421   6.750  0.2824  0.3056 -2.1718
  493MOL0     H65013   0.313   4.658   6.788 -1.3555  2.4421 -2.8809
  493MOL0     H65014   0.416   4.530   6.729  1.8835 -0.3882  1.3434
  493MOL0     H65015   0.494   4.704   6.559  1.2194 -1.0471  0.9317
  493MOL0     H65016   0.393   4.821   6.640 -0.8169 -0.0156 -1.8971
  493MOL0     H65017   0.176   4.652   6.598 -0.7940 -0.3409 -0.9549
  493MOL0     H65018   0.290   4.567   6.488  3.8553  0.2024  0.0495
  493MOL0     H65019   0.202   4.852   6.473  1.8221  1.0807 -1.7554
  493MOL0     H65020   0.328   4.771   6.366  1.1614  0.8392  1.3982
  493MOL0     H65021   0.088   4.622   6.402  1.7603  0.8915  2.3163
  493MOL0     H65022   0.192   4.621   6.266 -1.5256 -0.6434 -0.4958
  493MOL0     H65023  -0.037   4.712   6.208  0.4259 -0.0332 -1.6904
  493MOL0     H65024   0.074   4.845   6.187  1.8377  0.8149  2.2069
  493MOL0     H65025  -0.105   4.818   6.436 -1.0856 -2.4119 -1.2751
  493MOL0     H65026   0.019   4.934   6.425 -3.2926  1.6733  1.0443
  493MOL0     H65027  -0.206   4.913   6.212  0.6504 -2.3602  1.4039
  493MOL0     H65028  -0.071   5.043   6.241  1.4181  0.2074  2.1177
  493MOL0     H65029  -0.107   5.191   6.464 -0.6360  1.1191  0.5790
  493MOL0     H65030  -0.280   5.358   6.577 -0.3686  1.1506  0.6569
  493MOL0     H65031  -0.302   5.246   6.714  0.7239 -1.0414 -0.1476
  493MOL0     H65032  -0.530   5.314   6.507  0.4513 -1.1595 -0.0735
  493MOL0     H65033  -0.496   5.432   6.633 -0.6940  0.3486 -0.9819
  493MOL0     H65034  -0.520   5.151   6.744 -4.5570 -1.5392  2.6966
  493MOL0     H65035  -0.546   5.310   6.813  0.9884 -2.4811  1.5847
  493MOL0     H65036  -0.754   5.179   6.779  0.5672 -0.6343 -0.8590
  493MOL0     H65037  -0.727   5.193   6.600  2.8051  0.2957 -0.7944
  493MOL0     H65038  -0.857   5.597   6.720 -0.1931  0.0405  1.8194
  493MOL0     H65039  -1.090   5.657   6.787  2.5276 -0.1964  2.9076
  493MOL0     H65040  -1.473   5.628   6.971  0.4470 -1.0849  0.7075
  493MOL0     H65041  -1.712   5.707   7.021 -2.1475 -0.7354 -0.1049
  493MOL0     H65042  -1.978   5.402   7.044  1.1122  3.7414  3.3639
  493MOL0     H65043  -2.048   5.416   6.881 -1.9053  2.7256 -0.1271
  493MOL0     H65044  -2.171   5.629   6.990 -0.5695 -0.2557 -1.1850
  493MOL0     H65045  -2.111   5.565   7.137  0.2258 -0.1106 -0.2010
  493MOL0     H65046  -2.272   5.384   6.947  1.5972  0.5633 -0.0954
  493MOL0     H65047  -2.362   5.486   7.068  0.6573  1.2465  0.6057
  493MOL0     H65048  -2.169   5.269   7.107  1.7232 -0.1239  1.0099
  493MOL0     H65049  -2.226   5.379   7.241 -4.0927  1.2618  0.6396
  493MOL0     H65050  -2.382   5.147   7.099 -2.0947 -1.1540  1.2801
  493MOL0     H65051  -2.460   5.294   7.174  0.3625  0.4231 -0.5061
  493MOL0     H65052  -2.347   5.251   7.369 -0.0406  1.9340 -2.0115
  493MOL0     H65053  -2.266   5.104   7.300 -0.5405 -0.9869  2.1344
  493MOL0     H65054  -2.561   5.102   7.258  1.2511  0.4296 -1.7460
  493MOL0     H65055  -2.450   4.973   7.306 -0.8611 -0.2728  0.8118
  493MOL0     H65056  -2.453   5.037   7.544  2.5621  1.1563 -2.6584
  493MOL0     H65057  -2.597   4.979   7.477 -0.9423  1.6725  2.1765
  493MOL0     H65058  -1.840   5.363   6.789  0.6131  1.0813 -1.9087
  493MOL0     H65059  -1.606   5.298   6.751  1.4823  0.2766  1.6290
  493MOL0     H65060  -1.200   5.254   6.698  0.9236  0.3314 -1.3856
  493MOL0     H65061  -0.970   5.197   6.639  1.8003 -0.1426  0.6320
  493MOL0     H65062   0.706   4.841   6.821 -0.3905  0.2470 -3.2304
  493MOL0     H65063   0.941   4.793   6.752  0.0782  0.4895 -3.0700
  493MOL0     H65064   1.218   4.677   6.541  0.5283  0.4423  0.6568
  493MOL0     H65065   1.460   4.673   6.450  2.6786  2.8716  2.2894
  493MOL0     H65066   1.644   4.584   6.325 -0.9309  0.8591  0.5163
  493MOL0     H65067   1.543   4.436   6.351 -0.7339  0.5724 -0.5715
  493MOL0     H65068   1.778   4.318   6.354 -0.7366 -0.4238 -2.1796
  493MOL0     H65069   1.745   4.408   6.206 -2.8001 -0.2013 -0.1048
  493MOL0     H65070   1.929   4.467   6.447 -1.7942  2.4001  0.8682
  493MOL0     H65071   1.879   4.601   6.332  0.4356 -0.1312 -1.6843
  493MOL0     H65072   2.004   4.489   6.157  2.9552 -0.6940 -0.1445
  493MOL0     H65073   2.097   4.487   6.310  0.8841 -1.0435 -0.4891
  493MOL0     H65074   2.000   4.076   6.222  2.3188  0.5073  0.4415
  493MOL0     H65075   1.557   4.355   6.727 -0.1413  0.7590  1.7287
  493MOL0     H65076   1.311   4.365   6.805 -3.8202  0.7406 -2.0972
  494MOL0     O65077   4.250  10.502   1.431 -0.3259  0.0627  0.1138
  494MOL0     C65078   4.308  10.529   1.326  0.3238 -0.1851  0.4580
  494MOL0     O65079   4.255  10.597   1.231 -0.2894 -0.4772 -0.1918
  494MOL0     C65080   4.133  10.662   1.255 -1.5986  1.0332 -0.0103
  494MOL0     C65081   4.013  10.618   1.204  0.6693 -0.5155  0.0111
  494MOL0     C65082   3.895  10.684   1.245 -0.0879  0.2535  0.9411
  494MOL0     C65083   3.904  10.796   1.327 -0.0498 -0.9420  0.3720
  494MOL0     O65084   3.792  10.859   1.380 -0.3241  0.5572  0.0596
  494MOL0     C65085   3.666  10.786   1.393 -0.9708 -0.2438  0.2305
  494MOL0     C65086   3.577  10.864   1.481 -0.4126  0.6551 -0.4821
  494MOL0     C65087   3.442  10.815   1.498 -0.4931  0.3351 -0.0808
  494MOL0     C65088   3.428  10.683   1.567 -0.0309 -0.0615  0.4554
  494MOL0     C65089   3.482  10.679   1.706 -0.2753 -0.2419  1.5143
  494MOL0     C65090   3.426  10.781   1.805  0.5854  0.2576  0.1073
  494MOL0     C65091   3.278  10.771   1.813 -0.4932  0.4310 -0.1723
  494MOL0     C65092   3.231  10.846   1.940 -1.3769  0.4374  0.0652
  494MOL0     N65093   3.085  10.840   1.940 -0.5938 -0.0267 -0.6454
  494MOL0     C65094   3.007  10.753   2.014 -0.3758 -0.3537 -0.4313
  494MOL0     C65095   2.876  10.781   1.985  0.8965  0.3345  0.3170
  494MOL0     C65096   2.749  10.726   2.048  0.6831 -0.5006  0.2296
  494MOL0     C65097   2.681  10.823   2.154  0.2143  0.0844  0.9916
  494MOL0     C65098   2.646  10.961   2.111 -0.2816  0.3347  0.3575
  494MOL0     C65099   2.541  11.023   2.204  0.3303 -0.5836  0.7395
  494MOL0     O65100   2.500  11.150   2.153  0.5238  0.1671 -0.5849
  494MOL0     C65101   2.433  11.233   2.252 -0.8918  0.0262 -0.1553
  494MOL0     C65102   2.395  11.201   2.384 -0.0961 -0.8338 -1.5179
  494MOL0     C65103   2.351  11.298   2.471 -0.4028 -0.2204  0.3711
  494MOL0     C65104   2.327  11.426   2.417 -0.3229  0.8364 -0.7429
  494MOL0     C65105   2.268  11.531   2.507 -0.0341 -0.4110 -0.4908
  494MOL0     O65106   2.223  11.495   2.625  0.2398 -0.9653  0.1378
  494MOL0     C65107   2.133  11.575   2.686  0.0768  0.3419 -0.5516
  494MOL0     C65108   2.165  11.686   2.764  0.8712  0.7056 -0.5134
  494MOL0     C65109   2.064  11.760   2.832 -0.1663  0.4015 -0.2898
  494MOL0     C65110   1.929  11.720   2.818  0.7837  0.6661  0.0814
  494MOL0     O65111   1.826  11.785   2.877  0.7998  0.1484 -0.7956
  494MOL0     C65112   1.712  11.706   2.922  0.0552  0.1369  0.1239
  494MOL0     C65113   1.648  11.747   3.054 -0.5216  0.3142 -0.4402
  494MOL0     C65114   1.539  11.649   3.101  0.3478 -0.3640  0.1226
  494MOL0     C65115   1.493  11.673   3.246 -0.1431 -0.6235 -0.3104
  494MOL0     C65116   1.360  11.586   3.284 -0.5019 -0.3748 -0.3786
  494MOL0     C65117   1.240  11.648   3.213 -0.0268  0.5848 -0.3311
  494MOL0     C65118   1.119  11.575   3.269 -0.4699  0.2998  0.8146
  494MOL0     C65119   0.988  11.638   3.232 -0.5007 -0.8452 -0.8753
  494MOL0    Cl65120   0.974  11.799   3.328  0.3539  0.9361  0.3027
  494MOL0     C65121   1.899  11.623   2.723  0.1263  0.3896 -0.1125
  494MOL0     C65122   1.997  11.540   2.668  0.6132  0.3105  0.0712
  494MOL0     O65123   2.264  11.648   2.459  0.2238  0.1054 -0.5157
  494MOL0     C65124   2.351  11.455   2.284 -0.7258  0.7863  0.4712
  494MOL0     C65125   2.399  11.355   2.205 -1.0667 -0.6955  0.4435
  494MOL0     N65126   2.875  10.875   1.882 -0.2546 -0.1836 -0.4604
  494MOL0     N65127   2.997  10.903   1.856 -0.5541  0.3222 -0.0316
  494MOL0     C65128   4.024  10.852   1.362  0.0720  0.1934  1.0157
  494MOL0     C65129   4.139  10.785   1.323  0.5474  0.2885 -0.1333
  494MOL0     C65130   4.434  10.462   1.290 -0.2938  0.2250  0.4591
  494MOL0     C65131   4.486  10.374   1.383  0.6711  0.9990  0.3431
  494MOL0     C65132   4.606  10.305   1.352 -0.8049 -0.6142 -0.1209
  494MOL0     C65133   4.679  10.335   1.240 -0.8990  0.4580 -0.4818
  494MOL0     O65134   4.809  10.292   1.208  0.4511  0.0475  0.6141
  494MOL0     C65135   4.849  10.165   1.268 -0.3463 -0.5064 -0.1563
  494MOL0     C65136   4.794  10.036   1.197  0.3672 -0.5287  0.0703
  494MOL0     C65137   4.860  10.025   1.062 -0.4804  0.1224  0.4044
  494MOL0     C65138   4.855   9.885   0.996  0.3506 -0.8455 -0.4479
  494MOL0     C65139   4.727   9.852   0.925 -0.2228 -0.0754 -0.4182
  494MOL0     C65140   4.615   9.857   0.872  0.2417  0.5667 -0.3836
  494MOL0     C65141   4.631  10.427   1.153 -0.5427 -0.6240  0.3899
  494MOL0     C65142   4.509  10.486   1.170  0.4404 -0.0795  0.0355
  494MOL0     H65143   4.011  10.523   1.153 -2.1694  1.5554 -4.3033
  494MOL0     H65144   3.803  10.636   1.214 -1.0324  1.8283  1.2033
  494MOL0     H65145   3.680  10.692   1.448 -0.7012  0.9130  2.2199
  494MOL0     H65146   3.612  10.767   1.300 -0.7656 -1.5052  0.3533
  494MOL0     H65147   3.582  10.968   1.447 -0.0047  0.0403 -2.4641
  494MOL0     H65148   3.633  10.866   1.575 -0.3235  3.2924 -0.5117
  494MOL0     H65149   3.391  10.801   1.403 -3.7164  2.9574  1.0518
  494MOL0     H65150   3.392  10.887   1.563 -0.1780 -1.8920  2.8528
  494MOL0     H65151   3.323  10.653   1.579  0.1461  0.4330  4.7282
  494MOL0     H65152   3.475  10.595   1.522 -2.0224 -0.7934 -0.3333
  494MOL0     H65153   3.589  10.694   1.686 -0.5392 -1.9719 -2.1307
  494MOL0     H65154   3.465  10.579   1.745 -2.0809 -0.9679 -0.8561
  494MOL0     H65155   3.462  10.883   1.789  0.8063  0.0561 -0.7285
  494MOL0     H65156   3.466  10.737   1.897  0.8457 -0.2657 -0.2545
  494MOL0     H65157   3.242  10.829   1.728 -0.6193  1.6887  0.7190
  494MOL0     H65158   3.236  10.670   1.804 -2.8741  1.5695 -4.4338
  494MOL0     H65159   3.266  10.949   1.944  2.5504 -0.5979 -2.0789
  494MOL0     H65160   3.274  10.794   2.026  1.2501  0.7461 -0.9650
  494MOL0     H65161   3.046  10.699   2.099  0.5216 -1.7020 -1.6428
  494MOL0     H65162   2.766  10.630   2.098 -1.7605  0.8301  4.0978
  494MOL0     H65163   2.679  10.705   1.967  1.9082  1.7318 -1.5279
  494MOL0     H65164   2.749  10.836   2.239 -1.3145 -0.3180  2.3023
  494MOL0     H65165   2.588  10.781   2.190 -1.4892  2.2789 -0.5326
  494MOL0     H65166   2.729  11.030   2.099 -0.2201  0.5131  1.6445
  494MOL0     H65167   2.595  10.953   2.014 -0.4910 -0.1070  0.4978
  494MOL0     H65168   2.585  11.043   2.302 -2.4968  0.1988  1.9728
  494MOL0     H65169   2.459  10.952   2.221 -0.0226 -0.5180 -0.6059
  494MOL0     H65170   2.408  11.104   2.431 -0.1480 -0.0555  0.1862
  494MOL0     H65171   2.338  11.290   2.579 -0.2195 -2.2240  0.2799
  494MOL0     H65172   2.271  11.705   2.776  1.9132 -4.0227  0.0124
  494MOL0     H65173   2.085  11.834   2.908 -0.2575 -0.7026  0.8398
  494MOL0     H65174   1.724  11.597   2.928 -3.8844 -0.5370 -1.2301
  494MOL0     H65175   1.631  11.718   2.849 -1.9478 -4.2165  1.2606
  494MOL0     H65176   1.607  11.848   3.054  1.5335  1.2264  1.4320
  494MOL0     H65177   1.724  11.756   3.133 -0.2445  3.8043 -0.9535
  494MOL0     H65178   1.574  11.548   3.080 -0.8753 -0.2214 -3.2219
  494MOL0     H65179   1.459  11.665   3.028  0.0250 -1.2945  0.2646
  494MOL0     H65180   1.581  11.652   3.307 -1.8409  1.7032  3.3078
  494MOL0     H65181   1.476  11.778   3.270  4.4790  0.6921 -1.8564
  494MOL0     H65182   1.341  11.603   3.391 -1.4029 -0.0128 -0.5894
  494MOL0     H65183   1.371  11.479   3.262 -2.4412 -0.1485 -2.7557
  494MOL0     H65184   1.251  11.645   3.105  2.2432  0.6751 -0.1599
  494MOL0     H65185   1.240  11.756   3.230 -0.4508  0.6040 -0.4633
  494MOL0     H65186   1.122  11.469   3.244 -2.7302  0.6493 -1.2836
  494MOL0     H65187   1.113  11.580   3.378 -3.1052  0.5378  0.7342
  494MOL0     H65188   0.905  11.575   3.265 -2.4167  1.2493 -1.4571
  494MOL0     H65189   0.974  11.663   3.126  0.3098 -2.9101 -1.5208
  494MOL0     H65190   1.797  11.609   2.689 -0.5792  1.8806  1.2456
  494MOL0     H65191   1.971  11.452   2.610  3.3479  0.2806 -1.2879
  494MOL0     H65192   2.344  11.555   2.244  2.8366  1.4906  1.2721
  494MOL0     H65193   2.433  11.381   2.106  4.1648  0.7390  2.2880
  494MOL0     H65194   4.044  10.946   1.412  0.9583  2.0378 -2.5178
  494MOL0     H65195   4.238  10.819   1.350  1.2060 -0.0906 -1.9275
  494MOL0     H65196   4.427  10.346   1.470  0.4511  0.5516  0.0524
  494MOL0     H65197   4.642  10.233   1.424 -0.4083  0.3121  0.6434
  494MOL0     H65198   4.824  10.174   1.375 -0.8672  1.5608 -0.4209
  494MOL0     H65199   4.958  10.164   1.261 -0.2263 -2.4723  0.9216
  494MOL0     H65200   4.831   9.959   1.266 -0.2644  0.0086  1.0232
  494MOL0     H65201   4.687  10.047   1.183  0.4426 -0.0384 -0.1318
  494MOL0     H65202   4.964  10.052   1.084 -0.2954  0.6107 -0.9530
  494MOL0     H65203   4.831  10.096   0.984 -1.4810 -2.6798 -1.9750
  494MOL0     H65204   4.941   9.874   0.929  2.0804  0.3693  1.4587
  494MOL0     H65205   4.866   9.801   1.065  1.4472 -0.8744 -0.6294
  494MOL0     H65206   4.534   9.843   0.804  2.0040 -2.9327 -2.0299
  494MOL0     H65207   4.683  10.464   1.065 -0.0294  0.1441  1.0010
  494MOL0     H65208   4.477  10.560   1.097  0.7564 -1.0804 -1.1395
  495MOL0     O65209   2.691   0.798   6.772 -0.2474 -0.0706  0.6507
  495MOL0     C65210   2.710   0.677   6.781  0.3028  0.3630  0.4462
  495MOL0     O65211   2.649   0.580   6.703 -0.6984 -0.3368 -0.1318
  495MOL0     C65212   2.528   0.605   6.649 -0.2976  0.5393  0.4540
  495MOL0     C65213   2.506   0.549   6.521 -0.1351  0.0512 -0.4982
  495MOL0     C65214   2.384   0.563   6.455  0.5266 -0.7048  0.1338
  495MOL0     C65215   2.279   0.632   6.513 -0.1532 -0.3577 -1.0044
  495MOL0     O65216   2.145   0.643   6.469 -0.7673 -0.0096  0.2059
  495MOL0     C65217   2.098   0.548   6.374  1.0833  0.4989 -0.9402
  495MOL0     C65218   1.957   0.589   6.340  0.5661 -0.2457  0.6101
  495MOL0     C65219   1.902   0.505   6.223  0.3560 -0.8303  0.1934
  495MOL0     C65220   1.753   0.516   6.199  1.1784 -0.6284 -0.0639
  495MOL0     C65221   1.672   0.406   6.282 -0.1790 -0.2725  0.7637
  495MOL0     C65222   1.529   0.445   6.317  0.4639  0.0169  0.2522
  495MOL0     C65223   1.422   0.472   6.203  0.2229  0.4984 -0.1438
  495MOL0     C65224   1.289   0.546   6.237 -0.4151  0.7322  0.4430
  495MOL0     N65225   1.190   0.474   6.320 -1.4003  0.2309 -0.4363
  495MOL0     C65226   1.089   0.381   6.277 -0.6350  0.4186 -0.6106
  495MOL0     C65227   1.038   0.333   6.395  0.2300 -1.0378  0.4913
  495MOL0     C65228   0.943   0.220   6.403 -0.3637  0.1537  0.2006
  495MOL0     C65229   1.005   0.097   6.470 -0.5298 -0.8880 -0.8036
  495MOL0     C65230   0.890   0.019   6.532  0.8967  0.0756 -0.5113
  495MOL0     C65231   0.816  -0.090   6.441 -0.6375  0.5569 -0.1827
  495MOL0     O65232   0.725  -0.024   6.358  0.2677  0.2699  0.6995
  495MOL0     C65233   0.599   0.004   6.415  0.0804 -0.2879  0.0274
  495MOL0     C65234   0.559  -0.024   6.557 -0.7207 -1.1348  0.6016
  495MOL0     C65235   0.432   0.005   6.600  0.1649  0.2349 -0.3042
  495MOL0     C65236   0.338   0.072   6.508 -0.7430  0.4678  0.3491
  495MOL0     C65237   0.195   0.108   6.543 -0.1010  0.3345 -0.0395
  495MOL0     O65238   0.116   0.152   6.440 -0.0279  0.0887 -0.5085
  495MOL0     C65239  -0.003   0.203   6.469 -0.1722 -0.2059 -0.5190
  495MOL0     C65240  -0.021   0.344   6.468  0.2288  0.1950  0.6767
  495MOL0     C65241  -0.147   0.393   6.507 -0.6011  0.0796 -0.4242
  495MOL0     C65242  -0.248   0.313   6.545 -1.0492  0.0690 -0.0396
  495MOL0     O65243  -0.361   0.385   6.587 -0.1229  0.2334 -0.1410
  495MOL0     C65244  -0.471   0.310   6.647  0.3437  0.4655  0.1071
  495MOL0     C65245  -0.578   0.241   6.549 -0.1262  0.4105 -0.4820
  495MOL0     C65246  -0.724   0.276   6.596 -0.1235  0.4882  0.1286
  495MOL0     C65247  -0.821   0.207   6.498  0.1179 -0.2263  0.2281
  495MOL0     C65248  -0.970   0.266   6.494  0.0253  0.2344 -0.3585
  495MOL0     C65249  -1.050   0.195   6.386  0.9164  0.9347  0.9091
  495MOL0     C65250  -1.197   0.215   6.418 -0.0498  0.3862  0.1008
  495MOL0     C65251  -1.278   0.125   6.320  0.3548 -0.2809 -0.1427
  495MOL0    Cl65252  -1.442   0.164   6.372 -0.1194 -0.0638  0.4866
  495MOL0     C65253  -0.235   0.169   6.532  0.4080 -0.3999 -0.1883
  495MOL0     C65254  -0.111   0.112   6.490  1.0704 -0.2829  0.8963
  495MOL0     O65255   0.164   0.090   6.664 -0.2343 -0.1663 -0.3921
  495MOL0     C65256   0.382   0.102   6.373 -0.1237 -0.0660  0.2111
  495MOL0     C65257   0.512   0.066   6.336  0.1116  0.3425  0.3428
  495MOL0     N65258   1.092   0.414   6.491 -0.4197 -0.7751 -0.4767
  495MOL0     N65259   1.180   0.501   6.448 -0.2363  0.3094 -0.3940
  495MOL0     C65260   2.310   0.701   6.632 -0.7437  0.1933  0.1486
  495MOL0     C65261   2.433   0.691   6.704  0.7374 -0.8836  1.6840
  495MOL0     C65262   2.808   0.630   6.883  0.6060  0.2250  1.4220
  495MOL0     C65263   2.820   0.488   6.909 -0.3099  0.3492 -0.3092
  495MOL0     C65264   2.925   0.458   6.993 -0.3597  0.0438 -0.2990
  495MOL0     C65265   3.009   0.544   7.046 -0.7745 -1.8097 -0.3078
  495MOL0     O65266   3.113   0.499   7.120 -0.8640  0.5269 -0.8388
  495MOL0     C65267   3.239   0.557   7.084  0.7574  0.0999 -0.1920
  495MOL0     C65268   3.352   0.445   7.088  0.1365  0.3809 -0.0868
  495MOL0     C65269   3.491   0.480   7.038 -0.1611  0.5473  0.4460
  495MOL0     C65270   3.602   0.401   7.110 -0.1349  0.2695  0.2697
  495MOL0     C65271   3.716   0.377   7.022  1.1370  0.3245  0.0466
  495MOL0     C65272   3.817   0.358   6.956 -0.5334  0.5164  0.7633
  495MOL0     C65273   2.996   0.679   7.020  0.7882 -0.1889  0.7441
  495MOL0     C65274   2.896   0.727   6.941 -0.8949 -0.0186 -0.5947
  495MOL0     H65275   2.585   0.489   6.477  0.7632  1.8241 -1.4082
  495MOL0     H65276   2.365   0.523   6.356 -0.5268  3.3124 -1.4614
  495MOL0     H65277   2.085   0.452   6.423 -4.3292  2.1898  1.7499
  495MOL0     H65278   2.164   0.531   6.288  0.5288  0.2083 -1.3187
  495MOL0     H65279   1.967   0.695   6.313  1.9584 -0.6230 -0.4717
  495MOL0     H65280   1.885   0.581   6.422 -1.0075 -1.3870 -0.8262
  495MOL0     H65281   1.919   0.401   6.251  1.6291 -0.1928  1.9179
  495MOL0     H65282   1.945   0.527   6.125 -3.3085  2.4247 -0.9546
  495MOL0     H65283   1.703   0.610   6.223  1.9332 -0.8893  2.9761
  495MOL0     H65284   1.719   0.480   6.101 -2.8669 -3.6248  2.1580
  495MOL0     H65285   1.722   0.383   6.377  1.9503 -0.4100 -0.3292
  495MOL0     H65286   1.671   0.312   6.226  1.1597  0.7609 -1.1062
  495MOL0     H65287   1.525   0.537   6.376  1.1852 -1.1732  2.2524
  495MOL0     H65288   1.492   0.371   6.388 -5.7683  2.2545 -0.0402
  495MOL0     H65289   1.466   0.536   6.126 -0.9336  0.1628 -1.1340
  495MOL0     H65290   1.400   0.371   6.167  1.7403  0.8781 -2.2847
  495MOL0     H65291   1.238   0.575   6.145 -0.2959  0.9539  0.4458
  495MOL0     H65292   1.331   0.632   6.290 -2.2620  1.9419  0.0415
  495MOL0     H65293   1.065   0.348   6.176 -0.3299 -1.1565 -0.1915
  495MOL0     H65294   0.908   0.182   6.307 -0.1145 -2.5860  1.1079
  495MOL0     H65295   0.859   0.267   6.455  0.1311  3.1350 -1.5014
  495MOL0     H65296   1.076   0.123   6.549 -0.5180 -1.1736 -0.7184
  495MOL0     H65297   1.060   0.034   6.399 -2.8671 -3.4363 -0.5327
  495MOL0     H65298   0.943  -0.026   6.616  1.8998  0.3706 -0.9654
  495MOL0     H65299   0.813   0.084   6.574 -0.0143 -2.7029  2.5565
  495MOL0     H65300   0.765  -0.161   6.507  1.1487  0.8409  1.5923
  495MOL0     H65301   0.892  -0.142   6.382  0.7014  1.3301  0.8110
  495MOL0     H65302   0.624  -0.063   6.635 -0.1438 -0.9481  0.2209
  495MOL0     H65303   0.406  -0.017   6.703  1.8099  0.9469  0.2979
  495MOL0     H65304   0.060   0.407   6.431 -1.2268 -0.0060 -3.3066
  495MOL0     H65305  -0.168   0.498   6.521 -2.3242 -0.4376  1.3159
  495MOL0     H65306  -0.528   0.381   6.708  2.6390  1.4483  1.2760
  495MOL0     H65307  -0.431   0.222   6.698 -2.1878 -0.5797  0.4044
  495MOL0     H65308  -0.564   0.133   6.553 -2.2129  0.1464  1.5031
  495MOL0     H65309  -0.560   0.290   6.453 -3.0967  1.8511 -0.4237
  495MOL0     H65310  -0.740   0.383   6.579  0.9049  0.9134  1.6454
  495MOL0     H65311  -0.730   0.237   6.698 -0.0359 -3.2481 -1.1179
  495MOL0     H65312  -0.792   0.226   6.395  0.9307  0.0338  0.4987
  495MOL0     H65313  -0.828   0.101   6.522  1.2877  0.3096  3.5025
  495MOL0     H65314  -0.976   0.372   6.466  1.4751 -0.4961 -3.9407
  495MOL0     H65315  -1.009   0.236   6.592  0.6965  0.1589 -0.1091
  495MOL0     H65316  -1.023   0.089   6.399  1.1127  0.7959 -0.4205
  495MOL0     H65317  -1.011   0.230   6.290 -1.7260  2.2659  0.2296
  495MOL0     H65318  -1.214   0.180   6.520 -1.4409  0.9075  0.0681
  495MOL0     H65319  -1.217   0.322   6.404  3.9844  1.3871  0.6238
  495MOL0     H65320  -1.252   0.019   6.336  0.4217 -0.3118 -0.4586
  495MOL0     H65321  -1.268   0.156   6.216 -1.2337 -1.5088 -0.6879
  495MOL0     H65322  -0.304   0.096   6.574 -1.1653  0.3491 -1.3964
  495MOL0     H65323  -0.093   0.006   6.476 -0.3790 -0.4216 -0.1359
  495MOL0     H65324   0.318   0.149   6.299  0.5576  1.9326  0.8029
  495MOL0     H65325   0.544   0.103   6.240  0.9227  3.0733  1.5858
  495MOL0     H65326   2.225   0.757   6.672  0.2201  0.9311  1.2318
  495MOL0     H65327   2.443   0.748   6.796 -1.8777  1.0778  0.8492
  495MOL0     H65328   2.755   0.421   6.854 -0.5469  3.3767 -4.1644
  495MOL0     H65329   2.958   0.355   7.002  1.4579  0.7243  1.5076
  495MOL0     H65330   3.264   0.650   7.136 -2.5436  0.7632  0.4264
  495MOL0     H65331   3.238   0.591   6.980  1.0521  0.4906 -0.0677
  495MOL0     H65332   3.354   0.410   7.192 -1.0092 -1.3577 -0.5991
  495MOL0     H65333   3.316   0.353   7.041 -3.4023  2.5147 -1.9780
  495MOL0     H65334   3.508   0.588   7.034  2.4172  0.1512 -2.0052
  495MOL0     H65335   3.485   0.447   6.934  0.3889  0.6461  0.3816
  495MOL0     H65336   3.613   0.469   7.195 -2.5180 -0.9021  1.6151
  495MOL0     H65337   3.572   0.303   7.148  1.6110 -0.2921  0.3012
  495MOL0     H65338   3.899   0.326   6.895 -2.7885  0.0915 -2.2580
  495MOL0     H65339   3.064   0.754   7.060  1.8918  0.0526 -1.4460
  495MOL0     H65340   2.879   0.830   6.911 -1.3842  0.0712 -0.0357
  496MOL0     O65341   2.568   9.059   5.946  0.0271  0.2777 -0.4070
  496MOL0     C65342   2.501   9.146   5.883 -1.1793  0.6775 -0.7100
  496MOL0     O65343   2.539   9.275   5.866 -0.0572 -0.0347 -0.1688
  496MOL0     C65344   2.658   9.321   5.913 -0.1363  0.1640 -0.2076
  496MOL0     C65345   2.781   9.253   5.885  0.4823  0.2898 -0.2564
  496MOL0     C65346   2.908   9.313   5.920  0.1400 -1.4133 -0.4072
  496MOL0     C65347   2.906   9.433   5.981  0.1027 -0.0292  0.2365
  496MOL0     O65348   3.034   9.460   6.023 -0.2221  0.2447  0.4856
  496MOL0     C65349   3.050   9.597   6.060  0.1092 -0.6188  0.1460
  496MOL0     C65350   3.193   9.648   6.063 -0.3285 -0.8823 -0.2486
  496MOL0     C65351   3.263   9.649   5.925  0.1440  0.5268 -0.6477
  496MOL0     C65352   3.414   9.642   5.959 -0.8333 -0.5980  0.3192
  496MOL0     C65353   3.501   9.677   5.836 -0.0383  0.2424  0.5747
  496MOL0     C65354   3.647   9.636   5.852 -0.2336  0.5096 -0.4313
  496MOL0     C65355   3.709   9.656   5.991  0.1478  0.0180  0.3872
  496MOL0     C65356   3.731   9.800   6.035  0.3542  0.2362 -0.4114
  496MOL0     N65357   3.828   9.868   5.953 -0.8953  0.7663 -0.6630
  496MOL0     C65358   3.815   9.991   5.894  0.1169  0.6016  0.2137
  496MOL0     C65359   3.936  10.016   5.833 -0.1072  0.0966 -0.2424
  496MOL0     C65360   3.952  10.138   5.739 -0.0057 -0.1345  0.1588
  496MOL0     C65361   4.015  10.112   5.602  0.4469  0.3724  0.6054
  496MOL0     C65362   3.910  10.085   5.488 -1.1256  0.8884 -0.0393
  496MOL0     C65363   3.841   9.955   5.511  0.2348  1.0316 -0.3506
  496MOL0     O65364   3.717   9.987   5.566 -0.2721  1.5247  0.0155
  496MOL0     C65365   3.601   9.906   5.533 -0.9410 -1.4451 -0.3271
  496MOL0     C65366   3.613   9.776   5.480  0.1365  0.4631  0.7599
  496MOL0     C65367   3.498   9.693   5.481 -0.6097  0.3113 -0.1489
  496MOL0     C65368   3.375   9.747   5.512  0.5428 -0.0276  0.0995
  496MOL0     C65369   3.249   9.671   5.494 -0.9376  1.1442  0.5966
  496MOL0     O65370   3.132   9.715   5.551  0.4088 -0.0978 -0.3166
  496MOL0     C65371   3.018   9.647   5.517  0.3179 -0.7169 -0.4970
  496MOL0     C65372   2.933   9.617   5.628 -0.4387 -0.1717  0.6464
  496MOL0     C65373   2.817   9.547   5.601 -0.1163  0.4074 -0.4201
  496MOL0     C65374   2.768   9.540   5.473 -0.2094  0.6042  0.1623
  496MOL0     O65375   2.656   9.478   5.426  1.0117  0.1563 -0.6415
  496MOL0     C65376   2.544   9.532   5.502 -0.7761  0.2018  0.5203
  496MOL0     C65377   2.411   9.483   5.444 -0.5095  0.5152 -0.6037
  496MOL0     C65378   2.287   9.536   5.508  0.3462 -0.6106 -0.1372
  496MOL0     C65379   2.159   9.460   5.465 -1.0909  0.0263  0.1608
  496MOL0     C65380   2.137   9.479   5.309  0.2521  0.3532 -0.4218
  496MOL0     C65381   1.984   9.451   5.277 -0.0420 -0.4587 -0.3925
  496MOL0     C65382   1.967   9.467   5.121 -1.0600  0.0489  0.0080
  496MOL0     C65383   1.834   9.436   5.056  0.7394  0.1741  0.0047
  496MOL0    Cl65384   1.835   9.456   4.885 -0.3111  0.1208  0.1170
  496MOL0     C65385   2.851   9.582   5.370 -0.0775  0.2128 -0.2386
  496MOL0     C65386   2.980   9.626   5.386  0.3753 -0.9799 -0.0501
  496MOL0     O65387   3.266   9.556   5.445 -0.1847  0.0037  0.6253
  496MOL0     C65388   3.367   9.881   5.550  0.1798 -0.2101 -0.4568
  496MOL0     C65389   3.482   9.962   5.560 -0.2812 -0.0692 -0.9008
  496MOL0     N65390   4.025   9.905   5.846  0.5282 -0.2733  1.5719
  496MOL0     N65391   3.956   9.815   5.922  0.4925  0.1446 -0.6675
  496MOL0     C65392   2.782   9.512   6.000  0.1363  0.2721 -0.8200
  496MOL0     C65393   2.661   9.452   5.965 -0.6991 -0.2440  0.5605
  496MOL0     C65394   2.365   9.115   5.833 -0.4327  0.3543  0.0355
  496MOL0     C65395   2.314   8.988   5.808  0.3889 -0.5983  0.0277
  496MOL0     C65396   2.183   8.953   5.760 -0.6274 -0.3323 -0.1204
  496MOL0     C65397   2.102   9.061   5.730  0.6500  0.1966  0.1443
  496MOL0     O65398   1.981   9.036   5.665 -1.0139  0.2479  0.2567
  496MOL0     C65399   1.912   9.136   5.592  0.1086 -0.1007 -0.1963
  496MOL0     C65400   1.789   9.068   5.512  0.0629 -0.2232 -0.7033
  496MOL0     C65401   1.740   9.162   5.399 -0.1702  0.4050  0.2491
  496MOL0     C65402   1.694   9.303   5.449 -0.1434  0.6318 -1.2001
  496MOL0     C65403   1.619   9.358   5.335 -0.6698  0.5222  1.0295
  496MOL0     C65404   1.574   9.391   5.227  0.9991  0.4679  0.1927
  496MOL0     C65405   2.151   9.193   5.749  0.4917  0.5538 -0.4720
  496MOL0     C65406   2.273   9.220   5.806  0.0232  0.4306 -1.1530
  496MOL0     H65407   2.783   9.151   5.847  0.1853  0.6103 -1.1525
  496MOL0     H65408   2.998   9.252   5.924  1.7186  0.7107 -1.8969
  496MOL0     H65409   2.996   9.622   6.152  1.3651  1.9946  0.2386
  496MOL0     H65410   3.013   9.652   5.973  0.6588  0.9489  0.8748
  496MOL0     H65411   3.250   9.578   6.125  0.8234 -0.1926 -0.5008
  496MOL0     H65412   3.199   9.744   6.115 -0.9655 -1.7084  1.4423
  496MOL0     H65413   3.237   9.740   5.871  1.7042  2.6186  1.8982
  496MOL0     H65414   3.241   9.566   5.856  0.8102  2.6122 -3.5529
  496MOL0     H65415   3.438   9.708   6.044  1.5708  0.0780 -0.7944
  496MOL0     H65416   3.437   9.538   5.985  0.6408 -0.8237 -1.6992
  496MOL0     H65417   3.504   9.786   5.827  3.5853  0.0504 -4.0779
  496MOL0     H65418   3.459   9.615   5.757 -0.1355  0.7491  0.2253
  496MOL0     H65419   3.705   9.696   5.780 -1.1579  0.5631 -1.1470
  496MOL0     H65420   3.657   9.530   5.826  1.0714  0.4904  0.0541
  496MOL0     H65421   3.653   9.595   6.062  1.2122 -2.5347 -0.8325
  496MOL0     H65422   3.802   9.599   6.000  0.1821  0.1087  0.6240
  496MOL0     H65423   3.764   9.780   6.137 -2.2320  1.9692  0.8738
  496MOL0     H65424   3.636   9.855   6.030  0.2921  0.0900 -0.9837
  496MOL0     H65425   3.727  10.053   5.885 -1.2824 -1.4325 -0.8246
  496MOL0     H65426   4.009  10.215   5.791 -1.4917  1.3434 -0.3114
  496MOL0     H65427   3.849  10.171   5.728 -0.8034 -2.0400  1.4062
  496MOL0     H65428   4.083  10.028   5.617  0.5756  0.1184 -1.2411
  496MOL0     H65429   4.071  10.199   5.566 -0.7873  0.4305 -1.2774
  496MOL0     H65430   3.831  10.160   5.476 -1.0097  1.1240  0.5980
  496MOL0     H65431   3.957  10.085   5.390 -0.0021  0.4903  0.4845
  496MOL0     H65432   3.904   9.891   5.573  0.8157  1.7930 -0.1313
  496MOL0     H65433   3.839   9.909   5.412  2.4235 -0.4045  0.2202
  496MOL0     H65434   3.709   9.730   5.459 -0.4321 -0.4379  0.0366
  496MOL0     H65435   3.501   9.588   5.451  0.4142  0.3201 -0.1393
  496MOL0     H65436   2.978   9.636   5.724  1.1408  0.6581 -0.2128
  496MOL0     H65437   2.766   9.497   5.682  1.6625 -0.6960  0.0806
  496MOL0     H65438   2.550   9.641   5.503  1.7984  0.1750  3.0573
  496MOL0     H65439   2.560   9.508   5.608  0.0982  3.4528  1.2422
  496MOL0     H65440   2.411   9.375   5.463  2.2399  0.4582 -0.5264
  496MOL0     H65441   2.403   9.499   5.336 -1.0389 -1.0961 -0.8427
  496MOL0     H65442   2.281   9.645   5.503  1.9318 -0.5286 -0.7922
  496MOL0     H65443   2.306   9.522   5.615  3.3496 -0.5659 -0.5719
  496MOL0     H65444   2.165   9.356   5.496  0.1734  0.2569  0.7727
  496MOL0     H65445   2.074   9.504   5.517 -2.0331  1.0182 -2.0884
  496MOL0     H65446   2.201   9.415   5.248  1.9556  0.7115  0.9152
  496MOL0     H65447   2.161   9.580   5.276 -1.7503  1.0353  0.0496
  496MOL0     H65448   1.907   9.509   5.329 -1.2040 -2.9483  0.8864
  496MOL0     H65449   1.974   9.343   5.297  1.7390 -0.6889 -0.6451
  496MOL0     H65450   1.995   9.568   5.089 -0.4581 -0.5639 -1.4544
  496MOL0     H65451   2.050   9.405   5.087  2.8869  3.2099  2.8573
  496MOL0     H65452   1.760   9.508   5.091 -0.8706 -0.5246 -1.8186
  496MOL0     H65453   1.816   9.335   5.095 -0.1980  1.4060  3.1153
  496MOL0     H65454   2.832   9.563   5.265  0.2128  1.3033 -0.5053
  496MOL0     H65455   3.037   9.645   5.296 -2.5517 -0.0614 -1.8315
  496MOL0     H65456   3.265   9.911   5.573  0.1570  0.1875 -1.0576
  496MOL0     H65457   3.473  10.063   5.599  0.3200  0.2892 -1.6508
  496MOL0     H65458   2.776   9.612   6.041 -1.6857  1.2373 -3.1511
  496MOL0     H65459   2.573   9.514   5.971 -0.6598  0.1022 -1.5902
  496MOL0     H65460   2.381   8.906   5.831  1.7176  0.0031 -1.5700
  496MOL0     H65461   2.149   8.851   5.744 -2.1027  0.1122  0.0136
  496MOL0     H65462   1.971   9.189   5.518  1.7403 -2.8879 -1.0558
  496MOL0     H65463   1.878   9.217   5.657  1.1609  2.0638 -2.2205
  496MOL0     H65464   1.830   8.979   5.465  0.0369 -0.4001 -0.3947
  496MOL0     H65465   1.701   9.044   5.573 -0.6984 -1.2716 -2.1666
  496MOL0     H65466   1.653   9.124   5.346  1.1259  0.8017 -2.3083
  496MOL0     H65467   1.827   9.175   5.335 -1.4563  1.4625 -1.3556
  496MOL0     H65468   1.632   9.300   5.538 -1.6164 -1.2338 -2.2103
  496MOL0     H65469   1.780   9.369   5.462 -0.3644  0.8154 -0.6793
  496MOL0     H65470   1.549   9.425   5.129  1.0639 -3.8538 -1.5520
  496MOL0     H65471   2.085   9.273   5.718 -2.5910 -1.8235 -0.5717
  496MOL0     H65472   2.310   9.321   5.818 -0.4210  0.3127  2.3567
  497MOL0     O65473   4.867   4.165   7.149 -0.2692  1.1296  0.3182
  497MOL0     C65474   4.815   4.162   7.032  0.1799  0.2583  0.7163
  497MOL0     O65475   4.685   4.149   6.991  0.1112 -0.0709  0.2721
  497MOL0     C65476   4.595   4.138   7.096  0.1498 -0.4869 -0.4024
  497MOL0     C65477   4.510   4.246   7.126 -0.7956  0.2005 -0.1291
  497MOL0     C65478   4.414   4.235   7.214  1.0183 -0.7059 -0.0586
  497MOL0     C65479   4.380   4.122   7.283  0.6021 -0.2983 -0.2597
  497MOL0     O65480   4.278   4.131   7.377 -0.8081  0.5547 -0.3647
  497MOL0     C65481   4.249   4.018   7.448  0.9821 -0.5656 -1.2887
  497MOL0     C65482   4.130   4.033   7.545  0.2754 -0.7967  0.4769
  497MOL0     C65483   4.158   4.138   7.645  0.0490 -0.6533  0.0905
  497MOL0     C65484   4.064   4.158   7.755 -0.1167  0.4727 -0.0202
  497MOL0     C65485   3.929   4.210   7.711  0.2989 -0.8920 -0.5008
  497MOL0     C65486   3.826   4.175   7.821  0.9890 -0.2812 -0.0106
  497MOL0     C65487   3.680   4.229   7.785 -0.0720 -0.2247 -1.1312
  497MOL0     C65488   3.660   4.375   7.776 -0.0388 -0.3068  0.0931
  497MOL0     N65489   3.526   4.413   7.728  0.3672  0.2016 -0.7048
  497MOL0     C65490   3.411   4.439   7.800 -0.1263 -0.1260 -0.3059
  497MOL0     C65491   3.315   4.399   7.715  0.2640  0.5736 -0.4674
  497MOL0     C65492   3.172   4.389   7.747  0.4508  1.0451 -0.0131
  497MOL0     C65493   3.145   4.474   7.880 -0.4145  1.5106 -0.1776
  497MOL0     C65494   2.984   4.470   7.891  0.0624  0.1667 -0.0694
  497MOL0     C65495   2.935   4.548   8.008  0.0477 -0.3032 -1.7463
  497MOL0     O65496   2.957   4.471   8.135  0.6191 -0.4354 -0.4936
  497MOL0     C65497   2.858   4.503   8.226 -0.1130 -0.3770 -0.2711
  497MOL0     C65498   2.885   4.580   8.334 -0.4357 -0.0063 -0.0325
  497MOL0     C65499   2.802   4.595   8.434  0.8327  0.0248  0.1960
  497MOL0     C65500   2.679   4.529   8.434  0.6906 -0.0489 -1.0061
  497MOL0     C65501   2.581   4.543   8.548  0.3607  0.3670 -0.2533
  497MOL0     O65502   2.634   4.573   8.670 -0.0870 -0.0251 -0.4687
  497MOL0     C65503   2.556   4.599   8.778  0.2999 -0.5530 -0.8548
  497MOL0     C65504   2.487   4.502   8.853 -0.9607  0.5567 -0.8171
  497MOL0     C65505   2.421   4.520   8.979 -1.0877  0.4194  0.3371
  497MOL0     C65506   2.416   4.647   9.037 -0.3785 -0.7756 -0.4498
  497MOL0     O65507   2.354   4.671   9.155 -0.5977 -0.3831  0.1911
  497MOL0     C65508   2.379   4.794   9.223  1.1354  0.3849  0.2771
  497MOL0     C65509   2.306   4.777   9.358 -0.3862  0.3542 -0.7041
  497MOL0     C65510   2.327   4.894   9.452 -0.5856 -0.4305  0.7261
  497MOL0     C65511   2.301   5.031   9.373  0.3710  0.9388 -0.4521
  497MOL0     C65512   2.261   5.141   9.464  0.5542  0.0808  0.3773
  497MOL0     C65513   2.368   5.180   9.559  0.2933 -0.5726 -0.0351
  497MOL0     C65514   2.304   5.299   9.640 -0.2816  0.0732 -0.2561
  497MOL0     C65515   2.404   5.363   9.737 -0.2346  0.0158  0.3423
  497MOL0    Cl65516   2.336   5.497   9.836  0.2610 -0.2682  0.1664
  497MOL0     C65517   2.489   4.745   8.967 -0.0489  0.4535 -0.6670
  497MOL0     C65518   2.557   4.725   8.849  0.3791  0.4499  0.4355
  497MOL0     O65519   2.461   4.544   8.517  0.1053 -0.2944  0.5091
  497MOL0     C65520   2.643   4.458   8.324 -0.4413  0.6655 -0.8034
  497MOL0     C65521   2.735   4.442   8.222 -0.8798  0.0076  0.3555
  497MOL0     N65522   3.366   4.369   7.593  0.2120  0.6297  0.4572
  497MOL0     N65523   3.497   4.378   7.605  0.9462 -0.0641  0.4075
  497MOL0     C65524   4.465   4.013   7.260  0.3166  0.5727 -1.0292
  497MOL0     C65525   4.573   4.025   7.170  1.1238 -0.2871 -1.2306
  497MOL0     C65526   4.907   4.184   6.924  0.4729  0.0690 -0.1799
  497MOL0     C65527   5.040   4.144   6.931  0.1909 -0.3107 -0.0265
  497MOL0     C65528   5.119   4.162   6.818  0.0977 -0.7267 -0.6240
  497MOL0     C65529   5.072   4.214   6.698  0.5685  0.8017 -0.3429
  497MOL0     O65530   5.166   4.207   6.595  0.1412 -0.2514 -0.7086
  497MOL0     C65531   5.135   4.246   6.465  0.3100 -0.5316  0.2650
  497MOL0     C65532   5.264   4.265   6.381  0.6585 -0.2810 -0.2840
  497MOL0     C65533   5.362   4.157   6.382  0.1813 -0.1065  0.3562
  497MOL0     C65534   5.500   4.201   6.426 -0.4179 -0.3771 -0.4321
  497MOL0     C65535   5.601   4.105   6.389 -0.6953 -0.7801 -0.3504
  497MOL0     C65536   5.679   4.019   6.379 -0.0986  0.5106  0.5396
  497MOL0     C65537   4.941   4.254   6.694 -0.0809  0.1344 -1.1305
  497MOL0     C65538   4.862   4.243   6.812  0.1416 -0.9540  0.7494
  497MOL0     H65539   4.538   4.340   7.079  2.2279 -0.7407 -0.3742
  497MOL0     H65540   4.357   4.325   7.238  1.9089  0.2284 -1.3069
  497MOL0     H65541   4.341   3.989   7.500 -0.6130 -2.8386  0.4389
  497MOL0     H65542   4.214   3.942   7.377 -5.1778  0.9778 -0.4381
  497MOL0     H65543   4.111   3.943   7.605 -2.0734  1.3677  3.2852
  497MOL0     H65544   4.039   4.054   7.489  1.5046  1.3217 -0.8340
  497MOL0     H65545   4.155   4.234   7.593 -1.3987  1.2115  3.2714
  497MOL0     H65546   4.259   4.120   7.684 -0.2107  1.6821  2.0732
  497MOL0     H65547   4.033   4.061   7.794 -0.2078  0.2723 -0.5771
  497MOL0     H65548   4.100   4.215   7.840 -1.2559 -1.5152  1.8929
  497MOL0     H65549   3.906   4.164   7.614  1.9150 -2.1997 -0.3251
  497MOL0     H65550   3.934   4.318   7.694 -1.2350 -0.9510 -1.4913
  497MOL0     H65551   3.866   4.216   7.914  0.6301 -0.2653  0.1372
  497MOL0     H65552   3.819   4.066   7.832 -1.6719 -0.8098 -4.6119
  497MOL0     H65553   3.637   4.177   7.699 -0.9919 -3.0516  0.8499
  497MOL0     H65554   3.618   4.201   7.871  0.0594 -2.0197 -1.5796
  497MOL0     H65555   3.737   4.421   7.714 -0.5008  2.3747  1.3775
  497MOL0     H65556   3.664   4.416   7.877  1.7908 -2.3829  0.9283
  497MOL0     H65557   3.395   4.458   7.906 -0.6389  0.8885 -0.5622
  497MOL0     H65558   3.147   4.283   7.764 -1.6233  1.6441  1.0927
  497MOL0     H65559   3.106   4.421   7.666 -2.2567  0.5049  1.8058
  497MOL0     H65560   3.181   4.578   7.881  1.5646  0.8532  0.5949
  497MOL0     H65561   3.177   4.424   7.972 -0.6086  2.3687  0.3742
  497MOL0     H65562   2.937   4.515   7.804  0.9559  0.9103 -0.1827
  497MOL0     H65563   2.954   4.366   7.907 -0.3086  0.5766  2.2595
  497MOL0     H65564   2.831   4.582   7.997  1.1809  5.6716  1.5747
  497MOL0     H65565   2.977   4.646   8.030  1.4191 -1.6815  3.1217
  497MOL0     H65566   2.984   4.622   8.345 -0.8426  1.0782 -0.4292
  497MOL0     H65567   2.826   4.650   8.525  2.0570 -2.3166  1.3806
  497MOL0     H65568   2.485   4.403   8.809  1.6598  0.8306 -1.7087
  497MOL0     H65569   2.360   4.441   9.022 -0.8198 -0.8034 -1.4008
  497MOL0     H65570   2.348   4.883   9.168  0.2338 -1.0800 -1.6991
  497MOL0     H65571   2.485   4.791   9.251  1.4590 -2.7974 -0.9232
  497MOL0     H65572   2.350   4.692   9.411 -2.0790 -0.5310 -0.6355
  497MOL0     H65573   2.200   4.758   9.338 -1.0749  2.4955  0.6429
  497MOL0     H65574   2.432   4.895   9.485 -0.6099  0.7408  0.7994
  497MOL0     H65575   2.257   4.882   9.535  0.6840 -2.0603  1.6225
  497MOL0     H65576   2.398   5.053   9.327  1.4760 -1.1488  0.6977
  497MOL0     H65577   2.228   5.020   9.293  2.4415 -1.0695 -2.2370
  497MOL0     H65578   2.167   5.118   9.515  1.7073 -0.3240  2.4105
  497MOL0     H65579   2.244   5.228   9.400  0.5197  1.0587  1.6764
  497MOL0     H65580   2.456   5.226   9.513 -0.6268 -0.4337 -1.7167
  497MOL0     H65581   2.406   5.098   9.620 -0.4226 -0.2455  0.8819
  497MOL0     H65582   2.280   5.367   9.558  1.0167  1.1533  0.2168
  497MOL0     H65583   2.219   5.265   9.699 -1.4049  2.7017 -0.2213
  497MOL0     H65584   2.491   5.408   9.689  0.5787 -1.4973  0.3183
  497MOL0     H65585   2.435   5.276   9.797 -0.0760  0.1489  0.4527
  497MOL0     H65586   2.511   4.844   9.005  1.4191  1.5297 -3.9113
  497MOL0     H65587   2.614   4.811   8.815 -0.0244  0.8524  0.7700
  497MOL0     H65588   2.557   4.394   8.334  0.9099 -1.0567  0.5498
  497MOL0     H65589   2.727   4.369   8.143  0.6661 -0.0877  0.2605
  497MOL0     H65590   4.453   3.922   7.318 -1.9111  1.8650  0.7158
  497MOL0     H65591   4.631   3.935   7.154  0.5709 -0.7839 -0.5172
  497MOL0     H65592   5.092   4.115   7.022 -0.1710 -0.6329  0.0765
  497MOL0     H65593   5.220   4.127   6.835  0.6999  0.6434 -1.1747
  497MOL0     H65594   5.075   4.338   6.465 -2.6546 -2.3126 -0.7164
  497MOL0     H65595   5.081   4.173   6.403  2.5615  0.0065 -2.5526
  497MOL0     H65596   5.224   4.282   6.280 -0.1695  0.7825  0.2048
  497MOL0     H65597   5.313   4.359   6.407 -0.9926  2.2175 -4.9979
  497MOL0     H65598   5.355   4.109   6.284  2.1368  1.4960 -0.6508
  497MOL0     H65599   5.328   4.089   6.461  1.6885  1.0996  2.1493
  497MOL0     H65600   5.527   4.292   6.372 -2.2923 -2.3048 -5.2434
  497MOL0     H65601   5.509   4.223   6.533  2.9580  0.5821 -0.8105
  497MOL0     H65602   5.737   3.931   6.357 -0.3902 -0.2591  2.6006
  497MOL0     H65603   4.889   4.284   6.604  0.6791  2.9014 -0.7280
  497MOL0     H65604   4.766   4.288   6.789  1.6232  0.4193 -3.8949
  498MOL0     O65605   4.138   4.002   1.147 -0.3406 -0.4161 -0.2388
  498MOL0     C65606   4.223   3.914   1.130  1.2297 -0.5266  0.8714
  498MOL0     O65607   4.199   3.780   1.112  0.0316 -1.3398 -0.2058
  498MOL0     C65608   4.068   3.727   1.119  0.3348 -0.7503 -0.5761
  498MOL0     C65609   4.058   3.608   1.189  0.4849 -0.0724 -0.2011
  498MOL0     C65610   3.939   3.537   1.194  0.4428  0.2551 -0.6003
  498MOL0     C65611   3.823   3.588   1.140  0.6256  0.1737 -0.1816
  498MOL0     O65612   3.706   3.519   1.152  0.6079  0.1112  0.2599
  498MOL0     C65613   3.610   3.544   1.048  0.0925 -0.1666  0.6758
  498MOL0     C65614   3.498   3.430   1.067 -0.3274  0.3379  0.5122
  498MOL0     C65615   3.408   3.435   0.942 -0.4813  0.3560 -0.8636
  498MOL0     C65616   3.266   3.414   0.970  0.5378  0.2958  0.3920
  498MOL0     C65617   3.187   3.421   0.837  0.1453  0.0257 -0.3049
  498MOL0     C65618   3.035   3.425   0.851  0.4281 -0.2937  0.7200
  498MOL0     C65619   2.978   3.305   0.916 -0.2855  0.7062 -0.9863
  498MOL0     C65620   2.829   3.328   0.956 -0.8356 -1.4477  0.1230
  498MOL0     N65621   2.735   3.357   0.845  0.4237 -0.1328 -0.3004
  498MOL0     C65622   2.653   3.268   0.781  0.7533  0.4997 -0.7227
  498MOL0     C65623   2.540   3.338   0.735 -0.1235  0.3765  0.8478
  498MOL0     C65624   2.430   3.276   0.654  0.3497  0.3292 -0.2996
  498MOL0     C65625   2.322   3.228   0.748 -0.5960  0.2507 -0.2069
  498MOL0     C65626   2.251   3.331   0.832  0.4830 -0.7538  0.8213
  498MOL0     C65627   2.187   3.448   0.747 -0.0440 -0.4684 -0.1695
  498MOL0     O65628   2.079   3.375   0.678 -0.4699 -0.4430 -0.2674
  498MOL0     C65629   1.956   3.417   0.693  0.7016 -0.0502  0.8359
  498MOL0     C65630   1.905   3.536   0.648 -0.2390  0.0974 -0.5359
  498MOL0     C65631   1.770   3.564   0.634 -0.0737  0.7440 -0.6688
  498MOL0     C65632   1.676   3.477   0.686 -0.1288 -0.1351 -0.0864
  498MOL0     C65633   1.534   3.519   0.698  0.1798  0.3037 -0.5711
  498MOL0     O65634   1.477   3.491   0.814  0.0241 -0.4607 -0.3255
  498MOL0     C65635   1.348   3.531   0.860  0.0437  0.8294 -0.0005
  498MOL0     C65636   1.291   3.454   0.962 -0.2484 -0.2226 -0.5509
  498MOL0     C65637   1.156   3.477   1.001 -0.3509  0.3704  0.2187
  498MOL0     C65638   1.077   3.573   0.936 -0.4430  0.5304 -0.6744
  498MOL0     O65639   0.941   3.552   0.965 -0.3702 -0.6385  0.3194
  498MOL0     C65640   0.842   3.584   0.864 -0.1543 -0.0032 -0.3805
  498MOL0     C65641   0.728   3.487   0.891 -0.7432 -0.4182  0.3069
  498MOL0     C65642   0.638   3.469   0.770  1.1210 -0.4904  0.0265
  498MOL0     C65643   0.557   3.339   0.779 -0.3050 -0.2199  0.2611
  498MOL0     C65644   0.493   3.281   0.649 -0.4321 -0.0112  0.4955
  498MOL0     C65645   0.442   3.385   0.552  0.7005 -1.2098 -0.8577
  498MOL0     C65646   0.375   3.320   0.431 -0.5853 -0.3722  0.8635
  498MOL0     C65647   0.308   3.429   0.350 -0.2814 -0.4365  0.3315
  498MOL0    Cl65648   0.418   3.551   0.264 -0.1647 -0.1175  0.2941
  498MOL0     C65649   1.144   3.659   0.842  0.8041 -0.1938  0.4065
  498MOL0     C65650   1.281   3.651   0.819 -0.3888  0.2064 -0.2688
  498MOL0     O65651   1.486   3.596   0.613  0.1028  0.1417  0.2148
  498MOL0     C65652   1.719   3.350   0.726  0.4189 -0.2579  0.1403
  498MOL0     C65653   1.856   3.319   0.727  0.4784  0.0125  0.3160
  498MOL0     N65654   2.578   3.470   0.736  0.2246 -0.2323  0.5252
  498MOL0     N65655   2.691   3.485   0.808 -0.3210  0.7526  0.1969
  498MOL0     C65656   3.832   3.713   1.073 -0.0521  0.2728 -0.7420
  498MOL0     C65657   3.954   3.780   1.067 -0.0694 -0.1710  0.4732
  498MOL0     C65658   4.361   3.964   1.102  0.0601  0.0809  1.0341
  498MOL0     C65659   4.381   4.091   1.040  0.6035 -0.2420  0.0910
  498MOL0     C65660   4.504   4.145   1.008 -0.5235  0.3288  0.6225
  498MOL0     C65661   4.619   4.073   1.030  0.7996 -0.4151 -0.2769
  498MOL0     O65662   4.739   4.101   0.985  0.1114  1.0957  0.3315
  498MOL0     C65663   4.773   4.209   0.904  0.1564 -0.0124 -0.7581
  498MOL0     C65664   4.771   4.156   0.753  0.2967 -0.3225 -0.8837
  498MOL0     C65665   4.835   4.258   0.662  0.5448  0.0969  0.7850
  498MOL0     C65666   4.770   4.253   0.520 -0.5385  1.0083  0.1825
  498MOL0     C65667   4.829   4.135   0.448 -0.4164 -0.2275  0.1902
  498MOL0     C65668   4.872   4.051   0.372  0.1868  0.3052 -0.7254
  498MOL0     C65669   4.603   3.943   1.090 -0.2423  1.0423 -0.1361
  498MOL0     C65670   4.479   3.884   1.115 -0.2052 -0.1476  0.2096
  498MOL0     H65671   4.154   3.567   1.215  0.5167 -1.7435 -2.6125
  498MOL0     H65672   3.938   3.439   1.242 -1.3216  0.9712  0.9395
  498MOL0     H65673   3.657   3.544   0.949 -1.1807 -0.6162  0.0491
  498MOL0     H65674   3.553   3.635   1.069  0.6734  0.3358  0.1340
  498MOL0     H65675   3.442   3.464   1.154  0.9201  0.5618  1.2636
  498MOL0     H65676   3.546   3.333   1.085  2.7102  1.7822  0.9078
  498MOL0     H65677   3.441   3.364   0.866 -2.5970  0.4190 -1.9146
  498MOL0     H65678   3.417   3.537   0.903  0.5973  0.9520  0.8012
  498MOL0     H65679   3.258   3.315   1.017  0.7337 -0.1256 -0.4506
  498MOL0     H65680   3.223   3.483   1.043  0.8937 -1.3597  2.2714
  498MOL0     H65681   3.209   3.342   0.765  0.9552  0.9688 -1.1200
  498MOL0     H65682   3.221   3.509   0.781  3.3123 -0.1017  1.2109
  498MOL0     H65683   2.999   3.438   0.748  1.5178 -1.8005  0.1014
  498MOL0     H65684   3.011   3.510   0.915  4.0277 -0.6422  2.7848
  498MOL0     H65685   2.983   3.222   0.846  0.3971  1.4519 -1.8406
  498MOL0     H65686   3.035   3.284   1.007 -1.8251 -2.7048 -0.6630
  498MOL0     H65687   2.824   3.418   1.018 -0.2091  0.1368 -1.9935
  498MOL0     H65688   2.807   3.247   1.026 -1.0013 -1.6796 -0.1977
  498MOL0     H65689   2.674   3.162   0.789  0.4933  0.5687  1.3117
  498MOL0     H65690   2.469   3.191   0.597 -0.0642  0.0976 -0.2356
  498MOL0     H65691   2.400   3.348   0.578  0.7457  1.3966  0.5248
  498MOL0     H65692   2.367   3.149   0.809 -1.1408  0.3199  0.2842
  498MOL0     H65693   2.243   3.175   0.694  0.8254 -0.7817 -1.3784
  498MOL0     H65694   2.168   3.285   0.887 -0.3024  1.8890  2.0300
  498MOL0     H65695   2.312   3.384   0.906 -0.5041  0.2841  0.9332
  498MOL0     H65696   2.261   3.501   0.687 -1.9280  2.3180 -0.1972
  498MOL0     H65697   2.150   3.524   0.817  2.2971 -0.9310  1.6882
  498MOL0     H65698   1.973   3.611   0.610  0.6121  0.3056  1.3131
  498MOL0     H65699   1.743   3.668   0.614 -0.4460  0.9447  0.7177
  498MOL0     H65700   1.348   3.370   1.001  0.6904 -0.0408 -1.4740
  498MOL0     H65701   1.107   3.410   1.071  0.4827  0.5032  0.9402
  498MOL0     H65702   0.885   3.566   0.765 -0.3326 -0.8760 -0.3078
  498MOL0     H65703   0.807   3.686   0.885  1.7270  0.1242  2.8599
  498MOL0     H65704   0.671   3.514   0.980 -1.6133 -1.4770  0.0815
  498MOL0     H65705   0.775   3.390   0.908  0.9148  0.8037  3.4706
  498MOL0     H65706   0.700   3.459   0.681  0.4949 -2.7536 -0.2316
  498MOL0     H65707   0.562   3.548   0.770  0.0942 -1.3917 -2.4199
  498MOL0     H65708   0.633   3.267   0.812  0.4157  0.7037  0.6710
  498MOL0     H65709   0.473   3.346   0.848  0.8811  0.9732  1.6768
  498MOL0     H65710   0.409   3.215   0.675 -0.3189 -0.7777 -0.9874
  498MOL0     H65711   0.566   3.221   0.593 -1.7127 -0.0276 -1.2568
  498MOL0     H65712   0.515   3.458   0.517 -3.0776  2.8612 -1.1548
  498MOL0     H65713   0.359   3.438   0.600 -0.2107 -2.6310 -0.7768
  498MOL0     H65714   0.440   3.264   0.364  0.4086  1.9061 -0.1487
  498MOL0     H65715   0.283   3.268   0.459 -2.3007  1.9885 -0.0467
  498MOL0     H65716   0.242   3.483   0.418 -1.4556  0.2272 -1.2839
  498MOL0     H65717   0.234   3.390   0.279 -0.5336  3.5500 -1.8384
  498MOL0     H65718   1.100   3.743   0.789  3.5105 -1.2756 -4.1332
  498MOL0     H65719   1.326   3.725   0.754  1.7572 -0.6981  0.0702
  498MOL0     H65720   1.644   3.276   0.753  0.0474 -0.7044 -1.9904
  498MOL0     H65721   1.883   3.217   0.751  1.1922  0.7585  2.9629
  498MOL0     H65722   3.749   3.762   1.023 -2.2228 -1.8482  0.5394
  498MOL0     H65723   3.957   3.870   1.005 -1.3740 -1.9937 -2.4338
  498MOL0     H65724   4.286   4.141   1.026  0.1824 -0.4832  1.8743
  498MOL0     H65725   4.510   4.239   0.954  2.2129 -0.5505 -0.7981
  498MOL0     H65726   4.877   4.236   0.927  0.0916  0.9087 -1.5046
  498MOL0     H65727   4.719   4.300   0.929 -1.1464 -0.7031 -0.9978
  498MOL0     H65728   4.821   4.060   0.742  3.6126  0.7105  2.7905
  498MOL0     H65729   4.665   4.146   0.727 -0.3053  1.1191  0.7952
  498MOL0     H65730   4.940   4.229   0.662 -0.5992 -4.8258 -0.2308
  498MOL0     H65731   4.824   4.355   0.712 -0.8740 -0.2666  1.2333
  498MOL0     H65732   4.661   4.253   0.529 -0.7427  3.5789 -1.4447
  498MOL0     H65733   4.792   4.343   0.462  0.7369  0.7453  0.2226
  498MOL0     H65734   4.908   3.989   0.293 -0.0225  0.0459 -0.6166
  498MOL0     H65735   4.681   3.870   1.114  0.9421  2.2218 -0.3056
  498MOL0     H65736   4.468   3.787   1.163  0.4378 -1.8020 -2.7988
  499MOL0     O65737   7.523   0.465   8.144 -0.1455 -0.2696  0.2267
  499MOL0     C65738   7.535   0.581   8.156 -0.9496  0.2153  0.0427
  499MOL0     O65739   7.435   0.666   8.150  0.0945  0.0253 -0.0314
  499MOL0     C65740   7.305   0.611   8.132 -0.5557  0.2966  1.0575
  499MOL0     C65741   7.225   0.691   8.046 -0.3984  0.8625 -1.0895
  499MOL0     C65742   7.085   0.667   8.040  0.3021  0.1701 -0.1050
  499MOL0     C65743   7.023   0.571   8.108  0.6196  0.1054 -0.5127
  499MOL0     O65744   6.890   0.573   8.099  0.1888  0.4254  0.1857
  499MOL0     C65745   6.841   0.451   8.044  0.3863  0.2857 -0.0566
  499MOL0     C65746   6.711   0.484   7.969 -0.5376  0.2932  0.2323
  499MOL0     C65747   6.586   0.446   8.043  0.7856 -0.2045 -0.7046
  499MOL0     C65748   6.462   0.478   7.957  0.5985  0.7423 -0.5672
  499MOL0     C65749   6.338   0.498   8.044  0.7603  0.3884  0.8821
  499MOL0     C65750   6.218   0.562   7.969 -0.1674 -0.0983  0.9149
  499MOL0     C65751   6.090   0.569   8.049 -0.3749  0.7147 -0.3903
  499MOL0     C65752   5.984   0.613   7.954  0.7503  0.0386 -0.6333
  499MOL0     N65753   5.861   0.664   8.025 -0.2557  0.2700 -0.1005
  499MOL0     C65754   5.856   0.782   8.100  0.7759 -0.0010 -0.0626
  499MOL0     C65755   5.731   0.776   8.155 -0.1987  0.5319 -0.7852
  499MOL0     C65756   5.672   0.877   8.248 -0.5606  0.0092  0.8537
  499MOL0     C65757   5.592   0.819   8.375 -0.4417  0.1361  0.1572
  499MOL0     C65758   5.536   0.940   8.453  0.0504 -0.8357 -0.6748
  499MOL0     C65759   5.484   0.899   8.589 -0.4467  0.0440  0.1608
  499MOL0     O65760   5.346   0.879   8.576  0.0279 -0.6267  0.0049
  499MOL0     C65761   5.272   0.880   8.693  0.6292 -0.2926  0.1820
  499MOL0     C65762   5.256   0.994   8.774  0.2961 -0.6185 -0.4785
  499MOL0     C65763   5.185   0.991   8.890 -0.1142  0.7976  0.3443
  499MOL0     C65764   5.117   0.863   8.920 -0.4546 -0.1855 -0.1684
  499MOL0     C65765   5.023   0.859   9.034  0.4091  0.3742  0.1166
  499MOL0     O65766   4.969   0.732   9.068  0.1177  1.0096  0.2409
  499MOL0     C65767   4.836   0.726   9.127 -1.1995 -0.4610 -0.6610
  499MOL0     C65768   4.798   0.593   9.167 -1.0663 -0.9586 -0.3506
  499MOL0     C65769   4.668   0.575   9.207 -0.2526  0.0967 -0.4302
  499MOL0     C65770   4.574   0.673   9.221 -0.3102  0.1988  0.9818
  499MOL0     O65771   4.454   0.640   9.278  0.2846 -0.4007  0.1830
  499MOL0     C65772   4.379   0.731   9.353 -0.0471 -0.0863 -0.3534
  499MOL0     C65773   4.274   0.658   9.448  0.3373 -0.6951 -0.5524
  499MOL0     C65774   4.158   0.749   9.493  0.2138  0.0507 -0.5992
  499MOL0     C65775   4.080   0.668   9.599 -1.0854 -0.5179  0.2859
  499MOL0     C65776   3.984   0.750   9.687  0.2685 -0.4115 -0.8148
  499MOL0     C65777   3.926   0.660   9.789 -0.2583  0.2767 -0.5849
  499MOL0     C65778   3.817   0.721   9.890  0.4181  0.3587  0.5944
  499MOL0     C65779   3.862   0.832   9.982  0.4726  0.3575 -0.3813
  499MOL0    Cl65780   3.719   0.870  10.080 -0.5817 -0.1450  0.3188
  499MOL0     C65781   4.611   0.807   9.196  1.1209  0.3021  0.5573
  499MOL0     C65782   4.741   0.832   9.145 -0.4159  1.3705 -0.8670
  499MOL0     O65783   5.015   0.963   9.106  0.2146 -0.3045 -0.4586
  499MOL0     C65784   5.126   0.752   8.830  0.8157 -0.0420 -0.0316
  499MOL0     C65785   5.197   0.766   8.714  0.6754 -0.2050 -0.8519
  499MOL0     N65786   5.670   0.652   8.120  0.6659  0.1813 -0.2280
  499MOL0     N65787   5.748   0.591   8.040  0.2846 -0.5053 -0.3181
  499MOL0     C65788   7.104   0.488   8.190  0.6086 -0.9753  0.9939
  499MOL0     C65789   7.243   0.504   8.193 -0.2834 -0.0245  0.4232
  499MOL0     C65790   7.668   0.653   8.161 -0.0519  0.2687 -0.1319
  499MOL0     C65791   7.683   0.791   8.133  0.2259 -1.0013  0.1183
  499MOL0     C65792   7.806   0.851   8.134  0.1210  0.5346  0.1450
  499MOL0     C65793   7.926   0.776   8.145 -0.7490 -1.2804  0.0785
  499MOL0     O65794   8.052   0.834   8.131  0.5069  0.0549  0.4986
  499MOL0     C65795   8.080   0.969   8.163  0.7172 -0.1784 -0.1452
  499MOL0     C65796   8.210   1.012   8.102 -0.3562  0.2293  1.0380
  499MOL0     C65797   8.339   0.950   8.160 -0.1917 -0.0325  0.5928
  499MOL0     C65798   8.459   0.999   8.077 -0.0621  0.0569 -0.6141
  499MOL0     C65799   8.493   1.140   8.108 -0.7637  0.9368  0.0096
  499MOL0     C65800   8.499   1.259   8.131 -0.7273  0.2037  0.9489
  499MOL0     C65801   7.910   0.637   8.166  0.3600 -0.5533  0.4955
  499MOL0     C65802   7.783   0.580   8.170 -0.6807  0.6255 -0.4707
  499MOL0     H65803   7.278   0.766   7.989  1.5595 -0.6578 -1.3786
  499MOL0     H65804   7.021   0.732   7.982  0.1358  0.2438  0.1612
  499MOL0     H65805   6.838   0.366   8.112 -0.8667 -0.2657 -0.7701
  499MOL0     H65806   6.905   0.413   7.963 -2.0471  0.8833 -2.4096
  499MOL0     H65807   6.711   0.425   7.877  0.2912 -0.3809  0.6555
  499MOL0     H65808   6.695   0.589   7.944  1.3001  0.5952  0.2398
  499MOL0     H65809   6.579   0.499   8.138 -2.1179 -0.8467 -0.4767
  499MOL0     H65810   6.581   0.345   8.084  1.1945 -0.2861 -0.8511
  499MOL0     H65811   6.476   0.569   7.898 -2.5488  1.4962 -0.3182
  499MOL0     H65812   6.450   0.393   7.890 -0.2607  0.1505  0.3083
  499MOL0     H65813   6.366   0.564   8.127 -1.7266  3.3247 -0.4299
  499MOL0     H65814   6.299   0.405   8.086 -0.5391  0.9616  1.0026
  499MOL0     H65815   6.197   0.505   7.879  2.1896 -0.1848  0.3493
  499MOL0     H65816   6.248   0.665   7.948  0.2752  0.1736  2.6524
  499MOL0     H65817   6.070   0.477   8.103  1.4085  1.0364  0.8962
  499MOL0     H65818   6.097   0.645   8.127  0.3747  0.3659 -0.1068
  499MOL0     H65819   5.948   0.529   7.895 -0.0704  0.2190 -0.4065
  499MOL0     H65820   6.003   0.701   7.891  0.4106  1.3355  0.9824
  499MOL0     H65821   5.935   0.854   8.121  1.3934 -1.8025  5.1582
  499MOL0     H65822   5.604   0.939   8.189  1.9852  0.5353 -1.7651
  499MOL0     H65823   5.745   0.945   8.292 -1.4894  1.7257 -0.1286
  499MOL0     H65824   5.661   0.767   8.442  1.2722 -0.2360 -1.8086
  499MOL0     H65825   5.501   0.766   8.346  0.0167 -0.8581  0.5101
  499MOL0     H65826   5.614   1.013   8.477 -1.0190 -0.4846  2.0448
  499MOL0     H65827   5.453   0.997   8.409 -1.1150 -0.6720  1.6243
  499MOL0     H65828   5.497   0.979   8.663  2.1684 -0.5511  0.4313
  499MOL0     H65829   5.525   0.804   8.623 -2.3226 -1.7187 -2.2161
  499MOL0     H65830   5.303   1.086   8.741  0.0074 -0.5506 -0.7047
  499MOL0     H65831   5.178   1.072   8.962 -0.1259  0.9221  0.2025
  499MOL0     H65832   4.854   0.500   9.159  0.4171 -0.1139  0.0097
  499MOL0     H65833   4.624   0.479   9.229  0.6463 -0.8286 -2.4481
  499MOL0     H65834   4.327   0.804   9.291 -2.3737  1.4116  3.0599
  499MOL0     H65835   4.446   0.799   9.406 -2.3760  0.8366  1.5548
  499MOL0     H65836   4.336   0.637   9.536 -0.1005  1.4891  0.3265
  499MOL0     H65837   4.243   0.569   9.391  1.2356  0.1625 -2.4914
  499MOL0     H65838   4.093   0.776   9.410  0.3559 -1.7040 -1.3252
  499MOL0     H65839   4.199   0.843   9.530  1.1253 -0.0753 -1.2653
  499MOL0     H65840   4.034   0.584   9.547  0.5595 -2.4583  1.7878
  499MOL0     H65841   4.155   0.621   9.665 -0.2739 -1.1843 -1.0686
  499MOL0     H65842   3.896   0.786   9.631  0.4106  0.3609 -0.5548
  499MOL0     H65843   4.036   0.836   9.729  0.6451 -0.8941 -0.2854
  499MOL0     H65844   4.005   0.615   9.849  0.2399  1.5282 -0.2834
  499MOL0     H65845   3.880   0.576   9.735 -2.7014 -0.7727  2.8146
  499MOL0     H65846   3.726   0.743   9.834  1.1393 -0.6256 -1.0406
  499MOL0     H65847   3.788   0.635   9.950  0.7088 -0.7553 -0.7920
  499MOL0     H65848   3.899   0.917   9.924  1.0523 -0.7161 -1.6385
  499MOL0     H65849   3.947   0.797  10.042  1.1229 -0.1186 -1.5548
  499MOL0     H65850   4.545   0.891   9.216 -1.7521 -1.8347  0.6488
  499MOL0     H65851   4.757   0.936   9.118 -0.8673  1.5435 -0.4800
  499MOL0     H65852   5.078   0.656   8.848 -0.1437  0.8640  2.8608
  499MOL0     H65853   5.204   0.682   8.646  3.2325 -0.5378 -0.2843
  499MOL0     H65854   7.051   0.421   8.257 -0.1476  0.9889  2.4773
  499MOL0     H65855   7.290   0.444   8.271 -2.0778  1.6912  2.9764
  499MOL0     H65856   7.592   0.847   8.113  1.6087  0.6809 -1.8808
  499MOL0     H65857   7.801   0.954   8.099  1.3885  0.3267 -0.6804
  499MOL0     H65858   8.070   0.981   8.271 -2.6836  1.2113 -0.4735
  499MOL0     H65859   8.007   1.029   8.108  1.1906  0.9237  0.4005
  499MOL0     H65860   8.210   0.987   7.995 -1.0788  2.0009  0.5762
  499MOL0     H65861   8.229   1.120   8.110  1.1137 -0.0751  1.9386
  499MOL0     H65862   8.337   0.841   8.151  0.3377 -0.0065  0.1051
  499MOL0     H65863   8.351   0.969   8.267  1.3111  0.7471  0.3098
  499MOL0     H65864   8.537   0.934   8.118 -2.0851 -0.7982  2.1863
  499MOL0     H65865   8.449   0.998   7.968 -1.0603  1.1698 -0.5397
  499MOL0     H65866   8.494   1.364   8.155  0.1371  0.3326  0.5830
  499MOL0     H65867   7.990   0.564   8.169  0.6057 -0.3360 -0.4344
  499MOL0     H65868   7.777   0.472   8.180  1.6411  0.3872 -1.0850
  500MOL0     O65869  10.546   8.100   8.903 -0.4740 -0.2101  0.2941
  500MOL0     C65870  10.603   8.006   8.844  0.5475  0.1340 -0.8367
  500MOL0     O65871  10.549   7.882   8.834 -0.4919  0.2875  0.7171
  500MOL0     C65872  10.409   7.867   8.823 -0.1148  0.5859  0.1406
  500MOL0     C65873  10.342   7.941   8.724  1.0116  0.8157  0.4492
  500MOL0     C65874  10.206   7.921   8.696  0.0804 -0.1467 -1.1821
  500MOL0     C65875  10.143   7.824   8.774 -0.3395 -0.9051  0.5971
  500MOL0     O65876  10.020   7.776   8.738 -0.2611  0.1013 -0.3324
  500MOL0     C65877   9.940   7.847   8.654 -0.7000 -0.1100  0.9542
  500MOL0     C65878   9.795   7.811   8.659  0.7541  0.5677 -0.2071
  500MOL0     C65879   9.706   7.902   8.577  0.1126 -0.6933 -1.2804
  500MOL0     C65880   9.549   7.869   8.583 -0.1378 -0.0256  0.6011
  500MOL0     C65881   9.479   7.941   8.461  0.2040  0.4706  0.1049
  500MOL0     C65882   9.334   7.883   8.453 -0.2447 -0.3322 -0.1178
  500MOL0     C65883   9.240   7.933   8.566  0.3020  0.8944 -0.4158
  500MOL0     C65884   9.097   7.881   8.560  0.2867  0.8110  0.4254
  500MOL0     N65885   9.017   7.945   8.662 -0.7515  1.0502  0.2490
  500MOL0     C65886   8.914   8.031   8.644 -0.2567 -0.5470 -0.3105
  500MOL0     C65887   8.886   8.089   8.762 -0.3269  0.1065  0.0448
  500MOL0     C65888   8.811   8.211   8.804 -0.2895 -0.2632 -0.2852
  500MOL0     C65889   8.735   8.272   8.687 -0.4168 -0.8671 -0.2307
  500MOL0     C65890   8.713   8.423   8.699 -0.0646  0.9596 -0.1154
  500MOL0     C65891   8.622   8.477   8.587  0.3016 -0.3040  0.3360
  500MOL0     O65892   8.486   8.440   8.617  0.0634  0.4590  0.1235
  500MOL0     C65893   8.390   8.481   8.533  0.4381  0.2759 -0.5774
  500MOL0     C65894   8.277   8.404   8.534 -0.1307  0.8050  0.6555
  500MOL0     C65895   8.173   8.407   8.439 -0.7760  0.4150 -0.0613
  500MOL0     C65896   8.180   8.513   8.342  0.3621 -0.3056  0.6077
  500MOL0     C65897   8.081   8.525   8.235  0.1103  0.6648 -0.0738
  500MOL0     O65898   8.112   8.618   8.140  0.6449 -0.1435 -0.0994
  500MOL0     C65899   8.047   8.623   8.020 -0.0790  0.1750 -1.3058
  500MOL0     C65900   8.133   8.647   7.919  0.5552 -0.0531  0.7785
  500MOL0     C65901   8.086   8.649   7.783  0.3289 -0.4190 -0.3414
  500MOL0     C65902   7.943   8.641   7.763  0.8826  0.2252 -0.3811
  500MOL0     O65903   7.898   8.636   7.635 -0.4001 -0.3110  0.7360
  500MOL0     C65904   7.888   8.760   7.565 -0.1643 -0.4591  0.3093
  500MOL0     C65905   7.977   8.741   7.441  0.0236  0.1307  1.0243
  500MOL0     C65906   7.994   8.862   7.352 -0.0816 -0.3083  0.0330
  500MOL0     C65907   8.089   8.830   7.229 -0.3932  0.1657  0.1336
  500MOL0     C65908   8.066   8.946   7.130  0.3634 -1.6090  0.5795
  500MOL0     C65909   8.159   8.950   7.003 -1.7226  0.0112  0.2141
  500MOL0     C65910   8.137   9.080   6.928  0.1929  0.7026 -0.7968
  500MOL0     C65911   8.164   9.067   6.781 -0.0397  0.0314  0.9023
  500MOL0    Cl65912   8.323   8.981   6.742 -0.1394 -0.1782  0.3737
  500MOL0     C65913   7.857   8.623   7.874 -0.3103  0.0211  0.4461
  500MOL0     C65914   7.904   8.603   8.002 -0.0343 -0.0470  0.0806
  500MOL0     O65915   8.009   8.428   8.220 -0.1749  0.0933  0.7434
  500MOL0     C65916   8.297   8.601   8.349  0.7434  0.3851  0.4212
  500MOL0     C65917   8.399   8.585   8.442  0.0545  0.1098 -0.4167
  500MOL0     N65918   8.972   8.023   8.855  0.1186  0.1612 -0.8915
  500MOL0     N65919   9.052   7.939   8.795  0.0364  0.5628  0.1783
  500MOL0     C65920  10.203   7.755   8.881 -0.0024  0.7100 -0.4810
  500MOL0     C65921  10.344   7.768   8.899  0.4571  0.6636  0.1348
  500MOL0     C65922  10.735   8.034   8.805  0.3809  0.0991  0.8945
  500MOL0     C65923  10.813   8.153   8.834 -0.0264 -0.0685 -0.7467
  500MOL0     C65924  10.937   8.183   8.783  0.5930 -0.0248 -0.5366
  500MOL0     C65925  11.001   8.096   8.692 -0.3192  0.1281  0.2946
  500MOL0     O65926  11.127   8.103   8.648 -0.4739  1.0053 -0.4965
  500MOL0     C65927  11.191   8.232   8.671 -0.8051  0.6859 -0.7976
  500MOL0     C65928  11.283   8.232   8.791 -0.8438  0.3999  0.5752
  500MOL0     C65929  11.422   8.174   8.759 -0.4249  0.0423 -0.4103
  500MOL0     C65930  11.509   8.201   8.884  0.0259 -0.1490 -0.3133
  500MOL0     C65931  11.632   8.124   8.877  0.3921 -0.6964 -0.2899
  500MOL0     C65932  11.733   8.056   8.867  0.9704  0.1271  0.0084
  500MOL0     C65933  10.924   7.981   8.669 -0.2989 -1.0186  0.2981
  500MOL0     C65934  10.803   7.945   8.723 -0.4933 -0.2637  0.0366
  500MOL0     H65935  10.364   8.025   8.659 -1.1010 -1.4106 -3.5549
  500MOL0     H65936  10.158   7.959   8.606  0.1772 -2.1423 -2.1392
  500MOL0     H65937   9.972   7.839   8.549  0.1565  2.3070  0.9515
  500MOL0     H65938   9.932   7.952   8.684 -2.6407 -0.7517  2.9018
  500MOL0     H65939   9.761   7.814   8.763  0.3935 -1.9930 -0.1912
  500MOL0     H65940   9.772   7.709   8.628 -1.5665  0.7863  0.5725
  500MOL0     H65941   9.741   7.896   8.473  4.0767 -1.1418 -0.0804
  500MOL0     H65942   9.720   8.008   8.602  1.0598 -1.1141  0.1099
  500MOL0     H65943   9.539   7.761   8.573 -3.9425  0.3644 -2.0232
  500MOL0     H65944   9.495   7.901   8.672 -0.5132 -1.7073  1.0119
  500MOL0     H65945   9.530   7.904   8.372  0.6039  1.0811  0.0707
  500MOL0     H65946   9.490   8.049   8.474 -0.8690  0.4807  1.1013
  500MOL0     H65947   9.339   7.774   8.457  2.1223 -0.2346  1.4653
  500MOL0     H65948   9.290   7.925   8.362 -0.2669  2.0392  0.9069
  500MOL0     H65949   9.298   7.889   8.647 -0.0327 -0.7577 -1.0270
  500MOL0     H65950   9.233   8.042   8.563  1.8948  1.0716  0.8761
  500MOL0     H65951   9.100   7.773   8.575 -1.0138  0.9282  1.7029
  500MOL0     H65952   9.069   7.900   8.456  0.9920  2.0837  0.4401
  500MOL0     H65953   8.862   8.057   8.552 -0.8957 -0.7121 -0.0020
  500MOL0     H65954   8.886   8.284   8.837  0.8014 -0.6414 -1.8001
  500MOL0     H65955   8.741   8.195   8.887  0.1804  0.8748  0.3631
  500MOL0     H65956   8.636   8.226   8.689 -1.8352  2.0088  0.0660
  500MOL0     H65957   8.792   8.257   8.595  0.9993  2.7870 -0.1067
  500MOL0     H65958   8.680   8.454   8.799 -2.1886 -1.6130  0.0895
  500MOL0     H65959   8.807   8.479   8.698 -0.6597  1.9846 -0.2036
  500MOL0     H65960   8.662   8.443   8.492  2.9271 -0.0792  1.2862
  500MOL0     H65961   8.623   8.586   8.584 -0.8743 -0.2956 -0.5068
  500MOL0     H65962   8.261   8.331   8.613  0.7617  2.3026  2.2787
  500MOL0     H65963   8.085   8.345   8.441 -0.6680  0.2419 -0.5669
  500MOL0     H65964   8.238   8.653   7.943  1.0665  1.4566 -1.4765
  500MOL0     H65965   8.158   8.678   7.707 -0.2772 -0.0543 -0.7859
  500MOL0     H65966   7.918   8.844   7.628  0.6658 -1.4207  1.2489
  500MOL0     H65967   7.785   8.766   7.529 -0.6733  0.4451  1.8425
  500MOL0     H65968   7.929   8.658   7.388  0.1967  0.2395  0.6990
  500MOL0     H65969   8.073   8.701   7.476  0.7838  2.0451  1.2660
  500MOL0     H65970   8.031   8.944   7.415 -1.1465  0.5890 -0.4661
  500MOL0     H65971   7.895   8.893   7.317  1.7658  4.7644 -1.5795
  500MOL0     H65972   8.192   8.832   7.265  0.6049  3.1332 -2.4546
  500MOL0     H65973   8.039   8.741   7.190 -5.0124  1.5518  2.1340
  500MOL0     H65974   8.079   9.046   7.174 -0.9449  1.6461 -5.3717
  500MOL0     H65975   7.961   8.954   7.101  0.4955 -1.3104  0.1752
  500MOL0     H65976   8.132   8.866   6.938  1.3416  0.7193 -2.1968
  500MOL0     H65977   8.260   8.946   7.045 -0.8487  1.0374 -1.6438
  500MOL0     H65978   8.030   9.103   6.931 -0.2227 -0.2767 -4.2777
  500MOL0     H65979   8.196   9.160   6.973  2.6044 -1.7192  0.7016
  500MOL0     H65980   8.181   9.166   6.736  2.5638 -0.1796  1.2524
  500MOL0     H65981   8.083   9.018   6.727  1.9737 -1.1347 -1.2869
  500MOL0     H65982   7.749   8.621   7.866 -0.3573  2.7624 -0.9274
  500MOL0     H65983   7.837   8.587   8.086  0.5240  3.8630  1.5043
  500MOL0     H65984   8.307   8.678   8.272  1.1470 -0.4926 -0.4311
  500MOL0     H65985   8.489   8.645   8.430  1.5579 -2.2149 -1.6354
  500MOL0     H65986  10.148   7.671   8.922  1.3602 -1.0815 -2.1052
  500MOL0     H65987  10.401   7.709   8.970 -1.2106 -1.2346 -0.0437
  500MOL0     H65988  10.767   8.213   8.912 -1.8043 -0.5901 -1.3484
  500MOL0     H65989  10.988   8.273   8.817  1.0641  1.1493 -3.9845
  500MOL0     H65990  11.124   8.318   8.666 -2.9812 -0.7184  1.6604
  500MOL0     H65991  11.252   8.253   8.583 -0.7091 -1.0418 -1.1745
  500MOL0     H65992  11.294   8.332   8.834  1.5560 -0.0528  1.1893
  500MOL0     H65993  11.238   8.163   8.863 -0.6854 -1.6318 -1.1512
  500MOL0     H65994  11.458   8.218   8.666 -1.2764  2.3649  0.2887
  500MOL0     H65995  11.412   8.065   8.751 -1.3273 -0.0093  0.9621
  500MOL0     H65996  11.525   8.307   8.906 -3.4475  0.1031  1.7582
  500MOL0     H65997  11.453   8.172   8.973 -1.5585  0.1071 -1.1842
  500MOL0     H65998  11.800   7.977   8.838  0.5163  0.0607 -0.8992
  500MOL0     H65999  10.978   7.922   8.595  3.9608  0.8584  1.5605
  500MOL0     H66000  10.768   7.849   8.687  0.5306 -0.4408 -0.5242
  501MOL0     O66001   8.365   0.547   3.746  0.0953  0.3352  0.3019
  501MOL0     C66002   8.433   0.458   3.801 -0.3860  0.2000 -0.1980
  501MOL0     O66003   8.393   0.384   3.906  0.0313  1.2410 -0.1339
  501MOL0     C66004   8.265   0.380   3.954  0.0362 -0.2867  0.2766
  501MOL0     C66005   8.256   0.342   4.090 -0.3123 -0.1827  0.6611
  501MOL0     C66006   8.127   0.329   4.144  0.3532  0.4804  0.9092
  501MOL0     C66007   8.008   0.361   4.072 -0.3664  0.1741 -0.1908
  501MOL0     O66008   7.891   0.353   4.147  0.6541  0.2352 -0.6190
  501MOL0     C66009   7.808   0.461   4.122 -0.7172 -0.5921  0.4690
  501MOL0     C66010   7.669   0.468   4.199  0.0734 -0.0651 -0.2157
  501MOL0     C66011   7.694   0.464   4.354 -0.7196 -0.2859  0.3128
  501MOL0     C66012   7.578   0.529   4.429  0.4188  0.2022  0.0061
  501MOL0     C66013   7.595   0.551   4.575  0.7004  0.5269 -1.1658
  501MOL0     C66014   7.467   0.602   4.638 -0.8314  0.3803  0.1053
  501MOL0     C66015   7.338   0.506   4.625  0.0871 -0.5238 -0.3786
  501MOL0     C66016   7.369   0.365   4.666 -0.8564 -0.1320 -0.1149
  501MOL0     N66017   7.241   0.302   4.688  0.3441  0.0081  0.4185
  501MOL0     C66018   7.146   0.274   4.589  0.0548  0.6324 -1.0904
  501MOL0     C66019   7.037   0.247   4.663 -0.1036  1.0554  0.2021
  501MOL0     C66020   6.899   0.204   4.600 -0.2711 -1.1432 -0.7974
  501MOL0     C66021   6.856   0.095   4.701  0.1186  0.2691  0.7836
  501MOL0     C66022   6.716   0.043   4.661  0.2394  0.8182 -0.5591
  501MOL0     C66023   6.596   0.140   4.691 -0.2980  0.7889 -0.2798
  501MOL0     O66024   6.477   0.073   4.662 -0.1081  0.4926  0.5523
  501MOL0     C66025   6.364   0.154   4.655  0.1909  0.1134 -0.1970
  501MOL0     C66026   6.245   0.085   4.633 -0.6901  0.0647  0.5148
  501MOL0     C66027   6.122   0.147   4.616 -0.9990 -0.6030 -0.0902
  501MOL0     C66028   6.106   0.284   4.632  0.4174 -0.3008  0.3804
  501MOL0     C66029   5.963   0.341   4.641  0.0151 -0.0198  0.2504
  501MOL0     O66030   5.859   0.259   4.609  0.4362  0.6037 -0.6275
  501MOL0     C66031   5.724   0.296   4.629 -0.3317  1.0501 -0.3388
  501MOL0     C66032   5.673   0.420   4.588 -0.2826 -0.3781 -0.4468
  501MOL0     C66033   5.534   0.442   4.608 -0.3144 -0.3636  0.2498
  501MOL0     C66034   5.446   0.335   4.632 -0.0579 -0.5454 -0.8794
  501MOL0     O66035   5.307   0.352   4.625 -0.0724 -0.2251 -0.1974
  501MOL0     C66036   5.253   0.345   4.492 -0.0141 -0.4637 -0.3384
  501MOL0     C66037   5.105   0.366   4.491  0.4244 -0.0321 -0.4459
  501MOL0     C66038   5.049   0.496   4.549 -0.5669 -1.0456  0.6213
  501MOL0     C66039   4.910   0.526   4.484  0.2431  0.2775  0.8620
  501MOL0     C66040   4.849   0.657   4.534  0.1730 -0.0782 -0.7960
  501MOL0     C66041   4.732   0.695   4.442 -0.1272 -0.4495 -0.0146
  501MOL0     C66042   4.678   0.831   4.467 -0.0594 -0.0894 -0.6240
  501MOL0     C66043   4.556   0.862   4.380  0.3982 -0.0857 -0.2235
  501MOL0    Cl66044   4.406   0.772   4.436  0.1690  0.0226  0.0124
  501MOL0     C66045   5.503   0.211   4.665  0.5728  0.1987  0.3402
  501MOL0     C66046   5.637   0.192   4.668  0.3317  0.3007  0.4165
  501MOL0     O66047   5.943   0.449   4.689 -0.2371  0.1411 -0.2718
  501MOL0     C66048   6.229   0.355   4.658 -0.1103  0.1416 -0.0311
  501MOL0     C66049   6.352   0.292   4.663  0.3677 -0.1096  0.2045
  501MOL0     N66050   7.065   0.252   4.799 -0.6575 -0.1307 -0.0907
  501MOL0     N66051   7.189   0.286   4.810  0.1538 -0.3775  0.2665
  501MOL0     C66052   8.016   0.401   3.934  0.1314  0.4089 -0.1519
  501MOL0     C66053   8.146   0.400   3.882  0.4136 -0.3046 -0.1090
  501MOL0     C66054   8.568   0.435   3.745 -0.0335 -0.1815  0.1999
  501MOL0     C66055   8.626   0.525   3.653 -0.7471 -0.0649 -0.3632
  501MOL0     C66056   8.758   0.500   3.613  0.0107  0.3035  0.1470
  501MOL0     C66057   8.828   0.377   3.642 -0.0034 -0.4912  0.0945
  501MOL0     O66058   8.952   0.358   3.593 -0.3727  0.4119 -0.5590
  501MOL0     C66059   9.051   0.292   3.686  0.1355  0.9115 -0.3590
  501MOL0     C66060   9.080   0.380   3.804  0.3818 -0.0688  0.5168
  501MOL0     C66061   9.146   0.509   3.746  0.1477  0.4689 -0.0883
  501MOL0     C66062   9.194   0.596   3.864  0.3063  0.4490  0.4943
  501MOL0     C66063   9.226   0.732   3.812  0.0827 -0.4520 -0.2213
  501MOL0     C66064   9.264   0.844   3.774  1.7848  0.5068  0.8967
  501MOL0     C66065   8.760   0.280   3.719 -0.4837  0.7069  0.3142
  501MOL0     C66066   8.635   0.317   3.778 -0.3262  0.3296  0.1974
  501MOL0     H66067   8.353   0.314   4.129  0.1845 -0.8391 -0.9498
  501MOL0     H66068   8.128   0.309   4.251 -2.5351 -1.3652  0.7035
  501MOL0     H66069   7.780   0.462   4.016  1.5316  2.3869 -0.2187
  501MOL0     H66070   7.855   0.553   4.156  0.9614 -0.4424 -2.0179
  501MOL0     H66071   7.606   0.388   4.160  1.7765 -0.3569 -2.6234
  501MOL0     H66072   7.609   0.558   4.180  1.1663  0.3616 -1.9228
  501MOL0     H66073   7.784   0.521   4.380  1.4265 -2.2564 -2.2555
  501MOL0     H66074   7.719   0.363   4.385  1.0142  0.3350  1.0513
  501MOL0     H66075   7.551   0.628   4.391  3.0147  0.4924 -1.3087
  501MOL0     H66076   7.496   0.459   4.412  1.0586 -0.7554  0.7940
  501MOL0     H66077   7.674   0.626   4.583 -0.5783  1.8378 -0.4956
  501MOL0     H66078   7.630   0.454   4.611  2.1138  1.0681 -1.0182
  501MOL0     H66079   7.438   0.692   4.582 -2.5502 -0.6920 -0.8409
  501MOL0     H66080   7.494   0.630   4.740  2.4499  0.8608 -0.7793
  501MOL0     H66081   7.274   0.546   4.704 -0.1398  1.3942 -1.4728
  501MOL0     H66082   7.298   0.517   4.524  1.6345  0.0084 -0.9739
  501MOL0     H66083   7.423   0.377   4.761 -2.2692 -1.2294  0.8806
  501MOL0     H66084   7.431   0.298   4.605 -2.0260 -1.6369  0.2902
  501MOL0     H66085   7.153   0.255   4.483 -2.3777  0.3652 -1.2759
  501MOL0     H66086   6.920   0.165   4.500  0.2861 -1.4133 -0.5789
  501MOL0     H66087   6.831   0.289   4.602 -1.1886 -1.8602  1.6871
  501MOL0     H66088   6.852   0.128   4.805  0.1808  2.6043  0.0874
  501MOL0     H66089   6.928   0.012   4.704  1.0343  0.9150 -1.2356
  501MOL0     H66090   6.704   0.024   4.554 -1.4630  2.3592 -0.6930
  501MOL0     H66091   6.698  -0.050   4.714  0.3362 -0.0502 -2.0036
  501MOL0     H66092   6.619   0.225   4.625  2.8355 -1.2576 -2.0707
  501MOL0     H66093   6.599   0.173   4.795  1.6100  1.3240 -0.4575
  501MOL0     H66094   6.260  -0.021   4.621 -1.5270  0.1806 -2.1676
  501MOL0     H66095   6.044   0.073   4.596 -1.7387  0.3070 -0.6740
  501MOL0     H66096   5.737   0.506   4.571 -0.5132 -0.1680 -0.2800
  501MOL0     H66097   5.493   0.540   4.583 -3.4776 -1.6686 -0.0932
  501MOL0     H66098   5.277   0.244   4.460  1.6529 -1.1302  2.6428
  501MOL0     H66099   5.302   0.411   4.420 -1.0010  1.2560  0.4857
  501MOL0     H66100   5.060   0.280   4.543  0.2153  0.3093 -0.0568
  501MOL0     H66101   5.069   0.350   4.389 -2.3419  0.2870  0.4097
  501MOL0     H66102   5.119   0.577   4.527  0.3856 -1.7868  0.8464
  501MOL0     H66103   5.041   0.497   4.659 -0.3866  1.7352  0.7006
  501MOL0     H66104   4.927   0.517   4.376  2.2762  2.2130  0.9538
  501MOL0     H66105   4.841   0.443   4.503  1.0005 -0.4787  0.3646
  501MOL0     H66106   4.927   0.733   4.542  0.8383 -0.9232  1.4778
  501MOL0     H66107   4.809   0.646   4.635 -0.1572 -1.2696 -1.0491
  501MOL0     H66108   4.653   0.619   4.448 -1.3122  0.8460  1.7078
  501MOL0     H66109   4.769   0.684   4.340  2.1832 -1.3417  0.8496
  501MOL0     H66110   4.658   0.836   4.574  1.9581  1.0860 -0.2461
  501MOL0     H66111   4.759   0.902   4.449  1.0498 -1.6876 -2.3396
  501MOL0     H66112   4.565   0.835   4.274 -1.7122 -0.0104 -0.4589
  501MOL0     H66113   4.544   0.970   4.385  0.3104 -0.1470  1.2664
  501MOL0     H66114   5.446   0.120   4.683  0.8434 -0.0779 -0.1800
  501MOL0     H66115   5.691   0.102   4.695 -0.4336  0.2321  1.8301
  501MOL0     H66116   6.240   0.462   4.668  2.3513  0.0948 -1.4245
  501MOL0     H66117   6.440   0.353   4.678  0.7577 -0.7521  0.5823
  501MOL0     H66118   7.929   0.411   3.871 -0.8635  3.2751  1.4602
  501MOL0     H66119   8.165   0.419   3.777 -1.2391  1.1560 -0.1923
  501MOL0     H66120   8.584   0.617   3.616  0.4204  1.1202  1.1232
  501MOL0     H66121   8.820   0.567   3.556  2.5675  0.2726  2.6829
  501MOL0     H66122   9.150   0.273   3.644  0.3229  0.8776  0.0973
  501MOL0     H66123   9.023   0.190   3.714 -4.0201  0.9056 -3.4401
  501MOL0     H66124   8.987   0.393   3.859 -1.1408 -2.7194 -1.2039
  501MOL0     H66125   9.143   0.317   3.867  1.4635 -0.0305 -0.4781
  501MOL0     H66126   9.072   0.559   3.683  1.6457  2.2874 -0.4972
  501MOL0     H66127   9.223   0.482   3.673 -2.0629 -0.9417 -2.0472
  501MOL0     H66128   9.123   0.595   3.947 -0.3296 -0.8902 -0.0421
  501MOL0     H66129   9.277   0.540   3.909  0.9293  1.1529  0.2416
  501MOL0     H66130   9.281   0.934   3.720 -1.5718  2.1965  2.3379
  501MOL0     H66131   8.806   0.182   3.735 -0.4180  0.0176 -3.2948
  501MOL0     H66132   8.594   0.243   3.846 -0.6668  0.4987  0.1796
  502MOL0     O66133   6.249   5.561   1.151  0.0707 -0.2226 -0.6017
  502MOL0     C66134   6.265   5.441   1.115 -0.1628 -0.7534  0.4156
  502MOL0     O66135   6.383   5.385   1.100 -0.7756 -0.0809  0.1458
  502MOL0     C66136   6.497   5.459   1.095 -0.5032  0.8089  0.1976
  502MOL0     C66137   6.591   5.426   0.991  0.5120 -0.7949 -0.2857
  502MOL0     C66138   6.714   5.473   0.992  0.4226 -0.4029 -0.7978
  502MOL0     C66139   6.760   5.562   1.098  0.7016  0.4412  1.5898
  502MOL0     O66140   6.889   5.613   1.092 -0.3266  0.1916  0.0587
  502MOL0     C66141   6.924   5.719   1.188  0.7503  0.4302 -0.3865
  502MOL0     C66142   7.072   5.749   1.201  0.4491  0.9880 -0.7281
  502MOL0     C66143   7.122   5.804   1.069 -0.3402  0.0944  0.2361
  502MOL0     C66144   7.278   5.823   1.068 -0.5721  0.2048  0.1021
  502MOL0     C66145   7.327   5.953   1.147  0.5137  0.1930 -0.3976
  502MOL0     C66146   7.292   6.074   1.064  0.5295  0.4054  0.4659
  502MOL0     C66147   7.391   6.128   0.965 -0.8649  1.1230 -0.1497
  502MOL0     C66148   7.332   6.255   0.909  0.3268  0.7464 -0.5777
  502MOL0     N66149   7.209   6.243   0.821  0.1324 -0.5926 -1.0876
  502MOL0     C66150   7.170   6.144   0.734  0.8744 -0.0645  0.4882
  502MOL0     C66151   7.049   6.181   0.695 -0.2367  0.3554  0.8506
  502MOL0     C66152   6.961   6.085   0.621  0.4650  0.1258 -0.2680
  502MOL0     C66153   6.820   6.068   0.679  0.7572 -0.0313 -0.4637
  502MOL0     C66154   6.828   6.021   0.825  0.9689  0.4442 -0.7769
  502MOL0     C66155   6.691   5.992   0.873 -0.1072  0.2273  0.5015
  502MOL0     O66156   6.596   6.097   0.855 -0.2664 -0.9565  0.3057
  502MOL0     C66157   6.465   6.084   0.888  0.6667 -0.1619  0.4212
  502MOL0     C66158   6.385   6.178   0.833  0.1379  0.8883  0.0982
  502MOL0     C66159   6.246   6.177   0.863 -0.1616  0.3936 -0.0496
  502MOL0     C66160   6.190   6.088   0.961  0.5584 -1.0525  0.5820
  502MOL0     C66161   6.042   6.102   1.000 -0.7333  0.1703  0.2614
  502MOL0     O66162   5.998   5.999   1.077 -0.1843  0.0325  0.3805
  502MOL0     C66163   5.867   6.004   1.107 -0.2299  0.5108 -0.7022
  502MOL0     C66164   5.803   6.116   1.151 -1.0746 -0.5604 -0.4487
  502MOL0     C66165   5.666   6.121   1.170  1.2003 -0.6386 -1.0100
  502MOL0     C66166   5.585   6.012   1.143  0.5627  1.6861  0.4702
  502MOL0     O66167   5.453   6.010   1.142  1.0036  0.0613  0.5134
  502MOL0     C66168   5.375   6.134   1.141  0.5530  0.6767 -0.7651
  502MOL0     C66169   5.239   6.078   1.156 -1.0428 -0.5360  0.6924
  502MOL0     C66170   5.146   6.182   1.122  0.8604  0.5684 -0.3593
  502MOL0     C66171   5.007   6.114   1.111 -0.0382 -0.0431 -0.9677
  502MOL0     C66172   4.905   6.216   1.065  0.6338  0.0100  0.1178
  502MOL0     C66173   4.756   6.159   1.071  0.1685 -0.2045  0.2182
  502MOL0     C66174   4.741   6.062   0.956 -0.3925 -0.5230  0.3115
  502MOL0     C66175   4.601   5.996   0.960 -0.6991 -0.2880  0.3020
  502MOL0    Cl66176   4.591   5.886   1.097  0.2322  0.7435  0.1457
  502MOL0     C66177   5.645   5.891   1.105  0.1707  0.3951  0.6819
  502MOL0     C66178   5.787   5.891   1.089  0.4382 -0.1286  0.7077
  502MOL0     O66179   5.982   6.198   0.955 -0.5187  0.5446 -0.5448
  502MOL0     C66180   6.278   6.000   1.017 -0.5283  0.7463 -0.3032
  502MOL0     C66181   6.409   5.991   0.974  0.8118  0.2421 -0.1663
  502MOL0     N66182   7.016   6.301   0.748 -0.0767  0.1678 -0.2509
  502MOL0     N66183   7.113   6.341   0.819  0.1750  0.0919 -0.8370
  502MOL0     C66184   6.671   5.580   1.200  0.2510 -0.7382  0.5867
  502MOL0     C66185   6.536   5.533   1.201 -0.7749  0.2174 -0.2800
  502MOL0     C66186   6.147   5.350   1.096  0.1077  0.3485  0.1836
  502MOL0     C66187   6.025   5.406   1.070 -0.2525 -0.3369 -0.9013
  502MOL0     C66188   5.913   5.323   1.034 -0.9111 -0.2426 -0.0429
  502MOL0     C66189   5.923   5.184   1.038 -0.0758 -0.0066 -0.6485
  502MOL0     O66190   5.815   5.095   1.024  0.2151 -0.7540 -0.5474
  502MOL0     C66191   5.689   5.156   1.037 -0.4468 -0.5183  0.0873
  502MOL0     C66192   5.584   5.053   1.018  1.0886 -0.0110 -0.0049
  502MOL0     C66193   5.446   5.131   1.004 -0.1825 -0.6725 -0.4561
  502MOL0     C66194   5.397   5.154   0.852 -0.5831 -0.3780 -0.3339
  502MOL0     C66195   5.357   5.024   0.786 -0.0940  0.2615  0.3523
  502MOL0     C66196   5.337   4.919   0.734  0.8040 -0.2352 -0.6464
  502MOL0     C66197   6.051   5.131   1.076 -0.5404  0.5820  0.7858
  502MOL0     C66198   6.162   5.204   1.098 -0.1695  0.1849  0.6050
  502MOL0     H66199   6.554   5.363   0.910 -2.9474 -0.2688  0.6998
  502MOL0     H66200   6.770   5.458   0.900  3.3546 -1.2589  0.9894
  502MOL0     H66201   6.886   5.693   1.287 -0.9619 -1.7000 -1.5092
  502MOL0     H66202   6.876   5.812   1.156 -0.7679 -0.7929 -1.8588
  502MOL0     H66203   7.114   5.655   1.238  0.6531  1.2272 -0.3530
  502MOL0     H66204   7.083   5.821   1.282 -0.4462  0.8701 -0.4847
  502MOL0     H66205   7.066   5.894   1.043  1.7271  1.5059  0.4393
  502MOL0     H66206   7.104   5.727   0.994  2.8789  1.6006 -2.3441
  502MOL0     H66207   7.339   5.745   1.116  1.1224 -0.7057 -3.2117
  502MOL0     H66208   7.322   5.823   0.968 -2.2552 -2.8801 -0.7908
  502MOL0     H66209   7.436   5.955   1.157  0.4281  1.6454  0.4535
  502MOL0     H66210   7.281   5.960   1.246  1.1067  0.8895 -0.1635
  502MOL0     H66211   7.267   6.147   1.141 -0.8631 -1.1777  1.6046
  502MOL0     H66212   7.199   6.054   1.012 -1.1308  0.3225  3.2738
  502MOL0     H66213   7.476   6.145   1.032 -0.3818  0.7744 -0.6706
  502MOL0     H66214   7.430   6.059   0.890 -1.6459  0.8260 -0.2886
  502MOL0     H66215   7.414   6.307   0.858  2.8912 -0.6081  1.8793
  502MOL0     H66216   7.297   6.313   0.995  1.5528 -0.6880  0.9716
  502MOL0     H66217   7.222   6.055   0.700 -1.8822 -1.0487 -1.5413
  502MOL0     H66218   7.008   5.986   0.625  1.8856  0.8228  1.6756
  502MOL0     H66219   6.959   6.111   0.515  1.6889 -1.6397 -0.7684
  502MOL0     H66220   6.764   5.988   0.629  1.9219 -0.5184 -1.0165
  502MOL0     H66221   6.766   6.161   0.662  0.6951 -0.2086 -1.2529
  502MOL0     H66222   6.896   5.935   0.821  1.8449  1.1615 -2.4972
  502MOL0     H66223   6.876   6.091   0.893  3.4039 -2.0426  0.2584
  502MOL0     H66224   6.696   5.974   0.981  0.8628  1.1182  0.6266
  502MOL0     H66225   6.656   5.902   0.821 -4.0404 -0.7607  4.2918
  502MOL0     H66226   6.412   6.256   0.763  3.3235  2.1331  2.5033
  502MOL0     H66227   6.190   6.251   0.808  1.8722  0.9676 -1.4453
  502MOL0     H66228   5.861   6.205   1.175 -2.1901 -0.4120  2.1124
  502MOL0     H66229   5.623   6.211   1.214  0.0651 -2.7665  2.6791
  502MOL0     H66230   5.399   6.176   1.043  1.5554 -1.9025 -1.6882
  502MOL0     H66231   5.400   6.208   1.218  1.8246  1.5810 -1.9883
  502MOL0     H66232   5.232   6.034   1.256  2.1251 -1.2750  0.6981
  502MOL0     H66233   5.233   5.998   1.082 -1.4787  2.1296 -2.3781
  502MOL0     H66234   5.170   6.224   1.024  3.9898  0.1440  0.1348
  502MOL0     H66235   5.157   6.275   1.178 -0.3774  1.6528 -1.8079
  502MOL0     H66236   5.018   6.026   1.048 -1.5001 -1.0093  0.0695
  502MOL0     H66237   4.980   6.089   1.213 -0.4364  1.5889 -0.6447
  502MOL0     H66238   4.919   6.228   0.957 -3.9587 -1.9701 -0.9604
  502MOL0     H66239   4.909   6.311   1.118 -1.4234 -0.4947  1.2837
  502MOL0     H66240   4.679   6.236   1.078  1.3019  0.8447  1.7157
  502MOL0     H66241   4.752   6.099   1.163 -2.5054  1.8643  1.6057
  502MOL0     H66242   4.753   6.128   0.870 -0.5142  0.4100  0.9973
  502MOL0     H66243   4.832   6.001   0.957  0.0046  0.0453 -0.0414
  502MOL0     H66244   4.587   5.938   0.868  0.0614 -1.9692  1.2046
  502MOL0     H66245   4.517   6.066   0.962 -1.3565 -0.8733 -2.2757
  502MOL0     H66246   5.586   5.805   1.077 -0.4453  1.7107 -2.3934
  502MOL0     H66247   5.839   5.812   1.035  5.6461  3.2128  0.0928
  502MOL0     H66248   6.245   5.911   1.069  1.4071  1.1885  1.8048
  502MOL0     H66249   6.467   5.909   1.016 -1.1837 -0.1814  1.9403
  502MOL0     H66250   6.699   5.638   1.287  0.3224 -0.7074  0.5442
  502MOL0     H66251   6.462   5.525   1.280 -2.3386 -0.3915 -1.7598
  502MOL0     H66252   6.000   5.511   1.073 -1.3165 -0.5808  1.7872
  502MOL0     H66253   5.826   5.385   1.010 -0.5759  1.0583  1.8951
  502MOL0     H66254   5.664   5.242   0.974 -0.8501 -1.5972 -1.2695
  502MOL0     H66255   5.684   5.189   1.141 -1.1420  0.3158 -0.1990
  502MOL0     H66256   5.600   5.009   0.920  3.9052 -1.3890  0.9557
  502MOL0     H66257   5.584   4.988   1.106  2.5397  0.3514  0.2962
  502MOL0     H66258   5.455   5.232   1.047  1.1128 -1.4286  1.1178
  502MOL0     H66259   5.367   5.077   1.056  0.4628 -0.6113  0.6141
  502MOL0     H66260   5.305   5.212   0.849 -1.0179 -0.8113  2.2241
  502MOL0     H66261   5.477   5.209   0.802  0.0885  0.0369  1.1532
  502MOL0     H66262   5.307   4.823   0.697 -0.8204 -0.0669  0.1558
  502MOL0     H66263   6.067   5.024   1.070  3.0728  1.0257 -0.2602
  502MOL0     H66264   6.261   5.161   1.110 -0.9975 -2.1741 -0.3734
  503MOL0     O66265   1.233   9.878   2.314  0.0757 -0.0143 -0.5333
  503MOL0     C66266   1.282   9.767   2.298 -0.0336  0.3761 -0.3817
  503MOL0     O66267   1.215   9.654   2.254 -0.5339  0.1697  0.5615
  503MOL0     C66268   1.098   9.664   2.189 -0.1598 -0.2727 -0.1856
  503MOL0     C66269   1.091   9.617   2.053  0.4083 -0.2770 -0.4559
  503MOL0     C66270   0.970   9.635   1.987  0.0223 -0.4953  0.2003
  503MOL0     C66271   0.858   9.695   2.052 -0.2232  0.2129  1.3579
  503MOL0     O66272   0.743   9.715   1.980 -0.0213  0.4365  0.1977
  503MOL0     C66273   0.622   9.730   2.051  0.9615  0.0378 -1.0925
  503MOL0     C66274   0.495   9.720   1.960  0.0040  0.3994 -0.1380
  503MOL0     C66275   0.367   9.721   2.045 -0.0900 -0.0647  0.3562
  503MOL0     C66276   0.246   9.714   1.948  0.8400  0.6906  1.5854
  503MOL0     C66277   0.111   9.723   2.025 -0.1678  0.4162  1.1257
  503MOL0     C66278  -0.017   9.670   1.948  0.2521  0.1911  0.0730
  503MOL0     C66279  -0.004   9.517   1.926  0.5096  0.4646  0.2363
  503MOL0     C66280  -0.139   9.449   1.915 -0.3197 -0.7078 -0.2343
  503MOL0     N66281  -0.241   9.490   1.825  0.2610 -0.9188  0.1539
  503MOL0     C66282  -0.340   9.579   1.858 -0.4775  0.9336  0.4491
  503MOL0     C66283  -0.416   9.575   1.746  0.9117 -0.0523  0.1720
  503MOL0     C66284  -0.538   9.659   1.722 -0.4940 -0.2512  0.2235
  503MOL0     C66285  -0.670   9.590   1.689  0.1503 -0.2145 -1.0533
  503MOL0     C66286  -0.730   9.524   1.810  0.3288  0.0739  0.1277
  503MOL0     C66287  -0.874   9.493   1.778  0.5930  0.6487  0.2080
  503MOL0     O66288  -0.951   9.441   1.888  0.5088  0.1397  0.4445
  503MOL0     C66289  -1.072   9.431   1.842  0.3877 -0.4849 -0.7936
  503MOL0     C66290  -1.165   9.440   1.945  0.7903 -0.2270  0.9050
  503MOL0     C66291  -1.300   9.461   1.928 -0.8404 -0.1027 -0.0482
  503MOL0     C66292  -1.348   9.455   1.799 -0.4463  0.7058 -0.4013
  503MOL0     C66293  -1.488   9.487   1.766  0.3167 -0.3202  0.2636
  503MOL0     O66294  -1.511   9.516   1.630 -0.4317  0.2934  0.2746
  503MOL0     C66295  -1.637   9.500   1.580 -0.2567  0.1198  0.4541
  503MOL0     C66296  -1.715   9.614   1.541 -0.1879  0.6763  0.3681
  503MOL0     C66297  -1.839   9.607   1.483 -0.2261  0.1803  0.5625
  503MOL0     C66298  -1.901   9.480   1.466  0.1841  0.4962 -0.2850
  503MOL0     O66299  -2.030   9.475   1.412 -0.2655  0.1212 -0.5692
  503MOL0     C66300  -2.079   9.351   1.361 -0.2968 -0.3080 -0.1711
  503MOL0     C66301  -2.166   9.277   1.477  0.2734 -0.6048  0.1667
  503MOL0     C66302  -2.297   9.354   1.503 -0.4034 -0.7262 -0.6406
  503MOL0     C66303  -2.404   9.310   1.398 -0.1195 -0.1887 -0.2208
  503MOL0     C66304  -2.531   9.388   1.419 -0.1100  0.3774 -0.0664
  503MOL0     C66305  -2.643   9.317   1.345 -1.1919 -0.4169  0.3256
  503MOL0     C66306  -2.763   9.404   1.340  0.2183 -0.3968  0.2167
  503MOL0     C66307  -2.865   9.371   1.463 -0.2169  0.3683  0.3922
  503MOL0    Cl66308  -3.034   9.419   1.437 -0.0056 -0.5766  0.1724
  503MOL0     C66309  -1.821   9.362   1.497  1.4219 -0.2101  0.0872
  503MOL0     C66310  -1.685   9.374   1.544 -0.7389  0.7809  0.9639
  503MOL0     O66311  -1.576   9.479   1.851  0.0836  0.0878 -0.6383
  503MOL0     C66312  -1.259   9.439   1.692  0.2855 -0.0455  0.0901
  503MOL0     C66313  -1.122   9.429   1.709  0.4499  0.1280 -0.4966
  503MOL0     N66314  -0.376   9.471   1.663  0.2727  0.8824  0.9290
  503MOL0     N66315  -0.268   9.431   1.707  0.0807 -0.6754  0.1879
  503MOL0     C66316   0.870   9.727   2.183  0.4188 -0.5596  0.6315
  503MOL0     C66317   0.988   9.715   2.254  0.5500 -0.1141 -0.0404
  503MOL0     C66318   1.425   9.737   2.342  0.0186 -0.4368 -0.4963
  503MOL0     C66319   1.474   9.603   2.374  0.3609 -0.0369  0.8719
  503MOL0     C66320   1.601   9.580   2.419  0.1740 -0.1571  0.2106
  503MOL0     C66321   1.699   9.678   2.416 -0.2418  0.8759  0.4976
  503MOL0     O66322   1.828   9.655   2.450 -0.0891  0.0112 -0.3123
  503MOL0     C66323   1.908   9.615   2.334 -0.3445 -0.7273 -0.5599
  503MOL0     C66324   2.055   9.563   2.368 -0.0642 -0.6168  0.1785
  503MOL0     C66325   2.071   9.438   2.453  0.7838  0.6215 -0.3977
  503MOL0     C66326   2.002   9.322   2.387  0.0240  0.7544  0.5627
  503MOL0     C66327   2.082   9.274   2.275 -0.2791  0.3487 -0.2304
  503MOL0     C66328   2.135   9.224   2.182  0.3501 -0.3502  0.0962
  503MOL0     C66329   1.655   9.806   2.386  0.1633 -0.3540  0.6628
  503MOL0     C66330   1.520   9.836   2.353 -0.2310 -0.2446 -0.3196
  503MOL0     H66331   1.170   9.554   2.014  0.1337 -0.5278 -0.6068
  503MOL0     H66332   0.976   9.624   1.879 -0.3041 -0.0698  0.1364
  503MOL0     H66333   0.608   9.818   2.115 -0.0527 -0.2114 -0.9660
  503MOL0     H66334   0.620   9.646   2.121  1.1865 -1.7462 -3.1288
  503MOL0     H66335   0.492   9.621   1.913 -3.3626 -0.1642  0.9983
  503MOL0     H66336   0.497   9.791   1.876 -1.1268  1.1754  0.4654
  503MOL0     H66337   0.359   9.818   2.095 -4.4125 -1.3328  2.6135
  503MOL0     H66338   0.375   9.655   2.133 -0.0970 -2.7900 -1.5443
  503MOL0     H66339   0.244   9.792   1.872  0.6428 -1.6507 -0.9500
  503MOL0     H66340   0.257   9.617   1.900  0.9471  0.3061  2.3796
  503MOL0     H66341   0.100   9.830   2.046  0.1337  0.8805 -0.8280
  503MOL0     H66342   0.122   9.671   2.120  1.1789  1.6151  1.6628
  503MOL0     H66343  -0.031   9.733   1.859  0.5925  0.9950  0.5693
  503MOL0     H66344  -0.105   9.699   2.006  0.7165 -0.5575  1.1815
  503MOL0     H66345   0.048   9.494   1.833 -0.8650 -0.5226 -0.3244
  503MOL0     H66346   0.060   9.480   2.007  0.7924 -0.2381 -0.3007
  503MOL0     H66347  -0.182   9.456   2.015  0.3864  0.5228  0.0031
  503MOL0     H66348  -0.109   9.344   1.907 -0.5907 -1.1050  2.7791
  503MOL0     H66349  -0.350   9.629   1.954 -0.4834 -1.0187  1.5261
  503MOL0     H66350  -0.522   9.725   1.636 -1.7145  1.5547  1.3055
  503MOL0     H66351  -0.560   9.724   1.807 -3.4908  0.6546 -1.0983
  503MOL0     H66352  -0.649   9.517   1.611  1.0540  0.8061 -1.7927
  503MOL0     H66353  -0.736   9.669   1.651 -0.6319  1.2967  2.8919
  503MOL0     H66354  -0.686   9.425   1.826 -2.1845 -0.9176  1.5226
  503MOL0     H66355  -0.725   9.581   1.903  0.9835  1.0555 -0.4910
  503MOL0     H66356  -0.879   9.429   1.690 -1.4034  1.0081  0.0257
  503MOL0     H66357  -0.922   9.587   1.751  1.1719  1.0207  0.4351
  503MOL0     H66358  -1.140   9.444   2.051 -0.6403 -1.1696  1.3128
  503MOL0     H66359  -1.364   9.478   2.014 -0.3958  0.2204  0.2187
  503MOL0     H66360  -1.694   9.717   1.570  0.6632  0.8898 -0.9250
  503MOL0     H66361  -1.896   9.693   1.450 -0.9197  0.8267  3.2302
  503MOL0     H66362  -2.003   9.287   1.314  0.6633  1.2333 -0.8071
  503MOL0     H66363  -2.146   9.377   1.278 -2.7951  0.5291  1.9906
  503MOL0     H66364  -2.111   9.274   1.572 -1.4384 -1.2574  1.1866
  503MOL0     H66365  -2.186   9.179   1.435  2.7106 -0.8433 -0.6103
  503MOL0     H66366  -2.284   9.462   1.488 -0.9633 -0.4599  0.6499
  503MOL0     H66367  -2.346   9.321   1.595 -2.1999 -1.6218 -1.8374
  503MOL0     H66368  -2.357   9.340   1.304  0.3501  2.8877  0.8675
  503MOL0     H66369  -2.428   9.204   1.407  0.9008 -0.3889  0.2597
  503MOL0     H66370  -2.516   9.492   1.388  1.7395  0.8778  2.1687
  503MOL0     H66371  -2.559   9.392   1.525  0.4919 -1.1988  0.1863
  503MOL0     H66372  -2.661   9.222   1.396  0.0679 -0.5624  0.5157
  503MOL0     H66373  -2.617   9.301   1.239  0.8053  1.7779  0.3953
  503MOL0     H66374  -2.735   9.509   1.344  2.0884 -0.8633  0.6638
  503MOL0     H66375  -2.824   9.383   1.252 -0.3648  1.5096  0.1246
  503MOL0     H66376  -2.825   9.419   1.552  1.5475  4.1666 -2.1513
  503MOL0     H66377  -2.855   9.263   1.476  2.1137  0.7396  2.2769
  503MOL0     H66378  -1.863   9.265   1.471  0.2553  0.8888 -2.3568
  503MOL0     H66379  -1.618   9.288   1.545 -3.7553 -1.7231  0.7202
  503MOL0     H66380  -1.295   9.427   1.591 -0.7248  0.0854  0.4278
  503MOL0     H66381  -1.053   9.416   1.626 -1.4455  1.2681 -2.3494
  503MOL0     H66382   0.798   9.779   2.245  0.0805  1.2248 -1.1420
  503MOL0     H66383   0.990   9.750   2.356  1.7464  1.0219 -0.4229
  503MOL0     H66384   1.408   9.517   2.367 -2.2900  1.9165  0.4284
  503MOL0     H66385   1.631   9.479   2.442 -0.2072 -0.2585  0.2740
  503MOL0     H66386   1.926   9.704   2.273  1.7621  1.4157  2.8801
  503MOL0     H66387   1.857   9.540   2.273  0.8311 -1.8682 -0.1826
  503MOL0     H66388   2.092   9.541   2.267 -3.4186 -0.4879 -1.2369
  503MOL0     H66389   2.121   9.643   2.402  1.6462 -0.8201 -2.3426
  503MOL0     H66390   2.018   9.458   2.547 -2.1199  0.4046 -1.8631
  503MOL0     H66391   2.176   9.414   2.472  0.5743  0.9156  1.2489
  503MOL0     H66392   2.000   9.243   2.463 -2.4552 -1.2213 -1.4116
  503MOL0     H66393   1.895   9.335   2.368  0.2051  0.4125 -0.7349
  503MOL0     H66394   2.193   9.194   2.096  4.0623  3.0330  1.0907
  503MOL0     H66395   1.727   9.888   2.394 -0.3414  0.0262  1.3414
  503MOL0     H66396   1.480   9.933   2.326 -1.3536 -0.8700 -1.0212
  504MOL0     O66397   7.896   8.236   3.374 -0.3621 -0.3032 -0.1601
  504MOL0     C66398   7.878   8.329   3.297  0.3793  0.3887 -0.4559
  504MOL0     O66399   7.967   8.430   3.275  0.8082 -0.0580 -0.1029
  504MOL0     C66400   8.086   8.428   3.336  0.2170 -0.5180  0.4479
  504MOL0     C66401   8.173   8.327   3.318  0.4208 -0.1377  0.4783
  504MOL0     C66402   8.300   8.331   3.366 -0.0339  1.1011  0.1374
  504MOL0     C66403   8.354   8.441   3.433 -0.4420  0.9927  0.1281
  504MOL0     O66404   8.477   8.450   3.488  0.2360  0.2956  0.1728
  504MOL0     C66405   8.580   8.361   3.455 -0.3254  0.1077 -0.1225
  504MOL0     C66406   8.694   8.398   3.537 -0.1131  0.3968 -0.2654
  504MOL0     C66407   8.800   8.286   3.543 -0.3272 -0.2155  0.2516
  504MOL0     C66408   8.892   8.271   3.411  0.3935 -0.6435 -0.4326
  504MOL0     C66409   8.978   8.151   3.438 -0.1602  0.1290 -0.5352
  504MOL0     C66410   9.083   8.143   3.320 -0.0561 -0.1844 -0.5210
  504MOL0     C66411   9.013   8.125   3.191  0.2240 -0.2890  0.4878
  504MOL0     C66412   9.113   8.093   3.069  0.2558  0.3562 -0.2065
  504MOL0     N66413   9.040   8.058   2.948  0.8808 -0.2338 -0.2462
  504MOL0     C66414   8.941   8.136   2.889  0.0614 -0.1369 -0.1321
  504MOL0     C66415   8.869   8.054   2.815 -0.1617 -0.1592  0.4056
  504MOL0     C66416   8.754   8.107   2.735  0.3829  0.0452  0.1983
  504MOL0     C66417   8.773   8.119   2.584  0.1909 -0.0158 -0.1338
  504MOL0     C66418   8.689   8.238   2.532  0.3067  1.0547 -0.5582
  504MOL0     C66419   8.691   8.257   2.384 -0.6475  0.1407 -0.5488
  504MOL0     O66420   8.636   8.378   2.336 -0.3222 -0.4295 -0.1558
  504MOL0     C66421   8.506   8.379   2.359  0.8551  0.1772  0.4269
  504MOL0     C66422   8.454   8.478   2.441  1.1206  0.9183  0.1897
  504MOL0     C66423   8.316   8.476   2.478 -0.2191  0.3655  0.4893
  504MOL0     C66424   8.224   8.389   2.412 -0.2406  0.1005 -0.2230
  504MOL0     C66425   8.082   8.388   2.432 -0.5337 -0.0085 -0.4619
  504MOL0     O66426   8.013   8.336   2.331 -0.0268 -0.3360 -0.6148
  504MOL0     C66427   7.879   8.325   2.336  0.0290 -0.2852  0.4077
  504MOL0     C66428   7.801   8.435   2.375  0.8348  0.4773  0.2774
  504MOL0     C66429   7.659   8.427   2.381 -0.1393  0.4667  0.2326
  504MOL0     C66430   7.593   8.314   2.342 -0.1985 -0.3263 -0.5572
  504MOL0     O66431   7.458   8.293   2.320 -0.4035 -0.0774 -0.4962
  504MOL0     C66432   7.363   8.399   2.338  0.0572 -0.3008  0.3975
  504MOL0     C66433   7.229   8.343   2.381 -0.0824 -0.8322 -0.1826
  504MOL0     C66434   7.117   8.428   2.306  0.0717 -0.3433 -0.8511
  504MOL0     C66435   6.969   8.379   2.366 -0.4426 -0.4795 -0.6219
  504MOL0     C66436   6.850   8.445   2.300 -0.8716 -0.5042 -0.5202
  504MOL0     C66437   6.719   8.385   2.345  0.2452  0.4341 -0.5109
  504MOL0     C66438   6.691   8.246   2.278 -0.8310  0.1559  0.4215
  504MOL0     C66439   6.552   8.205   2.313  1.0701 -0.4223 -0.5377
  504MOL0    Cl66440   6.429   8.313   2.225  0.0299  0.1713  0.1091
  504MOL0     C66441   7.672   8.197   2.305  0.2744  0.6632  0.0730
  504MOL0     C66442   7.812   8.204   2.304 -0.8548  0.7585 -0.6549
  504MOL0     O66443   8.037   8.437   2.536  0.3889  0.5664  0.5841
  504MOL0     C66444   8.286   8.297   2.327  0.0616  0.4425 -0.2170
  504MOL0     C66445   8.421   8.288   2.300 -0.1748 -0.1738  1.3595
  504MOL0     N66446   8.932   7.932   2.805 -0.2677  0.7536  0.3046
  504MOL0     N66447   9.025   7.930   2.894 -0.1727  0.2077  0.5730
  504MOL0     C66448   8.260   8.544   3.465 -0.9991 -0.4543  0.3476
  504MOL0     C66449   8.124   8.537   3.417 -0.3378  0.7451 -0.5045
  504MOL0     C66450   7.745   8.329   3.230 -0.0180 -0.0660 -0.2985
  504MOL0     C66451   7.650   8.217   3.241 -0.1330  0.6030 -0.2886
  504MOL0     C66452   7.527   8.221   3.173 -0.0536 -0.0968  0.0435
  504MOL0     C66453   7.482   8.332   3.117 -0.5870 -0.6107  0.3070
  504MOL0     O66454   7.347   8.325   3.084  0.0494  0.3652  0.5191
  504MOL0     C66455   7.291   8.435   3.006 -0.8406 -0.1555 -0.3045
  504MOL0     C66456   7.150   8.416   2.959 -0.4405 -0.1123 -0.4641
  504MOL0     C66457   7.152   8.312   2.839 -1.0150 -0.2820 -0.1243
  504MOL0     C66458   7.018   8.261   2.790 -0.7040  0.3203 -0.1774
  504MOL0     C66459   7.052   8.168   2.684 -0.1167  0.2669 -0.3407
  504MOL0     C66460   7.085   8.084   2.602 -0.5420 -0.3082 -0.7588
  504MOL0     C66461   7.567   8.442   3.111  0.1021 -0.2334 -0.1441
  504MOL0     C66462   7.695   8.447   3.165 -0.8580  0.3721 -0.2281
  504MOL0     H66463   8.136   8.246   3.255 -0.2100 -1.4018  2.3749
  504MOL0     H66464   8.357   8.247   3.326 -1.9784  0.2033 -0.8907
  504MOL0     H66465   8.602   8.361   3.348  1.9631 -2.6830  0.2390
  504MOL0     H66466   8.546   8.262   3.485  2.9266 -1.1435 -0.2169
  504MOL0     H66467   8.662   8.406   3.641  2.2891 -3.2506  0.9595
  504MOL0     H66468   8.738   8.489   3.495  2.9392 -1.2074 -0.8397
  504MOL0     H66469   8.755   8.188   3.556 -0.2796 -0.1988  0.5496
  504MOL0     H66470   8.870   8.318   3.622  0.2342  0.9810 -0.7000
  504MOL0     H66471   8.837   8.268   3.317  3.3144 -0.2676 -2.2641
  504MOL0     H66472   8.955   8.361   3.405 -0.0938 -0.2943 -0.3839
  504MOL0     H66473   8.918   8.060   3.424 -2.2103  1.8249 -3.9644
  504MOL0     H66474   9.025   8.151   3.537  1.1844  1.0356 -1.1493
  504MOL0     H66475   9.143   8.054   3.337 -1.2693 -1.1901 -1.3037
  504MOL0     H66476   9.149   8.230   3.318  0.2588 -0.3554  1.1103
  504MOL0     H66477   8.946   8.039   3.184  0.8918 -0.8465  0.8532
  504MOL0     H66478   8.950   8.212   3.169  0.0549 -0.6215 -0.3736
  504MOL0     H66479   9.174   8.007   3.098 -0.8233 -0.1123  0.7804
  504MOL0     H66480   9.180   8.176   3.046 -0.0115  0.1566 -1.8475
  504MOL0     H66481   8.920   8.240   2.908  0.1402 -0.5163  2.5299
  504MOL0     H66482   8.719   8.202   2.776 -2.8342 -0.2943 -1.4203
  504MOL0     H66483   8.662   8.048   2.740 -1.5412  2.8424 -0.1647
  504MOL0     H66484   8.750   8.032   2.522  1.9320 -0.0041 -0.8431
  504MOL0     H66485   8.880   8.137   2.571  0.2914 -0.4454  0.1191
  504MOL0     H66486   8.585   8.228   2.562  0.7871 -1.1798  0.5328
  504MOL0     H66487   8.713   8.330   2.587  0.2189 -0.5986  2.4584
  504MOL0     H66488   8.635   8.178   2.334 -1.4628 -0.0936  0.6923
  504MOL0     H66489   8.798   8.249   2.360 -0.1980  0.9694  1.0320
  504MOL0     H66490   8.529   8.545   2.481  3.8160 -0.2172 -2.5358
  504MOL0     H66491   8.283   8.537   2.562 -3.0417 -1.3771  0.7946
  504MOL0     H66492   7.850   8.521   2.420  0.7894  1.4869 -1.5096
  504MOL0     H66493   7.612   8.521   2.409 -0.4377  0.4240 -0.1073
  504MOL0     H66494   7.363   8.447   2.241  3.1235 -0.1285  0.3803
  504MOL0     H66495   7.397   8.470   2.414 -0.2227 -0.5639  0.7727
  504MOL0     H66496   7.225   8.354   2.490  0.0073 -0.7066 -0.1920
  504MOL0     H66497   7.220   8.239   2.348 -1.3787 -1.3192  1.5650
  504MOL0     H66498   7.111   8.415   2.198 -2.8437 -4.7518 -0.4115
  504MOL0     H66499   7.131   8.534   2.327 -0.8617 -0.7575  2.4638
  504MOL0     H66500   6.965   8.270   2.360 -0.4300 -0.6741  1.8386
  504MOL0     H66501   6.966   8.392   2.474 -1.4651 -0.5257 -0.6375
  504MOL0     H66502   6.859   8.447   2.191  1.5962 -0.2172 -0.3607
  504MOL0     H66503   6.855   8.550   2.328  0.3572 -0.5971 -0.3539
  504MOL0     H66504   6.640   8.460   2.332  0.0833  0.4394  0.4580
  504MOL0     H66505   6.718   8.381   2.454 -1.4237  3.2318 -0.3197
  504MOL0     H66506   6.687   8.254   2.169 -1.6784 -1.1762  0.3315
  504MOL0     H66507   6.770   8.176   2.308 -1.9429  0.0936  3.5552
  504MOL0     H66508   6.533   8.202   2.421  2.1625  0.9645 -0.2746
  504MOL0     H66509   6.567   8.100   2.285  0.1366 -1.7022  3.1629
  504MOL0     H66510   7.616   8.109   2.278 -0.1344  0.5345  1.2813
  504MOL0     H66511   7.875   8.118   2.282 -0.5856  0.1032  2.2992
  504MOL0     H66512   8.231   8.214   2.283 -0.1924  0.0214  0.8678
  504MOL0     H66513   8.447   8.224   2.217 -0.6434  0.0831  1.0023
  504MOL0     H66514   8.290   8.630   3.523  0.3877  0.4329 -1.5633
  504MOL0     H66515   8.054   8.617   3.437 -0.3622  0.4795  0.5289
  504MOL0     H66516   7.676   8.124   3.289 -0.9706  0.7596  0.4940
  504MOL0     H66517   7.458   8.137   3.174  0.6931 -0.7412  2.0658
  504MOL0     H66518   7.352   8.443   2.916 -1.6274 -1.3669 -0.9783
  504MOL0     H66519   7.304   8.527   3.064 -3.6534 -0.8414  1.6228
  504MOL0     H66520   7.100   8.374   3.046  0.5748 -1.4658 -0.5051
  504MOL0     H66521   7.097   8.505   2.924 -3.8684 -0.6792  2.7391
  504MOL0     H66522   7.212   8.229   2.876 -0.5309 -0.3358 -1.0093
  504MOL0     H66523   7.204   8.360   2.756 -2.9360 -0.7773 -1.7082
  504MOL0     H66524   6.962   8.211   2.870 -1.0834  0.0464 -0.6090
  504MOL0     H66525   6.954   8.342   2.755 -1.9408  0.5764  2.4190
  504MOL0     H66526   7.117   8.018   2.524  2.4188  0.5937 -0.4270
  504MOL0     H66527   7.542   8.534   3.059 -0.9190 -1.1459 -1.3294
  504MOL0     H66528   7.758   8.535   3.164 -0.3076  0.0267 -2.4365
  505MOL0     O66529   1.610   5.238   4.731 -0.0118 -0.0947  0.4545
  505MOL0     C66530   1.625   5.361   4.745 -1.0844  0.5767 -0.4135
  505MOL0     O66531   1.528   5.462   4.750  0.2529 -0.6719  0.2130
  505MOL0     C66532   1.387   5.440   4.721 -0.8948  0.0593  0.0345
  505MOL0     C66533   1.304   5.548   4.738  0.1222 -0.0973 -0.3002
  505MOL0     C66534   1.168   5.548   4.726 -0.2083  0.2165  0.3245
  505MOL0     C66535   1.113   5.420   4.686 -0.2848 -0.2156  0.5653
  505MOL0     O66536   0.979   5.421   4.662 -0.2207  0.0596 -0.2595
  505MOL0     C66537   0.914   5.308   4.612 -0.5661  0.2912 -0.7130
  505MOL0     C66538   0.770   5.351   4.553 -0.2269  0.4467  0.3618
  505MOL0     C66539   0.768   5.388   4.405 -0.0854  0.0507  0.1316
  505MOL0     C66540   0.649   5.454   4.359 -0.7890 -0.6597  0.0839
  505MOL0     C66541   0.515   5.386   4.389  0.0524 -0.5486  0.1011
  505MOL0     C66542   0.497   5.270   4.297  0.0279 -0.1996 -0.6737
  505MOL0     C66543   0.379   5.176   4.331  0.0213  0.3573  0.4034
  505MOL0     C66544   0.368   5.142   4.475  0.1637 -0.4305 -0.4217
  505MOL0     N66545   0.274   5.039   4.516 -0.8414 -0.0080 -0.6166
  505MOL0     C66546   0.253   5.009   4.648 -0.1296  0.6666 -0.8032
  505MOL0     C66547   0.173   4.898   4.642  0.4325  0.1305 -0.8210
  505MOL0     C66548   0.090   4.825   4.755 -0.6247 -0.3997  0.0672
  505MOL0     C66549  -0.057   4.839   4.712  0.1675  0.6829  0.8240
  505MOL0     C66550  -0.158   4.784   4.823 -0.0280 -0.2870 -0.4544
  505MOL0     C66551  -0.305   4.836   4.802  0.6668 -0.2220 -0.1127
  505MOL0     O66552  -0.366   4.778   4.687  0.0464  0.4050  0.5749
  505MOL0     C66553  -0.508   4.806   4.674 -1.6117  0.3130  0.9111
  505MOL0     C66554  -0.573   4.920   4.728  0.1234  0.3773 -0.4003
  505MOL0     C66555  -0.714   4.937   4.713 -0.4572 -0.3853 -0.6082
  505MOL0     C66556  -0.798   4.839   4.661 -1.1122  0.8073 -0.4581
  505MOL0     C66557  -0.938   4.867   4.640  0.7166  0.2109 -0.5612
  505MOL0     O66558  -0.986   4.984   4.695 -0.0179 -0.3502 -0.2767
  505MOL0     C66559  -1.117   5.024   4.682  0.1107 -0.3060 -0.2772
  505MOL0     C66560  -1.176   5.067   4.809 -0.1175 -0.1490 -0.2835
  505MOL0     C66561  -1.302   5.129   4.796 -0.4429  0.5836 -0.2910
  505MOL0     C66562  -1.368   5.159   4.676  0.7529 -0.4125 -0.4133
  505MOL0     O66563  -1.491   5.239   4.683 -1.1034 -0.4434  1.0769
  505MOL0     C66564  -1.572   5.241   4.560  0.1374  0.0500  0.5831
  505MOL0     C66565  -1.694   5.325   4.599  0.2555  0.3432  1.1876
  505MOL0     C66566  -1.803   5.310   4.485  0.0871 -0.0687 -0.3035
  505MOL0     C66567  -1.898   5.429   4.502  1.2615  0.5184  0.0400
  505MOL0     C66568  -2.048   5.382   4.476 -1.3464 -0.0010 -0.2543
  505MOL0     C66569  -2.148   5.496   4.484 -0.5648  0.6624 -0.4027
  505MOL0     C66570  -2.298   5.448   4.442  0.7990  0.3737 -0.4257
  505MOL0     C66571  -2.383   5.565   4.396 -0.4671  0.3267 -0.0809
  505MOL0    Cl66572  -2.550   5.500   4.341  0.0948 -0.1697 -0.0773
  505MOL0     C66573  -1.304   5.127   4.556  0.1020  0.0761 -0.1411
  505MOL0     C66574  -1.178   5.051   4.560 -0.0092  0.5268  0.0612
  505MOL0     O66575  -1.006   4.791   4.571 -0.7315  0.7347  0.5089
  505MOL0     C66576  -0.728   4.719   4.607 -0.3777 -0.5051 -0.0764
  505MOL0     C66577  -0.593   4.706   4.616 -0.3403  0.0532  0.0368
  505MOL0     N66578   0.175   4.851   4.509  0.4187  0.2296  0.1582
  505MOL0     N66579   0.234   4.939   4.438  0.0910  0.4256 -0.8365
  505MOL0     C66580   1.193   5.311   4.674 -0.7189  0.3024  0.6270
  505MOL0     C66581   1.330   5.314   4.692  0.1899 -0.2242 -0.6245
  505MOL0     C66582   1.756   5.413   4.763 -0.4855 -0.6218 -0.2577
  505MOL0     C66583   1.782   5.555   4.768 -0.1682 -0.4804 -0.3218
  505MOL0     C66584   1.913   5.596   4.780  0.0041  0.3473 -0.4866
  505MOL0     C66585   2.023   5.512   4.801  0.0655 -0.2356  0.9642
  505MOL0     O66586   2.144   5.572   4.807  0.4143 -0.2046  0.3157
  505MOL0     C66587   2.261   5.492   4.810  0.3105  0.0117  0.2815
  505MOL0     C66588   2.363   5.596   4.856 -0.2523  0.3587 -0.3108
  505MOL0     C66589   2.485   5.529   4.915  0.2448 -0.0137 -0.1434
  505MOL0     C66590   2.460   5.442   5.043 -0.3562  0.6992 -0.6341
  505MOL0     C66591   2.578   5.445   5.138  0.2252 -0.1882  1.2888
  505MOL0     C66592   2.663   5.430   5.215 -0.6324 -0.4060 -0.4179
  505MOL0     C66593   1.999   5.377   4.813 -0.5661 -0.0567  0.3352
  505MOL0     C66594   1.868   5.328   4.789 -0.0089  0.5971  0.1123
  505MOL0     H66595   1.351   5.644   4.759  3.0863 -1.7852  1.4913
  505MOL0     H66596   1.099   5.631   4.735 -0.6384  0.1146 -1.6008
  505MOL0     H66597   0.903   5.227   4.684 -0.7957 -0.1157 -1.1952
  505MOL0     H66598   0.971   5.265   4.529  0.7269 -2.0885  1.2653
  505MOL0     H66599   0.739   5.440   4.608  0.5875  0.9851 -0.0383
  505MOL0     H66600   0.701   5.269   4.577  0.0660  0.5392  1.6100
  505MOL0     H66601   0.766   5.298   4.342 -0.4426 -0.0190  0.2427
  505MOL0     H66602   0.859   5.443   4.381 -0.5615  1.3290  1.1472
  505MOL0     H66603   0.641   5.557   4.396  0.1721 -1.2179  1.9026
  505MOL0     H66604   0.661   5.452   4.250  1.3443  2.7425  0.1029
  505MOL0     H66605   0.438   5.460   4.363 -0.9086 -1.5664 -0.0172
  505MOL0     H66606   0.508   5.363   4.495 -2.5615 -0.3966  0.0223
  505MOL0     H66607   0.578   5.197   4.294 -0.0585 -0.3543 -4.8323
  505MOL0     H66608   0.476   5.310   4.197 -0.0583 -0.7237 -0.8686
  505MOL0     H66609   0.292   5.224   4.284 -0.6396 -0.6141  0.5965
  505MOL0     H66610   0.400   5.084   4.274  3.1233  2.4246 -2.1059
  505MOL0     H66611   0.330   5.231   4.526  1.8286 -1.5227  3.0054
  505MOL0     H66612   0.466   5.131   4.523  0.4221 -0.3482 -0.9198
  505MOL0     H66613   0.277   5.075   4.731 -0.9110 -1.3313  1.1321
  505MOL0     H66614   0.103   4.874   4.851 -2.2783  0.0712  0.0947
  505MOL0     H66615   0.106   4.717   4.756 -1.5198 -0.5517  1.5458
  505MOL0     H66616  -0.084   4.781   4.624 -2.2724  3.4740 -0.4456
  505MOL0     H66617  -0.082   4.943   4.687 -1.8785 -0.1021 -0.6681
  505MOL0     H66618  -0.161   4.675   4.818  2.1291 -0.4738  0.9436
  505MOL0     H66619  -0.131   4.815   4.924  0.5847  1.4308 -1.1011
  505MOL0     H66620  -0.294   4.945   4.802  0.4826 -0.1997  0.7166
  505MOL0     H66621  -0.361   4.800   4.888  2.3553 -1.1111  0.6746
  505MOL0     H66622  -0.530   4.990   4.799  1.5908 -0.0173 -0.8610
  505MOL0     H66623  -0.749   5.035   4.744  2.3514  0.0163  1.7886
  505MOL0     H66624  -1.115   5.073   4.898  1.0210  2.6493 -1.1181
  505MOL0     H66625  -1.359   5.148   4.887  1.1617 -2.7696  1.6001
  505MOL0     H66626  -1.600   5.139   4.530  1.1465 -0.4713  1.3224
  505MOL0     H66627  -1.517   5.280   4.474  2.7597  0.7044  2.4151
  505MOL0     H66628  -1.666   5.431   4.608  0.7915  0.2817  0.3478
  505MOL0     H66629  -1.736   5.286   4.692  0.4839 -0.7428  0.8404
  505MOL0     H66630  -1.852   5.213   4.503 -1.0323  0.8741  2.1438
  505MOL0     H66631  -1.773   5.315   4.380 -1.6256 -3.0083 -1.0680
  505MOL0     H66632  -1.886   5.487   4.594  1.6271  0.5244 -0.0127
  505MOL0     H66633  -1.867   5.506   4.430  1.2195 -1.0361 -1.7075
  505MOL0     H66634  -2.069   5.294   4.539  2.2874 -0.2186  0.8684
  505MOL0     H66635  -2.048   5.341   4.374  0.0554 -2.1513  0.5239
  505MOL0     H66636  -2.124   5.569   4.406 -1.8281  0.8767 -0.6233
  505MOL0     H66637  -2.136   5.551   4.578 -0.9490 -0.7026  0.4725
  505MOL0     H66638  -2.276   5.383   4.357 -1.3852 -1.8232  0.5737
  505MOL0     H66639  -2.350   5.385   4.515 -0.4065 -1.7758 -2.9827
  505MOL0     H66640  -2.337   5.613   4.310 -3.1669 -0.1068 -1.9021
  505MOL0     H66641  -2.396   5.630   4.484 -1.9854 -1.3335  0.9945
  505MOL0     H66642  -1.330   5.156   4.455  0.0487  2.8801  0.6043
  505MOL0     H66643  -1.133   5.011   4.470 -1.8115 -0.1918 -0.5754
  505MOL0     H66644  -0.776   4.635   4.557 -0.2162 -1.5650  1.4788
  505MOL0     H66645  -0.547   4.618   4.571 -0.5899  0.1451 -0.4008
  505MOL0     H66646   1.150   5.215   4.647  1.0948 -0.1049 -1.0274
  505MOL0     H66647   1.386   5.221   4.686  1.3898  0.2966  1.6650
  505MOL0     H66648   1.703   5.627   4.751 -1.2753 -1.5759  0.0956
  505MOL0     H66649   1.957   5.693   4.758  2.1001 -0.1137  1.2769
  505MOL0     H66650   2.287   5.454   4.711 -1.7731  0.8077 -0.6402
  505MOL0     H66651   2.252   5.409   4.880  2.2389 -2.2775 -1.9675
  505MOL0     H66652   2.395   5.647   4.764 -0.9488  1.7194  0.1652
  505MOL0     H66653   2.321   5.671   4.924 -3.1538  1.1004 -2.6795
  505MOL0     H66654   2.559   5.609   4.923  0.5328 -0.1560 -1.1868
  505MOL0     H66655   2.522   5.462   4.836 -0.8509 -0.3520 -0.3905
  505MOL0     H66656   2.376   5.486   5.098 -0.2467 -1.7454  1.6890
  505MOL0     H66657   2.440   5.338   5.014 -0.5686  0.0443  1.7058
  505MOL0     H66658   2.752   5.429   5.275 -1.7608 -3.1041  1.4095
  505MOL0     H66659   2.079   5.312   4.845 -0.2987  0.0762 -0.0644
  505MOL0     H66660   1.856   5.220   4.798 -1.1567  0.5062 -1.7776
  506MOL0     O66661  11.094   4.167   1.095 -0.6315 -0.0324 -0.0725
  506MOL0     C66662  11.151   4.077   1.159  0.3231  0.1379  0.5817
  506MOL0     O66663  11.083   3.967   1.210 -0.5455 -0.3753  0.0619
  506MOL0     C66664  10.959   3.937   1.181  0.6821 -0.0834  0.0185
  506MOL0     C66665  10.923   3.846   1.078  0.4768  0.5962  0.4051
  506MOL0     C66666  10.791   3.803   1.055 -0.5798  0.3273 -0.3313
  506MOL0     C66667  10.682   3.867   1.121 -0.1561  0.6781  0.1232
  506MOL0     O66668  10.551   3.835   1.081  0.1502  0.1739  0.5807
  506MOL0     C66669  10.453   3.843   1.182 -0.2597 -0.4751  0.1460
  506MOL0     C66670  10.318   3.788   1.128 -0.1935 -0.1094 -0.2302
  506MOL0     C66671  10.214   3.815   1.227 -0.4107  0.1323 -0.3178
  506MOL0     C66672  10.083   3.742   1.205 -0.1374 -0.0196  0.2797
  506MOL0     C66673   9.979   3.771   1.321 -0.6979 -0.1763 -0.4436
  506MOL0     C66674   9.845   3.709   1.276 -0.0711 -0.4125 -0.1019
  506MOL0     C66675   9.748   3.718   1.399 -0.4600 -0.0096  0.9293
  506MOL0     C66676   9.647   3.614   1.395  0.4114  0.8675  0.2694
  506MOL0     N66677   9.559   3.631   1.278  0.6814  0.0628 -0.0800
  506MOL0     C66678   9.494   3.533   1.210  0.4570  0.3554  0.6857
  506MOL0     C66679   9.392   3.578   1.146  0.1797  0.3617  0.1492
  506MOL0     C66680   9.300   3.503   1.060  0.1130 -0.0609 -0.2682
  506MOL0     C66681   9.203   3.429   1.149  0.4263 -0.0348  0.3967
  506MOL0     C66682   9.102   3.340   1.070 -1.0080  0.6000  0.6150
  506MOL0     C66683   8.990   3.283   1.153 -0.9847  0.3071 -0.7619
  506MOL0     O66684   8.885   3.375   1.153 -0.5511  0.0854  0.3712
  506MOL0     C66685   8.777   3.341   1.228 -0.4678  0.7161 -0.0288
  506MOL0     C66686   8.668   3.426   1.227  0.0479  0.6029  0.4805
  506MOL0     C66687   8.554   3.413   1.304  0.6107 -0.3001  0.3066
  506MOL0     C66688   8.555   3.304   1.398  0.8712 -0.0826 -0.7434
  506MOL0     C66689   8.423   3.280   1.480 -0.0780 -1.5225  0.9521
  506MOL0     O66690   8.318   3.352   1.422  1.0814  0.4880  0.1215
  506MOL0     C66691   8.195   3.334   1.468  1.1682 -0.8633 -0.2614
  506MOL0     C66692   8.082   3.320   1.381 -0.3337  0.4608  0.5254
  506MOL0     C66693   7.957   3.294   1.440 -0.4041 -0.6197 -0.0714
  506MOL0     C66694   7.932   3.281   1.580 -0.1458  0.7675 -0.3991
  506MOL0     O66695   7.813   3.248   1.641 -0.1299  0.1665 -0.1945
  506MOL0     C66696   7.716   3.176   1.563 -0.5176 -0.0756  0.9519
  506MOL0     C66697   7.615   3.252   1.486  0.3311  0.0156 -0.2996
  506MOL0     C66698   7.496   3.286   1.573  0.2491 -1.2299 -0.4563
  506MOL0     C66699   7.400   3.383   1.510 -0.0028 -0.4793 -0.2176
  506MOL0     C66700   7.290   3.436   1.599 -0.4085  0.0383  0.0561
  506MOL0     C66701   7.180   3.499   1.508  0.0544  0.2017  0.4934
  506MOL0     C66702   7.079   3.572   1.596  0.9767  0.7713 -0.4729
  506MOL0     C66703   6.994   3.474   1.686 -0.2771 -0.4873  0.9389
  506MOL0    Cl66704   6.885   3.581   1.781 -0.0039 -0.6065  0.0222
  506MOL0     C66705   8.040   3.311   1.662 -0.8262  0.1847 -0.6059
  506MOL0     C66706   8.162   3.337   1.610  0.0325  0.1412  0.1096
  506MOL0     O66707   8.414   3.192   1.561 -0.5719  0.2280  0.4773
  506MOL0     C66708   8.656   3.200   1.397  0.0881 -0.7765 -0.1692
  506MOL0     C66709   8.769   3.226   1.310 -0.6410  0.3222 -0.1046
  506MOL0     N66710   9.388   3.714   1.170  0.2527 -0.0771  0.3020
  506MOL0     N66711   9.484   3.742   1.257  0.0357  0.2760  0.7939
  506MOL0     C66712  10.709   3.966   1.223  0.3392  0.9094  0.3894
  506MOL0     C66713  10.846   3.996   1.248 -0.1965 -0.4976 -0.4821
  506MOL0     C66714  11.298   4.084   1.165 -0.1959 -0.4735  0.3895
  506MOL0     C66715  11.374   3.964   1.177  0.2402  0.2398  0.7989
  506MOL0     C66716  11.516   3.977   1.179  0.4626 -0.0102 -0.0280
  506MOL0     C66717  11.579   4.099   1.170  0.2186 -0.4247  0.3043
  506MOL0     O66718  11.716   4.111   1.185  0.0430  0.0968 -0.4189
  506MOL0     C66719  11.784   4.231   1.159  0.2325  0.0177  0.0616
  506MOL0     C66720  11.827   4.246   1.016  0.1263 -0.3265 -0.4777
  506MOL0     C66721  11.931   4.143   0.969 -0.9482  0.1739 -0.5398
  506MOL0     C66722  12.073   4.172   1.009 -0.5482  0.0515 -0.2364
  506MOL0     C66723  12.128   4.297   0.947  0.0675  0.7520 -0.6889
  506MOL0     C66724  12.187   4.395   0.904 -0.4315 -0.2618 -0.4619
  506MOL0     C66725  11.500   4.207   1.141 -0.1792  0.2275 -0.9428
  506MOL0     C66726  11.364   4.206   1.140 -0.3351 -0.0353  0.1373
  506MOL0     H66727  11.004   3.812   1.015 -1.1962  0.1157 -1.5891
  506MOL0     H66728  10.781   3.738   0.968  5.5985  0.1425 -1.3465
  506MOL0     H66729  10.435   3.946   1.213  0.8737 -0.3269  0.3612
  506MOL0     H66730  10.487   3.784   1.267 -0.0697 -1.1578 -0.3888
  506MOL0     H66731  10.332   3.681   1.111 -1.3129 -0.1881 -0.7555
  506MOL0     H66732  10.282   3.824   1.031 -1.3243  3.3439  1.2957
  506MOL0     H66733  10.198   3.923   1.229 -0.3174  0.1363  0.2522
  506MOL0     H66734  10.252   3.797   1.328 -3.1773  1.7894  1.1349
  506MOL0     H66735  10.049   3.792   1.114  4.1339 -0.2116 -1.6553
  506MOL0     H66736  10.105   3.635   1.197  4.6935  0.6519  1.2332
  506MOL0     H66737   9.972   3.878   1.340 -0.9443  0.1885 -2.4167
  506MOL0     H66738  10.024   3.725   1.410  0.6651  1.7837 -0.0791
  506MOL0     H66739   9.862   3.603   1.253  3.0082  0.1289 -0.8220
  506MOL0     H66740   9.804   3.755   1.186 -2.1905 -0.0310  0.9977
  506MOL0     H66741   9.812   3.708   1.487 -0.7476 -0.1550  1.1208
  506MOL0     H66742   9.707   3.819   1.389 -0.2904 -0.1439 -2.5582
  506MOL0     H66743   9.583   3.627   1.483 -0.3103 -1.5791  0.2021
  506MOL0     H66744   9.696   3.516   1.398 -2.6419 -0.7824  2.1394
  506MOL0     H66745   9.513   3.426   1.216  1.1485  0.2789 -1.7683
  506MOL0     H66746   9.355   3.429   1.001 -0.9177 -0.3970 -0.8270
  506MOL0     H66747   9.259   3.577   0.991  1.3449 -1.0805 -2.1899
  506MOL0     H66748   9.153   3.500   1.216  1.5957  1.2746 -0.0799
  506MOL0     H66749   9.267   3.372   1.217  0.9792  0.9297  0.6953
  506MOL0     H66750   9.055   3.395   0.988 -1.4467 -1.3707 -0.5226
  506MOL0     H66751   9.155   3.251   1.035  1.8464  1.9370  1.2362
  506MOL0     H66752   9.033   3.260   1.251  1.0444  0.8016 -1.4798
  506MOL0     H66753   8.959   3.189   1.107 -0.1677 -0.8487  0.9432
  506MOL0     H66754   8.680   3.514   1.164  0.3906  2.7652  3.3323
  506MOL0     H66755   8.471   3.483   1.300  0.9775  0.1559  0.6214
  506MOL0     H66756   8.095   3.303   1.275  0.5523  0.5501  0.6149
  506MOL0     H66757   7.876   3.285   1.369  1.6011  1.5679 -2.8430
  506MOL0     H66758   7.662   3.116   1.638 -0.8721 -0.3440  0.4854
  506MOL0     H66759   7.781   3.114   1.501 -0.0934  0.6999  0.6217
  506MOL0     H66760   7.567   3.187   1.412 -0.1475 -0.6749  0.6018
  506MOL0     H66761   7.653   3.347   1.449 -1.7262  2.1590  2.6137
  506MOL0     H66762   7.530   3.327   1.669 -1.6241 -0.9110  0.1294
  506MOL0     H66763   7.450   3.190   1.600  1.7073 -1.9239 -0.3588
  506MOL0     H66764   7.454   3.466   1.465 -1.0816 -0.1952 -1.0310
  506MOL0     H66765   7.355   3.331   1.425 -0.9885 -1.4737  0.8615
  506MOL0     H66766   7.325   3.512   1.669  0.4989  0.1004 -0.4543
  506MOL0     H66767   7.255   3.359   1.668  2.9051 -0.8692  0.9191
  506MOL0     H66768   7.136   3.417   1.450  0.6894 -1.6508  2.4776
  506MOL0     H66769   7.229   3.576   1.447  0.8843  0.0156  0.9107
  506MOL0     H66770   7.140   3.637   1.661 -2.4504  1.1088  2.7955
  506MOL0     H66771   7.028   3.633   1.521  1.3634 -0.8905 -2.1409
  506MOL0     H66772   7.061   3.414   1.748 -0.0806 -0.6651  0.5550
  506MOL0     H66773   6.948   3.417   1.605 -0.6436  4.1817 -2.5691
  506MOL0     H66774   8.013   3.329   1.765 -0.2803  0.8301 -0.5687
  506MOL0     H66775   8.246   3.362   1.674 -0.2435  0.7516  0.2447
  506MOL0     H66776   8.663   3.117   1.466  1.4733 -0.1624  0.4735
  506MOL0     H66777   8.857   3.163   1.312 -0.4736  0.5607  0.4013
  506MOL0     H66778  10.623   4.016   1.268 -2.3808  0.4839 -3.7841
  506MOL0     H66779  10.870   4.075   1.319  2.0644  1.5545 -3.3124
  506MOL0     H66780  11.323   3.869   1.187  2.3678 -1.6932 -3.6864
  506MOL0     H66781  11.581   3.891   1.195  1.4423  0.9029  1.0381
  506MOL0     H66782  11.873   4.232   1.223  1.2530 -0.7287 -1.2646
  506MOL0     H66783  11.742   4.327   1.191  3.3745  0.8723  2.1230
  506MOL0     H66784  11.743   4.238   0.947 -1.1370 -1.3556  1.0798
  506MOL0     H66785  11.873   4.344   1.003  1.5964 -0.7707  0.9637
  506MOL0     H66786  11.918   4.128   0.861 -2.3335 -3.8879  0.0018
  506MOL0     H66787  11.898   4.048   1.013 -1.2503  1.5457  2.3838
  506MOL0     H66788  12.075   4.186   1.118 -2.8564  0.9608 -0.2417
  506MOL0     H66789  12.139   4.087   0.993 -0.6497  0.2166 -1.6177
  506MOL0     H66790  12.222   4.486   0.860 -0.0924 -0.5197 -0.7324
  506MOL0     H66791  11.540   4.307   1.131 -0.4902  0.2324 -2.3372
  506MOL0     H66792  11.306   4.295   1.118  1.5485  0.8984 -1.2756
  507MOL0     O66793   4.753   8.481  11.162 -0.3055 -0.7961  0.9888
  507MOL0     C66794   4.760   8.584  11.094 -0.1331  0.1685 -0.3803
  507MOL0     O66795   4.655   8.669  11.070 -0.9175  0.4514 -0.5464
  507MOL0     C66796   4.528   8.645  11.117 -1.4713 -0.3133 -0.2113
  507MOL0     C66797   4.425   8.634  11.025  0.1772  0.0549  0.7887
  507MOL0     C66798   4.296   8.612  11.074  0.4185 -0.4905  0.9675
  507MOL0     C66799   4.262   8.595  11.209  0.1337  0.0281  0.2587
  507MOL0     O66800   4.132   8.581  11.255 -0.0158  0.1051 -0.2933
  507MOL0     C66801   4.016   8.568  11.172 -0.6319  0.2399  1.4756
  507MOL0     C66802   3.900   8.617  11.253  0.5968  0.3306  0.0591
  507MOL0     C66803   3.769   8.575  11.186  0.3585 -0.1030 -0.2077
  507MOL0     C66804   3.647   8.632  11.251  0.0100 -0.3255 -0.0886
  507MOL0     C66805   3.522   8.564  11.192  0.3872  0.1784 -0.2963
  507MOL0     C66806   3.399   8.594  11.270 -0.3352 -0.1906  0.2715
  507MOL0     C66807   3.266   8.527  11.207  0.7225  0.2516 -0.2907
  507MOL0     C66808   3.283   8.375  11.192 -0.1102  0.4225  0.8525
  507MOL0     N66809   3.158   8.298  11.182 -0.3729 -0.4502  0.1653
  507MOL0     C66810   3.060   8.305  11.085  0.2637 -0.2920  0.3374
  507MOL0     C66811   2.995   8.187  11.086 -0.4278 -0.1224 -0.7957
  507MOL0     C66812   2.872   8.149  10.999 -0.5139  0.1013 -0.1093
  507MOL0     C66813   2.799   8.024  11.038 -0.7729 -0.0358  0.2025
  507MOL0     C66814   2.871   7.902  10.969  0.0271 -0.3094 -0.0594
  507MOL0     C66815   2.887   7.773  11.052 -0.2478 -0.2613  0.4676
  507MOL0     O66816   2.773   7.689  11.046 -0.0009  0.0030  0.5448
  507MOL0     C66817   2.662   7.701  11.123  0.6770  0.1991  0.0230
  507MOL0     C66818   2.556   7.626  11.083 -0.4963 -0.6646  0.3945
  507MOL0     C66819   2.438   7.623  11.158  0.1041  0.6270  0.6938
  507MOL0     C66820   2.418   7.698  11.277 -1.0268 -0.2428  0.9547
  507MOL0     C66821   2.288   7.689  11.358 -0.7479 -0.3842 -0.3450
  507MOL0     O66822   2.284   7.705  11.495 -0.5403  0.6871 -0.1812
  507MOL0     C66823   2.161   7.696  11.563 -0.3279  0.3262  0.4428
  507MOL0     C66824   2.068   7.594  11.525  0.7431  0.3348  0.1224
  507MOL0     C66825   1.939   7.577  11.585 -0.0555 -0.6732  0.7583
  507MOL0     C66826   1.907   7.673  11.690  0.3111  0.1151 -0.4464
  507MOL0     O66827   1.787   7.676  11.760  0.5173  0.3520  0.1214
  507MOL0     C66828   1.693   7.778  11.717  0.3499 -0.4460  0.0500
  507MOL0     C66829   1.583   7.778  11.816 -0.1015  0.8923  0.2521
  507MOL0     C66830   1.463   7.852  11.761 -0.1584  0.4689 -0.2424
  507MOL0     C66831   1.348   7.865  11.864  0.3156  0.6458 -0.8138
  507MOL0     C66832   1.248   7.976  11.832 -0.3913  0.2067 -0.1229
  507MOL0     C66833   1.164   7.946  11.712 -0.8279 -0.0199  1.4647
  507MOL0     C66834   1.032   8.031  11.704 -0.1047 -0.5065 -0.3042
  507MOL0     C66835   0.949   8.023  11.584  0.4495 -0.1927  0.7518
  507MOL0    Cl66836   0.936   7.848  11.528  0.5374 -0.0257  0.2596
  507MOL0     C66837   2.005   7.770  11.724  0.5852 -0.9932 -0.5520
  507MOL0     C66838   2.127   7.779  11.668 -1.0524  1.2049 -0.5192
  507MOL0     O66839   2.186   7.685  11.284  0.4584 -0.3078 -0.7051
  507MOL0     C66840   2.530   7.774  11.323  0.5119 -0.1563 -0.3290
  507MOL0     C66841   2.648   7.774  11.246  0.7292  0.5724 -0.2228
  507MOL0     N66842   3.068   8.106  11.170  0.6335  1.0115 -0.2684
  507MOL0     N66843   3.166   8.167  11.226  0.2946  0.0174 -0.8431
  507MOL0     C66844   4.360   8.601  11.299  1.1530  0.4989 -1.0695
  507MOL0     C66845   4.495   8.627  11.259  0.0683  0.8654 -0.1858
  507MOL0     C66846   4.891   8.613  11.037  0.0599 -0.6437 -0.3587
  507MOL0     C66847   4.996   8.523  11.053  0.7812 -0.1368  0.1842
  507MOL0     C66848   5.122   8.554  11.007 -0.5769 -0.1331 -0.6125
  507MOL0     C66849   5.147   8.674  10.944 -0.1113  0.0181 -0.1142
  507MOL0     O66850   5.277   8.687  10.897 -0.1241 -0.7460 -0.5636
  507MOL0     C66851   5.326   8.823  10.900 -0.7142 -0.7265  0.2946
  507MOL0     C66852   5.474   8.841  10.950  0.1808  0.4220  0.3881
  507MOL0     C66853   5.508   8.738  11.057  0.3568  0.3790 -0.0573
  507MOL0     C66854   5.621   8.775  11.145 -0.1377  0.6321 -0.7206
  507MOL0     C66855   5.749   8.788  11.078  0.2383 -0.3665  0.2045
  507MOL0     C66856   5.857   8.805  11.010  0.6558 -0.2454  0.0366
  507MOL0     C66857   5.044   8.764  10.925  0.1683  0.0409  0.1594
  507MOL0     C66858   4.914   8.739  10.979 -0.2582 -0.8731 -0.0943
  507MOL0     H66859   4.446   8.649  10.920 -0.5448 -0.1656  0.6112
  507MOL0     H66860   4.220   8.613  10.996  0.9482 -0.9421  0.4392
  507MOL0     H66861   4.017   8.464  11.138  2.9705  0.7538 -0.5320
  507MOL0     H66862   4.019   8.629  11.081 -2.1922  0.9220  1.8441
  507MOL0     H66863   3.914   8.724  11.267  1.8089  0.0020  1.8179
  507MOL0     H66864   3.892   8.560  11.347 -0.5277 -1.5047 -1.0984
  507MOL0     H66865   3.762   8.466  11.190  3.9861 -0.5587 -2.1874
  507MOL0     H66866   3.768   8.614  11.083  0.8782  1.0906  0.2122
  507MOL0     H66867   3.650   8.596  11.354  0.1755  0.8396  0.3365
  507MOL0     H66868   3.646   8.742  11.255 -1.0339 -0.3340  3.3865
  507MOL0     H66869   3.535   8.457  11.171  1.1467  0.3430 -0.6892
  507MOL0     H66870   3.502   8.604  11.092  0.9358  1.3344  0.0422
  507MOL0     H66871   3.383   8.702  11.268 -1.5180 -0.3287  1.2444
  507MOL0     H66872   3.404   8.553  11.372 -0.6574 -0.6760  0.0947
  507MOL0     H66873   3.190   8.550  11.282  1.2635 -2.7952  1.3435
  507MOL0     H66874   3.226   8.567  11.113 -1.5064 -3.7373 -1.2387
  507MOL0     H66875   3.343   8.336  11.275 -0.6107 -1.5344  0.3341
  507MOL0     H66876   3.343   8.369  11.101 -2.6650  1.2950 -1.0108
  507MOL0     H66877   3.044   8.385  11.014 -1.3262  1.3227  2.3797
  507MOL0     H66878   2.909   8.148  10.896  1.3434 -1.0779  0.5260
  507MOL0     H66879   2.808   8.238  11.011  2.1618  1.9631  1.4434
  507MOL0     H66880   2.693   8.018  11.011 -0.5533  1.8314 -1.2872
  507MOL0     H66881   2.818   8.015  11.146  0.5475 -1.5617 -0.1279
  507MOL0     H66882   2.812   7.881  10.879 -1.8730  2.9096  0.2738
  507MOL0     H66883   2.968   7.934  10.930 -0.3523 -2.2865 -2.9047
  507MOL0     H66884   2.905   7.803  11.156 -2.3892  2.2060  0.2268
  507MOL0     H66885   2.972   7.715  11.016  0.2536  1.5493 -1.4495
  507MOL0     H66886   2.579   7.565  10.996 -0.0096  1.4081 -0.9908
  507MOL0     H66887   2.353   7.562  11.129  1.3790  0.4614 -3.2159
  507MOL0     H66888   2.101   7.524  11.449 -1.9086 -1.6004  0.6021
  507MOL0     H66889   1.875   7.497  11.548  4.6954 -4.0943 -1.1233
  507MOL0     H66890   1.650   7.761  11.618  2.2168  0.5933 -1.0085
  507MOL0     H66891   1.749   7.872  11.715  1.8589 -1.2067  2.3028
  507MOL0     H66892   1.620   7.826  11.907  1.5266 -1.8147  1.1430
  507MOL0     H66893   1.568   7.681  11.863  2.3301  1.6794  2.9827
  507MOL0     H66894   1.427   7.798  11.673  0.3142 -2.5937  1.3055
  507MOL0     H66895   1.494   7.954  11.735 -1.5500  0.9845  0.0421
  507MOL0     H66896   1.294   7.771  11.885 -1.0974  1.7453  0.8551
  507MOL0     H66897   1.390   7.888  11.962 -2.0428  1.8563  0.0053
  507MOL0     H66898   1.296   8.073  11.814  0.8076 -0.1705  0.9684
  507MOL0     H66899   1.182   7.999  11.916 -0.2679  0.9286 -0.2155
  507MOL0     H66900   1.143   7.840  11.695  2.2014 -0.4353 -0.2935
  507MOL0     H66901   1.226   7.971  11.625 -1.6375  0.3439  0.9869
  507MOL0     H66902   0.965   8.007  11.787 -0.7947  2.2011  0.0360
  507MOL0     H66903   1.051   8.138  11.718 -0.9524 -0.0826 -2.1557
  507MOL0     H66904   1.009   8.071  11.506 -1.3705  3.4764  1.3939
  507MOL0     H66905   0.847   8.061  11.592 -0.9972 -3.5505 -0.1576
  507MOL0     H66906   1.982   7.839  11.804  0.3854 -3.0887  1.3049
  507MOL0     H66907   2.195   7.851  11.711 -0.4636  0.1233  0.4094
  507MOL0     H66908   2.525   7.838  11.410 -1.7869  1.9164 -1.8611
  507MOL0     H66909   2.738   7.821  11.284  2.8697 -1.7462 -2.0744
  507MOL0     H66910   4.337   8.578  11.402  0.1530 -1.3492 -1.6726
  507MOL0     H66911   4.567   8.613  11.339  1.2648  2.5474 -0.9102
  507MOL0     H66912   4.973   8.428  11.098  0.6498 -0.0452  0.3112
  507MOL0     H66913   5.205   8.484  11.013  0.4859  1.2053  2.9654
  507MOL0     H66914   5.265   8.893  10.959  1.4103  1.4388  0.0680
  507MOL0     H66915   5.325   8.869  10.801  1.7228  2.2286  1.4746
  507MOL0     H66916   5.546   8.819  10.871 -1.1677  1.4207 -1.2017
  507MOL0     H66917   5.500   8.942  10.981  0.2479  1.0599 -1.6053
  507MOL0     H66918   5.522   8.641  11.009  1.2443  0.9033 -0.8818
  507MOL0     H66919   5.411   8.739  11.108 -1.3870  3.0031 -3.0583
  507MOL0     H66920   5.583   8.860  11.202  2.3905  0.4240  1.4693
  507MOL0     H66921   5.631   8.694  11.218  0.2654  2.6315  1.5726
  507MOL0     H66922   5.951   8.821  10.959 -0.0720 -0.3123 -1.3828
  507MOL0     H66923   5.051   8.867  10.890  1.7744  0.9002  2.7557
  507MOL0     H66924   4.831   8.808  10.972 -0.7885 -1.3664  1.0662
  508MOL0     O66925   3.974   9.450   2.840  0.0289 -0.2044  0.1633
  508MOL0     C66926   4.004   9.380   2.938 -0.2602 -0.3063  0.6178
  508MOL0     O66927   3.958   9.393   3.065  0.2392  0.7809  0.2645
  508MOL0     C66928   3.849   9.475   3.099 -0.1375 -0.4019  0.2067
  508MOL0     C66929   3.848   9.610   3.077 -0.3296  0.0427  0.0456
  508MOL0     C66930   3.732   9.679   3.116  0.7867 -0.1947  0.5176
  508MOL0     C66931   3.626   9.614   3.179 -0.9762 -0.4954 -0.4030
  508MOL0     O66932   3.511   9.694   3.183  0.4692  0.3863 -0.0598
  508MOL0     C66933   3.413   9.657   3.274 -0.0604 -0.2554 -0.5643
  508MOL0     C66934   3.326   9.778   3.315 -0.1297  0.4520  0.2188
  508MOL0     C66935   3.210   9.758   3.408 -0.5407 -0.4496 -0.0778
  508MOL0     C66936   3.110   9.869   3.400 -0.7099 -0.4499  0.3801
  508MOL0     C66937   2.984   9.837   3.475 -0.4180 -0.2037 -0.1066
  508MOL0     C66938   2.905   9.969   3.493  0.3818 -0.0626  0.0729
  508MOL0     C66939   2.777   9.967   3.573  1.0369  0.3383 -0.8073
  508MOL0     C66940   2.676  10.066   3.524 -0.2077 -0.3360 -0.0770
  508MOL0     N66941   2.554  10.064   3.616  0.3228 -0.2567 -0.1641
  508MOL0     C66942   2.531  10.149   3.714  0.5168  0.3427 -0.6055
  508MOL0     C66943   2.406  10.121   3.751  1.6354  0.5361  0.2939
  508MOL0     C66944   2.326  10.207   3.847  0.4394 -0.2739 -0.0632
  508MOL0     C66945   2.184  10.243   3.794 -0.5526 -0.2935 -0.3253
  508MOL0     C66946   2.093  10.294   3.908  0.1265 -0.4943  0.0806
  508MOL0     C66947   1.985  10.371   3.834 -0.1374 -0.5034 -0.6650
  508MOL0     O66948   1.895  10.298   3.752  0.2134 -0.9222 -1.2141
  508MOL0     C66949   1.762  10.336   3.745 -0.7686 -0.1314  0.1020
  508MOL0     C66950   1.710  10.454   3.791 -0.6764 -0.2410  0.6295
  508MOL0     C66951   1.571  10.479   3.806  0.8930  0.3365 -0.4924
  508MOL0     C66952   1.483  10.381   3.764  0.3741 -0.3456 -0.3589
  508MOL0     C66953   1.340  10.406   3.768 -0.5016  0.8920 -0.4197
  508MOL0     O66954   1.259  10.319   3.691  0.3585  0.6263 -0.1659
  508MOL0     C66955   1.124  10.328   3.718 -0.3768 -0.3118  1.2591
  508MOL0     C66956   1.041  10.423   3.655 -0.7775  0.4785 -0.5416
  508MOL0     C66957   0.909  10.444   3.708 -0.6226  0.3371 -0.6588
  508MOL0     C66958   0.861  10.375   3.816 -1.2533 -0.0405 -0.7087
  508MOL0     O66959   0.744  10.390   3.875  0.0073  0.0488  0.7923
  508MOL0     C66960   0.664  10.516   3.839 -0.7475  0.2194 -0.1923
  508MOL0     C66961   0.534  10.536   3.923  0.6257  0.2366 -0.7600
  508MOL0     C66962   0.484  10.671   3.913  0.8791 -0.5050 -0.6843
  508MOL0     C66963   0.392  10.700   3.792 -0.3608  0.9522  0.4892
  508MOL0     C66964   0.308  10.833   3.800  0.3921  0.2272  0.4289
  508MOL0     C66965   0.389  10.964   3.754  0.2979  0.4352  0.1197
  508MOL0     C66966   0.434  10.958   3.615  0.2539  0.3499  0.9154
  508MOL0     C66967   0.464  11.083   3.528 -0.4388 -0.1884 -0.7101
  508MOL0    Cl66968   0.563  11.039   3.376 -0.1106 -0.5603 -0.4466
  508MOL0     C66969   0.944  10.265   3.863  0.7067 -0.2032  0.2325
  508MOL0     C66970   1.075  10.243   3.814  1.5549  0.2866 -0.1374
  508MOL0     O66971   1.309  10.507   3.825 -0.0752 -0.0590  0.6238
  508MOL0     C66972   1.536  10.263   3.707 -0.5814 -0.6474 -1.9082
  508MOL0     C66973   1.668  10.243   3.698 -0.6802  0.4380 -0.3440
  508MOL0     N66974   2.351  10.021   3.674  0.1397  0.0067  0.2002
  508MOL0     N66975   2.444   9.991   3.589 -0.0367  0.4620 -0.1863
  508MOL0     C66976   3.634   9.479   3.202  0.1988  0.1087  0.0481
  508MOL0     C66977   3.746   9.413   3.158 -0.2304 -0.2456  0.3132
  508MOL0     C66978   4.110   9.290   2.931 -0.8102 -0.1648 -0.6981
  508MOL0     C66979   4.182   9.241   3.047 -0.4023  0.1996  0.4702
  508MOL0     C66980   4.275   9.138   3.033  0.8854 -0.4977 -0.0615
  508MOL0     C66981   4.324   9.101   2.900  0.9712 -0.3777 -0.4496
  508MOL0     O66982   4.430   9.018   2.891  0.1155  0.5199 -0.4391
  508MOL0     C66983   4.538   9.074   2.824 -0.4550  0.4840 -0.6544
  508MOL0     C66984   4.672   9.001   2.859 -0.2273 -0.0467 -0.4507
  508MOL0     C66985   4.788   9.046   2.761  0.5896  1.2293 -0.5058
  508MOL0     C66986   4.907   8.971   2.811 -1.0673  0.3586  0.9341
  508MOL0     C66987   5.021   9.015   2.738 -0.5641  1.0781 -0.2415
  508MOL0     C66988   5.114   9.060   2.675  0.5319  0.3122  0.3513
  508MOL0     C66989   4.260   9.153   2.792  0.6563 -0.1672 -0.7948
  508MOL0     C66990   4.152   9.238   2.810 -0.0405 -0.1690 -0.0060
  508MOL0     H66991   3.931   9.659   3.026 -0.5830 -0.9329 -1.3744
  508MOL0     H66992   3.732   9.786   3.098 -0.0826 -0.0321  1.4334
  508MOL0     H66993   3.465   9.615   3.361  0.5172  0.7264 -0.4223
  508MOL0     H66994   3.350   9.578   3.232 -0.5176 -0.0378 -0.3011
  508MOL0     H66995   3.300   9.831   3.223  0.2423  0.0314 -0.1333
  508MOL0     H66996   3.392   9.850   3.366 -1.0420  1.4745 -0.0039
  508MOL0     H66997   3.250   9.733   3.507 -0.3883 -1.0941 -0.2967
  508MOL0     H66998   3.163   9.665   3.375  0.8020 -1.4273  0.6574
  508MOL0     H66999   3.164   9.953   3.444  2.6226 -2.9552  1.5584
  508MOL0     H67000   3.091   9.865   3.292  1.6658 -5.4416 -0.1729
  508MOL0     H67001   3.009   9.802   3.576  0.8566 -2.5195 -1.1289
  508MOL0     H67002   2.931   9.762   3.415  1.4216 -2.9919  1.4889
  508MOL0     H67003   2.883  10.000   3.391 -2.1783 -2.0590 -0.0779
  508MOL0     H67004   2.968  10.052   3.527 -0.9607  1.6362 -1.3497
  508MOL0     H67005   2.732   9.869   3.555 -0.6034  1.1150 -1.1145
  508MOL0     H67006   2.789   9.975   3.681  0.5496 -2.3447 -0.4871
  508MOL0     H67007   2.647  10.035   3.423  0.7100  1.3011 -0.8863
  508MOL0     H67008   2.720  10.166   3.512  0.5213 -0.3933  1.8445
  508MOL0     H67009   2.599  10.226   3.750  0.5141 -0.3926  1.0395
  508MOL0     H67010   2.373  10.300   3.878  0.8337 -1.5988  3.9246
  508MOL0     H67011   2.323  10.156   3.944 -2.2749 -0.0936  0.0428
  508MOL0     H67012   2.145  10.158   3.739  1.2283 -3.6601  3.1173
  508MOL0     H67013   2.207  10.324   3.725  1.1495 -0.7807 -0.3676
  508MOL0     H67014   2.053  10.204   3.956  3.0338 -1.5034  0.8262
  508MOL0     H67015   2.146  10.362   3.976  0.2814 -0.3750 -0.1555
  508MOL0     H67016   2.039  10.446   3.776  0.2122 -0.3530 -0.1509
  508MOL0     H67017   1.928  10.419   3.914  0.6507 -4.2237  2.4081
  508MOL0     H67018   1.777  10.532   3.826 -1.1923  0.6364 -0.2752
  508MOL0     H67019   1.534  10.567   3.858  0.8924  1.0388 -1.6316
  508MOL0     H67020   1.090  10.482   3.578 -1.7708 -0.5334 -1.9904
  508MOL0     H67021   0.848  10.513   3.651  1.7001  0.8731 -2.6956
  508MOL0     H67022   0.641  10.530   3.732  2.4627 -0.2277 -1.0524
  508MOL0     H67023   0.737  10.596   3.853 -2.8893  1.9918  1.6888
  508MOL0     H67024   0.551  10.524   4.031  1.4906  1.9220 -0.6774
  508MOL0     H67025   0.469  10.454   3.892  0.4446 -0.7670  1.9970
  508MOL0     H67026   0.566  10.744   3.911  0.7397 -0.3279 -2.9662
  508MOL0     H67027   0.426  10.684   4.004 -0.2775 -1.0130 -1.3364
  508MOL0     H67028   0.451  10.677   3.703 -0.1181  0.1415  0.8456
  508MOL0     H67029   0.313  10.625   3.807  0.3426 -0.0036 -0.4218
  508MOL0     H67030   0.288  10.853   3.905 -1.0220  0.2742  0.1675
  508MOL0     H67031   0.217  10.822   3.741 -0.6468  0.0798  2.0088
  508MOL0     H67032   0.479  10.978   3.815  1.1018 -2.0127 -0.3730
  508MOL0     H67033   0.314  11.043   3.744  0.1502  0.0000 -3.3238
  508MOL0     H67034   0.530  10.906   3.611  0.7240  1.1178  1.7953
  508MOL0     H67035   0.356  10.907   3.558  0.1112  0.6480  0.8432
  508MOL0     H67036   0.530  11.152   3.581  2.4113 -1.4624 -2.3245
  508MOL0     H67037   0.369  11.119   3.489 -0.8784 -1.9261 -1.3447
  508MOL0     H67038   0.901  10.212   3.948  1.6897 -1.7701 -0.2072
  508MOL0     H67039   1.133  10.160   3.854 -0.5731 -1.7093 -0.9536
  508MOL0     H67040   1.470  10.189   3.662 -0.2838 -1.3169 -1.2564
  508MOL0     H67041   1.715  10.153   3.662  2.4647  2.0334 -0.5156
  508MOL0     H67042   3.555   9.419   3.246 -0.7657 -0.5293 -2.3872
  508MOL0     H67043   3.771   9.310   3.182  2.9226  0.5548  0.8900
  508MOL0     H67044   4.163   9.288   3.143 -2.4174 -0.7475  0.5872
  508MOL0     H67045   4.322   9.095   3.121 -0.7812  2.1278  2.2830
  508MOL0     H67046   4.546   9.178   2.856  0.5486  0.6745 -1.4487
  508MOL0     H67047   4.512   9.071   2.718  0.7767 -2.7542 -1.0028
  508MOL0     H67048   4.699   9.010   2.965 -2.2844 -0.9264  0.1942
  508MOL0     H67049   4.649   8.895   2.847 -0.9033  0.0102  0.2074
  508MOL0     H67050   4.801   9.154   2.762  1.6740  1.1459 -1.7229
  508MOL0     H67051   4.761   9.003   2.664 -1.3538 -1.3996  1.0891
  508MOL0     H67052   4.935   8.992   2.914  0.8677 -0.5512  0.6433
  508MOL0     H67053   4.880   8.865   2.807 -2.8748  0.7931 -2.2941
  508MOL0     H67054   5.195   9.087   2.610  0.2219 -1.2914 -0.7631
  508MOL0     H67055   4.297   9.128   2.694  1.5903 -0.9096 -0.2665
  508MOL0     H67056   4.102   9.266   2.718 -1.5372 -1.8257  0.2495
  509MOL0     O67057   4.492   1.975   4.825  0.1583 -0.1783 -0.0924
  509MOL0     C67058   4.445   1.949   4.712 -0.0728  0.5423  0.2025
  509MOL0     O67059   4.520   1.939   4.600  0.8502  0.5722  0.5598
  509MOL0     C67060   4.653   1.888   4.598  0.0757 -0.2343  0.5103
  509MOL0     C67061   4.733   1.912   4.484  0.7400 -0.3715 -0.7939
  509MOL0     C67062   4.866   1.862   4.483  0.6533 -0.2782  0.7714
  509MOL0     C67063   4.918   1.785   4.583 -0.0800  0.8606  0.0265
  509MOL0     O67064   5.045   1.732   4.571 -0.1722  0.4440 -0.3851
  509MOL0     C67065   5.094   1.610   4.634  0.8908 -0.9906 -1.0545
  509MOL0     C67066   5.224   1.565   4.578  0.3419 -0.0674 -0.3785
  509MOL0     C67067   5.299   1.460   4.674  0.2912  0.0985  0.2605
  509MOL0     C67068   5.444   1.429   4.639  0.6576 -0.3178 -0.3763
  509MOL0     C67069   5.501   1.322   4.738  0.3442  0.5810  0.1455
  509MOL0     C67070   5.642   1.287   4.704 -0.1477  0.1203  0.8327
  509MOL0     C67071   5.707   1.174   4.787 -0.5165  0.1110  1.0279
  509MOL0     C67072   5.822   1.098   4.713  0.0683  0.1650 -0.2072
  509MOL0     N67073   5.940   1.181   4.711  0.7723  0.3452 -1.0289
  509MOL0     C67074   6.060   1.146   4.762 -0.4349  0.6021 -0.1015
  509MOL0     C67075   6.157   1.236   4.717  0.1771  0.0805  0.7841
  509MOL0     C67076   6.304   1.236   4.743 -0.6189  0.2666 -0.2430
  509MOL0     C67077   6.369   1.108   4.679  0.8144 -0.8513 -0.5995
  509MOL0     C67078   6.526   1.138   4.703 -0.0657  1.1698 -0.1937
  509MOL0     C67079   6.596   1.067   4.829 -0.0600 -0.4547 -0.0084
  509MOL0     O67080   6.732   1.107   4.840  0.5414 -0.0328 -0.0101
  509MOL0     C67081   6.819   1.017   4.895  0.3911  0.5920 -0.4322
  509MOL0     C67082   6.776   0.915   4.979  0.1966 -0.2524  0.0086
  509MOL0     C67083   6.872   0.824   5.028  0.8952  0.6054  0.7429
  509MOL0     C67084   7.010   0.852   5.002 -0.1643 -1.1999  0.4108
  509MOL0     C67085   7.112   0.766   5.056 -0.2424  1.0935 -0.6675
  509MOL0     O67086   7.238   0.775   5.000 -0.5048  0.6774  0.2179
  509MOL0     C67087   7.330   0.686   5.039 -0.8119 -0.3108 -1.0738
  509MOL0     C67088   7.454   0.746   5.084  0.2625  0.7413  0.0491
  509MOL0     C67089   7.564   0.661   5.096 -0.1925  0.5494 -0.2525
  509MOL0     C67090   7.548   0.518   5.085 -0.0120 -0.1923 -0.2094
  509MOL0     O67091   7.649   0.429   5.124 -0.6704  0.9029  0.2450
  509MOL0     C67092   7.738   0.377   5.021  0.1048  0.1576  0.5696
  509MOL0     C67093   7.881   0.426   5.055 -0.4229  0.0908  0.0547
  509MOL0     C67094   7.984   0.419   4.945  0.1669  0.1416  0.1865
  509MOL0     C67095   8.129   0.420   4.992 -0.2557 -0.8213 -0.6761
  509MOL0     C67096   8.182   0.553   5.054  0.0837 -0.2786 -0.9300
  509MOL0     C67097   8.338   0.544   5.089 -0.0718 -0.0562 -0.4546
  509MOL0     C67098   8.385   0.668   5.172  0.0730 -0.2596 -0.3203
  509MOL0     C67099   8.478   0.606   5.283  0.7393  0.2297  1.1001
  509MOL0    Cl67100   8.626   0.532   5.218 -0.3386  0.8112  0.2659
  509MOL0     C67101   7.432   0.467   5.038  0.3341  0.0281 -0.3684
  509MOL0     C67102   7.320   0.547   5.016  1.1725 -0.5603 -0.4318
  509MOL0     O67103   7.075   0.682   5.132 -0.4445  0.0216 -0.4355
  509MOL0     C67104   7.055   0.969   4.930  0.7671 -0.2757 -0.4692
  509MOL0     C67105   6.953   1.047   4.869 -0.6903 -0.2321 -0.5041
  509MOL0     N67106   6.081   1.335   4.644  0.7098  0.0017  0.7792
  509MOL0     N67107   5.957   1.295   4.638  0.3358 -0.9159  0.0479
  509MOL0     C67108   4.836   1.753   4.689  1.8026  0.6226 -0.0998
  509MOL0     C67109   4.702   1.811   4.704  0.1502 -0.6076 -0.0818
  509MOL0     C67110   4.298   1.964   4.702 -0.9384 -0.3066  0.3626
  509MOL0     C67111   4.240   1.910   4.588  0.1964 -0.1773  0.0711
  509MOL0     C67112   4.104   1.926   4.565  0.2367  0.1302  0.7128
  509MOL0     C67113   4.031   1.997   4.656  0.0370  0.1823  0.5478
  509MOL0     O67114   3.901   2.022   4.640 -0.0650 -0.7763 -0.3120
  509MOL0     C67115   3.830   1.965   4.538  0.6154 -0.2048 -0.1324
  509MOL0     C67116   3.779   1.828   4.569  0.2469 -0.3964 -0.0900
  509MOL0     C67117   3.656   1.826   4.662  0.1779  0.9341  0.2910
  509MOL0     C67118   3.603   1.695   4.706 -0.2014 -0.5761  0.5963
  509MOL0     C67119   3.511   1.634   4.613 -0.7239 -0.2021 -0.0387
  509MOL0     C67120   3.428   1.583   4.543  0.9362 -0.2584 -0.5218
  509MOL0     C67121   4.090   2.060   4.761  0.3627  0.2701 -0.4244
  509MOL0     C67122   4.221   2.035   4.795  0.3144 -0.7768  0.4804
  509MOL0     H67123   4.689   1.973   4.406  0.2117  2.6682  1.6921
  509MOL0     H67124   4.926   1.895   4.399 -1.6464 -0.2888 -0.9779
  509MOL0     H67125   5.027   1.524   4.624 -1.3322  0.6620 -1.3887
  509MOL0     H67126   5.095   1.630   4.742 -1.9733 -0.7010 -0.9953
  509MOL0     H67127   5.293   1.650   4.569 -1.3640  1.5018  0.7305
  509MOL0     H67128   5.205   1.523   4.479 -3.6276  0.1375  0.1382
  509MOL0     H67129   5.244   1.366   4.681  1.5527 -0.5560  2.4718
  509MOL0     H67130   5.295   1.515   4.769  1.1186 -1.1847  1.0780
  509MOL0     H67131   5.448   1.387   4.538  0.6835  1.5668 -1.2076
  509MOL0     H67132   5.503   1.521   4.647  1.5950 -0.7501 -1.7952
  509MOL0     H67133   5.440   1.232   4.733 -1.3066  1.5921  1.2393
  509MOL0     H67134   5.499   1.364   4.839 -1.4528  0.6999  0.0952
  509MOL0     H67135   5.709   1.368   4.734  1.0545 -1.0340  1.3777
  509MOL0     H67136   5.652   1.264   4.598  0.0164  0.1785  0.8346
  509MOL0     H67137   5.745   1.218   4.880 -0.8638  3.3582 -0.2327
  509MOL0     H67138   5.623   1.107   4.807 -0.5892 -0.6710 -1.5646
  509MOL0     H67139   5.801   1.060   4.613  0.8211  0.4292 -0.4702
  509MOL0     H67140   5.844   1.015   4.782 -0.6992  0.6132  0.5872
  509MOL0     H67141   6.080   1.056   4.819  2.8511  0.5415 -1.1712
  509MOL0     H67142   6.325   1.229   4.850  4.4962  3.5449 -0.6760
  509MOL0     H67143   6.349   1.333   4.717 -2.0098  1.4272  1.4170
  509MOL0     H67144   6.339   1.100   4.574  1.5467  0.0398 -0.8970
  509MOL0     H67145   6.335   1.022   4.736  0.1350  0.1290  0.5343
  509MOL0     H67146   6.573   1.097   4.614  0.5066  0.1412  0.5680
  509MOL0     H67147   6.556   1.243   4.707  1.3734  1.0128 -3.5673
  509MOL0     H67148   6.592   0.958   4.819 -1.0422 -0.9069  3.8710
  509MOL0     H67149   6.550   1.092   4.925  1.1456  0.9504  0.2219
  509MOL0     H67150   6.671   0.904   5.001 -0.3472 -1.4340 -2.6795
  509MOL0     H67151   6.845   0.735   5.083 -1.6129 -0.3305 -1.7610
  509MOL0     H67152   7.468   0.851   5.109  0.8760  0.7692 -0.3760
  509MOL0     H67153   7.652   0.708   5.138 -2.2355  3.3352  1.2123
  509MOL0     H67154   7.705   0.428   4.930 -0.1508 -0.2943  0.4085
  509MOL0     H67155   7.724   0.269   5.019  1.8256 -0.0986  1.2287
  509MOL0     H67156   7.910   0.355   5.133 -0.1273 -1.1172 -1.1046
  509MOL0     H67157   7.867   0.531   5.083  0.4251  0.1556  0.2625
  509MOL0     H67158   7.954   0.505   4.884 -1.0869  1.2211  2.2392
  509MOL0     H67159   7.966   0.323   4.895  1.8295  0.1403 -0.4823
  509MOL0     H67160   8.144   0.344   5.070  1.4573 -1.5977 -1.7254
  509MOL0     H67161   8.191   0.391   4.908  2.2808  3.5170 -0.6006
  509MOL0     H67162   8.124   0.562   5.147 -0.1297  1.2133 -1.1883
  509MOL0     H67163   8.160   0.643   4.996  0.3965  0.6551  0.3589
  509MOL0     H67164   8.399   0.542   4.998  0.6530  3.3455 -0.1900
  509MOL0     H67165   8.354   0.453   5.147  2.2991  0.2152 -0.5583
  509MOL0     H67166   8.438   0.732   5.102 -0.6106 -0.6261 -1.1948
  509MOL0     H67167   8.297   0.723   5.207 -0.5699 -0.8214 -1.0083
  509MOL0     H67168   8.422   0.534   5.343  0.2859 -0.1425  0.2560
  509MOL0     H67169   8.505   0.685   5.354 -0.7762  2.4054 -0.6028
  509MOL0     H67170   7.427   0.358   5.040  1.2126 -0.0824  2.8898
  509MOL0     H67171   7.227   0.503   4.982  2.6708 -1.4989 -3.6334
  509MOL0     H67172   7.160   0.983   4.908  0.6708  1.7685  0.1730
  509MOL0     H67173   6.977   1.123   4.796 -0.2484 -1.2513 -1.4436
  509MOL0     H67174   4.874   1.693   4.772  3.6577  1.8414 -0.0061
  509MOL0     H67175   4.640   1.787   4.790  0.2770  0.0429  0.1959
  509MOL0     H67176   4.297   1.858   4.511  1.2061 -0.5020  1.0222
  509MOL0     H67177   4.071   1.886   4.469  3.0079 -0.0601 -0.2539
  509MOL0     H67178   3.890   1.956   4.446  1.1390 -0.4002  0.2247
  509MOL0     H67179   3.743   2.026   4.513  1.0294 -0.1251 -1.4793
  509MOL0     H67180   3.741   1.793   4.473  0.1108  2.0841 -1.0210
  509MOL0     H67181   3.854   1.759   4.608 -0.6462 -0.2228  2.1078
  509MOL0     H67182   3.567   1.876   4.626 -0.8042 -0.7641  0.2357
  509MOL0     H67183   3.704   1.872   4.749  2.7983 -4.3860  2.1209
  509MOL0     H67184   3.683   1.624   4.728 -0.1128 -0.1410  1.7705
  509MOL0     H67185   3.546   1.717   4.797  0.9948 -2.2247  1.8160
  509MOL0     H67186   3.362   1.523   4.484 -1.5362 -1.0092  2.6966
  509MOL0     H67187   4.024   2.110   4.830  0.8879  2.5825 -1.4924
  509MOL0     H67188   4.249   2.084   4.888 -4.0834 -1.6310  2.5387
  510MOL0     O67189   3.895   4.616   7.626 -0.6392  0.5485 -0.0807
  510MOL0     C67190   3.938   4.730   7.608  0.0518 -0.1155 -0.5290
  510MOL0     O67191   3.869   4.837   7.648  0.2223 -0.1485  0.7590
  510MOL0     C67192   3.735   4.840   7.674  0.9298  0.2808  0.1137
  510MOL0     C67193   3.658   4.956   7.633  0.2283 -0.0336 -0.3500
  510MOL0     C67194   3.517   4.963   7.674 -0.3814  0.3125  0.6601
  510MOL0     C67195   3.460   4.864   7.755  0.0422  0.4866 -0.1574
  510MOL0     O67196   3.329   4.859   7.789  0.3190 -0.2821  0.0950
  510MOL0     C67197   3.237   4.957   7.743 -0.1088 -0.6068  0.1694
  510MOL0     C67198   3.110   4.959   7.838 -0.4343  0.4578  1.1097
  510MOL0     C67199   3.013   5.073   7.813  0.1735  0.7955 -1.3260
  510MOL0     C67200   2.894   5.067   7.917 -0.3200  0.0231 -0.0431
  510MOL0     C67201   2.804   5.190   7.886  0.2093  0.1105 -0.3101
  510MOL0     C67202   2.675   5.174   7.960 -0.1471  0.3586  0.2717
  510MOL0     C67203   2.587   5.299   7.944  0.2022 -0.4918 -1.0600
  510MOL0     C67204   2.655   5.431   8.001 -0.0821  0.0871 -0.8569
  510MOL0     N67205   2.695   5.428   8.142  0.0577  0.0342  0.0158
  510MOL0     C67206   2.820   5.465   8.182 -0.0552 -0.3500  0.4802
  510MOL0     C67207   2.820   5.439   8.316 -1.1280 -0.5095  0.5867
  510MOL0     C67208   2.936   5.460   8.397 -1.0441  1.2907 -0.7347
  510MOL0     C67209   2.984   5.328   8.463  0.3553  0.5675 -0.4070
  510MOL0     C67210   2.981   5.219   8.357  0.6698  0.1073 -0.5903
  510MOL0     C67211   3.068   5.105   8.390 -0.7743  0.5638  0.5723
  510MOL0     O67212   3.114   5.034   8.270  0.3049  0.5585  0.0457
  510MOL0     C67213   3.244   4.991   8.261 -0.1038  1.2483 -0.2416
  510MOL0     C67214   3.359   5.058   8.304 -0.3575 -0.4175 -0.5429
  510MOL0     C67215   3.477   4.996   8.294  0.1784  0.4445 -0.0011
  510MOL0     C67216   3.497   4.868   8.243 -0.0660 -0.1381 -0.5622
  510MOL0     C67217   3.631   4.807   8.239 -0.1728  0.3686 -0.3966
  510MOL0     O67218   3.651   4.668   8.229 -0.1758  0.5188  0.0938
  510MOL0     C67219   3.772   4.626   8.207 -0.1763  0.5165 -0.1285
  510MOL0     C67220   3.801   4.562   8.085  0.2775 -0.7099  0.7664
  510MOL0     C67221   3.926   4.511   8.060 -0.5820 -0.6662  0.1890
  510MOL0     C67222   4.041   4.526   8.141  0.2070  0.2945 -0.2371
  510MOL0     O67223   4.163   4.463   8.110  0.2501  0.7268  0.0554
  510MOL0     C67224   4.263   4.439   8.206  0.4395  0.0480  0.0274
  510MOL0     C67225   4.386   4.403   8.123 -1.0837 -0.6170  0.0327
  510MOL0     C67226   4.390   4.268   8.051  0.5202 -0.0589  0.4295
  510MOL0     C67227   4.521   4.252   7.968  0.8363  0.6361  0.4361
  510MOL0     C67228   4.527   4.109   7.909 -0.4590 -0.2606 -0.3233
  510MOL0     C67229   4.643   4.098   7.802  0.2459  0.7375  0.4744
  510MOL0     C67230   4.646   3.973   7.729 -0.1204  1.0664  0.2042
  510MOL0     C67231   4.734   3.873   7.804  0.0249  0.1719  0.3514
  510MOL0    Cl67232   4.664   3.840   7.968  0.5497 -0.0107  0.0564
  510MOL0     C67233   4.012   4.589   8.259  0.7561 -1.1645 -0.3350
  510MOL0     C67234   3.879   4.638   8.296 -0.0060 -0.1825  0.3667
  510MOL0     O67235   3.724   4.887   8.235  1.0990 -0.2820  0.1935
  510MOL0     C67236   3.382   4.806   8.205  0.3018  0.4738  0.2321
  510MOL0     C67237   3.258   4.863   8.219  0.4170  0.6156  0.5711
  510MOL0     N67238   2.698   5.398   8.355 -0.2328  0.2933 -0.2685
  510MOL0     N67239   2.628   5.384   8.251  0.5378  0.6552 -0.4470
  510MOL0     C67240   3.541   4.759   7.800  0.1376 -0.9482 -0.2858
  510MOL0     C67241   3.676   4.740   7.766  0.8559 -0.4484  0.8754
  510MOL0     C67242   4.081   4.755   7.567 -0.4594  0.5738 -0.3918
  510MOL0     C67243   4.135   4.687   7.461  0.5457  0.6920 -0.4666
  510MOL0     C67244   4.266   4.715   7.414 -0.1828  0.1145  0.3444
  510MOL0     C67245   4.352   4.800   7.489  0.0937  0.7247  0.0202
  510MOL0     O67246   4.487   4.820   7.451 -0.3748 -0.4840 -0.3884
  510MOL0     C67247   4.558   4.741   7.350 -0.5805 -0.4480  0.1311
  510MOL0     C67248   4.580   4.598   7.403  0.2314 -0.3846  0.0966
  510MOL0     C67249   4.666   4.595   7.530 -0.2569 -0.3582 -0.8170
  510MOL0     C67250   4.689   4.465   7.611 -0.9814 -0.7881 -0.5531
  510MOL0     C67251   4.708   4.357   7.516 -0.4290  0.6513 -0.7721
  510MOL0     C67252   4.735   4.270   7.441 -0.9321  0.9293 -0.8047
  510MOL0     C67253   4.299   4.878   7.588  0.2934 -0.7259  0.4395
  510MOL0     C67254   4.162   4.856   7.625 -0.5369  0.1359 -0.7440
  510MOL0     H67255   3.711   5.032   7.578 -1.2671  0.3996 -1.2303
  510MOL0     H67256   3.481   5.062   7.649 -1.6754  1.0326  4.6370
  510MOL0     H67257   3.198   4.941   7.641  0.3792  2.4461 -0.5819
  510MOL0     H67258   3.278   5.058   7.737  1.3243 -1.1307  0.8784
  510MOL0     H67259   3.149   4.970   7.940  1.4131  0.4569  0.4541
  510MOL0     H67260   3.054   4.865   7.835 -2.6966  1.7611 -0.8923
  510MOL0     H67261   2.966   5.065   7.715 -0.4465  0.2953 -0.9985
  510MOL0     H67262   3.063   5.169   7.828 -0.9487  1.6521 -2.7225
  510MOL0     H67263   2.840   4.976   7.890  0.1860  0.2814 -2.0696
  510MOL0     H67264   2.922   5.057   8.023  0.7493 -1.4050 -0.4318
  510MOL0     H67265   2.783   5.199   7.779 -1.6998  0.0326  0.0216
  510MOL0     H67266   2.866   5.274   7.915 -1.4575  0.9832  0.8901
  510MOL0     H67267   2.698   5.148   8.063 -1.0230 -2.0789 -0.0982
  510MOL0     H67268   2.642   5.087   7.903  2.6657  0.0764 -1.0919
  510MOL0     H67269   2.567   5.318   7.838  2.1917  1.9155 -1.0951
  510MOL0     H67270   2.494   5.276   7.997  2.3284  1.3909  4.1316
  510MOL0     H67271   2.594   5.522   7.999  0.6703  0.7590  1.9327
  510MOL0     H67272   2.738   5.448   7.932  0.3840  0.0534 -0.3077
  510MOL0     H67273   2.906   5.502   8.126  0.0406 -2.3453 -0.8013
  510MOL0     H67274   2.927   5.532   8.478 -1.9344  1.4423 -0.9618
  510MOL0     H67275   3.018   5.496   8.333 -0.2196 -0.6811 -0.8692
  510MOL0     H67276   2.908   5.304   8.538 -2.8546 -2.2488 -4.1438
  510MOL0     H67277   3.084   5.343   8.504 -0.0313 -0.1098  0.8307
  510MOL0     H67278   2.881   5.175   8.357 -0.2722  1.9790 -3.3342
  510MOL0     H67279   3.005   5.253   8.256  1.6616  0.4636 -0.2532
  510MOL0     H67280   3.013   5.033   8.452  1.8863 -1.9959  0.1604
  510MOL0     H67281   3.155   5.133   8.451  2.7977 -3.1477 -2.2661
  510MOL0     H67282   3.362   5.164   8.328  0.0933 -0.4461 -0.4701
  510MOL0     H67283   3.570   5.045   8.323  1.1441 -0.9619 -0.5892
  510MOL0     H67284   3.716   4.550   8.019 -0.0320  0.2139  0.9792
  510MOL0     H67285   3.950   4.472   7.961  3.7378 -0.2876  0.8869
  510MOL0     H67286   4.237   4.359   8.275  0.4559  0.4551  0.5178
  510MOL0     H67287   4.269   4.524   8.275 -2.2466  0.7631 -0.5088
  510MOL0     H67288   4.478   4.421   8.179 -0.9373  2.5051 -1.0173
  510MOL0     H67289   4.396   4.479   8.045 -0.2287  1.1730  1.7737
  510MOL0     H67290   4.304   4.274   7.983  0.3283  0.5026  0.7156
  510MOL0     H67291   4.376   4.195   8.132 -0.4893  1.5943  1.8059
  510MOL0     H67292   4.518   4.316   7.878 -0.7385 -0.2022 -0.1451
  510MOL0     H67293   4.613   4.280   8.020  2.8797 -1.4355 -1.7755
  510MOL0     H67294   4.436   4.076   7.858 -0.3269 -3.1892  1.1237
  510MOL0     H67295   4.532   4.036   7.990  1.2736 -2.1358 -1.9918
  510MOL0     H67296   4.744   4.116   7.841  1.9734 -2.0460 -2.1673
  510MOL0     H67297   4.605   4.171   7.730 -2.8584  0.7452  1.9726
  510MOL0     H67298   4.557   3.923   7.691  1.7399 -0.0133 -3.1572
  510MOL0     H67299   4.699   3.992   7.635  1.1670 -3.5995 -0.2608
  510MOL0     H67300   4.830   3.924   7.815 -0.4234  0.8955  1.0458
  510MOL0     H67301   4.754   3.786   7.741 -4.0195 -0.3446 -0.5102
  510MOL0     H67302   4.085   4.622   8.331  1.3682 -1.6456 -0.7278
  510MOL0     H67303   3.866   4.697   8.386  0.5687 -1.0092  0.9933
  510MOL0     H67304   3.392   4.702   8.173  0.8403  0.2894  0.9878
  510MOL0     H67305   3.173   4.798   8.203 -0.8750  1.8663  2.0458
  510MOL0     H67306   3.481   4.691   7.859 -0.2799 -0.3566 -0.0163
  510MOL0     H67307   3.740   4.661   7.804  1.2656 -0.7682 -0.4382
  510MOL0     H67308   4.087   4.605   7.410  0.3483  0.8136 -0.4784
  510MOL0     H67309   4.303   4.673   7.321  0.9982  1.8878 -0.0457
  510MOL0     H67310   4.652   4.794   7.331 -0.7709  0.0531  0.5599
  510MOL0     H67311   4.508   4.725   7.255  3.1661  1.3681 -2.4171
  510MOL0     H67312   4.478   4.561   7.414  0.3964 -0.2455  2.6586
  510MOL0     H67313   4.634   4.547   7.323 -1.4633  1.2591 -2.2020
  510MOL0     H67314   4.609   4.652   7.604 -1.5357 -4.6826  1.9164
  510MOL0     H67315   4.767   4.631   7.509  0.5847 -1.8109  0.5206
  510MOL0     H67316   4.783   4.472   7.667 -0.2452  0.5713 -1.8523
  510MOL0     H67317   4.600   4.453   7.672 -0.7865  2.2627  0.5135
  510MOL0     H67318   4.748   4.183   7.380  0.0175 -2.1288  3.3296
  510MOL0     H67319   4.362   4.943   7.648  0.8482 -2.1916  1.4956
  510MOL0     H67320   4.125   4.910   7.712 -0.5197 -0.8956 -0.0804
  511MOL0     O67321  10.454   7.447   4.513 -0.3778 -0.6972  0.4992
  511MOL0     C67322  10.406   7.374   4.599 -0.1804 -0.5581 -0.4296
  511MOL0     O67323  10.297   7.385   4.663  0.2547  0.9000  0.6652
  511MOL0     C67324  10.191   7.472   4.646 -0.4144  0.4593 -0.4214
  511MOL0     C67325  10.166   7.534   4.526  0.1317  0.4745  0.3307
  511MOL0     C67326  10.046   7.610   4.522  0.1922  0.2849  0.5471
  511MOL0     C67327   9.964   7.634   4.627 -0.3616 -0.2997  0.0652
  511MOL0     O67328   9.852   7.717   4.619  0.7480  0.6148 -0.0809
  511MOL0     C67329   9.748   7.666   4.522 -0.0418 -0.6114  0.6460
  511MOL0     C67330   9.622   7.761   4.517  0.2038 -0.0467  0.8029
  511MOL0     C67331   9.545   7.738   4.645 -0.6468  0.3960  0.0250
  511MOL0     C67332   9.413   7.817   4.647  0.1871 -0.4249  0.4719
  511MOL0     C67333   9.345   7.821   4.790 -0.0508  0.0651 -0.8776
  511MOL0     C67334   9.205   7.885   4.774 -0.6022 -0.2525  0.6569
  511MOL0     C67335   9.115   7.893   4.893  0.3715 -0.2525  0.6811
  511MOL0     C67336   9.052   7.759   4.938  0.6530 -0.1678  0.0432
  511MOL0     N67337   8.976   7.780   5.059 -0.1261 -0.1192 -0.2549
  511MOL0     C67338   9.029   7.770   5.180 -0.9174 -0.1350 -0.2281
  511MOL0     C67339   8.938   7.830   5.261 -0.6317  1.0000 -1.2030
  511MOL0     C67340   8.948   7.837   5.408 -0.4156 -0.4247 -0.1067
  511MOL0     C67341   8.885   7.736   5.491  0.0065  0.3900  0.1441
  511MOL0     C67342   8.833   7.784   5.620 -0.1659  0.0618  0.3630
  511MOL0     C67343   8.701   7.855   5.606  1.0299  0.9882  0.6661
  511MOL0     O67344   8.593   7.761   5.582  0.2527  0.0215  0.3273
  511MOL0     C67345   8.479   7.765   5.659 -0.0647  0.3319 -0.3913
  511MOL0     C67346   8.415   7.648   5.675  0.2213  0.2456 -0.1419
  511MOL0     C67347   8.300   7.647   5.755  0.4553 -0.2258  0.0427
  511MOL0     C67348   8.259   7.760   5.837  1.1502 -0.5238 -0.7742
  511MOL0     C67349   8.127   7.753   5.918  0.2355 -0.0010 -0.5473
  511MOL0     O67350   8.073   7.629   5.932  0.1204  0.1509 -0.0104
  511MOL0     C67351   7.939   7.629   5.974  0.8449 -0.1076 -0.2875
  511MOL0     C67352   7.841   7.653   5.879 -0.1022 -0.5924  0.3308
  511MOL0     C67353   7.701   7.662   5.907  0.3682 -0.6356 -0.0235
  511MOL0     C67354   7.667   7.634   6.037  0.1349 -0.4646 -1.5267
  511MOL0     O67355   7.532   7.630   6.085  0.7325 -0.6538  0.2710
  511MOL0     C67356   7.425   7.635   5.983 -0.4677  0.5242  0.8680
  511MOL0     C67357   7.281   7.658   6.044 -0.7568  0.9437 -0.3054
  511MOL0     C67358   7.173   7.625   5.936  0.6556  0.5417  0.3796
  511MOL0     C67359   7.029   7.628   5.998  0.3235 -0.4868 -0.2065
  511MOL0     C67360   6.915   7.598   5.906 -0.3078  0.1589  0.2796
  511MOL0     C67361   6.881   7.717   5.813 -0.2895 -0.1404  0.3163
  511MOL0     C67362   6.736   7.713   5.761 -1.0095 -0.0528  0.0858
  511MOL0     C67363   6.715   7.836   5.669  0.4269 -0.0582 -1.1259
  511MOL0    Cl67364   6.827   7.819   5.533  0.0445  0.4626 -0.3298
  511MOL0     C67365   7.765   7.615   6.134  0.0163 -0.0973 -0.4508
  511MOL0     C67366   7.898   7.616   6.106 -0.3048  0.0502  0.1919
  511MOL0     O67367   8.076   7.853   5.970 -1.2023  0.2522  0.5899
  511MOL0     C67368   8.336   7.874   5.832 -0.3936 -0.1987 -0.4159
  511MOL0     C67369   8.437   7.880   5.738  0.2915 -0.2155 -0.5753
  511MOL0     N67370   8.844   7.886   5.185  1.2470  0.0273  0.4541
  511MOL0     N67371   8.862   7.859   5.061 -0.7013  0.2233 -0.4424
  511MOL0     C67372   9.996   7.574   4.745  0.0658  0.1834 -0.2671
  511MOL0     C67373  10.108   7.493   4.752 -0.6063 -0.0871 -1.3585
  511MOL0     C67374  10.485   7.254   4.633  0.6540 -0.0433 -0.2610
  511MOL0     C67375  10.598   7.215   4.550  0.0403 -0.9429  0.4366
  511MOL0     C67376  10.676   7.105   4.584  0.7349  0.4668  0.1893
  511MOL0     C67377  10.638   7.025   4.687  0.3930 -0.8424 -0.4371
  511MOL0     O67378  10.728   6.924   4.709 -0.2394  0.5037 -0.5534
  511MOL0     C67379  10.738   6.881   4.850  0.2639  0.1759 -0.6789
  511MOL0     C67380  10.886   6.821   4.868  0.7260 -0.0045 -1.1028
  511MOL0     C67381  10.994   6.925   4.889  0.8078 -0.2332 -0.7597
  511MOL0     C67382  10.996   7.041   4.777 -0.3870  0.5470 -0.1120
  511MOL0     C67383  11.112   7.126   4.796 -0.6583 -0.1622 -0.7066
  511MOL0     C67384  11.202   7.195   4.836  0.7935 -0.2600  0.9910
  511MOL0     C67385  10.517   7.051   4.759 -0.4669 -0.1719  0.3587
  511MOL0     C67386  10.447   7.173   4.749 -0.2314 -0.6620  1.0678
  511MOL0     H67387  10.223   7.510   4.437 -0.1003 -1.9358  0.7735
  511MOL0     H67388  10.003   7.654   4.431 -0.6515 -2.8489 -0.7033
  511MOL0     H67389   9.712   7.564   4.539 -0.4359 -1.0097 -2.1582
  511MOL0     H67390   9.795   7.664   4.423 -0.7689 -1.5231  0.3168
  511MOL0     H67391   9.557   7.749   4.430  0.1079 -2.7519  1.1563
  511MOL0     H67392   9.672   7.858   4.506 -1.4005  0.7059 -0.2159
  511MOL0     H67393   9.607   7.750   4.734  2.9491 -1.2280 -1.9937
  511MOL0     H67394   9.518   7.632   4.645  0.1334  0.1791  1.2932
  511MOL0     H67395   9.412   7.921   4.611 -1.4722 -0.6997 -0.3704
  511MOL0     H67396   9.339   7.765   4.586  0.8049 -2.1387  1.1294
  511MOL0     H67397   9.406   7.881   4.858  0.2116  0.5739 -1.5551
  511MOL0     H67398   9.339   7.723   4.838  1.5911  0.6594  0.6725
  511MOL0     H67399   9.141   7.830   4.705 -2.8986 -0.8955  3.1349
  511MOL0     H67400   9.225   7.986   4.738  3.6848 -1.2729 -0.4424
  511MOL0     H67401   9.174   7.929   4.978  1.8337  1.0128 -0.7868
  511MOL0     H67402   9.030   7.960   4.874  0.8748 -0.1685 -1.5909
  511MOL0     H67403   9.135   7.690   4.957  0.3334 -0.9050 -1.1135
  511MOL0     H67404   8.986   7.714   4.863  2.5173  0.2267 -1.9249
  511MOL0     H67405   9.127   7.727   5.203 -0.7141  0.7224  0.5759
  511MOL0     H67406   8.928   7.940   5.439  2.4242 -1.0134  4.6425
  511MOL0     H67407   9.055   7.832   5.430 -0.7910  1.2194  2.4580
  511MOL0     H67408   8.966   7.665   5.510 -1.1514 -1.0833 -0.1372
  511MOL0     H67409   8.804   7.687   5.435 -1.6330  2.8229  0.2532
  511MOL0     H67410   8.812   7.698   5.684  0.8155  0.1513  0.8350
  511MOL0     H67411   8.919   7.833   5.668 -1.5626  1.7289  1.2921
  511MOL0     H67412   8.693   7.916   5.515  1.0865 -2.4987 -1.8887
  511MOL0     H67413   8.682   7.908   5.700 -1.7834 -1.2370  1.4897
  511MOL0     H67414   8.441   7.558   5.621  0.9768 -2.1098  3.7259
  511MOL0     H67415   8.247   7.553   5.763 -0.6664  0.0895 -2.7500
  511MOL0     H67416   7.867   7.671   5.775  0.9660  0.2864  0.7341
  511MOL0     H67417   7.629   7.688   5.829  1.4129  3.1902  0.1323
  511MOL0     H67418   7.423   7.539   5.932 -4.7174  0.9045 -0.0923
  511MOL0     H67419   7.441   7.711   5.906 -1.3311 -1.8265 -1.7965
  511MOL0     H67420   7.256   7.751   6.097 -0.2117  2.1465 -2.0695
  511MOL0     H67421   7.272   7.576   6.116 -0.3643 -0.4511 -1.7992
  511MOL0     H67422   7.180   7.530   5.883 -0.3243  0.0600  1.0767
  511MOL0     H67423   7.179   7.709   5.867 -2.1169  1.7616  1.4769
  511MOL0     H67424   7.025   7.548   6.072 -0.6476 -0.2285  0.0377
  511MOL0     H67425   7.020   7.727   6.043  0.6358 -1.0615  1.1518
  511MOL0     H67426   6.834   7.579   5.977  0.3516  0.8257  1.2476
  511MOL0     H67427   6.935   7.517   5.835 -1.4287  2.1791 -2.4825
  511MOL0     H67428   6.950   7.719   5.727 -0.5497  0.2602  0.1150
  511MOL0     H67429   6.889   7.811   5.867  0.2534  0.8895 -1.4588
  511MOL0     H67430   6.712   7.619   5.711 -1.3675 -1.2978  2.4495
  511MOL0     H67431   6.667   7.717   5.846 -1.1294 -2.3793  0.1444
  511MOL0     H67432   6.730   7.924   5.731 -1.9873 -1.4961  1.7479
  511MOL0     H67433   6.612   7.834   5.631  0.9840 -0.0342 -2.7478
  511MOL0     H67434   7.746   7.599   6.240  3.0465 -1.1108  0.0186
  511MOL0     H67435   7.974   7.610   6.183  0.3489 -2.1879 -0.5389
  511MOL0     H67436   8.306   7.969   5.877  0.2180 -0.7515  1.2334
  511MOL0     H67437   8.488   7.975   5.730  0.6962 -0.4921 -1.4036
  511MOL0     H67438   9.954   7.606   4.840 -0.8045 -1.3749 -0.0989
  511MOL0     H67439  10.132   7.452   4.849  0.5767 -2.8072 -2.6937
  511MOL0     H67440  10.638   7.274   4.469 -1.5654  1.4256  1.2715
  511MOL0     H67441  10.770   7.095   4.529  0.6519  3.0041 -0.5582
  511MOL0     H67442  10.668   6.802   4.878 -0.0863  0.1409 -1.6216
  511MOL0     H67443  10.728   6.973   4.909 -2.4273 -0.7679  0.5045
  511MOL0     H67444  10.893   6.753   4.953 -0.9463 -1.3724 -1.9880
  511MOL0     H67445  10.908   6.760   4.779 -1.8050  0.2959 -2.0307
  511MOL0     H67446  11.091   6.877   4.905  1.3305  1.1317  0.4833
  511MOL0     H67447  10.984   6.973   4.987  2.7202 -2.3417  0.5624
  511MOL0     H67448  10.985   7.002   4.676 -0.2116 -0.8097  0.3756
  511MOL0     H67449  10.913   7.110   4.795 -1.9295 -1.6925  1.9607
  511MOL0     H67450  11.287   7.248   4.876  2.3049  0.0802 -2.2613
  511MOL0     H67451  10.489   6.976   4.832 -1.7847 -0.2640 -0.2254
  511MOL0     H67452  10.369   7.209   4.815 -0.8072 -3.3257  1.9907
  512MOL0     O67453   9.641   0.444   5.563  0.1074 -0.1945  1.0489
  512MOL0     C67454   9.608   0.560   5.565 -0.3641  0.4136 -0.3354
  512MOL0     O67455   9.493   0.607   5.529  0.2903  0.0548  0.2563
  512MOL0     C67456   9.387   0.509   5.498 -0.5460 -0.4816 -0.5898
  512MOL0     C67457   9.401   0.413   5.399 -0.0079 -0.1346 -0.1084
  512MOL0     C67458   9.308   0.326   5.359  0.3610  0.1330  0.0611
  512MOL0     C67459   9.187   0.324   5.433 -0.4344  0.1775 -0.8927
  512MOL0     O67460   9.082   0.249   5.393  0.7511  0.0362 -0.1934
  512MOL0     C67461   8.954   0.270   5.455  0.2853 -0.1960  0.1779
  512MOL0     C67462   8.844   0.220   5.353 -0.4773  0.3114  0.2796
  512MOL0     C67463   8.709   0.235   5.417  0.5365 -0.4893  0.0317
  512MOL0     C67464   8.604   0.178   5.320 -0.0122  0.1657 -0.7640
  512MOL0     C67465   8.454   0.185   5.367 -0.2031 -0.1735 -0.5893
  512MOL0     C67466   8.351   0.137   5.258 -0.3310 -0.0079 -0.2720
  512MOL0     C67467   8.333  -0.019   5.237 -0.8167  0.7377  0.3247
  512MOL0     C67468   8.224  -0.072   5.322  1.6091  0.1982 -0.0314
  512MOL0     N67469   8.238  -0.219   5.341 -1.1321 -0.4242 -0.4649
  512MOL0     C67470   8.203  -0.327   5.266  0.9794 -0.1710 -0.1621
  512MOL0     C67471   8.199  -0.432   5.350 -0.2782 -0.2083  0.5214
  512MOL0     C67472   8.207  -0.577   5.302  0.0203 -0.7881  0.0281
  512MOL0     C67473   8.329  -0.623   5.219 -0.3375 -0.1067  0.2947
  512MOL0     C67474   8.459  -0.553   5.274 -0.1998 -0.3700 -0.0600
  512MOL0     C67475   8.492  -0.571   5.423 -0.6225 -0.2964  1.3749
  512MOL0     O67476   8.636  -0.571   5.439  0.4736 -0.1355 -0.5667
  512MOL0     C67477   8.691  -0.453   5.472  1.2899 -0.4343 -0.5627
  512MOL0     C67478   8.646  -0.328   5.451  0.5512 -0.1500  0.6999
  512MOL0     C67479   8.714  -0.222   5.521  0.2048  0.3830 -0.0895
  512MOL0     C67480   8.840  -0.237   5.584  0.5759  0.2999  1.4250
  512MOL0     C67481   8.924  -0.134   5.641 -0.7506 -0.0418  0.6413
  512MOL0     O67482   9.041  -0.173   5.708 -0.4443  0.0368 -0.0145
  512MOL0     C67483   9.109  -0.074   5.766  0.4184 -0.6560  0.2421
  512MOL0     C67484   9.084  -0.041   5.897  0.6557  0.6680 -0.1208
  512MOL0     C67485   9.150   0.070   5.940  0.3125 -0.3261 -0.2044
  512MOL0     C67486   9.237   0.149   5.856 -0.5581 -0.4212 -0.1969
  512MOL0     O67487   9.283   0.263   5.913 -0.8267 -0.4182 -0.1403
  512MOL0     C67488   9.426   0.289   5.878 -0.2652  0.4407 -0.1569
  512MOL0     C67489   9.481   0.416   5.953  0.2111  0.3816 -0.8209
  512MOL0     C67490   9.475   0.394   6.108  0.0720  0.0996  0.8263
  512MOL0     C67491   9.555   0.495   6.184 -0.1559 -0.1210 -0.6883
  512MOL0     C67492   9.576   0.436   6.324 -0.8629  0.2289  0.1597
  512MOL0     C67493   9.687   0.514   6.394 -1.2297 -0.5221 -0.8020
  512MOL0     C67494   9.681   0.472   6.537  0.3234  0.3816 -0.9185
  512MOL0     C67495   9.808   0.512   6.599 -0.1413  0.0791  0.1722
  512MOL0    Cl67496   9.801   0.468   6.776  0.2131 -0.2994  0.2883
  512MOL0     C67497   9.269   0.113   5.726  0.9358  0.2049  0.4046
  512MOL0     C67498   9.194   0.002   5.684 -0.2753  0.0337 -1.0673
  512MOL0     O67499   8.888  -0.015   5.627 -0.4728 -0.5036  0.3988
  512MOL0     C67500   8.891  -0.369   5.590 -0.3763  0.1041 -0.1600
  512MOL0     C67501   8.812  -0.482   5.544 -0.1712  0.0053 -0.1516
  512MOL0     N67502   8.230  -0.384   5.472 -0.2668 -0.4864 -0.6181
  512MOL0     N67503   8.249  -0.260   5.473  0.1010 -0.1387  0.3157
  512MOL0     C67504   9.181   0.401   5.549  0.1509 -0.6756  0.0261
  512MOL0     C67505   9.277   0.499   5.581  1.0682 -0.2514 -0.2817
  512MOL0     C67506   9.716   0.664   5.616 -0.8769  0.1533 -0.4273
  512MOL0     C67507   9.848   0.620   5.647 -0.0314  0.9275 -0.6552
  512MOL0     C67508   9.953   0.707   5.690  0.5017 -0.0459  0.5059
  512MOL0     C67509   9.931   0.845   5.685 -1.0704 -0.3867 -0.8301
  512MOL0     O67510  10.041   0.927   5.713  0.8776 -0.4213 -0.4651
  512MOL0     C67511  10.051   1.068   5.670  0.9809  0.0626  0.5208
  512MOL0     C67512  10.006   1.152   5.791  0.0970 -0.3717  0.2057
  512MOL0     C67513  10.123   1.209   5.879  0.2127  0.4940 -0.5248
  512MOL0     C67514  10.186   1.337   5.837  0.2132 -0.0099  0.6011
  512MOL0     C67515  10.272   1.331   5.715  0.6128  0.2347 -0.5049
  512MOL0     C67516  10.350   1.327   5.619 -1.2828 -0.1587  0.5176
  512MOL0     C67517   9.798   0.888   5.647  0.3156  0.6138 -0.2897
  512MOL0     C67518   9.694   0.799   5.618 -1.1217 -0.8487  0.1141
  512MOL0     H67519   9.484   0.425   5.330 -1.0381 -1.5316 -1.6649
  512MOL0     H67520   9.327   0.266   5.271  1.0801  1.9298 -1.0623
  512MOL0     H67521   8.931   0.376   5.471  0.6746 -0.3342  1.8253
  512MOL0     H67522   8.933   0.209   5.543 -1.1218 -1.8215 -1.2171
  512MOL0     H67523   8.854   0.112   5.340 -2.4833 -0.2249  2.4120
  512MOL0     H67524   8.852   0.268   5.256 -0.2422 -0.2703  0.0053
  512MOL0     H67525   8.701   0.342   5.441  3.7821  0.4241 -2.2267
  512MOL0     H67526   8.707   0.188   5.515 -4.0322  0.2130  0.4627
  512MOL0     H67527   8.621   0.227   5.223  3.3366 -1.0013 -0.9117
  512MOL0     H67528   8.628   0.071   5.310 -1.8700 -0.8154  3.3460
  512MOL0     H67529   8.435   0.287   5.399  2.7326  0.2843 -0.0389
  512MOL0     H67530   8.442   0.126   5.459  1.0893 -0.0819 -0.3396
  512MOL0     H67531   8.370   0.188   5.163  2.0669 -0.0051  0.1655
  512MOL0     H67532   8.254   0.169   5.298 -0.8562 -3.5287  1.6482
  512MOL0     H67533   8.317  -0.021   5.129  0.0729  2.6667  0.1073
  512MOL0     H67534   8.424  -0.074   5.260 -0.6629  0.3886 -1.0188
  512MOL0     H67535   8.139  -0.040   5.261  0.4175 -1.0327  0.9361
  512MOL0     H67536   8.219  -0.030   5.423 -4.2819  0.3042 -0.0328
  512MOL0     H67537   8.192  -0.319   5.158 -1.5682  1.2732  0.1164
  512MOL0     H67538   8.115  -0.597   5.245 -0.4324  1.7510 -0.2640
  512MOL0     H67539   8.203  -0.637   5.394 -0.4589  3.7243  3.2939
  512MOL0     H67540   8.327  -0.595   5.113  1.8132 -1.1792 -0.1063
  512MOL0     H67541   8.335  -0.732   5.230 -2.0207 -0.1702  0.8273
  512MOL0     H67542   8.546  -0.576   5.212  0.0604  2.6516 -0.9900
  512MOL0     H67543   8.444  -0.445   5.262 -3.6232 -0.7002  0.2138
  512MOL0     H67544   8.458  -0.670   5.456 -2.2669 -0.2860 -0.0982
  512MOL0     H67545   8.444  -0.506   5.497 -2.3466 -1.8647  1.7286
  512MOL0     H67546   8.551  -0.310   5.404  0.6256  1.3053  1.0712
  512MOL0     H67547   8.673  -0.123   5.502 -1.2003  0.2844  2.0873
  512MOL0     H67548   9.016  -0.106   5.953  2.1206 -0.5601  0.3148
  512MOL0     H67549   9.138   0.109   6.040 -0.7639 -0.3142 -0.3276
  512MOL0     H67550   9.414   0.308   5.771 -4.6906  0.4648  0.1484
  512MOL0     H67551   9.484   0.196   5.885  1.5143  1.5919  1.5926
  512MOL0     H67552   9.420   0.503   5.928 -0.0965 -0.3073 -2.6159
  512MOL0     H67553   9.584   0.440   5.925  0.9032 -0.6253  0.7249
  512MOL0     H67554   9.497   0.288   6.118 -0.8326 -0.6134 -3.0761
  512MOL0     H67555   9.369   0.404   6.134 -1.6948  0.1096 -4.9868
  512MOL0     H67556   9.649   0.514   6.132 -1.4556  1.5495 -2.5441
  512MOL0     H67557   9.500   0.589   6.197  1.0340  0.4414  0.5327
  512MOL0     H67558   9.594   0.329   6.314 -0.1331  0.2515  1.0748
  512MOL0     H67559   9.482   0.448   6.378 -1.2561 -0.5218 -0.3475
  512MOL0     H67560   9.672   0.621   6.384  0.0975 -0.0828  1.3723
  512MOL0     H67561   9.782   0.495   6.344  0.1488 -1.2935  1.9031
  512MOL0     H67562   9.600   0.516   6.595  0.5155 -1.1449  0.5664
  512MOL0     H67563   9.672   0.364   6.546 -2.4709  0.6817  0.6354
  512MOL0     H67564   9.812   0.620   6.582 -2.9754  0.3135  0.4988
  512MOL0     H67565   9.891   0.462   6.549 -0.7076  0.0234 -0.7341
  512MOL0     H67566   9.342   0.154   5.657  1.0182  0.0514  0.4014
  512MOL0     H67567   9.218  -0.018   5.580  0.7110 -0.3611 -0.7824
  512MOL0     H67568   8.989  -0.385   5.633  0.7321 -0.6333 -2.7257
  512MOL0     H67569   8.839  -0.586   5.562 -1.0860 -0.1350  0.5113
  512MOL0     H67570   9.092   0.406   5.611 -0.7980 -0.1222 -1.3311
  512MOL0     H67571   9.261   0.571   5.661  0.9060 -0.8471  0.2282
  512MOL0     H67572   9.853   0.513   5.634 -4.2119  0.4865  0.0101
  512MOL0     H67573  10.053   0.667   5.695  0.5226 -0.0224  0.2920
  512MOL0     H67574   9.986   1.090   5.585  0.1549  2.8511  1.7252
  512MOL0     H67575  10.147   1.094   5.624  0.0002 -2.4283 -3.3062
  512MOL0     H67576   9.943   1.230   5.749  1.3366 -0.9949 -3.1580
  512MOL0     H67577   9.946   1.088   5.857  0.5491  1.2072  2.2315
  512MOL0     H67578  10.190   1.126   5.902  0.2380  0.1758 -1.6980
  512MOL0     H67579  10.087   1.229   5.981  0.3863 -2.7593  0.2864
  512MOL0     H67580  10.111   1.416   5.823  0.6704  0.1991 -0.8361
  512MOL0     H67581  10.239   1.382   5.922 -0.9453  0.3619  1.1413
  512MOL0     H67582  10.417   1.333   5.535 -1.0388 -0.4504  0.6944
  512MOL0     H67583   9.780   0.995   5.648  1.5541  0.8499  0.9270
  512MOL0     H67584   9.595   0.841   5.602 -0.8084  0.3999  1.2693
  513MOL0     O67585   4.132   7.382   9.277 -0.8855  1.2533 -0.0275
  513MOL0     C67586   4.157   7.478   9.203 -0.2786 -0.4963 -0.5718
  513MOL0     O67587   4.264   7.559   9.205 -0.4367  0.0669 -0.5394
  513MOL0     C67588   4.390   7.502   9.234  0.0248  0.5128 -0.7258
  513MOL0     C67589   4.436   7.392   9.171 -0.4818  0.5451 -0.8256
  513MOL0     C67590   4.557   7.338   9.204 -0.3964 -0.0337  0.4697
  513MOL0     C67591   4.640   7.389   9.305 -0.0479 -0.0085 -0.7355
  513MOL0     O67592   4.770   7.352   9.336  0.0771  0.8118  0.9758
  513MOL0     C67593   4.824   7.270   9.235 -0.3650 -1.2445 -0.4497
  513MOL0     C67594   4.970   7.269   9.252  0.0469 -0.1122  0.3118
  513MOL0     C67595   5.045   7.191   9.143 -0.1515  1.0161 -0.5321
  513MOL0     C67596   5.189   7.230   9.142 -0.7593 -0.9906 -0.2585
  513MOL0     C67597   5.301   7.166   9.052  0.1848 -0.2512 -0.6899
  513MOL0     C67598   5.433   7.233   9.075  0.6896  0.2481  0.6500
  513MOL0     C67599   5.557   7.180   8.998  0.6604 -0.5147 -0.8073
  513MOL0     C67600   5.603   7.041   9.044  0.7877  0.4941 -0.5703
  513MOL0     N67601   5.712   6.996   8.951  0.6567 -0.5460 -0.1924
  513MOL0     C67602   5.836   7.055   8.968 -0.6226  0.0217 -0.2904
  513MOL0     C67603   5.918   6.992   8.879  0.6354  0.4273  0.2322
  513MOL0     C67604   6.059   7.019   8.868  0.3553  0.7764  0.0959
  513MOL0     C67605   6.143   6.891   8.855 -0.5953  0.1416 -0.6235
  513MOL0     C67606   6.284   6.925   8.904  0.8128 -0.3170 -0.5411
  513MOL0     C67607   6.380   6.811   8.894 -0.2718  0.4204 -0.1627
  513MOL0     O67608   6.508   6.855   8.949 -0.4518 -0.4923  0.3091
  513MOL0     C67609   6.616   6.777   8.935 -0.3133  0.2828 -0.4229
  513MOL0     C67610   6.623   6.655   8.869 -0.5863  0.7821  0.4268
  513MOL0     C67611   6.750   6.587   8.866 -0.2843  0.1359 -0.4162
  513MOL0     C67612   6.863   6.651   8.913 -0.3112  0.2714 -0.2023
  513MOL0     C67613   6.993   6.572   8.915 -0.1184  0.1448 -0.4903
  513MOL0     O67614   6.988   6.458   8.848  0.2966  0.1846  0.9730
  513MOL0     C67615   7.084   6.368   8.883 -0.3339  0.1356 -0.1254
  513MOL0     C67616   7.069   6.259   8.973 -0.6573 -0.5859 -0.1103
  513MOL0     C67617   7.171   6.164   8.982 -0.9944  0.2041  0.8568
  513MOL0     C67618   7.291   6.180   8.914 -0.2645 -0.9284  0.6173
  513MOL0     O67619   7.377   6.076   8.934  0.7508 -0.4322 -0.0040
  513MOL0     C67620   7.513   6.085   8.886 -0.3253 -0.6686 -0.0797
  513MOL0     C67621   7.594   5.965   8.922  1.0744 -0.4084 -1.0981
  513MOL0     C67622   7.531   5.833   8.849  0.5058  0.0771 -0.9432
  513MOL0     C67623   7.614   5.706   8.877 -0.1813 -0.0667 -0.2043
  513MOL0     C67624   7.722   5.665   8.779 -0.0380  0.5613 -0.4606
  513MOL0     C67625   7.829   5.771   8.769  0.8156  0.0356  0.6602
  513MOL0     C67626   7.948   5.722   8.695 -0.5110  0.2706 -0.2131
  513MOL0     C67627   8.035   5.627   8.769  0.2436  0.0937 -0.8615
  513MOL0    Cl67628   8.208   5.682   8.759  0.8566 -0.3639  0.2742
  513MOL0     C67629   7.312   6.289   8.828 -0.5028  0.9148  0.4389
  513MOL0     C67630   7.208   6.378   8.808 -0.6909 -0.7086 -0.1618
  513MOL0     O67631   7.083   6.615   8.987  0.6931  0.3506 -0.2044
  513MOL0     C67632   6.855   6.768   8.987 -0.4577 -0.6884  0.5522
  513MOL0     C67633   6.735   6.832   8.988  0.7053  0.6903  0.9056
  513MOL0     N67634   5.838   6.896   8.809  0.2903 -0.4088  0.0487
  513MOL0     N67635   5.712   6.904   8.855  1.4377  0.4047  0.4100
  513MOL0     C67636   4.585   7.492   9.386 -0.8960  0.5787 -0.4647
  513MOL0     C67637   4.463   7.557   9.348  0.0588  0.4536 -0.1907
  513MOL0     C67638   4.051   7.532   9.116 -0.3749  0.3141 -1.1450
  513MOL0     C67639   3.929   7.452   9.111 -0.4306 -0.0579  0.2226
  513MOL0     C67640   3.830   7.494   9.018 -0.0315  0.4210 -0.1736
  513MOL0     C67641   3.851   7.594   8.923  0.1511 -0.8188 -0.2102
  513MOL0     O67642   3.744   7.632   8.844 -0.0143 -0.4143 -0.0880
  513MOL0     C67643   3.673   7.748   8.900  0.2900  0.6321  1.1329
  513MOL0     C67644   3.544   7.701   8.959 -1.0748 -0.5991 -0.1851
  513MOL0     C67645   3.431   7.656   8.862 -0.4107 -0.1676 -0.2360
  513MOL0     C67646   3.291   7.683   8.917  0.9749 -0.1447  0.2839
  513MOL0     C67647   3.202   7.619   8.822 -0.3133 -0.0498  0.0812
  513MOL0     C67648   3.133   7.549   8.755 -0.0888 -0.1607  0.3296
  513MOL0     C67649   3.969   7.663   8.924 -0.9997 -0.4491  0.9558
  513MOL0     C67650   4.069   7.642   9.023  0.2722 -0.3884 -0.2029
  513MOL0     H67651   4.371   7.343   9.099 -0.3650  1.4195 -1.5562
  513MOL0     H67652   4.583   7.250   9.145  3.2532 -0.0304  1.8464
  513MOL0     H67653   4.804   7.316   9.138  0.5477 -0.4051 -0.2454
  513MOL0     H67654   4.785   7.167   9.231  0.3805 -1.6451  1.6012
  513MOL0     H67655   4.991   7.221   9.348 -0.5880  1.4118  1.2549
  513MOL0     H67656   5.006   7.373   9.255  2.7681 -0.9436 -0.7965
  513MOL0     H67657   5.003   7.198   9.042 -0.4975 -2.0603 -0.6969
  513MOL0     H67658   5.052   7.083   9.163  2.2544  0.9510 -1.5126
  513MOL0     H67659   5.206   7.335   9.120  0.5472 -1.4802 -1.8513
  513MOL0     H67660   5.232   7.223   9.242 -0.8681 -0.6309 -0.1883
  513MOL0     H67661   5.270   7.170   8.948 -0.2860  0.1444 -0.5370
  513MOL0     H67662   5.318   7.061   9.077  0.8525 -0.1157 -0.5563
  513MOL0     H67663   5.455   7.202   9.178  1.3854 -0.2577  0.3566
  513MOL0     H67664   5.434   7.343   9.074  3.5718  0.3066  0.3541
  513MOL0     H67665   5.527   7.167   8.894 -2.7876 -5.1381  0.4534
  513MOL0     H67666   5.640   7.251   9.003  2.4752 -2.6110  1.9906
  513MOL0     H67667   5.517   6.974   9.037 -1.4691  3.1133  0.3990
  513MOL0     H67668   5.645   7.046   9.145 -1.3063 -0.5104  0.4033
  513MOL0     H67669   5.862   7.128   9.044 -3.6078  0.2581  0.5976
  513MOL0     H67670   6.095   7.065   8.961  0.2380  0.0892  0.4832
  513MOL0     H67671   6.079   7.084   8.782  2.5739 -1.0226 -0.8532
  513MOL0     H67672   6.146   6.865   8.749  4.4164  0.2357 -0.7326
  513MOL0     H67673   6.095   6.816   8.919  0.1985  2.7061  3.3500
  513MOL0     H67674   6.318   6.998   8.831  1.8159 -1.0975 -0.8790
  513MOL0     H67675   6.290   6.958   9.008  2.0980 -1.2762 -0.2857
  513MOL0     H67676   6.386   6.781   8.789  3.2410  1.9365 -0.5432
  513MOL0     H67677   6.343   6.721   8.943 -1.7753  0.2795 -1.5028
  513MOL0     H67678   6.554   6.591   8.815  0.0882 -1.6504  2.2752
  513MOL0     H67679   6.763   6.494   8.813 -2.2705 -1.7456  2.1228
  513MOL0     H67680   6.973   6.249   9.022 -0.9351  2.0690  0.0366
  513MOL0     H67681   7.153   6.074   9.041  1.0381 -1.1686 -0.4865
  513MOL0     H67682   7.559   6.177   8.921  0.4375 -0.0785 -2.4655
  513MOL0     H67683   7.503   6.099   8.778 -3.9636  1.0621  0.3128
  513MOL0     H67684   7.599   5.955   9.031  0.1176 -1.9937 -1.1541
  513MOL0     H67685   7.693   5.979   8.879  1.0189  1.4955 -0.6907
  513MOL0     H67686   7.528   5.837   8.739 -0.9566 -3.7012 -1.2021
  513MOL0     H67687   7.428   5.813   8.880  0.3595 -0.0314 -1.4812
  513MOL0     H67688   7.657   5.708   8.978 -0.9671 -4.7777  0.4169
  513MOL0     H67689   7.543   5.623   8.883  2.6790 -2.6471  3.7128
  513MOL0     H67690   7.674   5.647   8.683  0.0545 -1.3489 -0.1906
  513MOL0     H67691   7.769   5.572   8.811  5.0530  3.3238  1.2395
  513MOL0     H67692   7.859   5.802   8.870 -0.0468  4.2410 -0.2080
  513MOL0     H67693   7.783   5.860   8.726  0.1139 -0.6010  0.0583
  513MOL0     H67694   7.922   5.670   8.603 -0.5611 -2.7530  1.3997
  513MOL0     H67695   8.013   5.802   8.657 -0.5950  0.2406 -0.4217
  513MOL0     H67696   8.023   5.527   8.727  0.9256  1.1662 -3.8228
  513MOL0     H67697   7.998   5.625   8.872 -2.0680  1.9316 -1.5571
  513MOL0     H67698   7.403   6.304   8.772  0.2164  1.2718  1.6611
  513MOL0     H67699   7.222   6.464   8.743 -0.3799 -0.8235 -0.2471
  513MOL0     H67700   6.942   6.818   9.027 -1.4180  0.3475  1.3869
  513MOL0     H67701   6.730   6.928   9.039 -0.6245 -0.9334  4.1737
  513MOL0     H67702   4.639   7.519   9.476 -0.5642 -0.1718 -0.4350
  513MOL0     H67703   4.413   7.639   9.398 -1.5898 -0.5559 -0.1324
  513MOL0     H67704   3.905   7.371   9.179 -1.1440 -0.1730 -0.1488
  513MOL0     H67705   3.734   7.448   9.037  0.0930  0.3636  0.3480
  513MOL0     H67706   3.656   7.811   8.813 -1.8646  0.7608  1.5914
  513MOL0     H67707   3.733   7.799   8.976  0.4834  5.7491 -2.0330
  513MOL0     H67708   3.561   7.629   9.040 -0.4321  2.2737  2.4394
  513MOL0     H67709   3.492   7.787   9.001 -0.4626  1.7334 -3.8086
  513MOL0     H67710   3.452   7.551   8.839  0.6935  0.2127 -1.0378
  513MOL0     H67711   3.439   7.721   8.774 -0.6061  2.2866  1.4682
  513MOL0     H67712   3.285   7.635   9.014  0.4777 -0.5433  0.0621
  513MOL0     H67713   3.259   7.787   8.929  0.4117 -0.3533  0.6083
  513MOL0     H67714   3.082   7.484   8.686  2.4958 -1.0412 -0.9138
  513MOL0     H67715   3.988   7.740   8.850  2.4286 -1.8578  0.1538
  513MOL0     H67716   4.154   7.708   9.012 -0.3326  0.0401 -3.3268
  514MOL0     O67717   8.039   1.701   9.960  0.8916  0.2396  0.2329
  514MOL0     C67718   8.105   1.696   9.858 -0.6161  0.1032 -0.2581
  514MOL0     O67719   8.061   1.686   9.735  0.2850  0.0830 -0.0670
  514MOL0     C67720   7.925   1.672   9.715  0.9576 -0.2418 -0.2486
  514MOL0     C67721   7.873   1.761   9.624  0.5895 -0.6292  0.0103
  514MOL0     C67722   7.735   1.775   9.599 -0.4412  1.5293  0.2115
  514MOL0     C67723   7.651   1.676   9.643  0.0536  0.1223 -0.6820
  514MOL0     O67724   7.518   1.700   9.617  0.8696  0.0415  0.2977
  514MOL0     C67725   7.430   1.592   9.674  0.2484 -0.6283  0.1913
  514MOL0     C67726   7.282   1.613   9.615 -0.5669  0.2612  0.9113
  514MOL0     C67727   7.190   1.500   9.660  0.3174 -0.5425  0.4602
  514MOL0     C67728   7.074   1.490   9.557  0.3242  0.8828 -0.6007
  514MOL0     C67729   6.964   1.389   9.600 -0.3484 -0.2329  0.2675
  514MOL0     C67730   7.009   1.246   9.614  0.3126  0.4955 -0.1410
  514MOL0     C67731   6.888   1.139   9.630  0.7468 -0.5169 -0.0174
  514MOL0     C67732   6.761   1.203   9.674  0.3947  0.3707  0.2000
  514MOL0     N67733   6.655   1.108   9.714 -0.6879  0.4172 -0.2533
  514MOL0     C67734   6.603   1.013   9.632 -0.3602 -0.4351  0.2752
  514MOL0     C67735   6.484   0.984   9.686  0.1529 -0.0595 -0.3027
  514MOL0     C67736   6.392   0.886   9.628 -0.4461  0.1171 -0.6212
  514MOL0     C67737   6.296   0.929   9.522 -0.4905  0.3695  0.3412
  514MOL0     C67738   6.360   0.946   9.382 -0.3247 -0.6569 -0.7479
  514MOL0     C67739   6.351   0.823   9.295 -0.5403 -0.0145  0.2757
  514MOL0     O67740   6.461   0.734   9.334  0.1298 -0.9040 -0.4069
  514MOL0     C67741   6.591   0.776   9.332  0.1352 -0.6739  0.5596
  514MOL0     C67742   6.633   0.886   9.256  0.1085 -0.5594 -1.3369
  514MOL0     C67743   6.764   0.918   9.251 -0.3823  0.3463  1.0797
  514MOL0     C67744   6.863   0.837   9.304 -0.7364 -0.0723 -0.0226
  514MOL0     C67745   7.002   0.881   9.292  0.1167 -0.0880  0.0360
  514MOL0     O67746   7.082   0.799   9.366  0.0234 -0.1542 -0.8284
  514MOL0     C67747   7.218   0.839   9.369 -0.2779  0.0229  0.6643
  514MOL0     C67748   7.258   0.969   9.406 -0.6829  0.3558  0.8298
  514MOL0     C67749   7.392   0.989   9.436  0.1686 -0.1729  0.1969
  514MOL0     C67750   7.485   0.892   9.435  0.1101 -0.5550  0.2923
  514MOL0     O67751   7.609   0.937   9.471  0.6082 -0.4180  0.2376
  514MOL0     C67752   7.709   0.847   9.451  0.5568  0.0290 -0.2310
  514MOL0     C67753   7.836   0.919   9.480  0.2957 -0.6790 -0.8378
  514MOL0     C67754   7.952   0.833   9.507 -0.5158 -0.0088 -0.8305
  514MOL0     C67755   8.075   0.929   9.553 -0.6505 -0.1465 -0.0797
  514MOL0     C67756   8.182   0.853   9.626 -0.6015  0.3961  0.0898
  514MOL0     C67757   8.300   0.940   9.640  0.4378  0.4124  1.1923
  514MOL0     C67758   8.427   0.865   9.686 -0.4840 -0.6136 -0.0899
  514MOL0     C67759   8.562   0.948   9.671  0.3123  0.7164  0.6326
  514MOL0    Cl67760   8.699   0.895   9.749 -0.0799 -0.3413  0.0280
  514MOL0     C67761   7.452   0.764   9.403  0.3128  0.9448 -0.2349
  514MOL0     C67762   7.313   0.738   9.367 -0.5600  0.7045 -0.1854
  514MOL0     O67763   7.032   0.988   9.234  0.1162  0.5824  0.1782
  514MOL0     C67764   6.821   0.725   9.378 -0.0333  0.6080 -0.2433
  514MOL0     C67765   6.684   0.694   9.391  0.1845 -0.2297 -0.1986
  514MOL0     N67766   6.464   1.056   9.796 -0.5213 -0.5064  0.2822
  514MOL0     N67767   6.567   1.129   9.818  0.2094  0.2692  0.4147
  514MOL0     C67768   7.707   1.573   9.715  0.2541  0.2362 -0.2944
  514MOL0     C67769   7.838   1.568   9.763  0.2218 -0.2236 -0.9936
  514MOL0     C67770   8.248   1.718   9.877 -0.9700  0.3377  0.1717
  514MOL0     C67771   8.337   1.690   9.775 -0.1226 -0.2471 -0.6398
  514MOL0     C67772   8.480   1.709   9.798  0.6093 -0.4588  0.6390
  514MOL0     C67773   8.528   1.768   9.911  0.1474 -0.3520  0.0561
  514MOL0     O67774   8.655   1.802   9.928  1.0850  0.2228  0.0225
  514MOL0     C67775   8.755   1.789   9.816  0.1570  0.9273  0.5696
  514MOL0     C67776   8.896   1.837   9.866  0.2117  0.1502 -0.4018
  514MOL0     C67777   9.001   1.807   9.755  0.1575 -0.8025 -0.6084
  514MOL0     C67778   9.145   1.827   9.820 -0.2958  0.0001  0.3887
  514MOL0     C67779   9.168   1.732   9.924 -0.5711 -0.3499 -0.3800
  514MOL0     C67780   9.184   1.650  10.010  0.1344  0.0546 -0.5022
  514MOL0     C67781   8.441   1.787  10.018  1.1466 -0.2250 -0.3323
  514MOL0     C67782   8.301   1.764  10.005  1.0472 -0.4387  0.1501
  514MOL0     H67783   7.948   1.826   9.581 -0.8402  0.9053 -0.2855
  514MOL0     H67784   7.682   1.849   9.541 -1.4420 -0.6761 -1.8899
  514MOL0     H67785   7.417   1.603   9.782  0.6435  0.5258  0.1357
  514MOL0     H67786   7.450   1.489   9.644 -2.5112 -0.6115 -2.1540
  514MOL0     H67787   7.279   1.600   9.506 -0.5663  1.7847  0.7095
  514MOL0     H67788   7.242   1.709   9.647  0.8717  0.5026  2.0934
  514MOL0     H67789   7.157   1.517   9.763 -1.7369  2.1079 -0.5243
  514MOL0     H67790   7.250   1.409   9.647  0.4033 -0.1018 -3.0124
  514MOL0     H67791   7.026   1.588   9.563 -0.0756  0.6196  0.9108
  514MOL0     H67792   7.102   1.458   9.456 -1.4099 -3.1955  0.0344
  514MOL0     H67793   6.871   1.402   9.545 -0.8376  1.2072  1.3713
  514MOL0     H67794   6.937   1.425   9.700  1.7836  0.5048  0.6444
  514MOL0     H67795   7.072   1.239   9.703 -2.7871  1.2902  2.3106
  514MOL0     H67796   7.074   1.228   9.529  1.2640 -0.0440  0.6817
  514MOL0     H67797   6.868   1.107   9.527 -0.3551  2.7301 -0.9185
  514MOL0     H67798   6.920   1.061   9.700 -0.5089  0.4791  1.7570
  514MOL0     H67799   6.723   1.264   9.591  0.4113  1.5997  1.0688
  514MOL0     H67800   6.767   1.260   9.767 -1.6125 -1.8323  1.7848
  514MOL0     H67801   6.641   0.957   9.547  0.2653 -0.4634  0.5723
  514MOL0     H67802   6.323   0.865   9.710  1.6880 -2.4514  0.7058
  514MOL0     H67803   6.445   0.794   9.601 -1.5080 -0.1445 -1.9132
  514MOL0     H67804   6.260   1.025   9.561  0.4548  0.9226 -0.1155
  514MOL0     H67805   6.222   0.849   9.533  0.3658 -0.1414  3.3890
  514MOL0     H67806   6.289   1.009   9.328  0.6417  3.2192  2.1178
  514MOL0     H67807   6.452   1.005   9.385 -0.6313  0.2900 -4.5713
  514MOL0     H67808   6.370   0.837   9.189  1.8214 -3.5728  0.0234
  514MOL0     H67809   6.253   0.777   9.312  0.2840 -2.2932 -0.7204
  514MOL0     H67810   6.562   0.949   9.203  2.1076  3.0288 -0.0614
  514MOL0     H67811   6.787   1.011   9.199  1.2978 -0.1109  0.9414
  514MOL0     H67812   7.204   1.064   9.407  1.8663  1.8873  0.7271
  514MOL0     H67813   7.430   1.086   9.468 -0.0156  0.1648 -0.5965
  514MOL0     H67814   7.712   0.814   9.347 -1.0988 -0.6981 -0.0723
  514MOL0     H67815   7.705   0.755   9.510  0.0649 -2.5068 -3.9152
  514MOL0     H67816   7.816   0.979   9.569 -0.2802  0.3025 -1.6037
  514MOL0     H67817   7.858   0.991   9.401 -1.4742  0.0273 -0.7221
  514MOL0     H67818   7.983   0.774   9.420  1.0767 -1.6739  0.7640
  514MOL0     H67819   7.937   0.764   9.591  0.2418  1.2364  0.3577
  514MOL0     H67820   8.109   0.973   9.459 -3.0209 -1.1978 -1.5326
  514MOL0     H67821   8.039   1.021   9.601 -1.1719 -0.8340  0.8962
  514MOL0     H67822   8.215   0.783   9.549  3.0949 -0.9530  2.6267
  514MOL0     H67823   8.149   0.806   9.719  1.2317  1.0827  1.1431
  514MOL0     H67824   8.267   1.014   9.713  1.9311  2.8750 -0.4646
  514MOL0     H67825   8.319   0.983   9.541  3.0861 -4.5591 -0.8515
  514MOL0     H67826   8.418   0.853   9.794 -2.8638  1.4111  0.0515
  514MOL0     H67827   8.433   0.769   9.634  2.3821  0.0942 -1.2156
  514MOL0     H67828   8.527   1.047   9.701 -0.6574 -0.1979  2.7221
  514MOL0     H67829   8.584   0.958   9.564  0.2294 -1.0843  0.4059
  514MOL0     H67830   7.527   0.686   9.396  0.1176  0.5074  1.9515
  514MOL0     H67831   7.286   0.642   9.324 -0.8078  0.5781  0.2436
  514MOL0     H67832   6.892   0.658   9.425  0.4941  2.2031  1.3525
  514MOL0     H67833   6.638   0.614   9.448  0.0344 -1.1502 -1.5789
  514MOL0     H67834   7.647   1.484   9.732 -0.8009  0.6954 -1.4230
  514MOL0     H67835   7.870   1.501   9.843  0.8141  3.3132  1.9996
  514MOL0     H67836   8.307   1.636   9.686  1.4964  0.7589 -1.8741
  514MOL0     H67837   8.548   1.678   9.719 -1.1979 -3.9864  0.2335
  514MOL0     H67838   8.720   1.839   9.725 -1.5170 -1.1522 -0.0330
  514MOL0     H67839   8.753   1.683   9.787 -4.2218  0.7436  0.7788
  514MOL0     H67840   8.889   1.945   9.884  1.5590  0.1736  0.0835
  514MOL0     H67841   8.925   1.790   9.960  5.3339 -0.8028 -2.1303
  514MOL0     H67842   8.987   1.874   9.670 -0.2754 -0.3752 -0.2066
  514MOL0     H67843   8.991   1.701   9.730  0.7126 -0.8392 -0.7012
  514MOL0     H67844   9.228   1.805   9.753  0.1464  3.1663 -0.2388
  514MOL0     H67845   9.150   1.929   9.858  0.4091  0.0542  0.1662
  514MOL0     H67846   9.207   1.571  10.079  1.6388  0.0458 -0.9775
  514MOL0     H67847   8.469   1.825  10.116 -1.5620 -1.1188  0.8879
  514MOL0     H67848   8.236   1.781  10.091  1.6899 -0.5364  0.6593
  515MOL0     O67849   7.667   5.213  10.307  0.5201 -0.3189 -0.9405
  515MOL0     C67850   7.677   5.104  10.352  0.0271  0.4782 -0.5424
  515MOL0     O67851   7.628   5.050  10.469 -0.0612  0.5008 -0.5439
  515MOL0     C67852   7.531   5.119  10.534  0.2631 -0.2469 -0.4932
  515MOL0     C67853   7.575   5.188  10.656  0.3036  0.0275  0.0612
  515MOL0     C67854   7.482   5.238  10.743  0.9051 -0.7799 -0.5169
  515MOL0     C67855   7.340   5.232  10.711  0.2909 -0.3974 -0.8184
  515MOL0     O67856   7.255   5.283  10.804  0.1521  0.5005 -0.6504
  515MOL0     C67857   7.111   5.266  10.790  0.5838  0.0258 -0.7200
  515MOL0     C67858   7.032   5.354  10.879 -0.1442 -0.2369  0.2815
  515MOL0     C67859   6.880   5.363  10.858 -1.6259  0.2778  0.4276
  515MOL0     C67860   6.795   5.254  10.913 -0.0654  0.3652 -0.3013
  515MOL0     C67861   6.655   5.305  10.892  1.1953 -0.1455  0.0674
  515MOL0     C67862   6.552   5.193  10.929 -0.6408  0.1385  0.1137
  515MOL0     C67863   6.413   5.264  10.929  0.7206  0.6715  0.2470
  515MOL0     C67864   6.380   5.335  11.068  0.8492  0.2504  0.1729
  515MOL0     N67865   6.240   5.387  11.058 -0.8648 -0.3074  1.1915
  515MOL0     C67866   6.124   5.313  11.077 -0.2354  0.8482  0.0430
  515MOL0     C67867   6.031   5.408  11.077  1.1118 -0.9906  0.2866
  515MOL0     C67868   5.896   5.395  11.122 -0.0532  0.3042  0.2112
  515MOL0     C67869   5.879   5.464  11.264  0.9156  0.3866 -0.2237
  515MOL0     C67870   5.757   5.408  11.334 -0.8073  0.3431  0.0507
  515MOL0     C67871   5.627   5.454  11.282 -0.4243  0.3013  0.4798
  515MOL0     O67872   5.519   5.390  11.345  0.6366  0.6440 -0.4504
  515MOL0     C67873   5.390   5.425  11.348  0.5992 -0.8638 -0.4930
  515MOL0     C67874   5.297   5.361  11.442 -0.1713 -0.5374 -0.2865
  515MOL0     C67875   5.163   5.403  11.442  0.0054 -0.5943 -0.3871
  515MOL0     C67876   5.114   5.493  11.349 -1.0886 -0.0582  0.3603
  515MOL0     C67877   4.965   5.515  11.349 -0.1298  0.7579  0.6553
  515MOL0     O67878   4.919   5.624  11.281 -0.4960  0.2410  0.1707
  515MOL0     C67879   4.789   5.633  11.256 -0.1288 -0.7338 -0.3132
  515MOL0     C67880   4.714   5.688  11.352 -0.1441  0.2150  0.2263
  515MOL0     C67881   4.577   5.694  11.336  1.0209  0.0198  0.8533
  515MOL0     C67882   4.521   5.627  11.221  0.0235  0.3302  1.0139
  515MOL0     O67883   4.390   5.633  11.194 -0.0946  0.2822 -0.9340
  515MOL0     C67884   4.292   5.617  11.297 -0.9585 -0.3902 -0.6660
  515MOL0     C67885   4.195   5.730  11.298  0.5190 -0.0179  0.0126
  515MOL0     C67886   4.066   5.710  11.375 -0.0182 -0.3706  0.1299
  515MOL0     C67887   3.947   5.803  11.316 -0.0827 -0.3085 -0.1644
  515MOL0     C67888   3.814   5.751  11.389  0.0954  0.4170  0.1669
  515MOL0     C67889   3.822   5.737  11.548 -0.2428 -0.3196  0.2355
  515MOL0     C67890   3.681   5.723  11.614 -0.3794  0.0709  0.4325
  515MOL0     C67891   3.583   5.841  11.597 -0.6784 -0.3407 -0.6938
  515MOL0    Cl67892   3.448   5.842  11.723  0.2649  0.0731 -0.0929
  515MOL0     C67893   4.604   5.575  11.122  0.0574  0.4772 -1.1744
  515MOL0     C67894   4.740   5.589  11.140  0.2788 -0.1608  0.9020
  515MOL0     O67895   4.895   5.432  11.412 -0.1923  0.4860 -0.4016
  515MOL0     C67896   5.210   5.560  11.272 -0.1271 -0.1104  0.1301
  515MOL0     C67897   5.343   5.522  11.263  0.4659  0.3014 -0.0382
  515MOL0     N67898   6.084   5.531  11.036 -1.2842  0.0363  0.3857
  515MOL0     N67899   6.212   5.516  11.020 -0.4164  0.3795  0.6093
  515MOL0     C67900   7.295   5.160  10.595 -0.0515 -0.3290  0.2884
  515MOL0     C67901   7.396   5.098  10.514  0.4701  1.2531  0.2787
  515MOL0     C67902   7.738   5.012  10.253 -0.3474  0.1945  0.4788
  515MOL0     C67903   7.786   5.063  10.129 -0.4974 -0.3931  0.2156
  515MOL0     C67904   7.833   4.973  10.036 -0.3652  0.2077  0.0780
  515MOL0     C67905   7.832   4.829  10.055 -0.1413  0.5364 -0.6333
  515MOL0     O67906   7.881   4.727   9.981  0.2963 -0.1991 -0.8136
  515MOL0     C67907   7.951   4.745   9.854 -0.4076 -0.3302 -0.4063
  515MOL0     C67908   8.097   4.792   9.887  0.6744  1.0351  0.2509
  515MOL0     C67909   8.154   4.853   9.765 -0.5366  0.0286  0.3713
  515MOL0     C67910   8.299   4.913   9.789  0.3936  0.8123 -0.1422
  515MOL0     C67911   8.386   4.839   9.879 -0.0149 -0.2161 -1.0620
  515MOL0     C67912   8.468   4.781   9.941  0.8247  0.0599 -1.1534
  515MOL0     C67913   7.791   4.790  10.181 -1.0038  0.3544 -0.0315
  515MOL0     C67914   7.736   4.879  10.280  1.0913 -0.1806 -0.5737
  515MOL0     H67915   7.680   5.190  10.681  0.3107  2.8044  0.0592
  515MOL0     H67916   7.506   5.285  10.838 -0.9554 -1.9808  0.6052
  515MOL0     H67917   7.082   5.164  10.814  0.1258  0.5181  0.9353
  515MOL0     H67918   7.077   5.284  10.687  3.2674  0.3066 -1.6406
  515MOL0     H67919   7.074   5.453  10.857 -0.9411 -0.0398 -0.4084
  515MOL0     H67920   7.044   5.345  10.987 -0.8815 -1.2208  0.2974
  515MOL0     H67921   6.865   5.359  10.749  1.0370 -2.7462  0.0068
  515MOL0     H67922   6.850   5.462  10.894 -0.8403  0.4032  0.7531
  515MOL0     H67923   6.807   5.157  10.864 -1.6555  0.6631 -1.3556
  515MOL0     H67924   6.821   5.234  11.017  1.2199 -0.1661 -0.6961
  515MOL0     H67925   6.645   5.332  10.787  2.1720  2.8029  0.6281
  515MOL0     H67926   6.656   5.390  10.961  2.1109 -1.4570  1.7760
  515MOL0     H67927   6.562   5.143  11.025  1.4734 -0.1284 -0.2074
  515MOL0     H67928   6.548   5.127  10.842 -1.0202 -0.3560  0.5003
  515MOL0     H67929   6.418   5.330  10.842  1.7173  2.3699  1.5242
  515MOL0     H67930   6.348   5.178  10.911  0.6929  0.6450  0.4803
  515MOL0     H67931   6.443   5.423  11.081 -2.2411  2.4686  1.3422
  515MOL0     H67932   6.379   5.264  11.151 -0.3551  1.6337  1.4013
  515MOL0     H67933   6.111   5.208  11.100  0.8103  0.3202 -1.6520
  515MOL0     H67934   5.884   5.286  11.123  0.8835  0.1942 -0.0799
  515MOL0     H67935   5.836   5.438  11.041  0.9553 -1.7449 -1.7184
  515MOL0     H67936   5.856   5.571  11.258 -1.8113  0.0391  2.0179
  515MOL0     H67937   5.964   5.439  11.328 -0.7528  2.3838  3.0505
  515MOL0     H67938   5.767   5.299  11.334 -1.5316  0.2556 -1.8789
  515MOL0     H67939   5.754   5.434  11.441  0.9030 -2.9286  1.0308
  515MOL0     H67940   5.622   5.447  11.173  0.0425  2.9167  0.2283
  515MOL0     H67941   5.626   5.562  11.296  0.1440  0.1782  1.5407
  515MOL0     H67942   5.332   5.286  11.512  0.2512 -1.2361 -1.2347
  515MOL0     H67943   5.097   5.344  11.505  0.7870 -2.6871 -1.4274
  515MOL0     H67944   4.757   5.737  11.439 -0.8866  2.1701 -0.4548
  515MOL0     H67945   4.519   5.748  11.411  2.2045 -0.3705  2.0768
  515MOL0     H67946   4.334   5.614  11.399  0.2741 -0.7372 -1.1654
  515MOL0     H67947   4.227   5.531  11.281 -2.1514  0.4731 -0.5687
  515MOL0     H67948   4.165   5.738  11.193 -0.3174 -0.6811  0.1883
  515MOL0     H67949   4.262   5.814  11.320  1.6519 -0.7776 -0.4012
  515MOL0     H67950   4.086   5.737  11.479  0.1527  0.0225 -0.0063
  515MOL0     H67951   4.042   5.603  11.369  0.4265 -0.5940  1.7820
  515MOL0     H67952   3.955   5.909  11.340 -0.0792 -0.4745  0.5698
  515MOL0     H67953   3.927   5.790  11.209 -2.2397 -0.0496  0.1637
  515MOL0     H67954   3.791   5.648  11.363 -0.9905  1.1524 -2.0705
  515MOL0     H67955   3.729   5.812  11.357 -1.3084 -1.6792 -0.2700
  515MOL0     H67956   3.860   5.832  11.587 -0.4147  1.2186 -3.0053
  515MOL0     H67957   3.892   5.656  11.571  1.7045  1.5713  1.3732
  515MOL0     H67958   3.637   5.628  11.583 -2.3037  0.7251  0.9856
  515MOL0     H67959   3.701   5.722  11.721 -1.4749 -0.7648  0.6446
  515MOL0     H67960   3.540   5.838  11.496  0.1436  0.2131 -1.0719
  515MOL0     H67961   3.633   5.938  11.606 -1.8034  0.5482 -3.0397
  515MOL0     H67962   4.569   5.517  11.038 -0.6331 -0.8679  0.0009
  515MOL0     H67963   4.815   5.555  11.069 -0.6389 -4.0141  1.5394
  515MOL0     H67964   5.168   5.640  11.212 -0.4542 -2.2159 -2.6734
  515MOL0     H67965   5.404   5.576  11.191 -1.7801  1.6898 -1.0381
  515MOL0     H67966   7.195   5.157  10.553  0.9135 -1.2546 -2.1050
  515MOL0     H67967   7.363   5.032  10.435  1.6740  0.0914  0.7121
  515MOL0     H67968   7.782   5.169  10.106 -1.1802 -0.2305  1.0403
  515MOL0     H67969   7.884   5.020   9.954 -0.2806  1.8185  1.0174
  515MOL0     H67970   7.895   4.817   9.794  0.1156  2.6819  2.4104
  515MOL0     H67971   7.954   4.648   9.805  1.2433 -0.3472 -0.3519
  515MOL0     H67972   8.084   4.862   9.970 -2.6962 -1.3150  1.9537
  515MOL0     H67973   8.164   4.712   9.922  1.2420  1.2942 -0.2128
  515MOL0     H67974   8.092   4.934   9.725  0.8590  0.5284 -0.8843
  515MOL0     H67975   8.171   4.780   9.684 -2.5686  2.4352 -2.4390
  515MOL0     H67976   8.356   4.915   9.696  1.5943 -0.1853  0.5429
  515MOL0     H67977   8.283   5.015   9.824 -2.3497  0.5609 -0.4517
  515MOL0     H67978   8.537   4.745  10.015  0.3427  2.6718  0.7038
  515MOL0     H67979   7.794   4.685  10.207 -1.8019  1.1187  3.5809
  515MOL0     H67980   7.708   4.838  10.376 -1.9979  1.2763 -0.7122
  516MOL0     O67981   9.846   7.772   0.334 -0.7255  0.6441  0.5442
  516MOL0     C67982   9.846   7.656   0.376 -0.6764  0.4121  0.1067
  516MOL0     O67983   9.934   7.598   0.474 -0.1878 -1.0582 -0.2722
  516MOL0     C67984  10.054   7.654   0.503  0.7275 -0.1499 -0.1842
  516MOL0     C67985  10.144   7.718   0.417 -0.6186 -0.1747  0.2590
  516MOL0     C67986  10.260   7.780   0.458 -1.0977 -0.5599 -0.0896
  516MOL0     C67987  10.300   7.772   0.594 -0.0580 -0.3550  0.1746
  516MOL0     O67988  10.415   7.841   0.624 -0.1092  0.7106 -0.4238
  516MOL0     C67989  10.481   7.807   0.747  0.0815  0.0075 -0.5374
  516MOL0     C67990  10.591   7.899   0.770  0.2142  0.1143  0.1706
  516MOL0     C67991  10.656   7.890   0.906 -0.8512 -0.1848  0.5478
  516MOL0     C67992  10.725   7.756   0.938  0.5912 -0.4224  0.3707
  516MOL0     C67993  10.824   7.780   1.043 -0.6830 -0.0257 -0.5478
  516MOL0     C67994  10.876   7.660   1.109 -0.2048  0.0132 -0.1376
  516MOL0     C67995  10.977   7.712   1.207 -0.0400 -0.4643  0.9482
  516MOL0     C67996  11.005   7.602   1.303  0.0175 -0.1947  0.2459
  516MOL0     N67997  11.124   7.629   1.388  0.7407  0.0482 -0.3793
  516MOL0     C67998  11.252   7.649   1.353  1.0734 -0.6902  0.3766
  516MOL0     C67999  11.331   7.639   1.463  1.4140  0.2402  0.0916
  516MOL0     C68000  11.472   7.665   1.500  0.8628 -0.1191  0.1331
  516MOL0     C68001  11.579   7.615   1.409 -0.0773 -0.7758  0.3492
  516MOL0     C68002  11.551   7.686   1.279  0.2755  0.4936  0.3891
  516MOL0     C68003  11.671   7.727   1.193 -0.5934 -0.1069  0.5685
  516MOL0     O68004  11.775   7.627   1.178  0.2444  0.1211  0.3340
  516MOL0     C68005  11.886   7.659   1.109  0.0397 -0.2351  0.0948
  516MOL0     C68006  11.963   7.556   1.057  0.8096  1.5678  0.2026
  516MOL0     C68007  12.092   7.571   0.999  1.0674  0.8159  0.3788
  516MOL0     C68008  12.129   7.701   0.969  0.1093  0.3307 -1.3857
  516MOL0     C68009  12.266   7.734   0.925 -0.1782 -0.0799  1.0713
  516MOL0     O68010  12.353   7.628   0.925 -0.0690 -0.8010  0.5111
  516MOL0     C68011  12.480   7.654   0.883 -0.4347 -0.5855 -0.1466
  516MOL0     C68012  12.541   7.560   0.804  0.8293  1.0774 -0.3045
  516MOL0     C68013  12.682   7.559   0.790  0.5955  0.6528  0.7218
  516MOL0     C68014  12.757   7.661   0.848 -0.3017  0.0445  0.0570
  516MOL0     O68015  12.891   7.681   0.831  0.4617  0.8619  0.3349
  516MOL0     C68016  12.970   7.558   0.838  0.0473 -0.4240  0.1581
  516MOL0     C68017  13.109   7.584   0.888  0.7251 -0.2436  0.4266
  516MOL0     C68018  13.178   7.454   0.924 -0.2565 -0.7144 -0.3913
  516MOL0     C68019  13.312   7.492   0.990 -0.9583 -0.4015  0.2970
  516MOL0     C68020  13.412   7.556   0.886  0.1622  0.6659  0.0936
  516MOL0     C68021  13.458   7.449   0.787  0.1351  0.3277  0.3918
  516MOL0     C68022  13.566   7.507   0.681 -0.8843  0.0732 -0.4750
  516MOL0     C68023  13.594   7.400   0.563 -0.1697 -0.8994 -0.0915
  516MOL0    Cl68024  13.665   7.258   0.650  0.7671 -0.3561  0.1407
  516MOL0     C68025  12.695   7.765   0.910  0.3126 -0.3122 -0.9219
  516MOL0     C68026  12.555   7.760   0.933 -1.4247 -0.6846  0.6096
  516MOL0     O68027  12.282   7.850   0.876 -0.3123  0.2824 -0.5947
  516MOL0     C68028  12.032   7.803   0.985  0.0760 -1.0938 -0.4818
  516MOL0     C68029  11.919   7.777   1.059 -0.0278 -0.9159  0.0398
  516MOL0     N68030  11.250   7.609   1.565  0.0634 -0.3932 -0.1935
  516MOL0     N68031  11.128   7.613   1.524  0.8583  0.4576  0.3289
  516MOL0     C68032  10.230   7.683   0.672  0.4805 -1.1415 -0.1211
  516MOL0     C68033  10.110   7.639   0.635  0.2414 -0.2985  0.6886
  516MOL0     C68034   9.744   7.565   0.328 -0.7990 -0.8807  0.1654
  516MOL0     C68035   9.628   7.612   0.273 -0.0064 -0.2153 -0.3104
  516MOL0     C68036   9.541   7.530   0.212  0.4913 -0.2950  0.5218
  516MOL0     C68037   9.558   7.390   0.208  0.2538  0.0236 -0.6667
  516MOL0     O68038   9.469   7.299   0.162 -0.0905 -0.5870  0.0379
  516MOL0     C68039   9.345   7.344   0.094 -0.4211  0.4975 -0.3296
  516MOL0     C68040   9.291   7.229   0.016  0.0955  0.9358  0.1882
  516MOL0     C68041   9.161   7.252  -0.066  0.5440 -0.1339  0.3907
  516MOL0     C68042   9.103   7.130  -0.142  0.1409 -0.6128 -0.2184
  516MOL0     C68043   9.114   7.003  -0.064 -1.2774  0.8376  0.8697
  516MOL0     C68044   9.115   6.899  -0.007  0.7598 -0.3122 -0.0573
  516MOL0     C68045   9.678   7.345   0.278  0.6919 -0.0208  0.4441
  516MOL0     C68046   9.766   7.434   0.333  0.4277  0.6243 -0.4639
  516MOL0     H68047  10.108   7.727   0.315  1.0974 -0.3822 -0.3946
  516MOL0     H68048  10.331   7.815   0.384  1.3420 -1.0162  1.8807
  516MOL0     H68049  10.538   7.717   0.722  2.3930  1.6271 -1.3812
  516MOL0     H68050  10.428   7.789   0.841  2.8056  1.8705  1.5132
  516MOL0     H68051  10.553   8.000   0.752  1.2127  0.5642  0.5122
  516MOL0     H68052  10.663   7.888   0.688 -1.1646 -5.0998 -0.7113
  516MOL0     H68053  10.576   7.917   0.976  0.3856  0.1603  1.8927
  516MOL0     H68054  10.733   7.968   0.912 -0.7610 -0.2687  0.4726
  516MOL0     H68055  10.639   7.698   0.975 -0.3052 -0.2585 -1.3439
  516MOL0     H68056  10.776   7.718   0.849  0.5011  2.7857 -1.1880
  516MOL0     H68057  10.782   7.847   1.119  0.4277 -0.5569  0.5846
  516MOL0     H68058  10.906   7.827   0.987 -0.4428  1.0335  0.6464
  516MOL0     H68059  10.924   7.601   1.030 -1.9859 -3.0114  0.8583
  516MOL0     H68060  10.793   7.612   1.161 -0.9830  1.8701  0.4301
  516MOL0     H68061  11.067   7.736   1.150  0.2310 -1.3428  0.9907
  516MOL0     H68062  10.943   7.805   1.253 -1.9946  0.0694 -1.3326
  516MOL0     H68063  11.022   7.505   1.255 -0.9502 -0.1396 -0.2304
  516MOL0     H68064  10.918   7.588   1.369  1.0999 -0.2881  1.7147
  516MOL0     H68065  11.282   7.688   1.257 -1.5917 -0.1745 -0.3125
  516MOL0     H68066  11.495   7.609   1.591  1.1928 -1.1333 -0.5578
  516MOL0     H68067  11.476   7.773   1.519  0.4283 -0.2745  1.1669
  516MOL0     H68068  11.585   7.506   1.399  3.7344 -0.5403 -1.7980
  516MOL0     H68069  11.681   7.631   1.443  0.6267 -2.4081 -0.8619
  516MOL0     H68070  11.501   7.609   1.220 -1.8305  0.4540  2.0763
  516MOL0     H68071  11.493   7.779   1.286  1.3557  1.1090  1.6475
  516MOL0     H68072  11.716   7.817   1.236  0.6132 -0.0899 -0.6564
  516MOL0     H68073  11.637   7.751   1.091 -1.1813  1.9410  1.1911
  516MOL0     H68074  11.928   7.456   1.083  4.7230 -0.5964 -1.9828
  516MOL0     H68075  12.155   7.488   0.971 -0.3354 -0.3690  0.6075
  516MOL0     H68076  12.486   7.473   0.769  1.8292 -0.5969  2.0101
  516MOL0     H68077  12.730   7.482   0.730  0.1436  0.2897  0.8184
  516MOL0     H68078  12.981   7.524   0.735 -1.5209  1.5284 -0.7337
  516MOL0     H68079  12.932   7.472   0.894 -0.7111 -1.2333 -1.5260
  516MOL0     H68080  13.100   7.641   0.980  0.2250 -1.4726  1.1680
  516MOL0     H68081  13.153   7.635   0.802  2.1212 -1.8343  0.1336
  516MOL0     H68082  13.212   7.405   0.832  5.6539 -0.8572  1.4382
  516MOL0     H68083  13.110   7.395   0.988 -0.7329 -2.3196 -2.2822
  516MOL0     H68084  13.295   7.555   1.078  0.4672 -0.2678  0.5057
  516MOL0     H68085  13.367   7.411   1.039 -0.1938 -0.2712 -0.3234
  516MOL0     H68086  13.497   7.593   0.944  1.7884 -2.1454 -0.3375
  516MOL0     H68087  13.369   7.635   0.824 -0.1038 -1.6342 -2.8609
  516MOL0     H68088  13.377   7.408   0.726  2.0586 -0.0035 -2.1040
  516MOL0     H68089  13.506   7.368   0.842 -1.0106 -0.4650  0.2695
  516MOL0     H68090  13.539   7.598   0.626  3.6964  1.6871 -0.4990
  516MOL0     H68091  13.664   7.531   0.723 -0.3825  2.4068 -2.7212
  516MOL0     H68092  13.660   7.441   0.487 -1.2591 -2.5575 -2.0294
  516MOL0     H68093  13.501   7.372   0.513 -0.4270 -3.2537  1.5153
  516MOL0     H68094  12.763   7.845   0.935 -0.8337  0.2058  0.7470
  516MOL0     H68095  12.514   7.839   0.995  1.9859 -1.4678  4.2990
  516MOL0     H68096  12.050   7.908   0.965 -2.4518  0.1692  2.8795
  516MOL0     H68097  11.846   7.854   1.080 -0.3431 -0.7251 -1.6134
  516MOL0     H68098  10.258   7.659   0.774 -2.7896  0.7475  1.3870
  516MOL0     H68099  10.044   7.592   0.708  1.0901  0.9021  2.3044
  516MOL0     H68100   9.609   7.718   0.262  1.0882  0.0772  0.5035
  516MOL0     H68101   9.457   7.579   0.163  2.4819  1.6654 -1.1267
  516MOL0     H68102   9.363   7.427   0.025  2.9512  1.3911  1.4157
  516MOL0     H68103   9.263   7.380   0.157  1.2286  0.5595  1.9157
  516MOL0     H68104   9.366   7.190  -0.054  1.8488 -0.4557  2.6679
  516MOL0     H68105   9.279   7.143   0.083  3.1605 -0.6718 -1.1062
  516MOL0     H68106   9.180   7.334  -0.135  0.7241  0.2693  0.9092
  516MOL0     H68107   9.085   7.279   0.008 -0.3469 -0.9273 -0.2147
  516MOL0     H68108   8.995   7.148  -0.144  0.0068 -1.4339 -1.5976
  516MOL0     H68109   9.150   7.133  -0.241  1.1038  2.5195  0.2126
  516MOL0     H68110   9.111   6.802   0.039 -0.6148 -1.2761 -2.0602
  516MOL0     H68111   9.696   7.238   0.269  4.1735  0.5656 -1.2765
  516MOL0     H68112   9.853   7.398   0.386 -0.9008 -0.9266  0.7717
  517MOL0     O68113   1.065   3.592   4.902  0.3045 -1.0535  0.5032
  517MOL0     C68114   1.033   3.494   4.960 -0.3544 -0.2718 -0.4403
  517MOL0     O68115   1.113   3.403   5.020 -0.2073 -0.1966 -0.4932
  517MOL0     C68116   1.245   3.410   5.009 -1.0344  0.2565 -0.0820
  517MOL0     C68117   1.322   3.319   4.933 -0.3729  0.3653  0.6195
  517MOL0     C68118   1.460   3.339   4.909  0.4471 -0.7215  0.1560
  517MOL0     C68119   1.533   3.437   4.973  0.5525  0.1852 -0.0480
  517MOL0     O68120   1.662   3.455   4.943 -0.3894 -0.3942 -0.3677
  517MOL0     C68121   1.735   3.579   4.969  0.2437  0.1255 -0.1277
  517MOL0     C68122   1.878   3.564   4.925 -0.4166  0.3692 -0.2583
  517MOL0     C68123   1.960   3.692   4.962 -0.0136 -0.1822 -0.7525
  517MOL0     C68124   2.090   3.717   4.883  0.7621  0.2030 -0.1739
  517MOL0     C68125   2.211   3.628   4.930 -0.1494 -0.7498  0.3673
  517MOL0     C68126   2.324   3.637   4.824  0.1439  0.8487 -0.0201
  517MOL0     C68127   2.453   3.564   4.863 -0.7414  0.4450 -0.4726
  517MOL0     C68128   2.566   3.577   4.762 -0.7242  0.8460 -0.9936
  517MOL0     N68129   2.538   3.514   4.628  0.4594  0.0798 -0.3790
  517MOL0     C68130   2.526   3.380   4.600 -0.6355  0.6565 -0.7135
  517MOL0     C68131   2.500   3.376   4.472 -1.3264  0.0307  0.7282
  517MOL0     C68132   2.489   3.253   4.384  0.1069 -0.1843 -0.3171
  517MOL0     C68133   2.344   3.240   4.330 -0.2915 -0.4249  0.1699
  517MOL0     C68134   2.290   3.368   4.257  0.5492  0.7455 -0.2343
  517MOL0     C68135   2.189   3.333   4.161  0.4160  1.4622  0.0434
  517MOL0     O68136   2.066   3.297   4.216 -0.5465  0.0177 -1.0911
  517MOL0     C68137   1.950   3.310   4.143 -0.4202 -0.5689  0.2786
  517MOL0     C68138   1.940   3.348   4.011 -0.7092 -0.3455 -0.4226
  517MOL0     C68139   1.821   3.386   3.947 -0.2143  0.0007  0.3705
  517MOL0     C68140   1.698   3.375   4.018 -0.2779 -0.1875 -0.2507
  517MOL0     C68141   1.561   3.406   3.963 -0.0181  0.0265  0.3641
  517MOL0     O68142   1.455   3.373   4.046  0.7507 -0.2568  0.3997
  517MOL0     C68143   1.328   3.404   4.003 -0.3032 -0.0631 -0.7447
  517MOL0     C68144   1.288   3.378   3.868 -0.4295  0.4545 -0.2314
  517MOL0     C68145   1.162   3.416   3.834 -0.0828  1.0691 -0.1042
  517MOL0     C68146   1.070   3.467   3.932 -0.4132 -0.0672 -0.7775
  517MOL0     O68147   0.951   3.516   3.897  0.4751  0.0044 -0.1932
  517MOL0     C68148   0.839   3.451   3.951  1.0932 -0.4305 -0.1960
  517MOL0     C68149   0.704   3.527   3.942  0.3715 -0.3228 -0.3838
  517MOL0     C68150   0.725   3.663   4.005  0.2613  0.1773 -0.7986
  517MOL0     C68151   0.585   3.731   4.014  0.1315  0.6143 -0.6805
  517MOL0     C68152   0.593   3.866   4.085  0.4901 -0.4618 -0.2687
  517MOL0     C68153   0.454   3.915   4.145 -0.4113 -0.3635  0.5161
  517MOL0     C68154   0.466   4.062   4.209 -0.2837  0.0553 -0.0622
  517MOL0     C68155   0.587   4.076   4.295  0.3437  0.5370 -0.3183
  517MOL0    Cl68156   0.564   4.218   4.408 -0.2179 -0.0847 -0.1846
  517MOL0     C68157   1.109   3.474   4.069  0.1152 -0.0089  0.5591
  517MOL0     C68158   1.237   3.435   4.104 -0.8049 -0.5171  0.0988
  517MOL0     O68159   1.556   3.449   3.845  0.1591 -0.0421 -0.4199
  517MOL0     C68160   1.705   3.321   4.147 -0.2616 -0.0080 -0.1922
  517MOL0     C68161   1.830   3.291   4.206 -0.3290  0.3757 -0.5562
  517MOL0     N68162   2.495   3.502   4.417 -0.8606 -0.0295  0.0665
  517MOL0     N68163   2.522   3.588   4.512 -0.7885  0.8493  0.1583
  517MOL0     C68164   1.452   3.529   5.054  0.0117 -0.1146  0.4843
  517MOL0     C68165   1.317   3.514   5.073 -0.0951 -0.2654  0.4619
  517MOL0     C68166   0.893   3.456   4.938  0.0569  0.3612  0.1752
  517MOL0     C68167   0.844   3.332   4.976 -0.5111  0.0912  0.3590
  517MOL0     C68168   0.710   3.295   4.958  0.2342 -1.1315 -0.0631
  517MOL0     C68169   0.620   3.382   4.906 -0.4033 -0.1183  1.1149
  517MOL0     O68170   0.487   3.350   4.872  0.2850 -0.1493  0.2752
  517MOL0     C68171   0.470   3.319   4.731 -0.5071 -0.0330 -0.1527
  517MOL0     C68172   0.376   3.198   4.713  0.4552  0.0365  0.6731
  517MOL0     C68173   0.252   3.208   4.809  0.1297 -0.2483  0.3495
  517MOL0     C68174   0.159   3.331   4.797  0.9133 -0.1766  0.0124
  517MOL0     C68175   0.213   3.467   4.820 -0.5048  0.6710 -0.0613
  517MOL0     C68176   0.270   3.574   4.825 -0.0863 -0.0902 -0.3222
  517MOL0     C68177   0.671   3.501   4.853 -0.1266  0.4766 -0.6620
  517MOL0     C68178   0.807   3.536   4.861 -0.8699  0.8384  0.6455
  517MOL0     H68179   1.276   3.234   4.884 -0.6062  0.8689 -0.0508
  517MOL0     H68180   1.519   3.272   4.849  0.1895 -0.8442  0.0372
  517MOL0     H68181   1.730   3.603   5.076  0.4582 -0.4491  0.0174
  517MOL0     H68182   1.687   3.664   4.919 -0.4587 -0.3581 -0.2744
  517MOL0     H68183   1.868   3.560   4.816  0.5220 -3.9007 -0.3669
  517MOL0     H68184   1.926   3.473   4.963 -2.6053  0.4349  3.0026
  517MOL0     H68185   1.984   3.694   5.069 -1.1748 -0.4569 -0.4765
  517MOL0     H68186   1.894   3.776   4.939 -0.6992  0.5135  3.1270
  517MOL0     H68187   2.062   3.707   4.777  0.5811  2.4391 -0.3950
  517MOL0     H68188   2.115   3.822   4.900  2.7008 -0.6011  2.5275
  517MOL0     H68189   2.183   3.523   4.945  1.0645 -1.7703 -3.3958
  517MOL0     H68190   2.250   3.675   5.021 -2.9256  0.6731  0.9540
  517MOL0     H68191   2.337   3.745   4.817 -1.4072  1.2075  1.9236
  517MOL0     H68192   2.280   3.607   4.728 -2.2559 -1.1205  1.5688
  517MOL0     H68193   2.492   3.605   4.956  2.0696 -0.3777 -1.2107
  517MOL0     H68194   2.437   3.459   4.887  1.4470 -0.0913 -1.1391
  517MOL0     H68195   2.659   3.532   4.796  0.3321  2.1272 -2.0825
  517MOL0     H68196   2.585   3.685   4.768  2.8863  0.2604  1.8473
  517MOL0     H68197   2.537   3.295   4.667 -2.1417  1.9104  1.2422
  517MOL0     H68198   2.517   3.160   4.433 -0.9649  0.3101  1.3147
  517MOL0     H68199   2.552   3.273   4.297  0.2680 -1.4544 -0.5120
  517MOL0     H68200   2.273   3.222   4.411  1.5776 -0.7787  1.8165
  517MOL0     H68201   2.320   3.152   4.270 -1.6028 -1.7531  2.4933
  517MOL0     H68202   2.252   3.446   4.323  3.8787  2.0482  0.3576
  517MOL0     H68203   2.366   3.425   4.202 -0.6469  2.2172 -0.4305
  517MOL0     H68204   2.212   3.251   4.093 -0.3285  0.0296  1.4644
  517MOL0     H68205   2.162   3.428   4.112 -1.0791 -0.2120 -2.6426
  517MOL0     H68206   2.034   3.360   3.957  0.7475 -0.0895  1.9994
  517MOL0     H68207   1.832   3.419   3.845  0.2840 -1.2423  0.0020
  517MOL0     H68208   1.356   3.334   3.796  1.0086  2.0515  0.0837
  517MOL0     H68209   1.129   3.409   3.731 -1.7796  2.3161  0.2999
  517MOL0     H68210   0.846   3.425   4.057 -0.7569 -1.3149 -0.2555
  517MOL0     H68211   0.812   3.359   3.898 -2.5728  1.0330 -1.1829
  517MOL0     H68212   0.626   3.466   3.989 -1.5308  0.2923 -2.5522
  517MOL0     H68213   0.672   3.535   3.838  0.6399 -0.7780 -0.5045
  517MOL0     H68214   0.787   3.726   3.940 -0.7410  1.5802 -0.4577
  517MOL0     H68215   0.780   3.651   4.099  1.8388  0.5137 -1.6483
  517MOL0     H68216   0.528   3.734   3.921  1.7016 -0.4296 -1.7361
  517MOL0     H68217   0.521   3.666   4.074 -1.5857  1.0870 -1.9386
  517MOL0     H68218   0.634   3.933   4.008  2.2778  1.1938  1.9520
  517MOL0     H68219   0.660   3.862   4.172 -1.0433 -2.6404  0.8795
  517MOL0     H68220   0.425   3.836   4.216  0.3757 -0.9641  0.1882
  517MOL0     H68221   0.373   3.935   4.075  0.7947  1.7815 -0.3657
  517MOL0     H68222   0.472   4.139   4.132  0.1273 -1.6527 -1.8279
  517MOL0     H68223   0.375   4.088   4.264  0.0744 -1.8517  1.5471
  517MOL0     H68224   0.668   4.091   4.223 -1.1324  0.8383 -1.9742
  517MOL0     H68225   0.601   3.988   4.359 -0.1637  1.3405  0.9269
  517MOL0     H68226   1.037   3.509   4.142  2.0120 -1.8381  3.5231
  517MOL0     H68227   1.275   3.445   4.205 -1.0921 -1.0820  0.2669
  517MOL0     H68228   1.614   3.308   4.204  0.2368  0.9101  0.8588
  517MOL0     H68229   1.822   3.256   4.308  0.3359  0.6112 -0.4152
  517MOL0     H68230   1.505   3.592   5.125 -1.2636  0.4587  0.9460
  517MOL0     H68231   1.261   3.582   5.137  0.2828  0.1592  0.3457
  517MOL0     H68232   0.897   3.248   5.019 -1.8376 -0.2879  1.3125
  517MOL0     H68233   0.681   3.191   4.972  0.1844 -1.1690 -0.4423
  517MOL0     H68234   0.567   3.303   4.685 -0.0688  0.3832  0.6107
  517MOL0     H68235   0.431   3.410   4.684  0.7338  1.4823  1.6148
  517MOL0     H68236   0.345   3.190   4.609 -0.4806 -0.5911  0.9796
  517MOL0     H68237   0.420   3.101   4.736  0.0565 -0.3712 -0.2522
  517MOL0     H68238   0.274   3.205   4.916  0.8902  1.3527  0.2697
  517MOL0     H68239   0.200   3.114   4.786  0.5877 -0.8152  1.5377
  517MOL0     H68240   0.102   3.326   4.703  0.3426  0.3909  0.3199
  517MOL0     H68241   0.077   3.321   4.868 -0.8609 -3.0062 -2.1921
  517MOL0     H68242   0.321   3.667   4.828 -0.3648  0.0309  1.2345
  517MOL0     H68243   0.606   3.577   4.809 -1.0606  0.1702  0.1611
  517MOL0     H68244   0.831   3.628   4.808  0.6672  0.1926  0.1580
  518MOL0     O68245   5.779   5.448   2.785  0.6580 -0.5145  0.5270
  518MOL0     C68246   5.816   5.429   2.903  0.1484 -0.0339  0.2487
  518MOL0     O68247   5.737   5.427   3.016  0.1981 -0.8316  0.5330
  518MOL0     C68248   5.605   5.452   3.011  0.2771 -0.1495 -0.5125
  518MOL0     C68249   5.551   5.441   3.146 -0.5106 -0.4501  0.5378
  518MOL0     C68250   5.414   5.457   3.164 -0.9443 -0.3968 -0.6667
  518MOL0     C68251   5.327   5.474   3.057 -0.3630  0.2230  0.1350
  518MOL0     O68252   5.195   5.478   3.074 -0.4685  0.0698  0.2539
  518MOL0     C68253   5.143   5.558   3.189 -0.5718  0.1407  0.3985
  518MOL0     C68254   5.179   5.708   3.167  0.3236  0.2990 -0.9381
  518MOL0     C68255   5.110   5.786   3.284  0.4981  0.5915  0.8045
  518MOL0     C68256   5.083   5.943   3.254 -0.1215 -0.8782  0.5862
  518MOL0     C68257   5.210   6.030   3.255  0.2772  0.4532 -0.1940
  518MOL0     C68258   5.280   6.026   3.391 -0.3865 -0.0555  0.6135
  518MOL0     C68259   5.425   6.077   3.375  0.2402 -0.7123  0.9665
  518MOL0     C68260   5.523   5.974   3.308  0.3908 -0.2299 -0.3052
  518MOL0     N68261   5.661   6.020   3.303  0.5512  0.5713 -0.4554
  518MOL0     C68262   5.706   6.117   3.220 -0.0164  0.5744  0.4679
  518MOL0     C68263   5.838   6.137   3.254 -0.0457 -0.7369  0.2374
  518MOL0     C68264   5.934   6.240   3.193  0.4062  1.1978 -0.1996
  518MOL0     C68265   6.046   6.274   3.293  0.3254 -0.2000  0.0646
  518MOL0     C68266   6.152   6.374   3.242 -0.1524  0.4434  0.1120
  518MOL0     C68267   6.295   6.340   3.285 -0.1739 -0.3402 -0.2814
  518MOL0     O68268   6.388   6.437   3.233  0.9298 -0.2772 -0.1350
  518MOL0     C68269   6.518   6.423   3.267 -0.4049  0.3058  0.6828
  518MOL0     C68270   6.600   6.443   3.161 -1.1830 -0.9174 -0.3571
  518MOL0     C68271   6.736   6.443   3.187 -0.1199  0.9359  0.4072
  518MOL0     C68272   6.783   6.420   3.319  0.2940  0.8027 -0.8302
  518MOL0     C68273   6.933   6.415   3.344 -0.2591 -0.4554  0.0275
  518MOL0     O68274   6.977   6.379   3.469  0.4906  0.5808 -0.5951
  518MOL0     C68275   7.107   6.330   3.479 -0.4318  0.2650 -0.5493
  518MOL0     C68276   7.132   6.210   3.546  0.0786  0.0737  0.5181
  518MOL0     C68277   7.259   6.167   3.576 -0.4323  0.8676  0.1825
  518MOL0     C68278   7.375   6.227   3.519 -0.4473 -0.7005 -0.3853
  518MOL0     O68279   7.495   6.161   3.529 -0.1079  0.2737 -0.4425
  518MOL0     C68280   7.612   6.239   3.506 -0.6261 -0.2821 -0.0754
  518MOL0     C68281   7.743   6.159   3.536 -0.7759  0.3998  0.9115
  518MOL0     C68282   7.868   6.250   3.540 -0.3149 -0.7027  0.2014
  518MOL0     C68283   7.992   6.176   3.524  0.3317  0.0399 -0.2993
  518MOL0     C68284   8.112   6.269   3.509 -0.7736  0.2107 -0.0933
  518MOL0     C68285   8.218   6.199   3.415  0.8250  0.5267 -0.3776
  518MOL0     C68286   8.343   6.281   3.364  0.8580  0.7992  0.6732
  518MOL0     C68287   8.430   6.348   3.468 -1.0630  0.7823 -0.4947
  518MOL0    Cl68288   8.567   6.419   3.387  0.0179  0.1981  0.2350
  518MOL0     C68289   7.349   6.344   3.448 -0.2136  0.6041 -1.2895
  518MOL0     C68290   7.221   6.400   3.439  0.6378 -0.1593  0.6559
  518MOL0     O68291   7.005   6.429   3.242 -0.0846 -0.1860  0.4262
  518MOL0     C68292   6.697   6.404   3.424 -0.7582 -0.2882  0.1604
  518MOL0     C68293   6.563   6.403   3.398 -0.2862 -0.3544  0.2794
  518MOL0     N68294   5.867   6.039   3.347  0.1445 -0.2009  1.1582
  518MOL0     N68295   5.759   5.973   3.384 -0.2112  0.4016  0.4348
  518MOL0     C68296   5.382   5.483   2.927 -0.3663  0.3506  1.2786
  518MOL0     C68297   5.519   5.474   2.901 -0.3825 -1.0304 -0.2151
  518MOL0     C68298   5.963   5.402   2.906  0.0615  0.4523 -0.1787
  518MOL0     C68299   6.027   5.392   3.031  0.1944 -0.5126  0.3718
  518MOL0     C68300   6.155   5.343   3.045 -0.0625 -1.2243 -0.0369
  518MOL0     C68301   6.232   5.319   2.927 -0.2622  0.1775  0.0025
  518MOL0     O68302   6.361   5.281   2.951  0.0929  0.1703 -1.0072
  518MOL0     C68303   6.465   5.316   2.864  0.4686  0.8942 -0.3715
  518MOL0     C68304   6.606   5.277   2.921 -0.2822 -1.2225  0.5982
  518MOL0     C68305   6.610   5.140   2.989  0.9596 -0.8946 -0.0911
  518MOL0     C68306   6.759   5.107   3.027  0.5408  1.3221  0.4532
  518MOL0     C68307   6.746   4.966   3.080 -0.4832  0.1739  0.2116
  518MOL0     C68308   6.739   4.865   3.149  0.4469 -0.2301  0.3259
  518MOL0     C68309   6.165   5.320   2.796  0.0687 -0.5112  0.0614
  518MOL0     C68310   6.035   5.361   2.794  0.7911 -0.5244 -0.6441
  518MOL0     H68311   5.625   5.433   3.225  1.9573 -0.8826 -1.6794
  518MOL0     H68312   5.372   5.445   3.263 -0.7249 -0.4570 -0.5808
  518MOL0     H68313   5.179   5.505   3.278  0.1929 -0.6917 -0.3792
  518MOL0     H68314   5.035   5.548   3.203 -1.0234  1.6697 -1.5475
  518MOL0     H68315   5.140   5.736   3.068  0.7553 -0.2670 -1.2725
  518MOL0     H68316   5.287   5.723   3.178  0.1223  1.0018  0.2473
  518MOL0     H68317   5.168   5.780   3.376  0.9925  1.6327  0.5724
  518MOL0     H68318   5.010   5.744   3.301  0.9101 -1.5176 -1.3462
  518MOL0     H68319   5.038   5.951   3.154 -2.5864 -0.3846  1.6642
  518MOL0     H68320   5.000   5.973   3.318 -1.1924  0.5888 -1.3804
  518MOL0     H68321   5.181   6.133   3.235 -1.0338  0.2609  0.5964
  518MOL0     H68322   5.281   6.003   3.176  0.4349  1.6805 -0.4822
  518MOL0     H68323   5.292   5.924   3.430  2.0187  1.4564  4.3324
  518MOL0     H68324   5.225   6.092   3.459 -0.6555  0.1463  0.1999
  518MOL0     H68325   5.434   6.172   3.322  0.5205 -1.4412 -0.3324
  518MOL0     H68326   5.473   6.095   3.472  0.1595 -1.7311  1.2085
  518MOL0     H68327   5.486   5.954   3.207  3.0233  1.2281 -1.6657
  518MOL0     H68328   5.527   5.876   3.358  0.0084 -0.2108 -0.2328
  518MOL0     H68329   5.653   6.167   3.140  0.0195  0.1057  0.1471
  518MOL0     H68330   5.873   6.329   3.173 -0.4151  0.8637  0.7226
  518MOL0     H68331   5.977   6.210   3.097 -0.9163 -4.9309  0.7117
  518MOL0     H68332   6.093   6.178   3.316  2.4149  0.1627 -2.2362
  518MOL0     H68333   5.999   6.322   3.379  0.2234 -0.1192 -0.0346
  518MOL0     H68334   6.151   6.386   3.133  2.3334  1.4860  0.1281
  518MOL0     H68335   6.127   6.472   3.285 -0.1291  0.9697 -1.0425
  518MOL0     H68336   6.321   6.242   3.245  0.6862  0.5078 -1.8563
  518MOL0     H68337   6.302   6.338   3.395 -0.8353  0.8490 -0.2009
  518MOL0     H68338   6.560   6.435   3.061 -0.1603 -2.1175 -0.6937
  518MOL0     H68339   6.803   6.456   3.103 -0.4273 -1.2706 -0.2416
  518MOL0     H68340   7.047   6.150   3.579 -1.1117  0.9673 -0.8114
  518MOL0     H68341   7.288   6.081   3.636 -0.5972 -0.9435 -2.1867
  518MOL0     H68342   7.608   6.330   3.566 -0.7012 -0.2076 -0.1960
  518MOL0     H68343   7.624   6.269   3.402 -2.6020 -2.1830 -0.9202
  518MOL0     H68344   7.742   6.080   3.460  1.5973  0.1857  1.0197
  518MOL0     H68345   7.724   6.109   3.631  1.7605  2.7476  2.8256
  518MOL0     H68346   7.866   6.306   3.633 -1.1223 -0.5241  0.0843
  518MOL0     H68347   7.858   6.323   3.459  0.2832 -2.2349 -1.3175
  518MOL0     H68348   8.018   6.103   3.601  0.6479  1.8433  1.3838
  518MOL0     H68349   7.970   6.116   3.435  0.8888 -1.6967  0.6893
  518MOL0     H68350   8.146   6.297   3.609 -3.9235 -2.3015  1.9381
  518MOL0     H68351   8.077   6.355   3.453 -0.0836  1.5497  1.4532
  518MOL0     H68352   8.168   6.163   3.325 -0.2349 -0.5786  0.6169
  518MOL0     H68353   8.254   6.110   3.467 -2.9911 -0.9668 -0.0005
  518MOL0     H68354   8.402   6.218   3.298 -2.1104 -1.7582  0.2048
  518MOL0     H68355   8.297   6.368   3.316 -2.1128 -0.0316  1.7742
  518MOL0     H68356   8.474   6.278   3.539  2.4019  3.9043  0.7946
  518MOL0     H68357   8.375   6.423   3.526 -2.3337 -1.8025  1.8394
  518MOL0     H68358   7.425   6.397   3.392 -1.4844  3.7759 -0.2755
  518MOL0     H68359   7.202   6.497   3.394 -1.8178  0.5232  2.9014
  518MOL0     H68360   6.733   6.376   3.522 -1.9540 -1.8129  0.2000
  518MOL0     H68361   6.502   6.383   3.486  1.0608 -1.5746  0.9941
  518MOL0     H68362   5.314   5.504   2.844  1.0081  0.4332  0.1426
  518MOL0     H68363   5.558   5.501   2.804  3.1866  0.2584  1.4013
  518MOL0     H68364   5.979   5.425   3.122 -1.4546  0.1060 -0.6768
  518MOL0     H68365   6.201   5.346   3.144  1.6582  0.0439 -0.8110
  518MOL0     H68366   6.459   5.424   2.849  0.5242  1.0937  0.9762
  518MOL0     H68367   6.467   5.265   2.767 -1.8299 -0.3737  0.1722
  518MOL0     H68368   6.679   5.278   2.840  0.2173 -3.9099  0.9071
  518MOL0     H68369   6.625   5.357   2.993 -0.7316 -0.7688  0.2216
  518MOL0     H68370   6.574   5.068   2.915  3.2631 -0.5858 -1.6092
  518MOL0     H68371   6.546   5.143   3.078 -1.1053  1.5594 -1.4916
  518MOL0     H68372   6.817   5.123   2.935  1.2628 -1.5194  0.3406
  518MOL0     H68373   6.802   5.171   3.105  1.4777  2.3520 -0.8458
  518MOL0     H68374   6.732   4.792   3.227 -1.0930  0.5915  1.0028
  518MOL0     H68375   6.211   5.297   2.700 -1.1746  0.1504 -0.7249
  518MOL0     H68376   5.999   5.367   2.692 -0.0498  4.9808 -0.3652
  519MOL0     O68377   7.158   9.289   1.546  0.2468  0.9206 -0.2718
  519MOL0     C68378   7.251   9.224   1.598  0.3434 -0.1375 -0.6294
  519MOL0     O68379   7.249   9.166   1.725  0.7585  0.7529 -0.0763
  519MOL0     C68380   7.126   9.142   1.775  0.5973  0.3124 -0.3046
  519MOL0     C68381   7.090   9.191   1.902 -0.1714  0.4620  0.7959
  519MOL0     C68382   6.958   9.171   1.949 -0.1841 -0.2147 -0.7880
  519MOL0     C68383   6.866   9.092   1.882  0.7291 -0.1615 -0.8112
  519MOL0     O68384   6.739   9.095   1.946  0.0143 -0.5958 -0.1215
  519MOL0     C68385   6.626   9.056   1.867  0.0680  1.0300 -0.0883
  519MOL0     C68386   6.574   8.915   1.910 -0.1945  0.1076 -0.0409
  519MOL0     C68387   6.548   8.919   2.053 -0.0042  0.0031  0.0618
  519MOL0     C68388   6.542   8.776   2.096 -0.0388 -0.7977  0.3160
  519MOL0     C68389   6.490   8.778   2.244  0.6777 -0.1965  0.2466
  519MOL0     C68390   6.586   8.794   2.369 -0.4522  0.4574  0.0557
  519MOL0     C68391   6.505   8.819   2.499  0.5223 -0.9852  0.2023
  519MOL0     C68392   6.441   8.689   2.550  0.0242 -0.0148 -0.0992
  519MOL0     N68393   6.366   8.710   2.674  0.5216 -0.2615  0.1319
  519MOL0     C68394   6.234   8.759   2.677 -0.0985  0.5613 -0.2245
  519MOL0     C68395   6.223   8.795   2.812 -0.1743 -0.9403 -0.0585
  519MOL0     C68396   6.086   8.818   2.878 -0.0862  0.0097 -0.2339
  519MOL0     C68397   6.089   8.803   3.029 -0.5263  0.1850 -0.0757
  519MOL0     C68398   5.953   8.791   3.080  0.1244  0.7337  0.8294
  519MOL0     C68399   5.950   8.817   3.232 -0.4827  0.3214  0.1137
  519MOL0     O68400   5.906   8.942   3.273  0.1418 -0.0064 -0.1008
  519MOL0     C68401   5.767   8.960   3.291 -0.4015 -0.2938  0.3250
  519MOL0     C68402   5.712   8.932   3.411  0.8863 -0.2139  0.5536
  519MOL0     C68403   5.576   8.959   3.434  0.2710 -0.1229 -0.0067
  519MOL0     C68404   5.492   9.032   3.347 -0.0373 -0.0131 -0.1205
  519MOL0     C68405   5.355   9.076   3.395 -0.3779  0.1085  0.7078
  519MOL0     O68406   5.304   9.006   3.502  0.1042  0.0606  0.5502
  519MOL0     C68407   5.170   8.982   3.516  0.1231  0.2307  0.5393
  519MOL0     C68408   5.123   8.981   3.647 -0.3044 -0.4743  0.1026
  519MOL0     C68409   4.997   8.965   3.692 -0.2466 -0.3827 -0.2588
  519MOL0     C68410   4.900   8.944   3.589  0.1244 -0.0666  0.1627
  519MOL0     O68411   4.768   8.940   3.609 -0.5514 -0.2382  0.7863
  519MOL0     C68412   4.722   8.924   3.744  0.0520 -0.0728  0.6473
  519MOL0     C68413   4.572   8.904   3.761  0.9259  0.0559 -0.2698
  519MOL0     C68414   4.532   8.773   3.679  0.3216 -0.7606  0.2891
  519MOL0     C68415   4.384   8.734   3.707 -0.0691 -0.6440  0.1122
  519MOL0     C68416   4.330   8.635   3.613 -0.1613 -0.3372 -0.4371
  519MOL0     C68417   4.197   8.584   3.656 -0.1257 -0.2192  0.3434
  519MOL0     C68418   4.139   8.520   3.529 -0.4034 -0.0962  0.3320
  519MOL0     C68419   3.997   8.473   3.578 -0.1503  1.6119  0.0433
  519MOL0    Cl68420   3.869   8.595   3.590 -0.0377  0.1169 -0.5751
  519MOL0     C68421   4.940   8.945   3.455 -0.0693 -0.6651  0.4537
  519MOL0     C68422   5.069   8.966   3.418 -0.4002 -0.3604 -0.1857
  519MOL0     O68423   5.288   9.155   3.325 -0.1017  0.2854  0.4263
  519MOL0     C68424   5.552   9.057   3.228 -0.3068 -0.3811  0.1926
  519MOL0     C68425   5.681   9.013   3.191 -0.3506  0.1137 -0.0313
  519MOL0     N68426   6.337   8.758   2.885  0.4864  0.1603  0.0243
  519MOL0     N68427   6.418   8.704   2.801  1.2809 -0.3187  0.6515
  519MOL0     C68428   6.898   9.030   1.767  0.7384 -0.9644 -0.4023
  519MOL0     C68429   7.025   9.064   1.707 -0.1815  0.2786 -0.0344
  519MOL0     C68430   7.376   9.222   1.524 -0.0174 -0.2852  0.1475
  519MOL0     C68431   7.381   9.268   1.394  0.2183  0.3042 -0.4274
  519MOL0     C68432   7.501   9.268   1.316  0.7826 -0.6849 -0.2226
  519MOL0     C68433   7.619   9.235   1.375  1.1622  0.2875 -0.9234
  519MOL0     O68434   7.731   9.218   1.303  0.2377 -0.0731  1.0653
  519MOL0     C68435   7.852   9.156   1.352 -0.9858  0.1910 -1.2345
  519MOL0     C68436   7.957   9.171   1.251 -1.2257  0.1921  0.3843
  519MOL0     C68437   8.074   9.067   1.273 -0.1204  0.0555 -0.5261
  519MOL0     C68438   8.132   9.060   1.415 -0.0516  0.3445  0.3514
  519MOL0     C68439   8.248   8.970   1.408 -0.1137  0.1355 -0.1259
  519MOL0     C68440   8.344   8.900   1.406  0.1919  0.6671  0.8306
  519MOL0     C68441   7.609   9.186   1.510  0.7139 -0.1456 -0.2967
  519MOL0     C68442   7.494   9.191   1.588  0.6859  0.0762 -0.2866
  519MOL0     H68443   7.163   9.221   1.976 -0.6037 -0.0173  1.4272
  519MOL0     H68444   6.941   9.208   2.050  3.1277  1.4112 -0.6778
  519MOL0     H68445   6.644   9.069   1.759 -1.8838  2.3957 -0.3047
  519MOL0     H68446   6.542   9.122   1.891 -1.8202 -1.9655  2.1778
  519MOL0     H68447   6.643   8.833   1.891  4.1500  3.7036 -1.6986
  519MOL0     H68448   6.483   8.889   1.855 -1.2494  0.7567  1.3475
  519MOL0     H68449   6.448   8.956   2.076  0.1120  0.6052 -0.3754
  519MOL0     H68450   6.631   8.955   2.114 -0.2625  1.2834 -0.3191
  519MOL0     H68451   6.469   8.724   2.034  0.8077  0.5469 -1.9534
  519MOL0     H68452   6.640   8.729   2.084  0.4013  0.1011  0.2558
  519MOL0     H68453   6.453   8.675   2.255  3.3133 -1.3278 -0.5380
  519MOL0     H68454   6.418   8.860   2.242  0.5832 -0.2946 -0.8954
  519MOL0     H68455   6.658   8.875   2.355 -0.0599 -0.0693 -1.0363
  519MOL0     H68456   6.653   8.709   2.381  0.9279  1.0661 -2.7385
  519MOL0     H68457   6.576   8.862   2.570  0.1802  0.6357 -0.3925
  519MOL0     H68458   6.429   8.897   2.491  4.3013  3.2454  1.2650
  519MOL0     H68459   6.523   8.617   2.559 -0.9859 -1.3744 -1.3683
  519MOL0     H68460   6.377   8.652   2.469 -0.6341  0.0763  0.3754
  519MOL0     H68461   6.154   8.767   2.605 -0.7178  1.6197  0.5661
  519MOL0     H68462   6.010   8.752   2.835 -1.0069  0.8599  0.0243
  519MOL0     H68463   6.055   8.921   2.859 -2.6453 -0.7936 -0.8236
  519MOL0     H68464   6.137   8.897   3.058 -2.6162  0.7582  1.9337
  519MOL0     H68465   6.149   8.718   3.063  0.6113  1.5660  1.5028
  519MOL0     H68466   5.887   8.870   3.042  0.2411 -0.0936 -1.2483
  519MOL0     H68467   5.922   8.690   3.050  0.6196  1.1304 -1.2074
  519MOL0     H68468   6.048   8.802   3.278 -0.6891 -0.1080  0.4158
  519MOL0     H68469   5.877   8.741   3.259  1.3629 -2.1236 -1.3976
  519MOL0     H68470   5.769   8.893   3.495  2.4938  0.5197 -0.1637
  519MOL0     H68471   5.543   8.938   3.535  0.3420 -0.6073 -0.0833
  519MOL0     H68472   5.196   9.004   3.724  1.8632  2.0951 -2.4710
  519MOL0     H68473   4.976   8.983   3.797 -2.8961 -1.3761 -0.5198
  519MOL0     H68474   4.755   9.008   3.806 -0.0686 -0.5328  1.3316
  519MOL0     H68475   4.778   8.844   3.792 -0.1007 -2.0519 -2.2276
  519MOL0     H68476   4.517   8.990   3.721  0.5068  0.0571  0.3048
  519MOL0     H68477   4.536   8.895   3.864 -2.5168 -2.3689 -1.4582
  519MOL0     H68478   4.606   8.700   3.713  3.1632  1.1632 -1.3547
  519MOL0     H68479   4.547   8.790   3.572 -0.0364 -1.6700  0.0791
  519MOL0     H68480   4.383   8.694   3.809  1.2847  0.8018  0.7357
  519MOL0     H68481   4.317   8.820   3.697  3.1860  1.8973 -1.6267
  519MOL0     H68482   4.401   8.555   3.589  0.3423  0.9688 -4.0440
  519MOL0     H68483   4.307   8.687   3.519 -1.9457 -1.6058 -0.7592
  519MOL0     H68484   4.131   8.669   3.676  1.6674  1.6938 -1.3697
  519MOL0     H68485   4.210   8.517   3.741  0.0042 -1.2331 -0.4594
  519MOL0     H68486   4.124   8.588   3.445  0.4042  0.5226  0.6747
  519MOL0     H68487   4.206   8.439   3.500 -2.9079 -2.5322  0.9701
  519MOL0     H68488   4.013   8.415   3.669 -0.6791 -0.2188 -0.9753
  519MOL0     H68489   3.964   8.395   3.508 -0.1062  0.0995  1.6259
  519MOL0     H68490   4.869   8.926   3.375  1.4044  2.8731 -1.9721
  519MOL0     H68491   5.095   8.974   3.313  0.2640  1.0638  0.0583
  519MOL0     H68492   5.490   9.114   3.160  1.6913  0.9369 -0.6097
  519MOL0     H68493   5.727   9.040   3.097 -0.0459 -2.9774 -0.8689
  519MOL0     H68494   6.832   8.958   1.721  1.2255 -1.0277 -1.0163
  519MOL0     H68495   7.065   9.029   1.612  0.3216  3.9953 -1.3659
  519MOL0     H68496   7.295   9.299   1.336  0.2585  0.5293 -0.3698
  519MOL0     H68497   7.486   9.305   1.215  0.6899  0.3483  0.1562
  519MOL0     H68498   7.834   9.051   1.374 -0.4864 -0.5885 -4.1081
  519MOL0     H68499   7.884   9.211   1.441 -0.8059  1.7477 -2.2127
  519MOL0     H68500   7.923   9.138   1.152  1.1770 -0.6067 -0.2429
  519MOL0     H68501   7.993   9.273   1.234 -1.4035  0.0393 -1.0366
  519MOL0     H68502   8.152   9.098   1.202 -0.5326  1.0854 -0.5375
  519MOL0     H68503   8.050   8.962   1.250  2.3220  0.1726 -4.6579
  519MOL0     H68504   8.159   9.157   1.458  4.1584 -1.0316  1.2653
  519MOL0     H68505   8.059   9.013   1.482  1.3520 -0.2810  1.4984
  519MOL0     H68506   8.417   8.822   1.414 -0.4344 -0.0226 -0.0243
  519MOL0     H68507   7.702   9.159   1.559  0.3735 -0.6116  0.0939
  519MOL0     H68508   7.485   9.155   1.690  1.5379 -0.4909 -0.3993
  520MOL0     O68509   2.401   2.744   2.763 -0.4532  0.2054  0.4263
  520MOL0     C68510   2.439   2.858   2.792 -0.3181 -0.8394  0.6142
  520MOL0     O68511   2.358   2.959   2.850 -0.7105 -0.0444 -0.0061
  520MOL0     C68512   2.228   2.927   2.888 -0.1156 -0.4258  0.3202
  520MOL0     C68513   2.120   2.978   2.815 -0.3520  0.4631  0.3658
  520MOL0     C68514   1.993   2.950   2.860  1.3028  0.1694  0.5457
  520MOL0     C68515   1.968   2.854   2.956 -0.1520 -0.7430  0.6574
  520MOL0     O68516   1.827   2.838   2.981 -0.4521 -0.3993 -0.1002
  520MOL0     C68517   1.792   2.772   3.104 -1.0062  0.4219 -0.8516
  520MOL0     C68518   1.645   2.814   3.143 -0.8649  1.0981 -0.5312
  520MOL0     C68519   1.549   2.727   3.071  0.0982  0.3273  0.4143
  520MOL0     C68520   1.418   2.707   3.145 -1.3553 -0.3619  0.2883
  520MOL0     C68521   1.344   2.836   3.182 -0.0895 -0.1048 -0.2538
  520MOL0     C68522   1.323   2.916   3.049  0.4189  0.0611 -0.3362
  520MOL0     C68523   1.193   3.010   3.070  0.6833  0.9368 -0.2444
  520MOL0     C68524   1.056   2.936   3.060  0.3814 -0.2246  0.3461
  520MOL0     N68525   0.938   3.007   3.112  0.2251 -0.5764 -0.3928
  520MOL0     C68526   0.927   3.144   3.133 -0.7948  1.1687  0.1414
  520MOL0     C68527   0.795   3.159   3.154  0.6030 -0.0367 -0.0315
  520MOL0     C68528   0.738   3.300   3.173 -0.0288  0.4748 -0.0783
  520MOL0     C68529   0.645   3.332   3.051 -0.3683  0.9795  0.4446
  520MOL0     C68530   0.593   3.479   3.055  0.1919  0.9846  0.2083
  520MOL0     C68531   0.484   3.506   2.956  0.0854 -0.4243  0.2222
  520MOL0     O68532   0.362   3.444   2.990  0.2198  0.8582  0.0147
  520MOL0     C68533   0.248   3.507   2.939  0.2065  0.2003 -0.4779
  520MOL0     C68534   0.131   3.488   3.014 -0.5475 -0.1505 -0.7916
  520MOL0     C68535   0.009   3.537   2.969 -0.0001  0.0234  0.0523
  520MOL0     C68536  -0.004   3.623   2.863 -1.3681 -0.6392 -0.1725
  520MOL0     C68537  -0.140   3.660   2.810  0.9698  0.2484  0.1740
  520MOL0     O68538  -0.253   3.613   2.868  0.0246 -0.1552 -0.5327
  520MOL0     C68539  -0.374   3.642   2.811  0.4576 -0.3408 -0.5685
  520MOL0     C68540  -0.474   3.539   2.793 -0.1359 -0.3699  0.5256
  520MOL0     C68541  -0.598   3.570   2.740 -0.3380  0.1561 -1.1729
  520MOL0     C68542  -0.639   3.700   2.715 -0.0381  0.8913  0.3031
  520MOL0     O68543  -0.769   3.705   2.660 -0.3919  0.0253  0.0446
  520MOL0     C68544  -0.840   3.824   2.693  0.1115  0.0225  0.2440
  520MOL0     C68545  -0.986   3.800   2.694  0.5196 -0.1887  0.7476
  520MOL0     C68546  -1.036   3.707   2.810 -0.4594  0.1061 -0.6909
  520MOL0     C68547  -1.186   3.711   2.837 -0.4076 -0.4150  0.6490
  520MOL0     C68548  -1.269   3.693   2.700  0.9668  0.9785  0.3451
  520MOL0     C68549  -1.421   3.687   2.715 -0.5107  0.1711  0.8701
  520MOL0     C68550  -1.479   3.825   2.759 -0.5797  0.5731 -0.0694
  520MOL0     C68551  -1.620   3.828   2.818 -0.1868 -0.8641  1.0512
  520MOL0    Cl68552  -1.620   3.758   2.990 -0.2372 -0.0911 -0.0045
  520MOL0     C68553  -0.553   3.800   2.754 -0.9181  0.4143 -0.4524
  520MOL0     C68554  -0.417   3.775   2.792  0.6023  0.4359  0.1336
  520MOL0     O68555  -0.134   3.728   2.706  0.8358 -0.1997  0.3350
  520MOL0     C68556   0.122   3.654   2.799  0.2042  0.3708 -0.4761
  520MOL0     C68557   0.242   3.593   2.836 -0.4843 -0.0293  0.4116
  520MOL0     N68558   0.730   3.039   3.152 -0.1466 -1.0088 -0.3901
  520MOL0     N68559   0.818   2.947   3.123  0.8382 -0.1678  0.8783
  520MOL0     C68560   2.076   2.787   3.019  0.1154 -0.6656 -0.1870
  520MOL0     C68561   2.204   2.828   2.989 -0.0151 -0.5696 -0.2943
  520MOL0     C68562   2.580   2.879   2.766 -0.8701 -1.2396 -0.1354
  520MOL0     C68563   2.648   2.985   2.828  0.9227 -0.5838  0.4693
  520MOL0     C68564   2.776   3.023   2.793 -0.7068 -0.3303  0.4301
  520MOL0     C68565   2.855   2.936   2.709  0.9687 -0.1999 -0.1301
  520MOL0     O68566   2.987   2.960   2.694 -0.4077 -0.3109  0.9622
  520MOL0     C68567   3.047   2.884   2.593 -0.5294 -0.8439 -0.0299
  520MOL0     C68568   3.200   2.921   2.574  0.0343  0.3319  0.1539
  520MOL0     C68569   3.273   2.837   2.472 -0.6218 -0.6098 -0.2126
  520MOL0     C68570   3.429   2.844   2.485 -0.0704 -0.3263 -0.8564
  520MOL0     C68571   3.496   2.967   2.443  0.1031  0.4648 -0.3156
  520MOL0     C68572   3.561   3.059   2.406  0.0121  0.3018 -0.9805
  520MOL0     C68573   2.782   2.837   2.645  0.5413  0.4810  0.6494
  520MOL0     C68574   2.649   2.810   2.672 -0.4027  0.9198  1.0819
  520MOL0     H68575   2.136   3.056   2.741  1.5585  1.9168  2.1512
  520MOL0     H68576   1.908   2.994   2.807  0.4609 -0.8441  1.0153
  520MOL0     H68577   1.855   2.797   3.190 -0.3738 -1.3865 -0.7448
  520MOL0     H68578   1.810   2.665   3.089  5.2213  0.5819  2.3589
  520MOL0     H68579   1.620   2.919   3.124 -2.3527  0.7873 -0.4115
  520MOL0     H68580   1.636   2.799   3.251  0.5843  0.9749 -0.4027
  520MOL0     H68581   1.598   2.630   3.060 -0.6573  0.1365 -1.4761
  520MOL0     H68582   1.534   2.765   2.970 -2.1338 -1.0553  0.1678
  520MOL0     H68583   1.350   2.650   3.082 -1.4515 -1.6716  1.5302
  520MOL0     H68584   1.451   2.647   3.230  2.4823  0.6119 -0.3080
  520MOL0     H68585   1.401   2.896   3.254 -0.8605 -0.5710  0.7647
  520MOL0     H68586   1.246   2.819   3.228  0.6075 -0.0937  1.2889
  520MOL0     H68587   1.307   2.852   2.962  1.3055 -0.5096 -0.0873
  520MOL0     H68588   1.413   2.975   3.032 -0.0577  0.7338 -0.5803
  520MOL0     H68589   1.202   3.074   3.158  2.9379  0.9721 -0.4235
  520MOL0     H68590   1.209   3.071   2.980  1.2474  0.3417 -0.5625
  520MOL0     H68591   1.060   2.839   3.110 -1.9232 -1.0341 -0.9074
  520MOL0     H68592   1.028   2.911   2.957  1.2732  0.4294 -0.0725
  520MOL0     H68593   1.001   3.224   3.138  1.6848 -0.9641 -0.7599
  520MOL0     H68594   0.821   3.371   3.176  1.6908 -1.4824  1.0808
  520MOL0     H68595   0.678   3.307   3.265 -0.8923 -0.6392 -0.5332
  520MOL0     H68596   0.563   3.259   3.050  0.3399  0.1732 -0.6300
  520MOL0     H68597   0.709   3.316   2.964  2.0805  1.9886  1.9317
  520MOL0     H68598   0.565   3.512   3.155  1.3174 -0.3234  0.9926
  520MOL0     H68599   0.676   3.544   3.026  0.4933  0.6964  0.4089
  520MOL0     H68600   0.508   3.462   2.859  1.3123 -2.8211  1.5493
  520MOL0     H68601   0.472   3.615   2.950  0.6034 -0.1786  2.6908
  520MOL0     H68602   0.142   3.429   3.104  0.0370  2.5229  1.0028
  520MOL0     H68603  -0.086   3.509   3.012  0.0249  0.2864  0.2768
  520MOL0     H68604  -0.443   3.440   2.826 -2.5290 -0.7360  1.9669
  520MOL0     H68605  -0.666   3.486   2.730 -1.5313  0.6915  1.5458
  520MOL0     H68606  -0.802   3.897   2.621  3.4664 -2.2735 -0.5834
  520MOL0     H68607  -0.812   3.851   2.796 -1.8663  0.4802  0.7121
  520MOL0     H68608  -1.009   3.757   2.596 -0.7022  0.5288  0.7025
  520MOL0     H68609  -1.024   3.902   2.705  2.7590  0.9972 -1.4478
  520MOL0     H68610  -0.980   3.740   2.897  1.0602 -0.7430 -1.3090
  520MOL0     H68611  -1.011   3.605   2.780 -1.0907  0.1132 -1.2696
  520MOL0     H68612  -1.225   3.634   2.903 -0.8707 -4.0677 -3.4707
  520MOL0     H68613  -1.215   3.809   2.877 -1.0636 -0.2380 -0.1999
  520MOL0     H68614  -1.238   3.598   2.657 -1.7964  0.5878 -0.9972
  520MOL0     H68615  -1.262   3.777   2.630  0.7312  1.0652  0.4245
  520MOL0     H68616  -1.449   3.616   2.793 -4.5099 -1.1982 -1.5403
  520MOL0     H68617  -1.471   3.672   2.619  0.9856  1.9911 -0.2662
  520MOL0     H68618  -1.410   3.879   2.823  0.1961  2.4507 -2.3378
  520MOL0     H68619  -1.479   3.890   2.671  3.2925 -0.1906 -0.8321
  520MOL0     H68620  -1.673   3.762   2.749 -0.2324 -2.7437  2.7988
  520MOL0     H68621  -1.671   3.926   2.818  0.2115 -0.6537  1.4238
  520MOL0     H68622  -0.577   3.905   2.742 -2.8550  0.0291 -0.3663
  520MOL0     H68623  -0.350   3.860   2.793  0.7959  0.3314 -1.5490
  520MOL0     H68624   0.123   3.701   2.701  0.5251 -0.6583 -0.9793
  520MOL0     H68625   0.321   3.599   2.762 -0.1243 -2.8573  0.4487
  520MOL0     H68626   2.067   2.716   3.101 -2.4159 -1.6338 -1.1819
  520MOL0     H68627   2.297   2.792   3.033 -0.2064  1.0029  1.4929
  520MOL0     H68628   2.603   3.043   2.908  2.2520 -0.0901  0.8861
  520MOL0     H68629   2.830   3.109   2.832  0.2908 -1.6363  2.0957
  520MOL0     H68630   3.006   2.915   2.497 -2.1787 -0.9865  0.6023
  520MOL0     H68631   3.045   2.775   2.597  4.1231 -1.2282 -2.0298
  520MOL0     H68632   3.204   3.028   2.549 -2.0146  0.1644 -1.1344
  520MOL0     H68633   3.253   2.909   2.669 -2.0592 -2.3184  1.1289
  520MOL0     H68634   3.244   2.867   2.371 -2.5825 -0.9139  0.2274
  520MOL0     H68635   3.249   2.731   2.483  0.5733 -0.7327  1.7284
  520MOL0     H68636   3.459   2.811   2.585 -1.3320  0.6355 -0.1285
  520MOL0     H68637   3.472   2.762   2.428 -0.4671 -1.6822  0.7076
  520MOL0     H68638   3.613   3.144   2.365  0.7544 -0.8049 -2.4462
  520MOL0     H68639   2.822   2.758   2.583  2.2571  2.0963 -0.3957
  520MOL0     H68640   2.601   2.721   2.634 -0.8563  0.0198  3.5561
  521MOL0     O68641  10.084   1.430   1.715 -0.0877  0.4973  0.7919
  521MOL0     C68642  10.083   1.317   1.662  0.5064 -0.6746 -0.6412
  521MOL0     O68643   9.969   1.263   1.605  0.1644  0.4298 -0.0832
  521MOL0     C68644   9.852   1.335   1.609  0.6530  0.9722  0.0205
  521MOL0     C68645   9.729   1.269   1.629  0.8720  0.7571 -0.3400
  521MOL0     C68646   9.614   1.342   1.614  0.4188 -1.5575  0.1442
  521MOL0     C68647   9.615   1.479   1.564  0.1645  0.4989  0.2821
  521MOL0     O68648   9.490   1.534   1.551 -0.6032  0.0983 -0.3636
  521MOL0     C68649   9.477   1.658   1.612 -0.5749  0.0669  0.3079
  521MOL0     C68650   9.331   1.676   1.672  0.1571 -1.2233  0.1562
  521MOL0     C68651   9.279   1.557   1.755  0.0886 -0.7413 -0.7637
  521MOL0     C68652   9.141   1.585   1.826  0.1233  0.5246 -0.3095
  521MOL0     C68653   9.074   1.467   1.892 -0.4670 -0.0364  0.1243
  521MOL0     C68654   8.938   1.502   1.954  0.8578 -0.8314  0.0113
  521MOL0     C68655   8.830   1.551   1.854  0.2025 -0.1771 -0.4647
  521MOL0     C68656   8.699   1.585   1.928 -0.9534  0.5924  0.3955
  521MOL0     N68657   8.609   1.471   1.927  0.3461  0.8511  0.3874
  521MOL0     C68658   8.527   1.440   1.821 -0.3297 -0.8780  0.1568
  521MOL0     C68659   8.453   1.336   1.864  1.2191 -0.0543 -0.2247
  521MOL0     C68660   8.350   1.269   1.784 -0.6157  1.0510  0.4783
  521MOL0     C68661   8.213   1.274   1.860  0.6115  0.4904  0.3299
  521MOL0     C68662   8.095   1.236   1.757  0.5247 -0.0736 -0.0769
  521MOL0     C68663   7.966   1.215   1.840 -0.6413  0.7813 -0.3242
  521MOL0     O68664   7.970   1.079   1.892 -0.0969 -0.7015 -0.2681
  521MOL0     C68665   7.852   1.019   1.938  0.4024 -0.8152 -0.7060
  521MOL0     C68666   7.837   0.882   1.936  0.3002  0.3236  0.1240
  521MOL0     C68667   7.710   0.824   1.962  0.4014  0.4289 -0.2841
  521MOL0     C68668   7.596   0.904   1.988  0.1720  0.2143 -0.0129
  521MOL0     C68669   7.478   0.837   2.052  0.1798  0.4417 -0.3837
  521MOL0     O68670   7.399   0.908   2.138 -0.0347 -0.2642  0.2345
  521MOL0     C68671   7.272   0.869   2.180 -0.1411  0.7438 -0.3752
  521MOL0     C68672   7.231   0.917   2.307  0.2426 -0.2517 -0.6678
  521MOL0     C68673   7.111   0.872   2.364 -0.7758  0.2581  0.8680
  521MOL0     C68674   7.025   0.786   2.291  0.1234 -0.4178 -0.0459
  521MOL0     O68675   6.905   0.741   2.343 -0.3552 -0.1769  0.5006
  521MOL0     C68676   6.877   0.741   2.482  0.9180  0.3082 -0.3649
  521MOL0     C68677   6.789   0.619   2.505  0.2368 -0.9986 -0.4201
  521MOL0     C68678   6.838   0.490   2.444 -0.1189 -0.4601 -0.3931
  521MOL0     C68679   6.736   0.381   2.465  0.0730 -0.5023  0.1514
  521MOL0     C68680   6.790   0.238   2.428  1.2775 -0.4182 -0.3273
  521MOL0     C68681   6.852   0.233   2.286 -0.0776  0.0837  0.7586
  521MOL0     C68682   6.760   0.262   2.163  0.1523 -0.5411  0.5159
  521MOL0     C68683   6.660   0.143   2.137  0.3329  0.7388 -0.1022
  521MOL0    Cl68684   6.726   0.015   2.036 -0.4533  0.0004  0.2537
  521MOL0     C68685   7.064   0.747   2.161 -0.2591  0.0286  1.0280
  521MOL0     C68686   7.186   0.783   2.116 -0.3956 -0.5236  0.7355
  521MOL0     O68687   7.464   0.717   2.044  0.3552  0.5165  0.4237
  521MOL0     C68688   7.612   1.041   1.982  0.0654  0.6147  0.5110
  521MOL0     C68689   7.738   1.091   1.967  0.4327 -1.0423  0.0674
  521MOL0     N68690   8.488   1.308   1.996 -0.6546  0.6440  0.4011
  521MOL0     N68691   8.576   1.393   2.037  0.4282  0.1347  0.3552
  521MOL0     C68692   9.732   1.533   1.522 -0.6594  0.2959 -0.6416
  521MOL0     C68693   9.851   1.460   1.546 -0.0276  0.1161 -0.5862
  521MOL0     C68694  10.208   1.237   1.656 -0.2688 -0.6343 -0.0026
  521MOL0     C68695  10.213   1.129   1.570 -0.2797 -0.6063 -0.2440
  521MOL0     C68696  10.342   1.073   1.533  0.2310  0.4216  0.9683
  521MOL0     C68697  10.460   1.119   1.593 -0.8087 -1.1253  0.4589
  521MOL0     O68698  10.575   1.051   1.568  0.2935  0.2717  0.6905
  521MOL0     C68699  10.700   1.122   1.560 -0.3109  0.0862 -0.4894
  521MOL0     C68700  10.717   1.233   1.457 -0.5342  0.0655  0.9147
  521MOL0     C68701  10.762   1.372   1.504 -0.2360 -0.4259  0.4115
  521MOL0     C68702  10.748   1.466   1.385  0.0329  0.1525 -0.1963
  521MOL0     C68703  10.879   1.466   1.319 -0.2077 -0.3144  0.5409
  521MOL0     C68704  10.994   1.459   1.271  1.2404  0.2651  1.0265
  521MOL0     C68705  10.454   1.238   1.680 -0.3269 -0.0022 -0.0677
  521MOL0     C68706  10.325   1.285   1.710 -0.2627  0.3180  0.4779
  521MOL0     H68707   9.722   1.169   1.672  0.5831  1.0520  0.2920
  521MOL0     H68708   9.520   1.290   1.632  0.6074 -1.1039  2.9357
  521MOL0     H68709   9.492   1.740   1.542 -0.4143 -0.8914 -0.8291
  521MOL0     H68710   9.543   1.664   1.699 -1.9109  1.5056  1.2826
  521MOL0     H68711   9.260   1.685   1.589 -2.0503 -2.3540  1.8106
  521MOL0     H68712   9.329   1.769   1.730 -0.7000 -0.9671 -0.2682
  521MOL0     H68713   9.351   1.537   1.835 -0.9604  1.2114  0.7574
  521MOL0     H68714   9.270   1.463   1.700  1.0266 -1.5243  0.3814
  521MOL0     H68715   9.146   1.665   1.901 -1.3619 -1.5767  2.2418
  521MOL0     H68716   9.072   1.621   1.749 -0.9312 -2.1190 -0.7011
  521MOL0     H68717   9.144   1.446   1.973  1.7089  2.1047 -1.0828
  521MOL0     H68718   9.077   1.381   1.824  1.6126  1.3879 -1.7491
  521MOL0     H68719   8.963   1.572   2.034 -0.0446 -1.8745  1.2612
  521MOL0     H68720   8.901   1.408   1.998 -0.2398  0.5897  2.2916
  521MOL0     H68721   8.870   1.637   1.800  2.7702 -1.1469 -0.2224
  521MOL0     H68722   8.826   1.469   1.782  2.2362 -0.4445 -0.3284
  521MOL0     H68723   8.659   1.679   1.888 -0.0061 -0.3138 -3.0633
  521MOL0     H68724   8.711   1.589   2.037 -2.4996 -2.1732  0.7533
  521MOL0     H68725   8.520   1.486   1.723 -2.5724 -0.8110  0.2823
  521MOL0     H68726   8.360   1.162   1.764 -0.9981  1.0875  0.0760
  521MOL0     H68727   8.334   1.318   1.687  1.4564 -1.5179 -1.2916
  521MOL0     H68728   8.195   1.372   1.904 -1.7785 -0.2755  1.2604
  521MOL0     H68729   8.210   1.198   1.939 -0.9570 -0.9568 -1.0237
  521MOL0     H68730   8.065   1.319   1.692 -0.5943 -1.3007 -1.1980
  521MOL0     H68731   8.122   1.144   1.704 -2.9919 -2.7801  2.3870
  521MOL0     H68732   7.879   1.228   1.775 -1.3335  0.9233  0.6093
  521MOL0     H68733   7.953   1.284   1.924  0.1640  0.1779  0.3188
  521MOL0     H68734   7.919   0.817   1.911 -0.0698 -0.8439  1.7636
  521MOL0     H68735   7.706   0.716   1.973 -1.5721  0.6800  2.6515
  521MOL0     H68736   7.292   0.992   2.356  0.0943 -2.2364  2.9693
  521MOL0     H68737   7.096   0.908   2.465  0.7660  1.5395  0.6729
  521MOL0     H68738   6.822   0.832   2.508 -1.1882 -0.9733 -0.0776
  521MOL0     H68739   6.964   0.731   2.547  0.7154 -2.3990 -0.4246
  521MOL0     H68740   6.695   0.640   2.453 -0.1059  0.1937  0.6334
  521MOL0     H68741   6.765   0.606   2.611  0.6577 -1.3718 -0.3645
  521MOL0     H68742   6.928   0.445   2.486 -1.1207 -1.7742  0.4065
  521MOL0     H68743   6.846   0.508   2.336  1.7938 -1.4620 -0.4625
  521MOL0     H68744   6.696   0.373   2.566  1.4266 -0.2028  0.7445
  521MOL0     H68745   6.648   0.409   2.407  0.3021  0.2592  0.1481
  521MOL0     H68746   6.703   0.173   2.442  0.9561 -0.2409 -1.4533
  521MOL0     H68747   6.860   0.204   2.505  1.2125  2.6868  1.2598
  521MOL0     H68748   6.895   0.134   2.265  1.6058  0.8776  0.2961
  521MOL0     H68749   6.927   0.312   2.283  1.7457 -1.6002 -1.8078
  521MOL0     H68750   6.702   0.354   2.176 -1.0386 -1.0306 -0.9762
  521MOL0     H68751   6.825   0.275   2.076  0.1497 -1.8544  0.2970
  521MOL0     H68752   6.570   0.188   2.094  1.3678  0.1498 -3.0594
  521MOL0     H68753   6.634   0.102   2.235  1.6359  1.6411  0.6597
  521MOL0     H68754   7.003   0.685   2.097  1.3956 -1.5954  0.9581
  521MOL0     H68755   7.218   0.756   2.016 -1.0463 -0.2043  0.4382
  521MOL0     H68756   7.533   1.113   2.003 -0.1066  0.7653 -0.6106
  521MOL0     H68757   7.738   1.199   1.973  0.0174 -1.1142  1.7191
  521MOL0     H68758   9.723   1.626   1.467  2.9791  0.8005 -0.6578
  521MOL0     H68759   9.941   1.501   1.502  2.0981 -0.4915  2.8131
  521MOL0     H68760  10.128   1.093   1.512  0.3297  0.9548 -2.2129
  521MOL0     H68761  10.359   0.999   1.456  2.4453  2.4606 -0.6562
  521MOL0     H68762  10.774   1.042   1.550 -0.7003 -0.2682 -0.5628
  521MOL0     H68763  10.713   1.154   1.664 -1.9675  0.9770 -0.5231
  521MOL0     H68764  10.804   1.206   1.396  1.4076 -0.1798  3.6229
  521MOL0     H68765  10.632   1.218   1.390 -2.8672 -2.7693  4.1637
  521MOL0     H68766  10.866   1.372   1.537 -0.3813 -1.3983  0.9142
  521MOL0     H68767  10.694   1.398   1.586  1.1923 -0.2532  1.5846
  521MOL0     H68768  10.670   1.424   1.320 -0.8680 -1.7342  1.9733
  521MOL0     H68769  10.718   1.561   1.430  1.2940 -1.0906  3.6197
  521MOL0     H68770  11.089   1.470   1.224  1.2032  0.0077  0.8868
  521MOL0     H68771  10.530   1.291   1.735  1.5209 -0.3915 -2.0929
  521MOL0     H68772  10.317   1.370   1.777 -0.0234 -1.8993  3.5623
  522MOL0     O68773   8.842  10.123   1.184  0.3919 -0.3099  0.5805
  522MOL0     C68774   8.851  10.243   1.154 -0.8438  0.5390 -0.3330
  522MOL0     O68775   8.751  10.333   1.148  0.2290 -0.5910 -0.3110
  522MOL0     C68776   8.629  10.287   1.174 -0.3165  0.7185  0.5925
  522MOL0     C68777   8.585  10.242   1.302  0.0545  0.2622 -0.2320
  522MOL0     C68778   8.450  10.194   1.325 -0.5159 -0.3013  0.4269
  522MOL0     C68779   8.361  10.196   1.214 -0.8331 -1.4317  0.1360
  522MOL0     O68780   8.239  10.132   1.235 -0.0087  0.1833  0.8171
  522MOL0     C68781   8.124  10.166   1.148 -0.0826 -0.1963  0.1260
  522MOL0     C68782   8.002  10.101   1.205 -1.1259 -1.3537  0.0113
  522MOL0     C68783   7.876  10.190   1.215 -0.2301 -0.2144 -0.2056
  522MOL0     C68784   7.757  10.119   1.284 -0.9292  0.8035 -0.0423
  522MOL0     C68785   7.632  10.195   1.233  0.1807 -0.4262 -0.2470
  522MOL0     C68786   7.506  10.125   1.299 -0.7007 -0.1023 -0.0015
  522MOL0     C68787   7.369  10.168   1.240 -0.9379 -0.0397 -0.6490
  522MOL0     C68788   7.326  10.295   1.302 -0.4256 -0.0301 -0.8012
  522MOL0     N68789   7.197  10.344   1.251 -0.0726 -0.0105 -0.5054
  522MOL0     C68790   7.171  10.428   1.141  0.0922  0.2787 -0.2639
  522MOL0     C68791   7.036  10.421   1.132  0.6472  0.1673 -0.1633
  522MOL0     C68792   6.938  10.482   1.029  0.5446  0.5833 -0.1109
  522MOL0     C68793   6.830  10.562   1.099  0.3859  0.3172 -0.2497
  522MOL0     C68794   6.755  10.657   1.002 -0.2665  0.1807  0.6192
  522MOL0     C68795   6.611  10.669   1.039 -0.5884 -0.1845 -0.3090
  522MOL0     O68796   6.598  10.769   1.149 -0.8619 -0.1610 -0.1337
  522MOL0     C68797   6.486  10.774   1.225 -0.5205  0.3857 -0.5290
  522MOL0     C68798   6.368  10.706   1.192 -0.2513 -0.7475 -0.1486
  522MOL0     C68799   6.252  10.758   1.250 -0.0335 -0.2670  0.6776
  522MOL0     C68800   6.246  10.832   1.364 -0.0380 -0.2454 -0.4407
  522MOL0     C68801   6.118  10.866   1.434  0.7046  0.2974 -0.3395
  522MOL0     O68802   6.005  10.806   1.393 -0.6286 -0.1897  0.5183
  522MOL0     C68803   5.882  10.868   1.411  0.4790  0.9788 -0.7535
  522MOL0     C68804   5.865  11.003   1.399  0.1208 -0.6811  0.2557
  522MOL0     C68805   5.749  11.067   1.441 -0.0415 -0.5274 -0.6023
  522MOL0     C68806   5.640  10.987   1.483  0.3089  1.0124 -0.5808
  522MOL0     O68807   5.516  11.032   1.509  0.1129 -0.8448 -0.6426
  522MOL0     C68808   5.500  11.177   1.515 -1.0494 -0.0446 -0.1233
  522MOL0     C68809   5.348  11.193   1.524 -0.9571 -0.2110  0.7099
  522MOL0     C68810   5.269  11.174   1.386  0.3584  0.3764 -1.2076
  522MOL0     C68811   5.118  11.199   1.414  0.3611  0.0547  0.7506
  522MOL0     C68812   5.058  11.180   1.273  0.3820 -0.4449  0.1135
  522MOL0     C68813   4.906  11.196   1.286 -1.1695  1.2854  0.2097
  522MOL0     C68814   4.872  11.349   1.284 -1.8202  0.7635 -0.0626
  522MOL0     C68815   4.720  11.367   1.271  0.4134 -0.4172 -0.0846
  522MOL0    Cl68816   4.670  11.538   1.247 -0.3289  0.0780  0.3082
  522MOL0     C68817   5.654  10.844   1.470 -0.9547  0.3676  0.4695
  522MOL0     C68818   5.774  10.787   1.438 -0.6756 -0.3723 -0.1047
  522MOL0     O68819   6.124  10.936   1.537 -0.2229 -0.2045  0.0892
  522MOL0     C68820   6.369  10.889   1.409  0.2252 -0.0792  0.0411
  522MOL0     C68821   6.483  10.868   1.334 -0.2997 -0.1472 -0.0999
  522MOL0     N68822   6.985  10.357   1.242 -0.4898  0.6762  0.0268
  522MOL0     N68823   7.082  10.303   1.313 -0.0725 -0.1744  0.1243
  522MOL0     C68824   8.405  10.249   1.089  0.2120 -0.5991  0.4616
  522MOL0     C68825   8.542  10.290   1.068  0.2133  0.1888 -0.1135
  522MOL0     C68826   8.987  10.305   1.158  0.3588 -0.8498  0.3487
  522MOL0     C68827   9.014  10.444   1.123  0.3449  0.1252 -0.1692
  522MOL0     C68828   9.143  10.492   1.140 -0.3563  1.1048  0.0555
  522MOL0     C68829   9.252  10.412   1.169  0.1253  0.0720 -0.3642
  522MOL0     O68830   9.371  10.482   1.166 -0.0189 -0.0460 -0.2608
  522MOL0     C68831   9.486  10.401   1.154 -0.4351  0.7167 -0.1425
  522MOL0     C68832   9.604  10.492   1.127  0.0090  0.1514  0.0805
  522MOL0     C68833   9.642  10.595   1.235  0.9395 -0.4345 -0.5488
  522MOL0     C68834   9.784  10.651   1.219  0.2840  0.6630  0.0626
  522MOL0     C68835   9.826  10.756   1.307 -0.1827 -0.8113  0.0919
  522MOL0     C68836   9.863  10.858   1.363 -0.2248  0.2604 -0.5290
  522MOL0     C68837   9.229  10.273   1.184  0.3661 -0.5596  0.0285
  522MOL0     C68838   9.098  10.220   1.172  0.0215 -0.7792  0.3115
  522MOL0     H68839   8.665  10.229   1.375  1.0865 -2.2176 -1.6843
  522MOL0     H68840   8.434  10.149   1.423 -0.7230 -0.3112  0.3871
  522MOL0     H68841   8.136  10.125   1.047  1.3320  3.3790 -1.2968
  522MOL0     H68842   8.111  10.274   1.145  0.8448 -0.0780  0.0147
  522MOL0     H68843   8.025  10.068   1.307  1.5531  1.6940  0.5694
  522MOL0     H68844   7.979  10.020   1.135  0.6445  0.9788 -3.5860
  522MOL0     H68845   7.854  10.219   1.112 -0.0529 -0.0875 -0.2083
  522MOL0     H68846   7.888  10.291   1.257  1.6735 -0.2087 -0.6775
  522MOL0     H68847   7.761  10.011   1.265  0.6746  0.0316  3.7634
  522MOL0     H68848   7.776  10.126   1.391  4.8036 -2.5125 -0.4249
  522MOL0     H68849   7.626  10.192   1.124 -1.9409 -0.8975 -0.1509
  522MOL0     H68850   7.626  10.295   1.275 -0.8816 -1.0825  1.2511
  522MOL0     H68851   7.498  10.140   1.407 -0.9590 -0.5676  0.0468
  522MOL0     H68852   7.519  10.017   1.281  1.2335 -0.1802  1.5264
  522MOL0     H68853   7.377  10.181   1.132  3.6738  1.1274 -0.3990
  522MOL0     H68854   7.297  10.087   1.257  0.5325 -1.1178  0.8335
  522MOL0     H68855   7.401  10.374   1.291 -2.7790  2.1973 -1.6128
  522MOL0     H68856   7.304  10.288   1.409 -3.4327  1.2702 -1.2589
  522MOL0     H68857   7.237  10.480   1.072  0.2413 -1.2129 -1.3072
  522MOL0     H68858   6.888  10.399   0.978  0.5488  0.0568  0.7270
  522MOL0     H68859   6.989  10.536   0.949 -0.2261 -3.0320 -3.3330
  522MOL0     H68860   6.866  10.629   1.178  0.5246 -2.1753  1.9446
  522MOL0     H68861   6.762  10.495   1.151 -1.1126  0.0073 -2.4757
  522MOL0     H68862   6.797  10.757   0.993  0.7527 -0.2518  0.4213
  522MOL0     H68863   6.770  10.620   0.900 -2.9911  0.1359  0.1562
  522MOL0     H68864   6.573  10.570   1.063  2.1093 -1.1009  0.5134
  522MOL0     H68865   6.554  10.719   0.960 -0.7236  2.0379  1.1045
  522MOL0     H68866   6.358  10.636   1.109 -2.2959  1.0202 -1.4869
  522MOL0     H68867   6.161  10.732   1.197 -1.7285  3.3402  1.4839
  522MOL0     H68868   5.950  11.065   1.372 -0.2842  0.2155  0.9826
  522MOL0     H68869   5.742  11.175   1.448  1.1282 -0.4986  0.4215
  522MOL0     H68870   5.532  11.228   1.424 -0.1575  0.9739  0.7405
  522MOL0     H68871   5.550  11.223   1.601 -1.8164  0.6664 -0.0572
  522MOL0     H68872   5.335  11.296   1.559 -0.7443 -0.3807  1.2900
  522MOL0     H68873   5.306  11.125   1.598 -0.3814 -1.6046 -0.2208
  522MOL0     H68874   5.272  11.071   1.348 -1.1454  0.5595 -1.8812
  522MOL0     H68875   5.302  11.245   1.310 -1.1010  1.3193 -0.9945
  522MOL0     H68876   5.077  11.131   1.489 -0.0377 -1.1684 -0.5278
  522MOL0     H68877   5.092  11.302   1.441  0.7493  0.4128 -0.2110
  522MOL0     H68878   5.077  11.077   1.239 -2.4017 -0.8192 -0.5338
  522MOL0     H68879   5.107  11.254   1.210  2.2630  0.0492  2.0287
  522MOL0     H68880   4.860  11.147   1.372  1.0365  2.4156  2.1610
  522MOL0     H68881   4.856  11.144   1.204 -3.8502  2.6331  0.8570
  522MOL0     H68882   4.897  11.400   1.378 -1.7101  0.2790  0.1796
  522MOL0     H68883   4.935  11.391   1.205 -1.4751 -1.5997 -1.1293
  522MOL0     H68884   4.666  11.319   1.354  1.1710 -2.1810 -0.5766
  522MOL0     H68885   4.671  11.320   1.186 -3.4742 -1.2894  2.3508
  522MOL0     H68886   5.571  10.777   1.486 -0.4175 -0.5938 -0.6262
  522MOL0     H68887   5.785  10.679   1.443  0.4543 -0.4404 -2.6412
  522MOL0     H68888   6.364  10.961   1.490  0.6863  0.2096 -0.1800
  522MOL0     H68889   6.580  10.911   1.357  1.4420 -3.1711 -1.2447
  522MOL0     H68890   8.336  10.238   1.005  0.2374  1.4874  0.1126
  522MOL0     H68891   8.577  10.316   0.969  2.6763 -3.3108 -0.3234
  522MOL0     H68892   8.924  10.504   1.121  0.4924  0.4072  0.9018
  522MOL0     H68893   9.161  10.589   1.094  1.4452  0.0196 -1.7264
  522MOL0     H68894   9.484  10.333   1.068 -2.7975 -0.4972  0.7837
  522MOL0     H68895   9.504  10.338   1.241 -2.6514  0.4821  0.1987
  522MOL0     H68896   9.693  10.430   1.134  1.2244  1.0585 -4.2688
  522MOL0     H68897   9.588  10.549   1.035 -0.6785  1.1296  0.7869
  522MOL0     H68898   9.610  10.578   1.339  1.0204  0.1326 -0.4246
  522MOL0     H68899   9.583  10.686   1.223  0.0026 -0.7846  1.0629
  522MOL0     H68900   9.847  10.562   1.230 -0.6324  0.0639  0.6148
  522MOL0     H68901   9.794  10.696   1.120  0.4110  1.8358  0.5877
  522MOL0     H68902   9.879  10.953   1.410 -0.3063  0.9901 -1.9347
  522MOL0     H68903   9.308  10.203   1.208 -0.2101 -0.1023  3.7805
  522MOL0     H68904   9.084  10.115   1.194 -0.4055 -0.7557  0.1644
  523MOL0     O68905  11.109   8.517   5.953  0.6432 -0.1713 -0.5911
  523MOL0     C68906  11.127   8.638   5.958  1.3289 -0.9586 -0.9978
  523MOL0     O68907  11.040   8.740   5.988  0.0888  0.2265  0.5103
  523MOL0     C68908  10.916   8.721   6.041 -0.1450 -0.1161  0.8160
  523MOL0     C68909  10.822   8.825   6.046  0.8321 -0.2936 -0.5350
  523MOL0     C68910  10.690   8.800   6.076  0.4369 -0.3769  0.4850
  523MOL0     C68911  10.646   8.682   6.133 -0.1031  0.0916 -0.0550
  523MOL0     O68912  10.513   8.670   6.173 -0.1850  0.0049 -0.3518
  523MOL0     C68913  10.483   8.629   6.307 -0.5764  0.5085 -0.2416
  523MOL0     C68914  10.335   8.585   6.322 -0.1725  0.5964  0.1719
  523MOL0     C68915  10.297   8.538   6.460  0.3523  0.0466  0.4117
  523MOL0     C68916  10.157   8.471   6.473  0.0396 -0.1709  0.4165
  523MOL0     C68917  10.085   8.476   6.611 -0.8594 -0.5509 -0.1696
  523MOL0     C68918  10.147   8.370   6.703 -0.6121  0.2609 -0.2559
  523MOL0     C68919  10.293   8.379   6.748 -1.1119 -0.7212  0.3520
  523MOL0     C68920  10.314   8.287   6.864 -0.4835  0.6024 -1.0950
  523MOL0     N68921  10.457   8.294   6.910 -0.4175 -0.0375 -0.1194
  523MOL0     C68922  10.532   8.399   6.949 -0.3923  0.3362  0.1682
  523MOL0     C68923  10.654   8.349   6.987  0.1045 -0.3763  0.6907
  523MOL0     C68924  10.772   8.436   7.013 -0.5868  0.2062 -1.1116
  523MOL0     C68925  10.856   8.403   7.139  0.3860 -0.7487  0.1140
  523MOL0     C68926  10.784   8.437   7.269 -0.1229  0.1794  0.9548
  523MOL0     C68927  10.766   8.593   7.300 -0.6909  0.3356  0.8009
  523MOL0     O68928  10.673   8.612   7.404  0.9957  0.3586 -0.9811
  523MOL0     C68929  10.540   8.593   7.386  0.3939 -0.1611  0.1817
  523MOL0     C68930  10.487   8.547   7.265 -0.1099 -0.1106  0.3656
  523MOL0     C68931  10.348   8.516   7.247  0.5301  0.4354  0.0021
  523MOL0     C68932  10.261   8.507   7.359 -0.0988  0.1385  0.1333
  523MOL0     C68933  10.117   8.466   7.326  0.8293 -0.0254  0.5166
  523MOL0     O68934  10.015   8.482   7.415 -0.1872 -0.0931  0.0990
  523MOL0     C68935   9.888   8.427   7.370 -0.9072 -0.1947 -0.2001
  523MOL0     C68936   9.850   8.296   7.352  1.0916  0.3696 -0.4295
  523MOL0     C68937   9.712   8.264   7.335 -0.8754  0.2127  0.3295
  523MOL0     C68938   9.619   8.367   7.322  0.2202 -0.5673  0.3345
  523MOL0     O68939   9.491   8.343   7.316 -1.1722 -0.5871 -0.4029
  523MOL0     C68940   9.445   8.241   7.231  0.3915  0.0690 -0.5727
  523MOL0     C68941   9.290   8.240   7.217  0.1166  0.2765 -0.2829
  523MOL0     C68942   9.232   8.367   7.145 -0.3247  0.7781 -0.3735
  523MOL0     C68943   9.080   8.395   7.176 -0.0252 -0.7235  1.0566
  523MOL0     C68944   8.980   8.282   7.129  0.7955  0.0366 -0.3114
  523MOL0     C68945   8.970   8.270   6.977  0.2300 -0.8711  0.3221
  523MOL0     C68946   8.903   8.134   6.941  0.2535  0.7218 -0.0251
  523MOL0     C68947   8.995   8.016   6.957  0.8325 -0.5065 -0.0511
  523MOL0    Cl68948   9.160   8.023   6.881  0.3153  0.4829 -0.2879
  523MOL0     C68949   9.658   8.498   7.341 -0.3090  0.1209  0.0022
  523MOL0     C68950   9.797   8.531   7.365  0.1275 -0.2010 -0.3421
  523MOL0     O68951  10.113   8.408   7.218  0.1921  0.0328 -0.1590
  523MOL0     C68952  10.312   8.556   7.481 -0.0338  0.4038 -0.2037
  523MOL0     C68953  10.452   8.599   7.494 -0.0867 -0.9757  0.2077
  523MOL0     N68954  10.653   8.213   6.962  0.0998  0.0986 -0.3519
  523MOL0     N68955  10.530   8.180   6.925  0.7546  0.4734  0.2514
  523MOL0     C68956  10.732   8.583   6.149  0.0192  0.1309 -0.0921
  523MOL0     C68957  10.863   8.598   6.094 -0.2301 -0.4482 -0.1371
  523MOL0     C68958  11.262   8.680   5.922  0.1502  0.1653  0.2388
  523MOL0     C68959  11.358   8.596   5.861  0.5559  0.2807 -0.3783
  523MOL0     C68960  11.479   8.650   5.818  0.4765  0.3918 -0.1510
  523MOL0     C68961  11.512   8.785   5.838  0.3814  0.0614 -0.0426
  523MOL0     O68962  11.636   8.826   5.787  0.2338 -0.6933  0.2844
  523MOL0     C68963  11.668   8.967   5.795  0.8814 -0.3126 -0.0169
  523MOL0     C68964  11.723   9.013   5.931 -0.7688 -0.3349 -0.0364
  523MOL0     C68965  11.777   9.165   5.941  0.0616 -0.3599  1.5613
  523MOL0     C68966  11.814   9.190   6.088  0.5059  0.6790 -0.1056
  523MOL0     C68967  11.876   9.319   6.088 -0.1863 -1.1303  0.5242
  523MOL0     C68968  11.932   9.428   6.102 -0.4421 -0.2688  0.4880
  523MOL0     C68969  11.417   8.865   5.899  0.0379  0.0048 -0.1709
  523MOL0     C68970  11.295   8.813   5.936  0.1998  0.9204  0.0916
  523MOL0     H68971  10.858   8.927   6.037  1.5814 -0.5527 -0.4866
  523MOL0     H68972  10.617   8.881   6.077  1.3030  0.6780 -3.5326
  523MOL0     H68973  10.506   8.716   6.369 -0.0072 -0.8440  1.5696
  523MOL0     H68974  10.546   8.544   6.336 -2.1190 -0.9532 -1.0231
  523MOL0     H68975  10.319   8.513   6.241  2.3398  0.3462 -0.1698
  523MOL0     H68976  10.273   8.672   6.297  1.1480  0.6315 -3.4522
  523MOL0     H68977  10.318   8.618   6.532 -2.4153  0.8873  0.4045
  523MOL0     H68978  10.362   8.453   6.480  2.2489  1.8490  2.5073
  523MOL0     H68979  10.088   8.516   6.401 -2.9044 -0.9644  2.5471
  523MOL0     H68980  10.173   8.368   6.443 -2.6579 -1.1619  2.0394
  523MOL0     H68981   9.977   8.465   6.599 -1.1310  0.4958  1.1286
  523MOL0     H68982  10.099   8.573   6.660 -4.4611 -1.1104  2.2991
  523MOL0     H68983  10.123   8.276   6.654 -0.2251 -0.7297  1.3663
  523MOL0     H68984  10.089   8.365   6.796  2.2214  0.2377  1.6593
  523MOL0     H68985  10.371   8.359   6.674 -1.5848  2.5780 -1.2123
  523MOL0     H68986  10.317   8.480   6.782  0.1521 -0.5023 -1.0753
  523MOL0     H68987  10.291   8.183   6.838  1.9437 -0.7750  1.7157
  523MOL0     H68988  10.247   8.331   6.938  0.0559  0.1710 -0.3379
  523MOL0     H68989  10.503   8.503   6.949  1.6631  0.9524 -0.7471
  523MOL0     H68990  10.733   8.538   7.014  1.1656  0.9086 -0.3744
  523MOL0     H68991  10.834   8.430   6.923  0.2322 -1.1492 -0.4912
  523MOL0     H68992  10.948   8.461   7.132  0.5570 -1.1370 -1.1630
  523MOL0     H68993  10.898   8.302   7.134  2.0942 -0.0807  0.3508
  523MOL0     H68994  10.684   8.393   7.274 -0.5485  0.7872 -1.2371
  523MOL0     H68995  10.846   8.397   7.350 -0.0494 -1.0905  0.2993
  523MOL0     H68996  10.739   8.642   7.206  0.4884  0.0284  0.2872
  523MOL0     H68997  10.857   8.627   7.351 -0.7791 -2.5824  3.1442
  523MOL0     H68998  10.541   8.546   7.170 -1.6432  0.7642 -0.5615
  523MOL0     H68999  10.322   8.499   7.143 -1.8713  0.0023  0.6101
  523MOL0     H69000   9.923   8.217   7.360  0.6668  0.0967  1.2336
  523MOL0     H69001   9.695   8.157   7.331  0.0174  0.0797  0.1213
  523MOL0     H69002   9.476   8.141   7.265  3.2770  1.6370  1.8950
  523MOL0     H69003   9.485   8.258   7.130  0.5878 -0.4287 -0.5863
  523MOL0     H69004   9.252   8.230   7.319  1.1273  0.3574  0.1217
  523MOL0     H69005   9.271   8.151   7.157 -0.2007 -0.7355  1.2727
  523MOL0     H69006   9.249   8.357   7.038 -3.4665 -0.6253 -0.8615
  523MOL0     H69007   9.283   8.457   7.181  2.4190  1.2282 -4.6367
  523MOL0     H69008   9.076   8.409   7.285  3.3785  1.1284  1.1188
  523MOL0     H69009   9.062   8.486   7.118  1.5730 -1.0945 -0.0869
  523MOL0     H69010   8.883   8.299   7.177  1.3893  0.9865  0.6083
  523MOL0     H69011   9.020   8.190   7.173  2.9785  0.6712 -0.8114
  523MOL0     H69012   9.066   8.269   6.924  0.4637 -0.9835  0.7442
  523MOL0     H69013   8.904   8.346   6.934  0.2710  0.9953  3.2629
  523MOL0     H69014   8.816   8.123   7.007  3.0584  1.6369  4.2659
  523MOL0     H69015   8.868   8.147   6.838  0.2215  2.2645  0.1520
  523MOL0     H69016   8.936   7.931   6.924  2.3567 -1.5912 -0.1136
  523MOL0     H69017   8.999   7.992   7.063 -1.0128 -3.7740 -0.6168
  523MOL0     H69018   9.592   8.585   7.341 -0.4200  0.1037  2.1822
  523MOL0     H69019   9.836   8.630   7.390  1.4261 -0.6110 -0.6676
  523MOL0     H69020  10.239   8.572   7.560  2.2585  0.4339  2.0452
  523MOL0     H69021  10.491   8.639   7.587 -0.6125  2.0921 -0.7961
  523MOL0     H69022  10.708   8.490   6.201  0.4407 -0.6935 -1.3356
  523MOL0     H69023  10.927   8.510   6.101  1.2355  0.4929 -1.1231
  523MOL0     H69024  11.336   8.492   5.843 -2.1517  0.5161  1.0975
  523MOL0     H69025  11.559   8.591   5.774 -0.8089 -3.8423  2.6217
  523MOL0     H69026  11.579   9.027   5.771  0.8301 -1.4370 -3.1714
  523MOL0     H69027  11.741   8.984   5.716  0.6161 -0.9965 -0.4153
  523MOL0     H69028  11.654   8.988   6.012 -0.2659  1.2143  0.9141
  523MOL0     H69029  11.819   8.965   5.950  1.9739  4.5191  0.1471
  523MOL0     H69030  11.699   9.230   5.901 -0.8382 -1.4415  1.4992
  523MOL0     H69031  11.855   9.179   5.866 -1.5054  0.1886 -0.0533
  523MOL0     H69032  11.722   9.211   6.144 -1.4023  0.8701 -3.0657
  523MOL0     H69033  11.863   9.101   6.126 -1.9965 -1.1888 -0.9819
  523MOL0     H69034  11.973   9.526   6.111 -0.7462 -0.0760 -0.1369
  523MOL0     H69035  11.440   8.968   5.924  0.3128 -0.4863  1.6965
  523MOL0     H69036  11.225   8.882   5.983 -1.6246 -0.7941 -0.0100
  524MOL0     O69037   9.709   7.031   3.981  0.5650 -0.2682  0.1177
  524MOL0     C69038   9.701   6.993   4.098  0.1243 -0.2715  0.1384
  524MOL0     O69039   9.591   6.989   4.177  0.2522  0.1844  0.1095
  524MOL0     C69040   9.466   7.015   4.126  0.3513  0.0269 -0.9986
  524MOL0     C69041   9.437   7.140   4.068 -0.2349 -0.2905 -0.1126
  524MOL0     C69042   9.318   7.179   4.021  0.5707 -0.5900 -0.8198
  524MOL0     C69043   9.217   7.085   4.035 -0.0403  0.8400 -0.3351
  524MOL0     O69044   9.094   7.089   3.982 -0.0500  0.0467 -0.1122
  524MOL0     C69045   9.031   7.215   3.958 -0.0272  1.7205  0.2025
  524MOL0     C69046   8.905   7.180   3.879 -0.1478 -0.7492 -0.8166
  524MOL0     C69047   8.845   7.309   3.828 -0.0354  0.5564  0.2873
  524MOL0     C69048   8.691   7.300   3.804 -0.0605  0.2130 -0.0737
  524MOL0     C69049   8.636   7.418   3.738 -0.2581  0.0878 -0.5062
  524MOL0     C69050   8.494   7.384   3.689  0.5283 -0.2020 -0.0889
  524MOL0     C69051   8.428   7.499   3.607  0.2490 -0.3494  0.4641
  524MOL0     C69052   8.274   7.494   3.603 -0.1424  0.4373 -0.5265
  524MOL0     N69053   8.218   7.574   3.717 -1.5218  0.0976 -0.0146
  524MOL0     C69054   8.138   7.689   3.702  0.8756  0.7276  1.0399
  524MOL0     C69055   8.061   7.690   3.810  0.5413  0.2182 -0.9146
  524MOL0     C69056   7.946   7.784   3.835  1.0873  0.6731 -0.1176
  524MOL0     C69057   7.815   7.716   3.872  0.3117 -0.0907  0.8257
  524MOL0     C69058   7.703   7.819   3.908 -0.3861 -1.0277 -0.2051
  524MOL0     C69059   7.572   7.753   3.968  0.0651 -0.2341  0.4383
  524MOL0     O69060   7.488   7.860   4.027 -0.3894 -0.3347  0.0206
  524MOL0     C69061   7.362   7.822   4.074 -0.1902 -0.6690 -0.7023
  524MOL0     C69062   7.313   7.701   4.114 -0.4671  0.7069  0.0223
  524MOL0     C69063   7.177   7.677   4.137  0.0494 -0.0024 -0.3301
  524MOL0     C69064   7.086   7.787   4.117  0.5962 -0.5028 -0.2843
  524MOL0     C69065   6.941   7.767   4.140  1.0116  0.0709 -0.5248
  524MOL0     O69066   6.906   7.654   4.220 -0.7454  0.4600 -0.1191
  524MOL0     C69067   6.773   7.630   4.224  0.3288  0.3694 -1.0488
  524MOL0     C69068   6.702   7.624   4.349  0.2137 -0.7735  0.0533
  524MOL0     C69069   6.566   7.601   4.355 -0.5087  0.1603  0.2116
  524MOL0     C69070   6.486   7.592   4.246 -0.3714  1.4042 -0.0998
  524MOL0     O69071   6.352   7.586   4.265 -0.5637  0.1998  0.5395
  524MOL0     C69072   6.272   7.660   4.177  0.4469 -0.7787  0.5129
  524MOL0     C69073   6.154   7.735   4.233  0.1526 -0.0228 -0.3528
  524MOL0     C69074   6.064   7.649   4.331 -0.1905  0.5838  0.4789
  524MOL0     C69075   5.958   7.738   4.400 -0.5523  0.0427 -0.4424
  524MOL0     C69076   5.857   7.633   4.474 -0.0203 -0.2177  0.4617
  524MOL0     C69077   5.738   7.697   4.541  0.6163  0.3548  0.5359
  524MOL0     C69078   5.664   7.599   4.627  0.1749  1.0793 -0.2929
  524MOL0     C69079   5.545   7.664   4.698 -0.1972 -1.2452 -0.7369
  524MOL0    Cl69080   5.461   7.551   4.798 -0.0215 -0.1214 -0.1068
  524MOL0     C69081   6.556   7.595   4.119 -0.8497  0.6240 -0.5981
  524MOL0     C69082   6.695   7.617   4.112  0.2419  0.4270  0.0319
  524MOL0     O69083   6.858   7.845   4.086 -0.2505 -0.1047 -0.6753
  524MOL0     C69084   7.131   7.906   4.085  0.9488  0.4636  0.4354
  524MOL0     C69085   7.265   7.918   4.059 -0.2083  0.3400 -0.0260
  524MOL0     N69086   8.091   7.584   3.886  0.3917 -0.0266  0.2262
  524MOL0     N69087   8.177   7.513   3.829 -0.3330 -0.4004  0.3816
  524MOL0     C69088   9.239   6.962   4.092  0.0937  1.1013 -0.7190
  524MOL0     C69089   9.360   6.929   4.148 -0.5863 -0.2320 -0.3531
  524MOL0     C69090   9.825   6.961   4.167  0.2507  0.4499 -0.7750
  524MOL0     C69091   9.830   6.925   4.302 -0.9203 -0.7689  0.5414
  524MOL0     C69092   9.958   6.892   4.369  0.6728 -0.0071  0.4021
  524MOL0     C69093  10.075   6.915   4.301 -0.0831  0.1755  0.0836
  524MOL0     O69094  10.200   6.894   4.366  0.4747  0.0399 -0.3543
  524MOL0     C69095  10.314   6.916   4.296 -0.5824 -0.3347  0.3260
  524MOL0     C69096  10.355   7.061   4.271 -0.4024 -0.6418 -0.1966
  524MOL0     C69097  10.482   7.076   4.181 -0.2454 -0.1447  0.2449
  524MOL0     C69098  10.598   6.989   4.224 -0.5801  0.4285 -0.3915
  524MOL0     C69099  10.716   7.035   4.145 -0.0541  0.7636  0.0360
  524MOL0     C69100  10.814   7.062   4.091 -0.9334  0.2439 -0.8261
  524MOL0     C69101  10.068   6.943   4.162  0.2795  0.1724  0.7854
  524MOL0     C69102   9.943   6.958   4.092  0.4328  0.3695 -0.2357
  524MOL0     H69103   9.522   7.205   4.049  1.4188 -1.6384  2.1485
  524MOL0     H69104   9.303   7.272   3.967  1.0030 -1.2881 -2.1901
  524MOL0     H69105   9.093   7.274   3.890 -0.0200  1.7578  0.2411
  524MOL0     H69106   9.007   7.268   4.051 -0.6680  3.1390 -0.7345
  524MOL0     H69107   8.840   7.130   3.951  2.0247 -0.8123  1.2251
  524MOL0     H69108   8.921   7.120   3.789 -1.2861 -0.4412 -1.2409
  524MOL0     H69109   8.896   7.323   3.733 -1.5096  1.8539 -0.3544
  524MOL0     H69110   8.868   7.393   3.893  0.4089  2.9002 -2.6788
  524MOL0     H69111   8.667   7.220   3.732 -3.0618 -0.0203  1.0268
  524MOL0     H69112   8.651   7.278   3.903 -1.6735  1.7503 -0.3262
  524MOL0     H69113   8.703   7.444   3.656  0.1723 -0.0679 -0.2056
  524MOL0     H69114   8.631   7.501   3.810 -3.0510 -0.3127 -0.0960
  524MOL0     H69115   8.432   7.367   3.778 -1.5147  1.0086 -1.2072
  524MOL0     H69116   8.481   7.290   3.635 -0.6813  0.2484 -0.6141
  524MOL0     H69117   8.471   7.593   3.642 -2.6305  0.9547  0.8083
  524MOL0     H69118   8.460   7.484   3.503 -2.3902  2.5435 -0.9484
  524MOL0     H69119   8.235   7.391   3.605 -2.7268  1.3349 -0.8732
  524MOL0     H69120   8.236   7.535   3.509 -2.5477 -1.4893 -0.5123
  524MOL0     H69121   8.129   7.762   3.622  1.0372 -0.8222 -0.4657
  524MOL0     H69122   7.928   7.845   3.746 -2.9264 -0.3986 -0.2151
  524MOL0     H69123   7.976   7.847   3.920  1.6040 -2.6714  2.3906
  524MOL0     H69124   7.843   7.654   3.958 -1.1173 -0.1307  1.2829
  524MOL0     H69125   7.773   7.661   3.787  0.6166  2.0442 -0.7836
  524MOL0     H69126   7.740   7.883   3.989  0.9922  0.0374 -1.6051
  524MOL0     H69127   7.675   7.884   3.825  0.8018 -0.5302 -0.2349
  524MOL0     H69128   7.597   7.681   4.046 -3.0736 -3.6963 -1.4584
  524MOL0     H69129   7.514   7.692   3.898 -0.6527 -0.1240  0.9320
  524MOL0     H69130   7.377   7.615   4.126  0.5937  1.5660  0.6543
  524MOL0     H69131   7.150   7.583   4.184  2.5106  0.1454  1.5698
  524MOL0     H69132   6.759   7.632   4.441  2.6824  1.7072 -1.5269
  524MOL0     H69133   6.515   7.600   4.451 -0.0604 -1.7937  0.4615
  524MOL0     H69134   6.233   7.603   4.093  0.7119 -0.2908  0.0529
  524MOL0     H69135   6.329   7.740   4.128 -1.2534  0.7048  0.8708
  524MOL0     H69136   6.092   7.778   4.154 -0.5224 -1.0569 -0.4051
  524MOL0     H69137   6.205   7.815   4.288 -0.8166  1.5457 -1.6379
  524MOL0     H69138   6.124   7.596   4.405  1.1565  2.1730  0.5840
  524MOL0     H69139   6.010   7.571   4.276  2.3981 -1.8880  1.2314
  524MOL0     H69140   6.009   7.800   4.475  1.1100 -0.7527 -0.8707
  524MOL0     H69141   5.914   7.809   4.330  1.6507  1.1775 -0.7635
  524MOL0     H69142   5.917   7.579   4.548 -0.0354 -0.0135  0.6251
  524MOL0     H69143   5.823   7.561   4.400 -1.9442  1.1994 -0.1118
  524MOL0     H69144   5.678   7.740   4.461  1.0928  1.3007  0.6640
  524MOL0     H69145   5.767   7.779   4.608 -0.5458 -0.2456  1.8167
  524MOL0     H69146   5.636   7.515   4.562  0.3957 -0.3043  1.3239
  524MOL0     H69147   5.729   7.550   4.700  0.6354 -1.5013 -2.2803
  524MOL0     H69148   5.473   7.708   4.628  0.4120 -0.2196 -0.7458
  524MOL0     H69149   5.571   7.745   4.767  1.8990 -1.4020 -1.2729
  524MOL0     H69150   6.510   7.585   4.022 -2.5803 -1.0550  0.3142
  524MOL0     H69151   6.748   7.623   4.017  0.8006  0.4966  0.3482
  524MOL0     H69152   7.060   7.986   4.070  0.0795 -0.6279 -1.6114
  524MOL0     H69153   7.306   8.013   4.025  1.1252 -0.3105 -0.3362
  524MOL0     H69154   9.153   6.896   4.101  2.5463 -2.1005  1.4034
  524MOL0     H69155   9.376   6.827   4.184 -0.3507 -0.3215 -0.7037
  524MOL0     H69156   9.743   6.928   4.366 -0.5673 -0.0269  0.9961
  524MOL0     H69157   9.924   6.863   4.468 -4.2625 -0.9721 -1.2767
  524MOL0     H69158  10.302   6.869   4.198 -1.8745  3.4966 -1.5518
  524MOL0     H69159  10.394   6.865   4.350 -2.0060  0.9944  4.0536
  524MOL0     H69160  10.275   7.123   4.230  0.0205 -0.0573 -0.1444
  524MOL0     H69161  10.374   7.108   4.368 -0.7058 -1.9797  0.5357
  524MOL0     H69162  10.528   7.175   4.178  2.5870 -1.3526  0.0812
  524MOL0     H69163  10.454   7.046   4.079 -0.0525  0.5298 -0.0094
  524MOL0     H69164  10.633   7.010   4.326  1.1330  0.1692 -0.8891
  524MOL0     H69165  10.586   6.881   4.209  2.9611  0.1762 -2.5025
  524MOL0     H69166  10.904   7.089   4.038  0.3128  2.3283  2.0491
  524MOL0     H69167  10.160   6.972   4.112  0.7297  1.0169  2.0622
  524MOL0     H69168   9.955   6.985   3.987 -2.0801 -1.4161 -1.0923
  525MOL0     O69169   1.375   4.511   7.936 -1.1257  1.3551 -0.4241
  525MOL0     C69170   1.279   4.445   7.897  0.7551  0.3715  0.0482
  525MOL0     O69171   1.276   4.373   7.774 -0.0420  0.2452 -0.8149
  525MOL0     C69172   1.390   4.357   7.705  0.1518  0.1633  0.7315
  525MOL0     C69173   1.520   4.326   7.762 -0.4156  0.3800  0.6906
  525MOL0     C69174   1.630   4.307   7.680  0.6433 -0.0264 -0.7521
  525MOL0     C69175   1.620   4.317   7.542  1.1822  0.4240 -0.5490
  525MOL0     O69176   1.736   4.302   7.474  0.5850  0.1707  0.4252
  525MOL0     C69177   1.726   4.318   7.329 -0.0293 -0.5284  0.2298
  525MOL0     C69178   1.873   4.322   7.278 -0.3420  0.3705  0.2855
  525MOL0     C69179   1.937   4.190   7.265 -0.0582  0.0508  0.6763
  525MOL0     C69180   2.083   4.216   7.232  0.7062  0.8130 -0.0065
  525MOL0     C69181   2.172   4.095   7.191  0.0072 -0.0057  0.6120
  525MOL0     C69182   2.311   4.155   7.150 -0.3934 -1.0227  0.3697
  525MOL0     C69183   2.415   4.040   7.119  0.5521  0.1656 -0.7987
  525MOL0     C69184   2.426   3.954   7.244  0.4840  1.0969  0.4279
  525MOL0     N69185   2.528   3.847   7.222 -0.9197 -0.1921  0.1478
  525MOL0     C69186   2.661   3.874   7.255  0.4894 -0.3212  0.0245
  525MOL0     C69187   2.718   3.760   7.203  0.2293  0.0479  0.1280
  525MOL0     C69188   2.866   3.736   7.217 -0.4373 -1.2318 -0.0664
  525MOL0     C69189   2.942   3.749   7.083 -0.2274  0.1832 -0.4696
  525MOL0     C69190   3.093   3.717   7.090  0.1472  0.2988  0.4353
  525MOL0     C69191   3.163   3.767   6.960  0.1031  0.1274 -0.6728
  525MOL0     O69192   3.126   3.680   6.853  0.2905  0.3435  0.5848
  525MOL0     C69193   3.078   3.737   6.739 -0.2588  0.8499 -0.3741
  525MOL0     C69194   2.968   3.682   6.673 -0.4652  0.1062  0.0087
  525MOL0     C69195   2.915   3.743   6.565 -0.4904  0.1159 -0.1843
  525MOL0     C69196   2.970   3.859   6.513  0.7941  0.3193  0.2551
  525MOL0     C69197   2.897   3.925   6.408 -0.6113 -0.3202  1.0497
  525MOL0     O69198   2.761   3.887   6.386  0.1310  0.3196 -0.2383
  525MOL0     C69199   2.692   3.937   6.278  1.0964 -0.8584 -0.4202
  525MOL0     C69200   2.571   4.008   6.304  0.1295 -0.0829 -0.2492
  525MOL0     C69201   2.515   4.089   6.206  0.7000  0.2297  1.0689
  525MOL0     C69202   2.570   4.092   6.072  0.3738  2.0034 -0.6160
  525MOL0     O69203   2.524   4.164   5.972  0.4162  0.8030  0.1305
  525MOL0     C69204   2.395   4.235   5.998  0.0451  0.8251  0.0752
  525MOL0     C69205   2.360   4.329   5.885  0.8832  0.7739  0.6003
  525MOL0     C69206   2.340   4.254   5.753  0.5056 -0.2099  0.2853
  525MOL0     C69207   2.300   4.351   5.648 -0.5213 -0.4015  0.3324
  525MOL0     C69208   2.297   4.269   5.516 -0.6415 -0.0315 -1.0956
  525MOL0     C69209   2.265   4.358   5.400  0.2767 -0.5687 -0.1773
  525MOL0     C69210   2.134   4.423   5.393  0.3854  0.0848  0.7539
  525MOL0     C69211   2.115   4.482   5.249 -0.2320 -0.6001  0.0808
  525MOL0    Cl69212   1.987   4.610   5.257  0.2204  0.0985 -0.3419
  525MOL0     C69213   2.680   4.012   6.046 -0.6019 -0.5713  0.0086
  525MOL0     C69214   2.749   3.946   6.148  0.4515  0.1131  0.5903
  525MOL0     O69215   2.956   4.011   6.341  0.7580  0.0958 -0.3108
  525MOL0     C69216   3.095   3.907   6.554 -0.6321  0.0180  0.3751
  525MOL0     C69217   3.143   3.851   6.677 -0.3581 -0.2635  0.4613
  525MOL0     N69218   2.632   3.682   7.140  0.0966  0.3819 -0.1033
  525MOL0     N69219   2.514   3.723   7.158  0.5707 -0.2551  0.2569
  525MOL0     C69220   1.492   4.339   7.484 -0.6249  0.2752 -0.1269
  525MOL0     C69221   1.375   4.364   7.562  0.0067 -0.2260  0.0235
  525MOL0     C69222   1.145   4.442   7.971  0.2229  0.0751 -0.3384
  525MOL0     C69223   1.127   4.524   8.085 -0.0691 -0.1104 -0.0594
  525MOL0     C69224   1.016   4.515   8.172  0.6171 -0.5961  0.3065
  525MOL0     C69225   0.921   4.425   8.144  0.0549 -0.1087 -0.3516
  525MOL0     O69226   0.808   4.411   8.222  0.1576 -0.4607  0.4130
  525MOL0     C69227   0.682   4.400   8.144 -0.1317  0.5550 -0.2463
  525MOL0     C69228   0.563   4.397   8.245 -0.0677 -0.3795 -0.0441
  525MOL0     C69229   0.577   4.318   8.378 -0.5403 -0.5175 -0.6779
  525MOL0     C69230   0.462   4.327   8.470  0.4451 -0.6289  0.1420
  525MOL0     C69231   0.480   4.248   8.596  0.5007 -0.5677  0.4520
  525MOL0     C69232   0.481   4.171   8.687 -0.5318  0.1580  1.2808
  525MOL0     C69233   0.939   4.333   8.036 -0.9229  0.4457  0.2894
  525MOL0     C69234   1.048   4.346   7.948  0.1262 -0.0479  0.3052
  525MOL0     H69235   1.532   4.321   7.869 -3.5084  0.8208  1.1354
  525MOL0     H69236   1.720   4.279   7.734  0.6266  1.7163  0.2511
  525MOL0     H69237   1.673   4.408   7.296 -3.1305 -1.4077  2.3899
  525MOL0     H69238   1.668   4.233   7.293 -1.5658  0.8884 -0.7776
  525MOL0     H69239   1.926   4.390   7.345 -0.3239 -1.2277  1.9559
  525MOL0     H69240   1.885   4.365   7.178  0.7368  2.4068  1.2374
  525MOL0     H69241   1.909   4.123   7.183  1.2620  0.6776 -0.3384
  525MOL0     H69242   1.928   4.130   7.355 -0.8706 -1.0924 -0.1294
  525MOL0     H69243   2.087   4.298   7.160  1.4748  2.0091  1.3307
  525MOL0     H69244   2.133   4.246   7.325  0.2330 -1.6848  1.1510
  525MOL0     H69245   2.124   4.041   7.108  1.2557 -0.8299  0.3982
  525MOL0     H69246   2.191   4.026   7.274  2.3080  0.2195  0.3285
  525MOL0     H69247   2.359   4.220   7.225 -0.2993 -1.1938  0.4585
  525MOL0     H69248   2.314   4.218   7.061  3.2617 -1.4282  0.0200
  525MOL0     H69249   2.381   3.977   7.037  2.0937 -0.1723 -1.2155
  525MOL0     H69250   2.512   4.086   7.096  0.5003  1.6469  1.5665
  525MOL0     H69251   2.340   3.892   7.267  1.1223  0.7020  1.8554
  525MOL0     H69252   2.448   4.008   7.337  3.0348 -0.9649  1.1137
  525MOL0     H69253   2.699   3.959   7.311 -3.3858  0.2411  2.2250
  525MOL0     H69254   2.871   3.637   7.263 -0.2022 -0.7451  0.9777
  525MOL0     H69255   2.902   3.805   7.294 -1.3731  0.8697 -1.4038
  525MOL0     H69256   2.929   3.849   7.041 -1.9149  0.2934  0.2425
  525MOL0     H69257   2.897   3.678   7.013 -1.2587  0.4446 -0.0929
  525MOL0     H69258   3.133   3.780   7.170  0.1853  0.5885  0.1901
  525MOL0     H69259   3.111   3.610   7.102 -0.6905 -0.4564 -3.4852
  525MOL0     H69260   3.270   3.750   6.974  0.0405  0.1308 -0.1767
  525MOL0     H69261   3.163   3.876   6.945  0.2615  0.9260  3.7957
  525MOL0     H69262   2.919   3.590   6.703 -3.4415  2.0187  1.4306
  525MOL0     H69263   2.829   3.697   6.517 -1.2153  0.1394  1.0659
  525MOL0     H69264   2.535   4.015   6.407  3.2262  2.7092  0.8300
  525MOL0     H69265   2.435   4.151   6.246  0.1402  2.3338 -2.8012
  525MOL0     H69266   2.405   4.293   6.090  1.3296 -0.0274  0.5036
  525MOL0     H69267   2.316   4.160   6.005  1.8318 -1.2978 -1.1208
  525MOL0     H69268   2.445   4.397   5.868  2.5012 -1.2810  0.0334
  525MOL0     H69269   2.265   4.379   5.903  0.4259  0.6458 -1.2996
  525MOL0     H69270   2.266   4.174   5.767  0.1825 -0.0151 -0.2599
  525MOL0     H69271   2.437   4.211   5.725  0.7265 -1.4891  2.7326
  525MOL0     H69272   2.203   4.392   5.678 -1.8729 -1.7257 -1.9446
  525MOL0     H69273   2.376   4.427   5.630 -1.5334  0.2669 -1.3468
  525MOL0     H69274   2.229   4.184   5.516 -2.7038  1.5134 -3.4618
  525MOL0     H69275   2.389   4.213   5.497 -2.2734 -3.4281  0.1504
  525MOL0     H69276   2.283   4.302   5.308 -0.6448 -0.5859 -0.3629
  525MOL0     H69277   2.338   4.439   5.398 -1.6895  1.3062 -3.0254
  525MOL0     H69278   2.055   4.349   5.408  1.0720 -0.6289  0.9022
  525MOL0     H69279   2.106   4.504   5.461 -1.7447  1.7312 -1.8894
  525MOL0     H69280   2.091   4.406   5.173 -1.6810 -0.9942  0.8826
  525MOL0     H69281   2.201   4.542   5.221  0.6672 -1.0927  1.6699
  525MOL0     H69282   2.731   4.012   5.951  1.7512  1.6813  1.1627
  525MOL0     H69283   2.832   3.882   6.123  0.3303  0.3328 -0.3870
  525MOL0     H69284   3.153   3.988   6.512  0.9875 -0.6025  1.3122
  525MOL0     H69285   3.233   3.901   6.712 -1.4013  0.3364  2.4401
  525MOL0     H69286   1.471   4.344   7.378 -1.3119  1.3855  0.0392
  525MOL0     H69287   1.285   4.385   7.505  0.0784 -1.7129 -0.6912
  525MOL0     H69288   1.203   4.598   8.104 -1.8491  1.7163  0.2410
  525MOL0     H69289   0.999   4.580   8.257 -0.4003 -0.1992 -0.1833
  525MOL0     H69290   0.680   4.301   8.097 -0.1662  0.8119 -0.7950
  525MOL0     H69291   0.680   4.478   8.067 -3.7532  1.5276  0.6416
  525MOL0     H69292   0.541   4.499   8.279 -1.0184 -0.7001  0.3370
  525MOL0     H69293   0.468   4.370   8.197 -0.9374 -3.0320  2.7521
  525MOL0     H69294   0.657   4.372   8.429 -1.9016  1.1971 -0.2534
  525MOL0     H69295   0.605   4.214   8.361 -1.5264 -0.7685 -0.8145
  525MOL0     H69296   0.449   4.433   8.491 -0.4824 -0.6929 -0.0639
  525MOL0     H69297   0.370   4.298   8.418  0.1978 -2.1038  1.3423
  525MOL0     H69298   0.473   4.090   8.757 -0.8940 -1.4480 -0.5333
  525MOL0     H69299   0.865   4.262   8.002 -1.3871  2.0362 -2.2501
  525MOL0     H69300   1.055   4.288   7.856 -1.9235  1.4521 -0.8779
  526MOL0     O69301   2.719   3.551   2.501  0.1968 -0.2805  0.7130
  526MOL0     C69302   2.701   3.446   2.564 -0.6958  0.2908  0.6942
  526MOL0     O69303   2.786   3.371   2.625 -0.9041  0.2721 -0.0247
  526MOL0     C69304   2.908   3.411   2.647 -0.5071  0.3733 -0.5816
  526MOL0     C69305   3.005   3.310   2.637  0.2821  0.1333 -0.3032
  526MOL0     C69306   3.143   3.340   2.652 -0.1345 -0.5516  0.3041
  526MOL0     C69307   3.184   3.471   2.694 -0.4218  0.6906  0.7767
  526MOL0     O69308   3.320   3.494   2.707  0.3818 -0.0268  0.5162
  526MOL0     C69309   3.362   3.622   2.756  0.0354 -0.2228 -0.0082
  526MOL0     C69310   3.502   3.609   2.814 -0.3105 -0.2384  1.2185
  526MOL0     C69311   3.605   3.570   2.713  0.4308 -0.4537  0.4207
  526MOL0     C69312   3.747   3.562   2.768  0.5474  0.1391 -0.1708
  526MOL0     C69313   3.843   3.553   2.651  0.0529 -0.4760  0.4278
  526MOL0     C69314   3.842   3.422   2.581 -0.2484  0.3230  0.1964
  526MOL0     C69315   3.966   3.410   2.494 -0.3089  0.9650 -0.5336
  526MOL0     C69316   3.998   3.524   2.393  0.0870 -0.0168 -0.0460
  526MOL0     N69317   3.899   3.515   2.278 -0.0950  0.6720  0.4692
  526MOL0     C69318   3.860   3.411   2.200  0.3206 -0.1552  0.3337
  526MOL0     C69319   3.774   3.464   2.112 -0.9901 -0.5636  0.3305
  526MOL0     C69320   3.703   3.382   2.014  0.0759 -0.2132 -0.0188
  526MOL0     C69321   3.618   3.273   2.074  0.3080 -0.3587 -0.2969
  526MOL0     C69322   3.491   3.330   2.140  0.2587  0.9518  0.1086
  526MOL0     C69323   3.384   3.221   2.141 -0.3584  0.0891 -0.4575
  526MOL0     O69324   3.281   3.268   2.219  0.3656 -0.3732 -0.8906
  526MOL0     C69325   3.161   3.200   2.227  0.2857 -0.3171  0.3261
  526MOL0     C69326   3.124   3.082   2.156 -0.3372 -0.9294  0.4123
  526MOL0     C69327   3.000   3.017   2.177 -0.7642 -0.1713 -0.6628
  526MOL0     C69328   2.911   3.082   2.268 -0.0413  1.1341  0.3329
  526MOL0     C69329   2.781   3.020   2.279  0.5821 -1.5959  0.1804
  526MOL0     O69330   2.670   3.111   2.295 -0.1241 -0.3232  0.2845
  526MOL0     C69331   2.546   3.052   2.310 -0.2091  0.3342 -0.5148
  526MOL0     C69332   2.501   3.023   2.436  0.4794 -1.1178  0.6789
  526MOL0     C69333   2.363   2.978   2.454 -0.3488 -0.3862  0.3987
  526MOL0     C69334   2.286   2.961   2.341 -0.7035 -0.7525  0.6625
  526MOL0     O69335   2.163   2.909   2.360  0.0954  0.5227  0.3665
  526MOL0     C69336   2.067   2.917   2.254  0.2479  0.1567  0.6224
  526MOL0     C69337   1.954   2.815   2.282  0.0566 -0.0208 -0.2737
  526MOL0     C69338   1.851   2.865   2.392 -1.0242 -0.1180 -0.6460
  526MOL0     C69339   1.773   2.971   2.323  0.8477 -0.8987 -0.1367
  526MOL0     C69340   1.656   3.025   2.414 -0.7007  0.1565 -0.0353
  526MOL0     C69341   1.703   3.050   2.566  1.0586  0.4204 -0.3968
  526MOL0     C69342   1.581   3.115   2.627 -0.4593 -0.4698 -0.9810
  526MOL0     C69343   1.600   3.175   2.767  0.8241 -0.5540 -0.5672
  526MOL0    Cl69344   1.450   3.299   2.797 -0.0249  0.5276  0.4339
  526MOL0     C69345   2.333   3.003   2.214  0.0387  0.3901 -0.2454
  526MOL0     C69346   2.464   3.037   2.204 -0.1317 -0.0133 -0.4955
  526MOL0     O69347   2.774   2.902   2.263  0.2226  0.8049  0.6677
  526MOL0     C69348   2.940   3.201   2.328  0.1161 -0.2449 -0.5210
  526MOL0     C69349   3.061   3.258   2.315 -0.4706  1.3224  0.2589
  526MOL0     N69350   3.773   3.599   2.123 -0.4714 -0.6222  0.2760
  526MOL0     N69351   3.853   3.636   2.223  0.6743 -0.9470  1.2088
  526MOL0     C69352   3.085   3.571   2.703  0.1677  1.1423 -0.8659
  526MOL0     C69353   2.943   3.545   2.681  0.2979 -0.9980 -0.1735
  526MOL0     C69354   2.558   3.396   2.564 -0.1311  0.1779 -0.0480
  526MOL0     C69355   2.472   3.424   2.456 -0.4122  0.0667  0.4917
  526MOL0     C69356   2.346   3.366   2.444 -0.5113  0.5501 -0.4227
  526MOL0     C69357   2.298   3.279   2.546 -0.2819 -0.6907  0.5875
  526MOL0     O69358   2.184   3.203   2.544  0.1026  0.3499 -0.0276
  526MOL0     C69359   2.075   3.253   2.463  0.2404  0.0948  0.0487
  526MOL0     C69360   1.968   3.312   2.551 -0.3096 -0.9735 -0.1787
  526MOL0     C69361   2.021   3.448   2.599  0.5470  0.1094  1.4656
  526MOL0     C69362   1.929   3.537   2.674 -0.6425  0.0392  0.4919
  526MOL0     C69363   1.903   3.484   2.806  0.1293 -0.7065  0.6473
  526MOL0     C69364   1.865   3.430   2.908  0.4252 -0.2005 -0.5829
  526MOL0     C69365   2.391   3.247   2.651 -0.4601 -0.1465  0.4725
  526MOL0     C69366   2.515   3.302   2.662  0.4381  0.5440 -0.1203
  526MOL0     H69367   2.976   3.205   2.629 -2.7569  0.6745  1.7394
  526MOL0     H69368   3.227   3.274   2.631 -0.1040 -0.9519  1.6253
  526MOL0     H69369   3.298   3.662   2.835 -1.4402 -1.2216 -0.6513
  526MOL0     H69370   3.364   3.692   2.671  2.2378 -0.3094 -0.0849
  526MOL0     H69371   3.499   3.527   2.888  0.1807 -1.9733 -0.5994
  526MOL0     H69372   3.546   3.703   2.848  1.2992  0.5901 -2.6244
  526MOL0     H69373   3.600   3.643   2.631  2.2784  0.5714  1.1739
  526MOL0     H69374   3.575   3.475   2.667  0.2769 -1.5775  2.7152
  526MOL0     H69375   3.770   3.647   2.833  2.1174 -2.0515  2.3672
  526MOL0     H69376   3.753   3.472   2.830 -0.9165  0.9449  1.2083
  526MOL0     H69377   3.945   3.576   2.685  0.5349  0.9048 -1.7200
  526MOL0     H69378   3.822   3.625   2.571 -0.7736 -1.1819 -0.0021
  526MOL0     H69379   3.751   3.421   2.521  1.1818  2.7744 -2.2668
  526MOL0     H69380   3.845   3.337   2.650 -0.9687 -0.2160 -0.4213
  526MOL0     H69381   4.044   3.410   2.571 -2.3026  0.3053  1.6264
  526MOL0     H69382   3.960   3.315   2.440 -3.3777  1.0989 -0.5898
  526MOL0     H69383   4.105   3.516   2.368  0.2303 -0.5762  0.7114
  526MOL0     H69384   4.007   3.616   2.451 -0.6969 -1.1914  2.0183
  526MOL0     H69385   3.883   3.305   2.207 -1.3533 -0.6194 -0.6196
  526MOL0     H69386   3.776   3.330   1.953  3.1735  2.6833  0.9158
  526MOL0     H69387   3.639   3.442   1.947 -1.7500 -0.2326  1.6244
  526MOL0     H69388   3.666   3.215   2.154  0.1735 -0.4924 -0.3122
  526MOL0     H69389   3.587   3.196   2.002 -5.8539  0.4961  0.8950
  526MOL0     H69390   3.517   3.358   2.243  2.2585  0.0538 -0.1202
  526MOL0     H69391   3.453   3.418   2.087  0.3983 -0.6124 -2.7506
  526MOL0     H69392   3.422   3.125   2.177 -0.1992 -0.1014 -1.1125
  526MOL0     H69393   3.355   3.206   2.037  1.4172 -2.1689 -0.6962
  526MOL0     H69394   3.196   3.034   2.090 -0.9647  0.1925 -1.1509
  526MOL0     H69395   2.973   2.931   2.117  0.6833 -1.3306  0.2788
  526MOL0     H69396   2.573   3.034   2.516  2.2972  1.1036 -1.1632
  526MOL0     H69397   2.320   2.949   2.549  2.4967  0.9702  2.2458
  526MOL0     H69398   2.101   2.892   2.153 -0.6254  2.1032 -0.1907
  526MOL0     H69399   2.024   3.017   2.257 -0.3041 -0.0884  0.9946
  526MOL0     H69400   1.996   2.723   2.323 -0.3067  0.5405  1.4510
  526MOL0     H69401   1.904   2.788   2.189 -0.6703 -0.7901  0.3320
  526MOL0     H69402   1.905   2.907   2.477 -1.5458  1.4027 -1.0246
  526MOL0     H69403   1.785   2.786   2.427 -0.0974 -0.5929  0.0468
  526MOL0     H69404   1.839   3.056   2.306  2.6783 -2.3211 -0.4152
  526MOL0     H69405   1.724   2.932   2.233 -2.8771  1.2513  0.7448
  526MOL0     H69406   1.584   2.942   2.411  2.3075 -2.9404  3.3460
  526MOL0     H69407   1.610   3.115   2.372 -1.0941 -0.5382 -1.1505
  526MOL0     H69408   1.791   3.115   2.562  0.7425  1.0156  1.4024
  526MOL0     H69409   1.746   2.967   2.623  0.8731  0.8009  0.3113
  526MOL0     H69410   1.544   3.198   2.566 -0.3691  1.0352  0.9048
  526MOL0     H69411   1.504   3.037   2.633 -0.8455 -0.3462 -3.4887
  526MOL0     H69412   1.692   3.234   2.776  1.0015 -0.6702 -1.5072
  526MOL0     H69413   1.598   3.097   2.843  2.2185  0.9465  1.0830
  526MOL0     H69414   2.290   2.976   2.118  1.5548  1.7268 -1.3615
  526MOL0     H69415   2.507   3.061   2.108 -2.7935 -1.1240 -2.0687
  526MOL0     H69416   2.865   3.243   2.395 -1.1811 -0.8286 -1.5673
  526MOL0     H69417   3.077   3.341   2.383  1.3985  0.4213  0.9996
  526MOL0     H69418   3.112   3.674   2.727  0.7486  1.1565 -1.5451
  526MOL0     H69419   2.875   3.630   2.681 -0.7493 -1.7544 -2.4207
  526MOL0     H69420   2.518   3.481   2.376 -0.5619  2.7310  2.1480
  526MOL0     H69421   2.292   3.384   2.351 -0.8584  1.4461 -0.0553
  526MOL0     H69422   2.020   3.166   2.425  1.4517 -0.3209 -0.8248
  526MOL0     H69423   2.108   3.314   2.378 -0.9023  1.0215  0.2482
  526MOL0     H69424   1.879   3.320   2.488  0.6289  0.6929 -1.3731
  526MOL0     H69425   1.952   3.249   2.639  1.6928 -0.9736  0.2156
  526MOL0     H69426   2.058   3.499   2.509 -1.0216 -0.2735  0.5591
  526MOL0     H69427   2.103   3.432   2.670 -0.4459 -0.2006  2.5741
  526MOL0     H69428   1.978   3.634   2.687 -2.2825  0.7407  1.7546
  526MOL0     H69429   1.832   3.548   2.625 -0.8380 -1.5784  0.4687
  526MOL0     H69430   1.850   3.366   2.993 -2.3162 -0.1884 -0.9919
  526MOL0     H69431   2.357   3.173   2.724 -1.8493  0.0196  0.0266
  526MOL0     H69432   2.579   3.272   2.744 -0.2012  0.8065  0.4779
  527MOL0     O69433   9.087   3.920   9.806 -0.1718  0.3145  0.3073
  527MOL0     C69434   9.172   3.869   9.875 -0.3670 -0.2763 -0.7154
  527MOL0     O69435   9.154   3.765   9.963  0.7844 -1.1288 -0.2401
  527MOL0     C69436   9.026   3.716   9.986 -0.1661  0.6934 -0.2276
  527MOL0     C69437   9.027   3.579  10.012  0.5824 -0.3858 -0.6538
  527MOL0     C69438   8.903   3.515  10.049 -0.9534 -0.8851 -0.2811
  527MOL0     C69439   8.782   3.590  10.056  0.0634  0.1412  0.1078
  527MOL0     O69440   8.669   3.534  10.104  0.5552  0.3209  0.5879
  527MOL0     C69441   8.613   3.435  10.010  0.4675 -0.0352  0.4674
  527MOL0     C69442   8.501   3.344  10.068 -0.2004 -0.7615 -0.0175
  527MOL0     C69443   8.390   3.432  10.128  0.0533  0.0049 -0.0223
  527MOL0     C69444   8.266   3.352  10.144  0.3623 -0.2675  0.3384
  527MOL0     C69445   8.152   3.414  10.215 -0.2717  0.2921 -0.3303
  527MOL0     C69446   8.034   3.313  10.258 -0.0364 -0.6770 -0.0131
  527MOL0     C69447   7.924   3.300  10.146 -0.1559  0.2913  0.0488
  527MOL0     C69448   7.840   3.432  10.137 -0.4321  0.2496  0.5022
  527MOL0     N69449   7.715   3.426  10.077 -0.1229 -0.0865  0.5862
  527MOL0     C69450   7.604   3.375  10.149 -0.5577 -0.0802  0.0716
  527MOL0     C69451   7.501   3.402  10.066  0.5488 -0.1977 -0.4482
  527MOL0     C69452   7.357   3.372  10.102 -1.2594  0.0890 -0.3949
  527MOL0     C69453   7.280   3.497  10.147 -0.1900 -0.4048 -0.2492
  527MOL0     C69454   7.131   3.464  10.165 -0.9050  0.1645 -0.3655
  527MOL0     C69455   7.041   3.588  10.198  0.1329 -0.2532  0.8302
  527MOL0     O69456   6.999   3.644  10.072  0.4384  0.4997  0.5538
  527MOL0     C69457   6.877   3.584  10.027  0.1571 -0.3219  0.1683
  527MOL0     C69458   6.813   3.473  10.077 -0.1328  0.3675  0.0717
  527MOL0     C69459   6.694   3.422  10.032 -0.5994  1.1459  0.6267
  527MOL0     C69460   6.623   3.497   9.932  0.4827  0.5673 -0.0756
  527MOL0     C69461   6.486   3.452   9.899  0.9456  0.1882  0.3026
  527MOL0     O69462   6.422   3.531   9.809 -0.1600  0.7078  0.5446
  527MOL0     C69463   6.303   3.491   9.758  0.0495  0.7267  0.2696
  527MOL0     C69464   6.311   3.449   9.627 -0.6446  0.3819 -0.0313
  527MOL0     C69465   6.199   3.399   9.567  0.2205  0.5150  0.7574
  527MOL0     C69466   6.080   3.384   9.634 -0.7346 -0.1413 -0.1000
  527MOL0     O69467   5.985   3.312   9.564  0.4744  0.0672  0.6696
  527MOL0     C69468   5.851   3.313   9.618 -0.3053 -0.0636  0.2427
  527MOL0     C69469   5.830   3.185   9.710  0.8232 -0.2536 -0.0909
  527MOL0     C69470   5.742   3.216   9.835 -0.0850  0.0805  0.3768
  527MOL0     C69471   5.734   3.104   9.936 -0.5957 -0.2398  0.3084
  527MOL0     C69472   5.856   3.101  10.019  0.3953  0.8042  1.2607
  527MOL0     C69473   5.835   3.179  10.155 -0.1909 -0.7476  0.4843
  527MOL0     C69474   5.965   3.202  10.224 -0.3068  0.7966 -0.2613
  527MOL0     C69475   6.042   3.325  10.162 -0.4709  0.1543 -0.5895
  527MOL0    Cl69476   5.943   3.469  10.169 -0.0881 -0.1541 -0.4984
  527MOL0     C69477   6.067   3.434   9.764 -0.0685  1.0309 -0.5500
  527MOL0     C69478   6.180   3.486   9.825 -0.8603  0.2471 -0.3837
  527MOL0     O69479   6.428   3.350   9.948 -0.1619  0.5851 -0.4336
  527MOL0     C69480   6.681   3.609   9.875  0.1023  0.1375 -0.0278
  527MOL0     C69481   6.808   3.654   9.929  0.0273  0.1117  0.5918
  527MOL0     N69482   7.546   3.464   9.950 -0.9166  0.1895  0.1187
  527MOL0     N69483   7.674   3.474   9.960  0.1016  0.6774 -0.0340
  527MOL0     C69484   8.788   3.729  10.035 -0.4480  0.3400  0.2027
  527MOL0     C69485   8.912   3.785  10.000  0.1500 -0.2032  0.2900
  527MOL0     C69486   9.305   3.927   9.875 -0.3249 -0.5544  0.6299
  527MOL0     C69487   9.316   4.058   9.828  0.5042  0.1462  0.4823
  527MOL0     C69488   9.446   4.109   9.814  0.1113 -0.0823 -0.6632
  527MOL0     C69489   9.563   4.037   9.834 -0.1860 -0.3521 -0.1008
  527MOL0     O69490   9.680   4.113   9.800  0.1519  0.4852 -0.5229
  527MOL0     C69491   9.809   4.046   9.792  0.1532  0.4575  0.0011
  527MOL0     C69492   9.918   4.157   9.796  0.3197  0.6496  0.5772
  527MOL0     C69493  10.057   4.098   9.809  0.0180  0.1315 -0.1434
  527MOL0     C69494  10.164   4.205   9.817  0.3145 -0.1245  0.3770
  527MOL0     C69495  10.294   4.132   9.806 -0.7053 -0.4155  0.5643
  527MOL0     C69496  10.403   4.081   9.795 -0.2605 -0.0664  0.5655
  527MOL0     C69497   9.549   3.909   9.879 -0.3283  0.6211  0.8448
  527MOL0     C69498   9.423   3.850   9.894 -0.1156  0.4819 -0.4928
  527MOL0     H69499   9.116   3.524   9.986  1.1684  0.5769 -0.7390
  527MOL0     H69500   8.903   3.413  10.085  1.6248 -0.4087  1.3034
  527MOL0     H69501   8.693   3.378   9.963  1.1031  2.9436 -2.4061
  527MOL0     H69502   8.575   3.485   9.920 -0.9935 -2.0207 -0.0829
  527MOL0     H69503   8.546   3.280  10.144 -1.7069 -1.0874  0.6409
  527MOL0     H69504   8.455   3.294   9.983  0.5952  1.7902 -2.0624
  527MOL0     H69505   8.374   3.524  10.070  1.0098  0.9429  1.1217
  527MOL0     H69506   8.415   3.475  10.226  2.3725 -2.5868  0.6336
  527MOL0     H69507   8.230   3.328  10.043 -0.9514 -0.2615  0.7892
  527MOL0     H69508   8.289   3.260  10.197  0.3802 -0.0976  0.6266
  527MOL0     H69509   8.108   3.490  10.149  1.4692  0.5066 -1.3068
  527MOL0     H69510   8.188   3.463  10.306 -1.5624  0.9067 -0.1306
  527MOL0     H69511   7.995   3.347  10.355  1.9880  1.6513  0.1000
  527MOL0     H69512   8.077   3.215  10.279 -2.1840 -2.2617 -2.4798
  527MOL0     H69513   7.968   3.290  10.046  1.3254 -1.2517  0.8240
  527MOL0     H69514   7.859   3.214  10.166 -0.9369  1.3101  2.1973
  527MOL0     H69515   7.890   3.506  10.074 -1.6135  1.2201  0.6574
  527MOL0     H69516   7.827   3.475  10.237 -2.8802 -0.0654  0.3743
  527MOL0     H69517   7.600   3.349  10.254  2.7407  0.9210  0.5809
  527MOL0     H69518   7.347   3.307  10.189 -5.9259  1.5571  0.4808
  527MOL0     H69519   7.306   3.319  10.021  0.0697 -1.5518 -0.2005
  527MOL0     H69520   7.302   3.576  10.076  0.2199  1.0921  1.4704
  527MOL0     H69521   7.320   3.531  10.243 -0.2913  0.7024 -0.5832
  527MOL0     H69522   7.099   3.410  10.076 -2.1905  0.4082 -0.0683
  527MOL0     H69523   7.139   3.392  10.247  0.1372  1.0489  0.3561
  527MOL0     H69524   7.100   3.665  10.248 -1.4828  2.6498 -1.3482
  527MOL0     H69525   6.959   3.557  10.263  0.9836 -1.6802  1.2718
  527MOL0     H69526   6.868   3.416  10.151  1.4038  3.2398  1.3037
  527MOL0     H69527   6.653   3.329  10.070 -1.0660  1.4121  0.7905
  527MOL0     H69528   6.411   3.449   9.586 -0.2119 -1.3159  0.9365
  527MOL0     H69529   6.202   3.373   9.462  2.0229  1.6847  0.4641
  527MOL0     H69530   5.777   3.319   9.538  0.0900  4.2275  0.0044
  527MOL0     H69531   5.826   3.394   9.687  0.8686 -1.6345  2.6790
  527MOL0     H69532   5.920   3.148   9.758 -0.6442 -3.0028  0.7514
  527MOL0     H69533   5.790   3.101   9.652  0.9508 -1.1910  1.1448
  527MOL0     H69534   5.638   3.245   9.814 -0.2466  1.3397  2.5502
  527MOL0     H69535   5.781   3.305   9.885  0.3142 -0.9156  1.9308
  527MOL0     H69536   5.646   3.117   9.999 -2.0495 -1.8554 -1.2567
  527MOL0     H69537   5.724   3.007   9.886 -1.1234 -0.1576  0.2515
  527MOL0     H69538   5.945   3.145   9.972  1.3080 -0.1937  1.9801
  527MOL0     H69539   5.885   2.997  10.039 -0.6297  0.0931 -0.7242
  527MOL0     H69540   5.780   3.112  10.222 -0.8093 -0.9481 -0.2125
  527MOL0     H69541   5.775   3.268  10.136  0.9037 -0.2195 -0.6614
  527MOL0     H69542   5.943   3.215  10.331  1.4411 -0.7512  0.3219
  527MOL0     H69543   6.023   3.110  10.224  0.7952  1.4446  1.3336
  527MOL0     H69544   6.075   3.308  10.059  2.6231 -2.4290  0.6628
  527MOL0     H69545   6.132   3.339  10.223 -1.5677 -1.6260  1.5619
  527MOL0     H69546   5.968   3.445   9.807  0.5035 -3.7186  2.7244
  527MOL0     H69547   6.179   3.522   9.928  1.2006  0.7218 -0.4836
  527MOL0     H69548   6.629   3.669   9.801  1.4947  1.4347 -0.0023
  527MOL0     H69549   6.856   3.738   9.879  2.9213 -1.3169  0.7908
  527MOL0     H69550   8.700   3.792  10.037 -0.4318  0.4645 -1.3362
  527MOL0     H69551   8.900   3.892   9.996  0.0105 -0.1866  0.9821
  527MOL0     H69552   9.245   4.130   9.788  2.1729  1.7523  0.2611
  527MOL0     H69553   9.458   4.215   9.792  0.5474  0.0330  0.1198
  527MOL0     H69554   9.808   3.987   9.700  0.8792  2.5117 -1.3900
  527MOL0     H69555   9.823   3.977   9.876  1.5825 -0.9412 -1.3151
  527MOL0     H69556   9.914   4.228   9.712  1.1600  1.4813  1.2191
  527MOL0     H69557   9.891   4.219   9.882 -0.8418 -0.3697  0.9769
  527MOL0     H69558  10.086   4.034   9.726  0.6296 -0.7594  0.7385
  527MOL0     H69559  10.068   4.042   9.902 -1.9119  0.7088  0.4919
  527MOL0     H69560  10.160   4.277   9.734 -1.3307  0.1668  0.6651
  527MOL0     H69561  10.141   4.258   9.910 -0.6208 -0.9908  0.6601
  527MOL0     H69562  10.492   4.031   9.765  1.2250  3.0922 -0.8146
  527MOL0     H69563   9.626   3.835   9.898 -0.2468  0.4073 -0.2728
  527MOL0     H69564   9.417   3.749   9.932 -4.7243  1.7970  3.3456
  528MOL0     O69565  10.219   6.412   2.615 -0.1778 -0.2339 -0.1981
  528MOL0     C69566  10.308   6.498   2.649  0.0075 -0.1837  0.3774
  528MOL0     O69567  10.279   6.621   2.698 -0.2367 -0.8958  0.1298
  528MOL0     C69568  10.151   6.656   2.740 -0.6791  0.0998 -0.3264
  528MOL0     C69569  10.046   6.667   2.646 -0.9486 -0.0194 -0.3346
  528MOL0     C69570   9.919   6.688   2.691  0.8317 -0.0220  0.1541
  528MOL0     C69571   9.893   6.693   2.830 -0.7572 -0.3662 -0.6810
  528MOL0     O69572   9.766   6.683   2.884  0.3654 -0.2416 -0.4361
  528MOL0     C69573   9.692   6.804   2.898 -0.1139 -0.0625 -0.3575
  528MOL0     C69574   9.548   6.778   2.914 -0.0062 -0.5618 -0.6417
  528MOL0     C69575   9.447   6.904   2.925 -0.1863 -0.3409  0.2403
  528MOL0     C69576   9.303   6.874   2.899  0.1984  0.2956  0.1237
  528MOL0     C69577   9.218   6.999   2.904  0.4377  0.0117  0.2747
  528MOL0     C69578   9.078   6.959   2.851 -0.1767  0.5840  0.1827
  528MOL0     C69579   9.002   7.088   2.810 -0.5881 -0.3130  0.1237
  528MOL0     C69580   8.865   7.047   2.772  0.3952  0.0998  0.8333
  528MOL0     N69581   8.848   7.078   2.632 -0.2983  0.8159  0.5690
  528MOL0     C69582   8.896   6.994   2.530 -0.5531 -1.1891  1.4062
  528MOL0     C69583   8.860   7.063   2.419  0.2953 -0.3045  0.4456
  528MOL0     C69584   8.928   7.044   2.279 -0.8482  0.2282  0.5734
  528MOL0     C69585   8.986   7.164   2.207  0.1770 -0.4299  0.6084
  528MOL0     C69586   9.102   7.224   2.283 -0.0631  1.3229 -0.0358
  528MOL0     C69587   9.147   7.359   2.236 -1.1166 -0.4545  0.7901
  528MOL0     O69588   9.168   7.360   2.088 -0.4304 -0.5422 -0.0273
  528MOL0     C69589   9.292   7.320   2.061 -0.4866  1.0328 -0.0502
  528MOL0     C69590   9.304   7.198   1.991  0.2674 -1.0664  0.3673
  528MOL0     C69591   9.432   7.145   1.968  0.7421 -0.6169 -0.6113
  528MOL0     C69592   9.542   7.193   2.029  0.0928  0.2604 -0.6310
  528MOL0     C69593   9.676   7.129   2.019  0.0337 -1.6329 -1.0730
  528MOL0     O69594   9.677   7.008   1.952 -0.2175 -0.0078  0.1725
  528MOL0     C69595   9.803   6.952   1.935 -0.8130  0.3916 -0.9939
  528MOL0     C69596   9.868   6.890   2.038  0.1030 -0.1818 -0.0824
  528MOL0     C69597  10.009   6.853   2.027 -0.1986  0.8184  0.3735
  528MOL0     C69598  10.073   6.865   1.899 -0.3952 -0.5888 -0.2840
  528MOL0     O69599  10.203   6.816   1.872  0.7360 -0.1834 -0.3150
  528MOL0     C69600  10.301   6.908   1.815 -0.2181  0.4748  0.7939
  528MOL0     C69601  10.441   6.836   1.815  0.0912 -0.0187  0.5767
  528MOL0     C69602  10.552   6.921   1.760 -0.3304 -1.0703 -0.2587
  528MOL0     C69603  10.683   6.857   1.800 -0.2430 -0.0234 -0.4731
  528MOL0     C69604  10.810   6.920   1.734 -0.3640 -0.6557  0.1866
  528MOL0     C69605  10.944   6.851   1.777  0.0572  0.0613 -0.2658
  528MOL0     C69606  10.974   6.859   1.927 -0.1036 -0.3874 -0.4179
  528MOL0     C69607  11.120   6.835   1.962 -0.0906  0.2365  0.2284
  528MOL0    Cl69608  11.204   6.699   1.885 -0.4588 -0.3135  0.1293
  528MOL0     C69609  10.008   6.939   1.805 -0.0618  0.3890 -0.5477
  528MOL0     C69610   9.875   6.986   1.819  0.6265  0.4071 -0.7501
  528MOL0     O69611   9.774   7.193   2.065 -0.1918 -0.2487  0.2765
  528MOL0     C69612   9.530   7.318   2.103 -0.6612  0.2732  0.0759
  528MOL0     C69613   9.409   7.382   2.116 -0.5663  0.8169 -0.2952
  528MOL0     N69614   8.781   7.172   2.451  1.0634 -0.0525 -1.1803
  528MOL0     N69615   8.771   7.174   2.580 -0.3518 -0.0915 -0.2065
  528MOL0     C69616  10.001   6.699   2.916 -0.3802  0.2830 -0.1263
  528MOL0     C69617  10.126   6.678   2.873 -0.0742  0.4083  1.1836
  528MOL0     C69618  10.446   6.472   2.619 -1.0383 -0.1072  0.4620
  528MOL0     C69619  10.488   6.351   2.569 -0.3488  0.6518 -0.4533
  528MOL0     C69620  10.619   6.312   2.551  0.3398  0.4970 -0.9783
  528MOL0     C69621  10.716   6.403   2.596 -0.0888  0.1969 -0.0975
  528MOL0     O69622  10.847   6.371   2.578  0.3586 -0.5867 -0.1637
  528MOL0     C69623  10.892   6.235   2.604  0.2519  0.0928 -0.6093
  528MOL0     C69624  11.034   6.223   2.552 -0.9799  0.1991 -0.4824
  528MOL0     C69625  11.052   6.245   2.398 -0.1951 -0.6441 -0.7268
  528MOL0     C69626  11.197   6.263   2.357 -1.2367  0.6792  0.3640
  528MOL0     C69627  11.213   6.324   2.224  0.5154 -0.3388 -0.9694
  528MOL0     C69628  11.244   6.377   2.120  0.9238  0.5873 -0.2983
  528MOL0     C69629  10.681   6.524   2.652 -0.3599  0.1416  0.0287
  528MOL0     C69630  10.546   6.558   2.663  0.2745 -1.1005 -0.2842
  528MOL0     H69631  10.071   6.651   2.541 -2.3761  0.8131 -0.8286
  528MOL0     H69632   9.829   6.693   2.631  0.7994  2.6850  0.2655
  528MOL0     H69633   9.717   6.866   2.811 -2.4608 -2.4211 -2.9036
  528MOL0     H69634   9.733   6.848   2.989  0.2123  1.0951 -1.0455
  528MOL0     H69635   9.536   6.708   2.997  0.8279 -0.3940 -0.3689
  528MOL0     H69636   9.512   6.729   2.822 -2.9470  1.6806 -0.8444
  528MOL0     H69637   9.474   6.978   2.850 -0.7716 -2.0726 -1.7611
  528MOL0     H69638   9.446   6.950   3.025 -0.1737  1.2562 -0.4672
  528MOL0     H69639   9.290   6.835   2.797  2.0002  2.5418 -1.0726
  528MOL0     H69640   9.261   6.802   2.969 -1.1723  1.9950  1.1321
  528MOL0     H69641   9.261   7.081   2.848 -1.3957  0.5327 -0.4599
  528MOL0     H69642   9.210   7.021   3.011  0.8262 -0.0489  0.3180
  528MOL0     H69643   9.021   6.897   2.922  1.1102  0.3033  1.0182
  528MOL0     H69644   9.097   6.902   2.759  0.7672  3.5069 -1.5697
  528MOL0     H69645   9.007   7.161   2.891  1.7990 -0.0935 -0.1500
  528MOL0     H69646   9.041   7.140   2.722 -2.0854 -1.8064 -1.5069
  528MOL0     H69647   8.789   7.103   2.829 -1.8942 -1.2514 -0.7408
  528MOL0     H69648   8.848   6.942   2.797 -0.0771  0.4484  2.0625
  528MOL0     H69649   8.966   6.911   2.530  2.2513  0.9972 -0.2067
  528MOL0     H69650   8.861   7.006   2.202  0.2135 -0.2412 -0.1518
  528MOL0     H69651   9.002   6.965   2.297  1.8126  2.0344 -1.5131
  528MOL0     H69652   8.919   7.249   2.193  2.6840  1.4622 -0.5438
  528MOL0     H69653   9.019   7.135   2.107 -1.2788 -1.4606  0.3856
  528MOL0     H69654   9.077   7.243   2.388 -4.4377 -2.8663  0.0340
  528MOL0     H69655   9.185   7.154   2.280 -0.3446  0.9307  1.0593
  528MOL0     H69656   9.234   7.400   2.289  1.1115 -2.2035 -1.2650
  528MOL0     H69657   9.073   7.434   2.263 -0.6097  0.9986 -1.5603
  528MOL0     H69658   9.216   7.152   1.945 -0.0306 -0.3586  0.2199
  528MOL0     H69659   9.443   7.047   1.921 -0.0839 -1.0761  0.1098
  528MOL0     H69660   9.809   6.868   2.126  0.5221  0.9970  0.5015
  528MOL0     H69661  10.074   6.810   2.102 -0.7784  1.8518  1.5142
  528MOL0     H69662  10.314   6.994   1.881  0.6209 -0.1182  1.4245
  528MOL0     H69663  10.272   6.943   1.715  0.0195 -0.4326  0.3966
  528MOL0     H69664  10.430   6.735   1.774  0.0658 -0.8735  2.5979
  528MOL0     H69665  10.461   6.823   1.921 -0.1562  0.2434  0.6557
  528MOL0     H69666  10.541   7.019   1.807 -0.0867 -1.1283 -0.0784
  528MOL0     H69667  10.538   6.928   1.652  0.0587 -0.8673 -0.2985
  528MOL0     H69668  10.686   6.859   1.910  3.1886  1.1126 -0.4675
  528MOL0     H69669  10.683   6.753   1.767 -0.5153  0.0516 -0.7075
  528MOL0     H69670  10.806   7.025   1.764 -4.1122  0.2284 -2.6017
  528MOL0     H69671  10.810   6.904   1.626 -1.0234  0.0759  0.0691
  528MOL0     H69672  11.026   6.906   1.730  0.1714 -1.7082 -2.3318
  528MOL0     H69673  10.940   6.745   1.748  0.3492 -0.5215  1.7258
  528MOL0     H69674  10.941   6.957   1.961 -2.1666 -1.2232  0.1329
  528MOL0     H69675  10.910   6.793   1.986  1.3369 -0.6267  0.9409
  528MOL0     H69676  11.134   6.821   2.070  1.1923 -0.9421 -0.0658
  528MOL0     H69677  11.177   6.922   1.929  1.3301  0.5273  3.1525
  528MOL0     H69678  10.048   6.957   1.705 -2.7280 -0.2932 -1.8373
  528MOL0     H69679   9.828   7.046   1.742 -0.8416  0.3094  0.0318
  528MOL0     H69680   9.622   7.358   2.145  0.4651  0.6463 -2.5344
  528MOL0     H69681   9.413   7.478   2.166  3.0823  0.3505  0.5723
  528MOL0     H69682   9.994   6.689   3.024 -0.3682 -1.0053 -0.2199
  528MOL0     H69683  10.207   6.665   2.944  0.7772  0.7013  0.2938
  528MOL0     H69684  10.413   6.279   2.537 -0.0098  0.1849 -0.1919
  528MOL0     H69685  10.638   6.216   2.504  0.3687 -1.3043  2.4430
  528MOL0     H69686  10.826   6.161   2.558  3.2369 -2.5207 -1.0262
  528MOL0     H69687  10.886   6.205   2.709 -0.0675  0.8141 -0.4158
  528MOL0     H69688  11.099   6.289   2.611 -0.2474  1.0077 -2.1116
  528MOL0     H69689  11.072   6.123   2.577  0.7755  0.6010 -1.3304
  528MOL0     H69690  11.005   6.339   2.368  1.5750  0.2903 -0.6530
  528MOL0     H69691  11.010   6.164   2.336 -2.3046  1.8151 -2.7878
  528MOL0     H69692  11.272   6.319   2.414 -0.8133 -0.7089  1.1996
  528MOL0     H69693  11.236   6.161   2.350 -1.9566  0.4076  0.2125
  528MOL0     H69694  11.279   6.431   2.034 -0.1694  1.7832 -0.0346
  528MOL0     H69695  10.761   6.592   2.681 -0.7293  1.5892 -2.1210
  528MOL0     H69696  10.516   6.646   2.720  0.1853 -0.5106 -1.2209
  529MOL0     O69697   1.877   6.400   4.719 -0.1611  0.6741  0.1632
  529MOL0     C69698   1.927   6.354   4.822  0.0730 -0.7658  1.1852
  529MOL0     O69699   1.872   6.258   4.898 -0.1106 -0.0035  0.8210
  529MOL0     C69700   1.762   6.198   4.858  0.6592  0.2644 -0.4337
  529MOL0     C69701   1.753   6.082   4.781 -0.1697 -0.4401  0.2694
  529MOL0     C69702   1.625   6.019   4.771 -0.7813  0.0504 -0.0207
  529MOL0     C69703   1.513   6.076   4.837 -0.7695 -0.0076  1.4408
  529MOL0     O69704   1.398   6.021   4.801  0.6137 -0.2922 -0.9004
  529MOL0     C69705   1.317   5.958   4.906  0.0766  0.1172 -0.3863
  529MOL0     C69706   1.166   5.966   4.870  0.2008  0.2402  0.2569
  529MOL0     C69707   1.108   6.095   4.899 -0.2266 -0.0806  0.4175
  529MOL0     C69708   1.091   6.175   4.769  0.2818 -0.3619  0.0040
  529MOL0     C69709   1.032   6.316   4.788 -0.6207  0.0552  0.3480
  529MOL0     C69710   0.903   6.320   4.860 -0.3064  0.1968 -0.2955
  529MOL0     C69711   0.785   6.251   4.795  0.7966  0.1295 -0.9413
  529MOL0     C69712   0.661   6.255   4.894  0.5313  0.6820  0.3687
  529MOL0     N69713   0.573   6.137   4.871 -0.2051  0.8807 -0.4602
  529MOL0     C69714   0.511   6.110   4.755  0.1290 -0.1161 -0.6850
  529MOL0     C69715   0.438   6.001   4.779 -0.5561 -0.8128  0.3488
  529MOL0     C69716   0.333   5.931   4.689  0.4225 -0.0504  0.3457
  529MOL0     C69717   0.409   5.850   4.584  0.0916 -1.0968  0.7257
  529MOL0     C69718   0.459   5.714   4.635 -0.3276 -0.0530  0.8360
  529MOL0     C69719   0.347   5.613   4.663 -0.1570  0.0902 -0.4058
  529MOL0     O69720   0.290   5.570   4.534 -0.3275 -0.3062 -0.2490
  529MOL0     C69721   0.179   5.487   4.533  0.0516 -0.3316  0.4231
  529MOL0     C69722   0.137   5.438   4.405 -0.6231 -0.4790 -0.2794
  529MOL0     C69723   0.027   5.357   4.391  0.2862 -0.4516 -0.1055
  529MOL0     C69724  -0.053   5.327   4.501  0.3987  0.2511  0.1035
  529MOL0     C69725  -0.163   5.237   4.474  0.1912  0.5342  0.1436
  529MOL0     O69726  -0.236   5.248   4.356  0.4691 -0.1298  0.1564
  529MOL0     C69727  -0.332   5.156   4.324  0.1863 -0.6021 -0.7147
  529MOL0     C69728  -0.424   5.193   4.223 -0.2766  0.6478  1.3164
  529MOL0     C69729  -0.532   5.106   4.176  0.3289 -0.9061 -0.8352
  529MOL0     C69730  -0.551   4.981   4.235 -0.1276  0.0520 -0.4037
  529MOL0     O69731  -0.663   4.915   4.202  0.1329  0.4728  0.2833
  529MOL0     C69732  -0.707   4.806   4.278  0.7129  0.5603 -0.8427
  529MOL0     C69733  -0.826   4.735   4.214 -0.0660  0.8360 -0.4884
  529MOL0     C69734  -0.959   4.822   4.231  0.6236 -0.4059  1.3309
  529MOL0     C69735  -1.074   4.741   4.161 -0.3270  0.3070 -0.5385
  529MOL0     C69736  -1.179   4.821   4.105  0.2752 -0.3835  0.6057
  529MOL0     C69737  -1.275   4.890   4.212  0.1849 -0.5976  0.1003
  529MOL0     C69738  -1.421   4.911   4.160  0.5196 -0.0116  0.4268
  529MOL0     C69739  -1.509   5.000   4.247  0.8715 -0.1716  0.3007
  529MOL0    Cl69740  -1.469   5.170   4.231 -0.2422  0.4342 -0.1217
  529MOL0     C69741  -0.462   4.944   4.345 -0.3599  0.3682  0.0901
  529MOL0     C69742  -0.364   5.033   4.387 -0.9886 -0.8725 -0.0632
  529MOL0     O69743  -0.204   5.184   4.571  0.4721  0.5802 -0.4939
  529MOL0     C69744  -0.007   5.363   4.631 -1.0989  0.7020  0.4411
  529MOL0     C69745   0.105   5.449   4.645  0.5843  0.5008 -0.5570
  529MOL0     N69746   0.453   5.963   4.912  0.0025 -0.9130 -0.0113
  529MOL0     N69747   0.548   6.043   4.961  0.7717 -0.2379  0.2759
  529MOL0     C69748   1.525   6.191   4.904  0.1469 -1.5387  0.1228
  529MOL0     C69749   1.646   6.255   4.912 -0.0828  0.9971 -1.0793
  529MOL0     C69750   2.060   6.402   4.852  0.6039  0.0232 -0.6279
  529MOL0     C69751   2.099   6.531   4.829 -0.3666 -0.1021  0.4247
  529MOL0     C69752   2.227   6.581   4.854 -0.6184  0.1214 -0.1697
  529MOL0     C69753   2.324   6.497   4.911 -0.1065  0.8945  0.0706
  529MOL0     O69754   2.446   6.538   4.924 -0.1661  0.3703 -0.5202
  529MOL0     C69755   2.476   6.672   4.950 -0.1835 -0.1024  0.1948
  529MOL0     C69756   2.624   6.689   4.971 -0.0955  0.6075  0.2273
  529MOL0     C69757   2.706   6.624   4.853 -0.0717 -0.0309  0.4520
  529MOL0     C69758   2.848   6.674   4.862  1.0158  0.6323 -0.1709
  529MOL0     C69759   2.934   6.654   4.744  0.5755  0.9459 -0.0806
  529MOL0     C69760   2.990   6.659   4.634 -0.1145  0.9562 -0.3945
  529MOL0     C69761   2.291   6.362   4.926  0.2038 -0.5951 -0.0379
  529MOL0     C69762   2.155   6.314   4.895 -0.4426  0.0810  1.4090
  529MOL0     H69763   1.849   6.043   4.751 -0.0126  1.8434 -2.6420
  529MOL0     H69764   1.612   5.927   4.715  0.6677  0.4623 -1.1170
  529MOL0     H69765   1.333   6.010   5.001 -1.5373 -0.0833  0.0347
  529MOL0     H69766   1.341   5.856   4.935 -0.7539  0.5391  2.0091
  529MOL0     H69767   1.113   5.887   4.923 -2.0132  1.1893 -0.4336
  529MOL0     H69768   1.158   5.937   4.765  1.7724 -1.3802  0.5326
  529MOL0     H69769   1.158   6.154   4.977 -0.5715 -1.3251  1.6126
  529MOL0     H69770   1.013   6.063   4.942 -0.5418 -1.6911 -1.3679
  529MOL0     H69771   1.189   6.184   4.722  0.4421  1.4599  0.5850
  529MOL0     H69772   1.036   6.117   4.695 -1.7834 -0.7888  1.7758
  529MOL0     H69773   1.008   6.363   4.692  2.4026 -0.7900 -0.9410
  529MOL0     H69774   1.104   6.386   4.831  0.4386 -2.0268  2.1649
  529MOL0     H69775   0.872   6.424   4.851 -0.2301  0.0194 -4.4714
  529MOL0     H69776   0.924   6.288   4.963 -1.8491 -0.4141 -0.1452
  529MOL0     H69777   0.763   6.303   4.701  0.3432  0.1079 -0.8502
  529MOL0     H69778   0.798   6.145   4.770 -2.0688 -0.5584  0.1106
  529MOL0     H69779   0.603   6.347   4.889  1.8973  1.5109 -2.9592
  529MOL0     H69780   0.691   6.247   4.999 -0.0546  0.0083  0.4955
  529MOL0     H69781   0.516   6.162   4.660 -1.2871  0.4680 -0.4640
  529MOL0     H69782   0.266   6.001   4.637 -2.3507 -1.2384  2.0962
  529MOL0     H69783   0.272   5.853   4.734 -2.1298  0.0164 -2.6202
  529MOL0     H69784   0.495   5.910   4.554 -2.2294  1.4178 -1.5592
  529MOL0     H69785   0.338   5.839   4.502  1.7126  0.5881 -1.0101
  529MOL0     H69786   0.524   5.674   4.558 -0.4388  4.4353 -1.8978
  529MOL0     H69787   0.516   5.730   4.727 -1.7522  0.8649  1.5963
  529MOL0     H69788   0.279   5.659   4.735 -1.1923  2.2097 -2.6015
  529MOL0     H69789   0.389   5.522   4.707  0.0956  0.8653  1.0082
  529MOL0     H69790   0.199   5.476   4.325 -0.1096  1.5501  1.0068
  529MOL0     H69791  -0.004   5.317   4.295  2.2536 -3.5780  0.4126
  529MOL0     H69792  -0.408   5.288   4.173 -1.2992 -0.6218 -1.6288
  529MOL0     H69793  -0.612   5.146   4.115  0.8103 -3.0015 -2.9530
  529MOL0     H69794  -0.739   4.860   4.367 -0.0719  3.0261 -2.4977
  529MOL0     H69795  -0.632   4.729   4.300 -2.3930 -1.9159  2.2464
  529MOL0     H69796  -0.844   4.630   4.239  0.2869  0.4456 -1.7864
  529MOL0     H69797  -0.800   4.723   4.108 -0.0014 -0.5440 -0.3309
  529MOL0     H69798  -0.933   4.914   4.179 -0.1187  0.1307  1.9005
  529MOL0     H69799  -0.991   4.839   4.334 -0.6497  2.3613  0.5635
  529MOL0     H69800  -1.032   4.683   4.078 -1.9993  1.0320 -1.9653
  529MOL0     H69801  -1.117   4.668   4.229 -0.8592  1.8250  0.8297
  529MOL0     H69802  -1.239   4.755   4.042  2.1892 -0.0364 -1.7148
  529MOL0     H69803  -1.143   4.897   4.036 -1.9954  2.1428  2.0489
  529MOL0     H69804  -1.234   4.991   4.223  2.4701 -1.1444 -2.2170
  529MOL0     H69805  -1.282   4.833   4.305  4.3020  0.5345  1.3591
  529MOL0     H69806  -1.421   4.949   4.058  0.9607  2.4660  1.2800
  529MOL0     H69807  -1.466   4.812   4.146 -0.8063 -0.1478  4.3653
  529MOL0     H69808  -1.500   4.976   4.353 -1.5153 -1.3641  0.2962
  529MOL0     H69809  -1.616   4.995   4.224  0.6348 -0.4852  1.3965
  529MOL0     H69810  -0.469   4.856   4.409 -3.3413 -0.6465 -1.4287
  529MOL0     H69811  -0.301   5.001   4.469  2.2804  1.5908 -1.3956
  529MOL0     H69812  -0.063   5.330   4.718  0.0893  2.6934  2.0461
  529MOL0     H69813   0.117   5.497   4.742 -3.3681  0.8310 -0.0610
  529MOL0     H69814   1.437   6.238   4.949  1.1871  2.0343 -1.2098
  529MOL0     H69815   1.647   6.355   4.956 -1.6666  1.7507 -2.6388
  529MOL0     H69816   2.031   6.602   4.784  0.2826  0.9048  0.9654
  529MOL0     H69817   2.231   6.689   4.841 -2.6679  0.0616 -1.8964
  529MOL0     H69818   2.408   6.715   5.025 -2.4648 -1.1058 -1.1765
  529MOL0     H69819   2.457   6.721   4.853  1.8937 -1.3984 -0.9227
  529MOL0     H69820   2.640   6.797   4.979  1.4786  0.4454 -0.4659
  529MOL0     H69821   2.659   6.646   5.066 -2.8836  1.3181  1.6872
  529MOL0     H69822   2.682   6.667   4.755  1.8297 -1.1360 -0.5469
  529MOL0     H69823   2.696   6.516   4.866 -0.2643  0.0443  0.9600
  529MOL0     H69824   2.831   6.780   4.881 -2.1743  1.1613 -4.5231
  529MOL0     H69825   2.899   6.632   4.949  3.9500  1.4417 -1.4026
  529MOL0     H69826   3.029   6.661   4.534 -1.5342  1.4844 -0.9708
  529MOL0     H69827   2.348   6.275   4.956 -1.0956 -1.4438  0.0594
  529MOL0     H69828   2.134   6.209   4.914  1.2766 -0.0348  2.9604
  530MOL0     O69829   6.694   6.236   3.782 -0.4518 -0.6943  0.1666
  530MOL0     C69830   6.712   6.270   3.899  0.8270 -0.6645 -1.0264
  530MOL0     O69831   6.610   6.313   3.981 -0.0476 -0.4831  0.0667
  530MOL0     C69832   6.484   6.298   3.941  0.0106  0.2862  0.3793
  530MOL0     C69833   6.432   6.366   3.829 -0.2071  1.5385  0.5120
  530MOL0     C69834   6.296   6.328   3.779 -0.4328  0.2775 -0.2999
  530MOL0     C69835   6.212   6.238   3.854  0.2220  0.0511 -0.3568
  530MOL0     O69836   6.079   6.214   3.831 -0.3331 -0.1131  0.3623
  530MOL0     C69837   6.055   6.184   3.693 -0.3868  0.1273  0.3179
  530MOL0     C69838   5.914   6.220   3.649  0.5775  0.1553 -0.6974
  530MOL0     C69839   5.805   6.178   3.755  0.1195 -0.1323  0.1116
  530MOL0     C69840   5.670   6.161   3.699  0.7829  0.4446  0.2236
  530MOL0     C69841   5.560   6.191   3.802 -0.5353  0.2107 -0.2948
  530MOL0     C69842   5.439   6.094   3.779 -1.5060 -0.7614 -0.2049
  530MOL0     C69843   5.317   6.138   3.860 -0.0726  0.8480 -0.4213
  530MOL0     C69844   5.202   6.044   3.852  0.0543 -0.1767 -0.1621
  530MOL0     N69845   5.094   6.084   3.947  0.2563  0.5665  0.0630
  530MOL0     C69846   5.070   6.026   4.068 -0.3359 -0.3054 -0.8514
  530MOL0     C69847   4.979   6.110   4.126  0.2813 -0.6069  0.2092
  530MOL0     C69848   4.918   6.076   4.260 -0.3737  0.9051 -0.5478
  530MOL0     C69849   5.009   6.109   4.381  0.2905 -0.3104  0.4036
  530MOL0     C69850   5.010   6.259   4.438  0.1570 -0.0962  0.2758
  530MOL0     C69851   5.066   6.352   4.333  0.1895 -1.0766 -0.8495
  530MOL0     O69852   5.185   6.294   4.273 -0.1823 -0.9892 -0.0819
  530MOL0     C69853   5.309   6.357   4.262 -0.0943 -0.2615 -0.5741
  530MOL0     C69854   5.341   6.490   4.296  0.2033  0.7673 -0.4037
  530MOL0     C69855   5.462   6.541   4.269  0.0035  0.6216  0.2315
  530MOL0     C69856   5.567   6.463   4.209 -0.2965  0.2048 -0.2458
  530MOL0     C69857   5.703   6.519   4.198 -0.1600 -0.2636 -0.1681
  530MOL0     O69858   5.795   6.466   4.110  0.3838  0.6226 -0.1632
  530MOL0     C69859   5.904   6.547   4.083 -0.1538 -0.0915 -0.6462
  530MOL0     C69860   6.031   6.489   4.085 -0.5739 -0.5526  0.1751
  530MOL0     C69861   6.146   6.562   4.064  0.0158 -1.0105 -0.2023
  530MOL0     C69862   6.139   6.701   4.036  0.0253  0.5918  0.1249
  530MOL0     O69863   6.250   6.771   4.005  0.6043  0.0333 -0.5435
  530MOL0     C69864   6.375   6.704   3.989 -0.0305 -1.1073  0.6200
  530MOL0     C69865   6.482   6.812   3.991 -0.4924 -0.0354 -0.5461
  530MOL0     C69866   6.619   6.747   3.967 -1.1745  0.5783 -0.7019
  530MOL0     C69867   6.719   6.856   3.945 -0.4838 -0.1270  0.5880
  530MOL0     C69868   6.855   6.815   3.876  0.9816  0.1683  0.3246
  530MOL0     C69869   6.965   6.920   3.895 -0.6444 -0.2917 -0.3441
  530MOL0     C69870   7.098   6.856   3.832 -0.1875 -0.0209 -0.8533
  530MOL0     C69871   7.094   6.849   3.682 -0.9530 -0.2206 -0.3357
  530MOL0    Cl69872   7.098   7.014   3.617 -0.2250 -0.1684  0.0020
  530MOL0     C69873   6.012   6.756   4.023  0.4111 -0.2120 -0.3561
  530MOL0     C69874   5.889   6.679   4.046 -0.4273  0.0676  0.2879
  530MOL0     O69875   5.722   6.616   4.274 -0.4563 -0.1380  0.1067
  530MOL0     C69876   5.534   6.330   4.182  0.1032 -0.1034 -0.2924
  530MOL0     C69877   5.407   6.285   4.197 -0.5429 -0.6745  0.0519
  530MOL0     N69878   4.957   6.218   4.033  0.6095 -0.8238 -0.1797
  530MOL0     N69879   5.026   6.199   3.927  0.1688  0.4050 -0.2593
  530MOL0     C69880   6.260   6.181   3.973 -1.0724 -0.2057 -1.1900
  530MOL0     C69881   6.397   6.220   4.012  0.2583 -0.8505 -0.4220
  530MOL0     C69882   6.846   6.275   3.954 -0.9080 -1.3419  0.2739
  530MOL0     C69883   6.951   6.336   3.891 -1.0306  0.3481 -0.2123
  530MOL0     C69884   7.084   6.352   3.950  0.5032  0.9175 -0.5011
  530MOL0     C69885   7.112   6.310   4.084  0.0720 -0.0107 -0.1973
  530MOL0     O69886   7.233   6.326   4.149 -0.2660 -0.6950 -0.8267
  530MOL0     C69887   7.343   6.358   4.075  0.2098  0.3300  0.7142
  530MOL0     C69888   7.462   6.307   4.156 -0.9777  0.6495 -0.2703
  530MOL0     C69889   7.604   6.366   4.105  1.2446 -0.2306  0.7772
  530MOL0     C69890   7.714   6.320   4.206 -0.3839 -0.4944  0.7771
  530MOL0     C69891   7.844   6.366   4.153 -0.6163 -0.0560  0.0454
  530MOL0     C69892   7.949   6.400   4.105  0.3355 -0.2094 -0.4976
  530MOL0     C69893   7.001   6.250   4.147 -0.3820  0.4598  0.7138
  530MOL0     C69894   6.873   6.229   4.085  0.1779 -0.1346 -0.4670
  530MOL0     H69895   6.502   6.435   3.784  1.8552  1.0666  2.7791
  530MOL0     H69896   6.252   6.371   3.690 -0.2554 -1.0626 -1.0642
  530MOL0     H69897   6.080   6.079   3.673  1.1496  0.4912  0.2112
  530MOL0     H69898   6.119   6.237   3.622 -0.5845 -1.7281 -1.3303
  530MOL0     H69899   5.889   6.181   3.550  1.3262 -1.9957 -0.0960
  530MOL0     H69900   5.911   6.330   3.644  3.5725  0.4253  1.1921
  530MOL0     H69901   5.802   6.265   3.822  0.6548 -1.0641  1.3768
  530MOL0     H69902   5.837   6.095   3.818  0.7698  0.6683  0.8660
  530MOL0     H69903   5.668   6.226   3.611 -1.6560  1.3715  0.8736
  530MOL0     H69904   5.667   6.057   3.666  0.2217  0.8804 -1.1495
  530MOL0     H69905   5.531   6.295   3.788 -1.4353 -0.1865 -1.4932
  530MOL0     H69906   5.595   6.167   3.903 -0.4431  0.9285 -0.1543
  530MOL0     H69907   5.472   6.001   3.826 -1.6955 -0.8765 -0.2997
  530MOL0     H69908   5.398   6.082   3.679 -4.0205  0.5008  0.5659
  530MOL0     H69909   5.342   6.135   3.966  0.4624 -0.6872 -0.5617
  530MOL0     H69910   5.292   6.240   3.829 -1.3928  0.6246 -0.1382
  530MOL0     H69911   5.227   5.939   3.874  3.7443  0.5404 -0.1757
  530MOL0     H69912   5.159   6.051   3.752 -1.2896  0.4474  0.4455
  530MOL0     H69913   5.127   5.944   4.111 -0.5643  0.7840  1.7364
  530MOL0     H69914   4.884   5.972   4.261 -1.7223  1.2456  3.2636
  530MOL0     H69915   4.832   6.142   4.270 -2.4763 -1.5767 -1.0814
  530MOL0     H69916   5.112   6.074   4.368 -0.3375 -1.9770 -0.4123
  530MOL0     H69917   4.964   6.051   4.462 -0.1256 -0.3568  0.1448
  530MOL0     H69918   4.906   6.284   4.459  0.0266 -0.8640  0.6071
  530MOL0     H69919   5.075   6.256   4.526  0.3577 -0.6051  0.1186
  530MOL0     H69920   5.088   6.443   4.389 -0.8134 -0.4664 -1.4076
  530MOL0     H69921   4.990   6.366   4.256  0.0536 -1.7077 -0.8359
  530MOL0     H69922   5.263   6.545   4.349 -0.3094  0.2161 -0.5838
  530MOL0     H69923   5.482   6.640   4.306  0.6156 -0.0564  1.8158
  530MOL0     H69924   6.029   6.385   4.116  1.1659 -1.4582 -2.4249
  530MOL0     H69925   6.242   6.514   4.071  0.2703 -0.7591 -1.6507
  530MOL0     H69926   6.364   6.650   3.894 -1.0368 -1.0515  0.6852
  530MOL0     H69927   6.398   6.630   4.065 -0.3912 -1.1203  0.7209
  530MOL0     H69928   6.495   6.858   4.090  0.3337  1.7635 -1.4254
  530MOL0     H69929   6.463   6.895   3.922  0.9992 -1.9898 -3.4906
  530MOL0     H69930   6.616   6.679   3.882 -2.5895  0.5509 -0.6545
  530MOL0     H69931   6.648   6.679   4.047  0.3828  2.9447  0.8791
  530MOL0     H69932   6.681   6.933   3.878  1.0623 -2.3574 -3.1690
  530MOL0     H69933   6.751   6.891   4.043  0.4316 -0.1684  0.3183
  530MOL0     H69934   6.841   6.797   3.770 -2.0557  1.2333  0.4589
  530MOL0     H69935   6.880   6.719   3.922 -0.0297 -0.5401 -0.5744
  530MOL0     H69936   6.991   6.937   4.000 -0.6638 -2.6328  0.0963
  530MOL0     H69937   6.931   7.017   3.857 -0.9037 -0.4398 -0.4909
  530MOL0     H69938   7.185   6.919   3.850  1.5510 -2.6421  0.3935
  530MOL0     H69939   7.123   6.758   3.872  0.3000  0.0609 -0.9566
  530MOL0     H69940   7.006   6.799   3.640 -2.3496 -0.3340  2.4953
  530MOL0     H69941   7.182   6.789   3.656 -0.1954 -0.2286  1.9982
  530MOL0     H69942   6.000   6.858   3.989 -0.2168 -0.9651 -2.5278
  530MOL0     H69943   5.789   6.721   4.045 -1.3987 -2.0951 -0.1737
  530MOL0     H69944   5.610   6.259   4.149  1.3171  0.7940  0.4997
  530MOL0     H69945   5.387   6.179   4.181  2.4119 -1.1885 -0.8356
  530MOL0     H69946   6.210   6.124   4.051 -0.2229  1.3473  0.5812
  530MOL0     H69947   6.435   6.168   4.100  2.0999 -2.4437 -2.0630
  530MOL0     H69948   6.924   6.398   3.806  0.5404 -0.3432 -1.2874
  530MOL0     H69949   7.171   6.395   3.901 -0.3453 -0.4040 -3.3635
  530MOL0     H69950   7.349   6.463   4.047 -0.9404  0.4287  0.7795
  530MOL0     H69951   7.349   6.294   3.986 -1.9654 -0.5543  1.1351
  530MOL0     H69952   7.444   6.335   4.260  1.9676  3.5327 -0.3746
  530MOL0     H69953   7.465   6.198   4.154 -2.3806  0.5915 -0.4367
  530MOL0     H69954   7.587   6.473   4.093  0.3600 -0.3526  0.8630
  530MOL0     H69955   7.626   6.328   4.004 -1.9525 -1.7380  0.5221
  530MOL0     H69956   7.691   6.364   4.303  2.5800  2.6755  0.2446
  530MOL0     H69957   7.707   6.212   4.214 -1.8820 -0.4429  0.5651
  530MOL0     H69958   8.042   6.415   4.054  1.4482 -1.7352  0.9714
  530MOL0     H69959   7.021   6.213   4.247  1.4356  0.1161  0.2624
  530MOL0     H69960   6.793   6.182   4.140 -1.0591  1.4663 -0.8226
  531MOL0     O69961   5.861   4.897   7.277 -0.3268 -0.6238  0.2800
  531MOL0     C69962   5.905   4.934   7.168  0.3570  0.3647 -0.6891
  531MOL0     O69963   5.831   4.980   7.067  0.9644  0.2672  0.3632
  531MOL0     C69964   5.692   4.978   7.097 -0.1639 -0.1244 -0.2961
  531MOL0     C69965   5.640   5.084   7.163 -0.2703  0.6854 -0.6776
  531MOL0     C69966   5.502   5.097   7.181  0.0098  0.5566  0.8916
  531MOL0     C69967   5.416   5.006   7.115 -0.3692 -0.7373 -0.3696
  531MOL0     O69968   5.288   5.011   7.145  0.2482 -0.6780  0.3062
  531MOL0     C69969   5.192   5.001   7.036  0.6224 -0.3669 -1.1089
  531MOL0     C69970   5.089   5.116   7.060 -0.1948  0.2109  0.2102
  531MOL0     C69971   5.001   5.099   7.183 -1.3598  0.3489 -0.3146
  531MOL0     C69972   4.885   5.188   7.168  0.4790 -0.3385 -0.1886
  531MOL0     C69973   4.773   5.131   7.085  0.7023 -0.7968  0.5271
  531MOL0     C69974   4.686   5.034   7.176  0.2801 -0.5514 -0.1559
  531MOL0     C69975   4.540   5.015   7.129 -0.3034  0.5179  0.2216
  531MOL0     C69976   4.456   5.142   7.152  0.2979  0.5869  0.0844
  531MOL0     N69977   4.315   5.118   7.193  0.1261  0.7303  0.1652
  531MOL0     C69978   4.252   5.091   7.317  0.0056  0.1381  0.3131
  531MOL0     C69979   4.121   5.126   7.297  0.3756 -0.1788 -0.8919
  531MOL0     C69980   4.004   5.128   7.390  0.4931 -0.3686 -0.4307
  531MOL0     C69981   3.922   5.002   7.358 -0.6335 -0.9706  0.1356
  531MOL0     C69982   3.827   5.011   7.237 -0.4241 -0.1408  0.3729
  531MOL0     C69983   3.726   5.128   7.247  0.7213 -0.7892  0.0496
  531MOL0     O69984   3.629   5.114   7.351  0.6481  0.0596 -0.3550
  531MOL0     C69985   3.502   5.163   7.324 -1.0277 -0.6009  0.2173
  531MOL0     C69986   3.491   5.296   7.301 -0.2856  0.7200  0.2328
  531MOL0     C69987   3.360   5.362   7.295  0.5844 -0.2393  0.3713
  531MOL0     C69988   3.249   5.287   7.305  0.1878  0.4581  0.4295
  531MOL0     C69989   3.110   5.343   7.301 -0.1782 -0.4567  0.2479
  531MOL0     O69990   3.003   5.269   7.333  0.3543  0.0369 -0.3117
  531MOL0     C69991   2.877   5.321   7.317  0.6600 -0.5739  0.1492
  531MOL0     C69992   2.778   5.282   7.408  0.2655 -0.1984  0.5914
  531MOL0     C69993   2.638   5.316   7.398  0.0693 -0.2150  0.7811
  531MOL0     C69994   2.602   5.402   7.295 -0.2874  0.8091 -0.2269
  531MOL0     O69995   2.472   5.448   7.285 -0.5662 -0.1653 -0.5344
  531MOL0     C69996   2.366   5.371   7.342  0.3988  0.4633 -0.6254
  531MOL0     C69997   2.235   5.429   7.290  0.4423  1.5900 -0.4982
  531MOL0     C69998   2.162   5.520   7.393 -0.4897  0.1486 -0.3605
  531MOL0     C69999   2.021   5.561   7.342  0.7856  0.8621  0.0189
  531MOL0     C70000   1.994   5.688   7.402 -0.0546 -0.7260 -0.3147
  531MOL0     C70001   1.852   5.740   7.357 -0.1957  0.3476  0.5892
  531MOL0     C70002   1.742   5.649   7.405  0.4391 -0.6894  0.7797
  531MOL0     C70003   1.608   5.712   7.363  0.1237 -0.7521 -0.6124
  531MOL0    Cl70004   1.475   5.598   7.331  0.1669 -0.2445 -0.0791
  531MOL0     C70005   2.694   5.438   7.200 -0.3281  0.7657  0.0012
  531MOL0     C70006   2.838   5.406   7.210  0.8055  1.0247  1.1257
  531MOL0     O70007   3.105   5.465   7.274  0.6869  0.4194  0.3409
  531MOL0     C70008   3.268   5.145   7.315 -0.1849 -0.1383  0.6267
  531MOL0     C70009   3.390   5.084   7.344  0.7745 -0.5299  0.4302
  531MOL0     N70010   4.113   5.163   7.161  1.3577 -0.9812 -0.1718
  531MOL0     N70011   4.222   5.148   7.099 -0.2379 -0.2168  0.0458
  531MOL0     C70012   5.475   4.901   7.049  0.0486  0.8888  0.6432
  531MOL0     C70013   5.611   4.879   7.049 -0.7442 -0.3952  0.4717
  531MOL0     C70014   6.039   4.881   7.141  0.2392  0.7750 -0.3843
  531MOL0     C70015   6.083   4.867   7.009 -0.3213 -0.4673  0.2604
  531MOL0     C70016   6.207   4.803   6.980  1.0245 -0.2776 -0.1006
  531MOL0     C70017   6.297   4.769   7.080 -0.6062  0.8232  0.3309
  531MOL0     O70018   6.424   4.716   7.047  0.2175  0.9463 -0.0486
  531MOL0     C70019   6.527   4.723   7.139  0.4728 -0.6558 -0.2741
  531MOL0     C70020   6.639   4.652   7.075  0.1078  0.0607  0.4914
  531MOL0     C70021   6.703   4.754   6.976  0.5305 -0.3139 -0.3264
  531MOL0     C70022   6.815   4.679   6.907 -0.5571  0.4507  0.6731
  531MOL0     C70023   6.903   4.593   6.979  1.1760  0.2219 -0.3851
  531MOL0     C70024   6.961   4.503   7.041 -0.1269  0.4194 -0.5528
  531MOL0     C70025   6.256   4.788   7.213 -0.5985  0.7165 -0.3666
  531MOL0     C70026   6.133   4.844   7.237  0.1336 -0.3466 -0.1228
  531MOL0     H70027   5.711   5.153   7.207  1.1365 -0.1159 -1.6121
  531MOL0     H70028   5.458   5.171   7.247 -0.3103  0.3469  0.9135
  531MOL0     H70029   5.139   4.906   7.043 -0.6212  0.3726 -0.2008
  531MOL0     H70030   5.247   5.019   6.943  1.8662  2.4832  0.0629
  531MOL0     H70031   5.027   5.129   6.971 -0.5896  0.6055  0.5365
  531MOL0     H70032   5.132   5.215   7.072 -1.1768  1.0607 -2.6034
  531MOL0     H70033   5.059   5.122   7.273  0.0310 -0.9278 -0.8545
  531MOL0     H70034   4.975   4.994   7.197  0.6949 -0.2922 -0.9620
  531MOL0     H70035   4.845   5.216   7.266  0.5920  1.1286 -0.5351
  531MOL0     H70036   4.923   5.283   7.128  1.9927 -0.1607  1.5424
  531MOL0     H70037   4.810   5.066   7.006  0.9004 -1.0584  0.8338
  531MOL0     H70038   4.716   5.216   7.045 -1.0212 -1.9400  0.4350
  531MOL0     H70039   4.683   5.078   7.276 -0.6681 -0.5299 -0.1824
  531MOL0     H70040   4.739   4.939   7.183 -0.0790 -0.7800 -0.5129
  531MOL0     H70041   4.537   4.991   7.022 -0.3369 -0.8457  0.5041
  531MOL0     H70042   4.495   4.928   7.178  2.2979 -1.9777 -1.4717
  531MOL0     H70043   4.473   5.213   7.071  1.1786  0.7800  0.4306
  531MOL0     H70044   4.487   5.204   7.236 -1.4091 -2.3242  3.1184
  531MOL0     H70045   4.302   5.062   7.408  0.7004  2.3369  0.6846
  531MOL0     H70046   3.946   5.219   7.376 -0.6050 -0.7706  1.2995
  531MOL0     H70047   4.029   5.130   7.496  0.8001  0.7186 -0.5117
  531MOL0     H70048   3.859   4.986   7.445 -3.0316  0.6963 -1.1728
  531MOL0     H70049   3.994   4.921   7.350  0.9413  0.3956 -0.0988
  531MOL0     H70050   3.896   5.006   7.153  2.0991 -2.9809  2.3884
  531MOL0     H70051   3.766   4.921   7.227 -1.5458  0.6741 -0.3022
  531MOL0     H70052   3.684   5.132   7.146 -0.0157 -2.9809  0.2062
  531MOL0     H70053   3.783   5.221   7.247  4.8851 -2.9394 -3.7417
  531MOL0     H70054   3.578   5.359   7.313  0.5973 -0.8403  3.0131
  531MOL0     H70055   3.355   5.470   7.281  2.1758 -0.4296 -2.6626
  531MOL0     H70056   2.810   5.217   7.488  0.1847 -2.1982 -0.9154
  531MOL0     H70057   2.562   5.281   7.468 -3.2571 -0.7224 -2.7123
  531MOL0     H70058   2.380   5.366   7.451 -1.4838  2.7278 -0.1961
  531MOL0     H70059   2.369   5.273   7.293 -1.9085  0.1303 -0.1869
  531MOL0     H70060   2.170   5.347   7.259 -0.7322  2.9474 -1.7915
  531MOL0     H70061   2.266   5.483   7.200  0.8306  0.5262 -1.0120
  531MOL0     H70062   2.221   5.608   7.419 -1.8722  1.0746 -0.2799
  531MOL0     H70063   2.144   5.467   7.487  2.0185 -1.5318 -0.7035
  531MOL0     H70064   2.024   5.574   7.233 -1.9751 -3.2415 -0.7755
  531MOL0     H70065   1.948   5.486   7.374  3.6348 -1.2241  2.1728
  531MOL0     H70066   2.075   5.760   7.387  1.0738 -1.5168  1.5913
  531MOL0     H70067   1.991   5.682   7.512 -0.0038 -0.6049 -0.3060
  531MOL0     H70068   1.859   5.747   7.248 -1.2910  1.9017  0.5815
  531MOL0     H70069   1.838   5.845   7.385 -1.9319 -0.2479  2.1255
  531MOL0     H70070   1.738   5.550   7.358  0.8244 -2.0555  3.3757
  531MOL0     H70071   1.743   5.637   7.514  0.5181  0.2793  0.8944
  531MOL0     H70072   1.630   5.785   7.285  2.5533  0.9995  1.5513
  531MOL0     H70073   1.581   5.777   7.447  1.4704  1.1228 -1.5466
  531MOL0     H70074   2.666   5.497   7.113 -4.5578 -2.6214 -1.2689
  531MOL0     H70075   2.901   5.456   7.136 -0.5691 -0.2799 -1.0568
  531MOL0     H70076   3.179   5.084   7.330 -0.6619  0.5354  0.5974
  531MOL0     H70077   3.389   4.980   7.377 -0.7844 -0.4527  0.6984
  531MOL0     H70078   5.410   4.826   7.006 -0.2547 -0.4640  3.2705
  531MOL0     H70079   5.664   4.795   7.005  0.0490  0.2447  0.1895
  531MOL0     H70080   6.020   4.897   6.926 -0.5277 -2.9506 -0.5870
  531MOL0     H70081   6.223   4.781   6.875  0.3910 -1.0627 -0.0454
  531MOL0     H70082   6.507   4.667   7.230 -0.7062 -1.3778 -0.9578
  531MOL0     H70083   6.547   4.828   7.162  0.0784 -0.2967 -1.5122
  531MOL0     H70084   6.710   4.621   7.153  0.1264  2.1787  1.3839
  531MOL0     H70085   6.601   4.558   7.034 -2.6772  0.5329  1.8087
  531MOL0     H70086   6.757   4.827   7.037  0.6182 -1.5261  1.1049
  531MOL0     H70087   6.627   4.806   6.917  2.4045  0.8906 -1.8037
  531MOL0     H70088   6.769   4.629   6.820  1.5590  0.1290 -0.3226
  531MOL0     H70089   6.876   4.756   6.860 -1.7900  0.3417 -1.2303
  531MOL0     H70090   7.016   4.416   7.071  1.5944  1.6900  0.1596
  531MOL0     H70091   6.310   4.748   7.298  0.3998 -2.7752 -2.4398
  531MOL0     H70092   6.106   4.858   7.342  3.1738  0.2877  0.6721
  532MOL0     O70093   0.543   8.745   9.341 -0.3484  0.2892  0.3248
  532MOL0     C70094   0.550   8.838   9.259 -0.0170  0.3643  0.1440
  532MOL0     O70095   0.448   8.898   9.194 -0.7724 -0.1533 -0.2524
  532MOL0     C70096   0.322   8.873   9.225  0.2335  0.1143  0.7512
  532MOL0     C70097   0.224   8.914   9.133  0.5219  0.2138  0.0215
  532MOL0     C70098   0.087   8.882   9.145  0.2717 -0.6283 -0.3992
  532MOL0     C70099   0.039   8.818   9.263  0.3575  0.7519  0.1565
  532MOL0     O70100  -0.098   8.808   9.279 -0.1212 -0.1808  0.3807
  532MOL0     C70101  -0.152   8.781   9.412 -0.6563 -0.2879  0.2023
  532MOL0     C70102  -0.292   8.810   9.440 -0.0031 -1.1669  0.0833
  532MOL0     C70103  -0.392   8.708   9.391  0.3060  0.2636  0.4425
  532MOL0     C70104  -0.520   8.779   9.349  0.0702 -0.7006 -0.0042
  532MOL0     C70105  -0.619   8.678   9.302  0.0462 -0.3433 -0.2709
  532MOL0     C70106  -0.763   8.739   9.273 -0.2362  0.8675 -0.4632
  532MOL0     C70107  -0.871   8.626   9.263  0.0124  0.2536  0.5922
  532MOL0     C70108  -0.858   8.542   9.135 -1.2103 -0.4107 -0.0013
  532MOL0     N70109  -0.982   8.473   9.105  0.1145 -0.8523  0.1035
  532MOL0     C70110  -0.996   8.339   9.076 -0.2557  0.4519 -1.0909
  532MOL0     C70111  -1.120   8.314   9.051  0.6270 -0.1012 -0.1818
  532MOL0     C70112  -1.175   8.180   9.006  0.2044  0.6660 -0.2069
  532MOL0     C70113  -1.311   8.161   9.084  0.3062 -0.7058  0.6539
  532MOL0     C70114  -1.408   8.080   8.997 -0.1987 -0.5082 -0.5979
  532MOL0     C70115  -1.521   8.018   9.088  0.0815  0.4419  0.0961
  532MOL0     O70116  -1.646   8.020   9.012 -0.1269 -0.6771  0.3534
  532MOL0     C70117  -1.747   7.937   9.042 -0.1427  0.5544 -0.0332
  532MOL0     C70118  -1.749   7.853   9.161  0.7367 -0.1497  0.1303
  532MOL0     C70119  -1.869   7.798   9.217 -1.2926 -0.6993 -0.5636
  532MOL0     C70120  -1.987   7.808   9.136 -0.0640  0.5338 -0.9585
  532MOL0     C70121  -2.116   7.735   9.173  0.1253 -0.6729 -0.1714
  532MOL0     O70122  -2.200   7.733   9.079  0.3070  0.3251  0.0003
  532MOL0     C70123  -2.319   7.677   9.088  0.3805  0.5786  0.2678
  532MOL0     C70124  -2.429   7.756   9.058 -0.3876 -0.3778  0.7481
  532MOL0     C70125  -2.556   7.701   9.056 -0.0528  0.4489  0.7054
  532MOL0     C70126  -2.573   7.561   9.068  0.2041 -0.0603  0.5761
  532MOL0     O70127  -2.706   7.516   9.060 -0.3122 -0.7874  0.1264
  532MOL0     C70128  -2.728   7.392   9.000  0.0092  0.3875  0.0935
  532MOL0     C70129  -2.875   7.387   8.978  0.8348  0.2007  0.2374
  532MOL0     C70130  -2.962   7.352   9.109  0.7161  0.1181  0.2212
  532MOL0     C70131  -3.112   7.310   9.085  0.7320  0.0177  0.6199
  532MOL0     C70132  -3.142   7.175   9.156  0.6696 -1.2649  0.6991
  532MOL0     C70133  -3.289   7.138   9.155 -0.0103 -0.2203  0.4707
  532MOL0     C70134  -3.369   7.221   9.255 -0.4559 -0.0776 -0.6585
  532MOL0     C70135  -3.521   7.191   9.234  0.5784 -0.5660 -0.1526
  532MOL0    Cl70136  -3.551   7.035   9.292 -0.1138  0.1786  0.6253
  532MOL0     C70137  -2.465   7.483   9.087 -0.4875 -0.3183 -0.6587
  532MOL0     C70138  -2.341   7.539   9.094 -0.6129 -0.0389 -0.2003
  532MOL0     O70139  -2.128   7.699   9.292 -0.0874  1.1165 -0.5636
  532MOL0     C70140  -1.984   7.891   9.024 -0.3522  0.3528  0.8910
  532MOL0     C70141  -1.869   7.955   8.974 -0.2969  1.0982  0.5313
  532MOL0     N70142  -1.186   8.437   9.046  0.5001 -0.0632 -0.2204
  532MOL0     N70143  -1.097   8.532   9.065  0.0383  0.0984  0.6662
  532MOL0     C70144   0.137   8.787   9.365  0.2433 -1.0902  0.3155
  532MOL0     C70145   0.276   8.818   9.345 -0.3097 -0.2264  1.1683
  532MOL0     C70146   0.683   8.872   9.210 -0.7333 -0.5535  0.4431
  532MOL0     C70147   0.699   8.930   9.086  0.9140 -0.1693  0.1676
  532MOL0     C70148   0.828   8.965   9.040  0.7871  0.0361 -0.0640
  532MOL0     C70149   0.942   8.946   9.117  0.6423 -0.3578 -0.0156
  532MOL0     O70150   1.064   8.988   9.074  0.0528  0.3791  0.1561
  532MOL0     C70151   1.187   8.978   9.154  0.3765  0.6193 -0.4308
  532MOL0     C70152   1.239   8.834   9.131  0.1457  0.1925  0.1648
  532MOL0     C70153   1.390   8.829   9.149 -0.1375  0.0390 -0.8388
  532MOL0     C70154   1.448   8.690   9.182  0.1455  0.3380  0.3243
  532MOL0     C70155   1.587   8.674   9.130  0.2660  0.5452 -0.0262
  532MOL0     C70156   1.705   8.667   9.107  0.1103  0.4187 -0.1239
  532MOL0     C70157   0.927   8.881   9.239 -0.3083  0.0376  0.0636
  532MOL0     C70158   0.799   8.845   9.282  1.0939  1.2289 -0.3604
  532MOL0     H70159   0.258   8.967   9.044  0.1091  2.6269  1.2365
  532MOL0     H70160   0.003   8.910   9.083 -2.3697  0.9040  3.4679
  532MOL0     H70161  -0.098   8.836   9.489 -1.1803  1.4635 -0.6322
  532MOL0     H70162  -0.127   8.675   9.426 -0.8738 -0.3464  0.1511
  532MOL0     H70163  -0.310   8.909   9.398 -1.0441 -1.4784 -0.2463
  532MOL0     H70164  -0.301   8.822   9.548  0.3713  2.8427 -0.1757
  532MOL0     H70165  -0.399   8.626   9.463  0.5532 -0.9078 -0.8331
  532MOL0     H70166  -0.350   8.660   9.302 -0.6840  1.7658 -0.8872
  532MOL0     H70167  -0.561   8.836   9.433 -1.5014 -1.7888  0.0032
  532MOL0     H70168  -0.506   8.845   9.263 -3.6371  0.9030  0.4479
  532MOL0     H70169  -0.623   8.597   9.377  2.1436 -2.5164 -2.3404
  532MOL0     H70170  -0.591   8.632   9.207 -1.4416 -2.8479  0.3968
  532MOL0     H70171  -0.760   8.797   9.180  0.5744  3.0713  0.8792
  532MOL0     H70172  -0.793   8.810   9.350 -5.0460 -0.8778 -0.4095
  532MOL0     H70173  -0.856   8.568   9.355  4.2774  1.4848  0.8776
  532MOL0     H70174  -0.975   8.660   9.261 -1.1077 -2.7928 -1.2360
  532MOL0     H70175  -0.778   8.472   9.161 -1.5667 -0.9809 -0.4178
  532MOL0     H70176  -0.822   8.607   9.054  1.8832  2.2425  3.1962
  532MOL0     H70177  -0.917   8.265   9.084 -0.7225  0.1330  1.3036
  532MOL0     H70178  -1.110   8.097   9.035 -1.9452 -0.7190  0.9558
  532MOL0     H70179  -1.190   8.171   8.898 -3.8597  0.3662  0.2446
  532MOL0     H70180  -1.352   8.256   9.118  2.5007  0.2993  0.6824
  532MOL0     H70181  -1.282   8.104   9.173  1.5048  0.6031  1.1514
  532MOL0     H70182  -1.446   8.139   8.913 -1.0967 -0.9600 -0.5179
  532MOL0     H70183  -1.354   7.999   8.946 -0.8392 -0.9372 -0.6062
  532MOL0     H70184  -1.531   8.090   9.170 -1.9472  0.9376 -0.5314
  532MOL0     H70185  -1.486   7.918   9.113 -2.8874 -0.4818  1.0734
  532MOL0     H70186  -1.661   7.855   9.225 -0.7427  0.7565  2.2283
  532MOL0     H70187  -1.867   7.735   9.305 -0.4868  0.9968  0.6923
  532MOL0     H70188  -2.416   7.861   9.035 -1.3850 -0.1338  1.2491
  532MOL0     H70189  -2.651   7.750   9.037 -0.2991  0.0384  0.8584
  532MOL0     H70190  -2.700   7.312   9.068 -0.1977  0.0549 -0.2043
  532MOL0     H70191  -2.671   7.375   8.908  2.4774 -0.3492  1.6755
  532MOL0     H70192  -2.902   7.320   8.896 -0.4955  1.2193 -0.1835
  532MOL0     H70193  -2.918   7.482   8.944 -2.2028 -0.9187  0.6430
  532MOL0     H70194  -2.943   7.440   9.172  1.2233  0.7391 -0.7720
  532MOL0     H70195  -2.909   7.265   9.150  4.6090  1.6449 -1.1028
  532MOL0     H70196  -3.184   7.382   9.126  2.5719  2.5276 -0.3389
  532MOL0     H70197  -3.128   7.310   8.977 -1.7905 -0.2416  0.9321
  532MOL0     H70198  -3.115   7.181   9.262  0.1250 -0.1623  0.7971
  532MOL0     H70199  -3.084   7.098   9.105  1.7453 -0.1539  0.1791
  532MOL0     H70200  -3.291   7.032   9.181  1.5105  0.1797  2.5739
  532MOL0     H70201  -3.322   7.154   9.052  0.3195 -2.4466 -0.0189
  532MOL0     H70202  -3.337   7.193   9.356 -0.8966  0.6528 -0.3066
  532MOL0     H70203  -3.352   7.329   9.249  0.6948  0.0047  2.4750
  532MOL0     H70204  -3.541   7.210   9.128 -2.3128  3.3182  0.8730
  532MOL0     H70205  -3.585   7.265   9.282  0.5422 -1.2644  0.9241
  532MOL0     H70206  -2.473   7.379   9.116  0.6377 -0.2421 -0.0196
  532MOL0     H70207  -2.254   7.477   9.112 -0.1121  0.8335  0.4263
  532MOL0     H70208  -2.075   7.909   8.966  0.7997 -0.5443 -1.3206
  532MOL0     H70209  -1.880   8.022   8.889 -0.6156 -0.1921 -0.4657
  532MOL0     H70210   0.106   8.739   9.457 -1.1719 -0.4166  0.2099
  532MOL0     H70211   0.338   8.788   9.429 -0.6651  2.3088  2.4226
  532MOL0     H70212   0.611   8.939   9.023  1.0424 -0.4488 -0.0568
  532MOL0     H70213   0.842   9.014   8.944 -0.2039 -0.9671 -0.7349
  532MOL0     H70214   1.169   8.995   9.260  0.0601 -0.0627 -0.3700
  532MOL0     H70215   1.254   9.056   9.117 -1.2028  2.1900 -0.1061
  532MOL0     H70216   1.197   8.775   9.214 -1.6209 -0.6076 -1.2315
  532MOL0     H70217   1.204   8.789   9.038 -0.7941 -0.2661  0.7169
  532MOL0     H70218   1.416   8.897   9.230 -2.8390  1.2729 -0.8954
  532MOL0     H70219   1.432   8.856   9.052 -1.8245  4.0381 -0.6583
  532MOL0     H70220   1.452   8.660   9.287  1.8824 -2.3612 -0.3878
  532MOL0     H70221   1.391   8.611   9.132 -0.7154  0.8750  0.4505
  532MOL0     H70222   1.808   8.666   9.078  0.2538  1.4647  0.2857
  532MOL0     H70223   1.003   8.857   9.313  2.3834  4.4662 -0.8730
  532MOL0     H70224   0.792   8.785   9.372  3.5762  1.3167 -0.0506
  533MOL0     O70225   2.078   5.767   0.826 -0.3287  0.4358 -0.0135
  533MOL0     C70226   2.155   5.858   0.860 -0.1287  1.5840  0.1171
  533MOL0     O70227   2.126   5.965   0.943 -0.9069 -0.1930  0.2290
  533MOL0     C70228   2.007   5.990   1.003 -0.9070 -0.0121 -0.1364
  533MOL0     C70229   2.000   6.112   1.071 -0.2158  0.3888 -0.5792
  533MOL0     C70230   1.886   6.145   1.143 -0.4049  0.3697 -0.1108
  533MOL0     C70231   1.772   6.072   1.124 -0.7007 -0.2549  1.1480
  533MOL0     O70232   1.673   6.115   1.207  0.0436  0.2865 -0.2797
  533MOL0     C70233   1.579   6.012   1.249  0.3386  0.4188 -0.1306
  533MOL0     C70234   1.534   6.037   1.389  0.1248 -0.2935  0.3114
  533MOL0     C70235   1.394   5.968   1.405 -0.1402 -0.5678 -0.8790
  533MOL0     C70236   1.343   5.984   1.556  0.6005  0.1077 -0.4277
  533MOL0     C70237   1.216   5.901   1.610  1.2996  0.1879  1.0949
  533MOL0     C70238   1.145   5.962   1.721 -0.1848 -0.3506  0.1320
  533MOL0     C70239   1.021   5.878   1.770  1.2266 -0.4727  0.2135
  533MOL0     C70240   0.936   5.835   1.658  0.1109 -0.7660  0.6885
  533MOL0     N70241   0.808   5.795   1.709  0.0542  0.4755  0.0350
  533MOL0     C70242   0.758   5.671   1.737 -0.5013 -0.5396 -0.9719
  533MOL0     C70243   0.636   5.692   1.791 -0.5748 -0.0066  0.5308
  533MOL0     C70244   0.535   5.596   1.852  0.5127  0.1193  0.7728
  533MOL0     C70245   0.516   5.482   1.757 -1.0243 -0.7633  0.8272
  533MOL0     C70246   0.393   5.398   1.778 -0.2989  0.2095  0.7903
  533MOL0     C70247   0.273   5.471   1.715  0.4775 -0.7789 -0.2382
  533MOL0     O70248   0.212   5.562   1.814 -0.0025  0.7593  1.0769
  533MOL0     C70249   0.105   5.503   1.875 -0.5322  0.3053  0.5847
  533MOL0     C70250  -0.014   5.488   1.799  0.4006 -0.1832 -0.0177
  533MOL0     C70251  -0.106   5.401   1.844  0.2637  0.4426  0.1241
  533MOL0     C70252  -0.104   5.342   1.974  0.1781 -0.1685  0.0102
  533MOL0     C70253  -0.239   5.283   2.017 -0.1777  0.3242 -0.4971
  533MOL0     O70254  -0.250   5.225   2.140 -0.4103  0.3699  0.1429
  533MOL0     C70255  -0.377   5.218   2.186 -0.9481  0.1406  0.4994
  533MOL0     C70256  -0.450   5.095   2.183  0.6661 -0.0481 -0.0366
  533MOL0     C70257  -0.563   5.078   2.267  0.2703 -0.0947 -0.3014
  533MOL0     C70258  -0.598   5.181   2.349 -0.1581 -0.2012 -0.0274
  533MOL0     O70259  -0.708   5.158   2.429  0.2777 -0.1459  0.1960
  533MOL0     C70260  -0.785   5.261   2.493  0.1913  0.0207  0.3375
  533MOL0     C70261  -0.913   5.224   2.568 -0.4646 -0.2693  0.5478
  533MOL0     C70262  -0.968   5.337   2.650 -0.3604 -0.0531  0.3457
  533MOL0     C70263  -1.106   5.292   2.707  0.5154 -0.1253 -0.4730
  533MOL0     C70264  -1.131   5.389   2.826 -0.4118  0.2271  0.7875
  533MOL0     C70265  -1.243   5.328   2.910  0.0261 -0.5702 -0.1237
  533MOL0     C70266  -1.301   5.439   2.992 -0.5394 -0.1708  0.1863
  533MOL0     C70267  -1.410   5.382   3.081  0.3586  0.0610  1.0867
  533MOL0    Cl70268  -1.576   5.377   2.997  0.0886 -0.2529 -0.2587
  533MOL0     C70269  -0.532   5.305   2.354  0.0798  0.2805  0.2580
  533MOL0     C70270  -0.421   5.324   2.272 -0.3436  0.1761  0.0444
  533MOL0     O70271  -0.336   5.299   1.948  0.1923 -0.1316  0.8995
  533MOL0     C70272   0.007   5.370   2.055 -1.3327  0.0728  0.6521
  533MOL0     C70273   0.111   5.452   2.004 -0.0224 -0.1508  0.3885
  533MOL0     N70274   0.619   5.832   1.792 -0.3307 -0.5996 -0.0122
  533MOL0     N70275   0.718   5.891   1.750 -0.8796  0.9413  0.5318
  533MOL0     C70276   1.775   5.954   1.050 -0.1825  0.2950  0.8476
  533MOL0     C70277   1.894   5.904   0.994 -0.5014 -0.1354  0.5257
  533MOL0     C70278   2.292   5.847   0.813 -1.2581 -0.1428 -0.2275
  533MOL0     C70279   2.337   5.751   0.725  0.6998 -1.2910  0.6231
  533MOL0     C70280   2.465   5.759   0.676 -0.2264 -1.0881  0.2962
  533MOL0     C70281   2.554   5.860   0.711  0.9728  0.5883  0.0556
  533MOL0     O70282   2.679   5.877   0.655  0.5427 -0.1698 -0.4810
  533MOL0     C70283   2.727   5.768   0.568  0.2805 -0.8495  0.0947
  533MOL0     C70284   2.681   5.778   0.418  0.4353 -0.3685  0.0151
  533MOL0     C70285   2.718   5.915   0.348  0.1276 -0.0139 -0.4395
  533MOL0     C70286   2.864   5.925   0.305 -0.7452  0.3117 -0.2060
  533MOL0     C70287   2.890   6.022   0.200  0.3206 -1.1448 -0.5815
  533MOL0     C70288   2.925   6.096   0.113  0.6167 -1.1801  0.2224
  533MOL0     C70289   2.519   5.953   0.803  0.5722  0.0020  0.1998
  533MOL0     C70290   2.385   5.947   0.850  0.7334 -0.1302  0.8475
  533MOL0     H70291   2.089   6.172   1.087  0.7957 -0.8999 -1.2227
  533MOL0     H70292   1.888   6.234   1.206  2.0771  0.7835 -0.6902
  533MOL0     H70293   1.620   5.912   1.235  3.8381  1.7653 -0.3720
  533MOL0     H70294   1.496   6.027   1.179 -0.2465  3.2827  1.0119
  533MOL0     H70295   1.528   6.142   1.419 -0.5758  0.2159 -1.4596
  533MOL0     H70296   1.597   5.989   1.464 -0.6275  1.5012  2.1999
  533MOL0     H70297   1.378   5.866   1.366  0.1449 -0.6156 -0.8682
  533MOL0     H70298   1.324   6.019   1.338  0.8609  1.8270 -0.1694
  533MOL0     H70299   1.432   5.969   1.617  0.8251  0.0428 -0.7654
  533MOL0     H70300   1.311   6.087   1.576  0.6675 -0.4827  3.4368
  533MOL0     H70301   1.252   5.799   1.629 -0.6325 -0.7594 -0.0786
  533MOL0     H70302   1.151   5.892   1.523  0.3086  1.0250  1.7193
  533MOL0     H70303   1.103   6.059   1.692  0.7172  0.0010 -0.0190
  533MOL0     H70304   1.204   5.961   1.813 -1.2131 -1.6547  0.8066
  533MOL0     H70305   1.044   5.787   1.826  2.2098 -2.1078 -2.6519
  533MOL0     H70306   0.973   5.953   1.834  0.3501  0.7350 -1.7542
  533MOL0     H70307   0.970   5.747   1.602 -0.5636 -2.8627  3.3286
  533MOL0     H70308   0.924   5.926   1.599 -0.8710  0.8962  3.2940
  533MOL0     H70309   0.800   5.571   1.725 -0.1993 -0.6709  0.9229
  533MOL0     H70310   0.435   5.631   1.877 -1.1093 -2.5828 -1.4388
  533MOL0     H70311   0.582   5.556   1.943  2.0395  0.7867  0.3113
  533MOL0     H70312   0.596   5.408   1.764 -1.7244 -1.7653 -0.8946
  533MOL0     H70313   0.529   5.508   1.651  0.7407 -2.8846  0.4540
  533MOL0     H70314   0.409   5.304   1.725 -1.6991  0.6542 -0.4943
  533MOL0     H70315   0.394   5.380   1.886  0.7344 -4.1142  0.2316
  533MOL0     H70316   0.196   5.398   1.686 -0.8357 -0.6949  2.6877
  533MOL0     H70317   0.299   5.528   1.626 -2.3665 -1.2360 -1.4577
  533MOL0     H70318  -0.027   5.523   1.697  0.8455  1.3101  0.4104
  533MOL0     H70319  -0.196   5.386   1.785 -0.2812  0.0668  1.0210
  533MOL0     H70320  -0.421   5.012   2.119  1.5742 -0.5900  1.0225
  533MOL0     H70321  -0.620   4.986   2.256 -2.1957  1.1559  1.3510
  533MOL0     H70322  -0.803   5.347   2.427 -0.4724 -0.1169  0.3325
  533MOL0     H70323  -0.711   5.299   2.565 -0.4237 -2.7069  2.5946
  533MOL0     H70324  -0.880   5.142   2.632  1.6758 -0.6527 -0.9460
  533MOL0     H70325  -0.977   5.183   2.489 -0.8508  3.2893 -1.1681
  533MOL0     H70326  -0.980   5.427   2.588  1.1278 -0.4328 -0.5461
  533MOL0     H70327  -0.901   5.359   2.734 -0.5244 -3.3328  1.5002
  533MOL0     H70328  -1.177   5.285   2.624 -0.2387 -0.7248  0.2050
  533MOL0     H70329  -1.103   5.187   2.738  0.4245 -0.9434 -3.0353
  533MOL0     H70330  -1.159   5.489   2.792  0.9600  0.1380 -0.7378
  533MOL0     H70331  -1.043   5.390   2.891 -0.3225 -0.8375  0.6989
  533MOL0     H70332  -1.211   5.249   2.978  1.7478  0.6928  0.6054
  533MOL0     H70333  -1.319   5.286   2.842 -0.1985 -0.9593  0.3632
  533MOL0     H70334  -1.221   5.475   3.057  0.6960  1.7786 -2.2072
  533MOL0     H70335  -1.333   5.515   2.920 -1.6495 -0.6336  0.1813
  533MOL0     H70336  -1.407   5.441   3.172  2.1298  2.4352 -0.4078
  533MOL0     H70337  -1.391   5.274   3.092  1.2615  0.0346 -0.4327
  533MOL0     H70338  -0.563   5.391   2.413 -2.8943 -1.4444  1.4339
  533MOL0     H70339  -0.366   5.416   2.288  2.1077 -1.0083 -1.0051
  533MOL0     H70340   0.024   5.340   2.157 -1.3383  0.5247  0.7892
  533MOL0     H70341   0.199   5.470   2.065  1.5162 -1.2096 -1.3969
  533MOL0     H70342   1.693   5.885   1.036 -0.4500  0.7069  0.3823
  533MOL0     H70343   1.881   5.813   0.937 -0.7922  0.5116 -0.4774
  533MOL0     H70344   2.261   5.676   0.708 -1.4103  0.4242  1.8742
  533MOL0     H70345   2.487   5.686   0.599 -0.1434 -1.9312  1.1027
  533MOL0     H70346   2.720   5.676   0.627  1.9056 -0.8216  0.3882
  533MOL0     H70347   2.836   5.774   0.563  0.1990  2.6188  0.2970
  533MOL0     H70348   2.729   5.694   0.367 -0.6575 -0.0002 -1.6828
  533MOL0     H70349   2.572   5.773   0.405  0.3450 -0.5880  0.7576
  533MOL0     H70350   2.698   5.996   0.419  0.9208 -0.8242  0.7416
  533MOL0     H70351   2.660   5.930   0.256  0.2963 -0.6208 -0.6454
  533MOL0     H70352   2.935   5.931   0.388 -1.9658  1.4547  0.7999
  533MOL0     H70353   2.882   5.831   0.252 -0.2888  1.5993 -2.4613
  533MOL0     H70354   2.966   6.171   0.049  0.9598 -1.1841  0.4314
  533MOL0     H70355   2.582   6.034   0.837 -0.0880  0.0407  1.4043
  533MOL0     H70356   2.354   6.023   0.921 -2.6405  2.1933 -2.7022
  534MOL0     O70357  10.198   0.653   1.180 -1.2325  0.2332 -0.4883
  534MOL0     C70358  10.263   0.622   1.281 -0.0611  0.0148  0.4157
  534MOL0     O70359  10.211   0.551   1.391 -1.0518  0.1024 -0.1250
  534MOL0     C70360  10.083   0.519   1.405  1.2245 -0.0986 -0.3090
  534MOL0     C70361   9.981   0.614   1.414 -0.9067  0.7072  0.0252
  534MOL0     C70362   9.844   0.571   1.419 -0.2599  0.5064 -0.0345
  534MOL0     C70363   9.816   0.439   1.426  0.1127  0.4164  0.6276
  534MOL0     O70364   9.685   0.399   1.419 -0.2001 -0.1415 -0.3627
  534MOL0     C70365   9.567   0.490   1.450 -0.1070  0.2261  0.3662
  534MOL0     C70366   9.443   0.396   1.460 -0.1575 -0.8966  0.4439
  534MOL0     C70367   9.379   0.353   1.336 -0.6084 -0.5054 -0.8608
  534MOL0     C70368   9.278   0.240   1.333  0.3198  0.0880 -0.2957
  534MOL0     C70369   9.231   0.181   1.199 -0.5975 -1.3054  0.2201
  534MOL0     C70370   9.121   0.077   1.203  0.0215 -0.0396 -0.7180
  534MOL0     C70371   9.077   0.047   1.048  0.5899 -0.5428  0.7677
  534MOL0     C70372   8.965  -0.059   1.028 -0.0894  0.1110  0.1127
  534MOL0     N70373   8.834  -0.018   1.089 -0.4261  0.2085  0.3553
  534MOL0     C70374   8.741   0.083   1.051  0.8416  0.5741  0.4341
  534MOL0     C70375   8.649   0.106   1.152 -0.0583  0.1956 -0.3254
  534MOL0     C70376   8.529   0.195   1.140  0.1673 -0.5251 -0.4133
  534MOL0     C70377   8.396   0.131   1.179  0.8692  0.7815  0.4964
  534MOL0     C70378   8.383  -0.017   1.138 -0.1513  0.4597 -0.3038
  534MOL0     C70379   8.241  -0.075   1.142  0.1279  0.4044  0.0618
  534MOL0     O70380   8.157  -0.002   1.049  0.1589  1.0819 -0.1689
  534MOL0     C70381   8.037  -0.066   1.023 -0.5763 -0.4528 -0.9507
  534MOL0     C70382   7.959   0.006   0.937 -0.6181  0.4606  0.4198
  534MOL0     C70383   7.833  -0.047   0.905 -0.1092 -0.5325 -0.2201
  534MOL0     C70384   7.785  -0.169   0.956  0.8113 -0.4916  0.4687
  534MOL0     C70385   7.642  -0.211   0.942 -0.0385  0.0086  0.0104
  534MOL0     O70386   7.555  -0.107   0.904  0.5253 -0.8314  0.6964
  534MOL0     C70387   7.425  -0.151   0.895 -0.4131  0.4191 -0.0390
  534MOL0     C70388   7.382  -0.244   0.806  0.1296 -0.3536 -0.4951
  534MOL0     C70389   7.241  -0.264   0.782  0.5171  0.2984 -0.2278
  534MOL0     C70390   7.150  -0.202   0.861  0.4662 -0.2224 -0.6851
  534MOL0     O70391   7.015  -0.205   0.859  0.7395 -0.3020  0.3864
  534MOL0     C70392   6.940  -0.274   0.759 -0.9064  0.6658  0.9895
  534MOL0     C70393   6.795  -0.215   0.745  1.0042 -1.0602 -1.3592
  534MOL0     C70394   6.697  -0.291   0.845 -0.3557 -0.8321  0.1853
  534MOL0     C70395   6.557  -0.230   0.820  0.0308 -0.2820 -0.6661
  534MOL0     C70396   6.459  -0.344   0.869  0.6962 -0.4196 -0.5631
  534MOL0     C70397   6.308  -0.308   0.849 -0.5485 -0.3586 -1.1740
  534MOL0     C70398   6.269  -0.205   0.951  0.8527 -0.8039 -0.1782
  534MOL0     C70399   6.117  -0.168   0.954  0.6867  0.1838 -0.0746
  534MOL0    Cl70400   6.028  -0.284   1.064  0.1304  0.0822  0.3753
  534MOL0     C70401   7.194  -0.122   0.963 -0.3665 -0.7060 -0.2723
  534MOL0     C70402   7.327  -0.090   0.980  0.0284  0.6268 -0.2788
  534MOL0     O70403   7.618  -0.332   0.938 -0.3566  0.0457 -1.0231
  534MOL0     C70404   7.878  -0.241   1.023 -0.3339  0.7309 -0.5469
  534MOL0     C70405   7.996  -0.190   1.067  0.2483 -0.0226 -0.9282
  534MOL0     N70406   8.685   0.020   1.255 -0.4725  0.1753  0.0535
  534MOL0     N70407   8.795  -0.048   1.210  0.1255 -0.4090  0.1878
  534MOL0     C70408   9.922   0.341   1.426 -0.5459 -0.6045  0.3300
  534MOL0     C70409  10.051   0.384   1.405 -0.4246 -0.2838 -0.9951
  534MOL0     C70410  10.403   0.675   1.294 -0.1584  0.4155  0.5182
  534MOL0     C70411  10.429   0.803   1.230 -0.3266  0.1644  0.7376
  534MOL0     C70412  10.552   0.873   1.254 -0.4798  1.1191  0.1420
  534MOL0     C70413  10.651   0.813   1.334  0.0808  0.1701  0.2517
  534MOL0     O70414  10.783   0.859   1.343  0.1968  0.0842 -0.2744
  534MOL0     C70415  10.837   0.949   1.248  0.1113 -0.2106 -0.4154
  534MOL0     C70416  10.884   0.877   1.127 -0.1345  0.1662  0.5692
  534MOL0     C70417  10.813   0.912   0.991 -0.0731 -0.4043  0.2222
  534MOL0     C70418  10.846   0.803   0.889  0.9876  0.0825 -0.0911
  534MOL0     C70419  10.984   0.767   0.872 -0.3077 -1.1941 -0.0094
  534MOL0     C70420  11.099   0.736   0.847  0.0477  0.3035 -0.9143
  534MOL0     C70421  10.634   0.681   1.384 -0.6474 -0.4363 -0.3323
  534MOL0     C70422  10.512   0.616   1.373 -0.3233 -0.1835 -0.3688
  534MOL0     H70423  10.000   0.718   1.390  1.6981  0.5168  0.9578
  534MOL0     H70424   9.766   0.644   1.431  1.4834  2.2788  1.2000
  534MOL0     H70425   9.545   0.569   1.377  0.8417  1.8803  1.8052
  534MOL0     H70426   9.586   0.543   1.543 -1.9805 -0.5191  1.2331
  534MOL0     H70427   9.371   0.449   1.523 -0.3858 -1.7199  0.8948
  534MOL0     H70428   9.472   0.308   1.518 -1.7155 -1.4630  0.4191
  534MOL0     H70429   9.464   0.304   1.288 -0.7611 -3.0013  1.1888
  534MOL0     H70430   9.346   0.435   1.273 -3.0582 -2.6073 -2.5534
  534MOL0     H70431   9.312   0.155   1.394 -1.4130 -0.7282 -0.4239
  534MOL0     H70432   9.198   0.276   1.398  0.8748 -0.5365  0.7835
  534MOL0     H70433   9.326   0.147   1.157  0.3846 -0.9642  2.0362
  534MOL0     H70434   9.189   0.262   1.138 -0.4380 -2.1315 -1.0175
  534MOL0     H70435   9.038   0.125   1.255  0.5378  1.0198 -0.8559
  534MOL0     H70436   9.152  -0.015   1.254  2.5867 -0.1597 -2.3616
  534MOL0     H70437   9.042   0.141   1.004 -1.6958 -1.8028 -0.2715
  534MOL0     H70438   9.163   0.027   0.985 -0.8642 -1.3250 -1.0524
  534MOL0     H70439   9.003  -0.151   1.075 -1.4807  1.1113  3.4910
  534MOL0     H70440   8.932  -0.077   0.926 -1.7112 -2.1940  0.9444
  534MOL0     H70441   8.759   0.136   0.957 -2.9882 -0.7860 -1.2820
  534MOL0     H70442   8.513   0.226   1.037 -1.4627 -2.7985 -0.9260
  534MOL0     H70443   8.535   0.286   1.200 -0.7701  0.1915 -1.3607
  534MOL0     H70444   8.314   0.186   1.132 -0.3711 -1.4582 -0.1280
  534MOL0     H70445   8.392   0.146   1.287 -1.1131 -0.7370  0.6960
  534MOL0     H70446   8.413  -0.037   1.035  2.0412  0.5008  0.2733
  534MOL0     H70447   8.453  -0.065   1.208 -1.7063  1.3185  1.9651
  534MOL0     H70448   8.200  -0.062   1.243  0.5203 -0.1093  0.2926
  534MOL0     H70449   8.250  -0.182   1.119  1.3487  0.5339 -0.1088
  534MOL0     H70450   7.988   0.104   0.900 -2.1653  1.9129  2.8093
  534MOL0     H70451   7.783   0.016   0.831 -1.0891  1.1886  1.8134
  534MOL0     H70452   7.454  -0.286   0.736  0.6901  1.4581 -1.0754
  534MOL0     H70453   7.197  -0.329   0.708  2.5109  0.3220 -1.5015
  534MOL0     H70454   6.930  -0.378   0.792 -3.8874  0.5393  0.0346
  534MOL0     H70455   6.990  -0.266   0.662  0.2429 -1.2506  1.3758
  534MOL0     H70456   6.767  -0.230   0.640 -3.5648 -0.7013 -0.3746
  534MOL0     H70457   6.792  -0.106   0.755 -1.3192 -1.1489 -0.5285
  534MOL0     H70458   6.735  -0.281   0.948  2.2752 -4.4792 -0.2285
  534MOL0     H70459   6.705  -0.394   0.812  0.1893 -0.1128 -2.1043
  534MOL0     H70460   6.543  -0.136   0.875 -2.5160  2.3638 -5.1748
  534MOL0     H70461   6.535  -0.209   0.715 -0.6656 -1.4912 -0.7755
  534MOL0     H70462   6.466  -0.375   0.973 -1.0625 -0.1428 -0.3439
  534MOL0     H70463   6.480  -0.432   0.807  1.3885 -0.4601 -0.2845
  534MOL0     H70464   6.244  -0.392   0.877  0.4322 -1.3430 -1.8394
  534MOL0     H70465   6.274  -0.268   0.752 -0.6297  1.2586 -0.5144
  534MOL0     H70466   6.311  -0.235   1.047  0.9115 -0.2395 -0.0216
  534MOL0     H70467   6.324  -0.115   0.922 -0.3922  0.0146 -0.0660
  534MOL0     H70468   6.080  -0.183   0.853  0.1074  0.7344  0.0486
  534MOL0     H70469   6.096  -0.066   0.987 -2.8895  0.0474 -1.5219
  534MOL0     H70470   7.124  -0.064   1.022 -0.4235 -1.5741  0.5356
  534MOL0     H70471   7.346  -0.009   1.050  0.8805  1.7005 -1.6811
  534MOL0     H70472   7.866  -0.341   1.064  3.1017  0.2701 -0.4176
  534MOL0     H70473   8.055  -0.248   1.138  4.1415  0.5560 -3.4255
  534MOL0     H70474   9.895   0.236   1.424 -0.0221 -0.7765  1.6111
  534MOL0     H70475  10.134   0.318   1.384  0.2312  0.4770 -0.8759
  534MOL0     H70476  10.351   0.852   1.173 -2.8852 -1.4019  2.6297
  534MOL0     H70477  10.568   0.967   1.201  0.8604  1.6366  1.3986
  534MOL0     H70478  10.913   1.016   1.287 -1.5583  1.2682  0.4544
  534MOL0     H70479  10.756   1.016   1.216 -3.3432 -3.6212  0.3860
  534MOL0     H70480  10.992   0.886   1.108  0.1064 -0.7637  1.3559
  534MOL0     H70481  10.851   0.773   1.141 -1.2462  0.4904  0.4517
  534MOL0     H70482  10.839   1.014   0.963 -0.8604 -0.2402  0.0397
  534MOL0     H70483  10.703   0.908   0.998 -0.1645 -5.1274 -0.3874
  534MOL0     H70484  10.782   0.723   0.928 -2.0762  0.8738 -2.9789
  534MOL0     H70485  10.804   0.834   0.793 -1.2655 -3.1558 -0.3093
  534MOL0     H70486  11.199   0.697   0.843  0.6022  1.5336  0.2605
  534MOL0     H70487  10.701   0.633   1.454 -2.1574 -3.0155 -0.5070
  534MOL0     H70488  10.506   0.519   1.423  4.5285 -1.2941 -1.4604
  535MOL0     O70489   5.313   1.956   4.067  0.8926 -0.6071  0.1674
  535MOL0     C70490   5.354   2.071   4.087  0.7436 -0.2325  1.0932
  535MOL0     O70491   5.275   2.181   4.093  0.1090  0.6450  0.2007
  535MOL0     C70492   5.144   2.172   4.060  0.2271 -0.1294  0.1037
  535MOL0     C70493   5.047   2.084   4.107  0.8983 -0.7230 -0.7187
  535MOL0     C70494   4.909   2.097   4.091  0.5053  0.1506  0.5982
  535MOL0     C70495   4.853   2.212   4.027 -0.1876 -0.1833 -0.1947
  535MOL0     O70496   4.716   2.217   4.027  1.0902 -0.3398 -0.0509
  535MOL0     C70497   4.651   2.317   3.949  0.7582  0.4407 -0.2091
  535MOL0     C70498   4.639   2.277   3.797  1.3318  0.3211  0.7985
  535MOL0     C70499   4.503   2.214   3.766 -0.5570  0.3670  0.6388
  535MOL0     C70500   4.408   2.322   3.715  0.6086 -0.6090 -0.2041
  535MOL0     C70501   4.257   2.285   3.763 -0.3525 -0.2017 -0.5069
  535MOL0     C70502   4.210   2.144   3.712  0.2916  0.2864  0.0744
  535MOL0     C70503   4.059   2.115   3.735  0.3678 -1.1506  0.7194
  535MOL0     C70504   4.022   1.978   3.691  0.1949  0.5888  0.0692
  535MOL0     N70505   3.878   1.964   3.692 -0.3603 -0.4638  0.5541
  535MOL0     C70506   3.804   1.901   3.786 -0.5760  0.1326  1.2989
  535MOL0     C70507   3.675   1.922   3.753  0.4131  1.0011 -0.2356
  535MOL0     C70508   3.569   1.874   3.845  0.6438  0.0500  0.2412
  535MOL0     C70509   3.435   1.952   3.833  0.1237  0.0815  0.6755
  535MOL0     C70510   3.360   1.898   3.712  0.1109  0.0317  0.3079
  535MOL0     C70511   3.228   1.822   3.733  0.5555  0.5687 -0.1217
  535MOL0     O70512   3.120   1.903   3.792  0.2121  0.4770 -0.0099
  535MOL0     C70513   3.005   1.843   3.823 -0.9391  0.7924  0.2991
  535MOL0     C70514   2.964   1.708   3.789 -0.5778  0.7728 -0.4510
  535MOL0     C70515   2.832   1.663   3.811 -0.0879  0.2071 -0.8750
  535MOL0     C70516   2.740   1.739   3.880  0.0383 -0.6197 -0.5927
  535MOL0     C70517   2.607   1.684   3.911 -0.8501  0.0462 -0.5145
  535MOL0     O70518   2.571   1.571   3.845 -0.1554 -0.1083  0.7165
  535MOL0     C70519   2.442   1.524   3.850  0.6613 -1.1867  0.0760
  535MOL0     C70520   2.331   1.564   3.922  0.8800 -0.9113 -0.9307
  535MOL0     C70521   2.197   1.515   3.911 -0.7098  0.6188  0.4324
  535MOL0     C70522   2.178   1.414   3.818 -0.2037  0.6958  0.2535
  535MOL0     O70523   2.058   1.337   3.811  0.3032 -0.3547 -0.3715
  535MOL0     C70524   1.950   1.374   3.898 -0.2068  0.4177  0.1203
  535MOL0     C70525   1.837   1.268   3.879  0.1001  0.5856  0.4523
  535MOL0     C70526   1.705   1.347   3.863 -0.1185 -0.8648  0.3451
  535MOL0     C70527   1.610   1.263   3.786  0.6895  0.9102 -0.3021
  535MOL0     C70528   1.487   1.325   3.731  0.0065  0.2971 -0.3460
  535MOL0     C70529   1.371   1.234   3.709  0.3314  0.9581  0.6974
  535MOL0     C70530   1.310   1.208   3.840  0.2202 -0.4443 -0.2425
  535MOL0     C70531   1.224   1.086   3.827  0.1766  0.0656 -0.0225
  535MOL0    Cl70532   1.292   0.949   3.892  0.2537  0.3148  0.1751
  535MOL0     C70533   2.286   1.375   3.739  0.6849 -0.5676 -0.3625
  535MOL0     C70534   2.415   1.431   3.754 -0.1206 -1.0577  0.4015
  535MOL0     O70535   2.548   1.733   4.002 -0.1083 -0.7498 -0.1277
  535MOL0     C70536   2.787   1.860   3.931 -0.1422 -0.4169 -0.3543
  535MOL0     C70537   2.910   1.915   3.902  0.2147  1.0054  0.7840
  535MOL0     N70538   3.669   1.993   3.635  0.5568 -0.1474  0.3430
  535MOL0     N70539   3.791   2.009   3.595 -0.1508 -0.9813  0.1180
  535MOL0     C70540   4.950   2.295   3.970  0.8797  0.2459  0.5987
  535MOL0     C70541   5.086   2.286   3.999  0.2628  0.4372 -0.2550
  535MOL0     C70542   5.500   2.089   4.110 -1.3489 -0.7757  0.6880
  535MOL0     C70543   5.560   2.217   4.127 -0.5105  1.3063  0.2987
  535MOL0     C70544   5.700   2.228   4.141 -0.7452 -0.6534 -0.0657
  535MOL0     C70545   5.782   2.112   4.138  1.0510  0.0581  0.4960
  535MOL0     O70546   5.914   2.117   4.176 -0.1942 -0.9596 -0.5679
  535MOL0     C70547   5.993   2.151   4.066  0.6573  0.5705 -0.0929
  535MOL0     C70548   6.137   2.094   4.079  0.4430 -0.8665  0.5062
  535MOL0     C70549   6.232   2.178   4.154 -1.1616 -0.7020  0.0238
  535MOL0     C70550   6.349   2.106   4.211 -0.0996 -0.5524 -0.7989
  535MOL0     C70551   6.446   2.195   4.266 -0.3227  0.0544 -0.5011
  535MOL0     C70552   6.539   2.259   4.307 -0.7048 -0.1790  0.6957
  535MOL0     C70553   5.719   1.989   4.140  1.2640 -0.1409 -0.3940
  535MOL0     C70554   5.581   1.978   4.123 -0.5702  0.2700  0.2468
  535MOL0     H70555   5.075   2.004   4.175  3.7043  0.0329 -0.8765
  535MOL0     H70556   4.849   2.009   4.113  2.3761 -0.3579  4.5334
  535MOL0     H70557   4.718   2.403   3.939  0.7605  0.2966 -1.7040
  535MOL0     H70558   4.562   2.359   3.995  1.3529  1.1758  0.2922
  535MOL0     H70559   4.707   2.199   3.762 -0.7165 -0.3889 -1.8782
  535MOL0     H70560   4.670   2.362   3.735 -1.6719  0.4755 -0.6939
  535MOL0     H70561   4.461   2.161   3.852  1.0238 -4.6230 -1.2933
  535MOL0     H70562   4.520   2.135   3.692  1.1689  0.0293  1.3407
  535MOL0     H70563   4.440   2.414   3.766 -1.5314  0.0068  0.1482
  535MOL0     H70564   4.421   2.333   3.607 -0.1196 -1.1751 -0.3567
  535MOL0     H70565   4.185   2.362   3.734 -1.0553  0.0612  1.7149
  535MOL0     H70566   4.262   2.283   3.872 -1.3263  3.5062 -0.2576
  535MOL0     H70567   4.259   2.063   3.767  1.3709  0.4092 -0.6755
  535MOL0     H70568   4.233   2.126   3.607 -3.8108  1.7185 -1.2622
  535MOL0     H70569   4.032   2.135   3.839  2.6116  3.0532  0.6997
  535MOL0     H70570   3.998   2.185   3.679  1.5760 -0.1944  0.5553
  535MOL0     H70571   4.073   1.906   3.756  1.6259  2.1148  0.6972
  535MOL0     H70572   4.053   1.949   3.590 -0.1703 -1.1470  0.4230
  535MOL0     H70573   3.838   1.835   3.865 -1.5123 -7.1025 -3.4370
  535MOL0     H70574   3.604   1.898   3.946  1.7057  0.8537 -0.3061
  535MOL0     H70575   3.544   1.768   3.835  1.6900 -0.4370  2.3153
  535MOL0     H70576   3.452   2.059   3.820 -2.0456  0.3218 -0.6424
  535MOL0     H70577   3.372   1.942   3.921 -0.4629  1.0880  0.3892
  535MOL0     H70578   3.351   1.978   3.638  0.4937  0.7910  1.0771
  535MOL0     H70579   3.424   1.833   3.651 -2.5280 -2.6848  0.1863
  535MOL0     H70580   3.256   1.746   3.806 -0.1896  0.2438 -0.1650
  535MOL0     H70581   3.199   1.767   3.643 -1.8126 -2.0368  2.0391
  535MOL0     H70582   3.033   1.637   3.745 -0.5723  1.1970 -1.1488
  535MOL0     H70583   2.812   1.560   3.782  1.2467 -0.0974 -0.8113
  535MOL0     H70584   2.329   1.640   3.999 -1.6072 -1.7614 -0.0764
  535MOL0     H70585   2.119   1.560   3.972 -1.1383 -0.3724  0.6339
  535MOL0     H70586   1.915   1.470   3.858  2.1935  1.0410 -0.6342
  535MOL0     H70587   1.985   1.377   4.002  1.7658  1.8343 -0.5308
  535MOL0     H70588   1.847   1.186   3.952 -4.7105 -1.5421 -0.9001
  535MOL0     H70589   1.867   1.227   3.782 -2.7085  0.3662 -0.3972
  535MOL0     H70590   1.720   1.437   3.803  1.2665 -2.1795 -1.3627
  535MOL0     H70591   1.661   1.372   3.960 -2.5033  1.5649 -1.2265
  535MOL0     H70592   1.663   1.224   3.698 -0.3612  2.8809 -1.9026
  535MOL0     H70593   1.571   1.184   3.850  1.7289 -0.9116 -1.8262
  535MOL0     H70594   1.511   1.377   3.638  0.1670  4.3468  1.7649
  535MOL0     H70595   1.449   1.399   3.802 -1.2789 -0.4184 -0.2345
  535MOL0     H70596   1.405   1.144   3.656 -2.3749 -0.9947  2.0021
  535MOL0     H70597   1.297   1.295   3.656  1.2014  2.6038  1.3212
  535MOL0     H70598   1.378   1.182   3.922 -0.1089  1.0357  0.5344
  535MOL0     H70599   1.249   1.291   3.875  0.9570  0.1360 -0.3151
  535MOL0     H70600   1.199   1.074   3.721 -1.4317 -3.6577  0.6504
  535MOL0     H70601   1.136   1.107   3.888 -0.5485 -0.0692 -0.9842
  535MOL0     H70602   2.255   1.313   3.655  2.3362  0.5796 -1.9153
  535MOL0     H70603   2.490   1.387   3.689  0.1738 -1.7561  1.1835
  535MOL0     H70604   2.722   1.926   3.987  1.6864 -0.0744  1.4839
  535MOL0     H70605   2.943   2.013   3.934  1.6649  0.6898  0.3531
  535MOL0     H70606   4.914   2.383   3.916  0.9716 -0.0315  0.0770
  535MOL0     H70607   5.152   2.369   3.973  2.4216 -0.8918  0.6678
  535MOL0     H70608   5.498   2.306   4.135 -0.9559  1.1535 -1.1394
  535MOL0     H70609   5.737   2.330   4.145 -3.7398  0.5131  3.6574
  535MOL0     H70610   6.000   2.259   4.051  2.3698  0.9817  2.9248
  535MOL0     H70611   5.950   2.097   3.982 -0.8340 -2.6057  2.4745
  535MOL0     H70612   6.137   2.000   4.134 -0.6790 -1.2178 -0.0696
  535MOL0     H70613   6.183   2.075   3.982  1.4016  1.0811  0.5246
  535MOL0     H70614   6.187   2.225   4.242 -1.3212 -2.1397  0.7456
  535MOL0     H70615   6.268   2.252   4.083  0.5828 -0.8793  0.6883
  535MOL0     H70616   6.305   2.042   4.287  1.7783 -1.5206 -0.4593
  535MOL0     H70617   6.392   2.046   4.130 -1.4930  1.5020 -3.2192
  535MOL0     H70618   6.624   2.298   4.360 -0.1750  2.3489 -1.7694
  535MOL0     H70619   5.772   1.895   4.157 -0.1382 -1.0758 -1.0102
  535MOL0     H70620   5.537   1.880   4.113  0.0360  0.1472 -1.4099
  536MOL0     O70621   5.895   3.849   1.328  0.3364 -0.9334 -0.7526
  536MOL0     C70622   5.803   3.936   1.332  0.2007  0.0711  0.0033
  536MOL0     O70623   5.773   4.012   1.440  0.0376  0.3589 -0.2472
  536MOL0     C70624   5.845   3.978   1.552 -0.5229 -0.2834  0.2398
  536MOL0     C70625   5.949   4.065   1.605 -0.9123  0.2336  0.5253
  536MOL0     C70626   6.019   4.026   1.722 -0.3153  0.1351  0.4657
  536MOL0     C70627   6.002   3.912   1.795  0.2227  0.5532 -0.3937
  536MOL0     O70628   6.068   3.884   1.914  0.2379  0.2440 -0.3930
  536MOL0     C70629   6.036   3.779   2.000  0.7172 -0.2589  0.0881
  536MOL0     C70630   6.084   3.818   2.146  0.7327 -0.0023  0.5533
  536MOL0     C70631   6.234   3.794   2.161 -0.5899 -0.9303  0.2232
  536MOL0     C70632   6.267   3.831   2.307 -0.2383 -0.7175 -0.2310
  536MOL0     C70633   6.424   3.867   2.308 -0.7727  0.3753  0.1695
  536MOL0     C70634   6.489   3.818   2.438 -0.2537 -0.8561 -0.1279
  536MOL0     C70635   6.634   3.866   2.459  0.0172 -0.7146  0.6019
  536MOL0     C70636   6.654   4.010   2.501 -0.0367 -0.7586  0.1050
  536MOL0     N70637   6.678   4.009   2.652  0.4660  0.3541  0.3507
  536MOL0     C70638   6.582   3.967   2.746 -0.2464  0.4357  0.3235
  536MOL0     C70639   6.647   3.980   2.864 -0.0507  0.8160  0.0325
  536MOL0     C70640   6.583   3.924   2.992  0.1597 -0.4858 -0.0362
  536MOL0     C70641   6.552   4.017   3.111  0.5995  0.0742 -0.8754
  536MOL0     C70642   6.471   4.143   3.068  0.0327  0.7319 -0.1351
  536MOL0     C70643   6.322   4.117   3.044 -0.0184  0.3001 -1.1894
  536MOL0     O70644   6.316   4.056   2.917 -0.2539 -0.0957  0.1560
  536MOL0     C70645   6.186   4.036   2.868  0.4124 -0.4175 -0.5658
  536MOL0     C70646   6.184   4.016   2.733  0.0842  0.2591 -0.3383
  536MOL0     C70647   6.060   4.011   2.656  0.3990 -0.5132  1.1957
  536MOL0     C70648   5.937   4.018   2.727 -0.4406  0.2787  0.6802
  536MOL0     C70649   5.808   3.995   2.656  0.0018  0.7337  0.7048
  536MOL0     O70650   5.700   3.971   2.742  0.3243  0.0696 -0.4513
  536MOL0     C70651   5.577   3.970   2.678  0.0950  0.1239  0.1455
  536MOL0     C70652   5.514   4.088   2.673  0.7945  0.4651  0.7128
  536MOL0     C70653   5.400   4.096   2.590 -0.8818  0.2719  0.4347
  536MOL0     C70654   5.354   3.992   2.507 -0.2792 -0.1261 -0.4058
  536MOL0     O70655   5.256   4.015   2.408  0.0559 -0.0896  0.0645
  536MOL0     C70656   5.273   3.952   2.274  0.6157 -0.4746 -0.3610
  536MOL0     C70657   5.159   3.851   2.246  0.6138 -0.7069  0.3961
  536MOL0     C70658   5.026   3.923   2.265  0.7941  0.5243  0.7726
  536MOL0     C70659   4.907   3.844   2.198  0.1794  0.2390  0.1056
  536MOL0     C70660   4.776   3.918   2.211  1.3019  0.5017  0.5840
  536MOL0     C70661   4.730   3.943   2.358 -0.2062  0.2330 -0.5302
  536MOL0     C70662   4.596   4.010   2.370  0.2014  0.1237  0.5489
  536MOL0     C70663   4.540   4.011   2.508  0.2280 -1.2005  0.6593
  536MOL0    Cl70664   4.397   4.129   2.504 -0.4073 -0.5322 -0.2334
  536MOL0     C70665   5.417   3.869   2.514 -0.3335  0.6126 -0.1879
  536MOL0     C70666   5.532   3.856   2.598  0.3169  0.1983 -0.0184
  536MOL0     O70667   5.800   3.993   2.529 -0.0726 -0.4417  0.6809
  536MOL0     C70668   5.939   4.037   2.870  1.0221 -0.3921  0.4139
  536MOL0     C70669   6.061   4.055   2.944  0.7858 -0.2761  0.4926
  536MOL0     N70670   6.777   4.015   2.841 -0.0593  0.8435 -1.3336
  536MOL0     N70671   6.798   4.034   2.713  0.6204 -0.1641  0.3890
  536MOL0     C70672   5.902   3.826   1.745 -0.6479 -1.1228  0.1169
  536MOL0     C70673   5.826   3.861   1.628  0.9565 -1.3909 -0.5331
  536MOL0     C70674   5.713   3.950   1.222 -0.3900 -0.4576  0.0506
  536MOL0     C70675   5.599   4.038   1.220  0.3234  1.1319  0.0753
  536MOL0     C70676   5.511   4.031   1.111  0.2814 -0.3959 -0.0585
  536MOL0     C70677   5.533   3.948   1.002 -0.2844 -0.1203  0.1178
  536MOL0     O70678   5.443   3.951   0.898  0.3118  0.1037  0.2176
  536MOL0     C70679   5.426   3.830   0.838 -0.0317  0.3679  0.3379
  536MOL0     C70680   5.277   3.830   0.786 -0.1404 -0.4755 -0.2826
  536MOL0     C70681   5.263   3.929   0.670 -0.3654  0.1874 -0.5147
  536MOL0     C70682   5.116   3.971   0.659  0.0429 -0.6639 -0.3813
  536MOL0     C70683   5.030   3.859   0.618  0.5862 -0.4877 -0.3198
  536MOL0     C70684   4.982   3.758   0.577  0.2678 -0.5676  0.5087
  536MOL0     C70685   5.648   3.865   1.009  0.0940 -0.5141  0.2331
  536MOL0     C70686   5.736   3.866   1.111  0.3413 -0.1691  0.1227
  536MOL0     H70687   5.970   4.159   1.556  0.7706 -1.1504 -1.6096
  536MOL0     H70688   6.093   4.096   1.760 -2.2121  2.3372  0.3633
  536MOL0     H70689   6.085   3.688   1.963 -1.1266 -0.9819 -0.7044
  536MOL0     H70690   5.926   3.778   2.005  0.6278 -0.0131 -1.3501
  536MOL0     H70691   6.030   3.752   2.215 -0.0887  1.5630  1.4715
  536MOL0     H70692   6.058   3.920   2.174  2.7673  0.7224 -0.0373
  536MOL0     H70693   6.281   3.857   2.086 -2.3072 -2.3150 -2.1623
  536MOL0     H70694   6.252   3.691   2.126 -1.5745 -0.3767 -2.0840
  536MOL0     H70695   6.212   3.919   2.342 -1.0921 -0.1097 -2.8654
  536MOL0     H70696   6.240   3.753   2.378 -2.2591  1.0688  1.1060
  536MOL0     H70697   6.435   3.974   2.289 -0.7499  0.2670 -0.4571
  536MOL0     H70698   6.478   3.815   2.228  0.8620  0.8536  0.9207
  536MOL0     H70699   6.494   3.708   2.434  3.5463 -1.0582  3.2573
  536MOL0     H70700   6.424   3.836   2.524 -1.6270 -1.8735 -0.9114
  536MOL0     H70701   6.687   3.805   2.533  1.0701  1.6974  1.9451
  536MOL0     H70702   6.687   3.846   2.366  0.1507 -2.1028  0.9456
  536MOL0     H70703   6.564   4.072   2.491  0.0160  0.3022  4.4424
  536MOL0     H70704   6.737   4.053   2.444 -0.3795 -1.2031 -0.7414
  536MOL0     H70705   6.481   3.929   2.733  0.3001 -0.9337 -0.1147
  536MOL0     H70706   6.663   3.861   3.031  1.4062  0.0234 -1.6687
  536MOL0     H70707   6.494   3.867   2.965 -0.2043 -2.2859  4.2040
  536MOL0     H70708   6.645   4.043   3.162 -1.5340  3.5090  1.7675
  536MOL0     H70709   6.484   3.964   3.178 -0.9162  0.9053 -1.6874
  536MOL0     H70710   6.487   4.207   3.155 -0.6915  0.1628  0.4287
  536MOL0     H70711   6.513   4.196   2.982  1.6285  2.5735  1.6597
  536MOL0     H70712   6.268   4.212   3.048 -1.4272 -0.4937  1.3061
  536MOL0     H70713   6.291   4.043   3.118  1.4118  0.6311 -0.2053
  536MOL0     H70714   6.279   4.010   2.681  0.3432  1.2881 -0.0018
  536MOL0     H70715   6.056   3.986   2.551 -0.1769  0.6144  0.9345
  536MOL0     H70716   5.540   4.180   2.726 -2.0472  0.5117  2.2729
  536MOL0     H70717   5.357   4.195   2.589  2.9378  2.1070  1.1360
  536MOL0     H70718   5.375   3.915   2.264  0.4041 -1.4381  0.8685
  536MOL0     H70719   5.257   4.033   2.203 -1.7614  1.0000  1.6893
  536MOL0     H70720   5.174   3.763   2.309  1.3133 -0.8780  0.0008
  536MOL0     H70721   5.165   3.819   2.142 -0.1662 -0.1378  0.1698
  536MOL0     H70722   5.037   4.018   2.212 -2.3382  0.8753  0.5751
  536MOL0     H70723   5.008   3.949   2.369  2.2693 -0.0702  1.2012
  536MOL0     H70724   4.929   3.832   2.091 -1.9117 -1.7480 -0.1993
  536MOL0     H70725   4.901   3.741   2.236 -2.5805  0.6242  0.9310
  536MOL0     H70726   4.704   3.860   2.152  0.3229  1.4165  0.8351
  536MOL0     H70727   4.764   4.015   2.161  0.7300  1.0626  1.7658
  536MOL0     H70728   4.801   4.006   2.413  0.9248 -2.3984  1.2357
  536MOL0     H70729   4.739   3.846   2.406  3.2971  1.3608  1.5237
  536MOL0     H70730   4.600   4.117   2.349  1.4013  0.5368  2.6308
  536MOL0     H70731   4.535   3.953   2.298  2.7964 -3.9231  1.2070
  536MOL0     H70732   4.605   4.052   2.585 -0.0584 -1.5059  1.0664
  536MOL0     H70733   4.520   3.906   2.533 -0.8751 -2.8301 -5.3776
  536MOL0     H70734   5.379   3.784   2.459  0.8313  0.4420 -0.7572
  536MOL0     H70735   5.594   3.770   2.616 -2.4505 -2.3754 -1.7795
  536MOL0     H70736   5.850   4.047   2.932  1.2324  1.7437  0.4300
  536MOL0     H70737   6.061   4.094   3.045 -2.0123 -0.8885  0.8124
  536MOL0     H70738   5.877   3.732   1.793 -1.0231 -0.6079  0.9531
  536MOL0     H70739   5.745   3.793   1.603 -1.2586 -0.0309  2.3527
  536MOL0     H70740   5.579   4.107   1.301  0.9452 -1.1479  2.3192
  536MOL0     H70741   5.428   4.101   1.114  1.4097  1.1122 -1.7331
  536MOL0     H70742   5.433   3.740   0.901 -1.2121 -2.1996 -2.9331
  536MOL0     H70743   5.491   3.816   0.752  1.3100 -0.5765  1.4548
  536MOL0     H70744   5.242   3.730   0.755  0.4286 -0.2786 -1.6400
  536MOL0     H70745   5.210   3.861   0.867 -1.1014  1.7627 -1.8259
  536MOL0     H70746   5.307   3.890   0.578 -0.3463  1.8017 -1.2086
  536MOL0     H70747   5.319   4.016   0.706 -2.3703  1.9118 -1.3823
  536MOL0     H70748   5.084   4.008   0.757 -1.7497 -4.2259  0.5503
  536MOL0     H70749   5.096   4.049   0.585 -0.0491 -0.1764  0.1466
  536MOL0     H70750   4.939   3.662   0.555  0.1346 -0.6303  1.0332
  536MOL0     H70751   5.681   3.803   0.926  2.6594  0.3954  0.4818
  536MOL0     H70752   5.825   3.805   1.102  4.2280  5.1263 -3.0289
  537MOL0     O70753   8.139   0.886   7.724 -0.5101 -0.1542 -0.6057
  537MOL0     C70754   8.210   0.859   7.632 -0.4127  0.3142 -0.1865
  537MOL0     O70755   8.183   0.881   7.498  0.2055  0.2032 -0.6792
  537MOL0     C70756   8.051   0.919   7.476 -0.5203  0.4604  0.5138
  537MOL0     C70757   7.954   0.820   7.459 -0.1021 -0.3586 -0.2941
  537MOL0     C70758   7.822   0.861   7.418 -0.6121 -0.0826 -0.1495
  537MOL0     C70759   7.789   0.991   7.386  0.7561 -0.2292  0.0868
  537MOL0     O70760   7.674   1.039   7.332 -0.3411  0.4929  0.4958
  537MOL0     C70761   7.572   1.074   7.413 -0.3894 -0.8527 -0.7045
  537MOL0     C70762   7.434   1.111   7.359  0.2522 -0.8962 -0.1087
  537MOL0     C70763   7.364   0.996   7.276  0.3689  0.5574 -1.2238
  537MOL0     C70764   7.234   1.031   7.204  0.2464  0.4977 -0.6388
  537MOL0     C70765   7.121   1.070   7.298 -0.4210  0.0667 -0.5893
  537MOL0     C70766   7.009   1.130   7.224 -0.1018 -0.1431 -0.3259
  537MOL0     C70767   6.907   1.185   7.327  0.2768 -0.2472  0.0790
  537MOL0     C70768   6.774   1.206   7.250 -0.8036  0.6615 -0.5198
  537MOL0     N70769   6.701   1.089   7.207 -0.0266 -0.6068  0.4352
  537MOL0     C70770   6.663   0.983   7.279 -0.2936  0.1107 -0.2846
  537MOL0     C70771   6.605   0.903   7.199  1.6056 -0.3219  0.4920
  537MOL0     C70772   6.562   0.762   7.223 -0.2079  0.0629  0.0060
  537MOL0     C70773   6.687   0.678   7.251 -1.1740  0.5441 -0.1056
  537MOL0     C70774   6.783   0.677   7.125  1.1614 -1.0416 -0.0729
  537MOL0     C70775   6.874   0.567   7.153  0.1009  0.0420 -1.2681
  537MOL0     O70776   6.959   0.609   7.265  0.5151  0.9031  0.0506
  537MOL0     C70777   7.079   0.546   7.280 -0.9723 -0.1987 -0.4044
  537MOL0     C70778   7.172   0.614   7.351  0.6898 -0.5265 -0.2004
  537MOL0     C70779   7.308   0.573   7.360  0.3426 -0.2234  0.3513
  537MOL0     C70780   7.334   0.443   7.316 -0.8188 -0.8041  0.1180
  537MOL0     C70781   7.475   0.386   7.326 -0.4698  0.1360  0.1387
  537MOL0     O70782   7.507   0.273   7.247 -0.0741 -0.2114 -1.0176
  537MOL0     C70783   7.636   0.220   7.253  0.6110 -0.3179  0.0563
  537MOL0     C70784   7.697   0.169   7.368 -0.1608  0.7265 -0.3212
  537MOL0     C70785   7.825   0.126   7.360 -0.6473  0.3948 -0.3209
  537MOL0     C70786   7.904   0.135   7.252  0.2377 -1.2124 -1.3869
  537MOL0     O70787   8.032   0.089   7.265  0.5926 -0.2183  0.0222
  537MOL0     C70788   8.132   0.192   7.245 -0.7109  0.0501  0.3178
  537MOL0     C70789   8.258   0.111   7.199  0.0062 -0.8878  1.1219
  537MOL0     C70790   8.237   0.030   7.064  0.5828 -0.5108  0.3707
  537MOL0     C70791   8.348  -0.058   7.000  0.3296 -0.4220  0.3707
  537MOL0     C70792   8.342  -0.073   6.847 -0.0240  0.1713 -0.0671
  537MOL0     C70793   8.473  -0.140   6.784 -0.2180  0.6736  0.2917
  537MOL0     C70794   8.496  -0.288   6.837 -0.0509 -0.2713 -0.2745
  537MOL0     C70795   8.391  -0.395   6.803 -0.3538 -0.3507  0.1972
  537MOL0    Cl70796   8.346  -0.394   6.624  0.4781 -0.1238  0.3189
  537MOL0     C70797   7.845   0.190   7.136  0.0634 -0.6738 -0.5180
  537MOL0     C70798   7.713   0.229   7.138 -0.0160 -0.3211  0.9584
  537MOL0     O70799   7.553   0.448   7.403  0.7154  0.3047 -0.3489
  537MOL0     C70800   7.236   0.374   7.250 -0.1235  1.1775 -0.2157
  537MOL0     C70801   7.112   0.422   7.229  0.4009  0.2017  0.2736
  537MOL0     N70802   6.589   0.968   7.081 -1.1709  0.8092 -0.1028
  537MOL0     N70803   6.657   1.074   7.078 -0.2949 -1.2599  0.2349
  537MOL0     C70804   7.896   1.081   7.416  1.0676 -0.5986  1.0689
  537MOL0     C70805   8.012   1.050   7.464 -0.5545 -0.0586 -0.4674
  537MOL0     C70806   8.340   0.792   7.670 -0.7656 -0.6610 -0.8759
  537MOL0     C70807   8.357   0.734   7.792 -0.2209 -0.1264  0.1067
  537MOL0     C70808   8.474   0.670   7.825  0.6039  0.4750 -0.3375
  537MOL0     C70809   8.588   0.663   7.738 -0.4008 -0.2882 -0.6702
  537MOL0     O70810   8.712   0.599   7.768  0.4780 -1.1602  0.1147
  537MOL0     C70811   8.823   0.689   7.771  0.0761 -0.3838 -0.0396
  537MOL0     C70812   8.812   0.802   7.870 -0.7242  0.5936 -0.0271
  537MOL0     C70813   8.926   0.905   7.847 -0.1311  0.6660 -0.4418
  537MOL0     C70814   8.896   1.022   7.943  0.0571  0.2969 -0.6873
  537MOL0     C70815   8.962   0.998   8.078  0.4634  0.7381  1.0786
  537MOL0     C70816   9.012   0.975   8.189 -0.2063 -0.7701 -0.3609
  537MOL0     C70817   8.561   0.711   7.610 -1.2865 -0.3462  0.1252
  537MOL0     C70818   8.444   0.782   7.580 -0.5775 -0.5234 -0.6434
  537MOL0     H70819   7.978   0.714   7.465  1.9047  0.1189  1.0725
  537MOL0     H70820   7.748   0.782   7.410  0.8549 -1.5794  0.6080
  537MOL0     H70821   7.600   1.156   7.480 -0.8659  0.2805 -1.8689
  537MOL0     H70822   7.557   0.988   7.479  0.9092 -0.7818 -0.2872
  537MOL0     H70823   7.457   1.193   7.291  2.4877 -0.3707  1.1668
  537MOL0     H70824   7.369   1.146   7.440 -0.2419 -2.8991  0.4141
  537MOL0     H70825   7.355   0.909   7.341  1.9542  1.0324 -0.3014
  537MOL0     H70826   7.437   0.959   7.205  2.0408 -2.0663  1.6315
  537MOL0     H70827   7.247   1.121   7.144 -0.4191  3.0188  2.7254
  537MOL0     H70828   7.191   0.944   7.152  1.4463 -0.9025  0.6039
  537MOL0     H70829   7.161   1.141   7.371  2.9917 -0.5269 -1.7012
  537MOL0     H70830   7.085   0.983   7.354 -0.8415 -0.9469 -2.3364
  537MOL0     H70831   6.958   1.059   7.158 -0.4579  0.2119 -0.4374
  537MOL0     H70832   7.046   1.216   7.167  0.2094  0.2084  0.3956
  537MOL0     H70833   6.889   1.118   7.412  2.6885 -1.4580 -0.2816
  537MOL0     H70834   6.939   1.284   7.361 -2.7067  1.0192 -0.4240
  537MOL0     H70835   6.784   1.276   7.166  2.3026  0.6935 -0.2661
  537MOL0     H70836   6.708   1.250   7.325  1.3599  0.7610  1.4253
  537MOL0     H70837   6.663   0.966   7.386 -1.9366 -0.9178 -0.4091
  537MOL0     H70838   6.511   0.722   7.134 -3.4597  2.4551  0.5629
  537MOL0     H70839   6.487   0.754   7.303 -3.4806  0.1331 -2.7929
  537MOL0     H70840   6.648   0.578   7.275 -0.8767  0.3502 -0.4289
  537MOL0     H70841   6.743   0.719   7.335  0.2198  0.3217 -0.9085
  537MOL0     H70842   6.725   0.677   7.032  1.5899 -2.9039 -0.3639
  537MOL0     H70843   6.850   0.763   7.118  1.1704 -0.7005  2.8181
  537MOL0     H70844   6.935   0.541   7.066  0.8786 -1.6183 -0.2920
  537MOL0     H70845   6.820   0.476   7.182  1.2036 -0.3726 -0.4409
  537MOL0     H70846   7.155   0.714   7.388  0.2889 -1.1104  1.2748
  537MOL0     H70847   7.380   0.648   7.394 -0.8729  1.3902 -0.5064
  537MOL0     H70848   7.641   0.171   7.461 -0.0612 -1.3223 -0.1782
  537MOL0     H70849   7.872   0.088   7.451  0.9989  0.4191 -1.1265
  537MOL0     H70850   8.147   0.243   7.341  1.1728 -0.2297  0.2022
  537MOL0     H70851   8.105   0.275   7.179 -0.8357  2.4404  3.1625
  537MOL0     H70852   8.296   0.051   7.283  4.8385 -2.3499 -1.7012
  537MOL0     H70853   8.340   0.176   7.170  0.0144 -2.0175 -1.7614
  537MOL0     H70854   8.209   0.097   6.982  2.8899 -0.0392 -0.1071
  537MOL0     H70855   8.150  -0.033   7.083  0.4135 -1.9902 -4.0755
  537MOL0     H70856   8.444  -0.013   7.027  0.4557 -1.1715  1.2499
  537MOL0     H70857   8.336  -0.156   7.049 -1.6067  1.4667  4.1368
  537MOL0     H70858   8.333   0.025   6.799  0.9036  0.3245  0.0572
  537MOL0     H70859   8.260  -0.138   6.814 -0.4075 -1.1430  3.1679
  537MOL0     H70860   8.560  -0.077   6.804  0.5335 -0.8790  2.2726
  537MOL0     H70861   8.454  -0.157   6.677  1.2525 -3.4180  0.5112
  537MOL0     H70862   8.594  -0.319   6.799 -0.7180 -1.6016 -0.9672
  537MOL0     H70863   8.507  -0.280   6.946 -0.0385 -0.6438 -0.2472
  537MOL0     H70864   8.309  -0.355   6.865  3.0260  4.6734  2.0436
  537MOL0     H70865   8.422  -0.496   6.832  0.1028 -1.0264 -2.3975
  537MOL0     H70866   7.915   0.209   7.055  2.6607 -0.8302  1.5557
  537MOL0     H70867   7.672   0.282   7.053  0.9581 -1.0739  0.0127
  537MOL0     H70868   7.279   0.281   7.213  0.8232  1.5256 -0.0227
  537MOL0     H70869   7.041   0.371   7.165  0.1973  0.9534 -0.0992
  537MOL0     H70870   7.869   1.184   7.399 -1.1061 -1.5336 -2.0081
  537MOL0     H70871   8.083   1.132   7.475 -0.1204 -0.4508 -0.3154
  537MOL0     H70872   8.270   0.743   7.857  0.8522  2.6337  1.3008
  537MOL0     H70873   8.496   0.631   7.924  0.1382  0.6252 -0.1754
  537MOL0     H70874   8.831   0.739   7.675  0.2744  1.5110  0.9190
  537MOL0     H70875   8.911   0.628   7.796 -0.9735 -1.1011  2.1805
  537MOL0     H70876   8.711   0.842   7.859 -0.8648  1.1141  2.5520
  537MOL0     H70877   8.826   0.766   7.972  0.1021  1.5607  0.2122
  537MOL0     H70878   8.914   0.935   7.742 -1.1515 -0.0764 -0.5520
  537MOL0     H70879   9.028   0.866   7.857  0.8667  3.1848  0.2020
  537MOL0     H70880   8.939   1.115   7.905  2.1556  0.5560  1.9975
  537MOL0     H70881   8.790   1.043   7.960  0.1649  1.2743 -1.1702
  537MOL0     H70882   9.050   0.973   8.289  0.4502  0.3896 -0.5724
  537MOL0     H70883   8.638   0.700   7.534  0.9402 -0.1489  2.2452
  537MOL0     H70884   8.431   0.846   7.493  0.6464 -0.3775 -0.7441
  538MOL0     O70885   3.529   3.472   1.505  0.3466  0.4001 -0.6987
  538MOL0     C70886   3.570   3.525   1.610  0.6488  1.3652 -0.0885
  538MOL0     O70887   3.526   3.489   1.736 -0.2683 -0.3771  0.4842
  538MOL0     C70888   3.417   3.412   1.763  0.2860  0.4104  0.0114
  538MOL0     C70889   3.407   3.286   1.716  0.1664 -0.4609 -0.5855
  538MOL0     C70890   3.299   3.205   1.752 -0.4244 -0.3283 -0.0978
  538MOL0     C70891   3.188   3.254   1.826 -0.1057 -0.1036 -0.0177
  538MOL0     O70892   3.070   3.176   1.839  0.4411 -0.8645  0.4319
  538MOL0     C70893   2.957   3.236   1.902  0.4038  0.1954 -0.3363
  538MOL0     C70894   2.844   3.145   1.881 -0.1818 -0.6871 -0.1039
  538MOL0     C70895   2.794   3.155   1.743  0.4343  0.0549  0.2858
  538MOL0     C70896   2.708   3.030   1.707 -0.3585 -0.3281  0.0817
  538MOL0     C70897   2.576   3.032   1.781 -0.6607  1.0120  0.3452
  538MOL0     C70898   2.470   2.930   1.725  1.0290  0.1486 -0.0741
  538MOL0     C70899   2.352   2.928   1.814  0.5744 -0.9344 -0.1837
  538MOL0     C70900   2.253   2.826   1.748  1.0441 -0.0447 -0.1770
  538MOL0     N70901   2.138   2.807   1.828  0.4842 -0.1611  0.4414
  538MOL0     C70902   2.084   2.684   1.854  0.3291 -0.0764  0.0022
  538MOL0     C70903   1.955   2.714   1.880  0.1111 -0.4765 -0.3693
  538MOL0     C70904   1.836   2.627   1.907  0.0903  1.1669 -0.2263
  538MOL0     C70905   1.773   2.601   1.774  0.4725 -0.1439 -0.8001
  538MOL0     C70906   1.660   2.505   1.764 -0.1995 -0.1699 -0.2754
  538MOL0     C70907   1.544   2.562   1.856 -0.2391  0.1767 -0.0229
  538MOL0     O70908   1.445   2.460   1.865  0.4924  0.1433  0.1002
  538MOL0     C70909   1.325   2.490   1.810 -0.1858 -0.2571 -0.8036
  538MOL0     C70910   1.202   2.481   1.890  0.1995  0.1083  0.5747
  538MOL0     C70911   1.082   2.520   1.835 -0.0618 -0.3367  0.0071
  538MOL0     C70912   1.071   2.562   1.706  0.5352 -1.6910 -0.0493
  538MOL0     C70913   0.941   2.609   1.660 -0.1115  1.0954  0.8206
  538MOL0     O70914   0.925   2.623   1.524 -0.4652 -0.1641 -0.4370
  538MOL0     C70915   0.795   2.644   1.469 -0.2437 -0.1578 -0.7807
  538MOL0     C70916   0.769   2.750   1.389 -0.2016  0.2575  0.2929
  538MOL0     C70917   0.641   2.768   1.329 -0.1108  0.0737 -0.6101
  538MOL0     C70918   0.538   2.685   1.362  0.0203  0.3613  0.3015
  538MOL0     O70919   0.412   2.704   1.312 -1.1780 -0.1482  0.3576
  538MOL0     C70920   0.343   2.595   1.254 -0.3440 -0.4835 -0.3761
  538MOL0     C70921   0.228   2.645   1.175  0.8709 -0.4383  0.3290
  538MOL0     C70922   0.198   2.528   1.092 -1.0387 -0.7466  0.7524
  538MOL0     C70923   0.075   2.545   0.998  0.5783  0.1635  0.4411
  538MOL0     C70924   0.052   2.419   0.907 -0.0091 -0.0350  0.8027
  538MOL0     C70925  -0.062   2.419   0.805 -0.8546 -0.1001  0.2752
  538MOL0     C70926  -0.198   2.413   0.884 -0.0375 -0.3755 -0.2735
  538MOL0     C70927  -0.317   2.401   0.786 -1.3209  0.3058  0.4114
  538MOL0    Cl70928  -0.479   2.399   0.862  0.0121  0.1676 -0.0348
  538MOL0     C70929   0.563   2.584   1.452 -0.5536  0.3845 -0.9606
  538MOL0     C70930   0.687   2.567   1.517  0.3550 -0.8869  0.2701
  538MOL0     O70931   0.857   2.641   1.745 -0.1939 -0.6770 -0.1773
  538MOL0     C70932   1.188   2.581   1.633  0.0526 -0.3773  0.0176
  538MOL0     C70933   1.310   2.541   1.684 -0.2383  0.6566 -0.3821
  538MOL0     N70934   1.943   2.848   1.868  0.8022 -0.6846 -0.4002
  538MOL0     N70935   2.050   2.908   1.853 -0.5459 -0.2323 -0.4781
  538MOL0     C70936   3.200   3.385   1.866  0.0305 -0.8257 -0.1355
  538MOL0     C70937   3.319   3.466   1.847  0.7103  0.7756 -0.2946
  538MOL0     C70938   3.684   3.626   1.600  0.4547 -0.4136 -0.3939
  538MOL0     C70939   3.737   3.690   1.712 -0.8104  0.2354  0.3634
  538MOL0     C70940   3.835   3.793   1.707 -0.1057  1.0338 -0.0187
  538MOL0     C70941   3.882   3.846   1.589 -0.5452  0.9114  0.1630
  538MOL0     O70942   3.986   3.930   1.584  0.4564  0.1880 -1.2564
  538MOL0     C70943   4.016   3.997   1.459  0.2010 -0.2887  0.1235
  538MOL0     C70944   4.133   4.095   1.469  0.4661  0.3708  0.6339
  538MOL0     C70945   4.256   4.018   1.538 -0.8574 -0.5004  1.0141
  538MOL0     C70946   4.366   4.118   1.564 -0.8331 -0.0336  0.4755
  538MOL0     C70947   4.431   4.175   1.441 -0.1425 -0.3151 -1.0455
  538MOL0     C70948   4.513   4.225   1.370 -0.1910  0.2269  0.5190
  538MOL0     C70949   3.817   3.795   1.475  0.7656  0.0815 -0.6846
  538MOL0     C70950   3.717   3.693   1.484 -0.2033 -0.7079  0.3879
  538MOL0     H70951   3.481   3.240   1.651  0.9582 -0.8256  0.5322
  538MOL0     H70952   3.274   3.102   1.726 -1.1037 -0.4276  0.8807
  538MOL0     H70953   2.937   3.333   1.856 -1.5143 -0.2292 -0.4569
  538MOL0     H70954   2.964   3.250   2.010 -5.5664  0.4562  0.3253
  538MOL0     H70955   2.766   3.161   1.956  1.7628 -0.4735  1.9618
  538MOL0     H70956   2.875   3.041   1.893  0.2337 -0.8041 -1.9054
  538MOL0     H70957   2.879   3.162   1.675 -0.0791 -3.0669 -0.8538
  538MOL0     H70958   2.736   3.247   1.729  2.2092  1.2854  0.7886
  538MOL0     H70959   2.690   3.039   1.599  1.1030  2.1410 -0.0405
  538MOL0     H70960   2.758   2.938   1.736  0.5583  0.6718  1.8310
  538MOL0     H70961   2.529   3.129   1.763 -1.1985  0.5972 -0.5780
  538MOL0     H70962   2.590   3.003   1.886  1.0884  0.3883 -0.0276
  538MOL0     H70963   2.509   2.828   1.727 -1.6086 -0.9836  2.7498
  538MOL0     H70964   2.438   2.967   1.628  1.0256  0.0589 -0.1068
  538MOL0     H70965   2.379   2.899   1.916  0.8357 -3.7986 -0.9649
  538MOL0     H70966   2.315   3.031   1.812 -0.4759 -0.9891  4.3108
  538MOL0     H70967   2.291   2.726   1.728 -0.1770 -0.6667  0.5036
  538MOL0     H70968   2.217   2.864   1.652 -0.3501 -3.0503 -0.9615
  538MOL0     H70969   2.121   2.582   1.846 -0.3997 -0.5445  2.0430
  538MOL0     H70970   1.769   2.675   1.979  1.1336 -0.0260  1.6242
  538MOL0     H70971   1.858   2.529   1.951 -1.1808  0.8734 -0.2049
  538MOL0     H70972   1.852   2.553   1.716  2.3258 -0.0704  1.4845
  538MOL0     H70973   1.742   2.696   1.730  4.8319  0.9218 -2.0600
  538MOL0     H70974   1.628   2.498   1.660  2.3123 -2.2201 -1.0345
  538MOL0     H70975   1.694   2.407   1.801  0.3435 -0.1420 -0.6920
  538MOL0     H70976   1.503   2.656   1.819 -1.8533 -0.7136 -0.6041
  538MOL0     H70977   1.583   2.584   1.956  1.1065  0.9690 -0.6963
  538MOL0     H70978   1.198   2.454   1.995  2.3512 -0.8053  0.4611
  538MOL0     H70979   1.001   2.513   1.907  1.4576  0.9636  1.9356
  538MOL0     H70980   0.852   2.817   1.373  1.8182 -1.6076  2.1307
  538MOL0     H70981   0.625   2.862   1.277  1.5921 -0.1350 -1.5885
  538MOL0     H70982   0.312   2.517   1.323  1.0811 -1.6512 -0.9996
  538MOL0     H70983   0.405   2.554   1.173 -0.7539 -0.0255 -0.9307
  538MOL0     H70984   0.254   2.733   1.115 -0.8112  0.7580  1.2823
  538MOL0     H70985   0.140   2.674   1.233  1.1176  3.9022 -1.0723
  538MOL0     H70986   0.187   2.441   1.158  1.6135  1.0932  3.9549
  538MOL0     H70987   0.277   2.500   1.022 -0.6156  0.0324  0.9008
  538MOL0     H70988  -0.016   2.554   1.059  1.5214 -0.2763  1.9582
  538MOL0     H70989   0.078   2.639   0.943 -0.7811  1.8979  3.0833
  538MOL0     H70990   0.040   2.326   0.963  0.2843 -1.5160 -1.4553
  538MOL0     H70991   0.145   2.412   0.849 -0.6850  0.6347 -0.4054
  538MOL0     H70992  -0.072   2.340   0.730 -1.8731  0.1383  0.1405
  538MOL0     H70993  -0.057   2.514   0.750  1.4089  0.0402  0.6196
  538MOL0     H70994  -0.198   2.328   0.953  0.9102 -0.2523 -0.1031
  538MOL0     H70995  -0.208   2.508   0.936 -1.0137 -2.2500  3.2596
  538MOL0     H70996  -0.309   2.310   0.725 -2.3275 -0.0164  0.7558
  538MOL0     H70997  -0.308   2.485   0.716 -1.5521  1.7494  2.0628
  538MOL0     H70998   0.469   2.540   1.484 -1.2912  2.6938  0.2389
  538MOL0     H70999   0.701   2.494   1.596 -2.2632 -1.0051  0.7155
  538MOL0     H71000   1.174   2.615   1.531 -0.9204 -1.4754 -0.2368
  538MOL0     H71001   1.395   2.549   1.617  1.6604 -1.4751  1.5832
  538MOL0     H71002   3.131   3.421   1.942  1.7121 -0.8838  1.4991
  538MOL0     H71003   3.320   3.570   1.878 -3.1172  0.4346  1.5094
  538MOL0     H71004   3.704   3.652   1.808  0.6933  1.0217  1.2390
  538MOL0     H71005   3.889   3.819   1.798  2.1452 -1.8392 -0.3574
  538MOL0     H71006   3.923   4.041   1.421 -0.7277 -0.8492  1.6427
  538MOL0     H71007   4.059   3.921   1.392  0.7519  0.1194  0.0105
  538MOL0     H71008   4.161   4.129   1.369 -1.6991 -0.0657 -0.1725
  538MOL0     H71009   4.095   4.181   1.526 -0.8214  0.1448  0.1548
  538MOL0     H71010   4.283   3.939   1.467 -3.4050  1.3979 -2.3536
  538MOL0     H71011   4.220   3.967   1.628 -1.8368  0.2832  1.0809
  538MOL0     H71012   4.317   4.203   1.611  0.0868 -0.9574  3.3043
  538MOL0     H71013   4.433   4.068   1.634 -0.7057 -3.1750 -1.6573
  538MOL0     H71014   4.582   4.276   1.305 -0.5764 -3.0590 -2.7634
  538MOL0     H71015   3.849   3.824   1.375  4.1972 -0.5909  0.0714
  538MOL0     H71016   3.676   3.681   1.384  1.1770  0.0651 -0.3070
  539MOL0     O71017   4.645   8.629   0.358 -0.2119 -0.4106  0.3270
  539MOL0     C71018   4.735   8.639   0.435 -0.7136  0.5681 -0.0937
  539MOL0     O71019   4.722   8.689   0.561  0.2656  0.2554  1.0962
  539MOL0     C71020   4.592   8.712   0.605  1.3089 -0.4248 -0.3883
  539MOL0     C71021   4.491   8.773   0.538 -0.4180  0.4380 -0.2858
  539MOL0     C71022   4.365   8.799   0.595 -0.4374 -0.2956  0.3023
  539MOL0     C71023   4.339   8.769   0.730 -0.3743 -0.0050 -0.5754
  539MOL0     O71024   4.224   8.795   0.798  0.4447  0.0421  0.5258
  539MOL0     C71025   4.089   8.775   0.736  0.0574 -0.2702  0.8210
  539MOL0     C71026   3.994   8.798   0.839  0.1107  0.3820 -0.3933
  539MOL0     C71027   3.850   8.790   0.788  0.8024  0.2394  0.0416
  539MOL0     C71028   3.745   8.815   0.904 -0.4857  0.3350  0.1781
  539MOL0     C71029   3.604   8.842   0.859  0.3434  0.2712 -0.9288
  539MOL0     C71030   3.520   8.828   0.986  0.0668 -0.1186  0.5254
  539MOL0     C71031   3.373   8.839   0.946  0.0523  0.6429 -1.0035
  539MOL0     C71032   3.278   8.837   1.072 -0.5350  0.9920 -0.3345
  539MOL0     N71033   3.132   8.843   1.045 -0.4860 -0.5432 -0.2113
  539MOL0     C71034   3.069   8.954   0.982  0.6570 -0.4760  0.6676
  539MOL0     C71035   2.940   8.913   0.977  0.5490  0.0165  0.4677
  539MOL0     C71036   2.854   8.983   0.883 -1.0636 -0.0409  0.4303
  539MOL0     C71037   2.714   9.019   0.915  0.4339 -0.0151 -0.2389
  539MOL0     C71038   2.695   9.162   0.971 -0.3412 -0.1929  0.3304
  539MOL0     C71039   2.570   9.183   1.061 -0.4547  0.1237  0.0882
  539MOL0     O71040   2.451   9.147   0.990  0.0768  0.1793 -0.3631
  539MOL0     C71041   2.325   9.193   1.026 -0.1757 -0.5963 -0.3969
  539MOL0     C71042   2.290   9.246   1.153  0.7077 -1.4331 -0.0391
  539MOL0     C71043   2.164   9.298   1.189 -0.3984  0.0749 -0.3674
  539MOL0     C71044   2.058   9.297   1.091  0.0828  0.9093 -0.2301
  539MOL0     C71045   1.916   9.327   1.121  0.8510  0.6345  0.3477
  539MOL0     O71046   1.829   9.335   1.006 -0.3801  0.2235  0.2597
  539MOL0     C71047   1.693   9.344   1.030 -0.8740  0.3014  0.3834
  539MOL0     C71048   1.630   9.464   1.030 -0.5476  1.2371  0.3155
  539MOL0     C71049   1.494   9.476   1.057 -0.3400  0.4936 -0.4532
  539MOL0     C71050   1.417   9.364   1.089  0.4601  0.2851  0.4927
  539MOL0     O71051   1.284   9.365   1.125  0.2936 -0.1081 -0.2760
  539MOL0     C71052   1.223   9.495   1.150  0.5164 -0.5341 -0.6181
  539MOL0     C71053   1.076   9.486   1.204  0.1413  0.5100  0.3014
  539MOL0     C71054   0.981   9.386   1.114 -0.5356  0.7129  0.2489
  539MOL0     C71055   0.837   9.391   1.148 -0.0851 -0.5155  0.2794
  539MOL0     C71056   0.755   9.365   1.011 -0.1072 -0.4237  0.4077
  539MOL0     C71057   0.756   9.211   0.975 -0.5575 -0.4108 -0.4358
  539MOL0     C71058   0.723   9.198   0.819 -0.1144 -1.5530  0.0824
  539MOL0     C71059   0.711   9.051   0.778  0.4116  0.0567  0.6114
  539MOL0    Cl71060   0.623   8.936   0.886 -0.1220 -0.2352  0.4897
  539MOL0     C71061   1.482   9.240   1.071  0.7409 -0.8684 -0.2487
  539MOL0     C71062   1.616   9.227   1.041  0.3774 -0.1039 -1.1442
  539MOL0     O71063   1.880   9.335   1.240  0.0274  0.7379  0.3010
  539MOL0     C71064   2.090   9.242   0.966  0.5369  1.0185 -0.8492
  539MOL0     C71065   2.220   9.187   0.937  0.3220 -0.7240  0.3190
  539MOL0     N71066   2.914   8.794   1.042 -0.2292  0.4843  0.2105
  539MOL0     N71067   3.035   8.753   1.080  0.1934 -0.2907 -0.7924
  539MOL0     C71068   4.451   8.717   0.805  0.5259  0.6733  0.2637
  539MOL0     C71069   4.569   8.684   0.741 -0.2039 -1.1158 -0.0612
  539MOL0     C71070   4.864   8.602   0.382  1.5610 -0.2382 -0.2739
  539MOL0     C71071   4.879   8.539   0.257  0.3386  0.1339  0.1400
  539MOL0     C71072   5.003   8.490   0.209 -0.4308  0.4838  0.2984
  539MOL0     C71073   5.120   8.516   0.287  0.0857 -0.3668 -0.0528
  539MOL0     O71074   5.245   8.480   0.245  0.0614 -0.2636 -0.0804
  539MOL0     C71075   5.372   8.500   0.310 -0.1028  0.1353  0.5728
  539MOL0     C71076   5.482   8.538   0.207 -0.8029 -0.3249  0.0826
  539MOL0     C71077   5.506   8.428   0.100 -0.0913 -0.0489 -0.3129
  539MOL0     C71078   5.634   8.343   0.121  0.6613  0.9444  0.2291
  539MOL0     C71079   5.649   8.226   0.027 -1.0674 -0.2865 -0.7018
  539MOL0     C71080   5.646   8.144  -0.061  0.3532 -0.5148 -1.3651
  539MOL0     C71081   5.109   8.573   0.412  0.2846 -0.3479 -1.1534
  539MOL0     C71082   4.978   8.616   0.459 -0.1589  0.7351  0.9627
  539MOL0     H71083   4.492   8.801   0.434 -2.2677 -0.6567 -0.6494
  539MOL0     H71084   4.290   8.837   0.527  0.0913 -2.1656 -1.4160
  539MOL0     H71085   4.070   8.677   0.691  1.2935  0.3909 -1.2589
  539MOL0     H71086   4.078   8.856   0.663 -0.0742 -0.7809  0.2681
  539MOL0     H71087   4.020   8.896   0.881  0.6160  0.6206 -1.2416
  539MOL0     H71088   4.022   8.734   0.923 -0.9217  1.5987  0.9467
  539MOL0     H71089   3.834   8.694   0.737 -0.2941 -0.0578  0.9043
  539MOL0     H71090   3.826   8.869   0.717  0.7115 -1.4422 -1.8716
  539MOL0     H71091   3.736   8.718   0.953 -0.0524  0.3437  0.2769
  539MOL0     H71092   3.786   8.896   0.966 -0.0421  0.5313 -0.3619
  539MOL0     H71093   3.581   8.763   0.787  1.0635  0.3743 -1.2807
  539MOL0     H71094   3.597   8.943   0.818  1.8724  0.0815 -1.7196
  539MOL0     H71095   3.544   8.910   1.054  2.2698 -0.9150  0.7973
  539MOL0     H71096   3.533   8.730   1.032 -1.4189  0.0539  1.3703
  539MOL0     H71097   3.349   8.933   0.895  0.3285  1.0811 -0.3421
  539MOL0     H71098   3.343   8.748   0.894  1.2051 -0.3582  0.0261
  539MOL0     H71099   3.299   8.923   1.137 -2.1811 -0.4468  2.2958
  539MOL0     H71100   3.294   8.745   1.129  0.0170  2.0928  1.3654
  539MOL0     H71101   3.105   9.041   0.927 -0.8282 -1.1028 -1.4063
  539MOL0     H71102   2.857   8.914   0.798  0.6261 -0.7842  1.0613
  539MOL0     H71103   2.899   9.079   0.858  2.1970 -1.3893  0.7293
  539MOL0     H71104   2.681   8.946   0.991  1.0457 -0.7659 -0.6843
  539MOL0     H71105   2.660   9.012   0.820  0.2831  0.1633 -0.1664
  539MOL0     H71106   2.782   9.199   1.026 -0.6775  1.6621 -0.3251
  539MOL0     H71107   2.692   9.231   0.886  0.6164  0.6769  0.9732
  539MOL0     H71108   2.569   9.290   1.084  1.4131  0.2897 -0.4203
  539MOL0     H71109   2.571   9.131   1.158  0.2353 -0.1863 -0.0743
  539MOL0     H71110   2.367   9.250   1.229  1.2305 -1.3625 -0.5660
  539MOL0     H71111   2.155   9.327   1.293  0.7630 -1.6994  0.2620
  539MOL0     H71112   1.685   9.556   1.018 -1.1211  1.4239 -1.2023
  539MOL0     H71113   1.451   9.575   1.066  0.4327  0.8853 -0.9244
  539MOL0     H71114   1.210   9.558   1.062 -3.0426 -0.7334 -0.3907
  539MOL0     H71115   1.281   9.558   1.218 -0.8282 -2.1620  2.2514
  539MOL0     H71116   1.028   9.584   1.206 -2.2677 -0.5753 -0.7445
  539MOL0     H71117   1.071   9.437   1.302 -3.6114  0.7931  0.3677
  539MOL0     H71118   1.013   9.285   1.142 -2.4931  0.7350  2.9540
  539MOL0     H71119   0.985   9.417   1.009 -0.4064  1.7763  0.5613
  539MOL0     H71120   0.817   9.313   1.222 -2.0295  0.2237  0.5994
  539MOL0     H71121   0.800   9.478   1.203  0.6926 -0.6689  1.0802
  539MOL0     H71122   0.784   9.429   0.927 -0.1253  0.2738  0.9323
  539MOL0     H71123   0.651   9.392   1.032  0.2546  0.3539  1.2757
  539MOL0     H71124   0.692   9.153   1.042  2.2473 -2.2000  0.9086
  539MOL0     H71125   0.858   9.181   1.000  1.2290  1.3567 -4.7705
  539MOL0     H71126   0.624   9.244   0.808  0.3729 -0.6810 -0.8394
  539MOL0     H71127   0.798   9.258   0.767 -2.2588  0.4104 -0.9528
  539MOL0     H71128   0.809   9.010   0.749  0.8013  0.9341  0.6621
  539MOL0     H71129   0.651   9.051   0.686  1.6471  1.5284 -0.2408
  539MOL0     H71130   1.431   9.144   1.080  2.0170 -1.4578  1.0591
  539MOL0     H71131   1.663   9.129   1.050 -0.8819 -0.6862 -0.5935
  539MOL0     H71132   2.021   9.237   0.882 -1.3536 -0.7942  0.7046
  539MOL0     H71133   2.245   9.147   0.839  0.2047 -1.3282  0.5358
  539MOL0     H71134   4.438   8.685   0.908 -1.5182 -0.7338 -0.3671
  539MOL0     H71135   4.652   8.642   0.797  1.2131  1.0830 -0.3805
  539MOL0     H71136   4.803   8.522   0.182  1.8706 -2.3356 -0.9771
  539MOL0     H71137   5.020   8.442   0.113 -1.0667 -2.2047  1.4352
  539MOL0     H71138   5.407   8.407   0.357  1.8449 -0.0070 -1.0245
  539MOL0     H71139   5.367   8.589   0.373 -1.1172  1.7015 -1.6203
  539MOL0     H71140   5.450   8.629   0.156  1.6032 -0.7762 -2.5203
  539MOL0     H71141   5.583   8.545   0.250 -1.3617 -1.2615  1.6436
  539MOL0     H71142   5.518   8.476   0.002  0.4493  0.1619 -0.1446
  539MOL0     H71143   5.417   8.366   0.116 -0.6569  0.6610 -0.6543
  539MOL0     H71144   5.730   8.395   0.119 -0.2982  2.7782 -0.6987
  539MOL0     H71145   5.620   8.292   0.217 -2.3579  1.6429  0.2698
  539MOL0     H71146   5.657   8.078  -0.145 -1.9364  1.8354 -3.6677
  539MOL0     H71147   5.198   8.601   0.468 -0.4396  2.1840 -1.1514
  539MOL0     H71148   4.964   8.682   0.544 -0.5522  2.0536 -0.0940
  540MOL0     O71149   7.852   9.659   7.914  0.0476  0.2639 -0.1530
  540MOL0     C71150   7.883   9.540   7.936 -0.5483  0.4758  0.2821
  540MOL0     O71151   7.797   9.436   7.955  0.6211  0.1484 -0.7990
  540MOL0     C71152   7.659   9.455   7.925 -0.1425 -0.7307  0.5047
  540MOL0     C71153   7.595   9.559   7.844  0.7051  0.3547 -0.0661
  540MOL0     C71154   7.459   9.563   7.835 -0.3786 -0.4304  0.0111
  540MOL0     C71155   7.377   9.472   7.906  0.5649  0.1553 -0.4768
  540MOL0     O71156   7.244   9.485   7.898  0.2005 -0.5591 -0.4002
  540MOL0     C71157   7.157   9.367   7.917  0.1025  0.4527 -0.0038
  540MOL0     C71158   7.005   9.397   7.927  0.5155 -0.3446  0.0092
  540MOL0     C71159   6.952   9.507   7.830  0.3826  0.0189 -0.2719
  540MOL0     C71160   6.799   9.513   7.857  0.4832  0.4011  0.0900
  540MOL0     C71161   6.737   9.629   7.781  0.6733 -0.6796  1.3993
  540MOL0     C71162   6.727   9.599   7.622 -1.0353 -0.4443 -0.4813
  540MOL0     C71163   6.635   9.473   7.590  0.5338  0.1843 -1.1124
  540MOL0     C71164   6.479   9.506   7.601 -1.2136  0.3034 -0.8607
  540MOL0     N71165   6.417   9.372   7.611  0.1244 -0.5084 -0.2009
  540MOL0     C71166   6.441   9.259   7.532 -0.5144  0.4787  0.5744
  540MOL0     C71167   6.401   9.145   7.592  0.6406 -0.1030  0.1053
  540MOL0     C71168   6.440   9.010   7.563  0.4638  0.6207 -0.2069
  540MOL0     C71169   6.430   8.976   7.403  0.9240  0.7416 -0.0338
  540MOL0     C71170   6.305   9.011   7.322 -0.4210  0.8808 -0.1178
  540MOL0     C71171   6.177   8.957   7.382 -0.3976 -0.1583  0.4348
  540MOL0     O71172   6.056   9.009   7.324  0.1231 -0.2308 -0.5752
  540MOL0     C71173   5.950   8.931   7.357  0.9089 -0.0910  0.3589
  540MOL0     C71174   5.877   8.872   7.245 -0.9555  0.2968  0.1725
  540MOL0     C71175   5.767   8.792   7.279  0.4491  0.1901  1.0849
  540MOL0     C71176   5.717   8.773   7.410  0.4919 -0.1986 -0.1506
  540MOL0     C71177   5.592   8.687   7.435 -0.1674 -0.8986  0.2363
  540MOL0     O71178   5.513   8.732   7.536  0.0915 -0.8016  0.2920
  540MOL0     C71179   5.387   8.682   7.555  0.0400 -0.0653 -0.5283
  540MOL0     C71180   5.335   8.681   7.688 -0.2419  0.2852 -0.2829
  540MOL0     C71181   5.211   8.626   7.732 -0.8369  0.2717  0.5883
  540MOL0     C71182   5.128   8.574   7.631 -0.5202  0.6137 -0.5612
  540MOL0     O71183   5.009   8.514   7.661 -0.3666 -0.0224 -0.3324
  540MOL0     C71184   4.963   8.532   7.793  0.6705 -0.2170 -0.2904
  540MOL0     C71185   4.820   8.475   7.799 -0.2655  1.3061  0.3365
  540MOL0     C71186   4.741   8.517   7.924 -0.7577 -0.4962  0.1735
  540MOL0     C71187   4.588   8.488   7.911 -0.4887 -0.0321  0.0610
  540MOL0     C71188   4.515   8.519   8.041 -0.4608  0.1746  0.3026
  540MOL0     C71189   4.370   8.486   8.022 -0.0951  0.1563 -0.2867
  540MOL0     C71190   4.268   8.536   8.116  0.7271  0.0142 -0.5945
  540MOL0     C71191   4.130   8.465   8.110 -0.8562  0.7884 -0.4327
  540MOL0    Cl71192   4.071   8.457   7.946  0.0650 -0.1778  0.0713
  540MOL0     C71193   5.178   8.570   7.499 -0.0788 -0.1985  0.1504
  540MOL0     C71194   5.303   8.613   7.459  0.1283 -0.5838 -1.2063
  540MOL0     O71195   5.568   8.600   7.354 -0.1155  0.5112 -0.7119
  540MOL0     C71196   5.778   8.842   7.518 -0.0968  0.8878 -0.0592
  540MOL0     C71197   5.895   8.924   7.486 -0.7292 -0.4770  0.4655
  540MOL0     N71198   6.353   9.195   7.715 -1.0924  0.0666  0.5342
  540MOL0     N71199   6.357   9.322   7.720 -0.2167 -0.1085 -0.4981
  540MOL0     C71200   7.440   9.374   7.982 -0.1016  0.9678 -0.2334
  540MOL0     C71201   7.574   9.370   7.989  0.0452  0.0101  0.3295
  540MOL0     C71202   8.031   9.501   7.938  0.3709 -0.2513  0.9558
  540MOL0     C71203   8.121   9.593   7.891 -1.3919  0.6890  1.4434
  540MOL0     C71204   8.261   9.567   7.898  0.2071  0.9474 -0.3752
  540MOL0     C71205   8.304   9.449   7.954  0.0597  0.8430  0.7871
  540MOL0     O71206   8.434   9.413   7.974  0.4004 -0.3713  0.0463
  540MOL0     C71207   8.533   9.474   7.899 -0.2850 -0.5728  0.4155
  540MOL0     C71208   8.632   9.363   7.847  0.7683  0.3449 -0.3657
  540MOL0     C71209   8.743   9.422   7.775  0.2352 -0.5713  0.3322
  540MOL0     C71210   8.838   9.332   7.700 -0.8985 -0.2105  0.0633
  540MOL0     C71211   8.932   9.405   7.608  0.7001 -0.1670  0.9067
  540MOL0     C71212   9.013   9.466   7.534  0.6726  0.9048  0.5980
  540MOL0     C71213   8.213   9.355   7.996  0.4997  0.2755 -0.2000
  540MOL0     C71214   8.078   9.384   7.992 -1.0608 -0.3420 -0.3289
  540MOL0     H71215   7.657   9.629   7.789  0.3546  0.0631 -0.8481
  540MOL0     H71216   7.407   9.644   7.784 -1.1375  1.9957  4.1360
  540MOL0     H71217   7.174   9.317   8.013 -0.1237  2.5001  1.1704
  540MOL0     H71218   7.177   9.297   7.836 -0.4959 -0.0512  0.2787
  540MOL0     H71219   6.980   9.412   8.032 -1.7864 -1.4763 -0.3215
  540MOL0     H71220   6.948   9.307   7.901 -0.0491 -0.1417  0.5250
  540MOL0     H71221   6.983   9.481   7.728  2.4916  0.0826  0.3006
  540MOL0     H71222   7.001   9.601   7.855  0.1375 -0.1442  0.8942
  540MOL0     H71223   6.749   9.417   7.844 -0.7820  0.9433  0.7402
  540MOL0     H71224   6.794   9.546   7.961  3.8809 -0.5607  0.6550
  540MOL0     H71225   6.797   9.716   7.809  3.0340 -2.2545  1.4838
  540MOL0     H71226   6.639   9.642   7.828  0.5185 -0.3141  0.9885
  540MOL0     H71227   6.826   9.581   7.576 -2.1128 -0.3112 -3.0425
  540MOL0     H71228   6.680   9.683   7.570  0.9209 -0.8200 -3.0710
  540MOL0     H71229   6.662   9.448   7.487  3.2214  0.9748 -0.6871
  540MOL0     H71230   6.663   9.392   7.658 -2.2060 -1.1141 -1.3932
  540MOL0     H71231   6.457   9.576   7.520  1.5339  3.7345  1.0733
  540MOL0     H71232   6.465   9.562   7.693  6.7004  2.6329 -0.3153
  540MOL0     H71233   6.499   9.251   7.441 -2.7913  3.2961 -1.2929
  540MOL0     H71234   6.382   8.938   7.622 -1.4348  2.4373  0.2678
  540MOL0     H71235   6.540   8.989   7.601 -0.0223  1.8737  1.9433
  540MOL0     H71236   6.438   8.867   7.394 -0.9030  0.6129 -0.5296
  540MOL0     H71237   6.511   9.027   7.351  0.7812  0.5343 -0.4686
  540MOL0     H71238   6.306   9.119   7.305 -0.7791  0.4696 -3.5232
  540MOL0     H71239   6.306   8.976   7.218 -0.0690  0.7513 -0.0738
  540MOL0     H71240   6.184   8.990   7.486  2.9330  3.1079 -0.6021
  540MOL0     H71241   6.174   8.848   7.378  0.5473 -0.1625 -2.0197
  540MOL0     H71242   5.905   8.882   7.141 -0.7757  0.4052  0.2290
  540MOL0     H71243   5.710   8.743   7.200 -0.0435  1.4043  0.6590
  540MOL0     H71244   5.384   8.730   7.772 -0.2598 -1.0920  0.5653
  540MOL0     H71245   5.198   8.628   7.840 -2.1840 -2.0551  0.5380
  540MOL0     H71246   4.961   8.640   7.806 -4.1466  0.1882 -2.3196
  540MOL0     H71247   5.031   8.490   7.868 -1.7820 -0.3762  1.9783
  540MOL0     H71248   4.829   8.368   7.777  0.0550  1.7100 -1.6567
  540MOL0     H71249   4.758   8.511   7.716  1.0641 -1.9828 -2.3416
  540MOL0     H71250   4.752   8.624   7.940  0.9152 -0.6263  0.0864
  540MOL0     H71251   4.784   8.464   8.009 -2.6304 -5.0056 -1.3735
  540MOL0     H71252   4.535   8.539   7.830 -2.9138  2.0116  2.7696
  540MOL0     H71253   4.597   8.381   7.889  1.2956  0.3113 -1.1307
  540MOL0     H71254   4.531   8.625   8.060  1.6869  0.5340 -2.7296
  540MOL0     H71255   4.552   8.461   8.126  0.4525 -0.8882 -0.7802
  540MOL0     H71256   4.359   8.378   8.016  0.0095  0.1405 -0.1927
  540MOL0     H71257   4.344   8.533   7.926 -1.0385 -0.1021 -0.1682
  540MOL0     H71258   4.295   8.536   8.222 -0.6991  2.7661 -0.1452
  540MOL0     H71259   4.244   8.637   8.083 -0.5487 -0.6562 -1.8125
  540MOL0     H71260   4.058   8.511   8.179  0.9633 -0.6629  2.6734
  540MOL0     H71261   4.145   8.366   8.154  1.5948  1.2777  0.0257
  540MOL0     H71262   5.109   8.538   7.422 -1.0862 -1.1435  1.3971
  540MOL0     H71263   5.325   8.601   7.353  2.4774  3.4191 -1.3707
  540MOL0     H71264   5.745   8.830   7.621  0.5641  1.4138  0.2143
  540MOL0     H71265   5.953   8.981   7.557 -2.3547 -0.2502  1.6713
  540MOL0     H71266   7.376   9.301   8.030 -0.5242 -0.1640 -2.3905
  540MOL0     H71267   7.615   9.290   8.050  1.4918 -1.2743 -2.1767
  540MOL0     H71268   8.088   9.679   7.834 -2.3571 -0.7677 -0.3224
  540MOL0     H71269   8.321   9.642   7.847  2.3376 -0.1970  0.3402
  540MOL0     H71270   8.577   9.555   7.959 -2.5526  1.2595 -0.2648
  540MOL0     H71271   8.485   9.510   7.808 -2.4317  1.1289  2.1147
  540MOL0     H71272   8.679   9.321   7.936 -1.2826 -2.1535 -0.3253
  540MOL0     H71273   8.590   9.277   7.794  1.6489  0.6494 -1.5834
  540MOL0     H71274   8.804   9.476   7.848  1.2811 -4.1015  2.2786
  540MOL0     H71275   8.711   9.503   7.708  1.2785 -0.7882 -0.4625
  540MOL0     H71276   8.901   9.284   7.776 -0.9076 -0.4853 -0.1034
  540MOL0     H71277   8.777   9.254   7.653  0.6142 -0.9210 -0.7715
  540MOL0     H71278   9.067   9.506   7.451  1.8758  1.2502  1.5217
  540MOL0     H71279   8.258   9.264   8.034  0.8634  1.3553  2.1748
  540MOL0     H71280   8.006   9.309   8.023 -0.5582 -0.9512 -0.6178
  541MOL0     O71281   5.383   5.109   4.619  0.3722 -0.2596  0.3396
  541MOL0     C71282   5.420   5.087   4.737 -0.0928 -0.8125 -0.7176
  541MOL0     O71283   5.355   5.019   4.834  0.3335 -0.6055 -0.0126
  541MOL0     C71284   5.212   5.014   4.828 -0.4165  0.4446  1.1881
  541MOL0     C71285   5.132   4.978   4.712  0.2525  0.4156  0.2012
  541MOL0     C71286   4.992   4.981   4.716 -0.2890  0.1357  0.7793
  541MOL0     C71287   4.926   5.008   4.834 -0.6333 -0.4743  0.2061
  541MOL0     O71288   4.798   4.971   4.841 -0.3467 -0.3960  0.5468
  541MOL0     C71289   4.699   4.996   4.735 -0.0960 -0.4492  0.0864
  541MOL0     C71290   4.676   4.865   4.666  0.3524 -0.3233  0.4921
  541MOL0     C71291   4.544   4.859   4.586  0.9573 -0.7844  0.4434
  541MOL0     C71292   4.543   4.745   4.482 -0.0088 -0.9434 -0.2935
  541MOL0     C71293   4.410   4.742   4.412  0.4902  1.5527 -0.4215
  541MOL0     C71294   4.405   4.641   4.295 -0.4124  0.3597  0.0784
  541MOL0     C71295   4.262   4.622   4.244  0.3571  0.0022 -0.3481
  541MOL0     C71296   4.174   4.511   4.322 -0.0305 -0.2307 -0.2924
  541MOL0     N71297   4.032   4.518   4.292 -0.2130 -0.3353 -0.3972
  541MOL0     C71298   3.967   4.471   4.177  0.1747  0.4061  0.6273
  541MOL0     C71299   3.834   4.499   4.200 -0.2472 -0.0852 -0.3037
  541MOL0     C71300   3.717   4.469   4.104 -0.1315  0.9073  0.2844
  541MOL0     C71301   3.675   4.580   4.009  0.7476 -0.8143 -0.1206
  541MOL0     C71302   3.636   4.716   4.080 -0.8188  0.3762  0.3552
  541MOL0     C71303   3.590   4.807   3.972  0.1585  0.3535  0.2136
  541MOL0     O71304   3.515   4.908   4.035 -0.6751  0.1141  0.0856
  541MOL0     C71305   3.377   4.888   4.052 -0.1051 -0.0373  0.0062
  541MOL0     C71306   3.301   5.006   4.072 -0.1991  0.4993 -0.1202
  541MOL0     C71307   3.163   4.995   4.100  0.0721 -0.0503 -0.1049
  541MOL0     C71308   3.101   4.866   4.105  0.4359  0.5317 -0.0906
  541MOL0     C71309   2.957   4.855   4.134 -0.4436  0.6549 -0.8049
  541MOL0     O71310   2.912   4.753   4.204 -0.1871  0.0093  0.6361
  541MOL0     C71311   2.775   4.736   4.203  0.7701  0.8820  0.8077
  541MOL0     C71312   2.717   4.671   4.091 -0.1741 -0.1844 -0.1998
  541MOL0     C71313   2.581   4.649   4.091 -1.2793  1.4377 -0.1391
  541MOL0     C71314   2.506   4.685   4.210  0.1713  0.7279  0.5819
  541MOL0     O71315   2.372   4.647   4.230  0.9137 -0.2288 -0.0176
  541MOL0     C71316   2.294   4.613   4.121  0.9497  0.1731 -0.6503
  541MOL0     C71317   2.156   4.586   4.179 -1.3001  0.1202  0.9692
  541MOL0     C71318   2.051   4.564   4.077 -0.4611 -0.4107 -0.1913
  541MOL0     C71319   1.950   4.463   4.118  0.2357  0.2072 -0.0862
  541MOL0     C71320   1.834   4.456   4.029 -0.1675  0.1676  0.4691
  541MOL0     C71321   1.730   4.349   4.090  0.0005  0.3070 -0.0051
  541MOL0     C71322   1.611   4.332   4.000 -0.3992 -0.0923 -0.5732
  541MOL0     C71323   1.516   4.242   4.077 -0.1497 -0.2112 -0.8450
  541MOL0    Cl71324   1.394   4.183   3.969  0.0118  0.2896 -0.1727
  541MOL0     C71325   2.570   4.739   4.320 -0.0204 -0.8017  0.3691
  541MOL0     C71326   2.702   4.773   4.312  0.0236 -0.6196 -0.4761
  541MOL0     O71327   2.894   4.946   4.087 -0.7417 -0.1590 -0.4095
  541MOL0     C71328   3.174   4.749   4.079  0.6607  0.4607  0.0201
  541MOL0     C71329   3.311   4.764   4.048  0.6922 -0.4243  0.6188
  541MOL0     N71330   3.840   4.579   4.312 -0.5158 -0.1484  0.3448
  541MOL0     N71331   3.951   4.593   4.370 -0.5215  0.3861  1.3591
  541MOL0     C71332   5.004   5.044   4.949  0.0818  1.1043 -0.3978
  541MOL0     C71333   5.143   5.043   4.946 -0.0273 -0.6833 -0.1100
  541MOL0     C71334   5.563   5.134   4.773 -0.2422 -0.1611  1.1923
  541MOL0     C71335   5.595   5.145   4.900 -0.7233 -0.9606 -1.1306
  541MOL0     C71336   5.719   5.197   4.940 -0.6627 -0.1690 -0.4792
  541MOL0     C71337   5.817   5.208   4.835 -0.1569 -0.4265  0.3452
  541MOL0     O71338   5.945   5.244   4.841 -0.0448 -1.1530 -0.8492
  541MOL0     C71339   5.995   5.294   4.969 -0.1791 -0.5073  0.0430
  541MOL0     C71340   6.136   5.347   4.942  0.3375  0.1187  0.1565
  541MOL0     C71341   6.245   5.233   4.953 -0.6051  0.1965 -0.2645
  541MOL0     C71342   6.375   5.279   4.880 -0.3166 -0.6753 -0.6061
  541MOL0     C71343   6.429   5.391   4.956 -0.4155  0.5826 -0.2042
  541MOL0     C71344   6.473   5.485   5.017 -0.1838 -0.5457  0.1593
  541MOL0     C71345   5.779   5.198   4.707  0.2294  0.6921  0.9128
  541MOL0     C71346   5.658   5.155   4.672  0.1459  0.2962  0.2929
  541MOL0     H71347   5.181   4.950   4.619 -0.4009  0.9081 -0.3053
  541MOL0     H71348   4.948   4.961   4.619  1.6810  3.7625 -1.1046
  541MOL0     H71349   4.747   5.066   4.667 -1.1273  0.5772  0.3958
  541MOL0     H71350   4.606   5.038   4.775 -1.2835 -3.5729  0.9499
  541MOL0     H71351   4.680   4.782   4.737  2.3848 -1.5511 -0.9618
  541MOL0     H71352   4.753   4.847   4.591 -0.3105  3.6118 -1.3568
  541MOL0     H71353   4.533   4.957   4.539  1.6514  0.0720  1.9894
  541MOL0     H71354   4.456   4.854   4.650 -0.5924  0.0036 -1.5252
  541MOL0     H71355   4.620   4.771   4.409 -0.0134  2.3711  0.6896
  541MOL0     H71356   4.560   4.646   4.527 -0.7666 -1.3237 -0.8365
  541MOL0     H71357   4.391   4.839   4.366 -2.1916  1.3565  0.1154
  541MOL0     H71358   4.327   4.718   4.478  0.3817 -0.6716 -1.2829
  541MOL0     H71359   4.450   4.542   4.308  1.4498  1.3664  1.8142
  541MOL0     H71360   4.468   4.688   4.219  0.2159  1.6101  1.3370
  541MOL0     H71361   4.210   4.716   4.225 -0.1568 -0.4184 -1.0990
  541MOL0     H71362   4.267   4.587   4.140 -1.6746  2.5115 -1.4065
  541MOL0     H71363   4.183   4.530   4.429  0.2126 -1.1858 -0.1317
  541MOL0     H71364   4.207   4.410   4.297 -0.7133 -0.4334 -0.4083
  541MOL0     H71365   4.002   4.413   4.091 -1.3573 -1.4046  1.1668
  541MOL0     H71366   3.629   4.437   4.160 -0.4005 -0.2552 -0.7499
  541MOL0     H71367   3.737   4.375   4.052  3.4548  1.1765  0.9004
  541MOL0     H71368   3.581   4.545   3.965  0.0782  0.4462  0.2775
  541MOL0     H71369   3.747   4.584   3.927 -0.6367  1.2867 -1.2966
  541MOL0     H71370   3.559   4.705   4.156 -1.3519  0.2625 -0.1971
  541MOL0     H71371   3.719   4.755   4.140 -2.2034  0.3694  2.3743
  541MOL0     H71372   3.528   4.762   3.894  0.8124  1.8654 -1.2423
  541MOL0     H71373   3.678   4.841   3.917 -1.7345  0.9652 -2.6737
  541MOL0     H71374   3.347   5.102   4.094 -2.2686  1.2494  1.3005
  541MOL0     H71375   3.101   5.081   4.124 -0.0924 -0.2481  0.1959
  541MOL0     H71376   2.767   4.661   3.996  3.1599  3.4311  0.8915
  541MOL0     H71377   2.549   4.601   3.999 -0.0956  1.7335 -0.7142
  541MOL0     H71378   2.334   4.529   4.064 -0.2976 -1.5081  0.8141
  541MOL0     H71379   2.289   4.708   4.068  1.4418 -0.2665 -1.5016
  541MOL0     H71380   2.123   4.664   4.249  0.6271  1.5582  0.3778
  541MOL0     H71381   2.161   4.496   4.239 -1.8608  0.3008  1.2901
  541MOL0     H71382   2.100   4.527   3.986 -1.0762  1.0880 -1.1743
  541MOL0     H71383   2.004   4.661   4.060 -1.1480 -0.8173 -0.6377
  541MOL0     H71384   2.007   4.369   4.120 -0.0246  0.0297  2.7167
  541MOL0     H71385   1.919   4.493   4.218  0.1781 -1.2708  0.3618
  541MOL0     H71386   1.870   4.437   3.927  2.6169  3.3470  0.6946
  541MOL0     H71387   1.795   4.557   4.012 -0.1127  0.0477 -0.4090
  541MOL0     H71388   1.702   4.379   4.192  0.1288  0.2283  0.0539
  541MOL0     H71389   1.779   4.252   4.099 -1.8816 -0.7252 -0.3486
  541MOL0     H71390   1.563   4.427   3.976 -3.5022 -1.2184  0.6361
  541MOL0     H71391   1.652   4.289   3.909 -2.1177 -1.4060 -0.7839
  541MOL0     H71392   1.469   4.304   4.154  1.4506  0.5744 -0.4484
  541MOL0     H71393   1.570   4.161   4.127  1.6064  1.3624 -0.0329
  541MOL0     H71394   2.516   4.775   4.407 -1.2792 -0.2441 -0.6079
  541MOL0     H71395   2.749   4.825   4.395  0.6004 -0.9959 -0.5611
  541MOL0     H71396   3.124   4.653   4.084  2.5261 -0.5015  3.5982
  541MOL0     H71397   3.361   4.674   4.013 -0.4431 -1.2670  1.0615
  541MOL0     H71398   4.944   5.070   5.036 -1.7673  0.1151 -1.3162
  541MOL0     H71399   5.189   5.070   5.041 -2.3218 -3.6811  2.0526
  541MOL0     H71400   5.525   5.122   4.979  1.1565  0.4141  1.0938
  541MOL0     H71401   5.747   5.208   5.044 -0.9932  1.4968 -0.5412
  541MOL0     H71402   5.989   5.214   5.044  1.3307 -0.3892  0.3307
  541MOL0     H71403   5.922   5.373   4.991  0.3436  0.6378 -2.1233
  541MOL0     H71404   6.139   5.405   4.850  0.1408 -0.2383 -0.0773
  541MOL0     H71405   6.163   5.426   5.013  2.4374 -1.3953  1.1565
  541MOL0     H71406   6.197   5.145   4.909 -0.5295  1.0550 -2.1782
  541MOL0     H71407   6.266   5.201   5.055  1.3935  0.7817 -0.4509
  541MOL0     H71408   6.443   5.197   4.857 -0.9892 -1.8282  1.2821
  541MOL0     H71409   6.342   5.316   4.782 -1.9957  1.3084  0.6016
  541MOL0     H71410   6.509   5.574   5.063  3.2520 -0.5702 -2.1270
  541MOL0     H71411   5.852   5.208   4.627 -0.4940  1.8352  0.3594
  541MOL0     H71412   5.621   5.145   4.570 -2.5601  0.2640  1.2180
  542MOL0     O71413   6.388   8.356   6.962  0.0252 -0.3915  0.4937
  542MOL0     C71414   6.445   8.468   6.967  0.8006  0.2460 -0.1655
  542MOL0     O71415   6.379   8.585   6.998  0.2172 -1.0312  0.9095
  542MOL0     C71416   6.242   8.582   6.996  0.7797  0.4143 -0.1593
  542MOL0     C71417   6.181   8.547   6.869 -0.3336  0.1251 -0.6906
  542MOL0     C71418   6.046   8.538   6.854 -0.4282  0.0853 -0.3945
  542MOL0     C71419   5.964   8.558   6.967  0.3064 -0.1448 -0.3655
  542MOL0     O71420   5.831   8.554   6.971  0.3674  0.5856  0.1183
  542MOL0     C71421   5.767   8.467   6.868  0.0886 -0.3346  0.5362
  542MOL0     C71422   5.618   8.440   6.890 -1.1814  0.3510  0.1944
  542MOL0     C71423   5.522   8.558   6.861  0.2118 -0.1726 -0.8257
  542MOL0     C71424   5.371   8.522   6.877 -0.2711 -0.8090  0.4950
  542MOL0     C71425   5.271   8.608   6.806 -0.9376  0.3738  0.2668
  542MOL0     C71426   5.120   8.566   6.838  0.0159  0.0534  0.4109
  542MOL0     C71427   5.026   8.664   6.771 -0.0314  0.0150  0.7992
  542MOL0     C71428   5.034   8.801   6.846 -0.2550  0.6491 -0.7902
  542MOL0     N71429   4.928   8.899   6.844  0.4654  0.2534  0.2896
  542MOL0     C71430   4.828   8.903   6.938 -0.3000  0.4359  0.1085
  542MOL0     C71431   4.774   9.029   6.915 -0.2992 -1.3096  0.1981
  542MOL0     C71432   4.668   9.106   6.992 -0.4156 -0.1426 -0.7223
  542MOL0     C71433   4.535   9.101   6.926 -0.1544 -0.3781  0.2493
  542MOL0     C71434   4.422   9.148   7.011 -0.1003  0.6767  0.5849
  542MOL0     C71435   4.391   9.308   6.987 -0.4649 -0.0352 -0.4407
  542MOL0     O71436   4.325   9.323   6.860 -0.9002 -0.3460 -0.7623
  542MOL0     C71437   4.197   9.284   6.837 -0.2822 -1.1695 -0.1412
  542MOL0     C71438   4.169   9.287   6.698 -0.3750  0.6246 -1.0913
  542MOL0     C71439   4.045   9.260   6.648 -1.1020 -0.1917 -0.6165
  542MOL0     C71440   3.941   9.212   6.731  0.0104 -0.4981  0.2472
  542MOL0     C71441   3.802   9.175   6.677 -0.5737  0.5089  0.6932
  542MOL0     O71442   3.701   9.169   6.778 -0.5373 -0.5747 -0.2777
  542MOL0     C71443   3.573   9.167   6.730 -0.4830  0.2386  0.2838
  542MOL0     C71444   3.526   9.055   6.655  1.0164  0.0281  0.7582
  542MOL0     C71445   3.397   9.052   6.597 -0.6600  0.3820 -0.0580
  542MOL0     C71446   3.315   9.161   6.606  0.1159 -0.5022  0.0366
  542MOL0     O71447   3.193   9.173   6.552  0.1136  0.4560  0.7472
  542MOL0     C71448   3.133   9.043   6.517 -0.3659 -1.4192  0.5336
  542MOL0     C71449   2.996   9.057   6.472  0.4186  0.0147  0.0615
  542MOL0     C71450   2.939   8.915   6.438  0.2860 -0.5554 -0.0644
  542MOL0     C71451   2.793   8.916   6.408  0.1147  0.5941 -0.5429
  542MOL0     C71452   2.725   8.796   6.341  0.0304  0.4339 -0.1518
  542MOL0     C71453   2.578   8.815   6.293  0.3611 -0.4269  0.1401
  542MOL0     C71454   2.516   8.684   6.223 -0.2464 -0.0471  0.0349
  542MOL0     C71455   2.388   8.707   6.134 -0.0362 -0.7770  0.4879
  542MOL0    Cl71456   2.348   8.584   6.011 -0.4000 -0.0828 -0.1040
  542MOL0     C71457   3.364   9.277   6.672  0.1195  0.4672 -0.8983
  542MOL0     C71458   3.494   9.281   6.729 -0.0601  0.3747  0.3819
  542MOL0     O71459   3.783   9.156   6.555  0.1793 -0.5458 -0.1312
  542MOL0     C71460   3.972   9.184   6.871 -0.0009 -1.0462  0.6847
  542MOL0     C71461   4.095   9.221   6.924 -1.9705  0.0950  0.2386
  542MOL0     N71462   4.845   9.088   6.815 -0.8068 -0.5966 -0.1390
  542MOL0     N71463   4.932   9.004   6.772  0.2011 -0.4252  0.6950
  542MOL0     C71464   6.022   8.577   7.093 -0.8059 -0.2279  0.2093
  542MOL0     C71465   6.164   8.593   7.109  0.6925  0.1475  0.3268
  542MOL0     C71466   6.591   8.455   6.964 -0.2918 -0.5777  0.5396
  542MOL0     C71467   6.663   8.334   6.952 -0.1520  0.7716  0.4930
  542MOL0     C71468   6.804   8.317   6.955  0.0137  0.5219 -0.3466
  542MOL0     C71469   6.879   8.430   6.980 -0.5350 -0.5861  0.2158
  542MOL0     O71470   7.018   8.439   6.969 -0.3675  0.2631 -0.6416
  542MOL0     C71471   7.086   8.325   6.913 -0.2312  0.2692 -0.2382
  542MOL0     C71472   7.210   8.377   6.843  0.4723 -0.6769  0.4063
  542MOL0     C71473   7.313   8.273   6.822  0.1833  0.8005  0.0156
  542MOL0     C71474   7.431   8.316   6.737  0.5505  0.1401 -0.4154
  542MOL0     C71475   7.543   8.218   6.723 -0.2161 -0.1769 -1.0639
  542MOL0     C71476   7.629   8.132   6.721 -0.1805  0.2179  0.0278
  542MOL0     C71477   6.810   8.552   6.993 -1.0847  0.6769  0.2280
  542MOL0     C71478   6.670   8.565   6.993 -0.2915  0.5403  0.8068
  542MOL0     H71479   6.246   8.531   6.784  0.4262  2.1013 -0.5112
  542MOL0     H71480   6.001   8.520   6.757 -1.2083 -0.9760  0.1403
  542MOL0     H71481   5.818   8.370   6.862 -0.0543 -0.4294  0.8637
  542MOL0     H71482   5.783   8.518   6.772  1.8717 -1.7886  0.0094
  542MOL0     H71483   5.610   8.397   6.990 -3.8189  2.5985  1.0820
  542MOL0     H71484   5.589   8.356   6.828  0.6912 -0.4565  0.3356
  542MOL0     H71485   5.531   8.604   6.762 -0.8486  1.5037 -0.1987
  542MOL0     H71486   5.547   8.643   6.925  2.0288  1.0865 -3.0266
  542MOL0     H71487   5.376   8.419   6.840  1.4954 -1.6526  2.8406
  542MOL0     H71488   5.339   8.512   6.981 -1.0690 -3.1548  0.0906
  542MOL0     H71489   5.302   8.595   6.702 -1.6152  1.9623 -0.1688
  542MOL0     H71490   5.280   8.710   6.846 -4.4797 -0.0039  2.4693
  542MOL0     H71491   5.086   8.568   6.942 -1.6211  0.9338 -0.1027
  542MOL0     H71492   5.087   8.472   6.793 -1.5843  1.9481 -2.7607
  542MOL0     H71493   5.056   8.662   6.666  2.2294  0.8991  1.3728
  542MOL0     H71494   4.921   8.631   6.770 -1.3209  3.5277  2.5260
  542MOL0     H71495   5.113   8.848   6.788  0.3702  0.0160 -0.4670
  542MOL0     H71496   5.066   8.787   6.950  0.0046 -0.2697 -0.9898
  542MOL0     H71497   4.795   8.822   7.002  1.3012 -1.8594 -1.7537
  542MOL0     H71498   4.694   9.211   7.007 -2.8977  0.5741 -0.9660
  542MOL0     H71499   4.665   9.064   7.093  2.8087 -0.3994 -0.6497
  542MOL0     H71500   4.521   8.997   6.897  6.0016 -1.1916 -1.2220
  542MOL0     H71501   4.534   9.153   6.829  2.7633 -3.8278 -1.8634
  542MOL0     H71502   4.339   9.080   6.993 -0.4955  1.5695 -1.1710
  542MOL0     H71503   4.451   9.136   7.116 -0.5766 -0.7401  0.5647
  542MOL0     H71504   4.487   9.359   6.986 -0.9119  0.9581  1.7938
  542MOL0     H71505   4.324   9.341   7.067  2.0275  0.1444  1.6742
  542MOL0     H71506   4.250   9.315   6.632  1.8412  1.3971  1.7302
  542MOL0     H71507   4.032   9.258   6.540 -1.4465 -1.5429 -0.5673
  542MOL0     H71508   3.575   8.960   6.641 -0.6821 -0.6456 -1.2137
  542MOL0     H71509   3.386   8.959   6.542  1.1068  0.5092 -0.6826
  542MOL0     H71510   3.128   8.991   6.613 -0.5219  1.0677  1.9660
  542MOL0     H71511   3.188   8.980   6.446  0.9224 -2.1250  2.0896
  542MOL0     H71512   2.990   9.118   6.381 -0.2194 -0.2366 -0.0691
  542MOL0     H71513   2.934   9.111   6.544  0.0110  1.3198 -1.2195
  542MOL0     H71514   2.970   8.846   6.517  0.2359  0.2643  0.6839
  542MOL0     H71515   2.987   8.868   6.351  0.9623 -1.1618  0.6163
  542MOL0     H71516   2.740   8.935   6.502 -4.1877 -3.4979 -1.7989
  542MOL0     H71517   2.778   8.992   6.332 -0.4436 -0.8635 -1.9361
  542MOL0     H71518   2.713   8.712   6.410  0.3019  0.6228  0.1258
  542MOL0     H71519   2.790   8.759   6.262 -0.5666  0.4062 -0.6348
  542MOL0     H71520   2.585   8.897   6.221 -0.6559 -0.8105 -0.4063
  542MOL0     H71521   2.505   8.839   6.371  0.6395 -0.8669  0.5413
  542MOL0     H71522   2.586   8.630   6.159 -1.8688  2.0628 -3.8679
  542MOL0     H71523   2.494   8.615   6.305 -1.3275  0.3835  0.1243
  542MOL0     H71524   2.406   8.797   6.074 -0.3922  0.2577  1.9009
  542MOL0     H71525   2.304   8.738   6.197 -1.1798  1.1980 -1.8167
  542MOL0     H71526   3.294   9.359   6.685  0.0257 -0.0063  2.5533
  542MOL0     H71527   3.537   9.374   6.765  1.8474 -0.3445  0.0625
  542MOL0     H71528   3.895   9.146   6.937 -1.4712 -0.7585 -0.7878
  542MOL0     H71529   4.115   9.202   7.029  0.9348 -0.3167 -0.3049
  542MOL0     H71530   5.955   8.602   7.175  0.2603 -0.3524  1.1515
  542MOL0     H71531   6.215   8.611   7.203 -0.6667  1.1380  0.9063
  542MOL0     H71532   6.601   8.245   6.955 -1.1367  1.4552  1.3295
  542MOL0     H71533   6.843   8.216   6.957 -1.6661 -0.1467 -0.4664
  542MOL0     H71534   7.033   8.274   6.832 -0.2371  1.0052 -0.7091
  542MOL0     H71535   7.121   8.253   6.987  1.6118  0.7073 -0.6427
  542MOL0     H71536   7.184   8.419   6.745  4.9762 -1.7858 -1.5546
  542MOL0     H71537   7.251   8.451   6.912  1.5191 -2.7428  2.1590
  542MOL0     H71538   7.264   8.188   6.774  0.7647  0.7479 -0.4967
  542MOL0     H71539   7.344   8.232   6.919  0.5176 -2.7872 -1.4555
  542MOL0     H71540   7.384   8.332   6.640 -1.4655  1.0498  0.6563
  542MOL0     H71541   7.483   8.408   6.767 -0.3656  0.7365 -0.6277
  542MOL0     H71542   7.701   8.052   6.722 -1.2208 -0.7282  0.1796
  542MOL0     H71543   6.868   8.641   7.016 -1.4306  0.8042  0.6182
  542MOL0     H71544   6.623   8.661   7.012 -0.0589  0.9034 -0.3753
  543MOL0     O71545   6.884  10.948   5.326 -0.0186 -0.5752  0.4515
  543MOL0     C71546   6.953  11.023   5.386 -0.1798  0.8452 -0.1881
  543MOL0     O71547   6.907  11.113   5.481  1.0115 -0.1124  0.3090
  543MOL0     C71548   6.770  11.141   5.491 -0.0159  0.1920 -0.4533
  543MOL0     C71549   6.689  11.038   5.550  0.8109 -0.2176 -0.1363
  543MOL0     C71550   6.558  11.071   5.586 -0.0124 -0.1762 -0.6121
  543MOL0     C71551   6.499  11.192   5.552 -0.2150  0.1059 -0.6850
  543MOL0     O71552   6.368  11.233   5.578 -0.0653 -0.1631  0.4417
  543MOL0     C71553   6.265  11.135   5.556  0.9278  0.4544  0.8373
  543MOL0     C71554   6.137  11.223   5.552 -0.1807  0.5870 -0.3622
  543MOL0     C71555   6.015  11.136   5.518  0.4895 -0.2201 -0.9090
  543MOL0     C71556   5.892  11.222   5.486 -0.5024 -0.3300  0.3614
  543MOL0     C71557   5.792  11.136   5.418  0.4354  0.2556 -0.0368
  543MOL0     C71558   5.660  11.215   5.397  0.7219 -0.0852  0.6659
  543MOL0     C71559   5.577  11.200   5.525 -0.9069  0.5636  0.5615
  543MOL0     C71560   5.455  11.275   5.505  0.0975  0.1199 -0.4405
  543MOL0     N71561   5.377  11.290   5.627  0.1957  1.1349 -0.0021
  543MOL0     C71562   5.385  11.387   5.722  0.1565 -0.4429 -0.1900
  543MOL0     C71563   5.272  11.367   5.800 -0.3348 -0.0374  0.0121
  543MOL0     C71564   5.224  11.450   5.923  0.5639  0.4444 -0.7455
  543MOL0     C71565   5.077  11.493   5.924 -0.4809 -0.2049  0.0594
  543MOL0     C71566   5.041  11.591   5.823 -0.3526 -0.1200  0.1813
  543MOL0     C71567   4.891  11.592   5.792 -0.0819 -0.3716 -0.6460
  543MOL0     O71568   4.855  11.472   5.721 -0.2529 -0.6801  0.4821
  543MOL0     C71569   4.721  11.468   5.677  0.2136  0.0446 -0.3879
  543MOL0     C71570   4.706  11.369   5.577 -0.3197 -0.6936 -0.1430
  543MOL0     C71571   4.587  11.341   5.525  0.4168  0.0406  0.1110
  543MOL0     C71572   4.473  11.408   5.564  0.1399 -0.2313  0.2085
  543MOL0     C71573   4.335  11.373   5.530  0.3838  0.5953  0.9921
  543MOL0     O71574   4.239  11.465   5.553  0.1790 -0.7209 -0.2310
  543MOL0     C71575   4.111  11.476   5.499 -0.5785 -0.5366  0.6123
  543MOL0     C71576   4.041  11.591   5.519  0.5807  0.3335  0.2591
  543MOL0     C71577   3.909  11.602   5.475  0.3716 -0.8120 -0.5121
  543MOL0     C71578   3.862  11.504   5.387 -1.0734 -0.7796  0.3632
  543MOL0     O71579   3.734  11.498   5.351  0.5851 -0.7291 -0.2548
  543MOL0     C71580   3.640  11.498   5.462 -0.5470 -0.4818  0.2862
  543MOL0     C71581   3.500  11.506   5.399  0.2398  0.0096 -0.3608
  543MOL0     C71582   3.447  11.649   5.384  0.1178 -0.5747  0.1191
  543MOL0     C71583   3.318  11.662   5.308 -0.1048  0.6747  0.1370
  543MOL0     C71584   3.219  11.759   5.365 -0.0744 -0.5143  0.6712
  543MOL0     C71585   3.260  11.907   5.365 -0.7179 -0.6282  0.2155
  543MOL0     C71586   3.156  11.997   5.427 -0.6371  0.5189  0.2109
  543MOL0     C71587   3.217  12.144   5.447 -0.0314  0.7420  0.9606
  543MOL0    Cl71588   3.346  12.140   5.567 -0.3813 -0.1520 -0.3534
  543MOL0     C71589   3.948  11.396   5.342 -0.4031 -0.7907  0.0753
  543MOL0     C71590   4.060  11.376   5.409  1.1880  0.1592 -0.4272
  543MOL0     O71591   4.313  11.264   5.481 -0.0040 -0.6665 -0.0886
  543MOL0     C71592   4.482  11.503   5.671 -0.2577  0.2443 -0.0532
  543MOL0     C71593   4.609  11.540   5.728 -0.3204 -0.2740  1.0376
  543MOL0     N71594   5.190  11.271   5.744  0.7840  0.0877  0.6443
  543MOL0     N71595   5.258  11.221   5.643 -0.4682 -0.6030  0.9589
  543MOL0     C71596   6.572  11.290   5.497  0.0125  1.3631  0.7229
  543MOL0     C71597   6.710  11.262   5.466  0.1909  0.4021 -0.5794
  543MOL0     C71598   7.098  11.026   5.346  0.6834  0.1805  1.8807
  543MOL0     C71599   7.181  11.113   5.417 -0.8454 -0.8561  0.2486
  543MOL0     C71600   7.322  11.109   5.388 -0.4057 -0.5780  0.1826
  543MOL0     C71601   7.372  11.020   5.292 -0.0611  0.7812  0.5831
  543MOL0     O71602   7.497  11.012   5.242  0.2423 -0.0823 -1.1428
  543MOL0     C71603   7.594  11.102   5.314  0.0461  0.2592  0.2099
  543MOL0     C71604   7.740  11.094   5.277  0.3260  0.5220  0.1997
  543MOL0     C71605   7.807  11.206   5.350  0.6792  0.7718 -1.0284
  543MOL0     C71606   7.815  11.329   5.254  0.0773 -0.2298 -0.2414
  543MOL0     C71607   7.878  11.432   5.341 -0.5601  0.4211  1.2867
  543MOL0     C71608   7.918  11.521   5.414 -0.6792  0.5008  0.1805
  543MOL0     C71609   7.277  10.945   5.219 -0.7885 -0.1717  0.5945
  543MOL0     C71610   7.144  10.950   5.244  0.1111 -0.0335  0.5336
  543MOL0     H71611   6.737  10.945   5.581  0.5580 -0.5930 -0.8416
  543MOL0     H71612   6.504  10.997   5.644 -0.3830 -0.0351 -0.7681
  543MOL0     H71613   6.264  11.057   5.632  1.9416 -1.3201 -0.8595
  543MOL0     H71614   6.270  11.080   5.461  1.1562  2.0660 -0.1148
  543MOL0     H71615   6.153  11.302   5.478  3.0841  1.0609  0.6486
  543MOL0     H71616   6.131  11.256   5.657 -0.3377 -0.5341 -0.0044
  543MOL0     H71617   5.999  11.071   5.604  0.1713 -0.7865 -1.3824
  543MOL0     H71618   6.056  11.080   5.433 -1.0363 -1.4889 -0.8534
  543MOL0     H71619   5.849  11.273   5.573 -2.1923  0.1270 -0.6967
  543MOL0     H71620   5.921  11.298   5.413  2.4946 -0.7364  0.9781
  543MOL0     H71621   5.794  11.040   5.471  1.1838  0.6976  0.7501
  543MOL0     H71622   5.838  11.110   5.322  1.2480 -1.1579  0.7041
  543MOL0     H71623   5.604  11.167   5.317  1.3488  1.6079 -0.8361
  543MOL0     H71624   5.676  11.317   5.363 -1.1018  0.1141  0.2723
  543MOL0     H71625   5.547  11.095   5.532  1.7401 -0.1655  4.6223
  543MOL0     H71626   5.615  11.228   5.623 -0.5613  2.4123 -0.0706
  543MOL0     H71627   5.394  11.218   5.434 -1.3121 -0.6939  1.3416
  543MOL0     H71628   5.475  11.367   5.450 -1.0445 -0.4820 -1.9110
  543MOL0     H71629   5.460  11.461   5.749  0.8538 -2.2121  3.4344
  543MOL0     H71630   5.286  11.540   5.921 -0.0167  0.8353 -2.1010
  543MOL0     H71631   5.250  11.392   6.012 -3.7598  0.3160  0.6527
  543MOL0     H71632   5.051  11.529   6.024  3.6733 -0.0647  1.2584
  543MOL0     H71633   5.014  11.407   5.899  0.6533 -1.3843  1.1367
  543MOL0     H71634   5.077  11.691   5.849  1.2019 -0.7801  0.6464
  543MOL0     H71635   5.089  11.569   5.727 -1.2014 -1.2514 -0.0113
  543MOL0     H71636   4.869  11.684   5.737 -1.8870 -1.0261 -1.0851
  543MOL0     H71637   4.835  11.608   5.885 -0.2958 -0.5297 -0.7473
  543MOL0     H71638   4.786  11.308   5.536  1.5754  1.1531  0.6162
  543MOL0     H71639   4.580  11.262   5.451  0.7866  1.6443 -1.6875
  543MOL0     H71640   4.085  11.661   5.589 -0.6846  1.0356  0.3934
  543MOL0     H71641   3.858  11.680   5.530  1.7908 -1.5821  2.0148
  543MOL0     H71642   3.649  11.585   5.528  0.2206 -0.4172  0.1085
  543MOL0     H71643   3.647  11.404   5.518 -2.3374 -0.8915 -0.1330
  543MOL0     H71644   3.438  11.450   5.471 -2.4240  3.2094  0.0921
  543MOL0     H71645   3.504  11.458   5.301 -2.2452  2.2542 -1.7052
  543MOL0     H71646   3.521  11.701   5.323  0.8155  1.9606  2.8970
  543MOL0     H71647   3.439  11.700   5.481  2.0991  3.1577 -1.4462
  543MOL0     H71648   3.342  11.703   5.210 -0.4140  1.1387  0.2497
  543MOL0     H71649   3.271  11.564   5.300 -0.8081  0.8619  1.6422
  543MOL0     H71650   3.194  11.730   5.467  1.9069 -1.1472  1.0102
  543MOL0     H71651   3.127  11.760   5.306 -0.3498 -1.7627  1.0669
  543MOL0     H71652   3.273  11.920   5.257 -1.2490 -4.7943 -0.5162
  543MOL0     H71653   3.360  11.922   5.406  0.9888 -1.6172 -3.1939
  543MOL0     H71654   3.072  12.015   5.360 -1.7552  1.2002  1.7344
  543MOL0     H71655   3.128  11.952   5.523  1.7661 -2.4655 -0.3137
  543MOL0     H71656   3.144  12.221   5.472 -1.8978 -0.4360 -0.5655
  543MOL0     H71657   3.243  12.169   5.344 -1.5534  0.1926  0.4110
  543MOL0     H71658   3.915  11.328   5.264  0.8405 -0.1653 -1.0475
  543MOL0     H71659   4.119  11.287   5.388  3.6479  0.0613  5.0962
  543MOL0     H71660   4.387  11.545   5.704  0.6998  1.7471  0.8771
  543MOL0     H71661   4.621  11.598   5.819 -1.8269 -0.3158  1.2878
  543MOL0     H71662   6.529  11.384   5.462 -2.7169 -0.4700 -1.3242
  543MOL0     H71663   6.760  11.351   5.431  1.5231 -0.6563 -1.4763
  543MOL0     H71664   7.151  11.181   5.496  1.6434  2.1611 -1.1907
  543MOL0     H71665   7.387  11.178   5.441 -0.7445 -0.9876  1.1481
  543MOL0     H71666   7.587  11.088   5.423  0.1376  0.8654  0.2989
  543MOL0     H71667   7.566  11.206   5.295  1.6173  1.3297  3.0718
  543MOL0     H71668   7.776  10.997   5.312 -1.4083  0.1858  1.1889
  543MOL0     H71669   7.753  11.094   5.168  3.2350 -1.2334  0.4742
  543MOL0     H71670   7.909  11.166   5.351 -0.1445 -1.9450 -4.3332
  543MOL0     H71671   7.762  11.225   5.448 -2.3847  0.6514 -2.2970
  543MOL0     H71672   7.885  11.301   5.176  1.0846  3.6695 -0.9191
  543MOL0     H71673   7.712  11.352   5.226 -0.0599 -1.3091 -0.6784
  543MOL0     H71674   7.962  11.593   5.480  2.0211  0.1413 -1.0905
  543MOL0     H71675   7.313  10.896   5.129  0.4507  3.6066 -1.1876
  543MOL0     H71676   7.078  10.885   5.187 -0.7937  1.8234 -0.6475
  544MOL0     O71677   9.521   1.638   7.492  0.7414  0.3152  0.5359
  544MOL0     C71678   9.556   1.656   7.612  0.3651 -0.2293 -0.7579
  544MOL0     O71679   9.470   1.649   7.721  0.0155  0.5408 -0.0031
  544MOL0     C71680   9.334   1.642   7.678  0.5715 -1.3440 -0.3137
  544MOL0     C71681   9.281   1.538   7.606  0.0612  0.4660 -0.3818
  544MOL0     C71682   9.159   1.537   7.546  0.8486 -0.0962 -0.1065
  544MOL0     C71683   9.083   1.648   7.537  0.7936  0.0926  0.2507
  544MOL0     O71684   8.975   1.656   7.457  0.4069  0.3445  0.4325
  544MOL0     C71685   8.884   1.550   7.468  0.0471  0.9137 -0.8142
  544MOL0     C71686   8.754   1.575   7.401  0.1467  0.3959  1.2822
  544MOL0     C71687   8.756   1.584   7.246  0.2503 -0.4083 -0.0977
  544MOL0     C71688   8.834   1.468   7.182 -0.6542  0.5711 -0.6400
  544MOL0     C71689   8.828   1.445   7.030 -0.2454 -1.2056 -0.2871
  544MOL0     C71690   8.920   1.334   6.972  0.1319 -0.4884  0.9206
  544MOL0     C71691   8.908   1.324   6.813 -0.1414 -1.2657  0.0989
  544MOL0     C71692   9.002   1.215   6.755  0.9081  0.3231 -0.6914
  544MOL0     N71693   9.126   1.276   6.712  0.4563 -0.0098 -0.2048
  544MOL0     C71694   9.238   1.267   6.787  0.2368 -0.3177 -0.8277
  544MOL0     C71695   9.332   1.293   6.706 -0.9991 -0.1747  0.2888
  544MOL0     C71696   9.475   1.278   6.755  0.0988 -0.4681  0.2505
  544MOL0     C71697   9.533   1.399   6.828  0.2598  0.3086  0.4873
  544MOL0     C71698   9.513   1.531   6.754  0.7069  0.0311  0.7040
  544MOL0     C71699   9.577   1.523   6.613  1.4308 -0.7514  0.7540
  544MOL0     O71700   9.721   1.482   6.612 -0.3383 -0.6161 -0.2465
  544MOL0     C71701   9.815   1.565   6.557 -0.0215 -0.7087  0.4302
  544MOL0     C71702   9.807   1.705   6.541 -0.6833 -0.8600 -0.3127
  544MOL0     C71703   9.908   1.777   6.476  0.2777  0.0165  1.0214
  544MOL0     C71704  10.022   1.713   6.428  0.9028  0.0458  0.1325
  544MOL0     C71705  10.132   1.793   6.378 -0.2526 -0.4224  1.1023
  544MOL0     O71706  10.257   1.742   6.364 -0.2208 -0.0184 -0.2428
  544MOL0     C71707  10.376   1.813   6.342 -0.2154 -0.2418  0.2591
  544MOL0     C71708  10.479   1.731   6.314 -0.3163 -0.6122 -1.2240
  544MOL0     C71709  10.609   1.785   6.277  0.8744  0.8463 -0.2812
  544MOL0     C71710  10.629   1.921   6.281 -0.3902 -0.1278  0.7249
  544MOL0     O71711  10.730   1.998   6.223 -0.1785 -0.1270 -0.6207
  544MOL0     C71712  10.864   1.942   6.249 -0.3347 -0.1038 -0.0543
  544MOL0     C71713  10.964   2.056   6.209 -1.0133 -0.4294  0.4938
  544MOL0     C71714  11.105   2.007   6.216 -0.9561  0.1955  0.2660
  544MOL0     C71715  11.212   2.105   6.182  0.2508  0.1426  0.1620
  544MOL0     C71716  11.213   2.240   6.242  0.1328 -0.4402  0.4380
  544MOL0     C71717  11.338   2.317   6.189  0.6869 -0.8690 -0.0867
  544MOL0     C71718  11.357   2.465   6.236  0.5200  0.7104 -0.3972
  544MOL0     C71719  11.286   2.547   6.129  0.2930  0.1622 -0.5436
  544MOL0    Cl71720  11.107   2.530   6.133 -0.0962  0.5158  0.4862
  544MOL0     C71721  10.520   2.005   6.311  0.1324 -0.1830  0.1437
  544MOL0     C71722  10.394   1.951   6.343  0.2627 -0.5328  0.9134
  544MOL0     O71723  10.099   1.906   6.342 -0.6883  0.1341  0.0101
  544MOL0     C71724  10.034   1.571   6.437  0.3578 -0.1741 -0.6819
  544MOL0     C71725   9.922   1.507   6.504 -0.0769 -0.3023 -0.4268
  544MOL0     N71726   9.288   1.327   6.581  0.3131 -0.0719 -0.0319
  544MOL0     N71727   9.163   1.301   6.579  0.0988 -0.0569  0.3787
  544MOL0     C71728   9.136   1.769   7.590 -0.5562 -0.5031 -0.6433
  544MOL0     C71729   9.255   1.755   7.663 -0.2588  0.4103 -0.5569
  544MOL0     C71730   9.698   1.650   7.639 -0.4760  0.2375 -0.6042
  544MOL0     C71731   9.741   1.629   7.770 -0.6349 -0.3584  0.3757
  544MOL0     C71732   9.882   1.624   7.789  0.1740  0.1069  0.3389
  544MOL0     C71733   9.977   1.642   7.686 -0.7460 -0.0643 -0.9924
  544MOL0     O71734  10.108   1.617   7.724  0.1952 -0.1378 -0.6964
  544MOL0     C71735  10.205   1.630   7.619  0.6226 -0.0354 -0.2499
  544MOL0     C71736  10.260   1.505   7.559 -0.2080 -0.3512  0.3019
  544MOL0     C71737  10.362   1.437   7.650 -0.4370 -0.8465 -0.8842
  544MOL0     C71738  10.504   1.460   7.617 -0.3700 -0.2147  0.0099
  544MOL0     C71739  10.589   1.401   7.719 -0.0021 -0.8287  0.8071
  544MOL0     C71740  10.655   1.347   7.799  0.1218 -0.5818  0.2358
  544MOL0     C71741   9.929   1.667   7.555  0.2701 -0.6066 -0.5687
  544MOL0     C71742   9.790   1.660   7.527  0.1545  0.0853 -0.4186
  544MOL0     H71743   9.338   1.447   7.621  1.0228  1.2866  1.2733
  544MOL0     H71744   9.141   1.450   7.484  0.6693  1.7339 -2.8059
  544MOL0     H71745   8.875   1.544   7.577  3.8035  0.2765 -0.3952
  544MOL0     H71746   8.932   1.461   7.426 -0.8453  0.5605 -1.1042
  544MOL0     H71747   8.720   1.669   7.445 -0.6092 -0.2990  2.2073
  544MOL0     H71748   8.680   1.504   7.437 -1.5155  2.2331  1.6253
  544MOL0     H71749   8.808   1.679   7.227  1.9505 -0.6783  2.6647
  544MOL0     H71750   8.650   1.595   7.223  0.7336  1.7806 -1.5497
  544MOL0     H71751   8.940   1.478   7.207  0.3958 -2.1856 -3.3181
  544MOL0     H71752   8.798   1.373   7.223 -0.4870 -0.4866 -2.7886
  544MOL0     H71753   8.857   1.542   6.988  0.5589  0.2372  3.1924
  544MOL0     H71754   8.725   1.425   6.999 -0.0913 -0.8548 -1.0417
  544MOL0     H71755   8.895   1.238   7.018 -0.8705 -0.7468 -0.0908
  544MOL0     H71756   9.020   1.366   7.002  0.1843  0.8550 -0.5646
  544MOL0     H71757   8.804   1.305   6.783 -0.4673  2.5439 -1.8494
  544MOL0     H71758   8.945   1.420   6.778 -0.8309 -1.8331 -2.4219
  544MOL0     H71759   8.946   1.157   6.681 -1.2923  1.0505  0.3067
  544MOL0     H71760   9.025   1.147   6.838 -3.0688  0.8310  1.0735
  544MOL0     H71761   9.245   1.241   6.892  2.7885 -2.2604 -1.3678
  544MOL0     H71762   9.540   1.257   6.669 -0.6737  1.1639 -0.8032
  544MOL0     H71763   9.483   1.187   6.815 -2.4636 -2.7050 -2.4689
  544MOL0     H71764   9.642   1.390   6.836  0.1785 -1.6665 -0.0731
  544MOL0     H71765   9.484   1.392   6.925  0.5174 -3.0381  0.4939
  544MOL0     H71766   9.407   1.551   6.737  1.3017  1.5512 -1.8491
  544MOL0     H71767   9.567   1.617   6.794  3.0773 -0.8605 -0.3435
  544MOL0     H71768   9.557   1.624   6.577  1.3737  0.0422  2.8563
  544MOL0     H71769   9.517   1.452   6.555  0.5988 -1.9632  2.9417
  544MOL0     H71770   9.720   1.765   6.565  0.6403 -0.1397  3.3766
  544MOL0     H71771   9.897   1.885   6.469 -0.6919 -0.0860  0.7415
  544MOL0     H71772  10.462   1.624   6.311 -2.0740 -0.4894  1.7471
  544MOL0     H71773  10.695   1.726   6.246 -0.2182 -0.1891 -1.4608
  544MOL0     H71774  10.883   1.847   6.198 -1.7512 -1.6500  2.1103
  544MOL0     H71775  10.872   1.920   6.356  3.0490 -2.5513 -0.5997
  544MOL0     H71776  10.951   2.148   6.267 -0.3417  1.0964 -1.6635
  544MOL0     H71777  10.945   2.080   6.104  1.4997  1.6477  0.4223
  544MOL0     H71778  11.111   1.918   6.152 -2.3939  1.8729 -2.3866
  544MOL0     H71779  11.124   1.975   6.319  0.7213 -1.1502 -0.3996
  544MOL0     H71780  11.311   2.064   6.206  0.3889  0.6685  0.5221
  544MOL0     H71781  11.202   2.115   6.074 -0.9740  1.7640  0.3844
  544MOL0     H71782  11.224   2.240   6.351  1.4757  0.4870  0.3158
  544MOL0     H71783  11.119   2.285   6.207  0.3442 -0.1858  0.1963
  544MOL0     H71784  11.356   2.311   6.081  0.4552  2.8256 -0.4624
  544MOL0     H71785  11.418   2.258   6.233  0.5341  0.6434  2.3717
  544MOL0     H71786  11.320   2.479   6.338 -1.1993  0.2072 -0.9164
  544MOL0     H71787  11.464   2.481   6.226  0.4739  0.6470 -1.0229
  544MOL0     H71788  11.329   2.512   6.034  1.5220 -0.8960  0.3654
  544MOL0     H71789  11.295   2.656   6.132 -0.6737  0.2259  0.6408
  544MOL0     H71790  10.534   2.111   6.293 -0.5927 -0.2819 -1.1574
  544MOL0     H71791  10.308   2.011   6.371  0.6506 -0.9528  3.1839
  544MOL0     H71792  10.120   1.520   6.395 -1.9646 -4.6941 -0.5553
  544MOL0     H71793   9.923   1.399   6.512  1.1968 -0.2625  0.2672
  544MOL0     H71794   9.080   1.861   7.579 -1.4513 -1.2402 -3.0352
  544MOL0     H71795   9.285   1.839   7.725 -1.1792 -1.9983  3.5549
  544MOL0     H71796   9.674   1.624   7.856 -0.4711  0.6369  0.5768
  544MOL0     H71797   9.917   1.621   7.891  2.2750  2.7739 -0.2002
  544MOL0     H71798  10.294   1.677   7.662  0.8236 -0.4115 -0.2504
  544MOL0     H71799  10.180   1.692   7.532 -3.7302  0.2974  1.0340
  544MOL0     H71800  10.171   1.443   7.543 -0.4137 -0.3792  1.4381
  544MOL0     H71801  10.314   1.529   7.467  0.6140  4.7780  1.7984
  544MOL0     H71802  10.343   1.329   7.656 -0.5175 -0.8507 -1.1727
  544MOL0     H71803  10.340   1.481   7.748 -0.9885  2.9932 -2.5515
  544MOL0     H71804  10.544   1.429   7.520  0.1000  1.0815 -0.2249
  544MOL0     H71805  10.510   1.569   7.623  1.0970 -0.1261 -2.0961
  544MOL0     H71806  10.705   1.285   7.871  1.8647 -3.0259 -2.8082
  544MOL0     H71807   9.996   1.668   7.470  0.7584  0.5384 -0.1801
  544MOL0     H71808   9.747   1.642   7.429 -2.7203  2.5654  0.2287
  545MOL0     O71809  10.628   9.104   5.142  0.1396  0.2407  0.6399
  545MOL0     C71810  10.633   9.166   5.244  0.3426 -0.7862  0.2324
  545MOL0     O71811  10.524   9.198   5.322  0.7368  0.5294  0.2147
  545MOL0     C71812  10.398   9.134   5.307 -0.6560 -0.4317  0.3575
  545MOL0     C71813  10.335   9.122   5.183 -0.1496  0.4979 -0.5093
  545MOL0     C71814  10.201   9.066   5.162 -0.7421  0.2411  0.2629
  545MOL0     C71815  10.128   9.038   5.277 -0.2325  0.2819 -0.1971
  545MOL0     O71816  10.004   9.004   5.254 -0.5057 -0.2819  0.6212
  545MOL0     C71817   9.898   9.031   5.352 -0.0270 -0.5564 -0.5419
  545MOL0     C71818   9.763   9.028   5.281  0.0557  0.6514 -0.8767
  545MOL0     C71819   9.638   9.012   5.368  0.6007 -0.2919 -0.3981
  545MOL0     C71820   9.506   9.021   5.292 -0.1105  0.1803  0.0020
  545MOL0     C71821   9.387   9.050   5.380 -0.1175  0.5281 -0.8765
  545MOL0     C71822   9.254   9.032   5.310  0.2328  1.0179 -0.6639
  545MOL0     C71823   9.127   9.034   5.403  0.1015  0.7256 -0.9177
  545MOL0     C71824   9.097   9.178   5.463 -0.9611  0.0690 -0.0457
  545MOL0     N71825   8.994   9.189   5.559  0.7079  0.6868 -0.2484
  545MOL0     C71826   8.873   9.138   5.533 -0.1886  0.0587  0.4427
  545MOL0     C71827   8.807   9.163   5.644  0.2668 -0.9771 -0.1154
  545MOL0     C71828   8.667   9.121   5.656  1.2453  0.8189  0.0208
  545MOL0     C71829   8.582   9.228   5.705 -0.4435  1.1016  0.0934
  545MOL0     C71830   8.433   9.185   5.687 -0.8980  0.0688  0.7717
  545MOL0     C71831   8.333   9.277   5.755 -0.0756 -0.5243  0.9991
  545MOL0     O71832   8.367   9.415   5.725  0.1974 -0.8198  0.6177
  545MOL0     C71833   8.275   9.520   5.757 -0.4107  0.7392  0.3928
  545MOL0     C71834   8.307   9.645   5.693  0.3667 -0.4157  0.3245
  545MOL0     C71835   8.222   9.756   5.691  0.0372 -0.8035  0.1216
  545MOL0     C71836   8.094   9.753   5.758 -0.7910  0.3096  0.8509
  545MOL0     C71837   8.018   9.871   5.759 -0.2951 -0.0686 -0.0736
  545MOL0     O71838   8.071   9.970   5.686  0.5760  0.0924  0.2786
  545MOL0     C71839   7.997  10.082   5.646 -0.4081  0.6945  0.1062
  545MOL0     C71840   7.862  10.092   5.639  0.1385  0.1178 -0.1141
  545MOL0     C71841   7.804  10.198   5.567 -0.0510  0.1212  0.0328
  545MOL0     C71842   7.882  10.292   5.501  0.2624  0.0347 -0.9638
  545MOL0     O71843   7.813  10.396   5.444 -0.1905  0.1531  0.3796
  545MOL0     C71844   7.875  10.525   5.437 -0.0920  0.1584 -0.2685
  545MOL0     C71845   7.776  10.638   5.410 -0.7053 -0.1399 -0.8097
  545MOL0     C71846   7.669  10.639   5.519 -0.4465  0.8504  0.6119
  545MOL0     C71847   7.552  10.735   5.478  0.1343  0.7973 -0.0568
  545MOL0     C71848   7.451  10.729   5.604  0.0877 -0.9180 -0.2488
  545MOL0     C71849   7.329  10.813   5.585  0.4693  0.4766  0.5999
  545MOL0     C71850   7.246  10.803   5.709  0.6670 -0.7263 -0.2118
  545MOL0     C71851   7.124  10.892   5.702 -0.0226  0.8493 -0.8005
  545MOL0    Cl71852   7.058  10.921   5.867 -0.5145 -0.0160  0.0263
  545MOL0     C71853   8.015  10.284   5.517 -1.2622  0.8880 -0.7257
  545MOL0     C71854   8.081  10.176   5.584 -0.0505 -0.6440  0.4682
  545MOL0     O71855   7.899   9.865   5.801  0.2501  0.1946 -0.1535
  545MOL0     C71856   8.068   9.636   5.826 -0.5915 -0.2536  0.4168
  545MOL0     C71857   8.155   9.523   5.835 -0.2249  0.4736  0.6691
  545MOL0     N71858   8.878   9.241   5.729 -0.2270 -0.3755 -0.0494
  545MOL0     N71859   8.999   9.244   5.684  0.2136  0.2210 -0.9566
  545MOL0     C71860  10.188   9.052   5.403 -0.4682  0.7764  0.1165
  545MOL0     C71861  10.315   9.102   5.415  0.1500 -0.4310  0.0732
  545MOL0     C71862  10.764   9.211   5.294  0.4079  0.4416  1.0580
  545MOL0     C71863  10.876   9.155   5.253  0.1261  0.5337  0.8078
  545MOL0     C71864  11.001   9.218   5.261 -0.4416  0.2427  0.2995
  545MOL0     C71865  11.009   9.344   5.322  0.5544  0.0842 -0.1337
  545MOL0     O71866  11.121   9.413   5.356  0.1336  1.2365  0.2403
  545MOL0     C71867  11.234   9.380   5.277  0.1994 -0.0633  0.5188
  545MOL0     C71868  11.344   9.467   5.332  0.3013  0.1254  0.3446
  545MOL0     C71869  11.345   9.618   5.281 -0.6542 -0.2561 -0.9249
  545MOL0     C71870  11.462   9.704   5.336  0.0265  0.5116  0.2387
  545MOL0     C71871  11.588   9.653   5.285  1.1096  0.9418  0.9768
  545MOL0     C71872  11.700   9.633   5.242 -0.0161 -0.0354 -0.1710
  545MOL0     C71873  10.894   9.391   5.376 -0.3635 -0.2511  0.0835
  545MOL0     C71874  10.778   9.324   5.376 -0.2476 -0.1432  0.7448
  545MOL0     H71875  10.391   9.178   5.109 -1.0194 -0.2957 -1.8277
  545MOL0     H71876  10.135   9.072   5.076 -1.4324  3.7449  0.8699
  545MOL0     H71877   9.891   9.129   5.399 -3.2163  1.2262 -4.1264
  545MOL0     H71878   9.906   8.960   5.435 -1.5561 -1.4535 -1.1144
  545MOL0     H71879   9.769   8.947   5.208  2.6325  1.2701 -1.4526
  545MOL0     H71880   9.747   9.125   5.234 -2.4561  0.6783 -0.1044
  545MOL0     H71881   9.628   9.098   5.434 -0.4749  0.2832 -1.2960
  545MOL0     H71882   9.644   8.917   5.423  2.0961  0.7297  1.3416
  545MOL0     H71883   9.510   9.100   5.217  0.3263  1.0922  0.9591
  545MOL0     H71884   9.489   8.929   5.235 -0.6344 -1.8118  3.1183
  545MOL0     H71885   9.388   9.150   5.423  1.0553  0.4465 -0.6900
  545MOL0     H71886   9.387   8.979   5.463  0.3318 -0.5590 -1.7696
  545MOL0     H71887   9.263   8.945   5.244  1.6666  0.5880  0.0361
  545MOL0     H71888   9.247   9.118   5.244  3.3833  0.7652 -1.4864
  545MOL0     H71889   9.044   8.997   5.342 -0.1701 -1.5361  0.7018
  545MOL0     H71890   9.150   8.962   5.482  2.9272 -3.3154 -4.9178
  545MOL0     H71891   9.074   9.247   5.381 -3.5940  1.6811  1.8602
  545MOL0     H71892   9.191   9.219   5.502  0.2507  0.6722 -3.2790
  545MOL0     H71893   8.848   9.097   5.436  3.7699  2.5363 -1.8849
  545MOL0     H71894   8.662   9.031   5.719 -1.5502  0.9943  0.1974
  545MOL0     H71895   8.632   9.096   5.555  1.5270  3.8222 -0.8999
  545MOL0     H71896   8.598   9.308   5.632  0.2413  3.1479  2.3926
  545MOL0     H71897   8.598   9.265   5.806  1.0014  1.3319 -0.1918
  545MOL0     H71898   8.416   9.175   5.580  3.2916  1.7229 -0.2750
  545MOL0     H71899   8.420   9.089   5.737 -0.3827 -1.1282 -1.2731
  545MOL0     H71900   8.342   9.247   5.860  0.4227 -1.6234  0.6567
  545MOL0     H71901   8.234   9.247   5.718  0.2748 -1.8694  1.0905
  545MOL0     H71902   8.404   9.636   5.644 -0.6623 -1.1511 -1.7463
  545MOL0     H71903   8.267   9.838   5.636  2.4453  0.4082  3.5301
  545MOL0     H71904   7.793  10.018   5.679  1.5569 -0.2475  1.7479
  545MOL0     H71905   7.696  10.204   5.575 -0.7992 -5.8813 -0.8787
  545MOL0     H71906   7.954  10.519   5.362  1.8245  0.6490  1.6302
  545MOL0     H71907   7.931  10.549   5.528  2.8160 -1.8276 -1.3896
  545MOL0     H71908   7.726  10.618   5.314 -0.8572  2.4852 -1.3497
  545MOL0     H71909   7.814  10.740   5.397 -1.0230  0.0218 -0.5047
  545MOL0     H71910   7.713  10.664   5.616 -0.7424 -1.6724  1.4683
  545MOL0     H71911   7.631  10.536   5.520 -1.5117  1.2284  0.6706
  545MOL0     H71912   7.581  10.838   5.455 -0.2163  0.6526 -1.2320
  545MOL0     H71913   7.500  10.700   5.388 -0.3316  2.1818 -0.3471
  545MOL0     H71914   7.498  10.776   5.691 -1.8499 -0.2101  0.4864
  545MOL0     H71915   7.433  10.622   5.621  1.2385 -1.5392 -2.6417
  545MOL0     H71916   7.283  10.782   5.490  3.6150  2.5719 -1.8233
  545MOL0     H71917   7.357  10.914   5.556  0.9404 -0.1641 -1.3680
  545MOL0     H71918   7.210  10.699   5.711  1.8821 -1.2431 -2.1409
  545MOL0     H71919   7.293  10.833   5.803 -1.9820  0.0516  0.9569
  545MOL0     H71920   7.045  10.863   5.633  0.2562  1.2384 -1.2890
  545MOL0     H71921   7.159  10.987   5.662  0.3103  1.3062  0.5200
  545MOL0     H71922   8.075  10.361   5.470 -0.9464  1.2043  0.1818
  545MOL0     H71923   8.187  10.160   5.569 -0.1619 -0.1683 -1.0675
  545MOL0     H71924   7.979   9.629   5.888 -2.4264  3.5206 -1.4158
  545MOL0     H71925   8.115   9.432   5.877  1.4598 -1.4816 -1.7184
  545MOL0     H71926  10.139   9.022   5.494  0.3941  1.3897  0.8034
  545MOL0     H71927  10.356   9.103   5.515  0.2404 -0.7726  0.0433
  545MOL0     H71928  10.865   9.071   5.185  0.1558  0.4288  0.9316
  545MOL0     H71929  11.096   9.173   5.236 -0.2645 -0.7943  2.5875
  545MOL0     H71930  11.215   9.400   5.171 -1.8535  2.8417  1.3109
  545MOL0     H71931  11.257   9.275   5.295  0.4130  0.0593  0.9744
  545MOL0     H71932  11.335   9.467   5.441  0.9007  0.2241  0.3935
  545MOL0     H71933  11.436   9.415   5.304  1.0409 -1.1554  4.5293
  545MOL0     H71934  11.250   9.665   5.310 -0.5062 -1.0415  0.9893
  545MOL0     H71935  11.353   9.618   5.172  1.2514 -1.0628 -0.8213
  545MOL0     H71936  11.476   9.807   5.304  0.2577  0.1123 -1.0060
  545MOL0     H71937  11.460   9.714   5.445  0.1141  1.8136  0.1297
  545MOL0     H71938  11.800   9.608   5.211  0.6596 -0.5347  2.1885
  545MOL0     H71939  10.900   9.490   5.421 -2.3919  1.1641 -2.4824
  545MOL0     H71940  10.693   9.365   5.429  0.2573  0.5882  1.0114
  546MOL0     O71941   5.443   6.592   1.912 -0.1013  0.5331  0.2397
  546MOL0     C71942   5.528   6.636   1.842  0.0833  0.8067  0.2407
  546MOL0     O71943   5.507   6.674   1.710  0.1596 -0.4575 -0.4565
  546MOL0     C71944   5.400   6.746   1.664 -0.7754 -0.1585 -0.7077
  546MOL0     C71945   5.396   6.765   1.526  0.5966  0.1096 -0.5954
  546MOL0     C71946   5.284   6.833   1.466 -0.7582 -0.3926  0.4569
  546MOL0     C71947   5.171   6.860   1.543  0.0571 -0.3226  0.4805
  546MOL0     O71948   5.053   6.898   1.477  0.1374 -0.4817  0.1645
  546MOL0     C71949   4.931   6.866   1.552  0.7622 -0.6615  0.2229
  546MOL0     C71950   4.802   6.905   1.473  0.3613 -0.0688  0.3149
  546MOL0     C71951   4.677   6.863   1.548 -0.6896 -0.1797  0.6949
  546MOL0     C71952   4.563   6.941   1.500 -0.2162 -1.0070  0.7181
  546MOL0     C71953   4.423   6.916   1.570 -0.6784  0.5277 -0.1671
  546MOL0     C71954   4.322   7.005   1.515  0.1493  0.5373  0.8704
  546MOL0     C71955   4.302   6.984   1.366 -0.0041  0.1323 -0.4222
  546MOL0     C71956   4.187   7.073   1.319  0.1124  0.5181  0.1683
  546MOL0     N71957   4.219   7.212   1.359  0.4211 -0.4919  1.8816
  546MOL0     C71958   4.323   7.285   1.313  0.2577  0.0765 -0.2505
  546MOL0     C71959   4.312   7.402   1.381  0.0945  0.3075  0.7882
  546MOL0     C71960   4.410   7.518   1.348 -0.1171  0.1662 -0.6361
  546MOL0     C71961   4.429   7.617   1.462 -0.8398 -0.5270 -0.1850
  546MOL0     C71962   4.529   7.726   1.419  0.4327 -0.4657  1.3053
  546MOL0     C71963   4.688   7.695   1.409  0.4896 -0.2552 -0.5128
  546MOL0     O71964   4.714   7.592   1.312  0.1344 -0.1211  0.0332
  546MOL0     C71965   4.842   7.586   1.263  0.5864 -0.7064 -0.4074
  546MOL0     C71966   4.951   7.645   1.322 -0.6232  0.1210 -0.0778
  546MOL0     C71967   5.083   7.609   1.292  0.2951  0.3482 -0.0731
  546MOL0     C71968   5.109   7.528   1.183  0.6056  0.4409 -0.1987
  546MOL0     C71969   5.251   7.499   1.153 -0.5652 -0.0005  0.8610
  546MOL0     O71970   5.348   7.587   1.199 -0.0557 -0.5927  0.0720
  546MOL0     C71971   5.474   7.573   1.147 -0.7741  0.1476 -0.8708
  546MOL0     C71972   5.559   7.493   1.224 -1.1610 -0.4067  0.7385
  546MOL0     C71973   5.689   7.472   1.164  0.9376  0.7760  0.2144
  546MOL0     C71974   5.731   7.532   1.045 -0.4425 -0.4967  0.4625
  546MOL0     O71975   5.854   7.503   0.995  0.0167  0.4459 -0.6612
  546MOL0     C71976   5.894   7.549   0.864  0.3037  0.4003 -0.0947
  546MOL0     C71977   6.051   7.525   0.854  1.1874 -0.3314  0.4610
  546MOL0     C71978   6.136   7.640   0.921  1.0735 -0.8665  0.7848
  546MOL0     C71979   6.276   7.596   0.941  0.6587 -0.0432 -1.2068
  546MOL0     C71980   6.352   7.721   0.970 -0.2290  0.0709  0.2973
  546MOL0     C71981   6.502   7.686   0.990 -0.0478  0.7292  0.8253
  546MOL0     C71982   6.578   7.814   1.037  0.6837 -0.2619 -0.3608
  546MOL0     C71983   6.731   7.794   1.068 -0.4962 -0.4207  0.3884
  546MOL0    Cl71984   6.762   7.647   1.173 -0.3922 -1.1348  0.4284
  546MOL0     C71985   5.636   7.622   0.980  0.3012  0.1567  0.1989
  546MOL0     C71986   5.512   7.637   1.036 -0.2199 -0.3619  0.4583
  546MOL0     O71987   5.280   7.406   1.077 -0.3998  0.2041 -0.0083
  546MOL0     C71988   5.004   7.478   1.103  0.5457  0.1131 -0.4557
  546MOL0     C71989   4.872   7.506   1.149  0.2914 -0.3898  0.4250
  546MOL0     N71990   4.195   7.404   1.461 -0.8765  0.0152 -0.7813
  546MOL0     N71991   4.143   7.292   1.434 -0.5301 -0.4328  0.6521
  546MOL0     C71992   5.186   6.863   1.683  0.8436  0.0278  0.0949
  546MOL0     C71993   5.302   6.806   1.747  0.7375  0.0070 -0.0829
  546MOL0     C71994   5.666   6.640   1.892 -0.2843  0.0860 -0.2143
  546MOL0     C71995   5.778   6.663   1.803 -0.4710  0.0124  0.0531
  546MOL0     C71996   5.913   6.665   1.854  0.1085 -0.0704 -0.0162
  546MOL0     C71997   5.943   6.652   1.991 -0.4612  0.4596 -0.6912
  546MOL0     O71998   6.075   6.650   2.038 -0.0083  0.2848 -0.9039
  546MOL0     C71999   6.188   6.621   1.950  0.8435  0.0936 -0.2965
  546MOL0     C72000   6.310   6.588   2.028 -0.2976  0.1263 -0.3953
  546MOL0     C72001   6.424   6.553   1.928  0.7743 -0.0863 -0.3454
  546MOL0     C72002   6.553   6.524   2.007  0.2478 -0.1882  0.6123
  546MOL0     C72003   6.655   6.460   1.921 -0.3583  0.0226 -0.8771
  546MOL0     C72004   6.749   6.395   1.884 -0.0931  0.0947  0.6928
  546MOL0     C72005   5.837   6.616   2.078  0.7806  0.2083  0.6180
  546MOL0     C72006   5.700   6.610   2.022  0.2421  0.5893 -0.7726
  546MOL0     H72007   5.474   6.726   1.461  2.0351 -1.0788  1.7094
  546MOL0     H72008   5.284   6.858   1.360  0.3468 -2.8139 -0.1957
  546MOL0     H72009   4.923   6.941   1.632  0.3471  0.0626 -0.4876
  546MOL0     H72010   4.922   6.767   1.599 -1.4884 -0.3686  0.5581
  546MOL0     H72011   4.797   6.876   1.367 -0.9984  1.4924 -0.0928
  546MOL0     H72012   4.793   7.013   1.454 -0.3400 -0.7360 -4.2710
  546MOL0     H72013   4.686   6.882   1.656 -2.8030 -2.1951  1.3128
  546MOL0     H72014   4.662   6.755   1.533  0.9246 -0.1796 -1.4822
  546MOL0     H72015   4.576   7.049   1.505 -1.0124 -0.8015 -0.9404
  546MOL0     H72016   4.553   6.908   1.396 -2.2613  0.2066  0.4875
  546MOL0     H72017   4.427   6.927   1.679 -1.0535 -0.0581 -0.0839
  546MOL0     H72018   4.396   6.812   1.549 -0.6209  0.8637 -2.0483
  546MOL0     H72019   4.350   7.109   1.536 -1.1416  1.0337  0.2326
  546MOL0     H72020   4.222   6.981   1.550 -0.9006  1.6745 -1.1681
  546MOL0     H72021   4.397   7.000   1.313 -0.0034 -3.2455 -1.7268
  546MOL0     H72022   4.277   6.882   1.334 -0.2735 -0.0198  0.2473
  546MOL0     H72023   4.095   7.036   1.363  0.5593  0.3020  0.9365
  546MOL0     H72024   4.170   7.069   1.211 -1.3350  0.6939  0.3741
  546MOL0     H72025   4.387   7.271   1.226 -1.1301 -0.5466 -1.2204
  546MOL0     H72026   4.382   7.566   1.254 -2.5706 -2.1100 -1.1908
  546MOL0     H72027   4.509   7.479   1.325  0.8617  0.4888  2.5620
  546MOL0     H72028   4.461   7.574   1.557 -5.7097  4.9323  4.7480
  546MOL0     H72029   4.328   7.661   1.469 -1.5702 -2.2048  0.3079
  546MOL0     H72030   4.498   7.767   1.323 -0.0958  3.0555  2.7954
  546MOL0     H72031   4.513   7.806   1.492  3.1423  0.3778  1.0919
  546MOL0     H72032   4.725   7.680   1.511  2.5108  1.5584 -0.9028
  546MOL0     H72033   4.732   7.788   1.371 -0.8369  2.1283  3.2024
  546MOL0     H72034   4.935   7.719   1.400  2.3267  3.2424 -2.1421
  546MOL0     H72035   5.163   7.655   1.349 -1.0023  3.5844 -0.6336
  546MOL0     H72036   5.548   7.447   1.321  1.0848 -2.2804  0.1930
  546MOL0     H72037   5.746   7.390   1.205  0.5147 -0.0569 -0.8266
  546MOL0     H72038   5.877   7.656   0.844  3.1905  1.3249  1.6808
  546MOL0     H72039   5.827   7.493   0.799 -2.0284  3.4681 -0.5506
  546MOL0     H72040   6.079   7.505   0.750 -1.3747 -1.3125 -0.1260
  546MOL0     H72041   6.068   7.432   0.908 -4.0157 -1.0993  1.3636
  546MOL0     H72042   6.081   7.651   1.015 -0.7505 -0.5758 -0.2782
  546MOL0     H72043   6.131   7.731   0.861  1.3785  0.5792  2.8427
  546MOL0     H72044   6.285   7.533   1.030 -2.0113  2.2099  0.8187
  546MOL0     H72045   6.321   7.549   0.853  1.9932 -0.8300 -0.1492
  546MOL0     H72046   6.314   7.779   1.055  1.8198  3.2899 -0.7942
  546MOL0     H72047   6.345   7.793   0.887  1.1577  0.8630  0.8402
  546MOL0     H72048   6.556   7.653   0.901 -0.1230 -0.7934  1.3235
  546MOL0     H72049   6.513   7.601   1.058 -0.2872  0.1676  0.1729
  546MOL0     H72050   6.583   7.889   0.958  0.6330  0.5524  0.3977
  546MOL0     H72051   6.526   7.851   1.126 -1.1104 -1.8060 -0.7058
  546MOL0     H72052   6.782   7.878   1.116  0.6359  0.3173 -1.9594
  546MOL0     H72053   6.783   7.786   0.972  3.1588 -1.8163  2.2474
  546MOL0     H72054   5.656   7.651   0.877  1.2903 -4.7889 -1.2831
  546MOL0     H72055   5.440   7.690   0.974  1.8236  1.5534 -0.4142
  546MOL0     H72056   5.030   7.423   1.013 -0.9760  1.8262 -2.0295
  546MOL0     H72057   4.790   7.467   1.089  0.1882  0.5975 -0.1075
  546MOL0     H72058   5.098   6.891   1.741 -0.5961  0.4112 -2.1220
  546MOL0     H72059   5.309   6.799   1.855  0.6517 -0.7619 -0.1248
  546MOL0     H72060   5.763   6.678   1.697  3.1059 -0.2020 -0.6032
  546MOL0     H72061   5.989   6.698   1.784  2.4196 -0.1518  2.2769
  546MOL0     H72062   6.201   6.696   1.871 -4.6114  2.3019  0.4889
  546MOL0     H72063   6.164   6.532   1.891 -1.1211  0.1023  0.4221
  546MOL0     H72064   6.344   6.673   2.088 -0.8655 -0.4958  0.8665
  546MOL0     H72065   6.288   6.504   2.096 -1.0572 -0.4713 -1.3514
  546MOL0     H72066   6.424   6.630   1.850 -2.8048  0.0964 -0.3109
  546MOL0     H72067   6.391   6.463   1.875  0.4907  1.8025 -3.6006
  546MOL0     H72068   6.594   6.619   2.042 -2.8116  1.0367  1.2106
  546MOL0     H72069   6.544   6.460   2.095 -0.9267  2.3252  2.4432
  546MOL0     H72070   6.837   6.338   1.860 -0.7707 -1.9236  2.6175
  546MOL0     H72071   5.867   6.603   2.181  0.8188 -0.7711  0.4969
  546MOL0     H72072   5.623   6.585   2.093  0.6602  2.6861  0.4965
  547MOL0     O72073   9.860   9.604   9.321 -0.0767  0.6290 -0.4704
  547MOL0     C72074   9.968   9.560   9.346 -0.0066 -0.9478 -0.1560
  547MOL0     O72075  10.005   9.430   9.368 -0.3432  0.3464  0.2997
  547MOL0     C72076   9.911   9.325   9.362 -0.6910 -0.3147  0.2301
  547MOL0     C72077   9.928   9.227   9.461 -0.1913  0.0975  0.8413
  547MOL0     C72078   9.837   9.127   9.481  0.1863  0.4192  0.3981
  547MOL0     C72079   9.731   9.116   9.393 -0.5587  0.3627  0.0635
  547MOL0     O72080   9.650   9.009   9.389  0.1034 -0.0580  0.5397
  547MOL0     C72081   9.639   8.918   9.501  0.2876  0.0587 -0.6479
  547MOL0     C72082   9.531   8.803   9.484  0.2690 -0.5687 -0.6037
  547MOL0     C72083   9.400   8.854   9.422  0.4080  1.0996  0.2291
  547MOL0     C72084   9.309   8.732   9.414  0.2318  0.3257 -0.0408
  547MOL0     C72085   9.188   8.755   9.330  0.7784 -0.0448  0.8881
  547MOL0     C72086   9.161   8.641   9.231 -0.4862 -0.3772  0.3088
  547MOL0     C72087   9.064   8.691   9.119 -0.3408 -0.3157 -0.1275
  547MOL0     C72088   9.005   8.585   9.023  0.4389  0.1606 -0.0019
  547MOL0     N72089   8.921   8.650   8.921  0.3184 -0.3906 -0.6048
  547MOL0     C72090   8.810   8.719   8.954 -0.2804  0.7151 -0.5829
  547MOL0     C72091   8.802   8.805   8.851 -0.4307 -0.1470  0.0798
  547MOL0     C72092   8.684   8.893   8.811 -0.4565  0.2546 -0.9630
  547MOL0     C72093   8.578   8.825   8.736 -0.5591  0.0384 -0.0931
  547MOL0     C72094   8.459   8.913   8.733  0.1557  0.1896 -0.2845
  547MOL0     C72095   8.338   8.849   8.655  0.3768  0.0194 -0.3608
  547MOL0     O72096   8.264   8.956   8.619  0.5989 -0.2195 -0.1071
  547MOL0     C72097   8.133   8.927   8.586 -0.8897  0.2354  1.2586
  547MOL0     C72098   8.068   8.804   8.579  0.3692  0.5611 -0.0145
  547MOL0     C72099   7.928   8.800   8.552 -0.4580  0.0438  0.1185
  547MOL0     C72100   7.850   8.920   8.521  0.1368 -0.3711 -0.0015
  547MOL0     C72101   7.705   8.902   8.485 -1.0810  0.0081 -0.4751
  547MOL0     O72102   7.630   9.020   8.480  0.4226 -0.6589  0.1032
  547MOL0     C72103   7.498   9.001   8.441  0.0956 -0.3056  0.0825
  547MOL0     C72104   7.451   9.076   8.331 -0.0037 -0.5446 -0.3115
  547MOL0     C72105   7.317   9.075   8.283 -0.0765  0.1770 -0.3114
  547MOL0     C72106   7.226   8.983   8.352 -0.4534 -1.1812  0.8707
  547MOL0     O72107   7.101   8.951   8.308  0.5458  0.0682 -0.6620
  547MOL0     C72108   7.046   9.045   8.217 -0.2969 -0.5952 -0.5938
  547MOL0     C72109   6.897   8.993   8.186  0.1783  0.0852  0.2350
  547MOL0     C72110   6.841   9.081   8.065 -0.1181  0.6473  0.0503
  547MOL0     C72111   6.696   9.037   8.037  0.0151 -0.1364 -0.4500
  547MOL0     C72112   6.631   9.128   7.935 -0.4094 -0.2890 -0.2750
  547MOL0     C72113   6.569   9.260   7.987 -0.0629  0.5261 -0.1474
  547MOL0     C72114   6.466   9.248   8.105 -0.4257 -0.1658  0.0454
  547MOL0     C72115   6.415   9.384   8.154  0.2248  0.3415 -0.0721
  547MOL0    Cl72116   6.295   9.364   8.282  0.3599  0.1488 -0.2437
  547MOL0     C72117   7.270   8.905   8.452 -0.5928 -0.0031  0.8622
  547MOL0     C72118   7.406   8.914   8.503  0.3480  1.0053 -0.2951
  547MOL0     O72119   7.666   8.784   8.476  0.8090  0.1152 -0.4588
  547MOL0     C72120   7.918   9.044   8.527  0.1245  1.1025  0.4673
  547MOL0     C72121   8.061   9.047   8.552  0.8882  0.9786  0.3085
  547MOL0     N72122   8.911   8.795   8.768  1.2254  0.6177  1.3520
  547MOL0     N72123   8.983   8.705   8.811 -0.0238  0.1732  0.6008
  547MOL0     C72124   9.706   9.216   9.292  0.5026 -0.0704 -0.2997
  547MOL0     C72125   9.794   9.328   9.290 -0.6892  0.0393  0.1178
  547MOL0     C72126  10.071   9.665   9.379  0.0273  0.0705 -0.0805
  547MOL0     C72127  10.175   9.639   9.467  0.6847 -0.4016 -0.2196
  547MOL0     C72128  10.276   9.735   9.491  0.3922  0.1292 -0.3039
  547MOL0     C72129  10.265   9.862   9.430 -0.0478 -0.4777  0.8599
  547MOL0     O72130  10.363   9.956   9.432 -0.5406 -0.3335  0.2546
  547MOL0     C72131  10.466   9.942   9.529 -0.8697  0.2680 -0.2312
  547MOL0     C72132  10.596   9.876   9.474 -1.2777  0.4190  0.6148
  547MOL0     C72133  10.730   9.931   9.510  0.1740  0.0107 -0.0995
  547MOL0     C72134  10.744   9.951   9.661  0.5920  0.8973  1.3334
  547MOL0     C72135  10.872  10.016   9.669  1.1922  0.9008 -0.3729
  547MOL0     C72136  10.981  10.054   9.704 -0.1636  0.1031 -0.5351
  547MOL0     C72137  10.156   9.887   9.344 -0.3810 -0.6351  0.3112
  547MOL0     C72138  10.053   9.793   9.323 -0.1628  0.8867  0.5685
  547MOL0     H72139  10.027   9.225   9.505  0.2720  0.9347 -0.1263
  547MOL0     H72140   9.863   9.045   9.548 -0.1221  1.6447  2.0824
  547MOL0     H72141   9.624   8.987   9.585 -0.9772 -0.5957 -0.3013
  547MOL0     H72142   9.729   8.861   9.524 -0.8606 -1.3579  0.5556
  547MOL0     H72143   9.501   8.757   9.578 -0.1087 -2.3383 -1.5563
  547MOL0     H72144   9.566   8.729   9.412 -1.7573 -2.4361  0.2327
  547MOL0     H72145   9.422   8.893   9.322 -1.0641 -3.3153 -2.0520
  547MOL0     H72146   9.344   8.923   9.485  0.3817  2.6340 -1.3906
  547MOL0     H72147   9.370   8.647   9.380 -2.7250 -1.4982 -1.1804
  547MOL0     H72148   9.279   8.703   9.516  0.0630  0.6038 -0.0138
  547MOL0     H72149   9.197   8.853   9.281  5.2521 -0.4198  0.5587
  547MOL0     H72150   9.095   8.753   9.387 -0.8141 -2.6556 -1.5321
  547MOL0     H72151   9.114   8.555   9.279 -2.9779  1.0997  0.6699
  547MOL0     H72152   9.262   8.606   9.205 -0.0076  1.3291 -0.2858
  547MOL0     H72153   8.977   8.737   9.167 -1.0550 -0.8496 -0.8861
  547MOL0     H72154   9.115   8.761   9.053 -2.9519  0.1393 -1.8381
  547MOL0     H72155   8.950   8.508   9.077  1.6517  0.5642  1.8910
  547MOL0     H72156   9.084   8.528   8.974 -1.2515 -0.7732 -1.7864
  547MOL0     H72157   8.739   8.697   9.033 -1.6328  0.0370 -1.9628
  547MOL0     H72158   8.728   8.978   8.758 -1.1922  0.9365 -0.4853
  547MOL0     H72159   8.638   8.936   8.900 -3.2101 -1.5016 -1.4048
  547MOL0     H72160   8.541   8.730   8.776 -0.4563 -0.6918 -1.6478
  547MOL0     H72161   8.631   8.804   8.642  1.3968 -0.7442  1.1252
  547MOL0     H72162   8.420   8.926   8.834 -2.8686 -1.3989 -1.1069
  547MOL0     H72163   8.489   9.005   8.682 -3.1804  3.0727  2.4252
  547MOL0     H72164   8.293   8.783   8.730 -0.5898  2.9411  1.8422
  547MOL0     H72165   8.368   8.792   8.567  0.3444 -0.5160 -0.0292
  547MOL0     H72166   8.125   8.712   8.586 -0.0142  0.3474  0.3288
  547MOL0     H72167   7.889   8.699   8.539  2.8442 -1.8604  3.4262
  547MOL0     H72168   7.517   9.134   8.267 -0.7906 -2.0107 -2.5544
  547MOL0     H72169   7.284   9.141   8.203  0.6736 -0.3702 -1.0874
  547MOL0     H72170   7.101   9.034   8.123  1.3010 -0.7498  0.3231
  547MOL0     H72171   7.049   9.150   8.246 -3.3272  0.2750 -2.8843
  547MOL0     H72172   6.826   9.002   8.269 -1.4255 -1.8219 -0.8309
  547MOL0     H72173   6.893   8.888   8.156  0.8237  0.6579 -2.0771
  547MOL0     H72174   6.900   9.053   7.977 -0.9928  0.8503 -0.6154
  547MOL0     H72175   6.854   9.189   8.071  3.6713  0.2579  1.5318
  547MOL0     H72176   6.709   8.938   7.993 -0.4997  0.7748 -2.7730
  547MOL0     H72177   6.637   9.019   8.128 -0.0459  0.8942 -0.2688
  547MOL0     H72178   6.555   9.060   7.894 -1.0163 -1.0584  1.9594
  547MOL0     H72179   6.698   9.170   7.860  1.0948  0.4438  1.4265
  547MOL0     H72180   6.511   9.307   7.907 -1.4641 -1.1438 -0.1710
  547MOL0     H72181   6.647   9.329   8.020 -0.5676  1.3765 -0.7023
  547MOL0     H72182   6.380   9.183   8.084 -0.7506  0.6530 -1.2037
  547MOL0     H72183   6.520   9.204   8.190  2.7922  1.2799 -1.0817
  547MOL0     H72184   6.376   9.424   8.060 -1.3165 -4.3907 -1.7038
  547MOL0     H72185   6.499   9.446   8.188  1.2209  0.0762 -1.9041
  547MOL0     H72186   7.200   8.843   8.507 -2.3008  3.2361  2.6536
  547MOL0     H72187   7.436   8.867   8.596  0.4017  3.6781  1.1501
  547MOL0     H72188   7.871   9.137   8.497  1.5008  1.2455 -1.4773
  547MOL0     H72189   8.105   9.146   8.550  0.0870  1.3429 -1.7935
  547MOL0     H72190   9.617   9.217   9.229  0.1076 -2.8177  0.0687
  547MOL0     H72191   9.761   9.412   9.230 -2.3357 -0.8026 -0.1875
  547MOL0     H72192  10.190   9.541   9.511 -1.4596  0.5142  2.8530
  547MOL0     H72193  10.361   9.691   9.541  1.4585 -1.8322 -3.4957
  547MOL0     H72194  10.436   9.889   9.620  0.2837 -0.5304 -0.2962
  547MOL0     H72195  10.490  10.045   9.558 -2.6129  0.0294  2.3838
  547MOL0     H72196  10.592   9.769   9.496  1.5793  0.2575  0.7085
  547MOL0     H72197  10.590   9.881   9.365 -2.9622 -1.2389  0.5914
  547MOL0     H72198  10.746  10.026   9.457  1.6971 -0.1067  0.0848
  547MOL0     H72199  10.811   9.865   9.476  0.8600 -0.1102  1.6549
  547MOL0     H72200  10.674  10.014   9.715  0.6019 -0.0123  2.4571
  547MOL0     H72201  10.750   9.850   9.704  1.4982 -0.4165 -1.5932
  547MOL0     H72202  11.063  10.092   9.761 -1.1056  1.6131 -0.1171
  547MOL0     H72203  10.147   9.978   9.286 -0.4831 -0.5614  0.4412
  547MOL0     H72204   9.980   9.816   9.246 -1.7352 -0.8646  1.4278
  548MOL0     O72205   3.838   0.115  10.884 -0.1001 -0.3194  0.6924
  548MOL0     C72206   3.814   0.052  10.783  0.3239 -0.2539 -0.1422
  548MOL0     O72207   3.691   0.008  10.739  0.9384 -0.7096  0.5383
  548MOL0     C72208   3.570   0.050  10.797 -0.9845 -0.2306  0.0159
  548MOL0     C72209   3.461  -0.027  10.773 -0.9544  1.4325 -0.2015
  548MOL0     C72210   3.333   0.008  10.823 -0.0024 -0.3375  0.0353
  548MOL0     C72211   3.310   0.136  10.875 -0.8511 -0.1418 -0.0429
  548MOL0     O72212   3.180   0.174  10.914 -0.2324  0.5805  0.7722
  548MOL0     C72213   3.138   0.288  10.851 -0.7031  0.5939 -0.1649
  548MOL0     C72214   3.022   0.358  10.921 -0.3640 -0.2719  0.2372
  548MOL0     C72215   2.968   0.486  10.854 -0.7009  0.4292 -0.1756
  548MOL0     C72216   2.909   0.475  10.710 -0.0560 -0.1717 -0.6246
  548MOL0     C72217   2.784   0.379  10.690  0.3137 -0.0190 -0.2610
  548MOL0     C72218   2.647   0.423  10.753 -0.0786 -0.7880  0.6936
  548MOL0     C72219   2.610   0.565  10.710  0.1027 -0.2941  1.1635
  548MOL0     C72220   2.474   0.603  10.775  0.8077 -0.9116  0.1584
  548MOL0     N72221   2.350   0.535  10.727 -0.3293 -0.8106  0.3622
  548MOL0     C72222   2.257   0.603  10.651  0.2145 -0.6646 -0.4136
  548MOL0     C72223   2.162   0.508  10.631  0.2472  0.2266  0.4082
  548MOL0     C72224   2.034   0.538  10.552 -0.9021 -0.0233  0.6300
  548MOL0     C72225   2.067   0.546  10.399 -1.4954 -0.0163  0.5608
  548MOL0     C72226   2.093   0.404  10.350  0.1225 -0.6396  0.2225
  548MOL0     C72227   2.107   0.405  10.198 -0.2096  0.4018 -0.1450
  548MOL0     O72228   2.170   0.287  10.141  0.2428  0.0381 -0.2522
  548MOL0     C72229   2.307   0.252  10.150 -0.1058 -1.1517 -0.1898
  548MOL0     C72230   2.348   0.127  10.111 -0.3457 -0.5126 -0.5590
  548MOL0     C72231   2.482   0.090  10.119  0.4079  0.9305  0.0522
  548MOL0     C72232   2.582   0.175  10.164  0.1383 -0.3533  0.0004
  548MOL0     C72233   2.718   0.134  10.193 -1.0546 -0.3045  0.7268
  548MOL0     O72234   2.781   0.193  10.306  0.0657 -0.7179  0.2944
  548MOL0     C72235   2.915   0.188  10.326  0.2770 -0.1390  0.3651
  548MOL0     C72236   2.970   0.198  10.451  0.3209 -0.2115  0.3984
  548MOL0     C72237   3.112   0.201  10.455  0.4778 -0.0696  0.3114
  548MOL0     C72238   3.198   0.228  10.343  0.6640  0.3966  0.0534
  548MOL0     O72239   3.332   0.229  10.353 -0.6423 -0.3399  0.4139
  548MOL0     C72240   3.394   0.220  10.483 -0.2443 -0.2172  0.7044
  548MOL0     C72241   3.543   0.198  10.462 -0.6230 -0.2252  0.2126
  548MOL0     C72242   3.571   0.089  10.356  0.8064 -0.0042 -0.0878
  548MOL0     C72243   3.536  -0.049  10.406 -0.6253 -0.0402  0.1382
  548MOL0     C72244   3.514  -0.156  10.303 -0.6960 -0.6419  0.5100
  548MOL0     C72245   3.619  -0.147  10.190 -0.3705  0.7581 -0.5484
  548MOL0     C72246   3.588  -0.261  10.078  0.2532 -0.1758 -0.1646
  548MOL0     C72247   3.658  -0.221   9.948 -0.0252 -0.2995 -1.0827
  548MOL0    Cl72248   3.545  -0.110   9.855 -0.3861 -0.1478  0.0634
  548MOL0     C72249   3.132   0.242  10.215  0.5986  0.3664 -0.2781
  548MOL0     C72250   2.995   0.219  10.212  0.5999 -0.9476  0.2003
  548MOL0     O72251   2.767   0.049  10.116 -0.3951 -0.8367  0.1778
  548MOL0     C72252   2.540   0.307  10.195  1.0837  0.4202 -0.7965
  548MOL0     C72253   2.409   0.346  10.179  0.5513 -0.6299  0.0430
  548MOL0     N72254   2.194   0.400  10.704  0.0824  0.0058 -0.2938
  548MOL0     N72255   2.307   0.413  10.757  0.3822 -0.5270 -0.5361
  548MOL0     C72256   3.426   0.216  10.910 -0.1677  1.4078 -0.3761
  548MOL0     C72257   3.549   0.171  10.869 -0.1959 -1.8704 -0.3742
  548MOL0     C72258   3.918   0.035  10.687 -1.0570  0.1733  0.7839
  548MOL0     C72259   4.042   0.099  10.710 -0.6180  0.6610 -1.3290
  548MOL0     C72260   4.149   0.085  10.622 -0.4384  0.0408  0.1525
  548MOL0     C72261   4.132   0.013  10.500  0.4126  0.7793 -1.1915
  548MOL0     O72262   4.238   0.004  10.414  0.3540  0.3261  0.3734
  548MOL0     C72263   4.283  -0.128  10.378  0.6625 -0.1319 -0.4067
  548MOL0     C72264   4.334  -0.119  10.242 -0.4165 -0.5057  0.6067
  548MOL0     C72265   4.346  -0.258  10.175  0.3394 -0.0903 -0.0756
  548MOL0     C72266   4.413  -0.247  10.031  1.3544  0.5211  0.7046
  548MOL0     C72267   4.558  -0.210  10.028 -0.4412 -0.3299  0.0866
  548MOL0     C72268   4.672  -0.173  10.010  0.2931 -0.0762  0.4634
  548MOL0     C72269   4.008  -0.041  10.476 -0.2675 -0.6673 -0.2036
  548MOL0     C72270   3.906  -0.040  10.565  1.6172  0.6747  0.1072
  548MOL0     H72271   3.475  -0.121  10.721 -2.2448  0.5909  0.9321
  548MOL0     H72272   3.253  -0.063  10.808 -0.3826 -0.2465  1.4548
  548MOL0     H72273   3.107   0.259  10.750 -0.6607 -2.0649  0.5025
  548MOL0     H72274   3.204   0.376  10.849 -1.9944  1.6414 -3.8675
  548MOL0     H72275   3.061   0.385  11.020 -0.5559 -0.5017  0.3747
  548MOL0     H72276   2.936   0.292  10.935 -2.2452  1.4001 -2.4710
  548MOL0     H72277   3.053   0.555  10.847 -2.2366  2.4799  0.5968
  548MOL0     H72278   2.897   0.529  10.925 -0.8121  1.9806 -1.1765
  548MOL0     H72279   2.906   0.576  10.670  1.6633 -0.3353 -1.2449
  548MOL0     H72280   2.986   0.429  10.646  3.9182  0.6168  3.0894
  548MOL0     H72281   2.807   0.274  10.714  1.8986  0.5404  0.8604
  548MOL0     H72282   2.768   0.379  10.582 -0.3577 -0.3561 -0.1681
  548MOL0     H72283   2.647   0.401  10.860 -0.2308  0.3319  0.9351
  548MOL0     H72284   2.572   0.366  10.699  1.4724 -0.8560 -1.5129
  548MOL0     H72285   2.683   0.629  10.759 -0.8770  0.6590  1.4182
  548MOL0     H72286   2.621   0.584  10.603 -1.4914 -2.6511  0.4828
  548MOL0     H72287   2.456   0.711  10.774 -2.3429 -1.3563  0.3457
  548MOL0     H72288   2.482   0.588  10.882  1.7999  3.7478  0.9902
  548MOL0     H72289   2.271   0.699  10.604  1.0980 -0.0437  1.0663
  548MOL0     H72290   1.994   0.630  10.596  1.7676  0.4438  2.2801
  548MOL0     H72291   1.966   0.454  10.570 -0.2578 -0.2122  2.3600
  548MOL0     H72292   2.154   0.610  10.383 -1.9278  0.2925 -0.6860
  548MOL0     H72293   1.979   0.589  10.351 -1.0013 -1.6449 -1.9599
  548MOL0     H72294   2.186   0.364  10.393  0.5926  1.6875  1.5461
  548MOL0     H72295   2.024   0.336  10.400  0.8426 -0.1489  1.9810
  548MOL0     H72296   2.166   0.492  10.170  1.0985 -0.4132 -0.0270
  548MOL0     H72297   2.006   0.405  10.156 -1.0514  0.1279  1.7729
  548MOL0     H72298   2.268   0.056  10.091 -0.5913 -0.3744 -0.0847
  548MOL0     H72299   2.497  -0.017  10.104 -1.9843  0.9520 -4.0788
  548MOL0     H72300   2.898   0.182  10.531 -0.0737 -2.9319 -0.4098
  548MOL0     H72301   3.162   0.196  10.551  0.6402 -0.7635  0.1956
  548MOL0     H72302   3.359   0.141  10.550  2.4629  1.1084  3.9351
  548MOL0     H72303   3.384   0.320  10.527 -0.5969  1.3162 -2.5424
  548MOL0     H72304   3.593   0.173  10.556 -0.8675  0.7597  0.6177
  548MOL0     H72305   3.587   0.288  10.418 -1.9986 -0.0335 -0.8427
  548MOL0     H72306   3.676   0.107  10.333  0.1108  1.8749 -2.2777
  548MOL0     H72307   3.518   0.106  10.261  1.1763  0.5315 -0.2049
  548MOL0     H72308   3.618  -0.077  10.473  0.4554  0.4810 -0.9413
  548MOL0     H72309   3.449  -0.027  10.468  1.8174  5.7315  2.1560
  548MOL0     H72310   3.413  -0.141  10.263 -0.4109  0.6551  0.2168
  548MOL0     H72311   3.521  -0.249  10.360  4.5139  0.2531  1.8245
  548MOL0     H72312   3.721  -0.157  10.228 -0.9814  1.4970  1.3542
  548MOL0     H72313   3.610  -0.050  10.141  0.3841  0.5399 -1.1496
  548MOL0     H72314   3.619  -0.357  10.120  0.6300 -0.1531 -0.3815
  548MOL0     H72315   3.484  -0.266  10.044  1.1014 -0.5444 -2.9904
  548MOL0     H72316   3.678  -0.305   9.880  0.2407 -0.6333 -0.5974
  548MOL0     H72317   3.759  -0.182   9.965 -0.0527  0.9841 -3.4525
  548MOL0     H72318   3.190   0.265  10.126  0.0389 -1.3297 -1.1245
  548MOL0     H72319   2.948   0.235  10.115 -0.6725 -0.1843  0.9243
  548MOL0     H72320   2.609   0.389  10.216  1.6327 -0.2762  0.2031
  548MOL0     H72321   2.385   0.450  10.198  0.3835 -0.7942  0.7713
  548MOL0     H72322   3.418   0.304  10.974  4.3899  0.2857  2.1940
  548MOL0     H72323   3.637   0.230  10.893 -2.2077  0.8439  0.8408
  548MOL0     H72324   4.051   0.161  10.799 -0.9882 -1.7325  0.4750
  548MOL0     H72325   4.246   0.127  10.645 -0.1618 -0.3438 -0.3089
  548MOL0     H72326   4.196  -0.193  10.368  1.1039 -0.9182  0.6827
  548MOL0     H72327   4.349  -0.163  10.458 -0.5828  1.0279  1.2038
  548MOL0     H72328   4.267  -0.052  10.187  1.4021  0.0860 -1.0042
  548MOL0     H72329   4.432  -0.074  10.255  0.2487 -1.7782  0.2011
  548MOL0     H72330   4.245  -0.297  10.164 -1.1076  3.3981 -0.3946
  548MOL0     H72331   4.403  -0.322  10.244  0.3173 -0.5998 -0.5266
  548MOL0     H72332   4.414  -0.348   9.990  1.1336  0.6813  0.3000
  548MOL0     H72333   4.351  -0.181   9.969 -0.1022 -0.8653  0.6196
  548MOL0     H72334   4.776  -0.150  10.000  0.5834 -1.1228  0.9428
  548MOL0     H72335   3.985  -0.091  10.382 -1.8150  0.1271 -0.2842
  548MOL0     H72336   3.817  -0.089  10.526  2.6548  0.6164 -2.3861
  549MOL0     O72337   8.954   4.061   6.437  0.0321  0.3496  0.7081
  549MOL0     C72338   9.013   3.951   6.426 -0.1230  0.5234 -0.8716
  549MOL0     O72339   8.966   3.846   6.355  0.0139  0.0247 -0.0409
  549MOL0     C72340   8.869   3.859   6.257  0.4699 -0.3553  0.0132
  549MOL0     C72341   8.734   3.874   6.289 -0.4283  0.0447 -0.0361
  549MOL0     C72342   8.636   3.866   6.183  0.2171  1.3829  0.7801
  549MOL0     C72343   8.675   3.835   6.050  0.1890  0.3339  0.8042
  549MOL0     O72344   8.591   3.800   5.948  0.1282 -0.3271  0.9314
  549MOL0     C72345   8.457   3.760   5.985  0.5665 -0.0233  0.3178
  549MOL0     C72346   8.399   3.692   5.862  0.1760  0.1109 -0.1662
  549MOL0     C72347   8.350   3.795   5.761 -0.1938 -0.3306  0.4372
  549MOL0     C72348   8.317   3.731   5.624  0.0571  1.1760 -1.2073
  549MOL0     C72349   8.225   3.808   5.537 -0.0180 -0.1399 -0.2328
  549MOL0     C72350   8.206   3.731   5.404 -0.5520  0.1181  0.0447
  549MOL0     C72351   8.128   3.803   5.295 -0.3437  0.7564 -0.3102
  549MOL0     C72352   8.204   3.916   5.227 -0.6506 -0.8667 -0.8633
  549MOL0     N72353   8.126   3.948   5.102 -0.3700 -0.0271 -0.1349
  549MOL0     C72354   7.988   3.963   5.099  0.8113 -0.0083  0.1683
  549MOL0     C72355   7.961   3.936   4.968  0.2385  0.7600 -0.3416
  549MOL0     C72356   7.829   3.945   4.909  0.8946  0.6513  0.4379
  549MOL0     C72357   7.744   4.063   4.961  0.1716  0.0458  0.7907
  549MOL0     C72358   7.594   4.034   4.978  0.0081 -0.3732 -0.6836
  549MOL0     C72359   7.508   4.163   4.985 -0.2020 -0.1581 -0.2479
  549MOL0     O72360   7.364   4.139   4.993  0.0036  1.2853 -0.6153
  549MOL0     C72361   7.287   4.103   4.884  0.8394 -0.0577 -0.2398
  549MOL0     C72362   7.144   4.108   4.896 -0.5325 -0.3778  0.3753
  549MOL0     C72363   7.067   4.094   4.781  0.1421  0.3516 -0.1512
  549MOL0     C72364   7.123   4.062   4.657  0.1142  0.8138 -0.9890
  549MOL0     C72365   7.049   4.049   4.533  0.5113 -0.4340  0.1643
  549MOL0     O72366   6.917   4.054   4.548 -0.1809 -0.6630 -1.5337
  549MOL0     C72367   6.849   4.058   4.434  0.8299 -0.8175  0.3449
  549MOL0     C72368   6.806   4.181   4.375 -0.4986 -0.6251  0.2984
  549MOL0     C72369   6.743   4.185   4.253 -0.1439  0.2705  0.0711
  549MOL0     C72370   6.704   4.066   4.192 -0.3514 -0.0641 -0.0310
  549MOL0     O72371   6.630   4.079   4.069 -0.0037 -0.1556  0.0224
  549MOL0     C72372   6.583   3.959   4.001 -0.3586 -0.5867  0.9442
  549MOL0     C72373   6.491   4.017   3.896 -0.4127  0.9693 -0.4353
  549MOL0     C72374   6.353   4.014   3.954 -0.1093  0.0639 -0.2272
  549MOL0     C72375   6.259   4.049   3.833  0.6340 -0.2893  0.1974
  549MOL0     C72376   6.195   4.196   3.852 -0.5191 -0.0568 -0.5809
  549MOL0     C72377   6.098   4.241   3.751 -0.3086 -0.7314  1.1244
  549MOL0     C72378   5.949   4.230   3.785 -0.3828  0.2679  0.1422
  549MOL0     C72379   5.846   4.275   3.674 -1.3050  0.2697 -0.1228
  549MOL0    Cl72380   5.674   4.307   3.730  0.4411 -0.2092  0.1984
  549MOL0     C72381   6.733   3.945   4.256  0.3522 -0.1455 -0.4473
  549MOL0     C72382   6.805   3.942   4.378 -0.5373 -0.0727  0.3260
  549MOL0     O72383   7.104   4.046   4.425 -0.2507 -0.0182 -0.8772
  549MOL0     C72384   7.261   4.048   4.648 -0.0078 -1.1866 -0.5048
  549MOL0     C72385   7.342   4.076   4.756  0.9635  0.5032 -0.3101
  549MOL0     N72386   8.075   3.899   4.897 -0.2122  0.7007  0.0690
  549MOL0     N72387   8.167   3.906   4.981 -0.7499 -0.9205  0.4035
  549MOL0     C72388   8.809   3.824   6.028 -0.2216  0.5246  0.0847
  549MOL0     C72389   8.901   3.840   6.129  0.3636 -0.1062  0.2143
  549MOL0     C72390   9.145   3.934   6.512  0.1828  0.3564  0.1656
  549MOL0     C72391   9.188   3.805   6.530 -0.1486 -0.3964 -1.0382
  549MOL0     C72392   9.314   3.787   6.596 -0.1052 -0.1597 -0.1907
  549MOL0     C72393   9.402   3.890   6.627  0.1307 -0.6163  0.1590
  549MOL0     O72394   9.524   3.868   6.687  0.3347  0.4539 -0.1287
  549MOL0     C72395   9.604   3.752   6.674  0.0759  1.0294 -0.1776
  549MOL0     C72396   9.742   3.778   6.602  0.2285  0.5589 -0.6508
  549MOL0     C72397   9.711   3.809   6.457 -0.5233  0.6252 -0.0604
  549MOL0     C72398   9.835   3.816   6.361 -0.1372  0.8418 -0.2625
  549MOL0     C72399   9.879   3.673   6.344  0.0763  0.0000  0.1811
  549MOL0     C72400   9.913   3.564   6.313 -0.3153  0.0389  0.0975
  549MOL0     C72401   9.354   4.016   6.612  0.7071  0.5319  0.8466
  549MOL0     C72402   9.228   4.038   6.550 -0.8343 -0.2161 -0.2519
  549MOL0     H72403   8.702   3.893   6.391  0.5436  0.4976  0.1997
  549MOL0     H72404   8.528   3.867   6.198 -0.7003 -2.4965 -3.3724
  549MOL0     H72405   8.393   3.846   6.007  2.1600  1.7399 -1.6084
  549MOL0     H72406   8.466   3.693   6.071 -2.5467  1.0840  1.6547
  549MOL0     H72407   8.313   3.628   5.883  0.3727  0.1832  0.9308
  549MOL0     H72408   8.477   3.630   5.816 -1.6395 -1.3323 -1.4185
  549MOL0     H72409   8.426   3.873   5.748 -2.3105  1.9541  0.9819
  549MOL0     H72410   8.264   3.854   5.796 -1.4380  0.1641 -3.0742
  549MOL0     H72411   8.410   3.704   5.572 -0.8073 -4.5341 -0.4375
  549MOL0     H72412   8.267   3.636   5.642  3.5997 -0.6513  0.0200
  549MOL0     H72413   8.250   3.912   5.511  0.7128  0.0033  0.9431
  549MOL0     H72414   8.131   3.822   5.590 -1.9812 -2.9304 -2.6711
  549MOL0     H72415   8.158   3.633   5.418  0.3972 -0.5418 -1.1136
  549MOL0     H72416   8.306   3.723   5.361 -0.6913 -1.7231 -0.0358
  549MOL0     H72417   8.118   3.724   5.220  2.4309  2.1520 -2.3276
  549MOL0     H72418   8.030   3.825   5.339 -1.2371 -2.1736 -0.5578
  549MOL0     H72419   8.304   3.895   5.186 -0.7858  1.5484 -2.6810
  549MOL0     H72420   8.200   4.003   5.293 -0.9744 -0.0669 -1.9144
  549MOL0     H72421   7.928   3.995   5.184  2.3596  2.2104  0.5014
  549MOL0     H72422   7.770   3.863   4.951  1.7023  0.3150  0.9528
  549MOL0     H72423   7.829   3.941   4.800  0.5821  1.7625  0.3892
  549MOL0     H72424   7.754   4.141   4.885 -0.6088 -0.3915  0.2181
  549MOL0     H72425   7.784   4.111   5.050 -0.1292  1.0659  0.3834
  549MOL0     H72426   7.562   3.966   4.898  0.0594  0.9597 -1.8648
  549MOL0     H72427   7.589   3.981   5.074 -0.8873 -0.5979 -0.8490
  549MOL0     H72428   7.531   4.231   4.902  0.0961 -0.1177 -0.1351
  549MOL0     H72429   7.543   4.223   5.071  2.9340 -1.1898 -0.6740
  549MOL0     H72430   7.088   4.122   4.988 -1.2341 -0.4441 -0.0342
  549MOL0     H72431   6.959   4.089   4.787  0.1860 -0.0856  0.4129
  549MOL0     H72432   6.833   4.277   4.418  0.1666 -0.7130  0.1020
  549MOL0     H72433   6.720   4.280   4.204 -1.0225 -0.7504 -1.6005
  549MOL0     H72434   6.527   3.899   4.073  0.0849 -2.5019 -0.2354
  549MOL0     H72435   6.659   3.898   3.951  0.5860  1.2824 -0.0275
  549MOL0     H72436   6.498   3.943   3.815  2.2167 -2.7844  2.8224
  549MOL0     H72437   6.527   4.119   3.882  2.3982  0.1773  0.5022
  549MOL0     H72438   6.352   4.081   4.041  3.1188 -2.2327  1.8404
  549MOL0     H72439   6.342   3.907   3.973 -4.7529 -0.2567 -3.3049
  549MOL0     H72440   6.313   4.038   3.739 -0.4190  0.2391 -0.4959
  549MOL0     H72441   6.171   3.984   3.829  1.7649 -1.8143 -0.9243
  549MOL0     H72442   6.285   4.258   3.844 -0.9574  0.7348  0.4326
  549MOL0     H72443   6.142   4.209   3.947 -1.5820  1.4932 -1.3566
  549MOL0     H72444   6.115   4.181   3.661  1.0959 -1.5042  1.8633
  549MOL0     H72445   6.111   4.344   3.718  1.8141 -1.3136 -0.0429
  549MOL0     H72446   5.925   4.125   3.802  1.6425 -0.4069 -0.8441
  549MOL0     H72447   5.941   4.286   3.879  0.8721  0.2036  0.3073
  549MOL0     H72448   5.852   4.197   3.598  1.0370  0.6732 -0.4348
  549MOL0     H72449   5.880   4.371   3.633  0.0374 -0.7706 -1.5578
  549MOL0     H72450   6.707   3.859   4.195  0.2672  1.4402 -2.7778
  549MOL0     H72451   6.814   3.849   4.433  1.3503  0.6791  1.3600
  549MOL0     H72452   7.322   4.020   4.563  1.5603 -4.4498  1.5067
  549MOL0     H72453   7.448   4.063   4.737  0.5443 -0.5954 -2.1161
  549MOL0     H72454   8.848   3.811   5.928 -0.6288  1.6561 -0.2436
  549MOL0     H72455   9.007   3.820   6.118 -0.1252 -2.3118 -1.1189
  549MOL0     H72456   9.132   3.715   6.509  1.8561 -2.0992  0.3918
  549MOL0     H72457   9.356   3.687   6.611  1.4460  0.1336 -2.1164
  549MOL0     H72458   9.561   3.661   6.633  1.3964  1.1135 -1.8678
  549MOL0     H72459   9.634   3.723   6.775  3.3164 -0.4483 -1.4283
  549MOL0     H72460   9.798   3.855   6.654  0.9819 -0.9111  0.7936
  549MOL0     H72461   9.804   3.688   6.608 -0.5988 -0.1117 -1.7072
  549MOL0     H72462   9.659   3.905   6.460  1.5912  1.8092  0.8643
  549MOL0     H72463   9.654   3.727   6.413  0.7200  0.3290 -1.1895
  549MOL0     H72464   9.802   3.868   6.270 -1.3474  2.1426  0.8639
  549MOL0     H72465   9.922   3.867   6.404 -1.0131  0.3019  2.3354
  549MOL0     H72466   9.949   3.465   6.292  2.1973  0.6557  1.1275
  549MOL0     H72467   9.412   4.102   6.645  1.0761  0.4535  0.4001
  549MOL0     H72468   9.202   4.141   6.528  0.2380 -0.1618 -1.3786
  550MOL0     O72469   3.964   3.028   1.531 -0.0671  0.5651  0.2846
  550MOL0     C72470   3.940   3.150   1.509 -0.2963 -0.6723 -0.7346
  550MOL0     O72471   3.889   3.198   1.400  0.0854  0.4881 -0.0573
  550MOL0     C72472   3.837   3.120   1.299 -0.7801  0.0794 -0.2692
  550MOL0     C72473   3.704   3.135   1.264 -0.6259  0.0007 -1.0753
  550MOL0     C72474   3.637   3.077   1.161  0.3197  0.5830  0.2938
  550MOL0     C72475   3.708   2.989   1.072 -0.2906  0.4092  0.3302
  550MOL0     O72476   3.648   2.942   0.966  0.5240 -0.5421 -0.4412
  550MOL0     C72477   3.652   3.024   0.845 -0.2921 -0.7395  0.1093
  550MOL0     C72478   3.523   3.003   0.778  0.1788 -0.3845  0.1772
  550MOL0     C72479   3.503   3.063   0.638 -0.4371  0.0946 -0.7534
  550MOL0     C72480   3.397   2.993   0.550 -0.5081  0.6947  0.0518
  550MOL0     C72481   3.262   2.994   0.615  0.3786 -0.4685  1.1896
  550MOL0     C72482   3.154   2.937   0.527 -0.5425  0.0348  0.1339
  550MOL0     C72483   3.009   2.942   0.584 -0.6615 -0.4058 -0.3890
  550MOL0     C72484   2.988   2.856   0.709 -0.8526 -0.5559  1.4378
  550MOL0     N72485   2.852   2.871   0.768  0.2299 -0.8073  0.2648
  550MOL0     C72486   2.746   2.797   0.737 -0.0032 -0.0349 -0.5142
  550MOL0     C72487   2.653   2.829   0.836  0.8868  0.4753 -0.5341
  550MOL0     C72488   2.513   2.776   0.872  0.5111 -0.8668  0.1135
  550MOL0     C72489   2.517   2.630   0.914 -0.1866 -0.5428  0.5496
  550MOL0     C72490   2.379   2.568   0.906  0.5094 -0.4490  0.3173
  550MOL0     C72491   2.307   2.584   0.770  0.4298  0.5380 -0.5758
  550MOL0     O72492   2.207   2.487   0.726 -0.7719 -0.2110 -0.1145
  550MOL0     C72493   2.090   2.474   0.801 -0.7784 -0.1945  0.3308
  550MOL0     C72494   2.069   2.562   0.911  0.5002  0.7057  0.7550
  550MOL0     C72495   1.964   2.533   1.004 -0.2779  0.1546  0.7180
  550MOL0     C72496   1.858   2.450   0.965 -0.2108 -0.6583 -0.1566
  550MOL0     C72497   1.735   2.448   1.042 -0.2120  0.3093  0.3762
  550MOL0     O72498   1.625   2.377   0.992  0.0348  0.4023 -0.3814
  550MOL0     C72499   1.502   2.389   1.054  0.1525 -0.0115  0.7160
  550MOL0     C72500   1.444   2.517   1.080 -0.3334  0.1926 -0.2735
  550MOL0     C72501   1.309   2.528   1.090 -0.1226 -0.1294 -0.5271
  550MOL0     C72502   1.220   2.413   1.076  0.1249 -0.2430 -0.8141
  550MOL0     O72503   1.085   2.422   1.087 -0.5030  0.5539  0.3396
  550MOL0     C72504   1.030   2.550   1.090 -0.2874 -1.1577 -0.4529
  550MOL0     C72505   0.876   2.544   1.079 -0.5236 -0.1065  0.4887
  550MOL0     C72506   0.822   2.469   0.955  0.0279 -0.2218 -0.8484
  550MOL0     C72507   0.671   2.503   0.926 -0.5285 -0.2315  0.8934
  550MOL0     C72508   0.628   2.483   0.774  0.5789  1.0900 -0.3336
  550MOL0     C72509   0.474   2.521   0.775 -0.2171  0.2104  0.7577
  550MOL0     C72510   0.402   2.499   0.646 -0.3839 -0.7843 -0.1529
  550MOL0     C72511   0.478   2.555   0.518  0.1151 -0.1005 -0.5129
  550MOL0    Cl72512   0.552   2.713   0.544  0.2197 -0.3739 -0.0074
  550MOL0     C72513   1.278   2.292   1.051 -0.4116  0.1268 -0.3054
  550MOL0     C72514   1.416   2.277   1.040 -0.2011  0.1752 -0.0355
  550MOL0     O72515   1.725   2.520   1.140 -1.0016  0.8046 -0.0942
  550MOL0     C72516   1.879   2.362   0.856 -0.9995 -0.0155 -0.0228
  550MOL0     C72517   2.005   2.371   0.774  0.7111 -0.1195 -0.4419
  550MOL0     N72518   2.706   2.937   0.910  0.7390 -0.6943 -0.6393
  550MOL0     N72519   2.828   2.961   0.873  0.3629  0.0477  0.7798
  550MOL0     C72520   3.842   2.962   1.113  0.2140 -0.1847 -0.0516
  550MOL0     C72521   3.909   3.029   1.220  0.4542  0.9362 -0.1216
  550MOL0     C72522   3.986   3.240   1.615  0.0307 -0.5681  0.9055
  550MOL0     C72523   3.987   3.383   1.589 -0.1370  0.2125 -0.1168
  550MOL0     C72524   4.033   3.473   1.692 -0.3640 -0.2555 -0.4003
  550MOL0     C72525   4.075   3.430   1.822  0.7894 -0.0728  0.4822
  550MOL0     O72526   4.125   3.514   1.917  0.6449  0.0233  0.1725
  550MOL0     C72527   4.174   3.644   1.883 -0.3560 -0.2482 -0.1175
  550MOL0     C72528   4.254   3.711   1.992  0.0238 -0.0789  0.2084
  550MOL0     C72529   4.168   3.728   2.127 -0.4610  0.2823  1.1970
  550MOL0     C72530   4.242   3.791   2.240 -0.4602  0.4560  0.1355
  550MOL0     C72531   4.370   3.725   2.272 -0.1562  0.8098 -0.4152
  550MOL0     C72532   4.482   3.679   2.271  0.0035 -0.2000 -0.0569
  550MOL0     C72533   4.071   3.289   1.847  0.4260  0.2200  0.8141
  550MOL0     C72534   4.042   3.202   1.739  0.2280 -0.0889 -0.2713
  550MOL0     H72535   3.653   3.206   1.329  2.2570 -0.3497  1.8516
  550MOL0     H72536   3.531   3.097   1.150  0.2175  0.1105  0.4020
  550MOL0     H72537   3.742   2.996   0.788 -0.0229  1.3957 -0.6142
  550MOL0     H72538   3.665   3.131   0.863 -0.8236 -0.3429 -1.6500
  550MOL0     H72539   3.448   3.048   0.844 -2.9670 -3.0130 -1.2979
  550MOL0     H72540   3.506   2.895   0.780  2.5204 -0.7804  0.9811
  550MOL0     H72541   3.596   3.066   0.581  0.0663  3.3215  0.0105
  550MOL0     H72542   3.486   3.170   0.653 -0.1595  0.3190 -1.9695
  550MOL0     H72543   3.389   3.042   0.452 -0.0500 -1.9022 -1.3812
  550MOL0     H72544   3.434   2.892   0.529 -3.4899 -1.2817  3.3432
  550MOL0     H72545   3.234   3.100   0.620  0.4507 -0.3856  0.1033
  550MOL0     H72546   3.264   2.946   0.713  1.4466 -2.4027  0.2815
  550MOL0     H72547   3.181   2.830   0.528  1.2048  0.4430  0.1877
  550MOL0     H72548   3.161   2.981   0.428  1.2572  0.2245  0.3098
  550MOL0     H72549   2.986   3.043   0.618  0.9844 -0.0052 -0.3775
  550MOL0     H72550   2.940   2.909   0.506 -2.4009 -0.1435  0.9735
  550MOL0     H72551   3.063   2.894   0.779  0.2988 -0.9412  0.4397
  550MOL0     H72552   3.005   2.751   0.684  3.3354  0.1241  0.6672
  550MOL0     H72553   2.727   2.723   0.660 -0.5532 -2.1543  1.5332
  550MOL0     H72554   2.448   2.793   0.786  0.9574 -0.0698 -0.0712
  550MOL0     H72555   2.474   2.830   0.958  1.8162  0.1542  0.0962
  550MOL0     H72556   2.560   2.616   1.014 -1.9320 -0.3383  1.3608
  550MOL0     H72557   2.584   2.573   0.848  1.1000 -0.1595  1.4705
  550MOL0     H72558   2.390   2.462   0.931  2.4991  0.2335  2.8014
  550MOL0     H72559   2.329   2.614   0.992  1.6369 -0.2676  0.9076
  550MOL0     H72560   2.385   2.574   0.693 -1.0503 -0.4817 -2.0021
  550MOL0     H72561   2.261   2.683   0.758  0.5036  0.6400 -0.0196
  550MOL0     H72562   2.126   2.650   0.940 -1.2130  2.5614 -1.1376
  550MOL0     H72563   1.956   2.586   1.099  0.8143  0.5035  0.6220
  550MOL0     H72564   1.501   2.609   1.083  1.8198 -1.1050  0.8694
  550MOL0     H72565   1.260   2.623   1.110  1.6523  1.0592 -1.5560
  550MOL0     H72566   1.066   2.605   1.002 -0.5688  2.1600  1.3249
  550MOL0     H72567   1.053   2.611   1.178  1.3964 -0.3388 -1.4272
  550MOL0     H72568   0.860   2.652   1.071 -0.7149 -0.2748 -2.6032
  550MOL0     H72569   0.832   2.517   1.176  1.2534 -0.1708  1.3200
  550MOL0     H72570   0.824   2.363   0.982  1.1448 -0.6957 -2.6804
  550MOL0     H72571   0.887   2.481   0.868  0.4787  1.3489 -0.3265
  550MOL0     H72572   0.605   2.443   0.990 -0.2181  1.3406  2.7987
  550MOL0     H72573   0.653   2.610   0.940  0.4193 -0.0178  0.5569
  550MOL0     H72574   0.649   2.381   0.742  0.4318  0.8012  0.4560
  550MOL0     H72575   0.680   2.556   0.713  0.0443  1.3679 -0.4668
  550MOL0     H72576   0.476   2.624   0.811 -1.2218 -0.4056  2.6921
  550MOL0     H72577   0.426   2.458   0.850 -1.6791 -0.3987 -0.6325
  550MOL0     H72578   0.386   2.392   0.629 -0.3516 -0.4089 -2.9688
  550MOL0     H72579   0.307   2.552   0.648 -0.1326 -0.2898 -0.7724
  550MOL0     H72580   0.400   2.551   0.440 -2.3405 -2.4383  1.8363
  550MOL0     H72581   0.552   2.483   0.483 -0.4652 -1.0796  0.2302
  550MOL0     H72582   1.217   2.207   1.025  1.2582 -0.6659 -1.8291
  550MOL0     H72583   1.451   2.178   1.012 -1.7185 -0.7795  1.2734
  550MOL0     H72584   1.820   2.275   0.828  2.1170 -2.5448  0.6526
  550MOL0     H72585   2.031   2.290   0.706 -2.1983 -0.2982 -1.4991
  550MOL0     H72586   3.890   2.894   1.044  0.0349 -0.4132  0.0470
  550MOL0     H72587   4.012   3.006   1.244 -0.3464 -0.5919  2.3696
  550MOL0     H72588   3.946   3.414   1.493 -0.1203 -2.2289 -0.9861
  550MOL0     H72589   4.039   3.580   1.676 -0.1039  0.2243  2.4606
  550MOL0     H72590   4.089   3.707   1.857 -1.4066 -1.6286 -0.1462
  550MOL0     H72591   4.246   3.631   1.802  0.0509 -2.1639  0.4926
  550MOL0     H72592   4.343   3.651   2.012 -0.0004  0.4640  2.1489
  550MOL0     H72593   4.299   3.806   1.964 -2.6657  1.4134  0.6204
  550MOL0     H72594   4.128   3.629   2.150 -2.2434  0.6152 -0.2345
  550MOL0     H72595   4.087   3.799   2.106 -2.0790 -1.7290  0.2791
  550MOL0     H72596   4.260   3.897   2.222 -3.8222  1.6239  2.6479
  550MOL0     H72597   4.182   3.782   2.331 -2.7889  1.5482 -1.2146
  550MOL0     H72598   4.578   3.632   2.279  0.5030  0.6632 -0.8215
  550MOL0     H72599   4.101   3.255   1.946 -0.4502  0.0687  1.0308
  550MOL0     H72600   4.061   3.096   1.757  1.9324  0.2306 -0.0829
  551MOL0     O72601   4.474   0.835   8.115 -0.4506 -0.2333 -0.6788
  551MOL0     C72602   4.502   0.950   8.081  0.1115  0.4152 -0.3820
  551MOL0     O72603   4.556   0.980   7.960 -0.6177 -0.8708  0.0818
  551MOL0     C72604   4.543   0.878   7.868  0.1228  0.5064  1.3800
  551MOL0     C72605   4.435   0.896   7.769 -0.9028 -0.2578 -0.8706
  551MOL0     C72606   4.415   0.803   7.671  0.6489  0.6265 -0.3921
  551MOL0     C72607   4.502   0.690   7.664  0.3039 -0.6070  0.6541
  551MOL0     O72608   4.485   0.582   7.580  0.1032 -0.1765 -0.4603
  551MOL0     C72609   4.379   0.590   7.488 -0.4591  0.5478  0.3154
  551MOL0     C72610   4.368   0.473   7.388  0.1773 -0.0777  0.2267
  551MOL0     C72611   4.275   0.363   7.437  0.0251 -0.8668 -0.0672
  551MOL0     C72612   4.123   0.401   7.426 -0.3883 -0.4202 -0.7555
  551MOL0     C72613   4.020   0.288   7.443  1.2792 -0.4283 -0.5842
  551MOL0     C72614   3.875   0.325   7.424  0.4130  0.8924  0.4444
  551MOL0     C72615   3.824   0.439   7.516  0.0388 -0.2001  0.3552
  551MOL0     C72616   3.796   0.401   7.657 -1.1496  0.7665  0.5307
  551MOL0     N72617   3.744   0.264   7.677  0.5583 -0.0359  0.3022
  551MOL0     C72618   3.611   0.224   7.679  0.2177 -0.3694 -0.4473
  551MOL0     C72619   3.613   0.089   7.688  0.8765  0.9981  0.5977
  551MOL0     C72620   3.499  -0.001   7.683  0.1064 -0.4104 -0.5511
  551MOL0     C72621   3.424   0.006   7.814  1.2265 -0.5682 -0.2220
  551MOL0     C72622   3.277  -0.042   7.804  0.9212 -0.0901  0.9097
  551MOL0     C72623   3.194  -0.028   7.939 -0.1894  0.2751  0.1729
  551MOL0     O72624   3.146   0.100   7.963  0.5168 -0.2364  0.2421
  551MOL0     C72625   3.021   0.126   7.905 -0.0569  0.2339 -0.3812
  551MOL0     C72626   2.952   0.052   7.813  0.6749 -0.3867  0.1266
  551MOL0     C72627   2.825   0.099   7.773 -0.4716 -0.1196  0.8569
  551MOL0     C72628   2.761   0.215   7.825 -0.0366 -0.0925 -0.5730
  551MOL0     C72629   2.615   0.237   7.795  0.2345 -1.0530 -0.5481
  551MOL0     O72630   2.537   0.300   7.895  0.3196  0.4472 -0.0980
  551MOL0     C72631   2.403   0.306   7.867  0.2566  1.0444 -0.1785
  551MOL0     C72632   2.324   0.184   7.867 -0.1975  0.0446  0.9425
  551MOL0     C72633   2.184   0.194   7.863  0.9779  0.9448 -0.0407
  551MOL0     C72634   2.115   0.319   7.856 -0.2179 -0.3856 -0.9236
  551MOL0     O72635   1.979   0.346   7.839 -0.1893  0.3465  0.0710
  551MOL0     C72636   1.887   0.240   7.806 -0.0510 -0.2392 -0.7246
  551MOL0     C72637   1.737   0.296   7.834 -0.0403 -0.6772  0.6802
  551MOL0     C72638   1.642   0.177   7.798  0.2599  0.5791  0.6967
  551MOL0     C72639   1.646   0.138   7.651  0.0689  0.3571  0.9105
  551MOL0     C72640   1.612  -0.019   7.652 -1.0126  0.3027 -0.1433
  551MOL0     C72641   1.740  -0.103   7.663 -0.3178 -0.6437 -0.0925
  551MOL0     C72642   1.730  -0.251   7.654 -0.0881  0.1325 -0.2766
  551MOL0     C72643   1.666  -0.310   7.531  0.0306  0.6930  0.3516
  551MOL0    Cl72644   1.704  -0.487   7.540  0.3888  0.2779 -0.1556
  551MOL0     C72645   2.201   0.438   7.854 -0.6490 -0.0091  0.3905
  551MOL0     C72646   2.340   0.428   7.866  0.7662 -0.3490 -0.3381
  551MOL0     O72647   2.568   0.195   7.691 -0.3207 -0.6711 -0.2025
  551MOL0     C72648   2.832   0.279   7.926  0.2344  0.0031  0.0930
  551MOL0     C72649   2.961   0.239   7.965  0.0250 -0.2127  0.3819
  551MOL0     N72650   3.742   0.043   7.687  0.2888  0.3278  0.1943
  551MOL0     N72651   3.820   0.149   7.691  0.5161  0.4914  0.4329
  551MOL0     C72652   4.608   0.681   7.755  0.4106 -0.6908 -0.6481
  551MOL0     C72653   4.634   0.770   7.856 -0.2888 -0.3167  0.2886
  551MOL0     C72654   4.517   1.064   8.180  0.5586  0.0097 -0.2696
  551MOL0     C72655   4.527   1.197   8.137  0.4349 -1.3379  0.0072
  551MOL0     C72656   4.551   1.296   8.234 -0.0327  0.6011 -0.7669
  551MOL0     C72657   4.563   1.269   8.371  0.0613  0.6669 -0.1988
  551MOL0     O72658   4.585   1.381   8.450 -0.2902 -0.7698  0.4658
  551MOL0     C72659   4.605   1.371   8.588 -0.4999  0.4149 -0.8735
  551MOL0     C72660   4.611   1.513   8.643  0.4303  0.0346 -0.3713
  551MOL0     C72661   4.749   1.568   8.597 -0.1435  0.2992  0.1938
  551MOL0     C72662   4.788   1.693   8.680  0.5762  0.3021 -0.5221
  551MOL0     C72663   4.911   1.755   8.633 -0.3409  0.0271  0.0245
  551MOL0     C72664   5.019   1.805   8.596  0.1025  0.3649  0.0302
  551MOL0     C72665   4.549   1.140   8.417 -0.0815 -0.4468  0.0874
  551MOL0     C72666   4.537   1.032   8.321 -0.7357 -1.0118 -0.2494
  551MOL0     H72667   4.371   0.984   7.774 -0.5078  0.0408 -0.9367
  551MOL0     H72668   4.335   0.822   7.600  1.4273 -0.5133 -1.6312
  551MOL0     H72669   4.395   0.677   7.423 -1.8341  1.9664  1.7970
  551MOL0     H72670   4.281   0.609   7.531 -0.5793 -2.7950  1.7640
  551MOL0     H72671   4.464   0.424   7.367  0.0749 -0.5971  0.9127
  551MOL0     H72672   4.321   0.507   7.296 -0.0274 -0.2608  0.2644
  551MOL0     H72673   4.304   0.343   7.541  0.4075  1.9354  0.4295
  551MOL0     H72674   4.290   0.269   7.384 -0.6675 -1.5679  0.9299
  551MOL0     H72675   4.104   0.459   7.517  0.3310 -0.3584 -0.6336
  551MOL0     H72676   4.095   0.462   7.340 -2.0213  1.0002  0.6974
  551MOL0     H72677   4.035   0.251   7.545  1.9214  2.5440  0.5132
  551MOL0     H72678   4.050   0.212   7.371  1.3463 -1.5941  0.6316
  551MOL0     H72679   3.811   0.237   7.430  0.3209  0.9735  0.6490
  551MOL0     H72680   3.867   0.357   7.319 -0.0772  1.7860  0.7428
  551MOL0     H72681   3.900   0.517   7.526  1.8309 -1.8826  0.4874
  551MOL0     H72682   3.735   0.485   7.472 -0.7088 -0.0407  1.9527
  551MOL0     H72683   3.735   0.482   7.699 -2.4559 -0.8042  1.8204
  551MOL0     H72684   3.886   0.394   7.718  0.4322  0.1556 -1.7631
  551MOL0     H72685   3.516   0.275   7.694  0.3400 -0.6002  1.3040
  551MOL0     H72686   3.521  -0.103   7.652 -0.1134 -0.3147 -1.0307
  551MOL0     H72687   3.436   0.052   7.611 -1.6539  1.0483  1.8865
  551MOL0     H72688   3.420   0.110   7.847 -5.7342 -0.9063  1.6624
  551MOL0     H72689   3.473  -0.055   7.890  0.7484  1.6531  1.9972
  551MOL0     H72690   3.231   0.014   7.722  1.9953 -0.4311  0.0387
  551MOL0     H72691   3.271  -0.144   7.764  1.6669 -0.0003  0.5468
  551MOL0     H72692   3.266  -0.047   8.019 -0.8953 -1.7329  0.3926
  551MOL0     H72693   3.125  -0.112   7.953 -1.2587  1.0152 -0.5087
  551MOL0     H72694   2.984  -0.041   7.767 -0.1709 -0.4850 -0.2866
  551MOL0     H72695   2.764   0.033   7.712  0.8738 -2.4492  1.8731
  551MOL0     H72696   2.371   0.088   7.884  1.1813  0.7778  1.4085
  551MOL0     H72697   2.131   0.099   7.867  1.6092  0.6235  1.3258
  551MOL0     H72698   1.892   0.154   7.873 -0.3128  0.3132  0.0234
  551MOL0     H72699   1.909   0.201   7.706 -0.0529 -0.3475 -0.6826
  551MOL0     H72700   1.725   0.388   7.776  0.4520 -0.9891  0.0739
  551MOL0     H72701   1.730   0.324   7.939  0.3730  0.2758  0.4604
  551MOL0     H72702   1.541   0.210   7.823  0.5184  3.0249 -1.0932
  551MOL0     H72703   1.683   0.105   7.869  1.6978  1.8414  1.2189
  551MOL0     H72704   1.558   0.184   7.605 -2.0529 -3.4860  0.6246
  551MOL0     H72705   1.737   0.156   7.594 -1.6893  0.1882 -2.1995
  551MOL0     H72706   1.575  -0.042   7.551 -2.9510  3.2803 -0.2320
  551MOL0     H72707   1.542  -0.037   7.733 -2.2277 -1.5661 -1.5312
  551MOL0     H72708   1.787  -0.089   7.760 -2.1693 -0.3985  0.8071
  551MOL0     H72709   1.808  -0.077   7.581  0.0719 -4.4769 -1.1904
  551MOL0     H72710   1.833  -0.286   7.665 -1.0467 -2.2953  2.2617
  551MOL0     H72711   1.673  -0.298   7.735  0.2095 -2.5387 -1.5302
  551MOL0     H72712   1.712  -0.270   7.440  2.4882 -2.6521 -0.0855
  551MOL0     H72713   1.558  -0.306   7.515  0.1145  2.0915 -0.0319
  551MOL0     H72714   2.169   0.541   7.843  3.8711  1.8551  2.0224
  551MOL0     H72715   2.390   0.523   7.884  3.1060 -1.8895  2.0958
  551MOL0     H72716   2.792   0.373   7.964 -0.7745  0.2926 -1.5427
  551MOL0     H72717   3.018   0.304   8.031  1.1020 -0.7312 -0.0141
  551MOL0     H72718   4.679   0.599   7.742 -0.8894 -1.7447 -1.3529
  551MOL0     H72719   4.722   0.755   7.918 -1.6886  0.2444  2.5353
  551MOL0     H72720   4.497   1.222   8.036  1.4602  0.0897  0.0214
  551MOL0     H72721   4.532   1.401   8.217 -0.1036  1.0160  1.6055
  551MOL0     H72722   4.700   1.319   8.605 -0.4118 -1.1564 -5.1010
  551MOL0     H72723   4.525   1.316   8.638 -0.6214 -1.2965 -2.7986
  551MOL0     H72724   4.519   1.565   8.618  0.8243  1.8594  1.6656
  551MOL0     H72725   4.613   1.515   8.752 -2.4585 -0.6496 -0.2299
  551MOL0     H72726   4.745   1.599   8.493  2.5021  0.9542  0.2194
  551MOL0     H72727   4.829   1.494   8.603  2.0015  2.5367  1.2596
  551MOL0     H72728   4.716   1.774   8.664  0.0963  0.0591  0.3132
  551MOL0     H72729   4.782   1.674   8.788 -3.8180  3.3704  0.0571
  551MOL0     H72730   5.114   1.844   8.564  0.0589 -1.4392 -2.6502
  551MOL0     H72731   4.556   1.123   8.524 -1.4794 -0.7114  0.1570
  551MOL0     H72732   4.536   0.927   8.348 -0.8060 -1.0754 -0.4938
  552MOL0     O72733   6.916   0.518   3.689  0.4823  0.2252  0.4889
  552MOL0     C72734   6.921   0.407   3.744 -0.3476 -0.7473  0.4118
  552MOL0     O72735   6.828   0.361   3.832 -0.1462  0.0158 -0.4607
  552MOL0     C72736   6.719   0.437   3.859  0.0380  0.1615  0.4234
  552MOL0     C72737   6.729   0.517   3.980  0.0821 -0.3442 -1.0420
  552MOL0     C72738   6.622   0.601   4.009 -1.6874  1.0885  0.1628
  552MOL0     C72739   6.501   0.598   3.938 -0.1483 -0.7050  0.1041
  552MOL0     O72740   6.397   0.676   3.992  0.3949  0.5756 -0.1882
  552MOL0     C72741   6.260   0.672   3.936  0.2576 -0.4059  0.2497
  552MOL0     C72742   6.168   0.757   4.017  0.0946 -0.4464 -0.2333
  552MOL0     C72743   6.017   0.727   4.003  0.1622  0.3466  0.5518
  552MOL0     C72744   5.976   0.618   4.103 -0.7134  0.6655  0.9854
  552MOL0     C72745   5.837   0.577   4.059  0.4557  0.1460  0.6713
  552MOL0     C72746   5.761   0.491   4.156 -0.1144 -0.4031  0.1911
  552MOL0     C72747   5.639   0.433   4.092 -0.4054 -0.0392  0.6748
  552MOL0     C72748   5.546   0.348   4.191  0.0838  0.1656  0.1850
  552MOL0     N72749   5.439   0.301   4.103 -0.8977 -0.8793 -0.2722
  552MOL0     C72750   5.442   0.205   4.000 -0.4515 -0.5446  0.6641
  552MOL0     C72751   5.314   0.187   3.975  0.7756  0.0053  0.0940
  552MOL0     C72752   5.264   0.071   3.897 -0.8779 -0.1214 -0.4641
  552MOL0     C72753   5.326   0.062   3.756 -0.5006 -0.0367  0.2280
  552MOL0     C72754   5.277  -0.061   3.685 -0.5307 -0.2147  0.2604
  552MOL0     C72755   5.348  -0.097   3.549 -0.0100 -0.0237 -1.0478
  552MOL0     O72756   5.477  -0.143   3.580  0.2194 -0.3705 -0.1748
  552MOL0     C72757   5.575  -0.131   3.475  1.1564  0.0031 -0.3303
  552MOL0     C72758   5.693  -0.060   3.495  0.0600  0.2965 -0.1064
  552MOL0     C72759   5.782  -0.049   3.394  0.8997 -0.2678  0.0243
  552MOL0     C72760   5.760  -0.116   3.269  0.3743  0.3838  0.1000
  552MOL0     C72761   5.851  -0.096   3.157 -0.6056  0.5359  0.1612
  552MOL0     O72762   5.984  -0.086   3.201  0.6418 -0.0962 -0.3420
  552MOL0     C72763   6.074  -0.073   3.096  0.6025  0.3078 -0.4508
  552MOL0     C72764   6.136   0.046   3.055 -0.0839 -0.1853  0.0692
  552MOL0     C72765   6.216   0.049   2.937 -0.0142 -0.0004 -1.2407
  552MOL0     C72766   6.263  -0.066   2.878  0.3253  0.8904 -0.1341
  552MOL0     O72767   6.360  -0.055   2.785 -0.0449  0.1544 -0.1396
  552MOL0     C72768   6.444  -0.177   2.780 -0.3425 -0.9062  0.2140
  552MOL0     C72769   6.573  -0.121   2.724  0.1748 -0.2983 -0.3538
  552MOL0     C72770   6.635  -0.210   2.623 -0.1967 -0.3943  0.1012
  552MOL0     C72771   6.775  -0.159   2.587  0.3704 -0.6229 -0.6584
  552MOL0     C72772   6.860  -0.244   2.488 -0.4673 -0.0899  0.2752
  552MOL0     C72773   6.817  -0.211   2.346 -0.1109  0.0024  0.3972
  552MOL0     C72774   6.917  -0.254   2.237  0.7887  0.2386 -0.3084
  552MOL0     C72775   6.899  -0.405   2.202  0.5083  0.0731 -0.0944
  552MOL0    Cl72776   7.010  -0.464   2.079 -0.1499 -0.2496 -0.4109
  552MOL0     C72777   6.203  -0.186   2.912  0.2996  0.8804 -0.3973
  552MOL0     C72778   6.110  -0.193   3.023  0.6357 -1.1554 -0.6430
  552MOL0     O72779   5.812  -0.104   3.037 -0.5004  0.0822  0.1152
  552MOL0     C72780   5.645  -0.190   3.242  0.4342 -0.9724 -0.7897
  552MOL0     C72781   5.551  -0.193   3.350 -0.4063 -0.9449 -0.0849
  552MOL0     N72782   5.239   0.273   4.054 -0.0521 -0.1723 -0.0939
  552MOL0     N72783   5.316   0.333   4.133  0.1962  0.3891 -0.1591
  552MOL0     C72784   6.493   0.521   3.820 -0.9284  0.6561  0.5807
  552MOL0     C72785   6.608   0.444   3.781 -0.0401  0.3765 -0.1062
  552MOL0     C72786   7.022   0.312   3.696 -0.3488  0.8622  0.4120
  552MOL0     C72787   7.017   0.176   3.733 -0.2393  0.5617 -0.7455
  552MOL0     C72788   7.111   0.075   3.684 -1.2067 -0.9154  1.0532
  552MOL0     C72789   7.223   0.125   3.616  0.6348  0.6537 -0.0632
  552MOL0     O72790   7.314   0.028   3.578 -0.0829  0.3692 -0.3437
  552MOL0     C72791   7.439   0.057   3.509  0.5577  1.2420 -0.2775
  552MOL0     C72792   7.539  -0.061   3.512  1.4172  0.0992 -0.4329
  552MOL0     C72793   7.652  -0.064   3.404  0.2336  0.3842  0.6176
  552MOL0     C72794   7.758   0.042   3.428  0.1687 -0.1372  0.3813
  552MOL0     C72795   7.877   0.003   3.349  0.7148  0.9573  0.8862
  552MOL0     C72796   7.981  -0.017   3.280  1.0821  0.1437 -0.5648
  552MOL0     C72797   7.227   0.267   3.575 -1.2189  0.2598  0.2019
  552MOL0     C72798   7.129   0.360   3.610  0.9723  0.0389  0.9882
  552MOL0     H72799   6.813   0.508   4.047 -1.5854  3.5167  1.9328
  552MOL0     H72800   6.635   0.661   4.099  0.9679  3.2591 -1.4861
  552MOL0     H72801   6.221   0.570   3.927  0.1577 -0.4527  1.1409
  552MOL0     H72802   6.260   0.729   3.843 -3.3281 -0.2650  0.1910
  552MOL0     H72803   6.177   0.863   3.995 -3.0294  0.1533  0.8331
  552MOL0     H72804   6.206   0.749   4.120 -0.3678  0.1824 -0.0076
  552MOL0     H72805   6.003   0.709   3.896  1.1887  2.7489 -0.0624
  552MOL0     H72806   5.963   0.821   4.019  0.9020  0.9018 -0.1180
  552MOL0     H72807   6.051   0.541   4.083 -1.8272 -0.2186  0.0706
  552MOL0     H72808   5.973   0.655   4.206 -2.8834  1.9305  0.5256
  552MOL0     H72809   5.849   0.512   3.971  2.7962 -1.4245  2.0307
  552MOL0     H72810   5.766   0.657   4.038 -2.4161 -2.3917  0.0894
  552MOL0     H72811   5.739   0.552   4.244 -0.7192 -0.2690 -0.0536
  552MOL0     H72812   5.833   0.415   4.189  1.3817  2.3337  4.0983
  552MOL0     H72813   5.583   0.516   4.050  2.4652  2.9935  2.3969
  552MOL0     H72814   5.671   0.370   4.008 -0.5517  1.4462 -0.5275
  552MOL0     H72815   5.509   0.386   4.286 -2.1981  0.0305 -0.5671
  552MOL0     H72816   5.600   0.258   4.224  0.3862  0.8654  1.6583
  552MOL0     H72817   5.532   0.164   3.955 -0.5239  0.9732 -1.0020
  552MOL0     H72818   5.157   0.087   3.882 -0.7585  0.6913 -0.4665
  552MOL0     H72819   5.283  -0.027   3.942 -2.8753 -0.1517  0.4184
  552MOL0     H72820   5.435   0.059   3.755 -0.5058 -0.2181 -0.6273
  552MOL0     H72821   5.291   0.152   3.704 -0.4427 -1.0692 -1.7217
  552MOL0     H72822   5.305  -0.141   3.754  2.6094  0.6058  0.1344
  552MOL0     H72823   5.171  -0.049   3.664 -0.5646 -0.9742 -0.0113
  552MOL0     H72824   5.347  -0.015   3.477  1.1096  1.0637  0.1388
  552MOL0     H72825   5.305  -0.191   3.511 -2.3200  1.0623 -1.2634
  552MOL0     H72826   5.702  -0.016   3.594 -1.6185 -0.2825  0.3407
  552MOL0     H72827   5.868   0.017   3.399  0.9548 -0.0239 -2.4936
  552MOL0     H72828   6.126   0.138   3.111  2.9230  0.7888 -0.8290
  552MOL0     H72829   6.256   0.147   2.913  1.0972  0.0341  0.5293
  552MOL0     H72830   6.394  -0.248   2.713  0.0243  1.6747 -3.0989
  552MOL0     H72831   6.471  -0.225   2.874 -0.7492 -3.0629 -0.7294
  552MOL0     H72832   6.641  -0.093   2.805  0.7676 -2.5372 -0.0387
  552MOL0     H72833   6.565  -0.023   2.675  0.0255  1.0249  2.1302
  552MOL0     H72834   6.571  -0.214   2.534 -1.5108  1.7770  0.8739
  552MOL0     H72835   6.646  -0.309   2.668 -1.4340  0.3980  2.3013
  552MOL0     H72836   6.765  -0.065   2.532  1.2234 -0.2317 -0.1596
  552MOL0     H72837   6.840  -0.142   2.673  1.1129  2.0797 -1.6552
  552MOL0     H72838   6.851  -0.351   2.507  0.7413 -0.0919  0.9866
  552MOL0     H72839   6.967  -0.225   2.501 -0.9598  1.7115  2.3752
  552MOL0     H72840   6.814  -0.102   2.330  1.4739  0.0141 -0.0410
  552MOL0     H72841   6.720  -0.253   2.318  0.4578 -0.9511 -0.1997
  552MOL0     H72842   6.902  -0.193   2.148  3.0660 -0.3674 -1.1766
  552MOL0     H72843   7.021  -0.244   2.271  1.3781 -1.9634 -1.2541
  552MOL0     H72844   6.796  -0.416   2.167 -0.4684  4.5307  0.7428
  552MOL0     H72845   6.920  -0.461   2.294  1.7759  2.3280  1.0706
  552MOL0     H72846   6.239  -0.281   2.872 -0.3758 -1.5695  4.1366
  552MOL0     H72847   6.063  -0.285   3.058 -0.6530 -0.7905 -1.3384
  552MOL0     H72848   5.627  -0.243   3.149  0.0412 -3.8266  0.7986
  552MOL0     H72849   5.457  -0.245   3.338  0.2831 -2.0118 -0.9447
  552MOL0     H72850   6.403   0.528   3.759 -0.1501  1.5870 -0.5023
  552MOL0     H72851   6.607   0.383   3.691  0.0979 -0.5690  0.5236
  552MOL0     H72852   6.935   0.140   3.794 -0.4518  2.2013 -0.0182
  552MOL0     H72853   7.107  -0.033   3.696  0.6638 -1.1548 -0.1377
  552MOL0     H72854   7.492   0.145   3.547  0.4988  0.8420  0.7486
  552MOL0     H72855   7.396   0.084   3.412 -4.4410  2.8483  2.0148
  552MOL0     H72856   7.579  -0.082   3.612  0.4403  1.3192  0.2434
  552MOL0     H72857   7.488  -0.152   3.481  3.5386 -0.8810 -1.2887
  552MOL0     H72858   7.603  -0.063   3.307  0.8342  0.5725  0.3113
  552MOL0     H72859   7.693  -0.165   3.416  0.5169  0.3811 -0.2921
  552MOL0     H72860   7.721   0.141   3.400 -1.3484 -0.3191  1.6558
  552MOL0     H72861   7.804   0.045   3.527 -0.3390 -0.4217  0.6276
  552MOL0     H72862   8.067  -0.033   3.218  1.1063 -0.6060 -0.3436
  552MOL0     H72863   7.299   0.299   3.501 -0.1948 -0.3624  0.8935
  552MOL0     H72864   7.132   0.464   3.580 -0.1068  0.4329  2.1739
  553MOL0     O72865   7.494   0.098   5.553  0.0108  0.5039 -0.6428
  553MOL0     C72866   7.486   0.209   5.605  0.3156  0.2879  0.0444
  553MOL0     O72867   7.389   0.300   5.587 -0.2421 -0.8640 -0.5508
  553MOL0     C72868   7.284   0.256   5.515 -0.6862  0.5916  0.4018
  553MOL0     C72869   7.291   0.217   5.378  0.2169  0.9938 -0.5424
  553MOL0     C72870   7.176   0.178   5.305 -0.1754 -0.3529  0.1523
  553MOL0     C72871   7.048   0.178   5.371 -0.5840  0.4461 -0.7580
  553MOL0     O72872   6.945   0.166   5.295 -0.3766  0.7018  0.5160
  553MOL0     C72873   6.916   0.273   5.198  0.7224  0.2947  0.1655
  553MOL0     C72874   6.767   0.306   5.218 -0.2970  0.2101  0.1456
  553MOL0     C72875   6.717   0.414   5.126  0.2598  0.7376  0.1557
  553MOL0     C72876   6.578   0.456   5.154 -0.8378 -0.5863  0.0835
  553MOL0     C72877   6.569   0.597   5.213  0.4271 -0.6918 -0.3389
  553MOL0     C72878   6.423   0.650   5.241 -0.1808  0.0903 -0.1925
  553MOL0     C72879   6.433   0.798   5.286 -0.0597 -0.3554  0.5825
  553MOL0     C72880   6.290   0.872   5.282  0.3071 -0.0596  0.2327
  553MOL0     N72881   6.186   0.800   5.363 -0.6408 -0.0929 -1.0573
  553MOL0     C72882   6.143   0.822   5.489 -0.3630  0.2497 -1.1901
  553MOL0     C72883   6.031   0.746   5.508  0.2283  0.1895 -0.1398
  553MOL0     C72884   5.972   0.728   5.642  0.0734  0.2933 -0.7971
  553MOL0     C72885   5.827   0.767   5.632 -1.0320 -0.3609  0.5705
  553MOL0     C72886   5.742   0.685   5.544 -0.1441 -0.2132  1.2125
  553MOL0     C72887   5.592   0.718   5.556  0.4961  0.4177  0.7957
  553MOL0     O72888   5.531   0.659   5.674  0.3190  0.3093  0.1181
  553MOL0     C72889   5.417   0.714   5.731 -1.5132 -0.0167  0.0333
  553MOL0     C72890   5.326   0.791   5.663 -0.0508 -0.3892 -1.0014
  553MOL0     C72891   5.210   0.829   5.722 -0.0961  0.7983 -0.2706
  553MOL0     C72892   5.166   0.777   5.847  0.3905  0.5738 -0.2172
  553MOL0     C72893   5.033   0.815   5.904 -0.6091  0.3934 -0.8965
  553MOL0     O72894   4.997   0.761   6.028  0.1742 -0.4926 -0.3802
  553MOL0     C72895   4.873   0.792   6.086  0.1069 -0.5292 -1.0283
  553MOL0     C72896   4.754   0.790   6.011 -0.0938  0.1697 -0.2173
  553MOL0     C72897   4.632   0.795   6.076  0.7523  0.2610  0.2026
  553MOL0     C72898   4.618   0.803   6.213  0.9724  0.6561 -0.9825
  553MOL0     O72899   4.499   0.792   6.286 -0.9688  0.0670  0.5498
  553MOL0     C72900   4.386   0.796   6.203  0.1922  0.1764  0.3202
  553MOL0     C72901   4.258   0.770   6.284  0.2541  0.2117 -0.4763
  553MOL0     C72902   4.145   0.778   6.184  0.7434 -0.2716 -0.5182
  553MOL0     C72903   4.017   0.742   6.253 -0.6815  0.4166  0.1574
  553MOL0     C72904   3.879   0.770   6.187 -0.0656  0.8635 -0.3238
  553MOL0     C72905   3.855   0.912   6.143  0.4659 -0.3156  0.4774
  553MOL0     C72906   3.710   0.922   6.091 -0.6558  0.4932 -0.7324
  553MOL0     C72907   3.697   1.031   5.982  0.3118  1.0928 -0.9830
  553MOL0    Cl72908   3.526   1.019   5.914 -0.2553 -0.0469 -0.2456
  553MOL0     C72909   4.732   0.790   6.291 -0.6132  0.3461 -0.8204
  553MOL0     C72910   4.854   0.785   6.224 -0.8396  0.0007  1.2210
  553MOL0     O72911   4.970   0.900   5.841  0.0332  0.2484  0.4419
  553MOL0     C72912   5.256   0.700   5.915 -0.5092 -0.4096  0.0083
  553MOL0     C72913   5.379   0.668   5.856 -0.5071 -0.7649 -0.4907
  553MOL0     N72914   6.000   0.677   5.391 -0.1020  0.1037  0.7027
  553MOL0     N72915   6.093   0.715   5.305  0.1487 -0.4249  0.1930
  553MOL0     C72916   7.040   0.216   5.507 -0.4175 -0.1495 -1.1177
  553MOL0     C72917   7.161   0.268   5.574 -0.3503  0.4369  0.9738
  553MOL0     C72918   7.614   0.257   5.672 -0.4247  0.4571  0.8916
  553MOL0     C72919   7.634   0.398   5.703  0.5049  0.1171  0.1078
  553MOL0     C72920   7.742   0.437   5.766 -1.4283  0.1450 -0.1346
  553MOL0     C72921   7.842   0.343   5.803 -0.4035 -0.1666  0.0599
  553MOL0     O72922   7.942   0.377   5.892  0.4111 -0.3980 -0.0418
  553MOL0     C72923   7.975   0.523   5.904  0.7273 -0.5119 -0.3722
  553MOL0     C72924   8.125   0.529   5.966 -0.8845 -0.6332 -0.2685
  553MOL0     C72925   8.149   0.484   6.109  0.2233  0.4770 -0.0412
  553MOL0     C72926   8.302   0.495   6.138 -0.2589  0.6240 -0.5670
  553MOL0     C72927   8.334   0.638   6.169  0.2772  0.2157  0.2320
  553MOL0     C72928   8.332   0.764   6.186 -0.9135 -0.0928  0.2341
  553MOL0     C72929   7.826   0.211   5.761  0.3435 -0.4154 -0.4376
  553MOL0     C72930   7.721   0.166   5.687 -0.2584 -1.3854  0.4591
  553MOL0     H72931   7.380   0.206   5.318  1.8872 -0.9642  2.1235
  553MOL0     H72932   7.173   0.135   5.206  0.1592  1.1647 -0.5469
  553MOL0     H72933   6.926   0.235   5.095 -3.6167 -1.1730  0.0888
  553MOL0     H72934   6.971   0.365   5.218  0.9823 -0.5959  4.3717
  553MOL0     H72935   6.748   0.333   5.322  0.6571  0.0178  0.3787
  553MOL0     H72936   6.709   0.218   5.189 -0.5547  0.1298  0.8968
  553MOL0     H72937   6.718   0.382   5.021 -2.4749  0.8179  0.0319
  553MOL0     H72938   6.798   0.488   5.132 -0.2845  1.3391  0.1386
  553MOL0     H72939   6.523   0.447   5.060 -2.6663  2.2892  0.7321
  553MOL0     H72940   6.527   0.383   5.217  0.6157 -1.7635 -0.0630
  553MOL0     H72941   6.626   0.657   5.142 -2.0535  1.7355 -0.4218
  553MOL0     H72942   6.625   0.595   5.308  0.7574  1.4614 -0.4310
  553MOL0     H72943   6.370   0.606   5.326  0.8015  1.1951  1.0286
  553MOL0     H72944   6.370   0.646   5.146 -3.1289  3.9145  1.0303
  553MOL0     H72945   6.474   0.800   5.388 -1.2122 -3.4059  1.2235
  553MOL0     H72946   6.500   0.857   5.222 -0.8850 -1.4044 -1.3281
  553MOL0     H72947   6.249   0.887   5.182  0.7652 -0.0863  0.0380
  553MOL0     H72948   6.296   0.971   5.328  1.9618 -1.7917  4.2092
  553MOL0     H72949   6.186   0.887   5.564  0.0317 -2.2647  0.8787
  553MOL0     H72950   6.029   0.780   5.719  0.4213  1.3209 -1.7257
  553MOL0     H72951   5.991   0.623   5.668  2.7391  1.0094  0.4503
  553MOL0     H72952   5.814   0.871   5.602 -3.3005  0.3686  3.5832
  553MOL0     H72953   5.787   0.770   5.734  1.0557  0.4619  1.4281
  553MOL0     H72954   5.763   0.713   5.440 -3.1730 -0.1764  0.5342
  553MOL0     H72955   5.758   0.578   5.565  2.8692  0.1969  1.5066
  553MOL0     H72956   5.547   0.681   5.463  1.1045  3.6418 -0.9176
  553MOL0     H72957   5.573   0.825   5.546 -4.7876 -0.3320 -0.0985
  553MOL0     H72958   5.352   0.811   5.560 -1.1318 -2.2027 -1.6695
  553MOL0     H72959   5.141   0.895   5.671  0.8600  0.9501 -1.3917
  553MOL0     H72960   4.757   0.788   5.903  0.5245  1.0552 -0.2248
  553MOL0     H72961   4.552   0.797   6.002 -1.1679 -0.8171  2.1233
  553MOL0     H72962   4.400   0.709   6.140  2.6219  0.5590  0.2266
  553MOL0     H72963   4.373   0.887   6.144 -0.3258  0.1862  0.4479
  553MOL0     H72964   4.240   0.855   6.351 -0.9267 -0.7472  0.4566
  553MOL0     H72965   4.262   0.676   6.340 -0.6587  0.3149 -0.2287
  553MOL0     H72966   4.158   0.709   6.100 -1.3857 -0.5474 -0.6780
  553MOL0     H72967   4.147   0.879   6.143 -1.6927 -0.1357 -0.4106
  553MOL0     H72968   4.024   0.634   6.271 -0.0402  0.3652 -0.3816
  553MOL0     H72969   4.014   0.791   6.351 -1.5474 -2.0030  1.4271
  553MOL0     H72970   3.794   0.750   6.252  1.1599 -0.9917  0.8298
  553MOL0     H72971   3.883   0.710   6.095 -0.1625 -0.1598  0.3215
  553MOL0     H72972   3.932   0.934   6.069  0.8669  2.6925  1.6643
  553MOL0     H72973   3.866   0.982   6.226  2.7027 -2.1751  1.8854
  553MOL0     H72974   3.670   0.824   6.065 -0.6220  1.2308 -3.9043
  553MOL0     H72975   3.656   0.956   6.180 -0.0785 -1.7169  0.5449
  553MOL0     H72976   3.764   1.007   5.899 -0.4110 -2.2032 -0.7665
  553MOL0     H72977   3.713   1.128   6.029  2.3582  0.2419  0.2202
  553MOL0     H72978   4.727   0.802   6.398  0.2116  2.7469 -0.9748
  553MOL0     H72979   4.950   0.803   6.271 -1.2115  3.4212  0.8981
  553MOL0     H72980   5.222   0.657   6.009  1.6751  1.2579  1.6467
  553MOL0     H72981   5.441   0.602   5.916 -1.3131 -0.5141  0.6610
  553MOL0     H72982   6.943   0.218   5.555  0.3189 -0.9985  0.4757
  553MOL0     H72983   7.147   0.319   5.669  3.0901  0.0448  1.8106
  553MOL0     H72984   7.558   0.468   5.670 -1.9331 -1.3685  2.2086
  553MOL0     H72985   7.755   0.543   5.790  1.8563 -0.5220  1.5912
  553MOL0     H72986   7.901   0.572   5.969  1.0297 -1.4709  0.7366
  553MOL0     H72987   7.972   0.571   5.806 -0.1093  1.2630  0.4722
  553MOL0     H72988   8.185   0.466   5.900  0.2676  0.0939  0.0338
  553MOL0     H72989   8.160   0.633   5.955 -0.9548 -0.6722 -0.8882
  553MOL0     H72990   8.098   0.389   6.130  1.6322  0.3868  3.7080
  553MOL0     H72991   8.095   0.552   6.176 -2.0151 -0.7084 -0.5352
  553MOL0     H72992   8.341   0.431   6.217 -0.5594  1.6887  0.4883
  553MOL0     H72993   8.363   0.465   6.053  0.9357 -2.4912  1.2186
  553MOL0     H72994   8.329   0.871   6.187 -1.0868 -0.0443 -1.9011
  553MOL0     H72995   7.905   0.144   5.794  0.1863  0.1115  1.1204
  553MOL0     H72996   7.731   0.060   5.667  1.4934 -1.8503  3.2775
  554MOL0     O72997   0.875   8.914   1.630 -0.5526  0.2764 -0.4575
  554MOL0     C72998   0.859   9.018   1.694  0.2599  0.6323 -0.0956
  554MOL0     O72999   0.749   9.101   1.698  0.0259 -0.0382 -0.1331
  554MOL0     C73000   0.651   9.082   1.606 -0.1023 -0.4283  0.1781
  554MOL0     C73001   0.670   9.118   1.473  0.1917  0.9484 -0.3020
  554MOL0     C73002   0.578   9.074   1.381  0.6544  0.0794 -0.5796
  554MOL0     C73003   0.463   8.999   1.409 -0.8496 -0.4729 -0.6432
  554MOL0     O73004   0.369   8.968   1.308  0.0334  0.3360 -0.5625
  554MOL0     C73005   0.373   8.854   1.226 -0.4011 -0.3329 -0.2084
  554MOL0     C73006   0.313   8.884   1.091 -0.4089  0.8657 -0.3373
  554MOL0     C73007   0.157   8.883   1.114  1.5440  0.9497  0.0718
  554MOL0     C73008   0.091   8.919   0.981  0.0194 -0.8845 -0.5022
  554MOL0     C73009  -0.059   8.932   0.992  0.3436 -0.6581 -0.0995
  554MOL0     C73010  -0.119   8.935   0.850 -0.1742  0.9998  0.6750
  554MOL0     C73011  -0.271   8.937   0.857 -0.3921 -0.6652  0.0370
  554MOL0     C73012  -0.328   8.795   0.850  0.7405 -0.8011  0.6379
  554MOL0     N73013  -0.482   8.798   0.846 -0.1745 -0.8102  0.9007
  554MOL0     C73014  -0.555   8.889   0.924  0.4788  0.9758  0.1483
  554MOL0     C73015  -0.688   8.879   0.880  0.0826  0.6283 -0.3352
  554MOL0     C73016  -0.802   8.957   0.926 -0.5815  0.5981  0.2058
  554MOL0     C73017  -0.821   9.081   0.839  0.1865 -0.0616  1.1541
  554MOL0     C73018  -0.955   9.152   0.853 -0.0422 -0.2750  0.2912
  554MOL0     C73019  -0.965   9.263   0.747  0.0379 -0.3358  0.2063
  554MOL0     O73020  -1.106   9.306   0.723 -0.1495 -0.1954  0.7031
  554MOL0     C73021  -1.182   9.239   0.625  0.1471  0.4859 -0.7717
  554MOL0     C73022  -1.145   9.115   0.570 -0.3523 -0.5630 -0.4125
  554MOL0     C73023  -1.235   9.055   0.485  0.1737  0.2572  1.3170
  554MOL0     C73024  -1.354   9.116   0.430  0.3392 -0.6954  0.0522
  554MOL0     C73025  -1.440   9.075   0.315 -0.2859 -0.0683  0.5307
  554MOL0     O73026  -1.413   8.952   0.280 -0.4342  0.2427  0.1268
  554MOL0     C73027  -1.465   8.880   0.176  0.8593 -0.6308 -0.6554
  554MOL0     C73028  -1.573   8.911   0.094  0.4954  0.4342  1.1056
  554MOL0     C73029  -1.617   8.819  -0.002 -0.7426  0.0850  0.0833
  554MOL0     C73030  -1.552   8.693  -0.016 -0.1211  0.4101 -0.1716
  554MOL0     O73031  -1.602   8.602  -0.103  0.5069 -1.1161  0.6837
  554MOL0     C73032  -1.632   8.473  -0.046 -0.1644 -0.7840  0.0145
  554MOL0     C73033  -1.726   8.394  -0.140 -0.0018  0.5418 -0.0480
  554MOL0     C73034  -1.876   8.434  -0.118  0.0215 -0.2631  0.3194
  554MOL0     C73035  -1.910   8.583  -0.145  0.6271 -0.8408 -0.4925
  554MOL0     C73036  -2.056   8.632  -0.133 -0.4450  0.5359 -0.1186
  554MOL0     C73037  -2.153   8.552  -0.219 -0.1411  0.0745  1.0451
  554MOL0     C73038  -2.124   8.545  -0.368 -1.5787 -0.3136  0.0251
  554MOL0     C73039  -2.146   8.676  -0.450 -0.0572  0.2728 -0.2934
  554MOL0    Cl73040  -2.319   8.700  -0.449 -0.3547  0.2744  0.1531
  554MOL0     C73041  -1.444   8.667   0.055  0.1526  0.5402 -0.2864
  554MOL0     C73042  -1.406   8.757   0.158  0.2548 -0.0315  0.6556
  554MOL0     O73043  -1.519   9.149   0.255  0.3344 -0.4502  0.0490
  554MOL0     C73044  -1.395   9.235   0.489  0.3677 -0.4171 -0.7896
  554MOL0     C73045  -1.302   9.295   0.586  0.7302 -0.4580  1.5787
  554MOL0     N73046  -0.688   8.785   0.779 -0.3482  0.1692 -0.0939
  554MOL0     N73047  -0.566   8.749   0.755  0.1220  0.0490  0.4371
  554MOL0     C73048   0.434   8.964   1.544  0.2892 -0.2454  0.0187
  554MOL0     C73049   0.530   9.008   1.646  0.4256 -0.0728 -0.3861
  554MOL0     C73050   0.978   9.072   1.759  0.2629  0.4634 -0.0548
  554MOL0     C73051   0.969   9.185   1.853 -0.5264 -0.3457  0.1094
  554MOL0     C73052   1.079   9.231   1.918  1.3064  0.4157  0.1496
  554MOL0     C73053   1.199   9.174   1.888  0.0240  0.0380  0.2061
  554MOL0     O73054   1.296   9.216   1.967  0.3087 -0.5441  0.4149
  554MOL0     C73055   1.367   9.336   1.925 -0.5702  0.5922  0.4164
  554MOL0     C73056   1.459   9.382   2.027 -0.2431  0.6451 -0.7772
  554MOL0     C73057   1.569   9.278   2.058 -0.0735 -0.9488  0.4452
  554MOL0     C73058   1.672   9.337   2.142 -0.2529  1.0417 -0.3403
  554MOL0     C73059   1.775   9.404   2.055  0.9562  0.3366 -0.6305
  554MOL0     C73060   1.859   9.460   1.997  0.1524 -0.4289  0.5206
  554MOL0     C73061   1.213   9.075   1.799  0.0312  0.2221 -0.5096
  554MOL0     C73062   1.107   9.027   1.727 -0.2134  0.3789 -0.1066
  554MOL0     H73063   0.766   9.159   1.443  0.6234  2.2235  2.5201
  554MOL0     H73064   0.609   9.095   1.279  1.1919 -2.9706 -1.1294
  554MOL0     H73065   0.317   8.773   1.274 -1.4328  1.1886  1.2857
  554MOL0     H73066   0.474   8.818   1.205 -0.4753  0.8546 -2.9660
  554MOL0     H73067   0.344   8.807   1.020  2.3271  4.1642 -3.0668
  554MOL0     H73068   0.355   8.978   1.054 -0.2636  0.6171 -0.8091
  554MOL0     H73069   0.140   8.960   1.189  2.4563  0.5303  0.7259
  554MOL0     H73070   0.121   8.782   1.133  3.4802 -0.0729 -1.2690
  554MOL0     H73071   0.135   9.013   0.949  1.0780 -0.2853  2.3791
  554MOL0     H73072   0.109   8.850   0.898  1.9438  1.2858 -1.9835
  554MOL0     H73073  -0.086   9.027   1.040  0.2335  0.2648 -1.9011
  554MOL0     H73074  -0.098   8.849   1.051  0.7079  0.0399  1.1688
  554MOL0     H73075  -0.076   8.868   0.775 -0.5718  2.8592 -1.3140
  554MOL0     H73076  -0.080   9.028   0.807  2.0216 -0.9556 -1.8327
  554MOL0     H73077  -0.302   8.994   0.945  1.9316  1.8883 -0.6277
  554MOL0     H73078  -0.307   8.992   0.769  0.3337  1.7274  1.1433
  554MOL0     H73079  -0.289   8.750   0.942  3.5429  0.1237 -0.0203
  554MOL0     H73080  -0.292   8.733   0.767 -3.3460 -0.5397 -1.6127
  554MOL0     H73081  -0.516   8.960   0.997  0.5436 -0.5534  1.6645
  554MOL0     H73082  -0.787   8.982   1.031  0.8605 -2.1482  0.7536
  554MOL0     H73083  -0.893   8.899   0.910 -2.4731  3.0831  1.3259
  554MOL0     H73084  -0.818   9.059   0.732  0.8286  0.3981  1.0743
  554MOL0     H73085  -0.736   9.144   0.866 -0.2192 -0.2211  2.9775
  554MOL0     H73086  -1.034   9.081   0.828 -1.7531  0.9931  1.8354
  554MOL0     H73087  -0.974   9.182   0.957  0.4760  0.5898  0.1481
  554MOL0     H73088  -0.918   9.231   0.654  2.4903  1.9715  0.5159
  554MOL0     H73089  -0.916   9.357   0.774 -0.3202 -0.2544  0.5944
  554MOL0     H73090  -1.054   9.069   0.608  0.5203  2.1338  1.0318
  554MOL0     H73091  -1.215   8.954   0.449  2.7049  0.8093  1.0561
  554MOL0     H73092  -1.647   8.992   0.091 -1.1726 -1.0609 -0.5746
  554MOL0     H73093  -1.697   8.842  -0.071  0.4479 -0.1410 -1.4386
  554MOL0     H73094  -1.670   8.487   0.055  0.7589 -0.7154  0.3700
  554MOL0     H73095  -1.538   8.420  -0.029  1.7175  2.7786  2.1006
  554MOL0     H73096  -1.725   8.294  -0.096  3.0445 -0.3505 -1.8643
  554MOL0     H73097  -1.693   8.406  -0.244  1.0669  1.0427  0.3316
  554MOL0     H73098  -1.908   8.401  -0.019  0.2478 -1.7012 -0.0690
  554MOL0     H73099  -1.935   8.371  -0.185 -0.7284 -0.4059  1.0926
  554MOL0     H73100  -1.854   8.638  -0.068  3.2739 -2.2035 -1.3244
  554MOL0     H73101  -1.865   8.622  -0.237 -3.5186 -0.6156 -2.6563
  554MOL0     H73102  -2.052   8.737  -0.161  0.9444  0.4725 -0.2395
  554MOL0     H73103  -2.088   8.623  -0.029 -0.5466 -0.1103 -0.2037
  554MOL0     H73104  -2.260   8.571  -0.206 -0.1630  1.8219 -1.1272
  554MOL0     H73105  -2.140   8.452  -0.176 -0.2658  0.1686  1.3027
  554MOL0     H73106  -2.019   8.517  -0.385 -1.6082  0.3116 -1.2552
  554MOL0     H73107  -2.190   8.474  -0.420 -1.7969  0.6664 -1.0784
  554MOL0     H73108  -2.123   8.653  -0.555 -3.8614 -1.4889 -0.9251
  554MOL0     H73109  -2.076   8.752  -0.416  0.6286 -0.5601  0.1858
  554MOL0     H73110  -1.385   8.577   0.062  0.0681  0.4947 -0.1536
  554MOL0     H73111  -1.344   8.723   0.240  0.9306  0.3047  0.2897
  554MOL0     H73112  -1.476   9.300   0.455  0.3106 -0.9181 -1.6539
  554MOL0     H73113  -1.330   9.393   0.623  0.5939  1.2294 -2.4202
  554MOL0     H73114   0.341   8.920   1.578 -0.7275  1.0839 -0.9289
  554MOL0     H73115   0.518   8.980   1.751  0.9543 -1.5574 -0.7072
  554MOL0     H73116   0.873   9.235   1.859 -1.0152 -0.5644 -3.4834
  554MOL0     H73117   1.060   9.306   1.993 -0.4442 -1.7188  1.9873
  554MOL0     H73118   1.301   9.422   1.909 -0.2585  0.6137 -0.8703
  554MOL0     H73119   1.430   9.326   1.836 -1.3648 -0.6873 -0.0343
  554MOL0     H73120   1.509   9.471   1.988 -1.2572  2.4691  1.8085
  554MOL0     H73121   1.410   9.423   2.116 -0.0154  0.9308 -0.7831
  554MOL0     H73122   1.627   9.248   1.970  1.2382 -0.5344  1.1405
  554MOL0     H73123   1.525   9.184   2.094  1.6557 -1.4681  1.3394
  554MOL0     H73124   1.639   9.407   2.219 -1.3996  1.0675 -0.8417
  554MOL0     H73125   1.719   9.247   2.183 -0.9875 -0.0589 -1.8477
  554MOL0     H73126   1.944   9.507   1.951  0.7828 -1.5234  0.5356
  554MOL0     H73127   1.306   9.019   1.789 -0.3595 -0.9592  1.7085
  554MOL0     H73128   1.131   8.955   1.648  5.1419  0.7429  0.8050
  555MOL0     O73129   9.140   5.203   9.446  0.6243 -0.3442 -0.0656
  555MOL0     C73130   9.106   5.270   9.548  0.0866  0.6721  0.9517
  555MOL0     O73131   9.192   5.335   9.631  0.3900 -0.0114  0.1268
  555MOL0     C73132   9.323   5.334   9.593  0.4665 -0.0435 -0.3547
  555MOL0     C73133   9.373   5.443   9.525  1.0716  0.4360  0.4043
  555MOL0     C73134   9.509   5.451   9.488  0.8041  0.3705 -1.1748
  555MOL0     C73135   9.589   5.335   9.520  0.4819 -0.0374 -0.4829
  555MOL0     O73136   9.726   5.327   9.498 -0.1445 -0.7889 -0.0570
  555MOL0     C73137   9.779   5.459   9.474 -0.1163  0.1617  0.1650
  555MOL0     C73138   9.932   5.458   9.483 -0.5861 -0.2168 -0.3690
  555MOL0     C73139  10.007   5.409   9.359 -0.9614 -0.5298 -0.4836
  555MOL0     C73140  10.139   5.347   9.394  0.9143  0.1644  0.3057
  555MOL0     C73141  10.215   5.307   9.262  1.2558  0.1319  1.2065
  555MOL0     C73142  10.304   5.423   9.207 -0.0799  0.2737 -0.0877
  555MOL0     C73143  10.349   5.401   9.061  0.0553  0.4722  0.2771
  555MOL0     C73144  10.430   5.279   9.025  0.2213  0.4421  0.1240
  555MOL0     N73145  10.571   5.273   9.057 -0.6395 -0.1840  0.1757
  555MOL0     C73146  10.631   5.229   9.169 -0.5319  1.3413 -0.2844
  555MOL0     C73147  10.762   5.223   9.132 -0.9720  0.7221 -0.6502
  555MOL0     C73148  10.878   5.169   9.217 -0.0505  0.2310  1.1603
  555MOL0     C73149  10.949   5.285   9.290 -0.0592  0.8553 -0.1039
  555MOL0     C73150  11.042   5.235   9.396  0.5129  0.9602 -0.3592
  555MOL0     C73151  11.156   5.146   9.321  0.4653 -0.3979  0.5729
  555MOL0     O73152  11.214   5.225   9.218 -1.2185 -1.2328  0.7340
  555MOL0     C73153  11.297   5.144   9.148  0.5840  0.5053  0.7602
  555MOL0     C73154  11.259   5.115   9.013  0.4966 -0.5720 -0.9040
  555MOL0     C73155  11.337   5.044   8.934 -0.2114  0.0967  0.6435
  555MOL0     C73156  11.465   5.001   8.975  0.0567  0.4742 -0.1493
  555MOL0     C73157  11.555   4.928   8.888  0.5451  0.3711 -0.0799
  555MOL0     O73158  11.517   4.944   8.761  0.6614 -0.0873 -1.2077
  555MOL0     C73159  11.513   4.831   8.685 -0.5665 -0.2342  0.5436
  555MOL0     C73160  11.557   4.845   8.556  0.7172 -0.4932  0.5197
  555MOL0     C73161  11.574   4.735   8.470  0.4006  0.2333  0.8375
  555MOL0     C73162  11.508   4.618   8.506  0.0263 -0.2099 -0.5870
  555MOL0     O73163  11.489   4.508   8.430  0.0768 -0.2181  0.2496
  555MOL0     C73164  11.492   4.520   8.283 -0.0587  0.7329  0.3880
  555MOL0     C73165  11.381   4.612   8.242 -0.3223  0.1231  0.4190
  555MOL0     C73166  11.332   4.597   8.096 -0.1787 -0.4256 -0.2527
  555MOL0     C73167  11.434   4.645   7.999  0.8892 -0.2068  0.9804
  555MOL0     C73168  11.380   4.671   7.856  0.2352 -0.0084 -0.6992
  555MOL0     C73169  11.367   4.541   7.783 -0.2822  0.1673 -1.1565
  555MOL0     C73170  11.354   4.560   7.640 -0.2978 -0.1898 -0.1783
  555MOL0     C73171  11.473   4.531   7.550 -0.7199  0.2619  1.1594
  555MOL0    Cl73172  11.527   4.361   7.536 -0.1918  0.2067  0.1501
  555MOL0     C73173  11.456   4.599   8.638 -0.5253 -0.5091  0.9996
  555MOL0     C73174  11.470   4.710   8.726  0.3027 -0.3635 -0.6432
  555MOL0     O73175  11.645   4.861   8.933  0.0372 -0.4064  0.3432
  555MOL0     C73176  11.509   5.030   9.107 -0.3275 -0.0057  1.0723
  555MOL0     C73177  11.422   5.099   9.191 -0.9652 -0.4037 -1.4889
  555MOL0     N73178  10.779   5.268   9.008 -0.4385  0.5257  0.1530
  555MOL0     N73179  10.661   5.286   8.960  0.0325 -0.0329 -0.2202
  555MOL0     C73180   9.530   5.215   9.576  0.2582  0.0738  0.6542
  555MOL0     C73181   9.398   5.217   9.611  0.2556 -0.0779 -0.2892
  555MOL0     C73182   8.958   5.265   9.567 -0.6500 -0.1031 -0.0922
  555MOL0     C73183   8.871   5.241   9.465 -0.0276 -0.3577 -1.0328
  555MOL0     C73184   8.740   5.232   9.490 -0.0113 -0.2620 -0.4492
  555MOL0     C73185   8.686   5.262   9.615  0.2445  0.0769 -0.8492
  555MOL0     O73186   8.551   5.259   9.629 -0.1181 -0.6974  0.1463
  555MOL0     C73187   8.495   5.369   9.711 -0.1329  0.3910  0.9084
  555MOL0     C73188   8.434   5.285   9.820 -0.2715  0.1293  0.0173
  555MOL0     C73189   8.369   5.369   9.918 -0.3923  1.1367 -0.5085
  555MOL0     C73190   8.275   5.282   9.999 -0.6516 -0.0568  0.0541
  555MOL0     C73191   8.228   5.339  10.129 -0.1702 -0.1389  0.8912
  555MOL0     C73192   8.180   5.373  10.233 -0.4574 -0.4890  0.1299
  555MOL0     C73193   8.779   5.281   9.719  0.0342  0.1344  0.5939
  555MOL0     C73194   8.914   5.278   9.696  0.4381 -0.8241  0.0965
  555MOL0     H73195   9.312   5.532   9.512  1.3851  0.5788 -0.1116
  555MOL0     H73196   9.533   5.532   9.420 -2.3428  1.0834 -1.5797
  555MOL0     H73197   9.748   5.519   9.560  0.9372 -2.8208  2.8204
  555MOL0     H73198   9.742   5.500   9.379 -2.0178 -1.0504  0.3358
  555MOL0     H73199   9.958   5.411   9.578  0.7455  0.3209 -0.4467
  555MOL0     H73200   9.975   5.558   9.495  2.0996 -1.2098 -0.8895
  555MOL0     H73201  10.023   5.485   9.283 -0.2040 -3.0197 -3.0017
  555MOL0     H73202   9.952   5.333   9.302  0.2595 -1.6143 -0.2500
  555MOL0     H73203  10.203   5.412   9.455 -0.1171 -0.2554  1.8902
  555MOL0     H73204  10.121   5.259   9.457 -1.4312  1.4657  1.5884
  555MOL0     H73205  10.142   5.264   9.194  2.8170 -1.8111  0.6575
  555MOL0     H73206  10.282   5.223   9.285 -0.7862 -2.0521 -0.3942
  555MOL0     H73207  10.389   5.432   9.275  1.8378 -0.7876 -2.2379
  555MOL0     H73208  10.248   5.517   9.213 -0.2071  0.2393 -0.6168
  555MOL0     H73209  10.262   5.391   8.995  1.7703  3.0416 -2.6261
  555MOL0     H73210  10.403   5.492   9.034 -0.5599  0.5940 -0.6199
  555MOL0     H73211  10.425   5.250   8.920 -0.7904 -0.9636  0.5377
  555MOL0     H73212  10.383   5.195   9.077  1.9683 -1.3905 -1.1192
  555MOL0     H73213  10.590   5.204   9.267  3.7365 -0.2947  1.3028
  555MOL0     H73214  10.956   5.140   9.146  0.4936 -0.2574  1.9446
  555MOL0     H73215  10.850   5.081   9.275 -1.2311 -0.9197 -1.0001
  555MOL0     H73216  10.872   5.343   9.342 -0.7537 -1.6880  1.9310
  555MOL0     H73217  11.001   5.345   9.214 -0.3933 -0.1854 -1.2004
  555MOL0     H73218  11.084   5.314   9.458  1.0745  0.4522 -0.0814
  555MOL0     H73219  10.993   5.171   9.470 -0.1464  0.7214 -0.9813
  555MOL0     H73220  11.110   5.056   9.278  1.3182 -0.2817 -0.6074
  555MOL0     H73221  11.235   5.118   9.391 -1.4447 -0.4740  2.8152
  555MOL0     H73222  11.163   5.147   8.974  1.0782  1.0466 -1.0881
  555MOL0     H73223  11.296   5.020   8.836  0.7650  0.0010  0.2530
  555MOL0     H73224  11.598   4.944   8.540 -1.3055  0.6626  1.9336
  555MOL0     H73225  11.615   4.744   8.370 -2.4980  2.4312 -0.2663
  555MOL0     H73226  11.480   4.419   8.243  0.6763  0.7589  0.0810
  555MOL0     H73227  11.581   4.560   8.233 -1.0746  2.8178  0.1352
  555MOL0     H73228  11.405   4.717   8.259 -1.6479  0.3242  1.1893
  555MOL0     H73229  11.298   4.600   8.313 -0.7852  0.0661 -0.1268
  555MOL0     H73230  11.239   4.652   8.080 -0.5662 -1.8262 -3.9090
  555MOL0     H73231  11.311   4.493   8.068 -1.7277  0.3980 -2.3938
  555MOL0     H73232  11.487   4.735   8.033 -0.4701  1.3005 -0.6512
  555MOL0     H73233  11.514   4.571   7.996  1.7050  0.5935  1.9671
  555MOL0     H73234  11.428   4.758   7.810  2.3771 -0.7291  0.0709
  555MOL0     H73235  11.280   4.715   7.858  1.0309  2.1236 -2.5575
  555MOL0     H73236  11.287   4.486   7.832  2.0236 -2.6214 -0.2088
  555MOL0     H73237  11.455   4.478   7.801  0.7580  1.7982 -0.2368
  555MOL0     H73238  11.271   4.492   7.617  0.3940 -0.2724 -2.7259
  555MOL0     H73239  11.321   4.661   7.614  0.3812  0.2977  0.7890
  555MOL0     H73240  11.555   4.599   7.577 -0.4642  0.7998 -0.7757
  555MOL0     H73241  11.445   4.549   7.446  0.5277 -1.9907  0.3627
  555MOL0     H73242  11.417   4.504   8.675  0.9687 -1.6549 -0.2171
  555MOL0     H73243  11.445   4.704   8.832  2.5023  1.9432  0.0986
  555MOL0     H73244  11.599   4.983   9.144 -0.2500 -1.1369 -0.4677
  555MOL0     H73245  11.451   5.113   9.295 -0.5087 -0.0202 -1.6632
  555MOL0     H73246   9.585   5.125   9.601  2.6921  1.7502  1.7229
  555MOL0     H73247   9.355   5.130   9.659 -0.3224 -0.8390 -2.1272
  555MOL0     H73248   8.906   5.214   9.366 -0.2301  3.7014 -2.3881
  555MOL0     H73249   8.669   5.200   9.414 -0.4176  0.0603 -0.2117
  555MOL0     H73250   8.416   5.409   9.647 -1.4426 -3.6588 -0.2766
  555MOL0     H73251   8.566   5.449   9.736  2.4163 -1.5574  0.3181
  555MOL0     H73252   8.365   5.212   9.778 -0.3993  0.3792 -0.2136
  555MOL0     H73253   8.509   5.219   9.864 -1.4002 -1.1142  0.1312
  555MOL0     H73254   8.315   5.445   9.862 -3.2474  1.1290  2.0136
  555MOL0     H73255   8.448   5.406   9.983  0.4435 -1.8215  0.3561
  555MOL0     H73256   8.193   5.266   9.928  0.1941  0.1219 -0.9877
  555MOL0     H73257   8.323   5.186  10.022  0.6042  0.3692 -0.6908
  555MOL0     H73258   8.127   5.399  10.322  1.9283  1.7889  1.0166
  555MOL0     H73259   8.730   5.296   9.814  0.2442  0.8372  0.5966
  555MOL0     H73260   8.973   5.278   9.788  0.4622  1.7592  0.1516
  556MOL0     O73261   6.467   5.303   0.328 -0.7092  0.6237 -0.1557
  556MOL0     C73262   6.525   5.265   0.225 -0.3078  0.7385 -0.9616
  556MOL0     O73263   6.461   5.201   0.119  0.3323 -0.0475 -0.1910
  556MOL0     C73264   6.329   5.152   0.122 -0.6476  0.3659  0.6071
  556MOL0     C73265   6.227   5.233   0.163  0.1741 -0.4470 -0.7039
  556MOL0     C73266   6.092   5.197   0.146 -1.2994  0.7456 -0.1378
  556MOL0     C73267   6.067   5.071   0.077  0.6606  0.1158  0.5526
  556MOL0     O73268   5.935   5.031   0.076 -0.0377 -0.0446 -0.3906
  556MOL0     C73269   5.886   4.970  -0.045  0.5511 -0.4983 -0.8295
  556MOL0     C73270   5.743   4.931  -0.049  0.3819 -0.7003  0.6666
  556MOL0     C73271   5.644   5.033  -0.108  0.1212 -0.8502 -0.8217
  556MOL0     C73272   5.498   4.984  -0.127  0.3599 -0.2720  0.9534
  556MOL0     C73273   5.393   5.090  -0.166 -0.3335  0.2906 -0.0335
  556MOL0     C73274   5.260   5.040  -0.120  0.7938 -0.1123 -0.1528
  556MOL0     C73275   5.150   5.134  -0.136 -0.1662 -0.4688 -0.3041
  556MOL0     C73276   5.014   5.066  -0.118  0.0193 -0.9820  0.9856
  556MOL0     N73277   5.011   5.003   0.011 -0.5108  1.1943 -0.3473
  556MOL0     C73278   4.961   5.063   0.123  0.3682  0.3090 -0.4749
  556MOL0     C73279   4.965   4.962   0.213  0.0071  0.9158  0.3533
  556MOL0     C73280   4.940   4.970   0.359  0.6272  0.6205  0.5601
  556MOL0     C73281   5.070   4.959   0.429  0.1403 -0.0541  0.1172
  556MOL0     C73282   5.192   5.043   0.374  1.0977  0.6632 -0.1012
  556MOL0     C73283   5.278   4.966   0.274 -0.8809  0.0533 -0.9921
  556MOL0     O73284   5.404   5.019   0.236 -0.4408 -0.5380 -0.7989
  556MOL0     C73285   5.513   5.014   0.325 -0.3737 -0.1837  0.6197
  556MOL0     C73286   5.517   4.970   0.455 -0.1505  0.3114 -0.7942
  556MOL0     C73287   5.634   4.993   0.533 -0.0676 -0.3174  0.6224
  556MOL0     C73288   5.756   5.035   0.472  0.0394 -0.0347 -0.4982
  556MOL0     C73289   5.865   5.057   0.560  0.0835 -0.1007 -0.8368
  556MOL0     O73290   5.989   5.067   0.502 -0.1720  0.4583  0.2685
  556MOL0     C73291   6.101   5.084   0.580  0.6203 -0.9948  0.0912
  556MOL0     C73292   6.200   5.187   0.548  1.3209  0.8018  0.9266
  556MOL0     C73293   6.315   5.194   0.630  0.7023  0.3316 -0.1606
  556MOL0     C73294   6.343   5.098   0.732  0.0821 -0.2365  0.3981
  556MOL0     O73295   6.459   5.112   0.809 -0.3245  0.1682  0.2637
  556MOL0     C73296   6.473   5.013   0.901  0.2795  0.3291 -1.0109
  556MOL0     C73297   6.595   5.024   0.996  0.6244  0.4608  0.5352
  556MOL0     C73298   6.726   5.044   0.915 -0.6258  0.0099 -0.3980
  556MOL0     C73299   6.851   5.063   1.009  0.9554  0.0722 -0.9229
  556MOL0     C73300   6.956   5.141   0.932 -0.0473  0.1867  0.4842
  556MOL0     C73301   7.040   5.233   1.017  0.4653  0.3789 -0.1140
  556MOL0     C73302   7.107   5.339   0.924 -0.0136  0.3931 -0.2413
  556MOL0     C73303   7.219   5.425   0.994 -0.3736 -0.8701 -0.3783
  556MOL0    Cl73304   7.299   5.534   0.877  0.0200  0.1198  0.0073
  556MOL0     C73305   6.248   4.988   0.745  0.7413  0.3601  0.0278
  556MOL0     C73306   6.128   4.990   0.675 -0.5078  0.7596 -0.7603
  556MOL0     O73307   5.843   5.083   0.673  0.2810  0.7915  0.3444
  556MOL0     C73308   5.760   5.076   0.340 -0.0031 -0.3731 -0.7725
  556MOL0     C73309   5.640   5.067   0.273  1.1951  0.1731  0.1204
  556MOL0     N73310   4.996   4.839   0.151 -0.0560 -0.3395  0.0302
  556MOL0     N73311   5.029   4.865   0.029 -0.1439  0.7477  0.5016
  556MOL0     C73312   6.168   4.989   0.035  0.5141 -0.3641 -0.0943
  556MOL0     C73313   6.303   5.027   0.067 -0.0181 -0.4410  0.0950
  556MOL0     C73314   6.672   5.278   0.214 -0.1209 -0.1741 -0.2379
  556MOL0     C73315   6.748   5.309   0.325 -0.9493 -0.9249 -0.8599
  556MOL0     C73316   6.884   5.309   0.333 -0.6894  0.5923  0.1164
  556MOL0     C73317   6.952   5.290   0.213 -0.0650  0.2641 -0.2425
  556MOL0     O73318   7.085   5.291   0.205  0.0863 -0.2590  0.3537
  556MOL0     C73319   7.170   5.318   0.320  0.4956  0.0195  0.6369
  556MOL0     C73320   7.185   5.191   0.394 -0.5566 -0.2231 -0.3685
  556MOL0     C73321   7.260   5.081   0.319  0.2479  0.6846  0.8328
  556MOL0     C73322   7.397   5.115   0.266  0.8551 -0.0168  0.4329
  556MOL0     C73323   7.472   5.011   0.209 -0.2932 -0.5369  0.1009
  556MOL0     C73324   7.550   4.932   0.163  0.3049  0.0408  0.1686
  556MOL0     C73325   6.882   5.267   0.095  0.1715 -0.3629 -0.5481
  556MOL0     C73326   6.748   5.257   0.099 -0.4018 -0.2211  0.6828
  556MOL0     H73327   6.258   5.324   0.214  2.6418 -0.9512 -1.1580
  556MOL0     H73328   6.011   5.259   0.181 -0.3744  1.5670  0.5952
  556MOL0     H73329   5.937   4.876  -0.068  1.7128  0.4732 -2.4994
  556MOL0     H73330   5.912   5.031  -0.132 -0.1516  0.4733 -0.3700
  556MOL0     H73331   5.721   4.897   0.052  2.7515 -5.4202 -0.1225
  556MOL0     H73332   5.731   4.845  -0.116  2.6594  0.3888 -1.3176
  556MOL0     H73333   5.666   5.049  -0.214 -0.4477  0.8351 -0.7219
  556MOL0     H73334   5.652   5.127  -0.052  1.3280 -0.2203 -1.9619
  556MOL0     H73335   5.498   4.902  -0.199 -4.9575 -0.3464  0.6138
  556MOL0     H73336   5.473   4.948  -0.026 -1.3732  1.1136  1.0625
  556MOL0     H73337   5.376   5.105  -0.274 -1.3850  2.4321  0.3613
  556MOL0     H73338   5.415   5.188  -0.123  1.9041  0.8709 -2.2475
  556MOL0     H73339   5.259   5.014  -0.014  0.4231 -2.5936 -0.6969
  556MOL0     H73340   5.247   4.947  -0.176  2.0269 -0.3362 -0.1016
  556MOL0     H73341   5.160   5.218  -0.067  2.2837  0.3494 -1.5356
  556MOL0     H73342   5.145   5.159  -0.243  0.3195 -1.1035 -0.4768
  556MOL0     H73343   5.009   4.977  -0.181 -1.9526 -1.1846  1.3717
  556MOL0     H73344   4.928   5.129  -0.143  2.0612  1.7618  0.2989
  556MOL0     H73345   4.923   5.164   0.137 -0.4614 -0.2039  1.0969
  556MOL0     H73346   4.875   4.892   0.397  0.5527  0.7427  0.6857
  556MOL0     H73347   4.894   5.069   0.374  0.0456  0.6062 -0.9385
  556MOL0     H73348   5.090   4.851   0.431 -1.2924 -0.3285  1.9263
  556MOL0     H73349   5.055   4.989   0.533 -2.6307 -4.8504  1.3990
  556MOL0     H73350   5.158   5.136   0.327 -2.4462  0.7110  2.2027
  556MOL0     H73351   5.247   5.071   0.464  0.1826 -0.4538  0.8392
  556MOL0     H73352   5.223   4.967   0.179 -2.2872  2.3946 -0.2141
  556MOL0     H73353   5.309   4.869   0.315  1.4646  1.5648  1.0683
  556MOL0     H73354   5.442   4.907   0.503 -0.3899  0.9860 -0.2603
  556MOL0     H73355   5.629   4.961   0.637  1.0620  0.1273  0.8290
  556MOL0     H73356   6.183   5.259   0.469 -3.0272 -2.1170 -1.2200
  556MOL0     H73357   6.394   5.265   0.610 -0.3518  1.4264 -0.5670
  556MOL0     H73358   6.485   4.914   0.856  1.8059  1.0429 -2.2649
  556MOL0     H73359   6.385   5.021   0.966  0.1117  3.1459 -1.4463
  556MOL0     H73360   6.601   4.934   1.057 -4.6433  0.3413  1.2681
  556MOL0     H73361   6.571   5.101   1.070 -0.4502  1.1884 -0.5455
  556MOL0     H73362   6.708   5.133   0.855 -0.7985 -0.5790 -1.2470
  556MOL0     H73363   6.750   4.968   0.840 -1.3909  0.9910 -1.6739
  556MOL0     H73364   6.812   5.128   1.088  1.7865  0.5365 -0.8746
  556MOL0     H73365   6.894   4.977   1.062  0.2846 -0.7311 -1.6597
  556MOL0     H73366   6.905   5.192   0.851 -0.3103 -3.5564 -1.9649
  556MOL0     H73367   7.028   5.071   0.888 -0.9323 -1.1801  1.1125
  556MOL0     H73368   7.116   5.172   1.067 -3.0857 -2.9171  1.8837
  556MOL0     H73369   6.983   5.290   1.091 -0.8313 -1.1260  0.1050
  556MOL0     H73370   7.146   5.281   0.840 -1.3961  0.4720 -0.9658
  556MOL0     H73371   7.027   5.403   0.886 -1.8620 -2.5395 -1.6444
  556MOL0     H73372   7.290   5.365   1.052 -0.6753 -2.8029 -1.9173
  556MOL0     H73373   7.172   5.488   1.070  3.4693  0.2371  1.3588
  556MOL0     H73374   6.276   4.904   0.808  1.8039  0.8559  0.2458
  556MOL0     H73375   6.062   4.907   0.697 -0.6228  1.3379  1.1760
  556MOL0     H73376   5.856   5.101   0.295  0.7979 -0.2048  0.9199
  556MOL0     H73377   5.630   5.098   0.169  0.2201 -1.4149 -0.2969
  556MOL0     H73378   6.150   4.892  -0.010  0.1241  0.1011 -0.9593
  556MOL0     H73379   6.388   4.963   0.043  0.3512  0.3126 -0.6519
  556MOL0     H73380   6.699   5.323   0.421  0.9770 -0.2986  0.1070
  556MOL0     H73381   6.932   5.317   0.430 -0.8813 -1.4095  0.4212
  556MOL0     H73382   7.134   5.396   0.387  1.1792 -0.1578  1.2209
  556MOL0     H73383   7.271   5.339   0.283  2.9463 -2.7218  4.9707
  556MOL0     H73384   7.241   5.212   0.486  3.5353  0.9593 -2.9169
  556MOL0     H73385   7.087   5.156   0.429 -0.5719 -0.9426 -1.1059
  556MOL0     H73386   7.194   5.050   0.237 -1.0185  0.1616  2.0048
  556MOL0     H73387   7.270   4.994   0.385 -1.5211 -0.6416 -0.5213
  556MOL0     H73388   7.395   5.200   0.197  0.8983 -1.3390 -1.2469
  556MOL0     H73389   7.458   5.141   0.353  2.7543 -1.2006 -0.4859
  556MOL0     H73390   7.636   4.875   0.131  1.5275  0.6451  2.1560
  556MOL0     H73391   6.936   5.280   0.001  2.7366  1.5779  1.0280
  556MOL0     H73392   6.684   5.233   0.014 -0.6449  0.7180  0.5942
  557MOL0     O73393   2.811   8.972   6.755 -1.1340  0.6963 -0.7832
  557MOL0     C73394   2.852   8.861   6.791  0.1673 -0.7465 -0.2617
  557MOL0     O73395   2.774   8.749   6.790 -0.5422 -0.1640 -0.0159
  557MOL0     C73396   2.641   8.751   6.759  0.4942  0.4378  0.4237
  557MOL0     C73397   2.590   8.680   6.657  0.4186  0.2345  0.0236
  557MOL0     C73398   2.454   8.672   6.635  0.5939  0.1750  0.9448
  557MOL0     C73399   2.357   8.731   6.726 -0.8371  1.2268  0.5038
  557MOL0     O73400   2.218   8.723   6.711  0.3267 -0.6459 -0.2783
  557MOL0     C73401   2.156   8.656   6.601  0.4179 -0.5199 -0.0819
  557MOL0     C73402   2.008   8.661   6.613  0.3770  0.2372  0.1236
  557MOL0     C73403   1.933   8.588   6.507 -0.0484 -0.1027 -0.1634
  557MOL0     C73404   1.952   8.432   6.501 -0.2838  0.2987  0.2092
  557MOL0     C73405   1.931   8.352   6.636  0.3437 -0.6588  0.2231
  557MOL0     C73406   1.812   8.397   6.724  0.4074  0.2844 -0.0237
  557MOL0     C73407   1.802   8.321   6.851 -0.5406 -0.0954  0.7933
  557MOL0     C73408   1.676   8.348   6.930 -0.1033 -0.4008 -0.3647
  557MOL0     N73409   1.562   8.273   6.887  0.4106  0.2618  0.2731
  557MOL0     C73410   1.443   8.268   6.959  0.3585  0.0617 -0.8714
  557MOL0     C73411   1.350   8.208   6.883  0.1321  0.4415  0.2008
  557MOL0     C73412   1.220   8.147   6.932  0.0871  0.7304  0.5322
  557MOL0     C73413   1.100   8.233   6.879  0.3287 -0.0162 -0.0604
  557MOL0     C73414   1.019   8.187   6.755  0.1468  0.4825 -0.6936
  557MOL0     C73415   0.935   8.061   6.788  0.2013  0.2287  0.4684
  557MOL0     O73416   0.834   8.102   6.899  0.3487  0.1001  0.0331
  557MOL0     C73417   0.704   8.052   6.884  0.5788 -0.1167 -0.0703
  557MOL0     C73418   0.583   8.122   6.906 -0.6657 -0.5138 -0.6228
  557MOL0     C73419   0.459   8.063   6.893 -0.7560 -0.9342 -0.2493
  557MOL0     C73420   0.448   7.928   6.876 -0.0008  0.7520 -0.9967
  557MOL0     C73421   0.324   7.866   6.881  0.2393 -0.6509 -0.2168
  557MOL0     O73422   0.214   7.934   6.937  0.2933  0.3080  0.0621
  557MOL0     C73423   0.111   7.853   6.975  0.0473  0.2052  0.7601
  557MOL0     C73424   0.114   7.766   7.087 -0.2989 -1.4843 -0.1859
  557MOL0     C73425   0.013   7.693   7.125  0.7722  0.6293  0.4808
  557MOL0     C73426  -0.105   7.689   7.046  0.2626 -0.6279 -0.2200
  557MOL0     O73427  -0.194   7.591   7.080  0.6253  0.2016 -0.2498
  557MOL0     C73428  -0.317   7.571   7.006 -0.0209  0.2551 -0.2212
  557MOL0     C73429  -0.414   7.479   7.088  0.4845 -0.4736  0.9528
  557MOL0     C73430  -0.544   7.461   7.001 -0.1498  0.4535  0.4570
  557MOL0     C73431  -0.672   7.483   7.083  0.2007 -0.4576  0.5349
  557MOL0     C73432  -0.787   7.424   6.994 -0.3790  0.3679  0.1642
  557MOL0     C73433  -0.912   7.425   7.081  0.4096  0.8380  1.4958
  557MOL0     C73434  -1.026   7.386   6.987 -0.9857  0.1041  0.6127
  557MOL0     C73435  -1.163   7.376   7.063 -0.5774  0.0703  0.1549
  557MOL0    Cl73436  -1.297   7.334   6.959 -0.0601 -0.2374  0.6293
  557MOL0     C73437  -0.107   7.773   6.928  0.9421  0.4462 -0.5287
  557MOL0     C73438   0.001   7.856   6.896  0.4963  0.2686 -0.6704
  557MOL0     O73439   0.325   7.753   6.831 -0.1824 -0.1055 -0.1887
  557MOL0     C73440   0.557   7.858   6.846  1.3600 -0.7352  0.0976
  557MOL0     C73441   0.688   7.922   6.856 -0.3461  0.0078  0.3127
  557MOL0     N73442   1.413   8.174   6.763 -0.3430  0.1338 -0.3706
  557MOL0     N73443   1.534   8.206   6.773  0.2021  0.7964  0.2063
  557MOL0     C73444   2.408   8.807   6.836 -0.6487 -0.1478 -0.1099
  557MOL0     C73445   2.547   8.816   6.847  0.3542 -0.7241  0.0184
  557MOL0     C73446   2.987   8.845   6.838  0.4393 -0.7190  0.1244
  557MOL0     C73447   3.047   8.960   6.888 -0.5055 -0.2953  0.0930
  557MOL0     C73448   3.180   8.955   6.939  0.5680  0.4184  0.2512
  557MOL0     C73449   3.251   8.838   6.940  0.7402  0.4223 -0.6717
  557MOL0     O73450   3.371   8.843   6.993 -0.0451 -0.1535 -0.7026
  557MOL0     C73451   3.471   8.769   6.921 -0.1417 -0.3711 -0.0696
  557MOL0     C73452   3.608   8.783   6.992  0.1610  0.1452 -0.2106
  557MOL0     C73453   3.736   8.783   6.905 -0.7075  0.5086 -0.8104
  557MOL0     C73454   3.854   8.829   7.002 -0.5572 -0.0465  0.5650
  557MOL0     C73455   3.993   8.803   6.945 -0.0522  0.2030 -0.1141
  557MOL0     C73456   4.104   8.786   6.902  0.1537 -0.5570  0.5252
  557MOL0     C73457   3.182   8.720   6.903  0.6155 -0.4684 -0.3167
  557MOL0     C73458   3.056   8.723   6.846  0.2569 -0.2459 -0.2279
  557MOL0     H73459   2.666   8.634   6.593 -0.8216 -0.5055 -0.9672
  557MOL0     H73460   2.420   8.599   6.561  0.2811  0.0227  1.2385
  557MOL0     H73461   2.185   8.550   6.601  0.5392 -0.4891  0.5121
  557MOL0     H73462   2.184   8.712   6.511  0.3251 -1.7450 -0.8939
  557MOL0     H73463   1.973   8.765   6.608  0.0433  0.2616  2.0662
  557MOL0     H73464   1.983   8.619   6.711  0.3148 -0.9104 -0.3688
  557MOL0     H73465   1.957   8.652   6.421 -0.4832  0.8357  0.3984
  557MOL0     H73466   1.826   8.609   6.521 -0.6372 -0.7431 -3.0383
  557MOL0     H73467   1.868   8.401   6.437 -1.8609  1.2132  1.7489
  557MOL0     H73468   2.044   8.408   6.446  1.1697  2.9322  1.3299
  557MOL0     H73469   2.021   8.373   6.695  1.1582 -0.9872 -0.8720
  557MOL0     H73470   1.937   8.248   6.605  4.6972  0.0080 -1.9320
  557MOL0     H73471   1.720   8.378   6.667  0.3334 -2.2313  0.7875
  557MOL0     H73472   1.830   8.502   6.746  0.9422  0.3971 -0.9533
  557MOL0     H73473   1.820   8.216   6.828  4.6642  0.4053  1.2721
  557MOL0     H73474   1.892   8.342   6.909 -0.0720 -0.4708  0.2167
  557MOL0     H73475   1.648   8.453   6.936 -0.2901 -0.3162 -2.0177
  557MOL0     H73476   1.687   8.320   7.035 -0.4372 -1.3895 -0.5767
  557MOL0     H73477   1.427   8.313   7.057 -0.4656 -0.2458 -0.8614
  557MOL0     H73478   1.222   8.152   7.041  2.2413 -1.1739  0.6465
  557MOL0     H73479   1.229   8.044   6.894 -0.4158  1.0953 -0.6468
  557MOL0     H73480   1.137   8.335   6.861  0.9990 -0.2810 -0.2110
  557MOL0     H73481   1.035   8.254   6.965  0.5039  0.6369 -0.0779
  557MOL0     H73482   0.944   8.263   6.733 -1.1318 -1.0879 -2.0562
  557MOL0     H73483   1.083   8.166   6.669  1.2585 -1.5918  0.5316
  557MOL0     H73484   1.011   7.985   6.809  1.4345  0.3846 -2.8040
  557MOL0     H73485   0.886   8.013   6.702 -0.2458 -1.6080  1.6902
  557MOL0     H73486   0.584   8.228   6.931  0.7133 -0.8719  0.9502
  557MOL0     H73487   0.374   8.125   6.922  2.9734  3.1170  3.4525
  557MOL0     H73488   0.209   7.770   7.140 -0.1790  1.1882 -0.4371
  557MOL0     H73489   0.007   7.631   7.214  1.4524 -0.5324 -0.2671
  557MOL0     H73490  -0.294   7.525   6.909 -2.0460  1.3085 -1.2543
  557MOL0     H73491  -0.358   7.671   6.994  0.8223  0.8101  1.2524
  557MOL0     H73492  -0.443   7.533   7.179  0.0677 -2.1026  1.8291
  557MOL0     H73493  -0.365   7.383   7.104  0.3676 -0.7930 -0.4917
  557MOL0     H73494  -0.538   7.359   6.962 -0.2664  0.3179  0.7896
  557MOL0     H73495  -0.546   7.532   6.918  0.4048  1.0014  0.9034
  557MOL0     H73496  -0.649   7.434   7.178  0.2255  4.0005  3.1098
  557MOL0     H73497  -0.691   7.586   7.117 -1.4479 -0.8898  1.0204
  557MOL0     H73498  -0.766   7.326   6.950  3.1663  0.9550  0.2498
  557MOL0     H73499  -0.812   7.491   6.911 -0.8948  0.4178  0.3520
  557MOL0     H73500  -0.928   7.526   7.120 -2.0910  0.4143  1.7255
  557MOL0     H73501  -0.893   7.356   7.163  2.6093 -1.7605 -0.9579
  557MOL0     H73502  -1.031   7.463   6.909 -1.9954 -0.3572  0.2035
  557MOL0     H73503  -1.016   7.288   6.940  1.8822 -0.7336  2.6550
  557MOL0     H73504  -1.179   7.472   7.113  2.1306  0.5861  0.2158
  557MOL0     H73505  -1.151   7.309   7.149 -2.5098 -0.7213 -0.1487
  557MOL0     H73506  -0.190   7.777   6.857  0.6307 -1.7225 -0.3531
  557MOL0     H73507  -0.021   7.911   6.804 -3.4872 -1.7279 -1.1336
  557MOL0     H73508   0.544   7.753   6.822 -1.1565 -0.1800 -1.3157
  557MOL0     H73509   0.782   7.874   6.832 -0.6247 -0.5614  0.3428
  557MOL0     H73510   2.344   8.853   6.910  1.1141 -1.5159  2.4045
  557MOL0     H73511   2.602   8.879   6.916 -1.0410  0.6124 -0.0232
  557MOL0     H73512   3.004   9.060   6.891 -2.4459 -1.0577  4.0305
  557MOL0     H73513   3.227   9.050   6.964  0.9090  0.9557 -2.1738
  557MOL0     H73514   3.481   8.813   6.821 -3.0823  0.5003 -0.0824
  557MOL0     H73515   3.421   8.671   6.913 -1.2755 -0.1353  3.0217
  557MOL0     H73516   3.611   8.875   7.050  2.7627 -1.8737  3.2852
  557MOL0     H73517   3.622   8.697   7.058 -0.3621 -0.2051 -0.5433
  557MOL0     H73518   3.730   8.858   6.826 -0.2690  1.5088  0.0915
  557MOL0     H73519   3.754   8.684   6.861 -3.0421 -0.1303 -0.4834
  557MOL0     H73520   3.836   8.937   7.005 -1.7540 -0.1361 -1.4235
  557MOL0     H73521   3.842   8.782   7.100  1.0699  0.2172  0.9249
  557MOL0     H73522   4.194   8.786   6.843  0.2426 -3.0048  0.5567
  557MOL0     H73523   3.228   8.621   6.903  2.6955  0.4377 -0.6004
  557MOL0     H73524   3.007   8.631   6.818 -0.3615  0.5563 -1.8981
  558MOL0     O73525  10.504   8.628   1.711  1.0810  0.1037 -0.1206
  558MOL0     C73526  10.524   8.539   1.636 -0.5266  0.2375 -0.4807
  558MOL0     O73527  10.429   8.477   1.555  0.2404  0.3675  0.0257
  558MOL0     C73528  10.294   8.494   1.591 -0.5414  0.6501 -0.4106
  558MOL0     C73529  10.243   8.500   1.720 -0.4051  0.5033  0.0447
  558MOL0     C73530  10.109   8.524   1.746  0.2090 -0.1650 -0.1218
  558MOL0     C73531  10.019   8.542   1.640  0.8050 -0.1827 -0.5741
  558MOL0     O73532   9.879   8.532   1.634 -0.6939 -0.3936  0.7098
  558MOL0     C73533   9.812   8.461   1.737  0.0481  0.5407 -0.1471
  558MOL0     C73534   9.677   8.394   1.697  0.3677  0.0964 -0.4540
  558MOL0     C73535   9.564   8.503   1.685  0.2241  1.2232 -0.2840
  558MOL0     C73536   9.425   8.436   1.652  0.1237  0.4323  0.2736
  558MOL0     C73537   9.322   8.532   1.604  0.2792 -1.1745  0.0608
  558MOL0     C73538   9.180   8.508   1.667  0.6238  0.0262 -0.2817
  558MOL0     C73539   9.069   8.615   1.626 -1.0190 -0.3578  0.0553
  558MOL0     C73540   9.075   8.724   1.743  0.6048  0.4822  0.0080
  558MOL0     N73541   8.976   8.835   1.725  0.0819  0.3958  0.0592
  558MOL0     C73542   8.880   8.881   1.818 -0.7602  0.6612  0.0876
  558MOL0     C73543   8.844   9.003   1.761 -1.4734 -0.0156 -0.5211
  558MOL0     C73544   8.756   9.101   1.831  1.2085 -0.6008 -0.1914
  558MOL0     C73545   8.633   9.156   1.742 -0.6245  0.3897 -0.4301
  558MOL0     C73546   8.545   9.251   1.825 -0.3174 -0.1655 -0.3780
  558MOL0     C73547   8.422   9.189   1.882  0.0811 -0.0126  0.1280
  558MOL0     O73548   8.341   9.139   1.772  0.2064  0.0162  0.6417
  558MOL0     C73549   8.203   9.172   1.789 -0.0148 -0.4492 -0.2262
  558MOL0     C73550   8.105   9.070   1.775  0.0020 -0.9500  0.6825
  558MOL0     C73551   7.968   9.102   1.802 -0.1782 -0.6632  0.9861
  558MOL0     C73552   7.930   9.239   1.811 -0.1093 -0.4623  0.1682
  558MOL0     C73553   7.788   9.270   1.838 -0.0356  0.5970  0.3756
  558MOL0     O73554   7.747   9.393   1.810  0.4703 -0.1530  0.4684
  558MOL0     C73555   7.616   9.443   1.832  0.2027  0.0365  0.0739
  558MOL0     C73556   7.503   9.366   1.867  0.2384  0.0103  0.3268
  558MOL0     C73557   7.384   9.438   1.880  0.1705 -0.2126 -0.2490
  558MOL0     C73558   7.368   9.572   1.849  0.0738  0.1186  0.4087
  558MOL0     O73559   7.252   9.638   1.855  0.3733  0.3951  0.3367
  558MOL0     C73560   7.128   9.568   1.825  0.1474 -0.0739 -0.5260
  558MOL0     C73561   7.017   9.659   1.861  0.0889 -0.1212  0.1808
  558MOL0     C73562   6.882   9.594   1.843  0.0509  0.3754  0.1960
  558MOL0     C73563   6.767   9.698   1.883 -0.2244  0.0708 -0.2151
  558MOL0     C73564   6.639   9.665   1.805  0.0847  0.0692 -0.8405
  558MOL0     C73565   6.559   9.551   1.862  0.6132  0.0584 -0.2239
  558MOL0     C73566   6.417   9.567   1.848 -0.0603 -0.1129  1.3232
  558MOL0     C73567   6.350   9.436   1.909  0.3537  0.0793  0.2794
  558MOL0    Cl73568   6.173   9.426   1.858  0.0300 -0.2701 -0.3274
  558MOL0     C73569   7.481   9.642   1.812 -0.1651  0.3473  0.5916
  558MOL0     C73570   7.600   9.583   1.800  0.0523 -0.0087 -0.0206
  558MOL0     O73571   7.716   9.178   1.887  0.3455  0.1416  0.3290
  558MOL0     C73572   8.031   9.339   1.801  0.0913 -0.6710 -0.2651
  558MOL0     C73573   8.166   9.301   1.792 -0.1109  0.4316  0.8483
  558MOL0     N73574   8.898   9.013   1.633 -0.2680 -0.1189 -0.3651
  558MOL0     N73575   8.985   8.920   1.615 -0.0423  0.1993 -0.2854
  558MOL0     C73576  10.068   8.522   1.517 -0.6601  0.2041  0.0262
  558MOL0     C73577  10.205   8.508   1.490  0.0914 -0.0027  0.2134
  558MOL0     C73578  10.658   8.481   1.641 -0.4361  0.3981  0.2060
  558MOL0     C73579  10.684   8.357   1.586  0.0484 -0.2237  0.0108
  558MOL0     C73580  10.815   8.313   1.587  0.5889 -0.0646  0.6295
  558MOL0     C73581  10.917   8.383   1.649  0.1702  0.0354 -0.2705
  558MOL0     O73582  11.030   8.315   1.671 -0.4439  0.1446  0.0559
  558MOL0     C73583  11.153   8.379   1.642  0.1201 -0.1847  0.1272
  558MOL0     C73584  11.267   8.275   1.639 -0.2628 -0.0641 -0.9194
  558MOL0     C73585  11.278   8.229   1.492  0.2335  0.1629 -0.8804
  558MOL0     C73586  11.347   8.085   1.475 -0.7836  0.3037  0.5258
  558MOL0     C73587  11.484   8.091   1.534 -0.7151 -0.0996 -0.7711
  558MOL0     C73588  11.591   8.070   1.580  0.5035 -0.0970 -0.5886
  558MOL0     C73589  10.888   8.506   1.715  0.0377 -0.0071  0.2747
  558MOL0     C73590  10.763   8.562   1.697  0.7916  0.2050 -0.0004
  558MOL0     H73591  10.298   8.491   1.813 -3.5553  1.9691  2.2029
  558MOL0     H73592  10.085   8.526   1.852  0.9455 -0.2624  0.0533
  558MOL0     H73593   9.787   8.529   1.819 -1.1104 -2.0595  1.7838
  558MOL0     H73594   9.864   8.376   1.780 -3.0618 -1.0327  0.8343
  558MOL0     H73595   9.656   8.308   1.761  3.1366 -0.3231  0.0189
  558MOL0     H73596   9.696   8.357   1.596 -1.4843 -1.6270 -0.2222
  558MOL0     H73597   9.594   8.578   1.612 -0.3215  2.4522  0.7287
  558MOL0     H73598   9.556   8.557   1.780  1.6064  1.8518 -0.5022
  558MOL0     H73599   9.442   8.375   1.563 -1.4222 -0.4789  0.5669
  558MOL0     H73600   9.387   8.375   1.735 -2.1864 -0.6096 -1.4369
  558MOL0     H73601   9.314   8.521   1.495 -1.4726 -0.5218  0.0883
  558MOL0     H73602   9.353   8.636   1.615 -0.0702 -1.0513 -0.0837
  558MOL0     H73603   9.192   8.491   1.775 -1.3753  0.8904  0.1246
  558MOL0     H73604   9.142   8.415   1.624 -3.0997  0.0976  2.3413
  558MOL0     H73605   9.085   8.664   1.530  3.2982  2.0803  1.7193
  558MOL0     H73606   8.975   8.560   1.618  0.9707 -3.9590 -1.0750
  558MOL0     H73607   9.166   8.783   1.739 -0.8971  2.8609 -1.9913
  558MOL0     H73608   9.053   8.680   1.841 -2.4699  2.6836  0.4546
  558MOL0     H73609   8.859   8.840   1.916 -0.2252  0.9393  0.3225
  558MOL0     H73610   8.812   9.189   1.866 -0.9615  0.3153  1.2549
  558MOL0     H73611   8.698   9.057   1.913 -0.5529 -1.0878 -1.6293
  558MOL0     H73612   8.572   9.087   1.682  0.4955 -0.0881 -1.0568
  558MOL0     H73613   8.672   9.218   1.660  0.7244  1.4714  0.9665
  558MOL0     H73614   8.594   9.309   1.904 -2.6557  2.1500 -0.4803
  558MOL0     H73615   8.505   9.333   1.765 -1.3921  1.2086  2.0834
  558MOL0     H73616   8.367   9.266   1.935 -1.6209  0.6625 -2.4412
  558MOL0     H73617   8.449   9.105   1.947 -1.7537 -0.5034  0.3020
  558MOL0     H73618   8.144   8.969   1.772 -0.1849 -1.0066 -0.0618
  558MOL0     H73619   7.892   9.025   1.807 -0.2606 -0.6567  0.0556
  558MOL0     H73620   7.495   9.259   1.882 -1.9875 -0.0217 -0.6255
  558MOL0     H73621   7.290   9.389   1.903  1.0546 -1.1934  1.4444
  558MOL0     H73622   7.116   9.480   1.890  1.0396  0.8127  0.9007
  558MOL0     H73623   7.121   9.530   1.723 -5.6946 -1.2674 -0.0125
  558MOL0     H73624   7.026   9.750   1.801  2.2119  0.7474  1.6982
  558MOL0     H73625   7.044   9.695   1.961  1.3852 -0.2544 -0.1150
  558MOL0     H73626   6.878   9.495   1.889  2.0631  0.1050 -0.1278
  558MOL0     H73627   6.874   9.560   1.739  0.0258 -2.8011  1.1302
  558MOL0     H73628   6.749   9.700   1.991  0.4537 -2.9932  0.0444
  558MOL0     H73629   6.794   9.801   1.858 -1.9275  0.7809  0.6748
  558MOL0     H73630   6.658   9.662   1.697  2.1766  0.7559 -0.5327
  558MOL0     H73631   6.572   9.751   1.817 -0.5130 -0.5218  0.1828
  558MOL0     H73632   6.580   9.529   1.967 -0.0137 -0.3878 -0.1909
  558MOL0     H73633   6.594   9.457   1.819  1.5296 -0.4496  1.5164
  558MOL0     H73634   6.385   9.663   1.890  3.4977  1.2490  1.1876
  558MOL0     H73635   6.390   9.572   1.742  3.2782  0.5959  0.4013
  558MOL0     H73636   6.360   9.443   2.017 -0.2777  2.2911  0.2395
  558MOL0     H73637   6.404   9.349   1.869 -2.9498 -1.7869 -0.4418
  558MOL0     H73638   7.469   9.747   1.787  0.4982  0.4178  0.5634
  558MOL0     H73639   7.693   9.639   1.800  0.4717 -0.6941 -0.0610
  558MOL0     H73640   8.011   9.445   1.809 -2.7590 -0.9104 -2.5221
  558MOL0     H73641   8.237   9.382   1.776 -0.5226  0.4561 -1.0990
  558MOL0     H73642  10.004   8.532   1.430 -0.3475  1.0908 -0.1151
  558MOL0     H73643  10.226   8.502   1.384 -1.7649  0.4720 -0.2115
  558MOL0     H73644  10.602   8.300   1.544 -0.0020 -2.5808  3.0063
  558MOL0     H73645  10.843   8.217   1.544 -0.3236  0.8929 -2.3055
  558MOL0     H73646  11.180   8.440   1.729  0.2456  0.6676 -0.5052
  558MOL0     H73647  11.153   8.444   1.554 -0.5259  5.3423  3.7469
  558MOL0     H73648  11.359   8.317   1.680 -0.9040 -1.8165  2.6664
  558MOL0     H73649  11.255   8.195   1.712  0.5000  2.3441  2.0506
  558MOL0     H73650  11.341   8.302   1.440  0.9739 -0.6725 -1.1947
  558MOL0     H73651  11.174   8.222   1.460  0.8571 -0.7912 -2.8772
  558MOL0     H73652  11.281   8.011   1.520 -2.3760  0.8075 -0.8613
  558MOL0     H73653  11.346   8.056   1.370 -2.6466 -1.2338  0.9065
  558MOL0     H73654  11.683   8.037   1.624 -0.1924 -1.1265  0.1460
  558MOL0     H73655  10.970   8.550   1.771  0.7289 -2.5641  1.4207
  558MOL0     H73656  10.738   8.658   1.741  0.4193 -1.7748  4.6511
  559MOL0     O73657   0.152  10.254   8.685  0.6884  0.2019  0.7468
  559MOL0     C73658   0.157  10.358   8.758 -0.3784 -1.1103  0.2742
  559MOL0     O73659   0.049  10.419   8.813 -0.1485 -0.0046  0.5940
  559MOL0     C73660  -0.081  10.386   8.780 -0.3148  0.4643  0.3734
  559MOL0     C73661  -0.180  10.477   8.786 -0.6673 -0.1068  0.4758
  559MOL0     C73662  -0.314  10.452   8.771 -1.0739  0.1013  0.6602
  559MOL0     C73663  -0.363  10.320   8.752 -1.0468  0.2893  0.2377
  559MOL0     O73664  -0.498  10.298   8.766 -0.0782 -0.0540 -0.3885
  559MOL0     C73665  -0.548  10.161   8.769 -0.8113  0.1417  0.5149
  559MOL0     C73666  -0.696  10.174   8.745 -0.0428 -0.9447  0.3147
  559MOL0     C73667  -0.761  10.253   8.862 -0.3360  0.1184 -0.7507
  559MOL0     C73668  -0.914  10.262   8.845  0.0307  0.3643 -0.0113
  559MOL0     C73669  -0.998  10.366   8.928  0.1351  0.4060  0.7529
  559MOL0     C73670  -0.953  10.394   9.071  0.0016  0.5983  0.2349
  559MOL0     C73671  -0.958  10.269   9.159  0.1834 -0.0969  0.1789
  559MOL0     C73672  -0.916  10.293   9.305  0.0887 -0.2359 -0.5347
  559MOL0     N73673  -0.795  10.362   9.322 -0.6061 -0.3194 -0.6143
  559MOL0     C73674  -0.681  10.288   9.324 -0.4620  0.3620 -0.5196
  559MOL0     C73675  -0.582  10.381   9.329  0.4648  0.3083  0.3738
  559MOL0     C73676  -0.429  10.349   9.341  0.6288  0.4318 -0.4311
  559MOL0     C73677  -0.377  10.306   9.197 -0.0997 -0.4829  0.0290
  559MOL0     C73678  -0.236  10.258   9.194 -1.3687  0.4661 -0.1120
  559MOL0     C73679  -0.129  10.352   9.230 -0.5393  0.3018  0.2968
  559MOL0     O73680  -0.108  10.383   9.367  0.5083 -0.4441 -0.4313
  559MOL0     C73681  -0.006  10.469   9.399 -0.5845  0.7990  0.2607
  559MOL0     C73682   0.077  10.530   9.301  0.0715 -0.1888 -0.2717
  559MOL0     C73683   0.185  10.609   9.332  0.6573  0.1142  0.2762
  559MOL0     C73684   0.207  10.639   9.469  0.7623 -0.8040 -0.0586
  559MOL0     C73685   0.333  10.708   9.501  0.2235 -0.0516 -0.8333
  559MOL0     O73686   0.383  10.789   9.402  0.1590  0.4584 -0.2188
  559MOL0     C73687   0.514  10.837   9.405  0.6861  0.3865 -0.2036
  559MOL0     C73688   0.619  10.814   9.507  0.0462  0.1553 -0.0320
  559MOL0     C73689   0.747  10.875   9.500 -0.0058 -0.6217 -0.3766
  559MOL0     C73690   0.777  10.970   9.402  0.4399  0.2648 -0.2314
  559MOL0     O73691   0.889  11.051   9.392 -0.3566 -0.3914 -0.3634
  559MOL0     C73692   0.997  11.061   9.481 -0.1156  0.0568 -0.6662
  559MOL0     C73693   1.095  10.939   9.483  0.1576 -0.0608 -0.7700
  559MOL0     C73694   1.214  10.956   9.376 -0.1008 -1.5824 -0.8224
  559MOL0     C73695   1.274  10.824   9.349 -0.1108  0.7021 -0.2110
  559MOL0     C73696   1.385  10.834   9.244  0.1408 -0.7573  0.0155
  559MOL0     C73697   1.523  10.880   9.309  0.8975  0.1810  0.0226
  559MOL0     C73698   1.627  10.907   9.197  0.2047  0.3799 -0.6048
  559MOL0     C73699   1.752  10.962   9.262  0.0310  0.3610 -1.0854
  559MOL0    Cl73700   1.812  11.102   9.162  0.3803 -0.1731  0.0166
  559MOL0     C73701   0.681  10.981   9.305 -0.1350  0.0906  0.4619
  559MOL0     C73702   0.552  10.923   9.305  0.4170 -0.3047 -1.1195
  559MOL0     O73703   0.376  10.693   9.617 -0.5627 -0.2352 -0.0392
  559MOL0     C73704   0.122  10.585   9.562  0.6143 -0.2528  0.4281
  559MOL0     C73705   0.013  10.499   9.533 -1.4719 -0.9452  0.3432
  559MOL0     N73706  -0.641  10.514   9.332 -0.2373  0.7665 -0.1443
  559MOL0     N73707  -0.769  10.494   9.318 -0.3426  0.2205 -0.0531
  559MOL0     C73708  -0.262  10.221   8.729  0.1287  0.0337 -0.1564
  559MOL0     C73709  -0.131  10.259   8.757 -0.2212  0.3280  0.3906
  559MOL0     C73710   0.293  10.419   8.786 -0.1147  0.4539  0.6212
  559MOL0     C73711   0.397  10.383   8.699  0.4608  0.1470 -0.3229
  559MOL0     C73712   0.529  10.434   8.714  0.2904 -0.7017  0.3743
  559MOL0     C73713   0.549  10.520   8.821 -0.2530 -0.5224 -0.1352
  559MOL0     O73714   0.679  10.570   8.830  0.8451 -0.0185 -0.1980
  559MOL0     C73715   0.727  10.623   8.956  0.5771  0.7160  0.3791
  559MOL0     C73716   0.742  10.505   9.060 -0.3845 -0.0804  0.1453
  559MOL0     C73717   0.777  10.551   9.194 -0.1523 -0.6975 -0.3667
  559MOL0     C73718   0.884  10.653   9.204 -0.6308 -0.0373  0.5601
  559MOL0     C73719   1.010  10.596   9.166 -0.0546 -0.8205  0.1325
  559MOL0     C73720   1.105  10.551   9.111 -0.6815 -0.2430 -0.0571
  559MOL0     C73721   0.451  10.549   8.912 -0.8116  1.1086 -0.6494
  559MOL0     C73722   0.323  10.500   8.895 -0.0208  0.4400 -0.6260
  559MOL0     H73723  -0.163  10.583   8.801  0.4478 -0.4175  1.5350
  559MOL0     H73724  -0.383  10.534   8.785  0.7856  2.0413 -0.7888
  559MOL0     H73725  -0.533  10.105   8.862  1.4921 -0.0936  0.0821
  559MOL0     H73726  -0.508  10.108   8.682 -0.1454  3.1440 -1.1530
  559MOL0     H73727  -0.743  10.077   8.727 -2.6184 -0.0811  1.8129
  559MOL0     H73728  -0.707  10.229   8.651  0.1781 -0.3983  0.6024
  559MOL0     H73729  -0.710  10.350   8.867  0.2900 -0.1599 -1.4243
  559MOL0     H73730  -0.734  10.207   8.957 -1.5128  3.5055  1.4018
  559MOL0     H73731  -0.920  10.292   8.740  0.6094 -1.5588 -0.6503
  559MOL0     H73732  -0.955  10.161   8.855  3.2505 -1.0419  0.1078
  559MOL0     H73733  -1.101  10.329   8.925  1.0253 -2.2546 -0.7237
  559MOL0     H73734  -0.975  10.454   8.868  1.9779 -1.2297 -1.0992
  559MOL0     H73735  -1.023  10.460   9.122  1.2239  0.9211  1.5658
  559MOL0     H73736  -0.853  10.438   9.067  0.8844 -1.3528 -3.3396
  559MOL0     H73737  -1.065  10.243   9.163 -0.1189  1.1316  0.5606
  559MOL0     H73738  -0.910  10.181   9.117 -1.3238 -1.0599  0.3826
  559MOL0     H73739  -0.894  10.198   9.354 -0.7830 -0.3205 -0.2941
  559MOL0     H73740  -0.999  10.338   9.362  0.6496 -1.6517  1.5079
  559MOL0     H73741  -0.666  10.181   9.315 -0.3227  0.0803  2.3338
  559MOL0     H73742  -0.402  10.275   9.416 -2.1604 -1.0970 -0.8082
  559MOL0     H73743  -0.379  10.441   9.374  1.3075 -0.0985  0.0591
  559MOL0     H73744  -0.372  10.393   9.130  1.4630 -0.5584 -0.0004
  559MOL0     H73745  -0.443  10.229   9.156 -1.0432 -0.8691  2.1291
  559MOL0     H73746  -0.230  10.166   9.253 -0.5724  0.5044 -0.1166
  559MOL0     H73747  -0.212  10.236   9.090  1.0418  5.7443 -0.9951
  559MOL0     H73748  -0.157  10.449   9.187 -1.9051  0.2605  1.0116
  559MOL0     H73749  -0.036  10.313   9.189 -0.4978  1.7373 -1.0680
  559MOL0     H73750   0.042  10.518   9.199 -1.0838  0.4605  0.0403
  559MOL0     H73751   0.254  10.638   9.253  0.8288  1.6439  0.9564
  559MOL0     H73752   0.599  10.757   9.596  1.2537  3.1215  2.3211
  559MOL0     H73753   0.820  10.860   9.579  2.1094 -2.4004 -2.4926
  559MOL0     H73754   0.965  11.083   9.584  1.3140 -0.3606 -0.0948
  559MOL0     H73755   1.055  11.144   9.440  0.4894 -1.0104 -2.0447
  559MOL0     H73756   1.033  10.851   9.470  1.4898 -1.0503 -0.7050
  559MOL0     H73757   1.135  10.925   9.585 -0.1562  0.0229 -0.6354
  559MOL0     H73758   1.290  11.023   9.417 -0.5117 -1.3932 -0.3593
  559MOL0     H73759   1.163  10.999   9.290 -0.3297 -0.4481 -0.1324
  559MOL0     H73760   1.309  10.789   9.446 -0.1473 -2.2291 -1.1615
  559MOL0     H73761   1.207  10.747   9.311 -0.0078  0.6122 -0.2111
  559MOL0     H73762   1.367  10.901   9.159 -0.3001 -2.3275 -1.2035
  559MOL0     H73763   1.401  10.738   9.192  0.3602 -0.5504 -0.3030
  559MOL0     H73764   1.557  10.805   9.381 -1.3811  0.7262  1.7898
  559MOL0     H73765   1.505  10.971   9.367 -2.5827 -0.9437  0.9887
  559MOL0     H73766   1.643  10.815   9.139 -2.4149  1.0810 -2.6700
  559MOL0     H73767   1.585  10.987   9.135  2.9483  2.0302 -0.4721
  559MOL0     H73768   1.816  10.873   9.268 -2.2511 -1.2253  2.8072
  559MOL0     H73769   1.730  10.990   9.365  2.5275  3.7753 -1.3023
  559MOL0     H73770   0.712  11.043   9.221  2.1054 -1.1084  0.3131
  559MOL0     H73771   0.477  10.955   9.235 -1.8797  0.6956  1.5938
  559MOL0     H73772   0.137  10.617   9.664 -3.5772 -0.7906  1.3958
  559MOL0     H73773  -0.054  10.457   9.607 -1.5709 -0.3827  0.5810
  559MOL0     H73774  -0.300  10.122   8.705 -0.0327  0.3803 -1.4367
  559MOL0     H73775  -0.065  10.173   8.749  0.9063  1.3415 -2.8652
  559MOL0     H73776   0.370  10.316   8.617 -1.4528 -0.2373  0.5546
  559MOL0     H73777   0.610  10.408   8.648 -0.9359  1.8862 -2.3947
  559MOL0     H73778   0.659  10.701   8.994 -0.0934 -0.1625  1.0234
  559MOL0     H73779   0.826  10.666   8.940  0.2379  0.6232 -2.5623
  559MOL0     H73780   0.658  10.434   9.064  0.2435 -0.8557 -0.2627
  559MOL0     H73781   0.832  10.455   9.023 -0.9196  0.3971 -1.9453
  559MOL0     H73782   0.797  10.461   9.253 -3.5965 -0.8654  0.7656
  559MOL0     H73783   0.680  10.584   9.232 -0.6265 -0.3189 -1.8298
  559MOL0     H73784   0.863  10.733   9.132  1.9410 -1.1346 -1.5477
  559MOL0     H73785   0.883  10.695   9.305  0.9071 -1.6382  1.2849
  559MOL0     H73786   1.178  10.512   9.042 -2.0495  0.0965 -1.7799
  559MOL0     H73787   0.473  10.609   8.999  2.5415  1.7570 -1.8066
  559MOL0     H73788   0.237  10.523   8.957 -0.7740  1.0334 -1.8528
  560MOL0     O73789   3.689   0.222   8.171  0.2972  0.2757 -0.1038
  560MOL0     C73790   3.720   0.321   8.106 -0.5432  0.5027 -0.2785
  560MOL0     O73791   3.847   0.366   8.093  0.6137 -0.1934  0.4940
  560MOL0     C73792   3.949   0.286   8.127 -0.6334  0.1548  0.4669
  560MOL0     C73793   3.996   0.173   8.045  0.0478 -1.3526  0.7355
  560MOL0     C73794   4.108   0.099   8.078  0.5140  0.0012 -0.5630
  560MOL0     C73795   4.164   0.132   8.198 -0.7993  0.4602 -1.0641
  560MOL0     O73796   4.271   0.060   8.247 -0.2751  0.4679 -0.2964
  560MOL0     C73797   4.256  -0.081   8.266 -0.8450 -0.2542  0.1678
  560MOL0     C73798   4.336  -0.132   8.379  0.3998 -0.4251 -0.0390
  560MOL0     C73799   4.258  -0.118   8.501 -0.0210  0.1686 -0.5364
  560MOL0     C73800   4.324  -0.186   8.622 -0.3350  1.0230 -0.2641
  560MOL0     C73801   4.226  -0.243   8.724  0.8772  0.0856  0.0878
  560MOL0     C73802   4.292  -0.317   8.843  0.2152 -0.2598 -0.5481
  560MOL0     C73803   4.196  -0.355   8.952  0.5734  0.3100  0.8076
  560MOL0     C73804   4.094  -0.455   8.908 -0.7557  0.1785 -0.3850
  560MOL0     N73805   3.974  -0.460   8.989 -0.4377 -0.7207 -0.7480
  560MOL0     C73806   3.864  -0.379   8.976 -0.0262 -0.6203 -0.3262
  560MOL0     C73807   3.773  -0.430   9.062  0.1512 -0.1316 -0.0431
  560MOL0     C73808   3.633  -0.381   9.079  0.1994  0.6092  0.2795
  560MOL0     C73809   3.556  -0.421   9.204 -0.3431 -0.8439  0.3271
  560MOL0     C73810   3.405  -0.403   9.205  0.1840 -0.2891  0.6680
  560MOL0     C73811   3.342  -0.466   9.330 -0.2589  1.0273 -0.5139
  560MOL0     O73812   3.211  -0.524   9.304 -0.3284 -0.3564 -0.7542
  560MOL0     C73813   3.128  -0.576   9.403  0.5327 -0.1655 -0.0578
  560MOL0     C73814   2.991  -0.592   9.372 -0.2349  0.9621  0.7024
  560MOL0     C73815   2.901  -0.624   9.474 -0.4573  0.3220 -0.9230
  560MOL0     C73816   2.938  -0.635   9.614  0.6184  0.0455  0.3435
  560MOL0     C73817   2.835  -0.673   9.712 -1.0488  0.5187 -0.7534
  560MOL0     O73818   2.706  -0.646   9.677  0.0503 -0.2056  0.2574
  560MOL0     C73819   2.602  -0.719   9.733 -0.5901  0.6915 -0.0892
  560MOL0     C73820   2.473  -0.659   9.726  0.1193  0.3961  0.3261
  560MOL0     C73821   2.360  -0.725   9.776 -0.0307  0.9743  0.5455
  560MOL0     C73822   2.376  -0.849   9.845 -0.4974 -0.1730 -0.4389
  560MOL0     O73823   2.254  -0.899   9.895  0.6689 -0.2868  0.0665
  560MOL0     C73824   2.258  -0.969  10.020 -0.4594  0.5273 -0.5343
  560MOL0     C73825   2.113  -1.013  10.057 -0.0979 -0.9010  0.9470
  560MOL0     C73826   2.114  -1.132  10.144 -0.9117 -0.8309  0.5937
  560MOL0     C73827   1.974  -1.153  10.189 -0.5203 -0.8269  0.5229
  560MOL0     C73828   1.957  -1.278  10.283 -0.0069 -0.0474  0.6846
  560MOL0     C73829   1.810  -1.307  10.300  0.1252 -0.0995  0.6387
  560MOL0     C73830   1.786  -1.405  10.414 -0.3574 -0.3715 -0.5035
  560MOL0     C73831   1.638  -1.442  10.432 -0.5722 -0.6455  0.0202
  560MOL0    Cl73832   1.556  -1.539  10.302  0.2058  0.0773 -0.0486
  560MOL0     C73833   2.506  -0.905   9.854 -0.8302  0.3899 -0.3181
  560MOL0     C73834   2.617  -0.844   9.802  0.4218 -0.6422 -0.1843
  560MOL0     O73835   2.876  -0.708   9.821  0.4299  0.7381 -0.2346
  560MOL0     C73836   3.078  -0.625   9.634 -1.3234 -0.7598  0.1150
  560MOL0     C73837   3.168  -0.585   9.534 -0.0550  0.5797  1.1435
  560MOL0     N73838   3.827  -0.540   9.124  0.5595  0.9928 -0.7049
  560MOL0     N73839   3.947  -0.553   9.079  0.2019 -0.5638  0.2769
  560MOL0     C73840   4.126   0.237   8.273 -0.4457 -0.2713 -0.9045
  560MOL0     C73841   4.019   0.314   8.243 -0.0402 -0.1412  0.5157
  560MOL0     C73842   3.611   0.400   8.041  0.5945 -0.2893 -0.1462
  560MOL0     C73843   3.637   0.525   7.989  0.6067 -0.0664  0.3957
  560MOL0     C73844   3.537   0.586   7.914  0.1148 -0.0332 -0.5911
  560MOL0     C73845   3.406   0.535   7.909 -0.0292  0.1325  0.0440
  560MOL0     O73846   3.304   0.595   7.841 -0.1625 -0.2668 -0.4498
  560MOL0     C73847   3.311   0.708   7.753 -0.4217 -0.5446  0.2580
  560MOL0     C73848   3.177   0.755   7.686  0.9389  0.3755  0.0172
  560MOL0     C73849   3.061   0.796   7.778  0.4000 -0.0659  0.7746
  560MOL0     C73850   2.990   0.671   7.830  0.0754 -0.0376 -0.2560
  560MOL0     C73851   2.876   0.706   7.911 -0.1623 -0.0571 -0.4930
  560MOL0     C73852   2.782   0.736   7.983 -0.4957 -0.1880  0.2120
  560MOL0     C73853   3.388   0.409   7.964 -0.3069 -0.1560 -0.1669
  560MOL0     C73854   3.487   0.340   8.031  0.3826  0.0189 -0.4231
  560MOL0     H73855   3.940   0.146   7.957  0.8455 -1.9501  0.3922
  560MOL0     H73856   4.137   0.021   8.008  0.9740 -0.3645  0.0311
  560MOL0     H73857   4.302  -0.117   8.173  0.4114  0.5081  0.4745
  560MOL0     H73858   4.157  -0.128   8.262 -1.3106  0.6064  1.1607
  560MOL0     H73859   4.432  -0.081   8.383 -0.4652  1.2051  3.3617
  560MOL0     H73860   4.362  -0.236   8.358  1.0729  0.3005 -3.1991
  560MOL0     H73861   4.156  -0.158   8.506  0.2972 -0.5088  2.1409
  560MOL0     H73862   4.239  -0.012   8.521 -2.2426 -0.4363  1.0060
  560MOL0     H73863   4.391  -0.262   8.581 -0.0850  1.4677 -0.6945
  560MOL0     H73864   4.390  -0.108   8.661  3.6486 -1.8524 -0.6423
  560MOL0     H73865   4.151  -0.315   8.691 -1.8025  0.4728  4.5577
  560MOL0     H73866   4.169  -0.159   8.764  1.3872 -0.4003  1.9369
  560MOL0     H73867   4.364  -0.244   8.882 -0.0595 -0.1720 -0.1957
  560MOL0     H73868   4.363  -0.393   8.811  0.6023  0.5835 -1.7562
  560MOL0     H73869   4.254  -0.405   9.030  1.6718 -1.2788 -0.9300
  560MOL0     H73870   4.145  -0.272   9.002 -1.2582 -0.6053  0.5312
  560MOL0     H73871   4.145  -0.552   8.910  1.0633  1.1111  1.4753
  560MOL0     H73872   4.060  -0.449   8.804 -0.4894  0.1300 -0.4747
  560MOL0     H73873   3.864  -0.286   8.921 -0.1457  0.1678  0.9823
  560MOL0     H73874   3.579  -0.402   8.986  0.4264  2.2316 -0.2397
  560MOL0     H73875   3.633  -0.273   9.097  1.8344  0.8353 -0.9019
  560MOL0     H73876   3.594  -0.361   9.288 -2.1168  0.1736  0.4566
  560MOL0     H73877   3.594  -0.521   9.230  0.4571 -0.9039 -0.9867
  560MOL0     H73878   3.368  -0.303   9.180  0.0862 -0.6527 -0.6978
  560MOL0     H73879   3.370  -0.458   9.117  1.2903 -2.5358  1.5641
  560MOL0     H73880   3.316  -0.388   9.403 -3.0219  1.0323 -1.3925
  560MOL0     H73881   3.387  -0.549   9.386 -2.6547  0.9686  1.4675
  560MOL0     H73882   2.965  -0.582   9.267 -0.7571  2.3197  0.9393
  560MOL0     H73883   2.797  -0.628   9.443 -0.7241 -0.3379  0.0310
  560MOL0     H73884   2.475  -0.560   9.681 -1.6699  0.5948  0.5997
  560MOL0     H73885   2.257  -0.693   9.758 -0.2245 -0.8465 -2.1080
  560MOL0     H73886   2.297  -0.905  10.100 -3.9361  2.6306 -0.3034
  560MOL0     H73887   2.318  -1.060  10.014 -0.4870  0.5411 -1.0664
  560MOL0     H73888   2.059  -1.029   9.963 -0.6857 -2.2565  1.4904
  560MOL0     H73889   2.063  -0.931  10.108 -1.6222 -0.6595 -0.8568
  560MOL0     H73890   2.185  -1.115  10.225 -0.7080 -1.5355  0.5731
  560MOL0     H73891   2.160  -1.213  10.085  0.9559  0.6411 -0.0677
  560MOL0     H73892   1.941  -1.060  10.236 -0.3103 -0.7913  0.6014
  560MOL0     H73893   1.905  -1.167  10.105 -0.2387 -0.4518  0.2261
  560MOL0     H73894   2.003  -1.242  10.376  2.2506  4.5063 -1.8840
  560MOL0     H73895   2.004  -1.367  10.242 -1.1349 -0.3315 -0.0333
  560MOL0     H73896   1.766  -1.357  10.213  2.0860 -0.9069  0.0373
  560MOL0     H73897   1.758  -1.212  10.317  0.2417  0.3064 -1.1149
  560MOL0     H73898   1.839  -1.499  10.397  0.1927 -0.1144 -0.2474
  560MOL0     H73899   1.830  -1.364  10.506  1.2546 -4.7701  0.9595
  560MOL0     H73900   1.577  -1.352  10.449 -1.7834 -1.6518  1.1268
  560MOL0     H73901   1.638  -1.512  10.516  2.2705 -1.3419 -0.4530
  560MOL0     H73902   2.528  -0.999   9.904  2.8859  1.4553  0.3635
  560MOL0     H73903   2.713  -0.894   9.797  1.0909  0.4982  0.6412
  560MOL0     H73904   3.123  -0.634   9.733  1.6847  3.1602 -0.6470
  560MOL0     H73905   3.273  -0.571   9.554  0.2133  1.6827 -0.8040
  560MOL0     H73906   4.172   0.249   8.370  1.6209 -2.9707 -1.4224
  560MOL0     H73907   3.996   0.396   8.311  2.0877  2.5030 -1.7206
  560MOL0     H73908   3.729   0.582   7.998  0.9631 -0.5133 -0.3659
  560MOL0     H73909   3.545   0.683   7.867  0.4147 -0.7366 -2.0466
  560MOL0     H73910   3.390   0.696   7.678  1.4389  1.0020  1.8439
  560MOL0     H73911   3.353   0.796   7.803  1.2830 -1.5173  0.6416
  560MOL0     H73912   3.208   0.843   7.629  1.1144 -0.1793 -0.7509
  560MOL0     H73913   3.133   0.697   7.604 -1.1046  0.5215  0.9527
  560MOL0     H73914   2.985   0.851   7.722 -0.0252  2.4085  3.4921
  560MOL0     H73915   3.109   0.851   7.860 -0.0974 -0.6723  1.4773
  560MOL0     H73916   2.967   0.596   7.753  0.7278 -0.6207  0.1064
  560MOL0     H73917   3.059   0.613   7.892  1.6646  1.7440 -0.2590
  560MOL0     H73918   2.694   0.753   8.041 -0.7939 -0.6160 -0.1129
  560MOL0     H73919   3.292   0.363   7.943  0.3243 -2.1198  1.0426
  560MOL0     H73920   3.459   0.241   8.066  2.0614 -0.0409  0.8722
  561MOL0     O73921   6.723   6.895   7.056  0.1844  0.4367  0.1180
  561MOL0     C73922   6.764   6.940   6.946 -0.1969  0.8922 -0.4709
  561MOL0     O73923   6.681   6.972   6.839 -0.1862  0.7954  0.2154
  561MOL0     C73924   6.545   6.942   6.844  0.3506 -0.1104  0.2614
  561MOL0     C73925   6.480   6.846   6.771 -0.2066 -0.7188  0.3997
  561MOL0     C73926   6.341   6.833   6.783 -0.6673 -0.0088  0.0852
  561MOL0     C73927   6.269   6.914   6.863  0.4541 -0.1988 -0.1825
  561MOL0     O73928   6.135   6.894   6.862  0.4382  0.5124  0.0771
  561MOL0     C73929   6.052   6.994   6.932 -0.0518 -0.3553  0.9539
  561MOL0     C73930   5.907   6.965   6.875  0.9101  0.0737  0.3560
  561MOL0     C73931   5.856   6.825   6.912 -0.0621 -0.0636  0.7727
  561MOL0     C73932   5.711   6.782   6.856  0.4432 -1.0128  0.0211
  561MOL0     C73933   5.706   6.770   6.698  0.3634 -0.9377 -0.4423
  561MOL0     C73934   5.566   6.744   6.642  0.5393  1.0146  0.1747
  561MOL0     C73935   5.576   6.726   6.492 -0.4250 -0.6095 -0.3056
  561MOL0     C73936   5.444   6.730   6.416 -0.1146  0.0629 -0.1365
  561MOL0     N73937   5.334   6.656   6.478 -0.0595  0.3518  0.0209
  561MOL0     C73938   5.288   6.523   6.447 -0.4843 -0.3443 -0.2264
  561MOL0     C73939   5.179   6.494   6.510  0.6383  0.4926 -0.3012
  561MOL0     C73940   5.118   6.352   6.521 -0.3649 -0.5738 -0.4657
  561MOL0     C73941   4.978   6.340   6.586 -0.0881 -0.2635  0.0031
  561MOL0     C73942   4.922   6.196   6.591  0.9212 -0.4166 -0.6252
  561MOL0     C73943   4.827   6.171   6.708  0.8659  0.0032  0.1814
  561MOL0     O73944   4.718   6.263   6.710 -0.3678  0.1589 -0.0576
  561MOL0     C73945   4.620   6.232   6.798  0.6147 -0.0806 -0.6989
  561MOL0     C73946   4.602   6.113   6.875  0.0468  0.6638 -0.1418
  561MOL0     C73947   4.484   6.096   6.950 -1.1251  0.7176  0.0857
  561MOL0     C73948   4.373   6.184   6.946 -0.7088 -0.2650  0.2799
  561MOL0     C73949   4.242   6.156   7.015 -0.4493 -0.5442 -0.1092
  561MOL0     O73950   4.134   6.217   6.956 -0.6582 -0.2109 -0.3153
  561MOL0     C73951   4.002   6.211   6.986 -0.3377  0.0932 -0.8652
  561MOL0     C73952   3.921   6.286   6.903  0.8255  0.8245  0.2214
  561MOL0     C73953   3.781   6.297   6.938 -0.2832 -0.3592 -0.6754
  561MOL0     C73954   3.729   6.224   7.041  0.4294  0.4713 -0.0961
  561MOL0     O73955   3.588   6.226   7.075 -0.8263 -0.0741  0.1984
  561MOL0     C73956   3.503   6.156   6.975 -0.3191 -0.4522 -0.2347
  561MOL0     C73957   3.374   6.224   6.955  0.3200  0.6123 -0.1710
  561MOL0     C73958   3.289   6.221   7.088 -0.1765  0.0265  0.0368
  561MOL0     C73959   3.135   6.237   7.068 -0.4959  0.2998  0.0378
  561MOL0     C73960   3.055   6.237   7.191  0.2156  0.2731 -0.1331
  561MOL0     C73961   2.903   6.268   7.165  0.4076 -0.0264  0.6209
  561MOL0     C73962   2.823   6.250   7.293 -0.2244  0.0307  0.8283
  561MOL0     C73963   2.684   6.313   7.280  0.0614  0.1031  0.2496
  561MOL0    Cl73964   2.589   6.204   7.180 -0.5782  0.1873 -0.1321
  561MOL0     C73965   3.812   6.135   7.106 -0.8367  0.1219  0.6053
  561MOL0     C73966   3.951   6.135   7.089 -0.6242 -0.1640 -0.4042
  561MOL0     O73967   4.243   6.078   7.105  0.1393  0.1794 -0.5192
  561MOL0     C73968   4.386   6.292   6.857 -0.7559  0.5270  0.3133
  561MOL0     C73969   4.501   6.317   6.793 -0.3106 -0.6004 -0.1209
  561MOL0     N73970   5.145   6.617   6.577  0.2734  0.3655  0.7132
  561MOL0     N73971   5.238   6.704   6.555  0.7171  0.2278  0.0874
  561MOL0     C73972   6.335   7.010   6.949  0.4416  0.5921  0.4574
  561MOL0     C73973   6.468   7.023   6.930  0.5158  0.1764 -0.0437
  561MOL0     C73974   6.908   6.970   6.927  0.4494  0.3515  0.9921
  561MOL0     C73975   7.001   6.974   7.039 -0.2800 -0.1543  0.4415
  561MOL0     C73976   7.131   7.028   7.025 -0.1668 -0.0538 -0.0540
  561MOL0     C73977   7.180   7.068   6.898  0.3961  0.2302 -0.9244
  561MOL0     O73978   7.303   7.116   6.873  0.1597 -0.6320 -0.0012
  561MOL0     C73979   7.418   7.080   6.959  1.1478  0.0845  0.2960
  561MOL0     C73980   7.457   7.207   7.039  0.2871  0.2269  0.3860
  561MOL0     C73981   7.566   7.166   7.130 -0.0748 -0.4168  0.3997
  561MOL0     C73982   7.601   7.264   7.239 -0.1890  0.1137  0.3353
  561MOL0     C73983   7.618   7.396   7.197 -0.1522 -0.0070 -1.0889
  561MOL0     C73984   7.611   7.517   7.172 -0.2223 -0.5216 -0.7207
  561MOL0     C73985   7.089   7.054   6.789  0.5552 -0.8680  0.2545
  561MOL0     C73986   6.960   7.005   6.800 -0.3712 -0.3173  0.0288
  561MOL0     H73987   6.535   6.788   6.698  0.9631  1.7223 -0.7832
  561MOL0     H73988   6.289   6.763   6.719 -4.1333  2.2282  0.2167
  561MOL0     H73989   6.084   7.095   6.904 -3.4292  0.4711 -0.5352
  561MOL0     H73990   6.054   6.989   7.041 -0.2899  0.8911  1.0288
  561MOL0     H73991   5.911   6.982   6.767  0.3619  2.3595  0.6342
  561MOL0     H73992   5.842   7.038   6.924  1.2309  1.2803 -0.9381
  561MOL0     H73993   5.853   6.810   7.021  0.2457 -3.8964  0.3859
  561MOL0     H73994   5.930   6.755   6.873 -1.7692 -2.1282  1.1040
  561MOL0     H73995   5.684   6.683   6.895 -0.9960 -1.0319 -0.9422
  561MOL0     H73996   5.641   6.856   6.896  1.2604  0.5288 -1.3080
  561MOL0     H73997   5.774   6.687   6.674  1.3205  0.3421 -2.4960
  561MOL0     H73998   5.752   6.863   6.662  4.4132 -2.0147  1.3829
  561MOL0     H73999   5.488   6.819   6.656 -2.4323 -1.8683  0.3400
  561MOL0     H74000   5.527   6.653   6.689 -1.0967  1.1181 -0.8985
  561MOL0     H74001   5.646   6.797   6.447 -3.3992  0.7073 -3.2372
  561MOL0     H74002   5.610   6.624   6.469  1.2840  0.3366 -2.2573
  561MOL0     H74003   5.454   6.691   6.314 -0.1246  1.5806 -0.7388
  561MOL0     H74004   5.411   6.834   6.413  1.9761  0.7403 -1.2024
  561MOL0     H74005   5.348   6.447   6.399 -0.3992  0.9239 -2.2734
  561MOL0     H74006   5.187   6.290   6.579 -0.3066 -1.0073 -0.9990
  561MOL0     H74007   5.108   6.310   6.421  1.1325  0.9763 -1.3359
  561MOL0     H74008   4.911   6.412   6.539 -0.1582  0.9598  1.8717
  561MOL0     H74009   4.983   6.365   6.693 -3.6359 -0.6787  0.3805
  561MOL0     H74010   4.847   6.163   6.519 -1.2211 -4.2396  2.8538
  561MOL0     H74011   4.995   6.114   6.585  0.5861 -0.7913  0.1574
  561MOL0     H74012   4.886   6.200   6.796  2.9747  2.0473 -1.7441
  561MOL0     H74013   4.793   6.067   6.702 -1.0751  0.7027 -3.6616
  561MOL0     H74014   4.685   6.046   6.893 -0.0470 -0.0659 -2.2170
  561MOL0     H74015   4.484   6.017   7.025 -1.7327 -0.0369 -0.6867
  561MOL0     H74016   3.949   6.342   6.815  2.4668 -1.0710 -0.5229
  561MOL0     H74017   3.708   6.343   6.872 -0.3412  2.9799  1.4999
  561MOL0     H74018   3.483   6.058   7.020  1.4071 -0.3021  0.9862
  561MOL0     H74019   3.553   6.139   6.880  0.0491 -0.1073 -0.1042
  561MOL0     H74020   3.315   6.169   6.880  1.2585 -0.2662 -0.2883
  561MOL0     H74021   3.403   6.325   6.925  1.2869  0.9884  1.9061
  561MOL0     H74022   3.335   6.299   7.149  1.3115 -2.6265  2.5346
  561MOL0     H74023   3.297   6.118   7.126 -2.1608 -1.3720 -2.8967
  561MOL0     H74024   3.117   6.329   7.012  1.5510  0.0310 -1.1407
  561MOL0     H74025   3.094   6.163   6.998 -1.9700  0.7211  0.4080
  561MOL0     H74026   3.093   6.310   7.263 -1.4567  0.1984  0.9081
  561MOL0     H74027   3.063   6.138   7.236 -1.1341  0.2531  0.1134
  561MOL0     H74028   2.852   6.201   7.095  0.6992 -0.5908  0.9399
  561MOL0     H74029   2.908   6.371   7.129 -0.5323 -0.4743 -0.8984
  561MOL0     H74030   2.804   6.144   7.310 -1.1468  0.1764  0.7170
  561MOL0     H74031   2.867   6.302   7.379 -3.0365  3.8857  0.1978
  561MOL0     H74032   2.696   6.413   7.237 -0.4668  0.1468  0.2058
  561MOL0     H74033   2.628   6.317   7.374 -1.4263 -0.4568 -0.5819
  561MOL0     H74034   3.764   6.064   7.172 -0.3217  0.4988  1.3984
  561MOL0     H74035   4.015   6.070   7.148 -0.1357 -1.5270 -2.3398
  561MOL0     H74036   4.299   6.346   6.822 -0.5279  1.0057  0.4792
  561MOL0     H74037   4.500   6.402   6.724 -1.6314 -1.0867 -0.7195
  561MOL0     H74038   6.292   7.076   7.023  1.0329  0.1060  1.2524
  561MOL0     H74039   6.516   7.110   6.972  0.8744 -0.5884  1.1814
  561MOL0     H74040   6.961   6.947   7.136 -1.1106  1.4280  0.5746
  561MOL0     H74041   7.199   7.026   7.110  1.6591 -1.1854 -1.4761
  561MOL0     H74042   7.502   7.046   6.898  2.1320 -0.2965  1.8333
  561MOL0     H74043   7.392   6.999   7.027 -1.1375 -0.5237 -1.1710
  561MOL0     H74044   7.481   7.292   6.974  0.2769 -1.2881 -1.6990
  561MOL0     H74045   7.379   7.242   7.106  0.4233  2.3083 -0.4690
  561MOL0     H74046   7.657   7.144   7.073  0.3042  2.7149 -0.3980
  561MOL0     H74047   7.539   7.079   7.189 -0.0356  0.9532  2.5389
  561MOL0     H74048   7.521   7.262   7.314 -2.7133 -1.9727 -2.1824
  561MOL0     H74049   7.686   7.226   7.297  0.3312  2.4832  1.2518
  561MOL0     H74050   7.611   7.624   7.168 -0.9176 -0.4215  1.0772
  561MOL0     H74051   7.111   7.096   6.691 -2.8014 -0.5450 -0.4827
  561MOL0     H74052   6.888   7.018   6.720  0.6537 -2.1478 -1.2645
  562MOL0     O74053   0.292   3.003  11.156 -0.1041 -0.6069  0.6067
  562MOL0     C74054   0.411   2.995  11.118 -0.6215  0.3335  0.0132
  562MOL0     O74055   0.463   2.893  11.040  0.2041  0.8337  0.0070
  562MOL0     C74056   0.376   2.796  11.001 -0.6151  0.2457 -0.3225
  562MOL0     C74057   0.323   2.715  11.096 -0.1272  0.0986 -0.0657
  562MOL0     C74058   0.229   2.617  11.070  0.5194 -0.9536 -0.0465
  562MOL0     C74059   0.181   2.599  10.941  0.0737 -0.1659  0.3377
  562MOL0     O74060   0.077   2.514  10.918 -1.1271  0.2798  0.1981
  562MOL0     C74061  -0.027   2.511  11.006  0.9669 -0.3569 -0.5624
  562MOL0     C74062  -0.155   2.476  10.925  0.0169  0.9158 -0.6286
  562MOL0     C74063  -0.190   2.585  10.833  0.3479 -0.1314  0.0500
  562MOL0     C74064  -0.294   2.546  10.727 -0.3992  1.0717  0.2117
  562MOL0     C74065  -0.445   2.545  10.787 -0.1562 -0.7452 -0.1799
  562MOL0     C74066  -0.529   2.475  10.686 -0.7481 -0.0365 -0.2166
  562MOL0     C74067  -0.674   2.530  10.682  0.5117  0.4595 -0.3815
  562MOL0     C74068  -0.768   2.460  10.581  0.7395  0.2975 -0.7287
  562MOL0     N74069  -0.915   2.505  10.589  0.4760  0.2852 -0.1466
  562MOL0     C74070  -0.969   2.628  10.558 -1.2888  0.3875  0.1665
  562MOL0     C74071  -1.099   2.616  10.560  0.5094 -0.1293 -0.6887
  562MOL0     C74072  -1.198   2.729  10.533 -0.2407 -0.0720  0.3275
  562MOL0     C74073  -1.281   2.698  10.408  0.1977  0.6934 -0.6317
  562MOL0     C74074  -1.390   2.807  10.400  0.8868  0.2767 -0.4698
  562MOL0     C74075  -1.510   2.756  10.330 -0.5476 -0.3513 -0.2278
  562MOL0     O74076  -1.612   2.862  10.324  0.2469  0.1976 -0.0658
  562MOL0     C74077  -1.743   2.831  10.294  0.3593  0.4457 -0.0022
  562MOL0     C74078  -1.790   2.705  10.247  0.0138  0.0828  0.2996
  562MOL0     C74079  -1.927   2.684  10.213 -0.4957  0.3947 -0.8972
  562MOL0     C74080  -2.025   2.783  10.230  0.3537  0.6098 -0.0696
  562MOL0     C74081  -2.173   2.747  10.234 -0.6112  0.0284 -0.1570
  562MOL0     O74082  -2.249   2.846  10.292 -0.6250  0.8435  0.3483
  562MOL0     C74083  -2.386   2.839  10.291 -0.3894  0.3327  0.5964
  562MOL0     C74084  -2.451   2.920  10.384  0.6637 -0.0563 -0.3543
  562MOL0     C74085  -2.592   2.924  10.411 -0.0465 -0.6079 -0.1431
  562MOL0     C74086  -2.672   2.845  10.319  0.1343  0.0766 -1.0905
  562MOL0     O74087  -2.807   2.841  10.324  0.3075 -0.2362  0.3584
  562MOL0     C74088  -2.867   2.810  10.445 -0.0897  0.4721 -0.7114
  562MOL0     C74089  -2.902   2.665  10.461 -0.8444  0.5088  0.2312
  562MOL0     C74090  -2.969   2.628  10.585  0.4488 -0.2661 -0.7976
  562MOL0     C74091  -2.975   2.473  10.597 -0.3061  0.4212 -0.4591
  562MOL0     C74092  -3.053   2.420  10.717  0.1646  0.0383 -0.7196
  562MOL0     C74093  -3.203   2.439  10.714  0.2932  0.4564 -0.1108
  562MOL0     C74094  -3.267   2.381  10.589  0.4274 -0.9388 -0.2977
  562MOL0     C74095  -3.410   2.333  10.624 -0.4716 -0.0979  0.6296
  562MOL0    Cl74096  -3.514   2.315  10.477  0.1265  0.1411 -0.0075
  562MOL0     C74097  -2.608   2.767  10.229  0.2208 -1.2903  0.0663
  562MOL0     C74098  -2.468   2.754  10.215  0.1989 -0.4016 -0.3186
  562MOL0     O74099  -2.212   2.636  10.196  0.0263 -0.0757  0.6455
  562MOL0     C74100  -1.985   2.910  10.264  0.5446  0.1631 -0.0680
  562MOL0     C74101  -1.848   2.933  10.292 -0.5253 -0.6806  0.1847
  562MOL0     N74102  -1.135   2.485  10.591  0.9304 -0.3251  0.6296
  562MOL0     N74103  -1.023   2.421  10.607 -0.0763  0.0150 -0.8757
  562MOL0     C74104   0.233   2.680  10.837 -0.3784 -0.2949  0.8035
  562MOL0     C74105   0.329   2.776  10.872 -0.0136 -0.4851  0.4420
  562MOL0     C74106   0.515   3.084  11.167 -0.4601  1.0694 -0.5873
  562MOL0     C74107   0.483   3.217  11.188  0.3857 -1.1896 -0.7466
  562MOL0     C74108   0.569   3.313  11.246 -1.0092 -0.0777 -0.4310
  562MOL0     C74109   0.699   3.282  11.282 -0.0518  0.3414  0.1518
  562MOL0     O74110   0.795   3.355  11.347 -0.0104 -0.1935  0.5609
  562MOL0     C74111   0.752   3.474  11.397  0.2209 -0.1559 -0.1407
  562MOL0     C74112   0.753   3.604  11.304 -0.3205 -0.8745 -0.6396
  562MOL0     C74113   0.887   3.634  11.246  0.1295 -0.3910 -0.8414
  562MOL0     C74114   0.999   3.670  11.344  0.8089  0.3825  0.3467
  562MOL0     C74115   1.099   3.752  11.269 -0.5015 -0.3835  1.1768
  562MOL0     C74116   1.184   3.811  11.196  0.4484 -0.1469 -0.2845
  562MOL0     C74117   0.741   3.149  11.252 -0.0842  0.2473 -0.9432
  562MOL0     C74118   0.650   3.052  11.198 -0.9058 -0.6245 -0.0817
  562MOL0     H74119   0.355   2.736  11.198 -0.5557  1.1502 -0.1345
  562MOL0     H74120   0.176   2.564  11.149  0.1664 -0.8793 -0.2334
  562MOL0     H74121  -0.042   2.606  11.057  0.3130 -1.2531  1.0090
  562MOL0     H74122  -0.012   2.443  11.091 -2.2783 -0.7151 -0.1602
  562MOL0     H74123  -0.241   2.453  10.987 -0.5411  1.9378 -0.9894
  562MOL0     H74124  -0.131   2.390  10.862 -2.1248 -0.3409  0.1693
  562MOL0     H74125  -0.103   2.619  10.777  1.3757 -0.8069  1.1980
  562MOL0     H74126  -0.218   2.676  10.886  1.0783  0.4306 -0.5041
  562MOL0     H74127  -0.286   2.607  10.636 -1.6412 -2.8008 -2.7510
  562MOL0     H74128  -0.272   2.444  10.695 -0.0874  0.7174  1.5356
  562MOL0     H74129  -0.484   2.648  10.791  2.9279  0.4963  1.3532
  562MOL0     H74130  -0.445   2.498  10.886 -3.0977 -1.4731 -0.4385
  562MOL0     H74131  -0.537   2.371  10.722  0.6698 -0.4067 -0.9181
  562MOL0     H74132  -0.484   2.486  10.587  1.7186  1.9354  1.0257
  562MOL0     H74133  -0.720   2.516  10.781  1.8727  1.0141  0.3645
  562MOL0     H74134  -0.669   2.638  10.664  0.7235  0.8338  1.6250
  562MOL0     H74135  -0.776   2.352  10.595  2.2253  0.3252  0.6981
  562MOL0     H74136  -0.734   2.470  10.478  1.8536  0.1799 -0.3866
  562MOL0     H74137  -0.908   2.716  10.536 -1.6496  0.7655  0.6648
  562MOL0     H74138  -1.140   2.821  10.518 -0.0485  0.2481  2.6708
  562MOL0     H74139  -1.261   2.738  10.622 -1.2627  0.1521 -0.3963
  562MOL0     H74140  -1.322   2.597  10.405 -0.4422  0.9438 -3.5672
  562MOL0     H74141  -1.217   2.693  10.319  1.8332 -1.3684  0.5721
  562MOL0     H74142  -1.417   2.824  10.505  1.9166  1.6237 -0.3836
  562MOL0     H74143  -1.358   2.900  10.351  2.8198 -1.5214 -2.8592
  562MOL0     H74144  -1.555   2.679  10.393  1.3899 -0.3495  1.2206
  562MOL0     H74145  -1.482   2.714  10.233  0.7711 -1.0639  0.4282
  562MOL0     H74146  -1.734   2.612  10.241 -0.8499 -0.4893  0.8184
  562MOL0     H74147  -1.963   2.592  10.169  1.5927 -0.5549 -0.7222
  562MOL0     H74148  -2.383   2.982  10.441 -0.8774  1.9033 -0.5467
  562MOL0     H74149  -2.641   2.981  10.489  3.0284  1.9558  0.0730
  562MOL0     H74150  -2.963   2.861  10.460 -0.0437 -0.0088  1.6163
  562MOL0     H74151  -2.811   2.850  10.530  0.5340  2.1889 -1.8775
  562MOL0     H74152  -2.804   2.615  10.458 -1.8561 -1.5420 -2.1425
  562MOL0     H74153  -2.961   2.636  10.373  1.0298 -1.2264 -0.5652
  562MOL0     H74154  -3.063   2.684  10.591  0.5428  0.2788 -3.3353
  562MOL0     H74155  -2.901   2.652  10.666 -1.0215  0.5466  0.2406
  562MOL0     H74156  -3.013   2.420  10.509  0.9054 -1.6392  0.1816
  562MOL0     H74157  -2.877   2.429  10.616 -0.4917  0.6426  1.1041
  562MOL0     H74158  -3.012   2.466  10.807  2.3082 -0.6522 -1.2741
  562MOL0     H74159  -3.026   2.314  10.723 -2.5343 -0.8479 -2.4869
  562MOL0     H74160  -3.240   2.542  10.720  1.1672  0.7138  3.7323
  562MOL0     H74161  -3.241   2.384  10.801 -0.3801  0.6630 -0.2725
  562MOL0     H74162  -3.259   2.459  10.513 -1.4388  2.0213  2.2977
  562MOL0     H74163  -3.203   2.301  10.550  3.7986  0.9973  0.7850
  562MOL0     H74164  -3.462   2.394  10.699  3.2944  1.3526  2.2721
  562MOL0     H74165  -3.403   2.231  10.664  1.4256  0.2636  1.3214
  562MOL0     H74166  -2.666   2.714  10.154 -3.4043  3.5086 -1.0089
  562MOL0     H74167  -2.428   2.690  10.137  3.8576  0.3739  0.7373
  562MOL0     H74168  -2.053   2.989  10.294  1.1643  1.6242 -2.2449
  562MOL0     H74169  -1.825   3.035  10.323 -2.4908  0.5238 -1.9770
  562MOL0     H74170   0.188   2.658  10.741  1.9520 -0.7969 -0.2424
  562MOL0     H74171   0.360   2.845  10.794  1.2476  0.1221  1.4462
  562MOL0     H74172   0.385   3.261  11.170  0.2296 -2.2375 -2.7679
  562MOL0     H74173   0.544   3.419  11.254 -2.2446 -0.2463 -1.7107
  562MOL0     H74174   0.825   3.503  11.473  1.1699  1.4088 -1.5819
  562MOL0     H74175   0.657   3.461  11.450  0.3898 -2.1842 -0.2356
  562MOL0     H74176   0.681   3.586  11.223 -0.9762 -0.5040 -0.1529
  562MOL0     H74177   0.713   3.688  11.361 -1.8713 -1.1932 -1.1972
  562MOL0     H74178   0.873   3.726  11.189  0.6708 -1.7787 -3.3381
  562MOL0     H74179   0.920   3.568  11.166  0.2837 -1.3015 -0.0455
  562MOL0     H74180   0.954   3.735  11.420  2.2325  1.0140  0.6815
  562MOL0     H74181   1.034   3.580  11.395  1.6346  2.0352  2.8991
  562MOL0     H74182   1.247   3.860  11.126  3.0726  1.3820  2.8761
  562MOL0     H74183   0.842   3.121  11.278  0.1798 -0.7340 -2.8069
  562MOL0     H74184   0.686   2.952  11.179 -1.9056 -0.6538 -2.0329
  563MOL0     O74185   5.667   6.531   9.988 -0.3533 -0.1920 -1.1045
  563MOL0     C74186   5.656   6.416  10.021  0.5636 -0.2558  0.0513
  563MOL0     O74187   5.542   6.359  10.055 -0.8314  0.1227  0.2493
  563MOL0     C74188   5.430   6.431  10.045 -0.8217 -0.2923 -0.4892
  563MOL0     C74189   5.408   6.552  10.110 -0.1922  1.0939 -0.4645
  563MOL0     C74190   5.289   6.617  10.096 -0.4986  0.1066 -0.2422
  563MOL0     C74191   5.178   6.564  10.022  0.0551 -0.5386 -0.9964
  563MOL0     O74192   5.064   6.643   9.991 -0.7832 -0.2619  0.0358
  563MOL0     C74193   5.082   6.784   9.973 -0.2392  0.3031  0.5671
  563MOL0     C74194   4.962   6.864   9.923  0.3300  0.4720 -0.4487
  563MOL0     C74195   4.837   6.841  10.006  0.1117  0.0077  0.0516
  563MOL0     C74196   4.729   6.927   9.959  0.4098  0.1722 -0.7383
  563MOL0     C74197   4.600   6.913  10.040 -0.1143  0.0075  0.0712
  563MOL0     C74198   4.568   6.784  10.125  0.4930  0.3445 -0.2565
  563MOL0     C74199   4.428   6.789  10.161 -0.1091 -0.5549 -0.2327
  563MOL0     C74200   4.378   6.657  10.218 -0.2324  0.3968 -0.2845
  563MOL0     N74201   4.254   6.662  10.292 -0.0137 -0.4805 -0.0257
  563MOL0     C74202   4.136   6.630  10.230 -1.2995  0.0430 -0.1793
  563MOL0     C74203   4.053   6.625  10.341 -0.2586  0.2125  0.0355
  563MOL0     C74204   3.908   6.574  10.343 -0.2324  0.3612  0.8626
  563MOL0     C74205   3.887   6.429  10.401  0.0903  0.5670  0.0501
  563MOL0     C74206   3.747   6.379  10.364  0.2245  1.1128 -0.5164
  563MOL0     C74207   3.640   6.451  10.447 -0.0424  0.4650 -0.0245
  563MOL0     O74208   3.524   6.383  10.413 -0.0149  0.7474 -0.1849
  563MOL0     C74209   3.402   6.430  10.467  0.0112  0.5560 -0.1469
  563MOL0     C74210   3.399   6.536  10.548 -0.0104  0.5948  0.6553
  563MOL0     C74211   3.278   6.586  10.592 -0.0720 -0.0007  0.1490
  563MOL0     C74212   3.159   6.524  10.551 -0.0369 -0.5455 -0.5105
  563MOL0     C74213   3.031   6.562  10.612  0.8363 -0.5964 -0.7261
  563MOL0     O74214   2.916   6.489  10.573 -0.3294  0.2768  0.1993
  563MOL0     C74215   2.794   6.501  10.636  0.6537 -0.0482 -0.5061
  563MOL0     C74216   2.728   6.387  10.680 -0.0292 -0.5485  0.8228
  563MOL0     C74217   2.598   6.398  10.727  0.2557 -0.7887  0.3431
  563MOL0     C74218   2.532   6.525  10.727 -0.2742 -0.1112 -0.8224
  563MOL0     O74219   2.402   6.534  10.781  0.0971 -0.2444 -0.1371
  563MOL0     C74220   2.349   6.416  10.850  0.3568  0.2017 -0.6661
  563MOL0     C74221   2.216   6.432  10.936 -0.2422  0.4676  0.4989
  563MOL0     C74222   2.196   6.338  11.052  0.5440 -0.1998 -0.2011
  563MOL0     C74223   2.052   6.345  11.109 -1.0472 -0.3195 -0.9104
  563MOL0     C74224   2.025   6.259  11.237  0.3981  0.5322 -0.0439
  563MOL0     C74225   2.100   6.311  11.362  0.2777  0.1173 -0.5370
  563MOL0     C74226   2.053   6.449  11.400  0.3717  0.1530  0.5669
  563MOL0     C74227   1.974   6.444  11.529 -0.2621  0.2357 -0.1013
  563MOL0    Cl74228   1.814   6.378  11.512  0.2745 -0.3340  0.0314
  563MOL0     C74229   2.599   6.643  10.687 -0.1945 -0.0939 -0.2737
  563MOL0     C74230   2.732   6.630  10.645 -0.3974  0.8427  0.7829
  563MOL0     O74231   3.034   6.651  10.702  0.0470  0.2888 -0.9481
  563MOL0     C74232   3.160   6.415  10.461  0.2656  0.7881 -0.3281
  563MOL0     C74233   3.287   6.364  10.432  1.2137  0.4174  0.0005
  563MOL0     N74234   4.125   6.656  10.457 -0.6227 -0.1431  0.3752
  563MOL0     N74235   4.253   6.678  10.422 -0.3394  0.2734 -0.0770
  563MOL0     C74236   5.198   6.441   9.964 -0.3559  0.7559 -0.5073
  563MOL0     C74237   5.324   6.371   9.972  0.3711  0.1514 -0.2429
  563MOL0     C74238   5.776   6.341  10.007 -0.7109  0.7183  0.6230
  563MOL0     C74239   5.790   6.207  10.051 -0.4103 -0.9608 -0.7214
  563MOL0     C74240   5.913   6.142  10.043  0.6274  0.0662 -0.3524
  563MOL0     C74241   6.033   6.201   9.996  0.3854 -0.7023 -1.1075
  563MOL0     O74242   6.140   6.118   9.997 -0.3477  0.2330 -0.6217
  563MOL0     C74243   6.266   6.156   9.940  0.7806  0.5539  0.6139
  563MOL0     C74244   6.363   6.043   9.955 -0.0035  0.0143  0.8598
  563MOL0     C74245   6.510   6.084   9.898 -0.5730 -0.3793  0.9277
  563MOL0     C74246   6.614   5.980   9.947  0.8899 -0.1142  0.4689
  563MOL0     C74247   6.750   6.009   9.909 -0.3461  0.7423 -0.2273
  563MOL0     C74248   6.867   6.042   9.890  0.1249 -0.7485  0.1169
  563MOL0     C74249   6.023   6.332   9.944  1.2956  0.6346  0.2559
  563MOL0     C74250   5.898   6.402   9.950  0.4706  0.7558 -0.7300
  563MOL0     H74251   5.489   6.597  10.167  1.5780 -2.5982  0.2136
  563MOL0     H74252   5.279   6.718  10.134  1.5530 -0.4270  1.9899
  563MOL0     H74253   5.160   6.806   9.899 -0.0071 -1.0836  0.3862
  563MOL0     H74254   5.102   6.832  10.069  2.9770  1.6734 -0.6413
  563MOL0     H74255   4.949   6.823   9.822  0.3022 -0.6972  0.0082
  563MOL0     H74256   4.989   6.970   9.923 -0.9008  0.8031  0.8556
  563MOL0     H74257   4.861   6.876  10.107 -2.0776  1.0524  0.2656
  563MOL0     H74258   4.812   6.735  10.016 -0.5760 -0.1003 -2.2651
  563MOL0     H74259   4.759   7.033   9.955  2.2615 -0.3041 -0.2294
  563MOL0     H74260   4.692   6.897   9.861 -1.7686 -1.5534  0.5265
  563MOL0     H74261   4.510   6.946   9.986 -1.2001  0.1275  1.8801
  563MOL0     H74262   4.613   6.987  10.120 -2.9782 -0.4912  1.1290
  563MOL0     H74263   4.632   6.783  10.214  0.4651  0.8747 -0.2256
  563MOL0     H74264   4.585   6.691  10.070  1.3927  0.4827 -0.2381
  563MOL0     H74265   4.417   6.874  10.229  1.6621  1.1722 -1.9607
  563MOL0     H74266   4.370   6.809  10.071 -2.0061 -1.0193  0.8321
  563MOL0     H74267   4.462   6.623  10.279  1.6076  4.3646 -0.2336
  563MOL0     H74268   4.368   6.585  10.137  1.3098 -2.4784  1.9088
  563MOL0     H74269   4.118   6.598  10.128  0.4458  2.0153 -1.1820
  563MOL0     H74270   3.879   6.573  10.238  0.9107 -2.2076  0.4864
  563MOL0     H74271   3.857   6.646  10.407 -4.4487  0.3385 -2.0654
  563MOL0     H74272   3.902   6.428  10.509  0.1545 -3.5772  0.1389
  563MOL0     H74273   3.961   6.357  10.365  0.6952  0.0956  2.1424
  563MOL0     H74274   3.742   6.401  10.257  3.6174  2.4420 -0.5292
  563MOL0     H74275   3.741   6.273  10.392 -1.9936  1.8000  2.0440
  563MOL0     H74276   3.632   6.556  10.415 -2.5002 -0.5607 -3.3256
  563MOL0     H74277   3.665   6.437  10.552 -0.9767 -0.8195  0.0515
  563MOL0     H74278   3.489   6.566  10.600  0.2365  0.5615  0.2447
  563MOL0     H74279   3.268   6.656  10.674  0.4646  0.9002 -0.5406
  563MOL0     H74280   2.784   6.294  10.680  1.9334  0.4964 -1.8956
  563MOL0     H74281   2.545   6.318  10.778 -1.4280  1.4149  2.2637
  563MOL0     H74282   2.420   6.388  10.928  0.8425  2.9695 -0.0193
  563MOL0     H74283   2.324   6.336  10.780  2.2643 -1.1832  0.1341
  563MOL0     H74284   2.132   6.418  10.867  0.7578  1.0974 -0.8820
  563MOL0     H74285   2.204   6.536  10.966 -1.1559  0.7538 -0.7883
  563MOL0     H74286   2.264   6.359  11.135  0.6272 -3.5296  0.7376
  563MOL0     H74287   2.211   6.235  11.018  0.1281 -0.5652  0.7070
  563MOL0     H74288   2.022   6.450  11.112  0.1246  0.0548 -1.5138
  563MOL0     H74289   1.988   6.298  11.034 -1.4499  1.5287 -1.8032
  563MOL0     H74290   2.061   6.157  11.220 -1.4652 -0.2791  0.6674
  563MOL0     H74291   1.918   6.253  11.256  0.4560 -2.2691 -0.1811
  563MOL0     H74292   2.207   6.316  11.339 -0.1033 -1.1295 -2.9429
  563MOL0     H74293   2.085   6.238  11.442 -1.5744 -0.1365 -1.0612
  563MOL0     H74294   2.133   6.520  11.421 -0.0141  0.1429  2.1538
  563MOL0     H74295   1.992   6.496  11.322 -1.2407 -2.9646 -0.2289
  563MOL0     H74296   1.964   6.548  11.562  0.2951  1.1053 -2.4963
  563MOL0     H74297   2.031   6.385  11.601 -1.1091  0.3988  0.7212
  563MOL0     H74298   2.555   6.741  10.700  0.3142  0.4126 -2.0410
  563MOL0     H74299   2.785   6.721  10.618 -3.1080  2.4197  0.4251
  563MOL0     H74300   3.075   6.353  10.436  1.3379 -1.2907  0.9397
  563MOL0     H74301   3.283   6.276  10.368  0.9986 -0.2971  0.9699
  563MOL0     H74302   5.112   6.403   9.909  0.8151  0.6782 -2.3720
  563MOL0     H74303   5.335   6.268   9.938 -0.0491 -0.1684  0.5649
  563MOL0     H74304   5.707   6.160  10.101 -0.8956  2.0824  1.6696
  563MOL0     H74305   5.917   6.037  10.073  0.9049 -0.3691 -1.8477
  563MOL0     H74306   6.308   6.248   9.981  1.2404  1.2250 -1.2424
  563MOL0     H74307   6.233   6.171   9.837 -2.6798 -1.0183  1.3223
  563MOL0     H74308   6.374   6.010  10.059  0.7119 -1.3878  0.3669
  563MOL0     H74309   6.323   5.956   9.901  2.8053 -0.5315 -0.5286
  563MOL0     H74310   6.536   6.176   9.951 -0.4498 -1.4478  2.7904
  563MOL0     H74311   6.512   6.095   9.789 -0.9034 -1.6611  0.7831
  563MOL0     H74312   6.612   5.973  10.056 -0.3698 -0.5192  0.4469
  563MOL0     H74313   6.585   5.884   9.903  0.5764  1.1408 -2.2805
  563MOL0     H74314   6.970   6.069   9.878  0.0377 -0.2470  0.4566
  563MOL0     H74315   6.109   6.389   9.911  1.4108  2.8878  3.9183
  563MOL0     H74316   5.890   6.502   9.910 -2.6449  1.6623  1.8036
  564MOL0     O74317   3.692   6.024   2.012  0.2301 -0.0038  0.3474
  564MOL0     C74318   3.742   5.950   1.925 -0.0122  0.5587  0.9332
  564MOL0     O74319   3.677   5.878   1.834  0.2503 -0.4087  0.1117
  564MOL0     C74320   3.545   5.914   1.806 -0.2405  0.0789  0.4040
  564MOL0     C74321   3.529   6.009   1.705 -0.3721 -0.0191  1.0510
  564MOL0     C74322   3.402   6.054   1.661  0.2165  0.0551  0.0850
  564MOL0     C74323   3.287   5.991   1.716  0.0457 -0.8575 -0.0262
  564MOL0     O74324   3.163   6.020   1.675  0.2601  0.3533 -0.0878
  564MOL0     C74325   3.089   6.089   1.775  0.2838 -0.2792 -0.0226
  564MOL0     C74326   2.974   6.171   1.723 -0.3366  0.6169  0.2817
  564MOL0     C74327   2.840   6.110   1.770  0.6820 -0.7561 -0.1536
  564MOL0     C74328   2.730   6.200   1.709 -0.2535  0.4434  0.1812
  564MOL0     C74329   2.593   6.141   1.722  0.5252  0.7326 -0.3112
  564MOL0     C74330   2.516   6.156   1.856 -0.4427  0.1766  0.0887
  564MOL0     C74331   2.365   6.132   1.838 -0.2348  0.2281 -0.7286
  564MOL0     C74332   2.288   6.122   1.970  0.7477  0.1983 -0.3124
  564MOL0     N74333   2.230   5.989   1.977 -0.3275  0.5362 -0.0157
  564MOL0     C74334   2.109   5.938   1.914 -0.8822 -0.3619  0.7342
  564MOL0     C74335   2.086   5.817   1.974  0.5706  0.2708 -0.5036
  564MOL0     C74336   1.956   5.730   1.965  0.7784 -0.0673 -0.5946
  564MOL0     C74337   1.948   5.589   1.895  0.0142 -0.1499 -0.1362
  564MOL0     C74338   2.033   5.492   1.973 -1.0705 -0.5573  0.7248
  564MOL0     C74339   1.994   5.468   2.120  0.0828  0.2702 -0.5413
  564MOL0     O74340   1.867   5.395   2.114  0.6733 -0.4147  0.6971
  564MOL0     C74341   1.780   5.414   2.221 -0.5837  0.3883  0.1094
  564MOL0     C74342   1.678   5.510   2.228  0.5194 -1.3534  0.5297
  564MOL0     C74343   1.600   5.524   2.338 -0.2447 -0.5386  0.2916
  564MOL0     C74344   1.620   5.443   2.450  0.9325 -1.5787 -0.1743
  564MOL0     C74345   1.555   5.472   2.574  0.4510  0.5687 -0.1941
  564MOL0     O74346   1.509   5.596   2.595  0.1430 -0.0697  0.1871
  564MOL0     C74347   1.433   5.605   2.700  0.7563 -0.6417  1.0303
  564MOL0     C74348   1.292   5.596   2.667 -0.2140 -0.1501 -0.4561
  564MOL0     C74349   1.205   5.592   2.777 -0.2033  0.9806 -0.0193
  564MOL0     C74350   1.248   5.596   2.905  0.3555  0.1813 -0.6653
  564MOL0     O74351   1.153   5.599   2.997  0.9204  1.0800 -0.0269
  564MOL0     C74352   1.185   5.579   3.129  0.3653  0.4869  0.3132
  564MOL0     C74353   1.064   5.598   3.228  0.7908 -0.4443  0.8458
  564MOL0     C74354   1.085   5.535   3.363 -0.4304  0.4792  0.5214
  564MOL0     C74355   0.990   5.575   3.477  0.6516 -0.2587 -0.1498
  564MOL0     C74356   1.025   5.493   3.599 -0.2634 -0.0295  0.0822
  564MOL0     C74357   0.950   5.537   3.723 -0.0484 -0.5639 -0.1442
  564MOL0     C74358   0.803   5.492   3.736 -0.5270  0.0328 -0.3197
  564MOL0     C74359   0.758   5.511   3.879  0.0849  0.5949  0.5716
  564MOL0    Cl74360   0.841   5.388   3.969  0.1028  0.0448  0.6596
  564MOL0     C74361   1.385   5.613   2.932  1.0821  0.3048  0.3400
  564MOL0     C74362   1.481   5.620   2.830  0.5025 -0.0834 -1.2648
  564MOL0     O74363   1.566   5.386   2.656 -0.4446  0.7636  0.4108
  564MOL0     C74364   1.718   5.345   2.442 -0.0536  0.5266 -0.1337
  564MOL0     C74365   1.801   5.330   2.332  0.4040 -0.6393  0.5687
  564MOL0     N74366   2.207   5.778   2.035  0.0013  0.2616  0.1415
  564MOL0     N74367   2.289   5.883   2.039  0.3596  0.0659  0.5119
  564MOL0     C74368   3.299   5.885   1.810 -0.0628 -0.2476 -0.1579
  564MOL0     C74369   3.430   5.856   1.863 -0.3191 -0.4838  0.0131
  564MOL0     C74370   3.890   5.923   1.931 -0.2019  0.0730  0.8780
  564MOL0     C74371   3.955   5.844   1.833  0.0047 -0.4836  0.1852
  564MOL0     C74372   4.091   5.806   1.851 -0.3463  0.2459  0.7267
  564MOL0     C74373   4.165   5.852   1.955 -0.7165 -0.2732 -0.8181
  564MOL0     O74374   4.293   5.835   1.993 -0.2194  0.4008  0.1780
  564MOL0     C74375   4.382   5.784   1.895  0.7470  0.3180 -0.4101
  564MOL0     C74376   4.528   5.834   1.921 -0.7913 -0.1593 -0.3077
  564MOL0     C74377   4.581   5.776   2.055 -0.2858 -0.1447  0.4556
  564MOL0     C74378   4.627   5.635   2.042  0.6046  0.4769 -0.2808
  564MOL0     C74379   4.732   5.625   1.935 -0.4275  1.6566 -0.0178
  564MOL0     C74380   4.802   5.594   1.846  0.6137  0.0209  0.7725
  564MOL0     C74381   4.097   5.934   2.045 -0.6838  0.5247 -0.1341
  564MOL0     C74382   3.962   5.969   2.037  0.6962 -0.6995 -1.0649
  564MOL0     H74383   3.615   6.051   1.654 -0.9148 -0.6627 -0.4510
  564MOL0     H74384   3.380   6.120   1.578  3.0593 -1.6611 -2.2573
  564MOL0     H74385   3.156   6.150   1.836  1.3728 -0.5258 -0.9399
  564MOL0     H74386   3.031   6.023   1.840 -1.5274  0.3224 -0.9602
  564MOL0     H74387   2.977   6.191   1.615  1.8922  2.7221  0.6630
  564MOL0     H74388   2.976   6.273   1.761 -2.7320  0.2837  1.4653
  564MOL0     H74389   2.824   6.113   1.878  1.5242 -1.9892  0.0313
  564MOL0     H74390   2.821   6.010   1.729  0.3425 -0.5212 -0.5832
  564MOL0     H74391   2.742   6.302   1.749  5.0961 -0.3439  1.3193
  564MOL0     H74392   2.749   6.213   1.602 -0.6332  1.1302  0.1849
  564MOL0     H74393   2.601   6.037   1.691  1.0995  1.2873 -2.1566
  564MOL0     H74394   2.527   6.187   1.648  2.5618  0.0901 -2.7036
  564MOL0     H74395   2.526   6.262   1.882 -1.1017  0.1583  0.4331
  564MOL0     H74396   2.562   6.096   1.935  0.2611 -0.2541 -0.6355
  564MOL0     H74397   2.321   6.210   1.776 -0.4273  0.3626 -0.4246
  564MOL0     H74398   2.363   6.042   1.777 -0.3198 -0.4657  0.2681
  564MOL0     H74399   2.205   6.193   1.979  0.9218  0.4894 -0.9372
  564MOL0     H74400   2.352   6.148   2.055 -1.6312 -2.4378  2.5244
  564MOL0     H74401   2.034   5.988   1.853 -2.7991  0.7913  3.7871
  564MOL0     H74402   1.881   5.780   1.903  0.7476 -0.4925 -0.9001
  564MOL0     H74403   1.912   5.721   2.065 -0.3321  2.4983 -0.7766
  564MOL0     H74404   1.987   5.589   1.793 -0.1991 -0.4437 -0.2182
  564MOL0     H74405   1.847   5.548   1.890 -0.0154 -0.0268 -0.6665
  564MOL0     H74406   2.014   5.399   1.920  0.7703  0.0044 -1.0572
  564MOL0     H74407   2.139   5.520   1.978 -0.9630 -0.2633 -2.0333
  564MOL0     H74408   1.990   5.562   2.176 -0.8149  0.0750 -0.2627
  564MOL0     H74409   2.069   5.413   2.176  0.0786 -0.4170 -1.1969
  564MOL0     H74410   1.654   5.580   2.149  0.0233 -3.3740 -1.1838
  564MOL0     H74411   1.524   5.600   2.350  1.5833  1.3746  0.3908
  564MOL0     H74412   1.264   5.597   2.562 -0.8451  0.9678 -0.2924
  564MOL0     H74413   1.097   5.596   2.762 -0.4474  0.8008  1.5077
  564MOL0     H74414   1.253   5.658   3.164 -1.4345  1.3475  2.0401
  564MOL0     H74415   1.223   5.476   3.131 -1.0474 -0.1046 -1.1344
  564MOL0     H74416   0.967   5.558   3.198 -0.9844  3.0653  1.3713
  564MOL0     H74417   1.043   5.705   3.240 -1.8456 -1.0266  1.9967
  564MOL0     H74418   1.186   5.567   3.387  0.2783 -1.7798  0.8028
  564MOL0     H74419   1.086   5.425   3.355 -0.7182  0.4361  1.0443
  564MOL0     H74420   0.989   5.682   3.501  3.6366 -0.2246  0.1963
  564MOL0     H74421   0.887   5.549   3.451 -0.2475  1.2878  1.6465
  564MOL0     H74422   1.134   5.492   3.607 -0.2761  0.1928  0.3141
  564MOL0     H74423   0.997   5.389   3.581 -1.5223  0.9803 -5.6104
  564MOL0     H74424   0.962   5.646   3.725  0.7857 -0.6471 -0.3148
  564MOL0     H74425   1.004   5.499   3.810 -0.2208  0.6799  0.5353
  564MOL0     H74426   0.732   5.540   3.669 -3.1439  0.2088  2.3347
  564MOL0     H74427   0.810   5.384   3.717 -0.0655 -0.4174  2.0680
  564MOL0     H74428   0.650   5.494   3.876 -0.2747  2.6544  0.2957
  564MOL0     H74429   0.771   5.612   3.918 -0.6920  0.4338  1.2684
  564MOL0     H74430   1.414   5.622   3.037  0.1782 -2.6427  0.9409
  564MOL0     H74431   1.587   5.635   2.842  0.1392  1.0459  1.1366
  564MOL0     H74432   1.739   5.291   2.534 -0.7416  1.3666  0.5364
  564MOL0     H74433   1.878   5.254   2.336 -2.0073 -3.2640  0.4271
  564MOL0     H74434   3.205   5.840   1.841 -0.1582  1.0301  1.5517
  564MOL0     H74435   3.433   5.776   1.937  1.8436 -2.0560 -1.6404
  564MOL0     H74436   3.894   5.813   1.748 -1.3029 -1.4494  1.4401
  564MOL0     H74437   4.130   5.743   1.773 -0.6008  1.9076 -0.8009
  564MOL0     H74438   4.344   5.811   1.795 -0.3031 -1.4730 -0.5336
  564MOL0     H74439   4.389   5.675   1.894  3.3402  0.3895  1.3250
  564MOL0     H74440   4.597   5.814   1.838  1.5023 -1.3047  1.7546
  564MOL0     H74441   4.515   5.943   1.930 -3.0478 -0.1593 -2.5563
  564MOL0     H74442   4.505   5.783   2.134 -0.5833 -0.8868  0.2435
  564MOL0     H74443   4.673   5.828   2.083 -1.8695  2.0519  1.9154
  564MOL0     H74444   4.665   5.601   2.138 -0.9366  1.9599  0.9054
  564MOL0     H74445   4.540   5.576   2.013  0.1663  1.4685 -1.0742
  564MOL0     H74446   4.858   5.555   1.764 -0.7143 -0.5291  0.1131
  564MOL0     H74447   4.161   5.973   2.124  1.8655  0.2756 -1.9750
  564MOL0     H74448   3.924   6.032   2.117  5.1118 -0.6576  1.2837
  565MOL0     O74449   1.153   2.790   8.077  0.3196  0.8668 -0.5071
  565MOL0     C74450   1.111   2.818   8.187  0.2369  0.1896  0.0078
  565MOL0     O74451   1.061   2.940   8.224 -0.0912 -0.4067  0.4635
  565MOL0     C74452   1.040   3.042   8.136 -0.3689 -0.4096  0.1535
  565MOL0     C74453   0.916   3.045   8.058 -0.4388 -0.3351 -0.3167
  565MOL0     C74454   0.898   3.146   7.960 -0.2026  0.5971 -0.0564
  565MOL0     C74455   0.993   3.252   7.957  0.1469 -0.2952  0.1507
  565MOL0     O74456   0.978   3.357   7.869 -0.4412  0.0597 -0.0936
  565MOL0     C74457   0.880   3.460   7.896  0.4609  0.7259 -0.4368
  565MOL0     C74458   0.866   3.538   7.770  0.6905  0.4470 -0.9756
  565MOL0     C74459   0.728   3.614   7.775 -0.6433 -0.0301 -0.6974
  565MOL0     C74460   0.718   3.685   7.643 -0.3269  0.6461  0.7996
  565MOL0     C74461   0.581   3.735   7.622  0.8333  0.4529 -1.0231
  565MOL0     C74462   0.560   3.823   7.503  0.2140 -0.1533 -0.0814
  565MOL0     C74463   0.403   3.851   7.493 -0.2788  0.6134 -0.3298
  565MOL0     C74464   0.382   3.984   7.429 -0.0991 -0.5154  0.9840
  565MOL0     N74465   0.398   3.993   7.282  0.0891  1.3213 -0.1805
  565MOL0     C74466   0.339   3.905   7.197 -0.6040  0.0665 -0.3827
  565MOL0     C74467   0.377   3.930   7.073 -0.5674  0.1290 -0.5170
  565MOL0     C74468   0.348   3.851   6.946  0.8841 -0.0777  0.7637
  565MOL0     C74469   0.221   3.914   6.866  0.0649  0.4095 -0.8164
  565MOL0     C74470   0.171   3.827   6.753  0.0436  0.1146  0.1097
  565MOL0     C74471   0.081   3.896   6.662 -0.3357 -0.2114  1.2367
  565MOL0     O74472   0.048   3.810   6.555  0.0983 -0.1835  0.1186
  565MOL0     C74473  -0.075   3.832   6.486  0.0963  0.2666  0.0228
  565MOL0     C74474  -0.173   3.731   6.493  0.9291 -0.8695 -0.4218
  565MOL0     C74475  -0.297   3.750   6.437  0.6532 -0.5975  0.6141
  565MOL0     C74476  -0.322   3.864   6.359 -0.7449  0.2537  0.1870
  565MOL0     C74477  -0.445   3.880   6.274 -0.7928  0.2662 -0.7470
  565MOL0     O74478  -0.551   3.795   6.308 -0.0405  0.2827 -0.3790
  565MOL0     C74479  -0.682   3.827   6.266  0.4271  0.8886  1.0361
  565MOL0     C74480  -0.770   3.723   6.249  0.6786 -0.3684 -0.2998
  565MOL0     C74481  -0.902   3.737   6.197 -0.8964 -0.3949  0.6368
  565MOL0     C74482  -0.943   3.863   6.142  0.0045  0.1802  0.9954
  565MOL0     O74483  -1.060   3.897   6.078 -0.2274  0.3142  0.2035
  565MOL0     C74484  -1.129   3.806   5.997  0.2769 -0.0166  0.3576
  565MOL0     C74485  -1.249   3.879   5.917 -0.8063 -0.7105 -0.6741
  565MOL0     C74486  -1.358   3.779   5.868  0.0792  0.9172 -0.1680
  565MOL0     C74487  -1.418   3.712   5.992  0.2521  0.4719  0.9636
  565MOL0     C74488  -1.568   3.679   5.973 -0.7719 -0.0701  0.3637
  565MOL0     C74489  -1.585   3.561   5.870 -0.2360  0.5304  0.0077
  565MOL0     C74490  -1.727   3.520   5.852  0.8650 -0.2812  0.7466
  565MOL0     C74491  -1.747   3.455   5.719  0.7572  0.8044 -0.5293
  565MOL0    Cl74492  -1.681   3.289   5.734 -0.4068 -0.1315  0.0386
  565MOL0     C74493  -0.853   3.973   6.172 -0.7062 -0.0878  0.5843
  565MOL0     C74494  -0.729   3.951   6.227 -0.6062  0.8490 -0.3961
  565MOL0     O74495  -0.437   3.952   6.172  0.1592  0.2743  0.3931
  565MOL0     C74496  -0.219   3.962   6.348 -0.0719 -0.1557 -0.1763
  565MOL0     C74497  -0.102   3.948   6.421  0.1517  0.5964 -0.3419
  565MOL0     N74498   0.471   4.035   7.085  0.4382 -0.8290  0.5612
  565MOL0     N74499   0.492   4.061   7.208  0.5485 -0.2353 -0.0621
  565MOL0     C74500   1.108   3.243   8.034  0.0646 -0.0155  1.0462
  565MOL0     C74501   1.141   3.136   8.120  0.1023 -0.7669  0.3608
  565MOL0     C74502   1.122   2.711   8.292 -1.2308 -0.3059 -0.4844
  565MOL0     C74503   1.152   2.584   8.255  0.1102  0.7814  0.6342
  565MOL0     C74504   1.128   2.482   8.345  0.9239  0.3477 -0.0949
  565MOL0     C74505   1.101   2.504   8.481  1.0094 -0.1559 -0.3161
  565MOL0     O74506   1.108   2.413   8.577  0.0735 -0.1928  0.1858
  565MOL0     C74507   1.129   2.276   8.560 -0.7000  0.1282 -0.3147
  565MOL0     C74508   0.996   2.214   8.514 -0.5660 -0.5555  1.1690
  565MOL0     C74509   0.888   2.206   8.617 -0.1371 -0.1576  0.5057
  565MOL0     C74510   0.928   2.136   8.751 -0.0651 -0.4214 -0.0525
  565MOL0     C74511   0.991   2.003   8.720 -0.2043 -0.4521 -0.0831
  565MOL0     C74512   1.026   1.889   8.712  0.1293  0.2165 -0.4341
  565MOL0     C74513   1.082   2.632   8.513  0.2493 -0.0444 -0.2592
  565MOL0     C74514   1.088   2.742   8.422  0.0648  0.7181  0.0979
  565MOL0     H74515   0.840   2.968   8.055 -0.8027 -0.0592  1.2477
  565MOL0     H74516   0.816   3.150   7.889 -2.2734 -0.7705  2.1158
  565MOL0     H74517   0.917   3.534   7.967  0.4993  1.2385 -0.9868
  565MOL0     H74518   0.785   3.416   7.930  1.0346 -0.3197 -0.1384
  565MOL0     H74519   0.870   3.476   7.681 -0.7944 -0.0991 -0.6844
  565MOL0     H74520   0.943   3.615   7.757  1.0844  0.3739  0.6345
  565MOL0     H74521   0.715   3.688   7.854 -0.5850  3.3444 -3.5692
  565MOL0     H74522   0.656   3.532   7.777  1.9470 -2.4966 -1.6225
  565MOL0     H74523   0.780   3.775   7.644  0.8473 -0.1054 -0.8798
  565MOL0     H74524   0.746   3.617   7.561 -0.1977 -2.2323  3.0624
  565MOL0     H74525   0.545   3.784   7.713  1.5070 -1.1475  0.1608
  565MOL0     H74526   0.522   3.644   7.610 -1.9059  1.8775  0.6377
  565MOL0     H74527   0.588   3.783   7.405 -1.0338 -1.4730  0.0647
  565MOL0     H74528   0.602   3.924   7.516 -2.5477  1.1209 -0.3950
  565MOL0     H74529   0.365   3.759   7.448  2.1082 -0.1398 -0.9434
  565MOL0     H74530   0.356   3.861   7.591  0.7654 -2.2286  0.5648
  565MOL0     H74531   0.440   4.059   7.485  0.1080 -0.8792  1.2630
  565MOL0     H74532   0.276   4.007   7.438 -0.3224 -0.5295 -1.2133
  565MOL0     H74533   0.276   3.824   7.233 -0.5904 -0.4160 -1.4197
  565MOL0     H74534   0.312   3.749   6.960  1.6205 -0.6025 -0.9723
  565MOL0     H74535   0.432   3.849   6.877  0.0602 -3.7688 -0.3233
  565MOL0     H74536   0.258   4.012   6.836  1.3961  0.6275  1.3607
  565MOL0     H74537   0.138   3.932   6.934 -1.0275 -0.5561 -1.8546
  565MOL0     H74538   0.250   3.779   6.695  1.3621 -0.2493  2.1236
  565MOL0     H74539   0.114   3.744   6.796 -2.6763  1.0597 -1.3952
  565MOL0     H74540   0.127   3.988   6.625 -0.8622  0.8932  3.1769
  565MOL0     H74541  -0.015   3.926   6.704 -1.0161 -0.2678 -0.2326
  565MOL0     H74542  -0.150   3.639   6.545 -3.8711 -0.3809  3.3827
  565MOL0     H74543  -0.366   3.666   6.443  1.4793 -1.4418 -1.1088
  565MOL0     H74544  -0.733   3.623   6.265 -0.2626 -0.7584 -0.5008
  565MOL0     H74545  -0.958   3.644   6.199  0.7961 -1.4776  3.2018
  565MOL0     H74546  -1.172   3.723   6.054 -1.7290  0.5580 -0.2486
  565MOL0     H74547  -1.064   3.761   5.922 -0.6387 -1.9754  0.6648
  565MOL0     H74548  -1.203   3.929   5.832 -1.0870 -0.0368 -0.4314
  565MOL0     H74549  -1.285   3.951   5.990 -0.4159 -1.6669  0.5120
  565MOL0     H74550  -1.312   3.708   5.799 -1.9081 -0.4701 -0.1411
  565MOL0     H74551  -1.442   3.829   5.820  0.7442  1.5406 -0.6937
  565MOL0     H74552  -1.361   3.622   6.018  3.2277  1.9373 -0.0693
  565MOL0     H74553  -1.427   3.789   6.070  0.0214 -0.7470  2.1904
  565MOL0     H74554  -1.626   3.769   5.954  0.4446  0.6697  0.1031
  565MOL0     H74555  -1.595   3.649   6.075  0.8554 -1.7076  0.3733
  565MOL0     H74556  -1.529   3.477   5.912 -2.1172 -2.5712 -3.0688
  565MOL0     H74557  -1.542   3.590   5.774 -1.0944 -0.5700 -0.7468
  565MOL0     H74558  -1.761   3.447   5.925 -1.9394 -1.5310 -1.6141
  565MOL0     H74559  -1.792   3.608   5.857  2.0857  0.7776 -0.7658
  565MOL0     H74560  -1.701   3.508   5.635 -0.5844  1.7398 -0.7079
  565MOL0     H74561  -1.856   3.444   5.718  0.2049  3.0252  4.5094
  565MOL0     H74562  -0.889   4.075   6.167 -0.3646  0.0662  1.1181
  565MOL0     H74563  -0.664   4.034   6.251  1.8941 -0.7359 -1.2735
  565MOL0     H74564  -0.216   4.045   6.278  1.0156 -0.7463 -0.8540
  565MOL0     H74565  -0.025   4.025   6.423 -0.9252  1.8955 -3.2603
  565MOL0     H74566   1.182   3.322   8.023 -0.4194  0.3099  0.0174
  565MOL0     H74567   1.236   3.137   8.171  1.2766  0.2156 -1.6847
  565MOL0     H74568   1.173   2.556   8.152 -1.1368 -2.7073  1.1873
  565MOL0     H74569   1.136   2.377   8.316  1.6620 -0.3380  2.3685
  565MOL0     H74570   1.162   2.234   8.655  0.4407 -2.9191 -1.9075
  565MOL0     H74571   1.210   2.261   8.487  0.6132 -0.4420  1.2115
  565MOL0     H74572   0.955   2.271   8.430 -1.9781 -1.8885  0.9009
  565MOL0     H74573   1.017   2.113   8.476  0.7556  0.4597 -0.9779
  565MOL0     H74574   0.797   2.155   8.586 -0.3653  0.2300  0.5301
  565MOL0     H74575   0.864   2.310   8.643  2.1898  1.4986 -3.1888
  565MOL0     H74576   0.988   2.196   8.820 -1.7125  2.5466 -1.0167
  565MOL0     H74577   0.828   2.130   8.795 -0.7671  1.4161 -1.2484
  565MOL0     H74578   1.068   1.794   8.685  0.9633  0.2216  0.7874
  565MOL0     H74579   1.055   2.648   8.617 -1.1651 -2.2293 -0.2147
  565MOL0     H74580   1.076   2.846   8.451 -1.9173 -0.2798  3.4863
  566MOL0     O74581   7.903   6.488   6.889 -0.1834 -0.8992  0.0526
  566MOL0     C74582   7.990   6.432   6.955  0.0865  0.4854 -0.1243
  566MOL0     O74583   7.971   6.315   7.016  0.2758  0.5459  0.0639
  566MOL0     C74584   7.849   6.245   7.014  0.1099  0.4399 -0.1209
  566MOL0     C74585   7.754   6.243   6.911  0.5037  0.1514  1.0462
  566MOL0     C74586   7.625   6.181   6.941 -0.0662  0.5197 -0.3620
  566MOL0     C74587   7.605   6.125   7.063  0.1677 -0.5926  0.9390
  566MOL0     O74588   7.491   6.057   7.079  0.0237  0.5606  0.2197
  566MOL0     C74589   7.411   6.104   7.179  0.3431  0.0042 -0.5768
  566MOL0     C74590   7.257   6.115   7.141 -0.2985 -0.2684  0.0644
  566MOL0     C74591   7.243   6.209   7.021  0.4155 -0.5680 -0.9487
  566MOL0     C74592   7.087   6.233   7.007 -0.7115  0.6786  0.0126
  566MOL0     C74593   7.017   6.126   6.915  0.6001 -0.4378 -0.8390
  566MOL0     C74594   6.876   6.169   6.902 -0.2561 -0.3798  0.1016
  566MOL0     C74595   6.794   6.081   6.809  0.0868  0.6579 -0.5862
  566MOL0     C74596   6.650   6.134   6.797 -0.3782  0.3684 -0.5279
  566MOL0     N74597   6.571   6.127   6.921 -0.2086  0.0943  0.6257
  566MOL0     C74598   6.542   6.221   7.017 -0.2103 -0.3574 -0.0271
  566MOL0     C74599   6.468   6.148   7.104 -0.3316 -0.4469  0.5767
  566MOL0     C74600   6.414   6.196   7.235 -0.2286 -0.2213  0.5151
  566MOL0     C74601   6.360   6.079   7.328 -0.0736  0.6777  0.5483
  566MOL0     C74602   6.222   6.045   7.284 -0.5628  0.1000  0.8990
  566MOL0     C74603   6.155   5.961   7.387  0.1842 -0.1148  0.7132
  566MOL0     O74604   6.035   5.910   7.325 -0.2616  0.1547  0.4843
  566MOL0     C74605   5.924   5.897   7.394 -0.0631 -0.1368 -0.5977
  566MOL0     C74606   5.810   5.940   7.323 -0.0419  0.4473 -0.1925
  566MOL0     C74607   5.680   5.924   7.380 -0.2819  0.4877 -0.0557
  566MOL0     C74608   5.664   5.872   7.508  0.7418  0.1908 -0.0800
  566MOL0     C74609   5.520   5.867   7.565  0.5387 -0.4347  0.4131
  566MOL0     O74610   5.511   5.823   7.695  0.1524  0.2144 -0.2838
  566MOL0     C74611   5.391   5.815   7.754  0.7517 -0.1067  0.3354
  566MOL0     C74612   5.395   5.845   7.891  0.7630 -0.1798 -0.1944
  566MOL0     C74613   5.285   5.836   7.972 -0.1898  0.4113  0.3419
  566MOL0     C74614   5.170   5.783   7.922  0.3585  0.1193  0.4107
  566MOL0     O74615   5.056   5.754   7.993 -0.4131  0.4533 -0.2345
  566MOL0     C74616   4.975   5.873   8.029 -0.4518  0.4528 -1.0458
  566MOL0     C74617   5.027   5.942   8.154  0.8124  0.5135 -0.5456
  566MOL0     C74618   5.048   5.859   8.291  0.2292 -0.1259  0.0865
  566MOL0     C74619   4.916   5.792   8.327 -0.3376 -0.8842 -0.6026
  566MOL0     C74620   4.928   5.746   8.480 -0.1669 -0.2530 -0.1205
  566MOL0     C74621   5.004   5.623   8.490  0.1129 -0.5495 -0.6033
  566MOL0     C74622   4.996   5.578   8.647  0.7462  0.3071  0.4911
  566MOL0     C74623   5.075   5.452   8.684  0.3541 -0.4364  0.1269
  566MOL0    Cl74624   5.090   5.430   8.859 -0.2809  0.4997 -0.2740
  566MOL0     C74625   5.162   5.749   7.790 -0.2302 -0.1026 -0.5498
  566MOL0     C74626   5.273   5.756   7.703  0.6941  0.5830  0.3885
  566MOL0     O74627   5.431   5.922   7.499  0.5281  0.2318  0.0255
  566MOL0     C74628   5.782   5.830   7.578 -0.8595  0.6344  0.8972
  566MOL0     C74629   5.912   5.845   7.521  0.6102  0.3843 -0.4744
  566MOL0     N74630   6.459   6.010   7.064  0.7763 -0.6071  0.3477
  566MOL0     N74631   6.518   6.000   6.943 -0.4921  0.2406 -0.2116
  566MOL0     C74632   7.700   6.117   7.157  0.0679  0.1680 -0.4003
  566MOL0     C74633   7.817   6.184   7.136  0.3096 -0.1181 -0.8279
  566MOL0     C74634   8.126   6.493   6.963 -0.4149 -0.3641 -0.6440
  566MOL0     C74635   8.148   6.626   6.921  1.0077 -0.2976 -0.0249
  566MOL0     C74636   8.275   6.669   6.937  0.1989 -0.0264  0.1592
  566MOL0     C74637   8.368   6.604   7.007 -0.2172 -0.1986  0.5101
  566MOL0     O74638   8.490   6.669   7.027 -0.5664  0.5790  0.1416
  566MOL0     C74639   8.607   6.608   6.983 -0.3811 -0.1993 -0.0751
  566MOL0     C74640   8.676   6.512   7.076 -0.2416  0.1743  0.4828
  566MOL0     C74641   8.831   6.557   7.093  0.3244  1.1305 -0.1945
  566MOL0     C74642   8.919   6.557   6.969  0.1009 -0.3990 -1.0904
  566MOL0     C74643   8.953   6.425   6.922  0.4203 -1.4179 -0.6293
  566MOL0     C74644   8.997   6.325   6.878 -0.1602  0.1632  0.0688
  566MOL0     C74645   8.347   6.480   7.063 -0.0547 -0.4537 -0.8121
  566MOL0     C74646   8.223   6.419   7.037  0.6501  0.5742  0.4826
  566MOL0     H74647   7.780   6.274   6.810  0.6467 -0.9121  0.7327
  566MOL0     H74648   7.539   6.180   6.875 -1.1865 -0.0677  1.0589
  566MOL0     H74649   7.437   6.206   7.210 -3.7512  0.2756  2.9354
  566MOL0     H74650   7.412   6.053   7.276 -0.9637  0.8780 -0.0668
  566MOL0     H74651   7.204   6.156   7.227 -1.8695 -0.0045 -0.9964
  566MOL0     H74652   7.210   6.017   7.135 -0.7176 -0.1955  1.8494
  566MOL0     H74653   7.295   6.178   6.930 -0.2994 -1.5357 -1.0427
  566MOL0     H74654   7.288   6.300   7.061  0.1909 -0.8908  0.0795
  566MOL0     H74655   7.034   6.245   7.101 -1.8312  0.7145 -0.6058
  566MOL0     H74656   7.079   6.333   6.964 -0.2545  0.5505 -0.3840
  566MOL0     H74657   7.013   6.031   6.970 -1.0284  1.5905  2.9111
  566MOL0     H74658   7.068   6.104   6.821  2.4724 -2.1062  0.4808
  566MOL0     H74659   6.884   6.269   6.859 -0.3601 -0.8537 -1.0467
  566MOL0     H74660   6.822   6.187   6.996  1.1056  0.8245  0.6970
  566MOL0     H74661   6.834   6.081   6.707  3.6902  1.8125  0.6663
  566MOL0     H74662   6.781   5.982   6.854  3.3027  0.1101 -0.5938
  566MOL0     H74663   6.594   6.078   6.722 -0.9672 -3.5631  2.5203
  566MOL0     H74664   6.654   6.240   6.770  0.4612  0.9545  1.6950
  566MOL0     H74665   6.581   6.322   7.028 -0.1061 -0.6205  2.7672
  566MOL0     H74666   6.329   6.263   7.217 -1.0029 -0.9791  1.2163
  566MOL0     H74667   6.484   6.260   7.290 -2.3531  0.8374  2.1663
  566MOL0     H74668   6.361   6.107   7.433  0.8745  0.5451  0.5871
  566MOL0     H74669   6.426   5.992   7.320  0.4441  0.8431  2.6131
  566MOL0     H74670   6.155   6.129   7.263 -0.8929 -0.1790  0.8226
  566MOL0     H74671   6.238   5.984   7.194  1.6419 -0.3240  1.5194
  566MOL0     H74672   6.138   6.013   7.482 -0.2660 -1.9809  1.7077
  566MOL0     H74673   6.220   5.881   7.423  0.2824 -0.9991 -1.3060
  566MOL0     H74674   5.810   5.994   7.229 -2.8564  1.1894  0.1373
  566MOL0     H74675   5.592   5.971   7.337 -1.3622 -1.1965  0.2214
  566MOL0     H74676   5.493   5.879   7.923  1.0042 -0.1497 -0.9336
  566MOL0     H74677   5.289   5.848   8.080  0.8757 -1.4314  0.5499
  566MOL0     H74678   4.874   5.843   8.058 -0.8880  2.8267  0.1347
  566MOL0     H74679   4.967   5.941   7.945  1.2969  1.1082 -0.7222
  566MOL0     H74680   4.979   6.038   8.177  0.2383  0.7711 -2.6441
  566MOL0     H74681   5.129   5.965   8.120  1.2624 -3.0045 -2.0069
  566MOL0     H74682   5.071   5.938   8.364  0.5878  1.6417 -1.8452
  566MOL0     H74683   5.124   5.781   8.286  2.7779  2.1972 -0.0783
  566MOL0     H74684   4.837   5.868   8.326 -0.8032 -1.3677 -1.2512
  566MOL0     H74685   4.899   5.714   8.253 -0.5864 -0.9480 -0.4805
  566MOL0     H74686   4.824   5.724   8.506 -0.4937  0.2416 -0.9671
  566MOL0     H74687   4.968   5.830   8.537 -0.3206 -0.0690 -0.2800
  566MOL0     H74688   5.109   5.639   8.466 -0.0374  1.2262 -0.1820
  566MOL0     H74689   4.961   5.544   8.427 -2.4949 -1.8620  2.4915
  566MOL0     H74690   5.039   5.660   8.705  0.5849  1.3360 -0.8056
  566MOL0     H74691   4.893   5.565   8.679  0.6646  0.2489  0.2051
  566MOL0     H74692   5.175   5.462   8.642  0.1052 -0.3506 -0.4608
  566MOL0     H74693   5.027   5.363   8.642 -2.2484  0.1089  1.7063
  566MOL0     H74694   5.074   5.710   7.740  1.1333 -2.9250 -0.9338
  566MOL0     H74695   5.262   5.722   7.600  1.3182 -1.6526  1.0071
  566MOL0     H74696   5.788   5.795   7.680  1.7101 -0.5811  0.4056
  566MOL0     H74697   5.991   5.805   7.583 -0.3578  2.8393  2.5919
  566MOL0     H74698   7.681   6.065   7.251  1.0204  0.5746  0.0274
  566MOL0     H74699   7.893   6.184   7.213  2.1011 -4.1846 -2.3175
  566MOL0     H74700   8.077   6.684   6.863  1.0672  1.0773  1.2150
  566MOL0     H74701   8.302   6.761   6.886  1.5338 -2.0574 -3.1644
  566MOL0     H74702   8.676   6.691   6.964  1.2546 -0.4259  3.8238
  566MOL0     H74703   8.600   6.560   6.885  1.7974 -0.9356  0.0856
  566MOL0     H74704   8.618   6.516   7.168 -2.6748 -1.6769 -0.8605
  566MOL0     H74705   8.673   6.407   7.045  2.6720  0.4473 -1.1356
  566MOL0     H74706   8.871   6.487   7.168 -0.2047  1.5646  0.5095
  566MOL0     H74707   8.817   6.659   7.130  0.6415 -0.0152  3.6054
  566MOL0     H74708   8.883   6.623   6.889 -3.4139 -1.8300 -0.8747
  566MOL0     H74709   9.008   6.605   7.011 -0.9323 -1.3343  2.5315
  566MOL0     H74710   9.054   6.237   6.856  0.1513  0.3501  0.1153
  566MOL0     H74711   8.421   6.438   7.130 -1.1111  0.4146  0.9650
  566MOL0     H74712   8.196   6.323   7.081 -1.0188  0.9042  0.2506
  567MOL0     O74713   3.829   2.804   6.608 -0.7712  0.8471 -0.7278
  567MOL0     C74714   3.935   2.861   6.570  0.2552  0.0944 -0.5915
  567MOL0     O74715   3.954   2.994   6.543  0.0472 -0.8265  0.1189
  567MOL0     C74716   3.844   3.077   6.570 -0.0615 -0.4776  0.0357
  567MOL0     C74717   3.800   3.099   6.697  0.7225  0.4987  0.1162
  567MOL0     C74718   3.681   3.171   6.725 -0.5161 -0.2518 -0.1313
  567MOL0     C74719   3.604   3.218   6.624 -0.4290 -0.0755  0.0001
  567MOL0     O74720   3.485   3.292   6.640 -0.0285  0.1837 -0.4478
  567MOL0     C74721   3.425   3.290   6.772 -0.6895 -0.3798  0.6324
  567MOL0     C74722   3.284   3.362   6.791 -0.2163 -0.0434 -0.1317
  567MOL0     C74723   3.186   3.284   6.878 -0.3733 -0.1507  0.9805
  567MOL0     C74724   3.044   3.354   6.883 -0.5103 -0.4365 -0.3008
  567MOL0     C74725   2.944   3.254   6.941 -0.0795 -0.6845  0.4336
  567MOL0     C74726   2.815   3.318   6.966  0.7544  1.1235 -0.0531
  567MOL0     C74727   2.728   3.333   6.844  0.0476 -0.3319  0.2984
  567MOL0     C74728   2.611   3.427   6.888 -0.3026  0.2495 -0.4786
  567MOL0     N74729   2.481   3.398   6.834  0.2536  0.0609 -0.1872
  567MOL0     C74730   2.378   3.484   6.842  0.5840 -0.1941 -0.7105
  567MOL0     C74731   2.269   3.417   6.788  0.1361 -0.3911 -0.9202
  567MOL0     C74732   2.125   3.469   6.769  0.3337 -0.0730 -0.4864
  567MOL0     C74733   2.006   3.378   6.800 -1.0468 -0.7035 -0.6358
  567MOL0     C74734   1.896   3.440   6.891 -0.4813  0.9621  0.5345
  567MOL0     C74735   1.834   3.566   6.832  0.2608  0.7786  0.0350
  567MOL0     O74736   1.713   3.539   6.764 -0.3873 -0.2820 -0.4354
  567MOL0     C74737   1.647   3.653   6.727  0.0069  0.0603  0.3870
  567MOL0     C74738   1.509   3.643   6.687 -0.5565  0.5693 -0.2773
  567MOL0     C74739   1.429   3.758   6.652  0.8350  0.6449  0.3704
  567MOL0     C74740   1.485   3.884   6.665 -0.2849 -0.1226  0.8215
  567MOL0     C74741   1.415   4.008   6.613 -0.0584 -0.8314  0.3955
  567MOL0     O74742   1.284   3.993   6.557 -0.4310  0.1199  0.3761
  567MOL0     C74743   1.197   4.092   6.511 -0.4081 -0.3894 -0.3232
  567MOL0     C74744   1.073   4.040   6.470 -0.4495  0.9335 -0.6698
  567MOL0     C74745   0.981   4.123   6.407 -0.0326  0.7881 -0.0061
  567MOL0     C74746   0.993   4.260   6.396  0.2133  0.2293  0.4380
  567MOL0     O74747   0.893   4.347   6.350 -0.2137 -0.0876  0.7115
  567MOL0     C74748   0.764   4.292   6.306  0.0603  0.2373 -0.2318
  567MOL0     C74749   0.669   4.401   6.267 -0.8879  0.2271  0.2219
  567MOL0     C74750   0.542   4.337   6.217  0.7988  0.0729 -0.2635
  567MOL0     C74751   0.419   4.439   6.190 -0.3089  0.1634  0.4822
  567MOL0     C74752   0.453   4.540   6.072  0.0252  0.5980 -0.0504
  567MOL0     C74753   0.325   4.552   5.986 -0.1378  0.0843  0.1272
  567MOL0     C74754   0.351   4.647   5.866  1.0026  0.1274  0.1206
  567MOL0     C74755   0.357   4.797   5.900  1.0608 -0.1677 -0.2442
  567MOL0    Cl74756   0.187   4.859   5.929  0.1047  0.0847  0.0943
  567MOL0     C74757   1.118   4.316   6.431 -0.2620 -1.1059  0.5226
  567MOL0     C74758   1.218   4.225   6.488  0.9157  1.0051  0.0379
  567MOL0     O74759   1.465   4.121   6.631  0.5917 -0.0674  0.2936
  567MOL0     C74760   1.624   3.899   6.701  0.3735 -0.3970  0.6887
  567MOL0     C74761   1.706   3.786   6.736  0.7006  0.0370  0.1134
  567MOL0     N74762   2.317   3.302   6.738  0.2683  0.6139 -0.2571
  567MOL0     N74763   2.450   3.294   6.759 -0.0481 -0.7882 -0.1831
  567MOL0     C74764   3.643   3.194   6.498 -0.2126 -0.3858  0.4922
  567MOL0     C74765   3.764   3.127   6.466  1.0989  0.2216 -0.2129
  567MOL0     C74766   4.055   2.772   6.537  0.2494 -0.0499 -0.3098
  567MOL0     C74767   4.052   2.644   6.580 -0.2028 -0.2803 -0.3138
  567MOL0     C74768   4.174   2.570   6.574  0.3088 -0.6079 -0.3979
  567MOL0     C74769   4.288   2.617   6.510 -0.5675  0.1860  0.1693
  567MOL0     O74770   4.404   2.542   6.504 -0.2393  0.0785  0.3069
  567MOL0     C74771   4.437   2.482   6.625 -0.4557 -0.1975  0.1398
  567MOL0     C74772   4.578   2.439   6.620  0.2275 -0.0933  0.5450
  567MOL0     C74773   4.617   2.312   6.533  0.0624 -0.7877  0.2665
  567MOL0     C74774   4.761   2.301   6.483 -1.0394  0.1470 -0.0959
  567MOL0     C74775   4.854   2.288   6.600  0.4357  0.1463  0.3948
  567MOL0     C74776   4.946   2.286   6.677 -0.2102  0.9433 -0.1051
  567MOL0     C74777   4.286   2.751   6.467 -0.2188  0.1274 -0.2846
  567MOL0     C74778   4.171   2.829   6.480 -0.0994 -0.5198 -0.6372
  567MOL0     H74779   3.869   3.061   6.772  3.8866  0.8500 -2.3667
  567MOL0     H74780   3.665   3.190   6.831 -0.7432  0.1205 -0.2309
  567MOL0     H74781   3.499   3.346   6.829  0.6026 -0.3492 -0.9846
  567MOL0     H74782   3.423   3.184   6.795  2.4397 -0.9681 -1.1263
  567MOL0     H74783   3.247   3.380   6.690  1.3101  2.6698 -0.3187
  567MOL0     H74784   3.285   3.466   6.825 -0.4724 -0.3533  0.8627
  567MOL0     H74785   3.231   3.277   6.978  2.6473  1.9343 -0.0831
  567MOL0     H74786   3.180   3.184   6.834  1.0919  0.1739 -0.0266
  567MOL0     H74787   3.059   3.438   6.952 -3.2865 -0.4062  0.3808
  567MOL0     H74788   3.015   3.382   6.782 -3.7207 -2.5381 -0.0959
  567MOL0     H74789   2.982   3.214   7.035  1.0628 -1.2651 -0.2519
  567MOL0     H74790   2.932   3.172   6.869  0.0690 -1.2849  1.0883
  567MOL0     H74791   2.838   3.414   7.014  4.2747  1.5315 -2.1652
  567MOL0     H74792   2.767   3.246   7.032  1.8988 -0.3999 -0.8139
  567MOL0     H74793   2.794   3.387   6.775  1.9994  3.7888  4.7469
  567MOL0     H74794   2.696   3.236   6.806  3.5628 -2.1117  1.3509
  567MOL0     H74795   2.647   3.530   6.876  1.0712 -0.0808  0.5185
  567MOL0     H74796   2.593   3.411   6.995 -3.0062 -2.0709 -1.1540
  567MOL0     H74797   2.376   3.585   6.881 -0.4772  0.3668 -2.1189
  567MOL0     H74798   2.121   3.499   6.664 -1.7837 -2.0592 -1.0686
  567MOL0     H74799   2.112   3.557   6.832 -1.9941 -0.7607  0.1258
  567MOL0     H74800   2.042   3.301   6.869 -0.6614 -0.3389 -0.4230
  567MOL0     H74801   1.960   3.326   6.716 -1.4789 -0.9619 -0.2515
  567MOL0     H74802   1.818   3.365   6.909 -0.0875  0.4550  0.1775
  567MOL0     H74803   1.938   3.459   6.990 -0.1461 -3.8160  1.5385
  567MOL0     H74804   1.896   3.600   6.749  1.9612  0.8768  1.2693
  567MOL0     H74805   1.823   3.640   6.912 -0.7733  0.1442  0.4974
  567MOL0     H74806   1.462   3.546   6.699  0.9108 -0.4441 -2.1107
  567MOL0     H74807   1.330   3.738   6.612  1.4454  0.5321 -1.1927
  567MOL0     H74808   1.046   3.937   6.491 -0.6581  1.2710  0.8663
  567MOL0     H74809   0.886   4.074   6.390  0.3352  0.8313 -2.5179
  567MOL0     H74810   0.724   4.233   6.388  1.0482  0.5358  0.4870
  567MOL0     H74811   0.793   4.220   6.228  0.5230 -0.4223  0.5309
  567MOL0     H74812   0.715   4.458   6.186 -1.9895  0.6337 -0.1339
  567MOL0     H74813   0.647   4.462   6.355  0.8585 -0.8879  1.5147
  567MOL0     H74814   0.504   4.266   6.292 -0.6240 -0.0954 -1.1090
  567MOL0     H74815   0.554   4.277   6.127 -0.4056 -0.3975 -0.1302
  567MOL0     H74816   0.322   4.392   6.173  0.3681 -1.0008 -0.2053
  567MOL0     H74817   0.395   4.495   6.281 -0.9129 -0.3294  0.6340
  567MOL0     H74818   0.534   4.506   6.007  2.1782  4.8262  0.1103
  567MOL0     H74819   0.487   4.635   6.112  1.5254 -0.3348  0.9996
  567MOL0     H74820   0.246   4.590   6.052 -0.8586 -2.9046  1.1200
  567MOL0     H74821   0.297   4.455   5.944  1.0314  0.1889 -0.9461
  567MOL0     H74822   0.450   4.620   5.828  1.3007  0.8818  0.3468
  567MOL0     H74823   0.278   4.639   5.784 -1.8617 -2.7626  2.6665
  567MOL0     H74824   0.393   4.867   5.823  2.0200  1.9039  1.9297
  567MOL0     H74825   0.412   4.829   5.990 -1.2760 -1.2414  1.6895
  567MOL0     H74826   1.143   4.418   6.407  4.0299 -2.0694  0.0363
  567MOL0     H74827   1.314   4.272   6.505  1.1426  0.1203  1.3516
  567MOL0     H74828   1.659   4.001   6.698 -2.0452  0.5096  1.5166
  567MOL0     H74829   1.806   3.813   6.768  0.0027  0.0465  2.4392
  567MOL0     H74830   3.573   3.225   6.421 -1.1918  1.2376  1.9670
  567MOL0     H74831   3.795   3.102   6.365 -1.4122  3.6970 -2.0985
  567MOL0     H74832   3.963   2.618   6.636  1.1279  2.0488  3.2646
  567MOL0     H74833   4.168   2.473   6.622 -1.4281  0.3390  1.4197
  567MOL0     H74834   4.367   2.401   6.647  1.0076 -1.0959  1.7680
  567MOL0     H74835   4.436   2.550   6.711  1.3513 -1.0482  0.8718
  567MOL0     H74836   4.624   2.530   6.579 -1.3742  0.5089  0.0159
  567MOL0     H74837   4.621   2.429   6.720 -0.7128  0.7660  1.0538
  567MOL0     H74838   4.555   2.318   6.444 -0.1433 -0.1157  0.4491
  567MOL0     H74839   4.600   2.217   6.584  2.2955 -3.5747 -3.6556
  567MOL0     H74840   4.767   2.205   6.432  2.7215 -0.8018  1.8207
  567MOL0     H74841   4.780   2.380   6.410  1.6541 -1.2085 -1.0025
  567MOL0     H74842   5.019   2.275   6.754 -1.7161  0.2461  1.2987
  567MOL0     H74843   4.379   2.789   6.426 -0.4818 -0.1922 -1.2013
  567MOL0     H74844   4.172   2.936   6.462 -0.4904 -0.5779 -0.9924
  568MOL0     O74845  11.036   0.843   4.865 -0.7663  0.3279  0.3806
  568MOL0     C74846  11.008   0.921   4.955  0.0827  0.4481  0.7409
  568MOL0     O74847  10.882   0.949   4.999 -0.1524 -0.4989  0.1735
  568MOL0     C74848  10.780   0.913   4.917 -0.0969 -0.6562  0.2506
  568MOL0     C74849  10.747   0.994   4.806 -0.3998  0.5339  0.5422
  568MOL0     C74850  10.642   0.961   4.722  0.5656  0.2416 -0.3226
  568MOL0     C74851  10.567   0.844   4.731 -0.3987  0.8201  0.1231
  568MOL0     O74852  10.481   0.803   4.635 -0.6507  0.5193  0.6523
  568MOL0     C74853  10.460   0.876   4.516  0.8356  0.8732  0.2244
  568MOL0     C74854  10.374   0.787   4.425 -0.0774  0.7376  0.2384
  568MOL0     C74855  10.243   0.761   4.488 -0.2654 -0.3635 -0.4926
  568MOL0     C74856  10.134   0.680   4.412 -0.6595 -0.5024  0.1477
  568MOL0     C74857  10.187   0.565   4.323 -0.0980  0.6545 -0.2163
  568MOL0     C74858  10.085   0.548   4.221 -0.0977  0.0865 -0.1683
  568MOL0     C74859   9.952   0.481   4.270 -0.7087 -0.0089  0.3440
  568MOL0     C74860   9.869   0.433   4.155  0.4927 -0.0502  0.0953
  568MOL0     N74861   9.923   0.344   4.045 -0.0266 -0.0228 -0.1066
  568MOL0     C74862   9.892   0.216   4.004 -0.6215  0.2095  0.0214
  568MOL0     C74863   9.945   0.196   3.878  0.0908 -0.2905 -0.0951
  568MOL0     C74864   9.925   0.078   3.791  0.9879  0.6073 -0.3204
  568MOL0     C74865   9.774   0.076   3.750 -0.3157 -0.3223  0.0293
  568MOL0     C74866   9.720  -0.053   3.686  0.3550  0.2406 -0.3902
  568MOL0     C74867   9.570  -0.040   3.669  1.0119  0.2494 -0.1177
  568MOL0     O74868   9.510  -0.148   3.595  0.2955 -0.7123 -0.3886
  568MOL0     C74869   9.388  -0.132   3.543  0.2948 -0.0386 -0.7698
  568MOL0     C74870   9.347  -0.236   3.460  0.2355 -0.2849 -0.4401
  568MOL0     C74871   9.221  -0.222   3.403 -0.1683 -0.7368  0.3477
  568MOL0     C74872   9.139  -0.104   3.411  0.4050 -0.5211 -0.1294
  568MOL0     C74873   9.006  -0.086   3.352 -1.0993  0.5356  0.3567
  568MOL0     O74874   8.957   0.030   3.349 -0.1145 -0.5054 -0.2375
  568MOL0     C74875   8.824   0.052   3.338 -0.0530  0.8389 -0.4741
  568MOL0     C74876   8.753   0.035   3.218 -0.1318  0.1924  1.2354
  568MOL0     C74877   8.621   0.063   3.209  0.1537  0.3728  0.3765
  568MOL0     C74878   8.545   0.092   3.323 -0.1893 -0.2297  0.3583
  568MOL0     O74879   8.417   0.126   3.316  0.3242 -0.0371 -0.5611
  568MOL0     C74880   8.377   0.265   3.301  0.6748  0.5635  1.2490
  568MOL0     C74881   8.219   0.257   3.295 -0.5619 -1.0221 -0.9914
  568MOL0     C74882   8.167   0.395   3.313  0.2598  0.5790  0.2828
  568MOL0     C74883   8.008   0.392   3.319 -0.1168 -1.1815  0.2008
  568MOL0     C74884   7.946   0.535   3.331  0.3991  0.2248  0.0657
  568MOL0     C74885   7.799   0.508   3.346 -0.7396  0.6026  0.6671
  568MOL0     C74886   7.736   0.642   3.365  0.1902 -0.4899  0.3523
  568MOL0     C74887   7.589   0.628   3.407  0.8213  0.5568  0.4203
  568MOL0    Cl74888   7.573   0.556   3.573 -0.2879  0.1305 -0.1896
  568MOL0     C74889   8.603   0.092   3.448 -0.5370  1.0528 -0.1439
  568MOL0     C74890   8.741   0.070   3.457 -0.0865  0.0524  0.5276
  568MOL0     O74891   8.957  -0.189   3.305  0.1836 -0.0222 -0.4483
  568MOL0     C74892   9.194  -0.001   3.490  0.2467 -0.6698  0.3266
  568MOL0     C74893   9.316  -0.009   3.555 -0.0900 -0.2941 -0.5874
  568MOL0     N74894   9.994   0.314   3.831  0.5126  0.6177 -0.0765
  568MOL0     N74895   9.984   0.392   3.934 -0.6407  0.5541  0.6489
  568MOL0     C74896  10.614   0.758   4.835 -0.3522 -0.6076  0.0145
  568MOL0     C74897  10.711   0.795   4.931  0.4581  0.0421 -0.5238
  568MOL0     C74898  11.127   0.984   5.026  0.3615  0.5956 -0.2420
  568MOL0     C74899  11.256   0.970   4.983 -0.5601 -0.0299  0.1518
  568MOL0     C74900  11.356   1.032   5.061 -0.2363  0.4628 -0.2404
  568MOL0     C74901  11.327   1.111   5.176 -0.0890  0.5821 -0.0312
  568MOL0     O74902  11.435   1.166   5.247 -0.2634  0.0638  0.0970
  568MOL0     C74903  11.409   1.239   5.372 -1.7537  0.1345  0.5668
  568MOL0     C74904  11.506   1.183   5.478  0.0557  0.5899 -0.4877
  568MOL0     C74905  11.640   1.127   5.433  0.4873 -0.5759  0.3567
  568MOL0     C74906  11.718   1.073   5.560  0.1956 -0.0027  0.2811
  568MOL0     C74907  11.844   1.011   5.522  0.4449 -0.4765 -0.2825
  568MOL0     C74908  11.951   0.966   5.492  0.6633  0.1365  0.2440
  568MOL0     C74909  11.192   1.136   5.197  0.8677  0.0666  0.1658
  568MOL0     C74910  11.093   1.075   5.122  0.0201  0.2745  0.7243
  568MOL0     H74911  10.802   1.087   4.800 -1.2293  1.4164  3.9823
  568MOL0     H74912  10.610   1.033   4.646 -1.3361 -0.4757 -0.2659
  568MOL0     H74913  10.558   0.895   4.471  0.1313  2.2505 -0.8030
  568MOL0     H74914  10.407   0.971   4.529 -0.0236  0.4246  0.0657
  568MOL0     H74915  10.431   0.696   4.401  4.2047  2.7947  1.6391
  568MOL0     H74916  10.346   0.838   4.332  0.6039 -0.8925 -0.9223
  568MOL0     H74917  10.193   0.855   4.514 -0.1945 -0.6356  0.6580
  568MOL0     H74918  10.253   0.718   4.588 -4.9345  0.6320  0.6132
  568MOL0     H74919  10.068   0.626   4.479 -1.6209 -2.3824 -2.1903
  568MOL0     H74920  10.081   0.751   4.348 -0.9919 -2.4206 -1.7952
  568MOL0     H74921  10.209   0.476   4.384  3.0010  2.8872  2.2876
  568MOL0     H74922  10.282   0.595   4.278  0.7773 -0.0377  1.0989
  568MOL0     H74923  10.121   0.475   4.147 -0.8124 -1.7854  1.2685
  568MOL0     H74924  10.067   0.638   4.160 -0.0892  0.9043  1.0067
  568MOL0     H74925   9.967   0.392   4.333 -1.0277  0.7870  1.5952
  568MOL0     H74926   9.891   0.552   4.327 -2.0579 -0.5235 -0.4214
  568MOL0     H74927   9.820   0.522   4.114 -0.1138  0.2175  1.3529
  568MOL0     H74928   9.790   0.377   4.206  0.8068 -0.6484 -0.0651
  568MOL0     H74929   9.840   0.146   4.069 -2.4975  3.3083  2.1022
  568MOL0     H74930   9.944  -0.016   3.844 -0.9118  1.2118  1.5923
  568MOL0     H74931   9.993   0.079   3.706  0.4877 -1.1804 -0.7891
  568MOL0     H74932   9.751   0.159   3.683 -1.1330 -2.1591 -2.1274
  568MOL0     H74933   9.715   0.099   3.839  1.2936  1.8600  0.6138
  568MOL0     H74934   9.753  -0.069   3.583 -1.2748 -2.3054 -0.6385
  568MOL0     H74935   9.741  -0.140   3.749 -2.2474  0.5897  1.1370
  568MOL0     H74936   9.554   0.056   3.619  2.5632  0.1726 -0.8255
  568MOL0     H74937   9.535  -0.034   3.773 -0.0716  2.1571 -0.5372
  568MOL0     H74938   9.393  -0.333   3.450 -1.1893 -0.9013 -1.2643
  568MOL0     H74939   9.169  -0.300   3.348 -1.3942  0.0117  0.4072
  568MOL0     H74940   8.824   0.008   3.140 -0.7991  1.9320 -0.0460
  568MOL0     H74941   8.568   0.051   3.115 -1.1038  1.5829  0.9067
  568MOL0     H74942   8.405   0.310   3.205 -1.3883  1.5276  1.0421
  568MOL0     H74943   8.402   0.323   3.390 -0.3612  4.1993 -0.6348
  568MOL0     H74944   8.171   0.184   3.361 -1.4936 -0.7367 -1.3248
  568MOL0     H74945   8.195   0.232   3.191 -0.3423  2.3657 -1.9714
  568MOL0     H74946   8.201   0.465   3.237 -0.9116 -2.1437 -2.9816
  568MOL0     H74947   8.202   0.440   3.407 -1.7818  0.7284  1.0319
  568MOL0     H74948   7.964   0.344   3.231 -0.8494  1.1313 -0.7605
  568MOL0     H74949   7.977   0.339   3.410 -3.9449  0.5592  0.1440
  568MOL0     H74950   7.950   0.592   3.238  0.8288 -0.7046 -0.4996
  568MOL0     H74951   7.980   0.596   3.416  1.8517 -0.4153 -0.0319
  568MOL0     H74952   7.778   0.442   3.431  0.3136 -1.7641 -0.8172
  568MOL0     H74953   7.768   0.452   3.258  1.6007  1.9869 -1.1837
  568MOL0     H74954   7.792   0.701   3.438 -0.1174  2.2004 -1.4380
  568MOL0     H74955   7.738   0.689   3.266  0.6541  1.5932  1.2981
  568MOL0     H74956   7.537   0.562   3.337 -0.8957  0.4634  1.7221
  568MOL0     H74957   7.536   0.723   3.400 -0.9293 -0.1668  2.5992
  568MOL0     H74958   8.538   0.097   3.535 -2.3882 -1.2964 -1.2876
  568MOL0     H74959   8.774   0.071   3.561  0.6968  1.6196  0.2852
  568MOL0     H74960   9.131   0.086   3.507 -1.8611 -2.0003 -0.4084
  568MOL0     H74961   9.349   0.076   3.614 -0.5847 -0.5490  0.0769
  568MOL0     H74962  10.560   0.663   4.829  0.7498 -1.2388 -0.1154
  568MOL0     H74963  10.725   0.729   5.016 -1.2681  1.2726  0.7923
  568MOL0     H74964  11.298   0.917   4.899  2.9886  0.5157  1.4391
  568MOL0     H74965  11.459   1.009   5.034 -0.3043  1.5668 -1.5101
  568MOL0     H74966  11.304   1.246   5.402 -2.6074  1.9712 -2.4525
  568MOL0     H74967  11.438   1.342   5.353 -0.3190 -0.3537 -0.0151
  568MOL0     H74968  11.524   1.265   5.547 -0.1710  0.3766 -0.1745
  568MOL0     H74969  11.445   1.102   5.519  0.9123  0.3512  0.3571
  568MOL0     H74970  11.700   1.204   5.385  0.8683  1.1147  3.3023
  568MOL0     H74971  11.629   1.048   5.358  3.9936  0.2262 -1.1795
  568MOL0     H74972  11.724   1.147   5.641 -1.1997  0.1429  0.2863
  568MOL0     H74973  11.661   0.992   5.605 -0.5160  0.1188 -0.3780
  568MOL0     H74974  12.041   0.917   5.461  0.3554  0.5574 -1.4290
  568MOL0     H74975  11.162   1.218   5.261 -0.9771  0.8734 -1.6475
  568MOL0     H74976  10.990   1.099   5.144 -0.0670  1.2328 -0.6426
  569MOL0     O74977   5.909   1.277  10.130  0.1162  0.3671 -0.4017
  569MOL0     C74978   5.929   1.187  10.212 -0.2999  0.5275 -0.8471
  569MOL0     O74979   5.842   1.151  10.316 -0.0305  0.3909 -0.2872
  569MOL0     C74980   5.723   1.219  10.347  0.6909  0.3411  1.1752
  569MOL0     C74981   5.675   1.344  10.302  0.2083 -0.3891  0.0217
  569MOL0     C74982   5.544   1.382  10.336  0.3704 -0.0339 -0.0421
  569MOL0     C74983   5.464   1.319  10.434 -0.8017  0.2956  0.6317
  569MOL0     O74984   5.337   1.365  10.463  0.2690 -0.7270 -0.3632
  569MOL0     C74985   5.270   1.319  10.588 -0.1596 -0.4088  0.4380
  569MOL0     C74986   5.127   1.367  10.580 -0.1349 -0.6334 -0.2667
  569MOL0     C74987   5.056   1.318  10.708  0.3569 -0.4422  0.1434
  569MOL0     C74988   4.910   1.378  10.723 -0.0846 -0.0788 -0.9777
  569MOL0     C74989   4.825   1.315  10.837 -0.6033  0.0077 -0.8474
  569MOL0     C74990   4.687   1.373  10.825 -0.9051  0.1320  0.1651
  569MOL0     C74991   4.587   1.338  10.935 -1.0903 -0.4877  0.9628
  569MOL0     C74992   4.558   1.184  10.940  0.1114 -0.8592 -0.1126
  569MOL0     N74993   4.478   1.153  11.060  0.2307 -0.1372 -0.4823
  569MOL0     C74994   4.382   1.229  11.124  0.8311  0.9242 -0.6178
  569MOL0     C74995   4.374   1.172  11.255 -0.6797 -0.0053  0.4514
  569MOL0     C74996   4.288   1.200  11.376  0.3874  0.4457  0.5350
  569MOL0     C74997   4.161   1.276  11.350 -0.5285 -0.0434  0.1558
  569MOL0     C74998   4.075   1.304  11.474 -0.2526  0.2381  0.1740
  569MOL0     C74999   3.936   1.355  11.449 -0.6648 -0.0015 -0.0131
  569MOL0     O75000   3.870   1.259  11.369  0.5065  0.6785 -0.2843
  569MOL0     C75001   3.747   1.288  11.316 -0.6964 -0.4717 -0.0420
  569MOL0     C75002   3.694   1.214  11.218  0.3582 -0.7880 -0.1636
  569MOL0     C75003   3.564   1.227  11.169  0.0926  0.1156  0.0513
  569MOL0     C75004   3.481   1.319  11.230  0.3994  0.9631  0.5685
  569MOL0     C75005   3.342   1.328  11.183  0.3836 -0.5880  0.2823
  569MOL0     O75006   3.259   1.415  11.243 -0.3382  0.1344 -0.5216
  569MOL0     C75007   3.123   1.416  11.220  0.0023  0.0733  0.0434
  569MOL0     C75008   3.037   1.304  11.209 -0.0142  0.0463 -0.7807
  569MOL0     C75009   2.900   1.306  11.210  0.5390  0.4593  0.8453
  569MOL0     C75010   2.836   1.425  11.221 -0.4100  0.1410 -0.2476
  569MOL0     O75011   2.700   1.415  11.217  0.1566 -0.7550 -1.2393
  569MOL0     C75012   2.625   1.510  11.298 -0.1683  0.1173  0.0797
  569MOL0     C75013   2.473   1.509  11.277  0.0223  0.6447  0.8548
  569MOL0     C75014   2.406   1.602  11.360  0.2393 -0.0183 -1.5063
  569MOL0     C75015   2.327   1.702  11.278 -0.5258  0.0287 -0.8216
  569MOL0     C75016   2.255   1.792  11.379 -0.2599 -0.6575  0.3772
  569MOL0     C75017   2.144   1.873  11.302 -0.2613  0.6702  0.6929
  569MOL0     C75018   2.035   1.768  11.250 -0.4422 -0.3394 -0.0918
  569MOL0     C75019   1.893   1.837  11.248 -0.3956 -0.0895 -0.8739
  569MOL0    Cl75020   1.878   2.002  11.172 -0.2596 -0.5684 -0.0440
  569MOL0     C75021   2.910   1.541  11.221 -0.7395 -0.4997  0.5375
  569MOL0     C75022   3.052   1.535  11.216 -0.5632  0.5611 -0.2545
  569MOL0     O75023   3.304   1.239  11.104  0.7229  0.4017 -0.6072
  569MOL0     C75024   3.541   1.405  11.331  0.3129 -0.0135  0.1445
  569MOL0     C75025   3.670   1.392  11.370 -0.0780  1.1421 -0.7980
  569MOL0     N75026   4.464   1.071  11.260  0.1859  1.1591 -0.0258
  569MOL0     N75027   4.518   1.050  11.142 -0.1049  0.0297  0.5298
  569MOL0     C75028   5.522   1.206  10.485  0.2144 -0.3857 -0.5164
  569MOL0     C75029   5.648   1.156  10.439  0.3259 -0.8238  0.0238
  569MOL0     C75030   6.058   1.112  10.199 -0.1591  0.0921  0.3078
  569MOL0     C75031   6.143   1.139  10.089 -0.6503 -0.3305  0.8821
  569MOL0     C75032   6.259   1.068  10.074  0.4292 -0.9051 -0.1774
  569MOL0     C75033   6.307   0.974  10.158  0.2235 -0.8529  0.1634
  569MOL0     O75034   6.430   0.916  10.127  0.1022 -0.3370 -0.2003
  569MOL0     C75035   6.463   0.785  10.178  0.7123  0.7907  1.0390
  569MOL0     C75036   6.525   0.777  10.314  0.6066  0.3526  0.3929
  569MOL0     C75037   6.619   0.899  10.336 -0.9303  0.5549 -0.4947
  569MOL0     C75038   6.729   0.914  10.219  0.0835 -0.0986 -0.6067
  569MOL0     C75039   6.819   0.798  10.222  0.2030  0.8413  0.7025
  569MOL0     C75040   6.912   0.714  10.222 -0.4818 -0.8356 -0.3887
  569MOL0     C75041   6.221   0.935  10.267 -0.3393 -0.0588 -0.1992
  569MOL0     C75042   6.099   1.009  10.286 -0.2137  0.0582 -0.1682
  569MOL0     H75043   5.729   1.402  10.228 -0.7995  0.7343  0.1276
  569MOL0     H75044   5.498   1.466  10.283 -2.2209  0.8046  3.2034
  569MOL0     H75045   5.323   1.360  10.675  0.9461 -1.9166  0.5071
  569MOL0     H75046   5.275   1.210  10.600  1.0288 -0.4382 -0.1435
  569MOL0     H75047   5.082   1.316  10.495 -0.0157 -0.7055 -0.2868
  569MOL0     H75048   5.113   1.475  10.573  0.5996 -0.4251  1.1353
  569MOL0     H75049   5.114   1.347  10.796  1.6110 -1.2351 -0.3914
  569MOL0     H75050   5.046   1.209  10.715  2.8893 -0.7185  0.4536
  569MOL0     H75051   4.924   1.481  10.756  0.7701 -0.7978  1.0866
  569MOL0     H75052   4.859   1.366  10.627 -1.7915  0.1291 -0.1472
  569MOL0     H75053   4.888   1.334  10.924  2.8127 -0.7679 -2.9866
  569MOL0     H75054   4.823   1.206  10.829 -2.2211 -0.2865  2.0089
  569MOL0     H75055   4.643   1.350  10.728  0.5174  1.0162 -0.7221
  569MOL0     H75056   4.712   1.478  10.843  1.9935 -0.6864  1.5228
  569MOL0     H75057   4.632   1.383  11.024  3.6219  1.9124 -2.2676
  569MOL0     H75058   4.498   1.400  10.920  0.0516  1.3219  1.5053
  569MOL0     H75059   4.646   1.118  10.943  0.5240 -0.2967  0.3097
  569MOL0     H75060   4.494   1.173  10.852  0.9524  2.5200 -1.2679
  569MOL0     H75061   4.324   1.314  11.088  1.2971  0.9422 -1.3246
  569MOL0     H75062   4.333   1.262  11.454  4.3741  0.6247 -1.6470
  569MOL0     H75063   4.280   1.098  11.415 -2.4508  0.7035  0.7848
  569MOL0     H75064   4.101   1.210  11.286 -1.6075  1.1536 -0.1207
  569MOL0     H75065   4.185   1.369  11.297 -0.1577 -0.3073 -0.1476
  569MOL0     H75066   4.065   1.219  11.543 -0.2807 -1.5513 -1.9023
  569MOL0     H75067   4.132   1.381  11.526  2.2220 -0.6490 -1.0451
  569MOL0     H75068   3.941   1.451  11.396 -0.6511  1.4963  2.5643
  569MOL0     H75069   3.873   1.369  11.537 -2.0726 -2.7300 -0.4576
  569MOL0     H75070   3.766   1.139  11.189  2.5699  0.6820  1.1567
  569MOL0     H75071   3.530   1.165  11.087 -0.9029 -1.4990  1.6052
  569MOL0     H75072   3.083   1.206  11.209  2.1214  0.9355  1.6693
  569MOL0     H75073   2.837   1.218  11.216 -1.0318  1.5905  2.0335
  569MOL0     H75074   2.672   1.606  11.277  4.8652 -2.1121 -0.2091
  569MOL0     H75075   2.641   1.491  11.405  2.2532  1.3619 -0.0043
  569MOL0     H75076   2.441   1.408  11.301  1.4233  0.2604  1.2120
  569MOL0     H75077   2.447   1.523  11.171  0.2497 -2.8108  0.2407
  569MOL0     H75078   2.464   1.654  11.437 -1.1695  2.4170 -1.9847
  569MOL0     H75079   2.338   1.543  11.422  1.6826 -0.4393 -0.2563
  569MOL0     H75080   2.396   1.758  11.214  2.7422 -3.3584 -0.6593
  569MOL0     H75081   2.257   1.656  11.208  0.3068  1.9457 -3.0438
  569MOL0     H75082   2.327   1.863  11.421 -0.9836 -0.1628  0.8203
  569MOL0     H75083   2.203   1.724  11.447 -0.4674 -0.1308  0.7623
  569MOL0     H75084   2.186   1.930  11.219  0.5566 -1.5834 -0.5300
  569MOL0     H75085   2.094   1.945  11.368 -4.0245 -1.3705  0.3236
  569MOL0     H75086   2.044   1.728  11.148  2.3331  1.2924 -0.5881
  569MOL0     H75087   2.036   1.680  11.315  2.5231 -1.1361 -1.0161
  569MOL0     H75088   1.848   1.830  11.348  0.1252  0.6474 -0.5702
  569MOL0     H75089   1.823   1.774  11.192 -3.5699  0.5341  2.0459
  569MOL0     H75090   2.871   1.642  11.221 -0.8527 -0.5421  0.2606
  569MOL0     H75091   3.114   1.624  11.224 -0.3612  0.2216  3.3310
  569MOL0     H75092   3.485   1.481  11.385 -0.8638 -1.8687  1.7060
  569MOL0     H75093   3.704   1.451  11.455 -2.5791  1.3303  0.1563
  569MOL0     H75094   5.469   1.144  10.557 -0.4044  0.4732 -0.2283
  569MOL0     H75095   5.679   1.064  10.488 -2.4906 -0.8060  2.1171
  569MOL0     H75096   6.107   1.208  10.012  0.4409 -1.8381 -1.0670
  569MOL0     H75097   6.320   1.104   9.992 -0.6189  0.2579 -0.4825
  569MOL0     H75098   6.526   0.739  10.102 -0.9390 -0.7971  0.5606
  569MOL0     H75099   6.374   0.722  10.174  0.0706  1.6756  1.0462
  569MOL0     H75100   6.447   0.777  10.392  1.8168  2.4370  1.7030
  569MOL0     H75101   6.571   0.678  10.313 -3.2012 -1.7970  4.2200
  569MOL0     H75102   6.677   0.896  10.428 -0.7929  1.0225 -0.5626
  569MOL0     H75103   6.557   0.988  10.334 -2.0823 -0.1691  1.1852
  569MOL0     H75104   6.681   0.932  10.122 -1.9230  4.1544  0.9416
  569MOL0     H75105   6.784   1.004  10.244  2.9623 -1.6809 -0.8557
  569MOL0     H75106   6.979   0.631  10.225 -0.8401 -1.2480 -2.3771
  569MOL0     H75107   6.257   0.871  10.346 -1.1303  0.8292  0.9272
  569MOL0     H75108   6.047   0.984  10.378  0.3357 -3.4110 -0.6909
  570MOL0     O75109   3.556   9.226   0.983  0.7462 -0.4298  0.2000
  570MOL0     C75110   3.545   9.227   1.104 -0.9023 -1.1028  0.7829
  570MOL0     O75111   3.648   9.227   1.188 -0.8334  0.0494  0.1441
  570MOL0     C75112   3.773   9.223   1.125 -0.6669 -0.4963 -0.9700
  570MOL0     C75113   3.814   9.319   1.024 -0.4432 -0.3373 -1.0297
  570MOL0     C75114   3.937   9.285   0.947  0.3299 -0.2534 -0.4552
  570MOL0     C75115   4.015   9.174   0.980 -0.1070  0.0962 -0.6351
  570MOL0     O75116   4.127   9.129   0.918  0.0800 -0.2449 -0.5439
  570MOL0     C75117   4.207   9.217   0.834 -0.0922 -0.2233  0.0703
  570MOL0     C75118   4.292   9.136   0.745 -0.8090 -0.1556 -0.2932
  570MOL0     C75119   4.422   9.208   0.714 -0.4718  0.8222 -0.2717
  570MOL0     C75120   4.521   9.111   0.647  0.4118  0.3832  0.2339
  570MOL0     C75121   4.660   9.175   0.645 -0.1080  0.9136  1.4866
  570MOL0     C75122   4.757   9.101   0.540 -0.1605  0.3012 -0.3116
  570MOL0     C75123   4.899   9.156   0.540 -0.6341 -0.4780  0.6192
  570MOL0     C75124   4.986   9.068   0.445  0.5558 -0.7271 -0.7271
  570MOL0     N75125   5.129   9.066   0.482 -0.3890  0.3509 -0.6142
  570MOL0     C75126   5.197   9.177   0.500  0.6179 -0.4400 -0.1434
  570MOL0     C75127   5.309   9.138   0.556 -0.5712 -0.0831  0.5947
  570MOL0     C75128   5.440   9.207   0.599 -0.0474 -0.8459 -0.1836
  570MOL0     C75129   5.413   9.304   0.723 -0.0215  0.3869 -1.2134
  570MOL0     C75130   5.388   9.224   0.850 -0.6746  0.3170 -0.1800
  570MOL0     C75131   5.429   9.292   0.980  0.1875  0.4671 -0.0057
  570MOL0     O75132   5.360   9.422   0.986 -1.0428 -0.0748 -0.4791
  570MOL0     C75133   5.245   9.441   1.055  0.3257 -0.1304 -0.6256
  570MOL0     C75134   5.205   9.570   1.096 -0.5734  0.2157  0.3402
  570MOL0     C75135   5.091   9.605   1.175 -0.7200  0.6550  0.5006
  570MOL0     C75136   5.013   9.498   1.222  0.0034  0.1253 -0.7638
  570MOL0     C75137   4.884   9.528   1.289 -0.8751 -0.6298 -0.3304
  570MOL0     O75138   4.859   9.662   1.310 -0.5168 -0.0365 -0.3774
  570MOL0     C75139   4.756   9.691   1.399 -0.9071  0.6114 -0.0263
  570MOL0     C75140   4.635   9.743   1.340 -0.7944 -1.1805 -0.8644
  570MOL0     C75141   4.550   9.824   1.412  0.3385 -0.1388 -0.3053
  570MOL0     C75142   4.575   9.854   1.548 -0.1969 -0.5613  0.9766
  570MOL0     O75143   4.473   9.924   1.615 -0.1147  0.5804  1.1065
  570MOL0     C75144   4.472   9.908   1.759  0.7944  0.2226  0.7513
  570MOL0     C75145   4.335   9.952   1.819 -0.9253  0.1969  0.9417
  570MOL0     C75146   4.330  10.100   1.808 -0.6084  0.0353 -0.3088
  570MOL0     C75147   4.184  10.142   1.788 -0.3256 -0.4986 -0.1853
  570MOL0     C75148   4.172  10.300   1.771 -0.2711  0.0575  0.2387
  570MOL0     C75149   4.039  10.356   1.729 -0.4776  0.3059 -0.7797
  570MOL0     C75150   4.045  10.508   1.702 -0.2982 -0.3642  0.0792
  570MOL0     C75151   3.907  10.560   1.666 -0.6554 -0.0973  0.6387
  570MOL0    Cl75152   3.929  10.733   1.656  0.2886 -0.0295  0.1024
  570MOL0     C75153   4.689   9.798   1.608  0.4632 -0.0431 -0.0919
  570MOL0     C75154   4.785   9.723   1.536  0.6116 -1.1679  0.5290
  570MOL0     O75155   4.803   9.434   1.304 -0.1199 -0.4652 -1.2485
  570MOL0     C75156   5.050   9.370   1.190 -0.0301 -0.1333  0.5061
  570MOL0     C75157   5.166   9.342   1.110 -0.3092  0.4777 -0.0968
  570MOL0     N75158   5.312   9.005   0.581  0.1967  0.1611 -0.2008
  570MOL0     N75159   5.196   8.959   0.539 -0.1888 -1.2988  0.5523
  570MOL0     C75160   3.976   9.101   1.093 -0.1827 -1.0029 -0.1529
  570MOL0     C75161   3.863   9.123   1.166  0.5156  0.3846  0.7480
  570MOL0     C75162   3.411   9.217   1.169 -0.3371 -0.0972 -0.4084
  570MOL0     C75163   3.396   9.187   1.310  0.8546  0.7630 -0.7926
  570MOL0     C75164   3.264   9.196   1.371  0.5004 -1.1035  0.3003
  570MOL0     C75165   3.153   9.229   1.297 -0.3608 -0.8942 -0.1696
  570MOL0     O75166   3.037   9.216   1.361 -0.4972 -0.0850 -0.3016
  570MOL0     C75167   2.920   9.259   1.284  0.2959  0.3638 -0.3757
  570MOL0     C75168   2.822   9.272   1.399  1.1180  0.0864  0.2395
  570MOL0     C75169   2.695   9.337   1.342  0.1951  0.6685 -1.1700
  570MOL0     C75170   2.607   9.404   1.462 -0.5084 -0.5485 -0.2563
  570MOL0     C75171   2.497   9.492   1.422  0.6041 -0.4597 -0.6922
  570MOL0     C75172   2.397   9.556   1.392 -0.6538  0.7351  0.4947
  570MOL0     C75173   3.171   9.251   1.158 -0.2346  0.1320  0.8853
  570MOL0     C75174   3.295   9.252   1.092 -0.4597 -0.0061 -0.3687
  570MOL0     H75175   3.750   9.404   1.002 -2.1468 -0.8557  1.5466
  570MOL0     H75176   3.975   9.345   0.865  0.0908 -2.4951 -2.2851
  570MOL0     H75177   4.257   9.284   0.905  1.0041 -0.7743 -0.1561
  570MOL0     H75178   4.144   9.279   0.770  0.4093 -2.2946 -2.6250
  570MOL0     H75179   4.238   9.119   0.651 -0.7642 -1.6005 -0.0726
  570MOL0     H75180   4.313   9.036   0.783 -2.5102 -2.7455 -5.2011
  570MOL0     H75181   4.463   9.234   0.812  2.8158 -0.7580 -1.1019
  570MOL0     H75182   4.399   9.289   0.645 -1.0221  0.1673 -0.8729
  570MOL0     H75183   4.511   9.022   0.711  0.4499 -0.2467 -0.6188
  570MOL0     H75184   4.475   9.084   0.552 -1.7261  0.8578  1.0746
  570MOL0     H75185   4.695   9.183   0.748 -0.3016  1.6417  1.5004
  570MOL0     H75186   4.657   9.272   0.593 -0.0703 -1.7011 -4.2238
  570MOL0     H75187   4.719   9.118   0.439  2.8769 -0.3563 -1.6983
  570MOL0     H75188   4.752   8.994   0.565 -1.7083  0.7957  1.7844
  570MOL0     H75189   4.904   9.257   0.499  2.8954 -0.5228  0.7038
  570MOL0     H75190   4.937   9.158   0.643 -2.1414 -0.6687  1.2090
  570MOL0     H75191   4.959   9.112   0.348  0.2440 -1.8109 -1.1507
  570MOL0     H75192   4.956   8.963   0.435  3.5852 -1.4744 -4.2226
  570MOL0     H75193   5.168   9.280   0.479 -1.7405 -1.0928 -0.3791
  570MOL0     H75194   5.471   9.264   0.512 -1.0001 -1.2839 -0.8281
  570MOL0     H75195   5.520   9.137   0.624  0.5280 -0.1673 -0.1025
  570MOL0     H75196   5.327   9.360   0.686  0.2356  0.9662 -0.9432
  570MOL0     H75197   5.498   9.371   0.738 -1.8357  2.8769 -1.5339
  570MOL0     H75198   5.283   9.195   0.852 -0.8681  0.9799 -0.3523
  570MOL0     H75199   5.445   9.130   0.854 -2.4173 -0.9830 -3.0560
  570MOL0     H75200   5.539   9.294   0.974  0.1389  2.0828 -1.2999
  570MOL0     H75201   5.405   9.220   1.058  0.1746  0.6625  0.1715
  570MOL0     H75202   5.254   9.657   1.054  2.7859 -0.8851  1.6043
  570MOL0     H75203   5.068   9.711   1.181 -1.9987  0.3919  0.5999
  570MOL0     H75204   4.611   9.731   1.235  0.6704  2.6332 -1.8207
  570MOL0     H75205   4.454   9.858   1.373  0.4348  0.9540  0.3853
  570MOL0     H75206   4.547   9.972   1.808 -1.7140  3.9624  0.1646
  570MOL0     H75207   4.485   9.803   1.786 -1.2172 -0.2530  0.0328
  570MOL0     H75208   4.318   9.915   1.920  2.3847 -0.8043  1.2601
  570MOL0     H75209   4.259   9.910   1.753 -0.9643  2.7097 -0.7630
  570MOL0     H75210   4.403  10.138   1.736 -0.3161 -0.8994 -0.5115
  570MOL0     H75211   4.367  10.139   1.903 -0.1493 -0.0303 -0.4623
  570MOL0     H75212   4.164  10.100   1.689  1.1776 -0.6058 -0.4665
  570MOL0     H75213   4.122  10.106   1.871  1.6567  1.7072  2.4395
  570MOL0     H75214   4.251  10.338   1.706  0.6261 -0.3419  1.0757
  570MOL0     H75215   4.198  10.343   1.868  1.2421 -2.1687  0.8867
  570MOL0     H75216   3.964  10.333   1.806  2.4360 -0.1759  2.1547
  570MOL0     H75217   4.017  10.305   1.635 -1.6506 -3.3730  1.2653
  570MOL0     H75218   4.075  10.569   1.788 -1.7671 -0.7100  0.8702
  570MOL0     H75219   4.118  10.524   1.622 -1.3768  0.2561 -0.8016
  570MOL0     H75220   3.838  10.540   1.748  1.0432 -0.5235  2.0170
  570MOL0     H75221   3.871  10.517   1.572  1.1684 -1.9625  0.7344
  570MOL0     H75222   4.702   9.819   1.713  0.0497 -1.0770  0.1863
  570MOL0     H75223   4.880   9.689   1.577  1.8647 -1.3008 -2.3042
  570MOL0     H75224   4.981   9.292   1.220 -1.8112  1.8941  2.0245
  570MOL0     H75225   5.191   9.238   1.091 -0.1893  0.5065 -0.0965
  570MOL0     H75226   4.034   9.021   1.138 -1.3838 -0.0983  3.3997
  570MOL0     H75227   3.822   9.062   1.246  1.6128 -0.5323  0.6315
  570MOL0     H75228   3.478   9.156   1.374 -0.6136 -1.2540  0.2587
  570MOL0     H75229   3.253   9.177   1.477 -0.2637 -1.5712  0.1388
  570MOL0     H75230   2.897   9.182   1.209  2.2659 -1.6218  0.9018
  570MOL0     H75231   2.926   9.356   1.234  0.7161  0.4121 -0.2373
  570MOL0     H75232   2.796   9.175   1.444  1.3744 -0.6741 -1.1942
  570MOL0     H75233   2.862   9.333   1.480  1.6356  0.6582 -0.4382
  570MOL0     H75234   2.621   9.263   1.308 -2.4596  2.0443  1.1514
  570MOL0     H75235   2.722   9.406   1.262  0.8434 -0.2112 -1.7231
  570MOL0     H75236   2.568   9.321   1.522  0.1329 -0.5526  0.1644
  570MOL0     H75237   2.677   9.465   1.520 -0.8130  1.5415 -1.9753
  570MOL0     H75238   2.314   9.602   1.341 -0.5455 -1.7237 -2.1868
  570MOL0     H75239   3.086   9.270   1.094  0.4170 -2.0506 -0.7844
  570MOL0     H75240   3.302   9.278   0.986 -2.2366 -0.0585 -0.5266
  571MOL0     O75241   7.715  10.031   6.270 -1.0307  0.2741 -0.9134
  571MOL0     C75242   7.631  10.098   6.322  0.3063  1.0689 -0.4707
  571MOL0     O75243   7.652  10.187   6.419 -0.1575 -0.8316  0.6778
  571MOL0     C75244   7.778  10.244   6.444  0.3890  0.4139 -0.3477
  571MOL0     C75245   7.785  10.294   6.570 -0.7459  0.9305  0.3241
  571MOL0     C75246   7.909  10.349   6.612  1.1512  0.8869  0.3111
  571MOL0     C75247   8.018  10.359   6.527 -0.2811  0.0225 -0.3838
  571MOL0     O75248   8.134  10.420   6.567  0.5857  0.3953 -0.7253
  571MOL0     C75249   8.226  10.469   6.468 -0.5867 -0.3197 -0.1106
  571MOL0     C75250   8.339  10.548   6.535 -0.3874 -0.2232  0.4117
  571MOL0     C75251   8.432  10.455   6.605  0.9848  0.1207 -0.1692
  571MOL0     C75252   8.569  10.519   6.622 -0.0983  0.3696  0.0371
  571MOL0     C75253   8.659  10.419   6.701  1.1683 -0.1473  0.0570
  571MOL0     C75254   8.614  10.365   6.839  0.0041  0.0311  0.4594
  571MOL0     C75255   8.596  10.477   6.941 -0.0728  0.2594  0.0806
  571MOL0     C75256   8.730  10.530   6.980  0.1736 -0.2197  0.6365
  571MOL0     N75257   8.722  10.619   7.100 -0.4579 -0.1277  0.2252
  571MOL0     C75258   8.700  10.570   7.224 -0.0253 -0.4222 -0.1692
  571MOL0     C75259   8.662  10.669   7.295 -0.0301 -0.4367 -0.3702
  571MOL0     C75260   8.600  10.664   7.430  0.7924 -0.0100  0.8109
  571MOL0     C75261   8.681  10.586   7.538  0.0858 -1.0841 -0.0966
  571MOL0     C75262   8.594  10.573   7.656  0.3260  0.2222  0.1067
  571MOL0     C75263   8.669  10.514   7.775 -0.3822 -0.0134  0.1004
  571MOL0     O75264   8.593  10.541   7.889  0.2163  0.0183 -0.4670
  571MOL0     C75265   8.476  10.471   7.900 -0.2341  1.1970 -0.1264
  571MOL0     C75266   8.374  10.552   7.959 -0.7448  0.0029  0.6058
  571MOL0     C75267   8.241  10.509   7.951 -0.7081 -0.0598 -0.2500
  571MOL0     C75268   8.211  10.386   7.901 -0.1354  0.8218 -0.3244
  571MOL0     C75269   8.061  10.347   7.896 -0.6267 -0.5911  0.8734
  571MOL0     O75270   8.025  10.227   7.856  0.0650  0.3656  0.0931
  571MOL0     C75271   7.890  10.196   7.830  0.4298  0.3810 -0.1123
  571MOL0     C75272   7.846  10.157   7.704 -0.0415 -0.4179  0.0661
  571MOL0     C75273   7.711  10.131   7.676 -0.2564 -0.1242  0.1797
  571MOL0     C75274   7.617  10.135   7.773 -0.3124  0.1026  0.4114
  571MOL0     O75275   7.491  10.107   7.736 -0.1912 -0.1833  0.3303
  571MOL0     C75276   7.398  10.055   7.839 -0.3366  0.5942  0.2233
  571MOL0     C75277   7.266   9.992   7.779  0.2532 -0.2193 -0.6236
  571MOL0     C75278   7.195  10.098   7.693 -0.5579  0.1021 -0.7016
  571MOL0     C75279   7.055  10.058   7.663  0.1305  0.3089 -0.3375
  571MOL0     C75280   6.962  10.166   7.626  0.5373  0.2583  0.5142
  571MOL0     C75281   6.848  10.101   7.562  0.4113  0.3357 -0.8892
  571MOL0     C75282   6.742  10.210   7.531  0.4947  1.1831 -0.0456
  571MOL0     C75283   6.629  10.153   7.439 -0.7453 -0.0514  0.9877
  571MOL0    Cl75284   6.504  10.267   7.402  0.0985 -0.4255  0.5436
  571MOL0     C75285   7.655  10.177   7.893  0.2989  0.2947  0.0226
  571MOL0     C75286   7.789  10.208   7.928 -0.6272 -0.0989  1.0888
  571MOL0     O75287   7.991  10.439   7.935  0.1132 -1.0627 -0.0540
  571MOL0     C75288   8.309  10.295   7.852 -0.3919  0.4874 -0.1904
  571MOL0     C75289   8.441  10.348   7.853  1.0079 -0.1604  0.5715
  571MOL0     N75290   8.672  10.786   7.221 -0.3500  0.4793 -0.6976
  571MOL0     N75291   8.712  10.751   7.109 -0.4534 -0.0489  0.3711
  571MOL0     C75292   8.003  10.310   6.399  0.8049  1.2157  0.1660
  571MOL0     C75293   7.877  10.263   6.355  0.6699  0.0383  0.2978
  571MOL0     C75294   7.493  10.063   6.284  0.2715 -0.4380 -0.5603
  571MOL0     C75295   7.398  10.163   6.301 -0.1695  0.9893  0.9154
  571MOL0     C75296   7.261  10.153   6.259 -1.1144 -0.4469 -0.3899
  571MOL0     C75297   7.220  10.035   6.193 -0.5398  0.6462 -0.9535
  571MOL0     O75298   7.094  10.011   6.146  0.5640 -0.6260 -0.4475
  571MOL0     C75299   6.987  10.083   6.209 -0.1237 -0.3329  0.0591
  571MOL0     C75300   6.850  10.012   6.169  0.7420  0.0714  0.1169
  571MOL0     C75301   6.750  10.121   6.186  0.5327  0.2955 -0.2938
  571MOL0     C75302   6.608  10.082   6.135  0.1278 -0.5685 -0.2147
  571MOL0     C75303   6.536   9.989   6.229 -0.1556 -0.2269 -0.5383
  571MOL0     C75304   6.473   9.919   6.314  0.2459  0.1697  0.8064
  571MOL0     C75305   7.313   9.930   6.182  0.6494 -0.0486 -0.0584
  571MOL0     C75306   7.444   9.940   6.233 -0.0195  0.1225  0.1648
  571MOL0     H75307   7.700  10.290   6.637  2.1814 -0.7072  4.3698
  571MOL0     H75308   7.913  10.385   6.714 -0.4539 -0.1472  0.7844
  571MOL0     H75309   8.170  10.530   6.396 -0.2873  0.4681  0.3105
  571MOL0     H75310   8.274  10.390   6.410  1.0871 -0.7789  1.7814
  571MOL0     H75311   8.294  10.618   6.607 -3.9312  0.5329 -2.2197
  571MOL0     H75312   8.396  10.604   6.460 -0.7090 -2.1018 -1.2957
  571MOL0     H75313   8.445  10.368   6.540  0.0107 -2.3189  2.6712
  571MOL0     H75314   8.381  10.420   6.695  1.5167 -0.1570  0.0274
  571MOL0     H75315   8.601  10.536   6.519 -3.0107 -1.4263 -1.3239
  571MOL0     H75316   8.562  10.613   6.676 -0.4510  0.0032  0.6376
  571MOL0     H75317   8.759  10.462   6.704  1.1648  0.0073 -1.5569
  571MOL0     H75318   8.683  10.328   6.646 -0.3330  0.4652 -1.6905
  571MOL0     H75319   8.696  10.303   6.878 -0.7168  0.7055  3.2508
  571MOL0     H75320   8.521  10.308   6.833 -0.5052  0.7983  0.9853
  571MOL0     H75321   8.541  10.560   6.895 -2.5137 -1.7364 -0.8031
  571MOL0     H75322   8.548  10.426   7.024  2.8608  1.0921  2.4881
  571MOL0     H75323   8.768  10.590   6.897  3.0247 -1.2438  1.0924
  571MOL0     H75324   8.797  10.448   7.006  2.9161  1.5955 -0.2594
  571MOL0     H75325   8.690  10.471   7.268  2.2424 -0.9107 -0.6317
  571MOL0     H75326   8.497  10.631   7.412  1.4000 -0.1869 -3.1704
  571MOL0     H75327   8.588  10.767   7.465  0.3669  0.2820 -0.1834
  571MOL0     H75328   8.768  10.645   7.570  0.5973 -1.1732 -1.2695
  571MOL0     H75329   8.716  10.485   7.515 -0.5425 -1.4331  0.4659
  571MOL0     H75330   8.557  10.669   7.694  0.3250  1.1469 -2.0921
  571MOL0     H75331   8.514  10.499   7.646  0.2561  0.3762 -0.4560
  571MOL0     H75332   8.772  10.549   7.782 -0.3428  0.3411 -1.6694
  571MOL0     H75333   8.693  10.409   7.762  3.4633  0.6405  0.6794
  571MOL0     H75334   8.409  10.638   8.015  0.3184 -0.1057  0.1357
  571MOL0     H75335   8.164  10.576   7.990 -2.3360 -1.8307 -0.2942
  571MOL0     H75336   7.916  10.162   7.620 -1.4650  1.0544 -1.0954
  571MOL0     H75337   7.682  10.098   7.577  1.0857 -1.4568  0.1930
  571MOL0     H75338   7.374  10.135   7.909 -0.6156  0.4290  0.3188
  571MOL0     H75339   7.446   9.977   7.899 -1.8687 -0.3900  0.2208
  571MOL0     H75340   7.209   9.956   7.866  0.7915 -0.3612 -0.3237
  571MOL0     H75341   7.294   9.905   7.718  0.1655 -1.2679  0.7639
  571MOL0     H75342   7.246  10.114   7.598  1.5792  1.0758  0.5563
  571MOL0     H75343   7.210  10.186   7.757  2.4006 -1.1605  0.4845
  571MOL0     H75344   7.061   9.999   7.572  0.8897  1.3056 -0.9504
  571MOL0     H75345   7.017  10.002   7.749  0.4259 -0.8966 -0.9821
  571MOL0     H75346   7.018  10.233   7.561  1.6592  3.1594  4.1281
  571MOL0     H75347   6.916  10.228   7.704 -3.5044 -0.1151 -1.3222
  571MOL0     H75348   6.802  10.022   7.622  1.8051  0.8634  0.9935
  571MOL0     H75349   6.878  10.049   7.470 -2.6194  1.9758 -2.9533
  571MOL0     H75350   6.693  10.245   7.623  0.4584  1.8490 -0.3089
  571MOL0     H75351   6.790  10.299   7.488  0.3868  1.3599  0.1966
  571MOL0     H75352   6.581  10.062   7.475  2.9451 -1.9679  1.4558
  571MOL0     H75353   6.671  10.128   7.341  1.9387 -1.4343  2.3874
  571MOL0     H75354   7.584  10.194   7.973 -0.2966  0.4785 -0.5367
  571MOL0     H75355   7.830  10.234   8.025  0.5302  1.0241  0.3271
  571MOL0     H75356   8.268  10.203   7.813 -2.5499  0.1393  2.5591
  571MOL0     H75357   8.525  10.286   7.822  2.1479  1.0669  1.0785
  571MOL0     H75358   8.078  10.315   6.320  1.7588  0.7187  1.0127
  571MOL0     H75359   7.875  10.229   6.253  2.3264 -0.4950  0.4094
  571MOL0     H75360   7.412  10.255   6.357 -0.5903  2.7608 -1.7152
  571MOL0     H75361   7.197  10.238   6.278  0.9102  0.7674  1.4858
  571MOL0     H75362   6.986  10.185   6.172  1.3314 -1.0046 -1.9780
  571MOL0     H75363   6.993  10.101   6.317 -2.8055 -4.6035  1.1614
  571MOL0     H75364   6.860   9.978   6.066  0.7648 -2.1264  0.7875
  571MOL0     H75365   6.843   9.925   6.235  1.3900 -0.4741 -0.5264
  571MOL0     H75366   6.784  10.210   6.132  0.3439  0.7093  0.2596
  571MOL0     H75367   6.756  10.153   6.290  2.4112 -1.5452  0.2434
  571MOL0     H75368   6.550  10.173   6.116  3.1137  1.1876 -1.6071
  571MOL0     H75369   6.609  10.023   6.043 -1.6875 -0.4096 -0.3687
  571MOL0     H75370   6.421   9.861   6.387 -1.2846  2.4600  1.5962
  571MOL0     H75371   7.280   9.841   6.129  1.5651 -0.6717  0.3926
  571MOL0     H75372   7.516   9.859   6.239  2.4255  2.1438  0.2938
  572MOL0     O75373   5.295  10.570   3.701  0.0689 -0.2053  0.1872
  572MOL0     C75374   5.365  10.521   3.793  0.2586 -0.3395 -0.0532
  572MOL0     O75375   5.341  10.528   3.927 -0.0033  0.5447 -0.2474
  572MOL0     C75376   5.223  10.579   3.977  0.5985 -0.2991  0.0982
  572MOL0     C75377   5.210  10.719   3.987 -1.1529  0.0988 -1.0524
  572MOL0     C75378   5.088  10.774   4.015 -0.0124  0.4712  0.7526
  572MOL0     C75379   4.974  10.709   4.051 -0.5206  1.5058 -0.4684
  572MOL0     O75380   4.855  10.771   4.085 -0.1518 -0.0301 -0.1310
  572MOL0     C75381   4.734  10.706   4.128  0.4009  0.3631 -0.0243
  572MOL0     C75382   4.664  10.786   4.230 -0.2175 -0.3926  0.0263
  572MOL0     C75383   4.550  10.707   4.289  0.7935 -0.2310 -0.5646
  572MOL0     C75384   4.469  10.798   4.376  0.5053  0.8069 -0.4503
  572MOL0     C75385   4.373  10.719   4.470 -0.0351 -0.6317 -0.9610
  572MOL0     C75386   4.291  10.814   4.565  0.0009  0.1982 -0.3260
  572MOL0     C75387   4.179  10.743   4.650 -0.1352 -0.4039 -0.3201
  572MOL0     C75388   4.109  10.837   4.746  0.2102  0.8258 -0.2646
  572MOL0     N75389   3.982  10.782   4.797  0.1980  0.1019  0.6165
  572MOL0     C75390   3.876  10.730   4.718  1.2954 -0.1102 -0.1061
  572MOL0     C75391   3.793  10.670   4.814  0.7650  1.0042 -0.4882
  572MOL0     C75392   3.664  10.592   4.780 -0.0600  0.0466 -0.8475
  572MOL0     C75393   3.651  10.470   4.864  0.0053 -0.0073 -0.4809
  572MOL0     C75394   3.526  10.378   4.836  0.4668  0.1109 -0.3349
  572MOL0     C75395   3.390  10.431   4.882 -0.0786  0.0383  0.8455
  572MOL0     O75396   3.284  10.334   4.863 -0.1991 -0.2361 -0.1189
  572MOL0     C75397   3.156  10.365   4.892  0.2414 -0.3517  0.2882
  572MOL0     C75398   3.114  10.468   4.975 -0.5110 -0.1616 -0.2707
  572MOL0     C75399   2.980  10.491   4.999 -0.8308  0.3797  0.3597
  572MOL0     C75400   2.881  10.412   4.931  0.2006 -0.0689 -0.8940
  572MOL0     C75401   2.748  10.433   4.960  0.2977 -0.3871 -0.1052
  572MOL0     O75402   2.661  10.330   4.964  0.5384  0.2787 -0.4645
  572MOL0     C75403   2.538  10.347   5.000 -0.4689 -0.1027 -0.4120
  572MOL0     C75404   2.431  10.363   4.910 -0.1596  0.0091 -0.1945
  572MOL0     C75405   2.307  10.384   4.954  0.5192 -0.3215  0.0156
  572MOL0     C75406   2.272  10.368   5.093  0.9299 -0.4292  0.3590
  572MOL0     O75407   2.134  10.387   5.125  0.5757 -0.0165  0.1110
  572MOL0     C75408   2.084  10.357   5.253 -1.2730  0.1379  0.2096
  572MOL0     C75409   1.937  10.407   5.251  0.2607  0.2169  0.0843
  572MOL0     C75410   1.851  10.305   5.165  0.8267  0.2815 -0.7374
  572MOL0     C75411   1.702  10.323   5.187  0.8654  0.0384  0.1095
  572MOL0     C75412   1.632  10.244   5.078  0.3983  0.2662  0.7630
  572MOL0     C75413   1.491  10.206   5.103  0.5996 -0.0520 -0.4254
  572MOL0     C75414   1.432  10.163   4.962 -0.1919  0.2117  0.6274
  572MOL0     C75415   1.326  10.258   4.909  0.6972 -0.1689 -0.2228
  572MOL0    Cl75416   1.172  10.242   4.995  0.6620 -0.0419  0.0857
  572MOL0     C75417   2.376  10.347   5.181 -0.0322 -0.1544 -0.1765
  572MOL0     C75418   2.510  10.332   5.139 -0.1179 -0.0683  0.0029
  572MOL0     O75419   2.721  10.550   4.979 -0.1756  0.5089  0.3749
  572MOL0     C75420   2.931  10.307   4.857  1.0021 -0.9620  0.2154
  572MOL0     C75421   3.059  10.279   4.838  0.2856  0.4672 -0.1602
  572MOL0     N75422   3.859  10.666   4.931 -0.1800  0.1545 -0.4665
  572MOL0     N75423   3.959  10.741   4.919  0.8649 -0.2403 -0.4670
  572MOL0     C75424   4.989  10.565   4.053  0.6969  0.1686 -0.3710
  572MOL0     C75425   5.106  10.505   4.009 -0.1320 -0.0729 -0.0073
  572MOL0     C75426   5.496  10.465   3.745  0.1398 -0.5630 -0.4429
  572MOL0     C75427   5.521  10.444   3.607  0.4009 -0.0437  0.5040
  572MOL0     C75428   5.649  10.404   3.560  0.3934 -0.0599  0.1994
  572MOL0     C75429   5.749  10.374   3.647 -0.2760 -0.4540  0.1090
  572MOL0     O75430   5.863  10.319   3.595  0.5594  0.8226  0.4742
  572MOL0     C75431   5.980  10.372   3.653  0.2873  0.8202  0.8481
  572MOL0     C75432   6.105  10.338   3.575 -0.1776  0.1913  0.6345
  572MOL0     C75433   6.089  10.381   3.428 -0.0600  0.1679  0.6699
  572MOL0     C75434   6.223  10.405   3.357  0.2314 -1.5705  0.2160
  572MOL0     C75435   6.304  10.291   3.334  0.0760  0.6422  0.6538
  572MOL0     C75436   6.379  10.194   3.311 -0.2545  0.2224 -0.0979
  572MOL0     C75437   5.724  10.387   3.779  0.6687 -0.2698 -0.7429
  572MOL0     C75438   5.600  10.434   3.823  0.1812 -0.2570 -0.8596
  572MOL0     H75439   5.296  10.783   3.973 -2.2593  1.4873 -1.6722
  572MOL0     H75440   5.082  10.882   4.027 -1.3718  0.4857  0.1053
  572MOL0     H75441   4.761  10.614   4.180  0.3146  0.2089 -0.2497
  572MOL0     H75442   4.678  10.678   4.038 -0.3346  3.5669 -0.6974
  572MOL0     H75443   4.627  10.881   4.188  0.3701 -0.4079 -0.5346
  572MOL0     H75444   4.722  10.810   4.319 -0.4577  0.7306 -0.0948
  572MOL0     H75445   4.583  10.619   4.345 -0.2074 -0.2789 -0.0212
  572MOL0     H75446   4.479  10.674   4.213 -2.8116  2.9164  1.0754
  572MOL0     H75447   4.536  10.860   4.436 -0.7485  2.6174 -0.8286
  572MOL0     H75448   4.413  10.865   4.310  0.4553 -0.5630 -1.8725
  572MOL0     H75449   4.434  10.648   4.527 -1.6494 -0.5158  1.0120
  572MOL0     H75450   4.303  10.654   4.417 -2.2088  0.0616  0.8727
  572MOL0     H75451   4.250  10.886   4.494  2.8449  0.4502 -1.8256
  572MOL0     H75452   4.370  10.857   4.628 -0.3524 -1.0383  1.0293
  572MOL0     H75453   4.113  10.684   4.585 -0.9033  0.7435 -0.6063
  572MOL0     H75454   4.230  10.671   4.715 -0.8458 -1.4160 -0.8500
  572MOL0     H75455   4.088  10.931   4.694 -3.4044  0.0373 -0.4518
  572MOL0     H75456   4.168  10.843   4.838 -1.9421 -0.8662  1.3561
  572MOL0     H75457   3.864  10.743   4.611  1.4982 -2.3143 -0.4336
  572MOL0     H75458   3.655  10.556   4.677 -3.0539 -1.7876 -0.0755
  572MOL0     H75459   3.567  10.640   4.796 -0.2355  0.5406 -3.0262
  572MOL0     H75460   3.639  10.499   4.969 -3.2230  0.4055 -0.8677
  572MOL0     H75461   3.740  10.408   4.850 -1.0058 -2.3290  2.3467
  572MOL0     H75462   3.512  10.350   4.731  1.3598  0.4997 -0.5722
  572MOL0     H75463   3.533  10.279   4.882 -4.3226 -1.1430 -1.7025
  572MOL0     H75464   3.367  10.528   4.838 -1.6644 -0.5342  0.3157
  572MOL0     H75465   3.399  10.446   4.990  1.6118  2.6091  0.4095
  572MOL0     H75466   3.189  10.536   5.013 -1.1087 -0.0749  0.7752
  572MOL0     H75467   2.962  10.584   5.052  0.0968  1.8177 -1.6786
  572MOL0     H75468   2.444  10.335   4.806 -0.7616 -0.3400 -0.1799
  572MOL0     H75469   2.233  10.400   4.876  1.9157  1.4507 -1.0133
  572MOL0     H75470   2.137  10.400   5.339 -0.3140 -1.3911  0.4220
  572MOL0     H75471   2.089  10.250   5.274  2.0771  0.5409  2.1462
  572MOL0     H75472   1.932  10.509   5.213 -0.2398  1.2990  2.8469
  572MOL0     H75473   1.896  10.399   5.352  1.1624  1.3620  0.5652
  572MOL0     H75474   1.877  10.205   5.200  0.5095  0.9193  1.4683
  572MOL0     H75475   1.875  10.316   5.059  1.2727 -4.3027 -1.3407
  572MOL0     H75476   1.673  10.288   5.287 -3.6048  1.9588 -0.2904
  572MOL0     H75477   1.673  10.428   5.186 -2.4285 -0.7689 -0.1146
  572MOL0     H75478   1.686  10.150   5.061  0.5907  0.3806  0.7427
  572MOL0     H75479   1.628  10.309   4.990  2.6856 -0.0856  0.3253
  572MOL0     H75480   1.435  10.294   5.136  1.2837  0.3138 -0.2242
  572MOL0     H75481   1.488  10.131   5.183  1.8354  0.9038  0.5543
  572MOL0     H75482   1.510  10.148   4.886 -2.1273  1.4137 -1.7399
  572MOL0     H75483   1.392  10.061   4.964 -2.6670  1.0259 -1.6313
  572MOL0     H75484   1.306  10.236   4.804 -2.0193  2.4212 -0.3566
  572MOL0     H75485   1.361  10.359   4.928 -1.0130  0.1275  1.8084
  572MOL0     H75486   2.376  10.338   5.289  2.7384 -0.2350 -0.1174
  572MOL0     H75487   2.586  10.316   5.215 -0.3241 -0.3967  0.1399
  572MOL0     H75488   2.856  10.246   4.806  2.3156 -2.1065 -0.4195
  572MOL0     H75489   3.083  10.196   4.772  0.0149 -1.4106  1.9374
  572MOL0     H75490   4.910  10.499   4.087  0.2263  0.4263 -0.9463
  572MOL0     H75491   5.110  10.396   4.008 -0.2797 -0.1551  2.3832
  572MOL0     H75492   5.447  10.463   3.530  2.9957  1.5585 -1.8009
  572MOL0     H75493   5.653  10.392   3.452 -1.5762 -3.1926  0.3345
  572MOL0     H75494   5.995  10.343   3.758 -1.6820 -1.7390  0.5025
  572MOL0     H75495   5.971  10.481   3.653  0.5966  0.8506  1.4346
  572MOL0     H75496   6.182  10.404   3.618 -1.3227  1.9156  0.1137
  572MOL0     H75497   6.142  10.236   3.589  3.7217  1.5006  1.3114
  572MOL0     H75498   6.019  10.465   3.424 -0.3882 -0.1591 -1.1732
  572MOL0     H75499   6.036  10.305   3.371  0.1524 -0.2829  1.0669
  572MOL0     H75500   6.210  10.456   3.261  0.8164 -0.2129  0.8280
  572MOL0     H75501   6.276  10.481   3.416  3.0119 -0.6152 -3.2017
  572MOL0     H75502   6.441  10.106   3.314  0.7621  0.8233 -1.9836
  572MOL0     H75503   5.798  10.363   3.855 -1.1723 -0.7123  1.0068
  572MOL0     H75504   5.596  10.450   3.930  3.8818 -1.0217 -0.4718
  573MOL0     O75505   7.428   1.392  10.572 -0.9362  0.0994 -0.2708
  573MOL0     C75506   7.384   1.510  10.587  0.6867  0.3817 -0.4290
  573MOL0     O75507   7.261   1.558  10.555 -0.0024 -0.9713 -0.0375
  573MOL0     C75508   7.154   1.486  10.501  0.7248 -0.2982 -0.8550
  573MOL0     C75509   7.043   1.559  10.473 -0.5985  0.0468 -0.3503
  573MOL0     C75510   6.922   1.499  10.439  0.5686 -0.6942 -0.0452
  573MOL0     C75511   6.903   1.359  10.446 -0.7638  0.5546  0.4720
  573MOL0     O75512   6.780   1.295  10.429 -0.8423  0.6204  0.0964
  573MOL0     C75513   6.654   1.355  10.479 -0.6497 -0.4090 -0.1388
  573MOL0     C75514   6.545   1.253  10.433  0.7533 -0.0785 -0.0916
  573MOL0     C75515   6.411   1.323  10.477  0.2846 -0.0470  0.5517
  573MOL0     C75516   6.298   1.233  10.428  0.5678  0.3376 -0.2236
  573MOL0     C75517   6.162   1.293  10.494 -0.2916  0.3824 -0.1131
  573MOL0     C75518   6.094   1.413  10.420  0.4892 -0.8062 -0.5624
  573MOL0     C75519   5.964   1.453  10.491  0.3026 -0.3513 -0.0526
  573MOL0     C75520   5.895   1.575  10.418 -0.3387  0.2826 -0.2588
  573MOL0     N75521   5.820   1.657  10.506  0.4654 -0.1092  0.9900
  573MOL0     C75522   5.864   1.775  10.574  0.3415  0.0180  1.2825
  573MOL0     C75523   5.752   1.814  10.645  0.6519 -0.0970 -0.3854
  573MOL0     C75524   5.747   1.938  10.731  0.4110 -0.3966 -0.5583
  573MOL0     C75525   5.600   1.973  10.762  0.5284  0.0458 -0.2969
  573MOL0     C75526   5.593   2.084  10.861  0.1938 -0.2387 -0.3259
  573MOL0     C75527   5.453   2.088  10.917 -1.1026 -0.2182 -0.3944
  573MOL0     O75528   5.366   2.114  10.811 -0.5045  1.0109  0.1880
  573MOL0     C75529   5.232   2.118  10.855  0.2643  0.0189  0.5099
  573MOL0     C75530   5.145   2.167  10.761  0.1293 -0.4977  0.7521
  573MOL0     C75531   5.006   2.183  10.786  0.2790  0.0085 -0.3139
  573MOL0     C75532   4.956   2.133  10.908 -1.2940  0.3684  0.0805
  573MOL0     C75533   4.808   2.127  10.925  0.7832 -0.1091 -0.4917
  573MOL0     O75534   4.737   2.228  10.870  0.0922  0.1561 -0.5582
  573MOL0     C75535   4.602   2.207  10.840 -0.1507 -0.5094 -0.5386
  573MOL0     C75536   4.566   2.097  10.762  1.0313 -0.3715 -0.3585
  573MOL0     C75537   4.434   2.072  10.740 -0.2705  0.8540 -0.0337
  573MOL0     C75538   4.333   2.146  10.806 -0.4604 -0.7727 -0.3212
  573MOL0     O75539   4.198   2.112  10.794  0.3189 -0.2969  0.1862
  573MOL0     C75540   4.167   2.024  10.910  0.0653 -1.1439  0.5692
  573MOL0     C75541   4.028   1.992  10.876 -0.4465 -1.1494  0.1779
  573MOL0     C75542   3.931   2.111  10.861  0.0362 -0.0061 -0.2458
  573MOL0     C75543   3.791   2.066  10.812 -0.3650  0.6907  0.6128
  573MOL0     C75544   3.816   2.010  10.667  0.0685  1.0900  0.5192
  573MOL0     C75545   3.679   1.970  10.610  0.3715  0.0419 -0.4747
  573MOL0     C75546   3.685   1.871  10.500 -0.3201  0.0877  0.7504
  573MOL0     C75547   3.561   1.784  10.473  0.8145  0.3349 -0.3053
  573MOL0    Cl75548   3.427   1.881  10.408 -0.0919  0.4017  0.0960
  573MOL0     C75549   4.369   2.260  10.872  0.2731 -0.7141  0.2481
  573MOL0     C75550   4.502   2.286  10.893  0.2600 -0.1447  0.6213
  573MOL0     O75551   4.760   2.036  10.991  0.3818  0.4867  0.2164
  573MOL0     C75552   5.046   2.083  11.004 -0.0850 -0.2371 -0.1124
  573MOL0     C75553   5.188   2.076  10.975 -0.3599  0.5196 -0.8340
  573MOL0     N75554   5.648   1.727  10.625  0.5464  0.7811  0.1782
  573MOL0     N75555   5.689   1.639  10.541 -0.5669  0.2856 -0.0553
  573MOL0     C75556   7.021   1.279  10.466 -0.3716 -0.5362 -0.3761
  573MOL0     C75557   7.149   1.345  10.495  0.1313 -0.5567 -0.2253
  573MOL0     C75558   7.474   1.602  10.665 -0.0500 -0.5279  0.2055
  573MOL0     C75559   7.476   1.742  10.640  0.2303  0.3192 -1.8965
  573MOL0     C75560   7.556   1.826  10.722  0.2864  0.9009  0.3532
  573MOL0     C75561   7.639   1.767  10.814  0.5240  0.1022 -0.6140
  573MOL0     O75562   7.708   1.856  10.892  0.3700 -0.4920 -0.5027
  573MOL0     C75563   7.807   1.824  10.984 -0.8025 -0.5077  0.1916
  573MOL0     C75564   7.923   1.935  10.991  0.1276 -0.4088 -0.0455
  573MOL0     C75565   8.004   1.934  10.861  0.5642  1.0584 -0.5951
  573MOL0     C75566   8.100   2.053  10.841 -0.0934  0.3502 -0.2158
  573MOL0     C75567   8.209   2.046  10.929 -0.6914 -0.7628 -0.0587
  573MOL0     C75568   8.312   2.038  10.990  0.1271 -0.0726  0.5262
  573MOL0     C75569   7.644   1.628  10.830 -0.3650 -0.5603 -0.3575
  573MOL0     C75570   7.554   1.547  10.764  1.0734  0.2469 -0.3433
  573MOL0     H75571   7.045   1.666  10.492 -1.8395 -0.0103  0.2014
  573MOL0     H75572   6.832   1.558  10.427  0.8580 -0.1014  0.6122
  573MOL0     H75573   6.636   1.454  10.438  1.1292 -1.1971 -3.0945
  573MOL0     H75574   6.659   1.349  10.588 -1.9723 -0.3915 -0.0570
  573MOL0     H75575   6.552   1.159  10.489 -4.1851 -0.3968  0.3699
  573MOL0     H75576   6.559   1.234  10.326  2.0362  1.7850 -0.2957
  573MOL0     H75577   6.403   1.424  10.437 -0.3068  0.4868  1.9759
  573MOL0     H75578   6.420   1.327  10.586  1.4394 -1.4094  0.5377
  573MOL0     H75579   6.290   1.229  10.319  1.0667 -0.8821 -0.2355
  573MOL0     H75580   6.321   1.132  10.463  1.5440 -0.9463 -4.1284
  573MOL0     H75581   6.177   1.329  10.596 -0.4003 -0.5663  0.2501
  573MOL0     H75582   6.091   1.210  10.494  1.6550 -1.4093  1.3040
  573MOL0     H75583   6.070   1.399  10.314 -1.2751 -0.5323 -0.2215
  573MOL0     H75584   6.165   1.495  10.433  0.2383 -0.2364 -2.5389
  573MOL0     H75585   5.885   1.379  10.502  0.9692 -0.9055  1.1288
  573MOL0     H75586   5.991   1.478  10.594 -1.6173 -3.0410  1.2200
  573MOL0     H75587   5.826   1.540  10.340 -0.3171  2.6182 -1.4305
  573MOL0     H75588   5.974   1.636  10.374  0.4354 -2.0616 -2.3568
  573MOL0     H75589   5.961   1.823  10.575  0.6971 -0.6926  1.1150
  573MOL0     H75590   5.804   2.018  10.681 -0.7880  0.2575 -0.9203
  573MOL0     H75591   5.800   1.908  10.822 -0.3804 -0.8730 -0.2433
  573MOL0     H75592   5.550   1.884  10.799  0.9368 -0.4434 -0.8907
  573MOL0     H75593   5.547   2.017  10.676 -1.4648  2.4768  2.0016
  573MOL0     H75594   5.654   2.070  10.950 -0.3750 -0.1904  0.0713
  573MOL0     H75595   5.616   2.178  10.811 -1.6568  1.6589  2.1674
  573MOL0     H75596   5.445   2.177  10.981  0.9105 -0.4683  0.2657
  573MOL0     H75597   5.429   2.000  10.977  1.5283  0.0067  1.1277
  573MOL0     H75598   5.172   2.192  10.659 -3.8410 -0.6482 -0.4997
  573MOL0     H75599   4.949   2.234  10.709 -0.5428  1.3299  1.1196
  573MOL0     H75600   4.634   2.040  10.699  0.5097 -2.6759  1.0373
  573MOL0     H75601   4.393   1.999  10.671  1.1039  0.6716 -0.6875
  573MOL0     H75602   4.179   2.076  11.005  0.5089  0.5206 -0.3498
  573MOL0     H75603   4.242   1.944  10.913  1.1233 -0.1696  1.0861
  573MOL0     H75604   3.976   1.928  10.948 -0.9435  0.1854  1.0478
  573MOL0     H75605   4.032   1.945  10.778 -3.0117  1.5791 -1.4143
  573MOL0     H75606   3.976   2.174  10.784  1.3267  0.7091  1.0485
  573MOL0     H75607   3.920   2.164  10.955 -0.9336  0.3903 -0.5740
  573MOL0     H75608   3.738   1.993  10.875 -0.2528 -0.5403 -0.6627
  573MOL0     H75609   3.729   2.156  10.804  4.0800  4.0699  0.4600
  573MOL0     H75610   3.871   1.915  10.668 -0.5980  0.6914  2.3044
  573MOL0     H75611   3.865   2.082  10.600  0.8099 -1.4038 -1.8330
  573MOL0     H75612   3.625   2.063  10.589 -2.2825 -0.8485  1.7991
  573MOL0     H75613   3.619   1.925  10.690 -2.2345  2.6427 -0.7917
  573MOL0     H75614   3.723   1.914  10.407  2.6997  0.1068  1.8659
  573MOL0     H75615   3.763   1.794  10.509  1.0207  0.9680 -2.3321
  573MOL0     H75616   3.530   1.744  10.570 -0.3926 -0.7968 -1.1232
  573MOL0     H75617   3.577   1.697  10.407  0.7166 -0.8630  1.1960
  573MOL0     H75618   4.297   2.311  10.934  1.1055  0.2382  0.4578
  573MOL0     H75619   4.532   2.367  10.958  3.6909 -0.9294  0.2257
  573MOL0     H75620   5.010   2.070  11.106  0.7911  1.3526  0.4325
  573MOL0     H75621   5.252   2.034  11.052  1.0464 -1.5781 -3.0053
  573MOL0     H75622   7.015   1.171  10.469 -0.5439 -0.5329 -0.5331
  573MOL0     H75623   7.226   1.270  10.510  0.3141 -0.2879  0.2205
  573MOL0     H75624   7.418   1.793  10.563 -1.2809  3.6967  1.2079
  573MOL0     H75625   7.551   1.933  10.701  3.0164  0.9532 -0.4028
  573MOL0     H75626   7.856   1.730  10.958  3.0818  1.6443 -1.1077
  573MOL0     H75627   7.762   1.797  11.080 -0.1838 -3.1425 -0.1868
  573MOL0     H75628   7.863   2.025  11.009 -2.8399 -1.5349 -3.1262
  573MOL0     H75629   7.994   1.912  11.071  3.1293 -0.4117 -2.5004
  573MOL0     H75630   7.940   1.922  10.773 -1.4715 -2.7811  1.1493
  573MOL0     H75631   8.052   1.836  10.847  0.0316  0.8585 -1.0793
  573MOL0     H75632   8.129   2.041  10.736  1.7484 -0.6554  0.3731
  573MOL0     H75633   8.050   2.151  10.846  0.8164  0.8528 -0.6013
  573MOL0     H75634   8.408   2.044  11.037 -0.0505  1.4968  0.7507
  573MOL0     H75635   7.709   1.583  10.905 -1.7892 -0.0503  1.2632
  573MOL0     H75636   7.557   1.444  10.797 -1.5721  0.2428  0.0509
  574MOL0     O75637  10.666   5.601  10.563 -0.7730  0.3252  0.3961
  574MOL0     C75638  10.613   5.494  10.564  0.8854  0.5056 -0.3730
  574MOL0     O75639  10.674   5.377  10.542  0.4289  0.5106  0.3988
  574MOL0     C75640  10.809   5.362  10.531  0.1216 -0.0061  0.2760
  574MOL0     C75641  10.861   5.231  10.561  0.5409  0.1213 -0.0144
  574MOL0     C75642  11.000   5.211  10.546 -0.3316 -0.2269 -0.3010
  574MOL0     C75643  11.091   5.311  10.520  0.2820 -0.1440  0.3740
  574MOL0     O75644  11.225   5.284  10.539  0.6282  0.3473 -0.1062
  574MOL0     C75645  11.320   5.379  10.497  0.2458 -0.4801  0.8114
  574MOL0     C75646  11.392   5.424  10.625 -0.5425 -0.6951 -1.0225
  574MOL0     C75647  11.286   5.483  10.718 -1.4052 -0.2128 -0.0775
  574MOL0     C75648  11.366   5.555  10.833 -0.7287 -0.8415 -0.1144
  574MOL0     C75649  11.402   5.697  10.810 -0.8247  0.0272  0.6739
  574MOL0     C75650  11.430   5.781  10.932 -0.3796 -0.1841  0.8565
  574MOL0     C75651  11.557   5.727  11.009 -0.2906 -0.5193 -0.4728
  574MOL0     C75652  11.642   5.857  11.052  0.3508  0.5734  0.0129
  574MOL0     N75653  11.772   5.812  11.060 -0.6303 -0.2578 -0.1592
  574MOL0     C75654  11.830   5.742  11.170 -0.5105 -0.0262  1.3420
  574MOL0     C75655  11.952   5.719  11.134  0.2777 -0.3722 -0.5637
  574MOL0     C75656  12.041   5.628  11.212 -0.2841 -1.0910 -0.0145
  574MOL0     C75657  12.002   5.487  11.179  0.8991  0.5490  0.0130
  574MOL0     C75658  12.059   5.444  11.049  0.3256 -0.4194  0.1193
  574MOL0     C75659  11.948   5.370  10.960  0.0268 -0.5573  0.3115
  574MOL0     O75660  11.877   5.268  11.034 -0.1561  0.0147 -0.2021
  574MOL0     C75661  11.738   5.273  11.021  0.2508 -0.0374 -0.2781
  574MOL0     C75662  11.654   5.382  11.062 -0.8028  0.0732  0.5398
  574MOL0     C75663  11.518   5.362  11.078  0.9960 -0.4292  0.2136
  574MOL0     C75664  11.455   5.243  11.041 -0.3642 -0.0879 -0.0299
  574MOL0     C75665  11.305   5.220  11.037  0.5756 -0.6928 -0.5930
  574MOL0     O75666  11.259   5.093  11.005 -0.2551 -0.4082  0.2327
  574MOL0     C75667  11.133   5.044  10.996 -0.1416 -0.4642  0.0068
  574MOL0     C75668  11.044   5.106  10.894 -0.1732 -0.7287  0.9216
  574MOL0     C75669  10.906   5.068  10.882  0.0867  0.4806  1.3689
  574MOL0     C75670  10.862   4.956  10.969 -0.3459 -0.1200  0.6815
  574MOL0     O75671  10.741   4.899  10.937  0.8072  0.4204 -0.3028
  574MOL0     C75672  10.669   4.835  11.042  1.3839  0.7847 -0.0453
  574MOL0     C75673  10.529   4.806  10.985  0.0540  0.0357 -0.0518
  574MOL0     C75674  10.467   4.695  11.065 -0.8154  0.3215 -0.7206
  574MOL0     C75675  10.322   4.671  11.030  0.0259  0.0903 -0.0757
  574MOL0     C75676  10.269   4.540  11.093  0.1715  0.8027 -0.8873
  574MOL0     C75677  10.119   4.510  11.050  0.0693 -0.2356 -0.1526
  574MOL0     C75678  10.010   4.618  11.076  0.1350 -0.3068  0.9435
  574MOL0     C75679   9.976   4.635  11.227  0.3467  0.5110 -1.0881
  574MOL0    Cl75680   9.917   4.483  11.306 -0.3519  0.3243  0.0618
  574MOL0     C75681  10.957   4.893  11.056  0.3452 -0.5967  0.0979
  574MOL0     C75682  11.086   4.935  11.069  0.5319 -0.2726 -0.3095
  574MOL0     O75683  11.227   5.316  11.048 -0.7691 -0.5432 -0.4348
  574MOL0     C75684  11.537   5.142  10.999 -0.3147  0.8357  0.2309
  574MOL0     C75685  11.675   5.159  10.995 -0.3153  0.5010  0.3947
  574MOL0     N75686  11.975   5.779  11.014  0.4367  0.0442  0.5150
  574MOL0     N75687  11.864   5.834  10.964 -0.7876  0.2212  0.0684
  574MOL0     C75688  11.038   5.434  10.491  0.2904 -0.6371  1.1019
  574MOL0     C75689  10.899   5.461  10.493 -0.2847 -0.1523  0.3625
  574MOL0     C75690  10.466   5.495  10.581 -0.4842  0.4835 -0.9176
  574MOL0     C75691  10.405   5.622  10.605  0.3906 -0.6084  0.4256
  574MOL0     C75692  10.267   5.627  10.624 -0.1489  0.2447  1.0126
  574MOL0     C75693  10.184   5.517  10.606  0.2156  0.1292  0.7036
  574MOL0     O75694  10.050   5.535  10.623  0.8982  0.3435  0.1829
  574MOL0     C75695   9.964   5.422  10.619  0.3631 -0.1201 -0.4069
  574MOL0     C75696   9.818   5.478  10.631  0.5071 -0.3391 -0.5548
  574MOL0     C75697   9.793   5.557  10.764  0.2594  0.1304 -0.2862
  574MOL0     C75698   9.664   5.639  10.750  1.3104  0.8796 -0.7311
  574MOL0     C75699   9.544   5.562  10.740 -0.4414 -0.2233  0.6215
  574MOL0     C75700   9.462   5.475  10.749  0.2055  0.1621 -0.3680
  574MOL0     C75701  10.245   5.396  10.597  0.0443 -0.1765  0.0174
  574MOL0     C75702  10.390   5.381  10.587  0.6215 -0.3980 -0.7955
  574MOL0     H75703  10.792   5.160  10.604  0.7968  0.5176  1.0693
  574MOL0     H75704  11.032   5.111  10.571 -3.1539 -1.1159  0.0339
  574MOL0     H75705  11.294   5.469  10.441  0.6141 -1.6669 -1.3997
  574MOL0     H75706  11.400   5.330  10.441 -1.2763 -1.9673 -0.1498
  574MOL0     H75707  11.478   5.489  10.606 -1.5601  1.8044  2.0617
  574MOL0     H75708  11.419   5.332  10.677 -0.6657 -0.6325 -0.8456
  574MOL0     H75709  11.223   5.407  10.765 -1.8234  1.4216  2.1508
  574MOL0     H75710  11.228   5.563  10.671  0.8593  2.5775  1.5848
  574MOL0     H75711  11.309   5.555  10.926 -1.1747  1.6927 -0.3385
  574MOL0     H75712  11.459   5.500  10.847  0.1801  0.3974 -1.0580
  574MOL0     H75713  11.316   5.735  10.753  0.3651  0.7571 -0.7151
  574MOL0     H75714  11.490   5.689  10.745  0.4446 -1.0801  2.4578
  574MOL0     H75715  11.349   5.775  11.006 -0.8833  0.4962  0.3670
  574MOL0     H75716  11.449   5.885  10.903 -1.1295 -0.6642 -1.5580
  574MOL0     H75717  11.525   5.671  11.097 -0.8491  1.3019  0.5418
  574MOL0     H75718  11.628   5.669  10.950  1.1513 -0.8179  1.4688
  574MOL0     H75719  11.607   5.886  11.151  0.4384 -0.5366  0.3842
  574MOL0     H75720  11.637   5.935  10.976  0.6951 -1.3030 -2.0491
  574MOL0     H75721  11.780   5.706  11.259  0.6009 -3.5501  0.7330
  574MOL0     H75722  12.034   5.659  11.316 -2.8833 -2.2905  0.2242
  574MOL0     H75723  12.144   5.642  11.177 -0.5544  0.9253 -0.1088
  574MOL0     H75724  11.893   5.475  11.179  0.7915  0.2058  4.0997
  574MOL0     H75725  12.039   5.419  11.256  0.5268  1.4123  0.9787
  574MOL0     H75726  12.097   5.534  11.000 -1.8759  2.5944  3.4395
  574MOL0     H75727  12.151   5.387  11.061  1.1108  0.4945 -1.1892
  574MOL0     H75728  11.978   5.336  10.860  0.9284  0.6775  0.1460
  574MOL0     H75729  11.869   5.443  10.941 -0.9047 -2.0772 -2.0777
  574MOL0     H75730  11.693   5.474  11.104 -2.5507  1.3414 -0.5073
  574MOL0     H75731  11.453   5.440  11.116  0.3685 -1.4643  1.3746
  574MOL0     H75732  11.087   5.189  10.841  0.1291 -2.1672 -1.2043
  574MOL0     H75733  10.834   5.120  10.822  0.3010 -1.6592 -0.9093
  574MOL0     H75734  10.665   4.903  11.128  1.5161  2.9187 -1.6505
  574MOL0     H75735  10.721   4.743  11.072  1.9139  1.4247  1.0809
  574MOL0     H75736  10.530   4.770  10.882 -3.9695  2.5800 -1.2212
  574MOL0     H75737  10.470   4.898  10.990  2.0491  1.3353  0.8505
  574MOL0     H75738  10.482   4.722  11.171 -2.3846  2.1594 -0.9046
  574MOL0     H75739  10.534   4.610  11.053 -0.5075  0.2737  0.9917
  574MOL0     H75740  10.260   4.747  11.078 -0.4830 -1.3720  1.7134
  574MOL0     H75741  10.301   4.661  10.923 -2.4232  0.2840  0.3215
  574MOL0     H75742  10.271   4.554  11.202 -1.8571  1.1471 -0.8508
  574MOL0     H75743  10.332   4.452  11.075 -2.7917 -1.3190 -1.8342
  574MOL0     H75744  10.087   4.417  11.098 -0.6450 -0.2459 -0.6456
  574MOL0     H75745  10.127   4.489  10.943 -2.3478 -0.1315 -0.4054
  574MOL0     H75746  10.047   4.714  11.039  0.3301  0.5449  3.2023
  574MOL0     H75747   9.921   4.589  11.020  1.1457  0.0369 -0.9423
  574MOL0     H75748   9.902   4.714  11.238 -0.1818  0.0421 -1.2280
  574MOL0     H75749  10.059   4.672  11.288 -1.4561  0.9839  1.2605
  574MOL0     H75750  10.922   4.806  11.110 -1.2848 -1.2512 -1.9068
  574MOL0     H75751  11.153   4.892  11.142  1.4676  1.0806 -0.3278
  574MOL0     H75752  11.501   5.042  10.975  1.0108  0.0620  1.2987
  574MOL0     H75753  11.746   5.077  10.991 -0.8824 -0.0640  1.5913
  574MOL0     H75754  11.099   5.523  10.478 -3.0369  1.4414 -2.3789
  574MOL0     H75755  10.865   5.561  10.467 -1.8894  0.1463  3.2039
  574MOL0     H75756  10.471   5.709  10.604  0.1538 -0.4238 -0.3632
  574MOL0     H75757  10.220   5.723  10.641 -1.0197  0.2888 -1.2541
  574MOL0     H75758   9.989   5.359  10.706 -1.2606  1.7290  1.5241
  574MOL0     H75759   9.960   5.365  10.526 -0.4105 -3.6299  1.5948
  574MOL0     H75760   9.793   5.547  10.549 -2.0329  2.0164  1.9786
  574MOL0     H75761   9.754   5.391  10.616  1.3023 -1.1178  0.4304
  574MOL0     H75762   9.866   5.636  10.786 -0.8386  1.8010 -2.3013
  574MOL0     H75763   9.796   5.488  10.849 -0.9905 -0.4258 -0.6825
  574MOL0     H75764   9.659   5.702  10.839  1.8984 -0.4364  0.2681
  574MOL0     H75765   9.657   5.710  10.667 -0.3390  2.0115  0.3186
  574MOL0     H75766   9.384   5.402  10.753 -0.1768  0.5922  0.2952
  574MOL0     H75767  10.175   5.315  10.582  0.7582 -0.8381  0.1355
  574MOL0     H75768  10.431   5.280  10.586  1.2459 -0.1798  0.3840
  575MOL0     O75769   0.334   3.307   9.174  0.1030  0.3759  0.0706
  575MOL0     C75770   0.312   3.416   9.216 -0.2322  0.7783  0.1091
  575MOL0     O75771   0.412   3.512   9.235  0.7036 -0.1232 -0.1148
  575MOL0     C75772   0.541   3.476   9.192  1.2873  0.5601 -0.2489
  575MOL0     C75773   0.603   3.375   9.265 -0.0655 -0.1620 -0.8822
  575MOL0     C75774   0.722   3.321   9.219 -0.3078 -0.1255  0.5817
  575MOL0     C75775   0.793   3.390   9.124 -1.4050  0.6164  0.6219
  575MOL0     O75776   0.919   3.331   9.089 -0.5343 -0.5826 -0.0412
  575MOL0     C75777   0.990   3.377   8.973 -0.4465 -0.2902  0.4032
  575MOL0     C75778   1.124   3.299   8.983  0.5867 -0.0273 -0.5339
  575MOL0     C75779   1.206   3.343   8.859  0.6739  0.6630 -0.5961
  575MOL0     C75780   1.346   3.284   8.852  0.6746  0.6899  0.0180
  575MOL0     C75781   1.425   3.325   8.729 -0.4725 -0.6873 -1.0012
  575MOL0     C75782   1.573   3.351   8.776  0.5062 -0.4337  0.5056
  575MOL0     C75783   1.641   3.406   8.640  0.7629  0.2986 -0.3027
  575MOL0     C75784   1.796   3.432   8.677  0.3854 -0.5139  0.5576
  575MOL0     N75785   1.863   3.302   8.695 -0.0139 -0.1629  0.6606
  575MOL0     C75786   1.862   3.213   8.595 -0.5507 -0.6809  0.1983
  575MOL0     C75787   1.924   3.104   8.647  0.4741  0.7863 -0.5684
  575MOL0     C75788   1.965   2.973   8.579 -0.2207  0.7315 -0.3549
  575MOL0     C75789   1.904   2.968   8.434  0.0542  0.1267 -0.4743
  575MOL0     C75790   1.945   2.849   8.348 -0.8853 -0.6765 -0.4029
  575MOL0     C75791   2.088   2.852   8.299  0.6138  0.2564  0.4870
  575MOL0     O75792   2.103   2.741   8.214  0.2415  0.4988  0.2036
  575MOL0     C75793   2.199   2.652   8.260 -0.1814 -0.7645  0.8919
  575MOL0     C75794   2.146   2.537   8.310  0.2536 -0.0743 -1.3738
  575MOL0     C75795   2.234   2.441   8.359  0.1593  0.9749 -1.0100
  575MOL0     C75796   2.378   2.454   8.361  0.0195 -1.4770  0.7595
  575MOL0     C75797   2.464   2.358   8.417 -0.4357  0.0693  0.2444
  575MOL0     O75798   2.595   2.388   8.427 -0.2021 -0.1469 -0.2845
  575MOL0     C75799   2.689   2.306   8.488 -0.8550 -0.2543  0.6016
  575MOL0     C75800   2.778   2.364   8.582 -0.4480 -0.8593  0.3665
  575MOL0     C75801   2.888   2.289   8.626  0.0908 -0.1675  0.4640
  575MOL0     C75802   2.910   2.162   8.578  0.1322 -0.3252  0.4351
  575MOL0     O75803   3.011   2.080   8.619 -0.5914 -0.0561 -0.4240
  575MOL0     C75804   3.147   2.116   8.591  0.3960 -0.5559  0.5462
  575MOL0     C75805   3.231   1.997   8.639 -1.5192 -0.7261 -0.0345
  575MOL0     C75806   3.377   2.011   8.595  0.1948  0.3800  1.0589
  575MOL0     C75807   3.464   1.910   8.668 -0.2773 -0.2571  0.0957
  575MOL0     C75808   3.616   1.936   8.656  1.2289  0.0097 -0.7858
  575MOL0     C75809   3.700   1.807   8.689  0.0590 -0.2147  0.3007
  575MOL0     C75810   3.851   1.842   8.663 -0.8196 -0.1090 -0.4114
  575MOL0     C75811   3.946   1.768   8.750 -0.0131  0.1527  1.0489
  575MOL0    Cl75812   4.105   1.843   8.726 -0.5093 -0.1348  0.4647
  575MOL0     C75813   2.826   2.107   8.481 -0.3549  0.1243 -0.6322
  575MOL0     C75814   2.715   2.174   8.441 -0.1603 -1.9053  0.5317
  575MOL0     O75815   2.417   2.250   8.448  0.1859 -0.8692 -0.4484
  575MOL0     C75816   2.431   2.576   8.307  0.4558 -0.2231 -0.2343
  575MOL0     C75817   2.344   2.670   8.245  0.0434  0.4574 -0.2600
  575MOL0     N75818   1.949   3.131   8.779  0.0004  0.0430 -0.7291
  575MOL0     N75819   1.911   3.246   8.808 -0.1114  0.3415  0.4145
  575MOL0     C75820   0.737   3.505   9.061 -1.0396  0.5608 -0.4013
  575MOL0     C75821   0.606   3.537   9.089  0.0342 -0.1990  0.5482
  575MOL0     C75822   0.183   3.454   9.265 -0.9386  0.0726 -0.3691
  575MOL0     C75823   0.182   3.548   9.364  0.6766  1.0324 -0.5929
  575MOL0     C75824   0.060   3.593   9.416  0.2341  0.1788  1.3085
  575MOL0     C75825  -0.061   3.552   9.358 -0.6877  0.4958 -0.0816
  575MOL0     O75826  -0.176   3.602   9.413  0.1863 -0.0895  0.4035
  575MOL0     C75827  -0.296   3.587   9.337 -0.9468 -0.3900 -0.9753
  575MOL0     C75828  -0.389   3.691   9.389 -0.3559  0.3430 -1.3298
  575MOL0     C75829  -0.538   3.650   9.406  1.1143 -0.1236 -0.4427
  575MOL0     C75830  -0.632   3.771   9.448  0.1469  0.4089  0.1213
  575MOL0     C75831  -0.571   3.850   9.550  0.2602  1.0667 -0.0530
  575MOL0     C75832  -0.540   3.928   9.641 -0.2324 -1.6221  0.1021
  575MOL0     C75833  -0.055   3.458   9.252  0.8000  0.1303 -0.1934
  575MOL0     C75834   0.067   3.401   9.211  0.2068 -0.6673 -0.1313
  575MOL0     H75835   0.550   3.328   9.348  0.1644  1.5594  0.2964
  575MOL0     H75836   0.772   3.234   9.261  2.3523  0.6177 -0.8625
  575MOL0     H75837   1.000   3.485   8.981 -2.1243  0.0248 -1.1707
  575MOL0     H75838   0.935   3.355   8.881 -0.5089  0.5282  0.2409
  575MOL0     H75839   1.100   3.192   8.988  2.3436 -0.5043 -1.6395
  575MOL0     H75840   1.171   3.326   9.077 -1.3124 -0.0252  0.4657
  575MOL0     H75841   1.219   3.452   8.859  1.8964  0.5510  0.7654
  575MOL0     H75842   1.158   3.317   8.764 -1.1870  0.2914  0.4109
  575MOL0     H75843   1.401   3.307   8.943 -1.0059  1.2945  0.9213
  575MOL0     H75844   1.346   3.175   8.846  0.9437  0.6485  0.7594
  575MOL0     H75845   1.393   3.421   8.687  3.8155  0.9605 -1.0307
  575MOL0     H75846   1.443   3.249   8.653  0.2027 -1.5152 -0.0397
  575MOL0     H75847   1.618   3.255   8.804  2.9075  0.6715  0.7173
  575MOL0     H75848   1.575   3.415   8.864 -3.8262  0.3210  0.2719
  575MOL0     H75849   1.615   3.344   8.554 -2.6656  2.5975 -1.0831
  575MOL0     H75850   1.597   3.504   8.618  1.7897  0.8610  0.0695
  575MOL0     H75851   1.801   3.482   8.774  5.1036 -1.1588  0.8671
  575MOL0     H75852   1.828   3.496   8.594  0.6961 -2.7515 -1.1296
  575MOL0     H75853   1.838   3.230   8.491 -0.1942 -2.0416 -0.1289
  575MOL0     H75854   1.952   2.889   8.648  0.2887  0.3530 -0.7119
  575MOL0     H75855   2.072   2.983   8.560  0.1206 -2.2718 -0.4837
  575MOL0     H75856   1.929   3.060   8.380 -1.2411  2.0166  1.9767
  575MOL0     H75857   1.796   2.961   8.442  0.2074 -1.1430  0.8585
  575MOL0     H75858   1.934   2.762   8.414 -2.2354 -1.8918 -2.1229
  575MOL0     H75859   1.873   2.831   8.268 -1.9020 -0.8242  0.5134
  575MOL0     H75860   2.163   2.858   8.378  1.4957 -0.3670 -0.2707
  575MOL0     H75861   2.100   2.938   8.232  0.0117  0.3123  0.4453
  575MOL0     H75862   2.039   2.540   8.328  0.3372  2.7481 -0.9446
  575MOL0     H75863   2.194   2.356   8.413 -1.2199  2.3407  0.2073
  575MOL0     H75864   2.750   2.462   8.619 -2.3878 -1.4430  0.5091
  575MOL0     H75865   2.946   2.340   8.703 -0.4779 -0.0459  0.8195
  575MOL0     H75866   3.175   2.207   8.644  4.7084 -2.9326  2.8368
  575MOL0     H75867   3.163   2.124   8.483  0.9827 -0.9730  0.6019
  575MOL0     H75868   3.186   1.906   8.598 -0.2525 -1.8908  1.0915
  575MOL0     H75869   3.228   1.990   8.748  2.2298 -1.6110  0.1423
  575MOL0     H75870   3.412   2.110   8.623 -1.3205  1.1307  0.3912
  575MOL0     H75871   3.383   1.997   8.487  1.8058 -1.1282  1.2990
  575MOL0     H75872   3.438   1.918   8.774  0.5640 -0.5449  0.3344
  575MOL0     H75873   3.430   1.811   8.633  2.1878 -1.5645  1.1528
  575MOL0     H75874   3.650   2.007   8.732  3.1246 -3.7168  2.2423
  575MOL0     H75875   3.617   1.976   8.554  1.2723  0.7055 -0.5158
  575MOL0     H75876   3.673   1.723   8.624 -3.0318  1.0819 -0.2831
  575MOL0     H75877   3.696   1.786   8.796  0.5210 -0.2343  0.3149
  575MOL0     H75878   3.869   1.833   8.556  2.2345 -0.7319  0.0375
  575MOL0     H75879   3.874   1.944   8.697  2.8580 -0.9872  0.2031
  575MOL0     H75880   3.944   1.661   8.728 -1.1955 -0.1159  2.3244
  575MOL0     H75881   3.926   1.783   8.857  4.3952 -1.6606  2.4124
  575MOL0     H75882   2.855   2.012   8.437  1.6011  0.2939  0.1965
  575MOL0     H75883   2.652   2.139   8.359 -1.1482  1.8066 -0.4959
  575MOL0     H75884   2.539   2.584   8.295  0.2194  0.3806 -2.2477
  575MOL0     H75885   2.396   2.754   8.201  1.2449 -0.6701 -1.0789
  575MOL0     H75886   0.798   3.560   8.990  0.9685 -3.0069 -1.6826
  575MOL0     H75887   0.545   3.609   9.035  0.3617  0.0723  0.5392
  575MOL0     H75888   0.268   3.574   9.424  1.1343 -2.2545  0.3267
  575MOL0     H75889   0.064   3.674   9.487 -0.2909  0.2299  1.2825
  575MOL0     H75890  -0.339   3.487   9.354 -2.1483  0.2051 -0.3797
  575MOL0     H75891  -0.285   3.610   9.231 -3.2401 -2.4115 -1.7506
  575MOL0     H75892  -0.358   3.709   9.493  0.6602 -1.5122 -1.2620
  575MOL0     H75893  -0.375   3.779   9.326  0.2511 -0.9087 -2.9998
  575MOL0     H75894  -0.552   3.570   9.479  0.8218  0.1253 -0.2203
  575MOL0     H75895  -0.566   3.617   9.306 -0.3804 -1.9291  0.5038
  575MOL0     H75896  -0.638   3.822   9.352 -1.1668  1.6008  0.8004
  575MOL0     H75897  -0.731   3.737   9.479 -0.8043  2.1803 -0.8606
  575MOL0     H75898  -0.516   3.985   9.728 -0.0545  0.0900 -1.0272
  575MOL0     H75899  -0.137   3.435   9.185  1.9050 -0.5376 -1.3672
  575MOL0     H75900   0.073   3.320   9.140 -1.0373 -1.4588  0.6310
  576MOL0     O75901   9.449   5.842  10.962  0.8898  0.2852  0.0896
  576MOL0     C75902   9.439   5.750  11.046 -0.5417 -0.3303 -0.1558
  576MOL0     O75903   9.523   5.719  11.153  0.0382 -0.0622  0.3160
  576MOL0     C75904   9.641   5.789  11.183  0.5773 -0.3653  0.0877
  576MOL0     C75905   9.728   5.726  11.273 -0.2742 -0.0142 -0.0499
  576MOL0     C75906   9.851   5.777  11.300  1.3001  0.6116 -0.7647
  576MOL0     C75907   9.889   5.902  11.257  0.0764 -0.2989  0.6900
  576MOL0     O75908  10.008   5.943  11.308  0.0397 -0.0746 -0.2008
  576MOL0     C75909  10.039   6.082  11.321 -0.1804  0.8240 -0.4819
  576MOL0     C75910  10.021   6.122  11.469 -0.6802 -0.6782 -0.8375
  576MOL0     C75911   9.876   6.134  11.517  0.0820 -0.1242 -0.5003
  576MOL0     C75912   9.797   6.248  11.444 -0.2434 -0.4380  0.4003
  576MOL0     C75913   9.643   6.206  11.439 -0.7606 -0.6433  0.6431
  576MOL0     C75914   9.584   6.148  11.564  0.6009  0.5111  0.6607
  576MOL0     C75915   9.426   6.154  11.574 -0.5956  0.0280  0.3461
  576MOL0     C75916   9.342   6.116  11.449 -0.6478  0.3352  0.5946
  576MOL0     N75917   9.305   5.973  11.449 -0.0315  0.4489 -0.8951
  576MOL0     C75918   9.194   5.932  11.518  0.4513 -0.0060  0.2057
  576MOL0     C75919   9.183   5.805  11.487 -0.1712  0.8170  0.3718
  576MOL0     C75920   9.066   5.712  11.537 -0.1198  0.1224 -0.7515
  576MOL0     C75921   9.120   5.585  11.597 -0.7024  0.3729  0.4814
  576MOL0     C75922   9.126   5.470  11.491  0.2181  0.0313 -0.3133
  576MOL0     C75923   9.167   5.333  11.553 -0.0332 -0.2796 -0.0699
  576MOL0     O75924   9.292   5.338  11.627 -0.0545 -0.0478  0.5886
  576MOL0     C75925   9.403   5.333  11.550 -0.2296 -0.0211  0.4290
  576MOL0     C75926   9.530   5.323  11.616  0.1847  0.4237  0.0977
  576MOL0     C75927   9.643   5.302  11.548 -0.1921  0.1246  1.1317
  576MOL0     C75928   9.653   5.302  11.405  0.2505  0.2246  0.3398
  576MOL0     C75929   9.778   5.306  11.332  0.3812 -0.4644 -0.8031
  576MOL0     O75930   9.764   5.300  11.195 -0.1625  0.0657  0.2583
  576MOL0     C75931   9.872   5.257  11.124  0.2819  0.2937 -0.2317
  576MOL0     C75932   9.921   5.129  11.144  1.2454 -0.0508 -0.1941
  576MOL0     C75933  10.041   5.091  11.083 -0.4979 -1.1079  0.1802
  576MOL0     C75934  10.123   5.185  11.015 -0.6347  0.9130  0.1830
  576MOL0     O75935  10.245   5.142  10.975  0.4302  0.3325 -0.7703
  576MOL0     C75936  10.342   5.244  10.936  0.3386 -0.1077  0.2932
  576MOL0     C75937  10.482   5.188  10.947  0.6237  0.8410 -0.5119
  576MOL0     C75938  10.596   5.259  10.900 -0.6676 -0.1579  0.2566
  576MOL0     C75939  10.577   5.404  10.942  0.3363  1.4198 -1.1484
  576MOL0     C75940  10.706   5.480  10.919  0.7523 -0.5375  0.3865
  576MOL0     C75941  10.705   5.632  10.925  0.2683 -0.5734 -0.3342
  576MOL0     C75942  10.848   5.680  10.941  0.5008 -0.6908 -0.3683
  576MOL0     C75943  10.855   5.829  10.988 -0.4318  1.3614  0.3231
  576MOL0    Cl75944  11.027   5.842  11.035  0.3203  0.0573  0.0286
  576MOL0     C75945  10.075   5.311  10.999  0.1961  0.1814 -0.5514
  576MOL0     C75946   9.951   5.349  11.050  0.8373  0.9988 -0.5227
  576MOL0     O75947   9.882   5.301  11.397  0.2638  0.6861  0.4914
  576MOL0     C75948   9.531   5.316  11.338  0.2639  0.0015  0.0771
  576MOL0     C75949   9.409   5.329  11.406  0.7816  0.2951  0.4889
  576MOL0     N75950   9.289   5.769  11.408 -0.5535 -0.7732 -0.2422
  576MOL0     N75951   9.360   5.875  11.369 -0.4053 -0.1307 -0.3831
  576MOL0     C75952   9.803   5.978  11.174  0.8105  0.5112  0.3508
  576MOL0     C75953   9.688   5.915  11.130  0.2550  0.3567 -0.6153
  576MOL0     C75954   9.314   5.668  11.051 -0.3913  0.1184  0.1749
  576MOL0     C75955   9.196   5.735  11.023  0.2263 -0.5928  0.5915
  576MOL0     C75956   9.075   5.659  11.026 -0.1704  0.2277 -0.0800
  576MOL0     C75957   9.077   5.526  11.061  1.0447 -0.0471  0.6000
  576MOL0     O75958   8.949   5.473  11.059  0.3835 -0.0931 -0.0443
  576MOL0     C75959   8.931   5.356  11.151 -0.4938  0.0825  0.5607
  576MOL0     C75960   8.805   5.288  11.119 -0.2935 -0.8082  0.0606
  576MOL0     C75961   8.688   5.372  11.063  0.8121  0.0339 -0.2157
  576MOL0     C75962   8.559   5.280  11.056 -0.3878 -0.3255 -0.3900
  576MOL0     C75963   8.428   5.348  11.058  0.0322  0.1993 -0.2923
  576MOL0     C75964   8.313   5.397  11.037 -0.1656  0.2369 -0.3105
  576MOL0     C75965   9.200   5.459  11.099  0.1550  0.6298 -0.0488
  576MOL0     C75966   9.314   5.535  11.098 -0.6488  0.6320 -0.6388
  576MOL0     H75967   9.695   5.633  11.319  3.8149 -0.9215  1.5091
  576MOL0     H75968   9.917   5.725  11.369 -1.7198 -3.0014 -0.3405
  576MOL0     H75969   9.988   6.147  11.250 -0.9035 -0.7497 -1.4531
  576MOL0     H75970  10.145   6.089  11.295 -0.0375 -2.6399 -1.2676
  576MOL0     H75971  10.084   6.206  11.502 -0.4364 -0.5995 -1.4806
  576MOL0     H75972  10.061   6.042  11.532 -3.0488 -0.9768  0.3965
  576MOL0     H75973   9.870   6.158  11.624  0.6359  0.9146 -0.6842
  576MOL0     H75974   9.823   6.042  11.490 -2.0342  1.5193 -2.4003
  576MOL0     H75975   9.814   6.338  11.504  1.7811  1.5697 -2.8565
  576MOL0     H75976   9.836   6.270  11.344  0.9683  4.9374  1.6911
  576MOL0     H75977   9.637   6.131  11.360 -2.9109  0.0338  0.0618
  576MOL0     H75978   9.579   6.285  11.396 -0.5654 -1.3011 -0.9307
  576MOL0     H75979   9.628   6.197  11.651  1.6737 -1.1819  1.1055
  576MOL0     H75980   9.604   6.041  11.571 -3.1394 -0.2323  2.7318
  576MOL0     H75981   9.402   6.090  11.659  0.7138 -2.7105 -1.2025
  576MOL0     H75982   9.399   6.259  11.587  0.3643  0.3849 -0.4666
  576MOL0     H75983   9.396   6.133  11.355  1.1274  1.1168  1.7018
  576MOL0     H75984   9.260   6.189  11.448  0.8470  2.1315 -1.4710
  576MOL0     H75985   9.136   5.994  11.585 -3.2376 -1.3336 -1.5377
  576MOL0     H75986   8.993   5.695  11.458 -1.4888 -0.9201  0.6760
  576MOL0     H75987   9.007   5.763  11.613  0.9528  0.2606  0.0177
  576MOL0     H75988   9.057   5.547  11.678 -0.4919 -2.2893 -0.4938
  576MOL0     H75989   9.217   5.611  11.639 -1.0357  3.5500 -0.4555
  576MOL0     H75990   9.024   5.467  11.452 -0.4254 -1.0779  1.3394
  576MOL0     H75991   9.195   5.499  11.412 -1.2745 -1.1765 -2.1352
  576MOL0     H75992   9.165   5.260  11.471 -1.8264 -3.2078  2.3534
  576MOL0     H75993   9.085   5.308  11.620 -0.5568  0.3502 -0.4701
  576MOL0     H75994   9.535   5.321  11.725  0.8868 -1.2717  0.0664
  576MOL0     H75995   9.730   5.300  11.614 -1.0097 -0.5307  2.2161
  576MOL0     H75996   9.862   5.064  11.207 -1.8352  2.2274 -0.5159
  576MOL0     H75997  10.085   4.994  11.105 -0.0792 -1.6334 -2.6219
  576MOL0     H75998  10.342   5.333  11.000  0.3756  0.1783 -0.0997
  576MOL0     H75999  10.325   5.275  10.832 -0.0268  0.3149  0.4759
  576MOL0     H76000  10.474   5.089  10.902  0.6121  0.2900  0.6506
  576MOL0     H76001  10.488   5.164  11.054 -2.4704 -1.7250 -0.7449
  576MOL0     H76002  10.616   5.252  10.793  2.4207 -1.7525  0.8159
  576MOL0     H76003  10.685   5.222  10.951  1.3046  3.3965 -0.3415
  576MOL0     H76004  10.496   5.434  10.875 -1.6035 -0.3837  0.2520
  576MOL0     H76005  10.541   5.425  11.043 -1.7080  0.8936 -1.7146
  576MOL0     H76006  10.745   5.447  10.822 -0.5365  1.2247 -0.7973
  576MOL0     H76007  10.780   5.441  10.989  0.4003 -1.7521  0.1014
  576MOL0     H76008  10.655   5.646  11.022 -0.7768  1.6258 -1.1238
  576MOL0     H76009  10.645   5.685  10.850  0.1830 -0.8858 -0.4895
  576MOL0     H76010  10.901   5.622  11.017  2.8988  0.0263 -1.4092
  576MOL0     H76011  10.905   5.684  10.848  0.8695 -0.7535 -0.1459
  576MOL0     H76012  10.786   5.841  11.073  0.6480 -1.0260  1.6554
  576MOL0     H76013  10.829   5.906  10.916 -3.9651  1.3884  1.4159
  576MOL0     H76014  10.124   5.382  10.932  4.4327 -3.9330 -2.3386
  576MOL0     H76015   9.926   5.453  11.034  1.6590  1.1933 -0.5994
  576MOL0     H76016   9.543   5.303  11.231  0.7731  3.0765 -0.3353
  576MOL0     H76017   9.325   5.329  11.339  1.2373 -1.8851 -0.1650
  576MOL0     H76018   9.822   6.077  11.134  1.7114 -1.3107 -4.3841
  576MOL0     H76019   9.623   5.972  11.063 -1.7299 -2.2207 -1.0350
  576MOL0     H76020   9.179   5.840  11.001 -2.5807 -1.3449 -1.5200
  576MOL0     H76021   8.980   5.701  10.993 -1.0601 -1.6019  0.0426
  576MOL0     H76022   8.933   5.393  11.254 -0.3116  3.7110 -0.6316
  576MOL0     H76023   9.015   5.291  11.125 -0.7884  0.7348 -2.3164
  576MOL0     H76024   8.828   5.216  11.040 -1.2413 -1.7815  0.6556
  576MOL0     H76025   8.780   5.235  11.211 -2.1574  2.0363  1.3246
  576MOL0     H76026   8.701   5.413  10.963 -0.8227  0.8141 -0.1351
  576MOL0     H76027   8.674   5.464  11.121  1.4373  0.1533 -0.2478
  576MOL0     H76028   8.560   5.221  10.964  0.6770  0.3476 -0.8378
  576MOL0     H76029   8.566   5.207  11.137 -2.9260 -0.7307 -0.4595
  576MOL0     H76030   8.218   5.440  11.011 -0.5516  0.3424  1.2228
  576MOL0     H76031   9.193   5.354  11.124  0.1343  0.3780 -1.0679
  576MOL0     H76032   9.410   5.484  11.109 -1.3976 -0.8845 -0.8654
  577MOL0     O76033   9.635   2.513   7.395  0.1782  0.4181 -0.4382
  577MOL0     C76034   9.704   2.430   7.456 -0.7179 -0.9982  0.0481
  577MOL0     O76035   9.661   2.317   7.521 -0.1176 -0.9415 -0.5469
  577MOL0     C76036   9.530   2.278   7.520  0.3447 -0.5088 -0.2172
  577MOL0     C76037   9.509   2.148   7.571  0.3607  0.0620 -0.3909
  577MOL0     C76038   9.382   2.097   7.580 -0.4559 -0.0996  0.1008
  577MOL0     C76039   9.264   2.159   7.535  0.3772 -0.6762  0.2508
  577MOL0     O76040   9.150   2.091   7.521 -0.3685  0.0897 -0.1166
  577MOL0     C76041   9.030   2.149   7.447 -0.1717 -0.3383 -0.2834
  577MOL0     C76042   8.934   2.038   7.405 -0.1432  0.5733 -0.7865
  577MOL0     C76043   8.839   2.082   7.291 -0.5935  0.6897  0.0474
  577MOL0     C76044   8.780   1.954   7.228 -0.8257 -0.5079  0.0249
  577MOL0     C76045   8.663   1.994   7.136 -0.0152 -0.8331  0.2801
  577MOL0     C76046   8.620   1.875   7.046  0.0606 -0.9543 -0.0194
  577MOL0     C76047   8.470   1.891   6.994 -0.7179 -0.8170 -0.5311
  577MOL0     C76048   8.415   1.760   6.941 -0.0850  0.2418 -0.3981
  577MOL0     N76049   8.286   1.793   6.881 -0.1445  0.3739  0.5058
  577MOL0     C76050   8.276   1.831   6.747  0.5773 -0.0085  0.8197
  577MOL0     C76051   8.145   1.823   6.729 -0.1971  0.4824 -0.3876
  577MOL0     C76052   8.073   1.860   6.601  0.1371  0.2534  0.9918
  577MOL0     C76053   8.082   1.747   6.493  0.6840  0.5556  0.2684
  577MOL0     C76054   7.998   1.616   6.545 -0.1876 -0.3627  0.4586
  577MOL0     C76055   7.848   1.653   6.530 -0.7580 -0.1473 -0.6048
  577MOL0     O76056   7.770   1.533   6.553  0.5879 -0.5408 -0.3064
  577MOL0     C76057   7.649   1.530   6.494  0.1273 -0.6739 -0.0329
  577MOL0     C76058   7.570   1.644   6.461 -0.4103  0.4626 -0.1361
  577MOL0     C76059   7.434   1.631   6.418  0.1418  0.5146  0.4705
  577MOL0     C76060   7.377   1.506   6.400 -0.5677  0.7745  0.3468
  577MOL0     C76061   7.238   1.481   6.348 -0.7927  0.4168 -0.4289
  577MOL0     O76062   7.176   1.577   6.280 -0.2466  0.1191  0.5868
  577MOL0     C76063   7.055   1.558   6.231 -0.4151  0.1250  0.1439
  577MOL0     C76064   7.019   1.491   6.106  0.2006  0.5200 -0.6662
  577MOL0     C76065   6.894   1.464   6.064 -0.5085 -1.3100  0.1619
  577MOL0     C76066   6.792   1.492   6.160  0.0152  0.1726 -0.1695
  577MOL0     O76067   6.656   1.469   6.139 -0.2317 -0.2388 -0.1016
  577MOL0     C76068   6.620   1.390   6.020 -0.1735  0.0107 -0.5513
  577MOL0     C76069   6.495   1.306   6.053 -0.3501 -0.2806  0.8308
  577MOL0     C76070   6.494   1.192   5.957  1.1022 -0.7803  0.3175
  577MOL0     C76071   6.388   1.096   6.005  1.0239 -0.4183  0.1294
  577MOL0     C76072   6.348   1.002   5.887  0.2181  0.3803  0.2487
  577MOL0     C76073   6.244   0.903   5.928  0.1744  0.7464 -0.6269
  577MOL0     C76074   6.107   0.974   5.950  0.8052 -0.3664 -0.2583
  577MOL0     C76075   6.022   0.886   6.051 -0.4432  0.3638 -0.1014
  577MOL0    Cl76076   5.962   0.737   5.979  0.5459  0.1218 -0.5277
  577MOL0     C76077   6.824   1.573   6.267  0.0062  0.8236  0.5048
  577MOL0     C76078   6.941   1.607   6.308 -0.5731  0.5743 -0.4239
  577MOL0     O76079   7.198   1.360   6.352 -0.7481 -0.1191  0.3716
  577MOL0     C76080   7.463   1.395   6.425  0.3795  0.0462 -0.3767
  577MOL0     C76081   7.600   1.402   6.465  0.1023 -0.6211 -0.5081
  577MOL0     N76082   8.082   1.783   6.845 -0.6121 -0.0870  0.0944
  577MOL0     N76083   8.166   1.766   6.941 -1.1298 -0.4547 -0.0802
  577MOL0     C76084   9.287   2.291   7.486  0.8144  0.5171 -0.1820
  577MOL0     C76085   9.419   2.341   7.474 -0.2553 -0.2065 -0.6097
  577MOL0     C76086   9.852   2.447   7.449  0.0597 -0.3729 -0.4240
  577MOL0     C76087   9.907   2.570   7.403  1.0176  0.5747 -0.4522
  577MOL0     C76088  10.045   2.589   7.395 -0.4005 -1.1516  0.0953
  577MOL0     C76089  10.130   2.484   7.429  0.5680 -0.8147 -0.4606
  577MOL0     O76090  10.265   2.506   7.421  0.2291 -0.3484  1.0136
  577MOL0     C76091  10.351   2.395   7.456  0.6021  0.0194 -0.0956
  577MOL0     C76092  10.490   2.444   7.423 -0.2793  0.3768  0.3083
  577MOL0     C76093  10.544   2.567   7.492  0.1267 -0.1086  0.3574
  577MOL0     C76094  10.677   2.626   7.437  0.4410 -0.9535 -0.6922
  577MOL0     C76095  10.748   2.714   7.535  0.5285  0.2268 -0.1326
  577MOL0     C76096  10.796   2.766   7.635  0.2215 -0.1861 -0.2775
  577MOL0     C76097  10.078   2.370   7.472  0.2238  1.2201 -0.1263
  577MOL0     C76098   9.943   2.350   7.483  0.7343  0.0510  0.1561
  577MOL0     H76099   9.590   2.083   7.604  0.8270  0.4363 -0.7868
  577MOL0     H76100   9.370   1.996   7.618 -4.5782  0.2118  0.0896
  577MOL0     H76101   9.077   2.202   7.363  1.3786  0.8274  1.2348
  577MOL0     H76102   8.981   2.216   7.518 -0.8868 -0.2801 -0.8162
  577MOL0     H76103   8.878   2.003   7.492 -1.7416 -2.0352 -2.7285
  577MOL0     H76104   8.989   1.949   7.372  0.7262  0.6511  0.3675
  577MOL0     H76105   8.883   2.143   7.211 -0.3932  2.6827  1.6148
  577MOL0     H76106   8.764   2.147   7.336 -0.0294  0.9941  0.5720
  577MOL0     H76107   8.863   1.909   7.172 -1.1138  1.6240 -2.2886
  577MOL0     H76108   8.732   1.898   7.309 -2.3419 -1.8085 -1.7004
  577MOL0     H76109   8.696   2.063   7.059 -1.7584  0.0905  0.3136
  577MOL0     H76110   8.582   2.035   7.197 -0.7264  0.7401 -1.6366
  577MOL0     H76111   8.625   1.778   7.097 -0.4259 -1.3012 -0.6145
  577MOL0     H76112   8.688   1.874   6.960  0.4633  2.9255  0.0822
  577MOL0     H76113   8.400   1.927   7.069  0.3678  0.4986 -0.1006
  577MOL0     H76114   8.486   1.964   6.914  0.9969 -3.2743 -2.6059
  577MOL0     H76115   8.411   1.681   7.017  4.5863 -2.1592 -2.2186
  577MOL0     H76116   8.488   1.718   6.871  1.9761 -2.3448  2.9449
  577MOL0     H76117   8.364   1.849   6.685 -0.2692 -1.4404 -0.8808
  577MOL0     H76118   8.116   1.950   6.557 -2.5952  0.4990 -1.5093
  577MOL0     H76119   7.969   1.878   6.630 -0.1712  2.8933 -1.3848
  577MOL0     H76120   8.186   1.726   6.467  0.3819 -1.5329  0.5517
  577MOL0     H76121   8.036   1.779   6.399  0.5621 -0.9813 -0.2219
  577MOL0     H76122   8.024   1.536   6.476  0.3923 -2.4004  2.8974
  577MOL0     H76123   8.033   1.585   6.644 -0.0589 -2.2370 -0.1382
  577MOL0     H76124   7.831   1.688   6.428 -1.4964  0.2013 -0.3712
  577MOL0     H76125   7.813   1.730   6.599  0.4502  0.1356 -0.2791
  577MOL0     H76126   7.616   1.742   6.466 -3.0387  1.7841 -0.5146
  577MOL0     H76127   7.383   1.722   6.390 -0.6581 -0.1910 -0.4352
  577MOL0     H76128   7.098   1.448   6.045 -0.2700 -0.8854 -0.3444
  577MOL0     H76129   6.885   1.410   5.970  0.1504  0.4540 -0.9576
  577MOL0     H76130   6.702   1.321   5.996  0.3918  0.4460  0.0863
  577MOL0     H76131   6.603   1.456   5.934  1.3912 -1.4697 -2.0833
  577MOL0     H76132   6.407   1.371   6.046  1.1297  1.6409 -1.8567
  577MOL0     H76133   6.506   1.277   6.158 -0.0416  0.3680  0.9808
  577MOL0     H76134   6.591   1.143   5.960  1.3031 -0.3593  0.8743
  577MOL0     H76135   6.476   1.213   5.851  1.2127 -2.5188 -0.0712
  577MOL0     H76136   6.428   1.035   6.087 -0.1139  0.3032  1.2644
  577MOL0     H76137   6.308   1.151   6.057  1.6484 -0.2842  0.9694
  577MOL0     H76138   6.439   0.948   5.859  0.2631  1.9567 -3.0333
  577MOL0     H76139   6.313   1.049   5.795 -0.9112  0.6502  0.8039
  577MOL0     H76140   6.274   0.851   6.019 -0.1687 -0.3458 -1.1244
  577MOL0     H76141   6.238   0.828   5.849  0.9773  2.1374 -2.0674
  577MOL0     H76142   6.114   1.076   5.991  1.4445 -0.3058 -0.5055
  577MOL0     H76143   6.054   0.982   5.855 -1.7341  0.2651  1.1361
  577MOL0     H76144   5.927   0.934   6.076 -0.2207  0.7990 -0.0826
  577MOL0     H76145   6.082   0.866   6.140 -1.1645 -0.6219  0.1728
  577MOL0     H76146   6.743   1.614   6.327 -0.9342 -0.0282 -0.1366
  577MOL0     H76147   6.945   1.662   6.401  1.0650  0.2980 -0.2911
  577MOL0     H76148   7.422   1.297   6.402  2.7931 -1.0781 -0.1588
  577MOL0     H76149   7.651   1.309   6.488 -0.6064 -1.3109 -1.6739
  577MOL0     H76150   9.200   2.347   7.454 -0.8353 -2.4129 -1.1558
  577MOL0     H76151   9.434   2.439   7.430  0.5878 -1.2006 -2.6720
  577MOL0     H76152   9.843   2.652   7.373 -1.4973 -0.1875  2.3529
  577MOL0     H76153  10.079   2.688   7.365 -0.9700 -1.9994 -3.9176
  577MOL0     H76154  10.326   2.311   7.391 -1.9224  0.5470  0.0972
  577MOL0     H76155  10.347   2.368   7.562 -2.0328  0.7031  0.0464
  577MOL0     H76156  10.552   2.354   7.429 -2.8929 -1.4982  1.0014
  577MOL0     H76157  10.483   2.469   7.317  1.1773  0.6038  0.2376
  577MOL0     H76158  10.560   2.539   7.597 -0.4985  1.9582  1.0537
  577MOL0     H76159  10.463   2.639   7.479 -1.2015 -1.4247  1.0878
  577MOL0     H76160  10.754   2.555   7.401 -0.8872 -3.9425  1.9038
  577MOL0     H76161  10.648   2.692   7.354  1.9167 -0.7990 -1.1231
  577MOL0     H76162  10.843   2.813   7.718  0.5265  2.9415 -2.0578
  577MOL0     H76163  10.141   2.287   7.503 -2.5920 -1.0602 -0.0957
  577MOL0     H76164   9.899   2.255   7.510  1.9640 -0.2055  1.3485
  578MOL0     O76165  10.633   0.014   1.541  0.4813 -0.3455 -0.1503
  578MOL0     C76166  10.628   0.137   1.559  0.2126  1.0493 -0.3603
  578MOL0     O76167  10.519   0.215   1.572  0.1653  0.2734  0.1329
  578MOL0     C76168  10.399   0.155   1.591  0.0538  0.0780 -0.3239
  578MOL0     C76169  10.355   0.138   1.728  0.3305  0.0230 -0.8755
  578MOL0     C76170  10.231   0.073   1.741  0.5009 -0.1653 -0.1373
  578MOL0     C76171  10.152   0.034   1.631 -0.3670  0.0507  0.5905
  578MOL0     O76172  10.033  -0.027   1.634 -0.2539 -0.2980 -0.2149
  578MOL0     C76173   9.970  -0.060   1.762  0.3544 -0.3227  0.0584
  578MOL0     C76174   9.831  -0.112   1.747 -0.5955  0.8182  0.4727
  578MOL0     C76175   9.753  -0.023   1.644  0.6408 -0.4461  0.2936
  578MOL0     C76176   9.775  -0.066   1.496  0.7406 -0.2074 -0.0840
  578MOL0     C76177   9.685   0.011   1.402  0.6954  0.3312 -0.6511
  578MOL0     C76178   9.712  -0.021   1.262 -0.2811 -0.3624  0.1747
  578MOL0     C76179   9.623   0.052   1.168  0.4053  0.3845 -0.1737
  578MOL0     C76180   9.633   0.007   1.022 -0.8283  0.2773 -0.7171
  578MOL0     N76181   9.563  -0.113   1.006  0.3583 -0.1851  0.1239
  578MOL0     C76182   9.614  -0.240   1.021 -0.0595  0.0631  0.9633
  578MOL0     C76183   9.504  -0.317   0.997  0.0346  0.4817  0.2089
  578MOL0     C76184   9.494  -0.469   0.985 -0.7397 -0.7256 -0.8329
  578MOL0     C76185   9.416  -0.516   0.854 -0.0518 -0.7418 -0.3720
  578MOL0     C76186   9.486  -0.460   0.731  0.1077 -0.1538  1.1116
  578MOL0     C76187   9.410  -0.504   0.604 -0.1693  0.9516  1.0205
  578MOL0     O76188   9.330  -0.390   0.544 -0.4282 -0.1690 -0.5143
  578MOL0     C76189   9.199  -0.391   0.577  0.0029  0.0385  0.0487
  578MOL0     C76190   9.107  -0.465   0.500 -0.1959  0.1928 -0.2246
  578MOL0     C76191   8.977  -0.462   0.526  0.7762 -0.6379 -0.6981
  578MOL0     C76192   8.927  -0.391   0.636  0.2892 -0.2982  1.1083
  578MOL0     C76193   8.782  -0.420   0.684 -0.0129  0.5855  0.8899
  578MOL0     O76194   8.741  -0.345   0.787 -0.2598  0.5409  0.1314
  578MOL0     C76195   8.608  -0.328   0.806  0.3281  0.1732  0.4023
  578MOL0     C76196   8.547  -0.205   0.784 -0.1034  0.6993 -1.3048
  578MOL0     C76197   8.403  -0.198   0.793 -0.7101 -0.1778  0.1416
  578MOL0     C76198   8.318  -0.314   0.813 -0.0762 -0.0133 -0.6545
  578MOL0     O76199   8.181  -0.289   0.807 -0.6180  0.0174 -0.8931
  578MOL0     C76200   8.103  -0.410   0.777 -0.3964 -0.1348  0.0341
  578MOL0     C76201   7.978  -0.386   0.703 -0.2442  0.4884 -0.1980
  578MOL0     C76202   7.896  -0.518   0.716  0.0647 -0.0352 -0.3355
  578MOL0     C76203   7.768  -0.505   0.619  0.6407 -0.3836 -0.9821
  578MOL0     C76204   7.677  -0.631   0.622  0.2421 -0.3079  0.2726
  578MOL0     C76205   7.579  -0.615   0.732 -0.3325 -0.4288  0.5702
  578MOL0     C76206   7.493  -0.741   0.758 -0.9438  0.1217  1.0841
  578MOL0     C76207   7.384  -0.720   0.858  0.7030  1.1687 -0.0537
  578MOL0    Cl76208   7.234  -0.658   0.797  0.1387 -0.0603  0.2290
  578MOL0     C76209   8.388  -0.428   0.859  0.8932  0.2569 -0.2834
  578MOL0     C76210   8.523  -0.434   0.841  0.3679  0.5269  0.8252
  578MOL0     O76211   8.705  -0.488   0.616 -0.3871  0.3494  0.3298
  578MOL0     C76212   9.015  -0.317   0.720 -0.1865 -0.8556 -0.4036
  578MOL0     C76213   9.152  -0.312   0.675 -0.2574 -0.2931 -1.6068
  578MOL0     N76214   9.390  -0.245   0.958  0.7356  0.0844  0.0538
  578MOL0     N76215   9.429  -0.121   0.977  0.9048 -0.1421 -0.5209
  578MOL0     C76216  10.200   0.064   1.503 -0.8520 -0.1100 -0.1203
  578MOL0     C76217  10.324   0.116   1.480 -1.0586  0.3262  0.4660
  578MOL0     C76218  10.765   0.194   1.571 -0.5757 -0.7619 -0.0882
  578MOL0     C76219  10.790   0.335   1.579  0.1293 -0.0004  0.4334
  578MOL0     C76220  10.923   0.389   1.580 -0.2634  0.9457 -0.0713
  578MOL0     C76221  11.035   0.303   1.584  0.6012 -0.1153  0.5118
  578MOL0     O76222  11.162   0.346   1.612 -0.2123 -0.4776  0.3582
  578MOL0     C76223  11.248   0.355   1.503 -0.3166  0.3602  0.0303
  578MOL0     C76224  11.207   0.459   1.399  0.5617 -0.7871 -0.1022
  578MOL0     C76225  11.218   0.607   1.473 -1.1176  0.3430  0.5770
  578MOL0     C76226  11.132   0.708   1.397  0.3629  0.2300 -0.1830
  578MOL0     C76227  11.188   0.748   1.267 -0.0017  1.2870  0.4302
  578MOL0     C76228  11.241   0.779   1.161 -0.3165  0.1389 -1.3613
  578MOL0     C76229  11.008   0.168   1.592 -0.4833 -0.7279  0.3983
  578MOL0     C76230  10.880   0.108   1.581  0.1844 -0.4769 -1.3784
  578MOL0     H76231  10.415   0.176   1.811 -1.8700  2.8694 -0.4474
  578MOL0     H76232  10.207   0.032   1.839  0.0061 -2.8169 -1.2829
  578MOL0     H76233   9.960   0.036   1.813 -1.5908 -1.7621  2.6633
  578MOL0     H76234  10.038  -0.123   1.820 -0.0691  2.1556  3.5518
  578MOL0     H76235   9.786  -0.110   1.846  1.5486  1.1314  1.4860
  578MOL0     H76236   9.833  -0.215   1.709 -0.6400  0.2156  2.0574
  578MOL0     H76237   9.771   0.084   1.652  0.9567 -0.4920  0.2315
  578MOL0     H76238   9.646  -0.036   1.659  0.4371 -0.5406 -1.0780
  578MOL0     H76239   9.879  -0.041   1.470  0.8857 -1.8880 -1.2855
  578MOL0     H76240   9.758  -0.172   1.476  0.7017 -0.0159 -1.1176
  578MOL0     H76241   9.705   0.117   1.420  1.1651  0.1546 -0.1008
  578MOL0     H76242   9.583  -0.007   1.436  0.4827  1.1585 -0.8220
  578MOL0     H76243   9.707  -0.129   1.248 -0.0307 -0.2638 -0.7086
  578MOL0     H76244   9.817  -0.003   1.239 -0.3401 -1.8319 -1.4183
  578MOL0     H76245   9.518   0.039   1.199  0.2382  2.5248  0.2678
  578MOL0     H76246   9.647   0.158   1.167  0.1424  0.5937 -4.5691
  578MOL0     H76247   9.741  -0.000   1.010 -0.1408  2.0574  2.8521
  578MOL0     H76248   9.597   0.082   0.952  2.9126  1.9418 -1.0910
  578MOL0     H76249   9.717  -0.260   1.049 -0.0628  0.6091  1.3680
  578MOL0     H76250   9.449  -0.510   1.076 -0.0462 -2.3159 -1.1697
  578MOL0     H76251   9.597  -0.504   0.983  0.6060  2.4024  2.9821
  578MOL0     H76252   9.314  -0.480   0.868  0.9547  1.8381  0.9702
  578MOL0     H76253   9.420  -0.625   0.864  0.4961 -0.8171 -1.2559
  578MOL0     H76254   9.488  -0.351   0.734 -0.9155  0.0640 -2.0942
  578MOL0     H76255   9.587  -0.501   0.722  0.5345  0.6014  2.2357
  578MOL0     H76256   9.344  -0.586   0.634  4.5898 -2.3283  3.9160
  578MOL0     H76257   9.470  -0.530   0.516 -3.8617  0.4102 -1.5929
  578MOL0     H76258   9.148  -0.516   0.414 -0.9660  0.5799 -0.8365
  578MOL0     H76259   8.914  -0.509   0.451  0.2959 -1.6100  0.2922
  578MOL0     H76260   8.605  -0.116   0.762  0.6058  0.8757  0.9344
  578MOL0     H76261   8.351  -0.104   0.782  1.2177  1.0945  1.3956
  578MOL0     H76262   8.081  -0.461   0.872  0.3787  0.4803  0.5546
  578MOL0     H76263   8.171  -0.466   0.713  0.9285  0.3533  0.9721
  578MOL0     H76264   7.999  -0.369   0.597  0.6458 -2.6081 -0.6255
  578MOL0     H76265   7.920  -0.305   0.748 -1.0415 -0.9862  1.5198
  578MOL0     H76266   7.856  -0.529   0.817 -2.1939  0.1278 -1.1631
  578MOL0     H76267   7.952  -0.604   0.680 -2.0690 -0.5857 -2.6302
  578MOL0     H76268   7.708  -0.417   0.645 -0.5864 -0.7365 -2.4458
  578MOL0     H76269   7.793  -0.494   0.513  0.6792  0.0529 -0.9295
  578MOL0     H76270   7.747  -0.715   0.631  2.5472  1.4946  0.2044
  578MOL0     H76271   7.620  -0.653   0.531  2.0907 -0.9005 -0.7936
  578MOL0     H76272   7.505  -0.541   0.699  1.5947  0.7223 -1.4572
  578MOL0     H76273   7.638  -0.597   0.823 -0.7371  0.3537  0.6863
  578MOL0     H76274   7.463  -0.782   0.661 -1.5273 -1.5047  1.9001
  578MOL0     H76275   7.558  -0.815   0.806  0.3784  1.1505  0.9118
  578MOL0     H76276   7.412  -0.643   0.930 -0.1064 -0.7951  2.5051
  578MOL0     H76277   7.376  -0.812   0.916  3.0437  1.2016  0.4203
  578MOL0     H76278   8.334  -0.511   0.903 -0.3541 -0.6458 -3.2018
  578MOL0     H76279   8.582  -0.515   0.883 -0.8764  0.1936  1.9943
  578MOL0     H76280   8.985  -0.271   0.814 -0.0206 -1.9508  0.1942
  578MOL0     H76281   9.219  -0.255   0.737 -0.1577 -2.3851  0.3554
  578MOL0     H76282  10.144   0.035   1.414  2.3646 -2.7821 -1.4757
  578MOL0     H76283  10.346   0.119   1.374 -2.5061 -0.8753  0.0984
  578MOL0     H76284  10.713   0.411   1.578  0.7335  0.6137 -0.4083
  578MOL0     H76285  10.951   0.494   1.572  1.6886  0.3263 -3.9307
  578MOL0     H76286  11.255   0.255   1.459 -3.9277 -0.3880  0.8099
  578MOL0     H76287  11.341   0.400   1.538 -1.0655  1.6575  0.4329
  578MOL0     H76288  11.269   0.464   1.309  2.8465  0.4351  1.4795
  578MOL0     H76289  11.103   0.443   1.367 -0.2328  0.5324  1.6591
  578MOL0     H76290  11.321   0.640   1.460 -0.9706 -0.9430 -2.4582
  578MOL0     H76291  11.188   0.593   1.577  1.3435 -2.1548  1.0586
  578MOL0     H76292  11.030   0.671   1.381  0.3966  0.0358  0.0507
  578MOL0     H76293  11.119   0.795   1.463 -0.2060 -0.2430  0.3418
  578MOL0     H76294  11.281   0.811   1.067  0.0284  2.3699 -0.5135
  578MOL0     H76295  11.101   0.112   1.594  0.6240  0.8791 -2.0727
  578MOL0     H76296  10.867   0.007   1.618  2.9788  0.5363  3.1821
  579MOL0     O76297  10.596   4.422   4.298  0.2148 -0.2472 -0.6947
  579MOL0     C76298  10.567   4.416   4.181 -0.0851  0.9521 -0.0336
  579MOL0     O76299  10.644   4.466   4.083  0.0634 -0.6802 -0.2226
  579MOL0     C76300  10.772   4.503   4.115  0.0562  0.2599  0.0836
  579MOL0     C76301  10.865   4.409   4.184 -0.0728 -0.0709  0.1725
  579MOL0     C76302  10.993   4.460   4.220 -0.0266  0.8123 -0.2062
  579MOL0     C76303  11.035   4.591   4.185 -0.8368  0.5584  0.7989
  579MOL0     O76304  11.165   4.638   4.216  0.5233 -0.8508 -0.2106
  579MOL0     C76305  11.158   4.753   4.299 -0.5947 -0.0791 -0.0334
  579MOL0     C76306  11.236   4.874   4.240 -0.4594  0.0095 -0.0180
  579MOL0     C76307  11.180   4.933   4.114 -0.1542  0.7955  0.4024
  579MOL0     C76308  11.270   5.048   4.077 -0.0010  0.6966 -0.0124
  579MOL0     C76309  11.257   5.077   3.931 -0.0295  0.4408 -0.0042
  579MOL0     C76310  11.111   5.124   3.883 -0.0735  0.9503 -0.3059
  579MOL0     C76311  11.072   5.263   3.927 -0.7328 -0.4318  0.1001
  579MOL0     C76312  11.114   5.379   3.829 -0.4920 -0.0744 -1.6323
  579MOL0     N76313  11.017   5.403   3.716  0.3621  0.5686 -0.1333
  579MOL0     C76314  10.969   5.310   3.628 -0.2119  0.7229 -0.1861
  579MOL0     C76315  10.878   5.370   3.545 -0.1627 -0.5771 -0.7362
  579MOL0     C76316  10.802   5.294   3.435  0.1642 -0.5613 -0.4664
  579MOL0     C76317  10.893   5.240   3.311  0.7409 -0.1887 -0.4321
  579MOL0     C76318  10.964   5.353   3.232  0.1093 -0.1948 -0.1797
  579MOL0     C76319  11.083   5.411   3.303  0.5471  0.5183 -0.8875
  579MOL0     O76320  11.154   5.489   3.205 -0.2005 -0.0959 -0.0132
  579MOL0     C76321  11.281   5.519   3.250 -0.1896 -0.2282  0.4135
  579MOL0     C76322  11.369   5.574   3.159 -1.1196  0.9098  0.6476
  579MOL0     C76323  11.498   5.620   3.198  0.2608  0.3948  0.5468
  579MOL0     C76324  11.539   5.618   3.332 -0.0033 -0.5100  0.4278
  579MOL0     C76325  11.668   5.676   3.380  0.1211  0.7530 -0.8461
  579MOL0     O76326  11.691   5.687   3.513  0.2742 -0.4362  1.2167
  579MOL0     C76327  11.796   5.761   3.564 -0.4801  0.1567 -0.7921
  579MOL0     C76328  11.771   5.850   3.667  0.3998  0.1810  1.0390
  579MOL0     C76329  11.866   5.932   3.728 -0.0198 -0.1748 -0.3748
  579MOL0     C76330  11.997   5.926   3.689  0.7271  0.3200  0.0378
  579MOL0     O76331  12.090   6.003   3.756 -0.7480  0.6504  0.0322
  579MOL0     C76332  12.211   5.935   3.795  0.5964 -0.0620  0.2508
  579MOL0     C76333  12.315   6.042   3.828 -0.4657  0.3857 -0.0608
  579MOL0     C76334  12.350   6.132   3.706 -0.1471  0.3564  0.1278
  579MOL0     C76335  12.452   6.247   3.719  0.0053  0.4184  0.1327
  579MOL0     C76336  12.460   6.333   3.603  0.3051 -1.4036  0.4751
  579MOL0     C76337  12.591   6.409   3.612 -0.7375  0.3983  0.3205
  579MOL0     C76338  12.598   6.510   3.494  0.5308  0.5912 -0.6830
  579MOL0     C76339  12.701   6.618   3.517 -0.3178 -0.1113 -0.1824
  579MOL0    Cl76340  12.865   6.553   3.529  0.1168 -0.7389 -0.3171
  579MOL0     C76341  12.022   5.838   3.588 -0.6983  0.7417  0.8154
  579MOL0     C76342  11.934   5.755   3.524  0.4976 -0.6884 -0.3973
  579MOL0     O76343  11.748   5.707   3.292 -0.4486  0.8833  0.5408
  579MOL0     C76344  11.450   5.562   3.424 -0.3350 -0.1095  0.1377
  579MOL0     C76345  11.324   5.523   3.385  0.1908 -0.1904 -0.4952
  579MOL0     N76346  10.875   5.507   3.586  1.1903  0.0639 -0.1916
  579MOL0     N76347  10.967   5.522   3.682 -0.2895  0.0870 -0.4608
  579MOL0     C76348  10.948   4.667   4.104  0.5138  0.0959  1.1261
  579MOL0     C76349  10.819   4.626   4.075  0.2612  0.2962  0.4059
  579MOL0     C76350  10.436   4.351   4.142 -0.0753  0.4849 -0.5865
  579MOL0     C76351  10.368   4.377   4.027  0.2554 -0.0972 -0.3963
  579MOL0     C76352  10.253   4.321   4.000  0.9788 -0.1094 -0.7141
  579MOL0     C76353  10.194   4.236   4.102  0.8603 -0.6023 -0.1326
  579MOL0     O76354  10.070   4.187   4.090  0.0590  0.1397 -0.5796
  579MOL0     C76355   9.980   4.210   4.200  0.2688 -0.0495  1.9303
  579MOL0     C76356   9.841   4.218   4.140 -0.6244 -0.2354 -0.9206
  579MOL0     C76357   9.791   4.100   4.050 -0.1467  1.2555  0.5187
  579MOL0     C76358   9.747   3.977   4.128  0.1749  1.2291 -0.3181
  579MOL0     C76359   9.635   4.006   4.221 -0.1626  0.6667  1.3116
  579MOL0     C76360   9.537   4.041   4.283  0.7108  0.7571 -0.2008
  579MOL0     C76361  10.257   4.213   4.221 -1.3501  0.2232 -0.5799
  579MOL0     C76362  10.382   4.262   4.238 -0.2200  0.4747 -0.0587
  579MOL0     H76363  10.846   4.306   4.210  0.4172 -0.3898 -0.6912
  579MOL0     H76364  11.064   4.405   4.282 -0.4409  0.8159  0.2730
  579MOL0     H76365  11.201   4.725   4.395  1.8623  0.3274 -0.9157
  579MOL0     H76366  11.059   4.793   4.321 -0.3421  1.1885 -1.0461
  579MOL0     H76367  11.337   4.842   4.215  0.3406  0.7466  2.0799
  579MOL0     H76368  11.244   4.952   4.316  0.0714 -2.8404  3.0689
  579MOL0     H76369  11.078   4.973   4.127 -1.2605 -0.4843 -3.0970
  579MOL0     H76370  11.192   4.849   4.046  2.6866  1.1219  0.3808
  579MOL0     H76371  11.257   5.142   4.132 -0.1135 -0.0791  1.3379
  579MOL0     H76372  11.377   5.025   4.081  0.3781  2.4145  0.6281
  579MOL0     H76373  11.290   4.992   3.870  0.4687 -0.6290  1.6754
  579MOL0     H76374  11.322   5.161   3.907 -0.9714  0.8061 -1.4280
  579MOL0     H76375  11.037   5.057   3.926  2.1586 -1.5156 -0.0095
  579MOL0     H76376  11.107   5.099   3.777  0.2592  0.2027 -0.1466
  579MOL0     H76377  10.963   5.262   3.940 -1.0326 -2.4445 -1.9494
  579MOL0     H76378  11.105   5.286   4.029  2.1574 -0.0536 -0.8312
  579MOL0     H76379  11.206   5.344   3.783  0.3462 -2.4201  1.4431
  579MOL0     H76380  11.135   5.467   3.890 -1.2033  0.7938 -2.6184
  579MOL0     H76381  11.000   5.206   3.628 -0.1169  0.6950 -2.4572
  579MOL0     H76382  10.725   5.358   3.392  0.1534  3.9364  5.0964
  579MOL0     H76383  10.751   5.205   3.473  0.4559  0.2042  1.9166
  579MOL0     H76384  10.832   5.188   3.236  2.4668 -0.6939 -1.5374
  579MOL0     H76385  10.979   5.186   3.349  0.6839  2.5488  4.3825
  579MOL0     H76386  11.004   5.329   3.133 -0.7444 -0.8754 -0.3778
  579MOL0     H76387  10.895   5.434   3.207  1.0320  0.9786  0.9398
  579MOL0     H76388  11.146   5.331   3.341 -0.6166  0.7353  1.7139
  579MOL0     H76389  11.055   5.480   3.384  4.1696  2.1609 -0.8463
  579MOL0     H76390  11.348   5.564   3.053 -0.5885  2.7651  0.3326
  579MOL0     H76391  11.564   5.646   3.116 -0.2133 -0.8993 -0.2765
  579MOL0     H76392  11.672   5.849   3.712 -0.0127  0.3731  0.1633
  579MOL0     H76393  11.830   5.997   3.807 -3.8474 -1.1079 -1.1249
  579MOL0     H76394  12.258   5.889   3.708  1.0177  2.8056 -1.1664
  579MOL0     H76395  12.204   5.876   3.887  0.4087  0.2053  0.4093
  579MOL0     H76396  12.408   5.995   3.862 -1.1561 -1.5496 -0.6794
  579MOL0     H76397  12.275   6.105   3.907 -0.2369 -0.5051  0.7835
  579MOL0     H76398  12.254   6.181   3.688  1.4011  2.9182 -1.9699
  579MOL0     H76399  12.368   6.054   3.631 -5.2448 -3.0936  1.9749
  579MOL0     H76400  12.430   6.308   3.808 -1.9499 -0.3469  0.2304
  579MOL0     H76401  12.546   6.192   3.712 -0.0764  0.2118  0.6158
  579MOL0     H76402  12.371   6.396   3.600 -0.7025 -2.5521  2.9629
  579MOL0     H76403  12.443   6.261   3.522  1.5489 -1.0840 -0.0852
  579MOL0     H76404  12.673   6.337   3.612 -2.0427 -1.1420  1.2098
  579MOL0     H76405  12.601   6.466   3.705 -3.0515  2.3722 -0.5260
  579MOL0     H76406  12.607   6.453   3.402  2.2512 -1.8287  0.8736
  579MOL0     H76407  12.502   6.563   3.489 -0.4467 -1.2001 -1.7861
  579MOL0     H76408  12.684   6.681   3.605  0.5516  1.3013 -0.9811
  579MOL0     H76409  12.710   6.687   3.433 -1.9342  0.2903 -0.0461
  579MOL0     H76410  12.121   5.836   3.544 -0.8851  0.8102  0.3890
  579MOL0     H76411  11.972   5.690   3.446  1.3700  0.3029 -0.8382
  579MOL0     H76412  11.473   5.556   3.530 -0.4562  0.2708  0.1843
  579MOL0     H76413  11.258   5.487   3.463 -2.7586 -3.1314 -3.9386
  579MOL0     H76414  10.988   4.763   4.073  0.2930 -0.0561  0.3478
  579MOL0     H76415  10.745   4.685   4.022 -0.1079  0.0241  0.6179
  579MOL0     H76416  10.407   4.457   3.965 -3.3595  2.4852  0.3735
  579MOL0     H76417  10.184   4.340   3.918  0.6298  1.5281 -0.0866
  579MOL0     H76418  10.008   4.305   4.247 -0.8554  1.0034  0.5479
  579MOL0     H76419   9.993   4.136   4.279  0.6180  0.6811  2.5753
  579MOL0     H76420   9.770   4.223   4.223 -1.3122 -1.6426 -1.3923
  579MOL0     H76421   9.836   4.316   4.092  2.5171  1.2315  1.4171
  579MOL0     H76422   9.857   4.078   3.966  0.9648 -0.9256  1.8458
  579MOL0     H76423   9.694   4.131   4.011 -2.3571 -2.0931  2.7688
  579MOL0     H76424   9.714   3.892   4.067 -0.7084  0.8443  0.6659
  579MOL0     H76425   9.832   3.945   4.189  0.6241  3.0606  0.0684
  579MOL0     H76426   9.456   4.081   4.341  0.4087  0.0474 -0.1295
  579MOL0     H76427  10.220   4.137   4.289  1.1391 -0.0248  0.6361
  579MOL0     H76428  10.431   4.212   4.320 -1.1447 -1.0662 -0.4101
  580MOL0     O76429   1.833   2.781   9.127  0.1618  0.5581 -0.1774
  580MOL0     C76430   1.807   2.769   9.012 -0.0864  0.3717  0.2670
  580MOL0     O76431   1.747   2.863   8.940  0.0309 -0.2222 -0.4165
  580MOL0     C76432   1.663   2.952   9.009 -0.5460 -0.6803  0.1852
  580MOL0     C76433   1.693   3.089   9.007 -0.7536  0.2671 -0.3264
  580MOL0     C76434   1.626   3.178   9.084 -0.6055  1.1478  0.0554
  580MOL0     C76435   1.509   3.133   9.150 -0.1518 -0.1534 -0.1405
  580MOL0     O76436   1.419   3.203   9.220  0.8281  0.0056  0.3273
  580MOL0     C76437   1.460   3.315   9.302  0.0592 -0.0358  0.6198
  580MOL0     C76438   1.361   3.339   9.407  0.4331 -0.0414  0.6464
  580MOL0     C76439   1.247   3.432   9.364 -0.5503  0.1993  0.4333
  580MOL0     C76440   1.133   3.449   9.472  0.4697  0.1197  0.1693
  580MOL0     C76441   1.014   3.524   9.426  1.2303 -0.2039  0.2677
  580MOL0     C76442   0.927   3.605   9.521 -0.7655 -0.5444  0.4506
  580MOL0     C76443   0.820   3.521   9.591 -1.1961  0.8191 -0.0347
  580MOL0     C76444   0.742   3.604   9.701 -0.9366 -0.0418  0.1897
  580MOL0     N76445   0.639   3.541   9.773 -0.2155  0.4503 -0.4066
  580MOL0     C76446   0.651   3.425   9.848 -0.9000  0.0333  0.3700
  580MOL0     C76447   0.518   3.386   9.861 -0.6826  0.3256 -1.0562
  580MOL0     C76448   0.472   3.263   9.945 -0.2736 -0.0510 -0.3108
  580MOL0     C76449   0.422   3.325  10.074  0.9948 -0.0650  0.5412
  580MOL0     C76450   0.333   3.224  10.157  0.8610  0.1263  0.8021
  580MOL0     C76451   0.211   3.178  10.081  0.5653 -0.1182 -0.2105
  580MOL0     O76452   0.128   3.111  10.167  0.3130 -0.1977  0.2770
  580MOL0     C76453   0.010   3.170  10.193  0.5531 -1.2930 -0.2326
  580MOL0     C76454  -0.005   3.297  10.259 -0.6095  0.2546  0.0096
  580MOL0     C76455  -0.126   3.342  10.302 -0.0501 -0.6670 -1.0732
  580MOL0     C76456  -0.238   3.261  10.279  0.1083 -0.5797 -0.8540
  580MOL0     C76457  -0.371   3.307  10.318  0.5110  0.7047  0.1672
  580MOL0     O76458  -0.474   3.273  10.241 -0.3092  0.3211 -0.4768
  580MOL0     C76459  -0.592   3.330  10.275 -1.0986 -0.4420  0.9973
  580MOL0     C76460  -0.663   3.310  10.394 -0.6800  0.7684 -0.3640
  580MOL0     C76461  -0.784   3.372  10.418 -0.3940  0.9328  0.9797
  580MOL0     C76462  -0.835   3.456  10.320 -0.4899  0.2631  0.3774
  580MOL0     O76463  -0.961   3.517  10.327 -0.4154 -0.3464 -0.2280
  580MOL0     C76464  -1.066   3.473  10.403  0.1401  0.6721  0.1309
  580MOL0     C76465  -1.199   3.539  10.372  1.2717  0.3678 -0.5174
  580MOL0     C76466  -1.271   3.588  10.503  0.0832  0.4464 -0.3957
  580MOL0     C76467  -1.373   3.691  10.456  0.4586 -1.2034 -0.0643
  580MOL0     C76468  -1.417   3.736  10.595  0.6433  0.4046 -0.1498
  580MOL0     C76469  -1.530   3.837  10.580 -0.7855 -0.6668  0.6437
  580MOL0     C76470  -1.583   3.884  10.712  0.5156 -0.1742  0.7431
  580MOL0     C76471  -1.695   3.985  10.690  0.2953  0.5174 -0.5497
  580MOL0    Cl76472  -1.837   3.929  10.769 -0.1989 -0.5904 -0.2299
  580MOL0     C76473  -0.769   3.469  10.200  0.0573  0.4440 -0.5685
  580MOL0     C76474  -0.651   3.406  10.175 -0.4515 -0.3409 -0.2086
  580MOL0     O76475  -0.380   3.396  10.403 -0.3595  0.0524  0.3858
  580MOL0     C76476  -0.227   3.133  10.210  0.0388  0.1689 -0.4344
  580MOL0     C76477  -0.103   3.099  10.170 -0.4039  0.5193  1.2359
  580MOL0     N76478   0.440   3.476   9.799 -0.1267 -0.1654 -0.4294
  580MOL0     N76479   0.511   3.567   9.753  0.2658  0.1644 -0.5034
  580MOL0     C76480   1.469   2.998   9.146 -0.4610 -0.2016  0.2353
  580MOL0     C76481   1.557   2.912   9.085 -1.3136 -0.5311  0.5392
  580MOL0     C76482   1.867   2.641   8.942  0.6070 -1.0928 -0.5830
  580MOL0     C76483   1.937   2.539   9.008 -0.9431 -0.2441  0.2485
  580MOL0     C76484   1.988   2.426   8.940  0.2076 -1.1696 -0.5375
  580MOL0     C76485   1.999   2.427   8.804 -0.2960 -0.7652 -0.0397
  580MOL0     O76486   2.073   2.344   8.740  0.2412 -0.3140 -0.6385
  580MOL0     C76487   2.023   2.215   8.763  0.4926  0.6321  1.1878
  580MOL0     C76488   2.050   2.136   8.634 -0.0861  0.2654 -0.0947
  580MOL0     C76489   1.947   2.171   8.533  0.3861  0.1387  0.9063
  580MOL0     C76490   1.799   2.143   8.564  0.1075  0.4851  0.5411
  580MOL0     C76491   1.781   2.006   8.614 -0.4875 -0.6057  0.2357
  580MOL0     C76492   1.763   1.887   8.637 -0.2156 -1.2166 -0.1519
  580MOL0     C76493   1.937   2.529   8.735 -0.1568 -0.2392 -0.9992
  580MOL0     C76494   1.862   2.633   8.798  0.1216  0.3034 -0.3234
  580MOL0     H76495   1.783   3.117   8.952  2.6083 -1.1230  3.8965
  580MOL0     H76496   1.654   3.283   9.083 -0.2651  1.0677  0.5688
  580MOL0     H76497   1.493   3.395   9.235  1.3791 -2.0200 -1.2379
  580MOL0     H76498   1.550   3.284   9.355 -1.1556  0.0026  2.8541
  580MOL0     H76499   1.415   3.374   9.495  0.1108 -2.6447  1.9811
  580MOL0     H76500   1.306   3.249   9.437  1.2326 -0.2762  1.4347
  580MOL0     H76501   1.207   3.388   9.272 -0.2145  0.7246  0.0348
  580MOL0     H76502   1.286   3.530   9.337 -3.5276  1.1697 -0.7022
  580MOL0     H76503   1.089   3.353   9.499 -0.3283  0.1569 -0.9434
  580MOL0     H76504   1.172   3.500   9.561  0.4752 -2.0765  1.4990
  580MOL0     H76505   0.941   3.452   9.387 -1.2671  1.1096  2.2217
  580MOL0     H76506   1.052   3.585   9.344 -1.2301 -1.7041 -2.1777
  580MOL0     H76507   0.874   3.688   9.473 -4.5236 -0.3942  4.2552
  580MOL0     H76508   0.992   3.640   9.602 -2.1224  0.1977  1.2511
  580MOL0     H76509   0.744   3.490   9.519 -0.1710 -0.1348 -0.7372
  580MOL0     H76510   0.857   3.438   9.651  1.0360  1.9201  0.2144
  580MOL0     H76511   0.710   3.700   9.659  0.7057  0.2169 -0.5509
  580MOL0     H76512   0.815   3.637   9.776 -1.8134 -2.2016  2.1156
  580MOL0     H76513   0.746   3.384   9.881 -1.0365 -1.1374 -0.6357
  580MOL0     H76514   0.561   3.202   9.959 -0.5741 -0.1575  1.2216
  580MOL0     H76515   0.397   3.212   9.884 -1.2323  1.0499 -0.0808
  580MOL0     H76516   0.360   3.412  10.053 -1.0884 -2.2044 -3.4015
  580MOL0     H76517   0.501   3.367  10.137  1.3235  2.3279 -1.3129
  580MOL0     H76518   0.391   3.141  10.196  0.3170 -0.0458  1.2459
  580MOL0     H76519   0.296   3.277  10.245 -1.5846 -0.8227  0.4124
  580MOL0     H76520   0.235   3.113   9.996  0.6420  1.0328 -1.0983
  580MOL0     H76521   0.162   3.267  10.040  1.8516  0.1502 -1.2359
  580MOL0     H76522   0.088   3.351  10.268  1.1358 -2.7679  1.8472
  580MOL0     H76523  -0.128   3.440  10.351 -2.1939 -1.0657 -0.2345
  580MOL0     H76524  -0.628   3.239  10.468  4.4740  4.1488  0.9318
  580MOL0     H76525  -0.853   3.359  10.501 -0.1630  0.4161  1.0925
  580MOL0     H76526  -1.046   3.493  10.509 -2.5908  2.0817  0.4800
  580MOL0     H76527  -1.085   3.368  10.383 -0.0271  0.0286  3.2481
  580MOL0     H76528  -1.258   3.461  10.323  0.9926  1.0153 -1.2421
  580MOL0     H76529  -1.191   3.626  10.305 -0.5702  0.8917 -0.1121
  580MOL0     H76530  -1.198   3.647  10.560 -0.7874  2.5171 -1.3071
  580MOL0     H76531  -1.308   3.509  10.568  2.1642 -0.0779  0.2331
  580MOL0     H76532  -1.324   3.778  10.410 -0.8637 -0.8905 -0.9468
  580MOL0     H76533  -1.444   3.641  10.390 -0.8439 -1.5415  1.5313
  580MOL0     H76534  -1.344   3.804  10.641 -1.1089  1.8745  0.5884
  580MOL0     H76535  -1.437   3.651  10.660 -2.0044  0.5422 -0.6888
  580MOL0     H76536  -1.615   3.794  10.527  0.8631 -0.9518 -1.9196
  580MOL0     H76537  -1.492   3.915  10.513  1.1500 -2.3075 -0.2644
  580MOL0     H76538  -1.621   3.797  10.766 -3.4039  0.5564 -0.4987
  580MOL0     H76539  -1.501   3.920  10.775  1.5243 -1.3078  0.1369
  580MOL0     H76540  -1.717   3.990  10.583 -1.3428 -0.6488 -0.3094
  580MOL0     H76541  -1.674   4.080  10.740 -0.7512  0.7659 -0.5615
  580MOL0     H76542  -0.816   3.527  10.121 -0.4580  0.8760  0.0421
  580MOL0     H76543  -0.608   3.421  10.076  0.2835  0.2576  0.1918
  580MOL0     H76544  -0.309   3.062  10.207  0.2910 -0.0972 -0.9601
  580MOL0     H76545  -0.090   3.001  10.126 -0.0496  1.1979 -0.2377
  580MOL0     H76546   1.385   2.964   9.205 -2.6439  4.8305  0.5008
  580MOL0     H76547   1.525   2.808   9.080 -0.0395 -0.9824  1.1733
  580MOL0     H76548   1.945   2.545   9.116 -1.2293  0.3063  0.2455
  580MOL0     H76549   2.028   2.345   9.000 -2.6153 -2.7305 -0.5964
  580MOL0     H76550   1.917   2.201   8.787  0.1412 -0.0073 -0.6213
  580MOL0     H76551   2.077   2.163   8.843  1.6730  1.0279  0.6714
  580MOL0     H76552   2.152   2.135   8.595  0.7877 -1.8742  1.9954
  580MOL0     H76553   2.039   2.033   8.668  2.8648 -0.7424 -1.8971
  580MOL0     H76554   1.970   2.118   8.440  0.5030  0.9533  0.4611
  580MOL0     H76555   1.955   2.278   8.511  0.8343 -0.1815 -0.6159
  580MOL0     H76556   1.761   2.215   8.638 -0.5184  1.0700 -0.3355
  580MOL0     H76557   1.747   2.144   8.468  1.6450  1.2467 -0.3208
  580MOL0     H76558   1.763   1.780   8.643 -0.6440 -1.1691  0.8148
  580MOL0     H76559   1.947   2.536   8.627  1.7144  0.5491 -0.8154
  580MOL0     H76560   1.815   2.703   8.730  2.6736  2.0363 -0.4524
  581MOL0     O76561   0.763   4.748  10.492 -0.5516 -0.6245 -0.1756
  581MOL0     C76562   0.701   4.852  10.512 -0.7117 -0.0965  0.2345
  581MOL0     O76563   0.577   4.880  10.460  0.0078 -0.4390 -0.1479
  581MOL0     C76564   0.498   4.777  10.411  0.1940  1.0442  0.9559
  581MOL0     C76565   0.441   4.668  10.482  0.1002 -0.2417  0.2229
  581MOL0     C76566   0.361   4.568  10.416 -0.0584 -1.2806 -0.7587
  581MOL0     C76567   0.331   4.580  10.277 -0.4491  0.4673 -0.1233
  581MOL0     O76568   0.242   4.490  10.227  0.4855 -0.7319 -0.2359
  581MOL0     C76569   0.284   4.423  10.106  0.5483 -0.7802 -1.0989
  581MOL0     C76570   0.173   4.339  10.059  0.3423  1.5205  0.7145
  581MOL0     C76571   0.139   4.214  10.148 -0.3530 -1.2972  0.1389
  581MOL0     C76572  -0.015   4.166  10.137  1.2231  0.5167  0.2548
  581MOL0     C76573  -0.040   4.019  10.172  0.8967 -0.1343  0.3108
  581MOL0     C76574  -0.178   3.996  10.228  0.3572  0.2016 -0.0015
  581MOL0     C76575  -0.212   3.847  10.250  0.2186  0.1129  0.5606
  581MOL0     C76576  -0.327   3.825  10.352 -0.8305  0.6815 -0.4318
  581MOL0     N76577  -0.450   3.868  10.288  0.2209  0.3891  0.3230
  581MOL0     C76578  -0.496   3.999  10.282 -0.7783 -0.1912  0.2986
  581MOL0     C76579  -0.582   3.997  10.187 -0.6324 -0.6197  0.1651
  581MOL0     C76580  -0.664   4.114  10.164  0.1107 -0.5490  0.1511
  581MOL0     C76581  -0.803   4.088  10.209  0.0363  0.4685 -0.0753
  581MOL0     C76582  -0.874   4.210  10.156  0.4603  1.1472  0.3270
  581MOL0     C76583  -1.021   4.231  10.218 -0.2793  0.5496 -0.1504
  581MOL0     O76584  -1.116   4.298  10.142 -0.2231 -0.5958 -0.8026
  581MOL0     C76585  -1.242   4.320  10.204  0.2208 -0.1583 -0.1079
  581MOL0     C76586  -1.273   4.280  10.332  0.7049 -0.6785 -0.6320
  581MOL0     C76587  -1.396   4.318  10.387  0.5123  1.0322  1.2478
  581MOL0     C76588  -1.489   4.394  10.315 -0.1632  0.5941  0.2942
  581MOL0     C76589  -1.624   4.427  10.374  0.1514  0.7686 -0.2637
  581MOL0     O76590  -1.648   4.371  10.495  0.8411 -0.4176 -0.3248
  581MOL0     C76591  -1.777   4.383  10.547 -0.2154  0.5192 -0.2283
  581MOL0     C76592  -1.839   4.497  10.601  0.6637  0.7813  0.5692
  581MOL0     C76593  -1.971   4.496  10.653 -0.1975 -0.0854 -1.0927
  581MOL0     C76594  -2.035   4.375  10.671  0.7391 -0.0474  0.3006
  581MOL0     O76595  -2.159   4.372  10.732 -0.0921 -0.6083  0.8784
  581MOL0     C76596  -2.256   4.289  10.673  0.4151  0.2837 -1.3775
  581MOL0     C76597  -2.389   4.340  10.725 -0.1673  0.0903 -0.1615
  581MOL0     C76598  -2.386   4.346  10.872 -0.0314  0.6707 -0.2103
  581MOL0     C76599  -2.520   4.384  10.930  0.5420 -0.0866 -1.0365
  581MOL0     C76600  -2.523   4.367  11.086  0.5223 -0.0653  0.6294
  581MOL0     C76601  -2.512   4.223  11.139  0.4086  0.2258  0.1103
  581MOL0     C76602  -2.596   4.213  11.271 -0.6567 -0.1482  0.1471
  581MOL0     C76603  -2.558   4.092  11.350 -0.7127  0.3977 -0.5136
  581MOL0    Cl76604  -2.657   4.095  11.496 -0.4240 -0.3905  0.4460
  581MOL0     C76605  -1.983   4.257  10.613  0.0302  0.0187 -0.7493
  581MOL0     C76606  -1.852   4.264  10.558 -0.0258 -0.5746 -0.5579
  581MOL0     O76607  -1.704   4.493  10.314 -0.3871 -0.1140 -0.1756
  581MOL0     C76608  -1.463   4.420  10.178 -0.0152  0.3437 -1.0735
  581MOL0     C76609  -1.338   4.382  10.127 -0.1780  0.0610  0.5536
  581MOL0     N76610  -0.578   3.877  10.117  0.6112 -0.4760  0.1428
  581MOL0     N76611  -0.504   3.789  10.191 -0.8913 -0.2671  0.1648
  581MOL0     C76612   0.382   4.691  10.215 -0.3649 -0.1493  0.0132
  581MOL0     C76613   0.464   4.780  10.276 -0.3101  0.3785 -0.8705
  581MOL0     C76614   0.761   4.954  10.603 -0.4207 -0.2326  0.8381
  581MOL0     C76615   0.736   5.090  10.584  0.1893  0.2927  0.3135
  581MOL0     C76616   0.802   5.178  10.670 -0.5814 -0.2492  0.0503
  581MOL0     C76617   0.899   5.133  10.764 -0.8453  0.0009 -0.3382
  581MOL0     O76618   0.967   5.237  10.823  0.1015  0.2178  0.2736
  581MOL0     C76619   1.085   5.213  10.892  0.1580 -0.0470 -0.6960
  581MOL0     C76620   1.145   5.342  10.956  0.0483 -0.1572  0.4188
  581MOL0     C76621   1.257   5.297  11.050 -0.3371  0.2260  0.8519
  581MOL0     C76622   1.393   5.277  10.992  0.1329 -0.1188 -0.2509
  581MOL0     C76623   1.451   5.400  10.952  0.5518  0.3245 -0.0215
  581MOL0     C76624   1.496   5.508  10.908 -0.7018  0.9622 -0.8200
  581MOL0     C76625   0.931   4.998  10.778  0.9873 -0.1376 -0.5507
  581MOL0     C76626   0.861   4.906  10.697  0.0853 -1.3239  0.5800
  581MOL0     H76627   0.472   4.634  10.581  0.0193 -1.1849 -0.0661
  581MOL0     H76628   0.327   4.486  10.479 -1.2859 -0.1510  0.0894
  581MOL0     H76629   0.364   4.356  10.139  1.4704  1.2307  1.0735
  581MOL0     H76630   0.319   4.498  10.034 -1.0483  1.0070 -0.1180
  581MOL0     H76631   0.197   4.289   9.964 -2.4885  1.3192  0.0105
  581MOL0     H76632   0.087   4.406  10.049  0.4460  2.1087  3.2119
  581MOL0     H76633   0.152   4.249  10.251 -4.5814  2.1765 -0.2158
  581MOL0     H76634   0.198   4.126  10.122  0.5563 -1.1395  1.5594
  581MOL0     H76635  -0.076   4.220  10.209  0.0409 -3.7413  2.7979
  581MOL0     H76636  -0.048   4.185  10.034 -2.4275 -0.0114  1.2074
  581MOL0     H76637   0.034   3.981  10.244 -0.6906  1.2605  2.8182
  581MOL0     H76638  -0.052   3.977  10.072  1.8212 -1.7068  0.8090
  581MOL0     H76639  -0.251   4.056  10.173  0.6985  1.5232  0.9039
  581MOL0     H76640  -0.176   4.038  10.329  0.8034  1.6452 -0.5714
  581MOL0     H76641  -0.233   3.802  10.153  1.5219  2.0209 -0.6974
  581MOL0     H76642  -0.128   3.798  10.301  2.1066  1.7391 -0.8044
  581MOL0     H76643  -0.301   3.872  10.447 -0.7862  0.5114 -0.3606
  581MOL0     H76644  -0.339   3.718  10.373 -2.6040  1.0250  0.4987
  581MOL0     H76645  -0.495   4.083  10.351 -2.3274  2.2851 -2.5022
  581MOL0     H76646  -0.664   4.139  10.058  0.7213  1.8664  0.6716
  581MOL0     H76647  -0.636   4.197  10.229 -0.3430 -0.4895  0.2750
  581MOL0     H76648  -0.800   4.096  10.318 -0.0841 -1.6380  0.1259
  581MOL0     H76649  -0.846   3.995  10.171  0.1529 -0.2013  1.3643
  581MOL0     H76650  -0.814   4.297  10.183  1.0088  1.0592 -0.5793
  581MOL0     H76651  -0.885   4.207  10.047 -0.4156  2.2710  0.3783
  581MOL0     H76652  -1.017   4.263  10.322  1.2125  0.2739 -0.1083
  581MOL0     H76653  -1.061   4.129  10.214 -3.8517  1.7524  0.5892
  581MOL0     H76654  -1.216   4.206  10.387  1.0612 -1.0796 -1.5139
  581MOL0     H76655  -1.416   4.287  10.490  1.2439 -1.1791  0.7843
  581MOL0     H76656  -1.796   4.591  10.569 -0.9761  0.7798 -1.8446
  581MOL0     H76657  -2.006   4.591  10.692  1.8432 -0.7359  2.8335
  581MOL0     H76658  -2.237   4.187  10.709  1.8626 -0.4012 -3.8080
  581MOL0     H76659  -2.253   4.281  10.564  0.0160 -1.6405 -1.2932
  581MOL0     H76660  -2.466   4.270  10.692  0.0335 -0.5564  0.6929
  581MOL0     H76661  -2.414   4.436  10.679  0.6756  0.5708  0.3487
  581MOL0     H76662  -2.309   4.415  10.909 -0.4016  0.6429  0.6572
  581MOL0     H76663  -2.369   4.248  10.918  0.5957  2.3483  3.5286
  581MOL0     H76664  -2.547   4.488  10.910 -2.9470 -0.5866  0.2746
  581MOL0     H76665  -2.597   4.320  10.884 -0.0993  0.5410 -0.8553
  581MOL0     H76666  -2.616   4.409  11.125 -0.0848  0.3900 -1.2195
  581MOL0     H76667  -2.433   4.420  11.121 -0.0998  4.3735 -3.4402
  581MOL0     H76668  -2.409   4.190  11.152  0.0303 -2.2860 -2.3548
  581MOL0     H76669  -2.567   4.153  11.075 -1.5601  0.0781  1.8612
  581MOL0     H76670  -2.587   4.301  11.334 -1.5036  0.3751 -0.4345
  581MOL0     H76671  -2.702   4.212  11.243 -0.5232  1.2272 -0.5295
  581MOL0     H76672  -2.453   4.111  11.375 -0.2490  1.1689 -2.7735
  581MOL0     H76673  -2.568   3.996  11.299 -2.3542  0.0879  0.3170
  581MOL0     H76674  -2.040   4.166  10.626 -2.5301  1.5902 -0.2525
  581MOL0     H76675  -1.804   4.171  10.530 -2.7073 -1.5990 -2.2198
  581MOL0     H76676  -1.529   4.485  10.121  0.5866  2.8489  0.9388
  581MOL0     H76677  -1.308   4.409  10.027 -1.3637 -3.8376 -1.0661
  581MOL0     H76678   0.356   4.706  10.111 -0.8920  2.3456  0.4426
  581MOL0     H76679   0.494   4.861  10.210 -1.7333  0.3496 -1.5986
  581MOL0     H76680   0.681   5.118  10.495 -1.1719 -0.6198  0.8399
  581MOL0     H76681   0.787   5.285  10.661 -2.0809 -0.2766  1.6385
  581MOL0     H76682   1.152   5.154  10.829 -1.8265 -1.7602 -1.3123
  581MOL0     H76683   1.062   5.148  10.976  0.7420 -1.8902 -1.8983
  581MOL0     H76684   1.190   5.401  10.875 -0.9704 -1.5774 -1.2293
  581MOL0     H76685   1.075   5.402  11.014 -0.8019 -1.9080  1.2765
  581MOL0     H76686   1.225   5.199  11.087  1.5421 -1.8624 -2.4517
  581MOL0     H76687   1.264   5.365  11.135  2.0980 -0.9070  1.6641
  581MOL0     H76688   1.455   5.222  11.063  2.0030 -2.5740 -3.4807
  581MOL0     H76689   1.394   5.208  10.907  1.7231  2.6899 -2.6931
  581MOL0     H76690   1.527   5.604  10.871  1.1220 -0.0793 -2.1774
  581MOL0     H76691   0.985   4.958  10.864  2.9289  0.9560 -1.1934
  581MOL0     H76692   0.896   4.803  10.707  0.8130 -1.0841  0.5172
  582MOL0     O76693   2.814   4.681  10.501  0.2460  0.3119 -0.4560
  582MOL0     C76694   2.802   4.634  10.615  0.5585 -0.0118 -0.0822
  582MOL0     O76695   2.684   4.574  10.667  0.0092  0.2671  0.5819
  582MOL0     C76696   2.586   4.570  10.563  0.3560 -0.9629  0.0235
  582MOL0     C76697   2.504   4.675  10.520 -0.5253 -0.8041 -0.2728
  582MOL0     C76698   2.394   4.664  10.441  0.8903 -0.1781 -0.4830
  582MOL0     C76699   2.372   4.538  10.382 -0.0596  0.3616 -0.2762
  582MOL0     O76700   2.277   4.507  10.290 -0.2146  0.5278  0.4032
  582MOL0     C76701   2.226   4.615  10.211  0.0797  0.7133  0.3854
  582MOL0     C76702   2.089   4.574  10.160  0.5686 -0.1573  0.8969
  582MOL0     C76703   2.033   4.655  10.041 -0.1717  0.0296 -0.3274
  582MOL0     C76704   1.886   4.670  10.046  0.3500  0.9197 -0.2278
  582MOL0     C76705   1.832   4.730   9.916 -0.5540  0.9450 -0.3785
  582MOL0     C76706   1.677   4.725   9.928  0.2562 -0.4858 -0.2769
  582MOL0     C76707   1.618   4.749   9.791 -0.1750  0.4448  0.0596
  582MOL0     C76708   1.470   4.737   9.781  0.0891  0.3151 -0.2104
  582MOL0     N76709   1.428   4.752   9.648 -0.4414 -0.2246 -0.5021
  582MOL0     C76710   1.398   4.869   9.587 -0.3192 -0.9612 -0.2418
  582MOL0     C76711   1.354   4.833   9.468 -0.1864  0.3429  0.5165
  582MOL0     C76712   1.311   4.918   9.356  0.5077  0.2342  0.2844
  582MOL0     C76713   1.197   5.014   9.386 -0.5595 -0.0278 -0.2585
  582MOL0     C76714   1.071   4.930   9.413  0.1536  0.4640 -1.0576
  582MOL0     C76715   0.949   5.019   9.453 -0.6695  0.4240  0.2976
  582MOL0     O76716   0.855   4.919   9.509  0.6089  0.0796 -0.0190
  582MOL0     C76717   0.730   4.969   9.546 -0.9846 -0.2618 -0.0483
  582MOL0     C76718   0.624   4.914   9.475 -0.5593  0.1366 -0.0450
  582MOL0     C76719   0.491   4.961   9.498 -0.4284  0.6086  0.4609
  582MOL0     C76720   0.479   5.082   9.567  0.3642  0.0877  0.3448
  582MOL0     C76721   0.344   5.146   9.581 -0.1854 -0.2217  0.8621
  582MOL0     O76722   0.339   5.266   9.636 -0.4696 -0.0439 -0.7831
  582MOL0     C76723   0.219   5.326   9.656  0.1522 -0.5156  0.0757
  582MOL0     C76724   0.112   5.272   9.727 -0.3471  0.1473 -0.7829
  582MOL0     C76725  -0.013   5.329   9.728  0.3475 -0.8131  0.1714
  582MOL0     C76726  -0.030   5.452   9.652 -0.1226 -0.0039 -0.0464
  582MOL0     O76727  -0.147   5.514   9.626  0.6827  0.5934 -0.9153
  582MOL0     C76728  -0.271   5.464   9.694 -0.8689 -0.0357  1.1698
  582MOL0     C76729  -0.379   5.534   9.620 -0.7202 -0.0035 -0.1925
  582MOL0     C76730  -0.515   5.479   9.652 -0.0593  0.1718 -0.3051
  582MOL0     C76731  -0.628   5.553   9.574  1.1398 -0.9507  0.3626
  582MOL0     C76732  -0.759   5.509   9.620  0.3562 -0.7050 -0.8073
  582MOL0     C76733  -0.793   5.562   9.761 -0.5123  0.6403 -0.7280
  582MOL0     C76734  -0.940   5.513   9.802  0.1247 -0.7549 -0.6212
  582MOL0     C76735  -1.054   5.600   9.750  0.2195 -0.1491  0.5598
  582MOL0    Cl76736  -1.210   5.564   9.811  0.3330 -0.1523  0.5543
  582MOL0     C76737   0.067   5.500   9.574 -0.0562 -0.3916 -0.5880
  582MOL0     C76738   0.195   5.447   9.589  1.8742 -0.0206 -0.1258
  582MOL0     O76739   0.249   5.092   9.529  1.2382 -0.0680 -0.7967
  582MOL0     C76740   0.590   5.137   9.643 -0.1415 -0.3812  0.0995
  582MOL0     C76741   0.709   5.068   9.638 -1.4005  0.3372 -0.0468
  582MOL0     N76742   1.353   4.688   9.462 -0.2374 -0.0445 -0.0458
  582MOL0     N76743   1.396   4.648   9.569 -0.3748 -0.4541 -0.1804
  582MOL0     C76744   2.456   4.435  10.407  0.3746  0.3728 -0.7789
  582MOL0     C76745   2.557   4.451  10.501 -0.5925 -0.5149 -0.3374
  582MOL0     C76746   2.910   4.656  10.705 -0.5415  0.1627 -0.3912
  582MOL0     C76747   2.906   4.620  10.838 -0.3730  0.4282 -0.0960
  582MOL0     C76748   3.024   4.628  10.922 -0.0733 -0.3854  0.0177
  582MOL0     C76749   3.145   4.677  10.875  0.2361  0.2819 -0.3348
  582MOL0     O76750   3.241   4.700  10.967  0.2495 -1.0872  0.6664
  582MOL0     C76751   3.363   4.647  10.939 -0.1423 -0.2499 -0.4732
  582MOL0     C76752   3.459   4.765  10.976  0.0675 -0.7342  0.1886
  582MOL0     C76753   3.602   4.753  10.926  0.2110 -0.1676  0.3611
  582MOL0     C76754   3.682   4.863  11.002  0.2422 -0.2617 -0.1794
  582MOL0     C76755   3.830   4.866  10.966  0.3253 -0.8207 -0.2776
  582MOL0     C76756   3.948   4.883  10.934  0.8382  0.8113 -0.4108
  582MOL0     C76757   3.140   4.738  10.741  0.3451 -0.1231 -0.7460
  582MOL0     C76758   3.020   4.719  10.665 -0.3575  0.3405  0.4703
  582MOL0     H76759   2.496   4.772  10.568  0.1817  0.8012 -3.1407
  582MOL0     H76760   2.333   4.754  10.442  1.2025  0.0295  0.2773
  582MOL0     H76761   2.290   4.633  10.125 -1.7920 -0.8831 -1.4548
  582MOL0     H76762   2.200   4.707  10.265 -0.7402 -0.3550  1.9134
  582MOL0     H76763   2.014   4.574  10.240  0.9041 -3.5448  1.3712
  582MOL0     H76764   2.092   4.468  10.132 -2.4805  0.4829 -2.7053
  582MOL0     H76765   2.063   4.607   9.948 -0.1193 -0.1329 -0.2274
  582MOL0     H76766   2.076   4.755  10.049  0.4840 -0.4006  3.2375
  582MOL0     H76767   1.846   4.570  10.065 -3.3638  2.3751  0.4251
  582MOL0     H76768   1.853   4.735  10.128 -1.8750  1.5185 -1.5118
  582MOL0     H76769   1.856   4.658   9.838  2.6064  1.1328  0.3011
  582MOL0     H76770   1.874   4.827   9.889 -0.1342  1.4546  1.8818
  582MOL0     H76771   1.635   4.801   9.995 -0.4983  1.9687 -3.2946
  582MOL0     H76772   1.643   4.628   9.965 -0.4712 -0.3764 -0.6218
  582MOL0     H76773   1.653   4.846   9.755  1.7675  0.1975  1.1425
  582MOL0     H76774   1.664   4.682   9.718  1.6720  2.9837 -1.2831
  582MOL0     H76775   1.426   4.812   9.847  1.2675  0.5352  0.3500
  582MOL0     H76776   1.447   4.639   9.824  1.3594 -0.6678 -1.6474
  582MOL0     H76777   1.425   4.964   9.631  4.6835 -1.1060 -2.3306
  582MOL0     H76778   1.284   4.850   9.276 -0.7186 -0.6968  1.4440
  582MOL0     H76779   1.387   4.985   9.314  0.5974 -0.2567 -0.3358
  582MOL0     H76780   1.175   5.074   9.298 -2.3010 -0.6902 -0.3138
  582MOL0     H76781   1.236   5.075   9.468  0.1703 -0.5386 -0.2117
  582MOL0     H76782   1.051   4.856   9.336  2.8728 -1.2704 -0.2382
  582MOL0     H76783   1.096   4.865   9.497  0.9395  1.4131 -0.5256
  582MOL0     H76784   0.903   5.066   9.366  1.0838  0.7682 -0.4830
  582MOL0     H76785   0.971   5.096   9.528 -0.4779  0.7576 -0.1014
  582MOL0     H76786   0.660   4.828   9.419  2.3753  1.2901 -0.1527
  582MOL0     H76787   0.405   4.926   9.443 -0.3348  2.0395 -0.6667
  582MOL0     H76788   0.127   5.178   9.779  2.1880  1.1283  0.4632
  582MOL0     H76789  -0.101   5.278   9.765 -2.9417  2.1560 -2.7686
  582MOL0     H76790  -0.262   5.506   9.795  0.2855  0.6096  0.8257
  582MOL0     H76791  -0.286   5.356   9.695  1.3206 -0.4550 -0.9465
  582MOL0     H76792  -0.370   5.527   9.512 -1.6378  0.3456 -0.3050
  582MOL0     H76793  -0.371   5.642   9.635  2.6086  0.2876 -2.9720
  582MOL0     H76794  -0.529   5.487   9.760 -0.5038  0.3215 -0.3731
  582MOL0     H76795  -0.515   5.372   9.629  0.6217 -0.3474  1.8482
  582MOL0     H76796  -0.616   5.661   9.589 -0.5505 -0.6954  0.0162
  582MOL0     H76797  -0.627   5.545   9.465 -1.7683  1.7231 -0.0022
  582MOL0     H76798  -0.776   5.401   9.618 -2.7799 -0.3030 -0.7685
  582MOL0     H76799  -0.829   5.548   9.546  1.5484 -2.0417 -2.7393
  582MOL0     H76800  -0.790   5.671   9.766  1.0161  0.5819  3.1624
  582MOL0     H76801  -0.719   5.517   9.829 -1.1398 -0.8104 -0.9644
  582MOL0     H76802  -0.952   5.411   9.766 -0.0773 -0.7216 -0.6507
  582MOL0     H76803  -0.949   5.512   9.912  1.7543 -0.6948 -0.4664
  582MOL0     H76804  -1.057   5.573   9.644 -1.3901 -1.3884  0.8722
  582MOL0     H76805  -1.031   5.707   9.754  0.7959 -0.3204  2.3671
  582MOL0     H76806   0.040   5.589   9.518  0.0962 -1.0923 -1.8049
  582MOL0     H76807   0.285   5.484   9.540 -0.4892  0.9634 -4.1383
  582MOL0     H76808   0.578   5.224   9.706  1.0651 -1.8393  2.4691
  582MOL0     H76809   0.793   5.119   9.683 -1.0188  1.7904 -2.2542
  582MOL0     H76810   2.433   4.338  10.365  2.1329 -1.1731  1.5668
  582MOL0     H76811   2.609   4.360  10.529  0.4590  0.1461 -0.1048
  582MOL0     H76812   2.823   4.562  10.877  1.4044 -2.5156 -0.3335
  582MOL0     H76813   3.006   4.592  11.022 -3.2612  1.6582  0.3352
  582MOL0     H76814   3.380   4.644  10.831 -2.8001  1.7567 -1.0493
  582MOL0     H76815   3.370   4.554  10.996  0.2169 -0.8999 -1.5433
  582MOL0     H76816   3.409   4.857  10.944 -3.6604 -2.0773  1.5821
  582MOL0     H76817   3.457   4.767  11.086 -1.8320  2.9279  0.2311
  582MOL0     H76818   3.611   4.780  10.820 -0.2512  4.2906  1.2461
  582MOL0     H76819   3.642   4.652  10.938  1.5022  0.4357  1.3905
  582MOL0     H76820   3.633   4.957  10.976 -0.8635 -1.0638 -1.1010
  582MOL0     H76821   3.683   4.841  11.109 -2.6020 -2.3020 -0.4708
  582MOL0     H76822   4.052   4.893  10.911  1.2337 -2.5592 -0.5246
  582MOL0     H76823   3.229   4.791  10.708 -0.3511  0.2349 -2.1279
  582MOL0     H76824   3.034   4.751  10.563 -0.3495 -0.5218  0.1914
  583MOL0     O76825   9.733   1.814  10.383 -0.2221  0.8391 -0.3887
  583MOL0     C76826   9.732   1.812  10.264 -0.7060  0.2782  0.0610
  583MOL0     O76827   9.623   1.807  10.185 -0.2652 -0.3673 -0.4338
  583MOL0     C76828   9.504   1.830  10.251  0.4102 -0.2812  0.4564
  583MOL0     C76829   9.410   1.725  10.272  0.2689 -0.8996  0.7117
  583MOL0     C76830   9.282   1.767  10.317  0.1636  1.0343 -0.9127
  583MOL0     C76831   9.253   1.899  10.343 -0.2385  0.5072 -1.2332
  583MOL0     O76832   9.122   1.936  10.370 -0.0179 -0.6421 -0.0510
  583MOL0     C76833   9.076   2.043  10.288  0.1252  0.0269  0.3488
  583MOL0     C76834   8.921   2.032  10.312  0.5274 -0.0673 -0.5631
  583MOL0     C76835   8.841   2.153  10.275  0.0726 -0.6691  0.3211
  583MOL0     C76836   8.692   2.118  10.237  0.7763 -0.3096  0.5507
  583MOL0     C76837   8.622   2.259  10.243  0.2042 -0.1746  0.7960
  583MOL0     C76838   8.475   2.272  10.208  0.0007  0.6599 -0.7058
  583MOL0     C76839   8.391   2.179  10.305  0.2739 -0.1932  0.6083
  583MOL0     C76840   8.244   2.209  10.273  0.0757 -0.4481  0.1013
  583MOL0     N76841   8.156   2.116  10.349 -0.3523  0.0409  0.6274
  583MOL0     C76842   8.036   2.065  10.310 -0.4345  0.0981  0.2076
  583MOL0     C76843   8.002   1.978  10.402  0.0379 -1.0259 -0.4559
  583MOL0     C76844   7.880   1.887  10.402  0.3464 -0.4352 -0.2867
  583MOL0     C76845   7.865   1.818  10.267 -0.9654 -0.4928 -0.3236
  583MOL0     C76846   7.820   1.669  10.270  0.3187  0.1260 -0.0361
  583MOL0     C76847   7.668   1.658  10.291  0.0729  1.2438  0.3781
  583MOL0     O76848   7.617   1.707  10.166 -0.2626 -0.3699 -0.0268
  583MOL0     C76849   7.486   1.733  10.144  0.5153  0.8566 -0.9435
  583MOL0     C76850   7.385   1.723  10.239 -1.3552 -0.0221  0.1686
  583MOL0     C76851   7.259   1.759  10.214 -0.8818 -0.0097  0.3411
  583MOL0     C76852   7.218   1.810  10.090  0.1539 -0.4962  0.5010
  583MOL0     C76853   7.078   1.846  10.078  0.7221  1.5106  0.4469
  583MOL0     O76854   7.006   1.849  10.193  0.0660 -0.2165 -0.6944
  583MOL0     C76855   6.870   1.883  10.191 -0.0991  0.1429 -0.1340
  583MOL0     C76856   6.819   1.962  10.291  0.0408 -0.4759  0.0795
  583MOL0     C76857   6.682   1.991  10.299 -1.0132 -0.0264 -0.4026
  583MOL0     C76858   6.601   1.967  10.194 -0.1816 -0.5549 -0.2474
  583MOL0     O76859   6.471   2.019  10.202  0.4195  0.0858  0.1087
  583MOL0     C76860   6.400   2.037  10.069 -0.1929  1.1581 -0.3710
  583MOL0     C76861   6.268   2.120  10.080 -0.2749 -0.5853  0.0794
  583MOL0     C76862   6.280   2.263  10.118 -0.4324 -0.7062 -0.0570
  583MOL0     C76863   6.148   2.326  10.164  1.1476 -0.1774 -0.1921
  583MOL0     C76864   6.166   2.485  10.166  0.1278  0.0646  0.4576
  583MOL0     C76865   6.159   2.543  10.020 -1.0984 -0.1326 -0.5069
  583MOL0     C76866   6.193   2.696  10.018  1.2352  0.9042 -0.4555
  583MOL0     C76867   6.077   2.784  10.050  0.4457 -0.6562 -0.2088
  583MOL0    Cl76868   5.926   2.714   9.975 -0.1605  0.0774 -0.3887
  583MOL0     C76869   6.647   1.899  10.082  0.3720  0.9565 -0.7439
  583MOL0     C76870   6.778   1.853  10.086 -0.3204  0.8076  0.1630
  583MOL0     O76871   7.033   1.875   9.967 -0.3440  0.5493 -0.1360
  583MOL0     C76872   7.317   1.827   9.989 -0.1842  0.1965  0.2552
  583MOL0     C76873   7.453   1.785  10.017 -0.2267 -0.9135  0.4844
  583MOL0     N76874   8.100   1.972  10.501  0.0920  0.5473  0.0169
  583MOL0     N76875   8.181   2.057  10.469 -1.0251 -0.3828 -0.3187
  583MOL0     C76876   9.357   1.987  10.339 -0.5225  0.1091 -0.5931
  583MOL0     C76877   9.481   1.955  10.291 -0.1122 -0.0257 -0.6840
  583MOL0     C76878   9.875   1.784  10.199 -0.6146  0.2831 -0.1438
  583MOL0     C76879   9.999   1.825  10.255 -0.5525  0.3186 -0.0883
  583MOL0     C76880  10.114   1.797  10.182 -0.3067  1.0317 -1.0036
  583MOL0     C76881  10.126   1.730  10.059  0.3255  0.4632 -0.0802
  583MOL0     O76882  10.255   1.721  10.018 -0.5345  0.0437  0.4716
  583MOL0     C76883  10.284   1.598   9.939  0.6314  0.0387 -0.4864
  583MOL0     C76884  10.430   1.567   9.934 -0.2717  0.2074 -0.5003
  583MOL0     C76885  10.502   1.578  10.069 -0.8071  0.4774  0.1746
  583MOL0     C76886  10.645   1.514  10.077  0.8114  0.0339 -1.3556
  583MOL0     C76887  10.728   1.625  10.026  0.1183 -0.6757 -0.5532
  583MOL0     C76888  10.812   1.707   9.990  0.4805 -0.6328  0.3814
  583MOL0     C76889  10.007   1.680  10.006  0.1382 -0.0721  0.3376
  583MOL0     C76890   9.882   1.714  10.072 -0.0605 -0.2339 -0.9188
  583MOL0     H76891   9.433   1.621  10.251 -0.1844 -0.7188 -0.8604
  583MOL0     H76892   9.208   1.688  10.327 -0.0956  1.2234 -1.2961
  583MOL0     H76893   9.103   2.042  10.182 -1.3181  0.3027 -0.0534
  583MOL0     H76894   9.104   2.140  10.330  1.1125 -0.2449  0.3450
  583MOL0     H76895   8.915   2.018  10.421  1.8425  0.4535 -0.3982
  583MOL0     H76896   8.873   1.948  10.262 -0.8800 -1.0233  2.1772
  583MOL0     H76897   8.878   2.199  10.183  0.0473 -1.4187 -0.0780
  583MOL0     H76898   8.845   2.239  10.343  0.3985  2.2343 -3.0901
  583MOL0     H76899   8.666   2.064  10.145 -0.6717  1.2208  0.0071
  583MOL0     H76900   8.659   2.053  10.318 -0.9946  1.6369  1.4903
  583MOL0     H76901   8.685   2.323  10.181 -1.6622  1.1142  0.1326
  583MOL0     H76902   8.633   2.290  10.348  2.1803 -0.2443  0.6430
  583MOL0     H76903   8.465   2.224  10.110  3.6374  2.3997 -2.1294
  583MOL0     H76904   8.455   2.379  10.197  1.6683  0.8326 -2.5920
  583MOL0     H76905   8.420   2.075  10.288  0.0868 -0.7033  2.9933
  583MOL0     H76906   8.417   2.204  10.408 -0.2566 -0.0157  0.7042
  583MOL0     H76907   8.228   2.206  10.165  3.4019  3.1529 -0.6767
  583MOL0     H76908   8.224   2.312  10.303 -1.3501 -0.8476  0.6097
  583MOL0     H76909   7.982   2.092  10.219 -1.3460  1.4342  1.0987
  583MOL0     H76910   7.786   1.933  10.435  0.2768 -0.9732  0.2895
  583MOL0     H76911   7.896   1.810  10.478 -1.9413  1.1269  1.9838
  583MOL0     H76912   7.965   1.813  10.222 -0.5899  1.1511  0.2611
  583MOL0     H76913   7.796   1.874  10.203  0.4838  1.8972  0.0984
  583MOL0     H76914   7.843   1.629  10.171 -2.2884  1.1164 -1.1431
  583MOL0     H76915   7.882   1.619  10.344  3.0776 -0.6672 -2.6849
  583MOL0     H76916   7.625   1.708  10.378  1.1697  0.0966  1.6316
  583MOL0     H76917   7.641   1.552  10.297 -0.7580  1.3440 -1.0698
  583MOL0     H76918   7.408   1.677  10.335  1.5720  2.7418  0.9839
  583MOL0     H76919   7.191   1.737  10.295  0.8904 -2.6346  1.2501
  583MOL0     H76920   6.883   1.994  10.373 -2.3640 -0.6023  2.1490
  583MOL0     H76921   6.648   2.036  10.392 -1.3493 -0.4001 -0.3459
  583MOL0     H76922   6.374   1.937  10.033 -0.2443  1.7319 -2.0178
  583MOL0     H76923   6.474   2.085  10.003 -0.3969  2.9869  0.6564
  583MOL0     H76924   6.196   2.070  10.145 -1.7382  0.4363 -0.6928
  583MOL0     H76925   6.233   2.114   9.976 -1.0229 -0.8356  0.3425
  583MOL0     H76926   6.320   2.310  10.028 -0.6509  0.0763  0.2509
  583MOL0     H76927   6.349   2.274  10.201 -0.3010  0.9000 -0.3527
  583MOL0     H76928   6.070   2.305  10.089 -0.2444 -0.2322  1.2212
  583MOL0     H76929   6.119   2.286  10.261  3.9626  0.4629  0.9944
  583MOL0     H76930   6.259   2.503  10.222 -1.5812  1.0765  3.1976
  583MOL0     H76931   6.080   2.524  10.222 -2.5865 -1.3600 -2.3844
  583MOL0     H76932   6.070   2.514   9.964  0.4720 -2.0244 -2.2003
  583MOL0     H76933   6.242   2.509   9.957 -1.0203 -1.1138  0.1022
  583MOL0     H76934   6.277   2.730  10.080  1.7352 -1.9577  0.5843
  583MOL0     H76935   6.218   2.714   9.913 -0.2031 -2.4739 -1.5107
  583MOL0     H76936   6.110   2.883  10.017 -1.5209  0.2017  0.2694
  583MOL0     H76937   6.060   2.801  10.157  2.2830  0.2850 -0.0120
  583MOL0     H76938   6.594   1.872   9.991 -1.7840 -5.0066  1.8027
  583MOL0     H76939   6.806   1.790  10.002 -0.2191  3.8684 -2.2588
  583MOL0     H76940   7.279   1.848   9.890  0.8170  0.5474 -0.0673
  583MOL0     H76941   7.531   1.783   9.942  0.4019  0.3898  1.0681
  583MOL0     H76942   9.346   2.084  10.387 -2.0314 -0.9934  1.3861
  583MOL0     H76943   9.550   2.036  10.274 -1.2794  1.2850  0.5629
  583MOL0     H76944  10.015   1.890  10.341  3.1216  3.4351 -2.7994
  583MOL0     H76945  10.204   1.839  10.227  0.4067 -2.4754  1.3324
  583MOL0     H76946  10.239   1.611   9.840 -1.1440  0.4459  0.3504
  583MOL0     H76947  10.243   1.511   9.989  3.1630 -0.9884 -0.0292
  583MOL0     H76948  10.444   1.469   9.887 -0.2220 -0.1304  0.1996
  583MOL0     H76949  10.478   1.644   9.874 -0.8072  2.0109  1.2711
  583MOL0     H76950  10.440   1.535  10.148 -0.8520  1.1676  0.5270
  583MOL0     H76951  10.517   1.681  10.104  3.2049 -0.0713  0.4781
  583MOL0     H76952  10.678   1.480  10.176 -0.7879 -1.1686 -1.1951
  583MOL0     H76953  10.656   1.425  10.014 -0.1158 -0.1542 -1.2620
  583MOL0     H76954  10.884   1.783   9.967 -0.7268 -0.2112 -2.4521
  583MOL0     H76955  10.004   1.611   9.922  1.2443 -1.6697  1.5462
  583MOL0     H76956   9.790   1.689  10.021 -0.5421 -4.5027  1.4713
  584MOL0     O76957   2.597   2.226   8.115  0.4872 -0.1965  0.0314
  584MOL0     C76958   2.631   2.339   8.072  0.3397 -0.6933 -0.3600
  584MOL0     O76959   2.755   2.409   8.087 -0.4028  0.2552 -0.4123
  584MOL0     C76960   2.860   2.331   8.137 -0.7789  0.1582 -0.2050
  584MOL0     C76961   2.952   2.397   8.225 -0.0460  0.2893  0.7050
  584MOL0     C76962   3.073   2.332   8.267 -0.1169  0.1689  0.2129
  584MOL0     C76963   3.110   2.220   8.199 -0.7122  0.3941  0.2182
  584MOL0     O76964   3.236   2.165   8.232  0.0188 -0.0343 -0.1867
  584MOL0     C76965   3.329   2.120   8.135  0.0096 -0.0137 -0.2972
  584MOL0     C76966   3.443   2.052   8.224 -0.6916  0.5016  0.3071
  584MOL0     C76967   3.558   2.015   8.130 -1.1183 -0.9434  0.3517
  584MOL0     C76968   3.674   2.113   8.123  0.6770 -0.1523 -1.0732
  584MOL0     C76969   3.637   2.253   8.087 -0.1352  0.4887  0.6549
  584MOL0     C76970   3.767   2.321   8.056  0.2089 -0.1797  0.5519
  584MOL0     C76971   3.756   2.465   8.012 -0.6972 -0.3692 -0.6541
  584MOL0     C76972   3.899   2.538   8.001  0.0561  0.3500  0.8015
  584MOL0     N76973   3.963   2.545   8.131 -0.8569 -0.4181  0.4801
  584MOL0     C76974   3.895   2.606   8.231 -0.0484 -0.0445  0.1404
  584MOL0     C76975   3.991   2.650   8.315 -0.5083  0.2480 -0.3986
  584MOL0     C76976   3.979   2.739   8.439  0.0629  1.1594 -0.2970
  584MOL0     C76977   3.849   2.729   8.521  0.5558 -0.0596  0.3767
  584MOL0     C76978   3.854   2.832   8.628  0.1960 -0.1101 -0.7321
  584MOL0     C76979   3.709   2.829   8.695 -1.1087 -0.1416  0.5049
  584MOL0     O76980   3.608   2.891   8.614 -0.0530  0.5753 -0.7442
  584MOL0     C76981   3.509   2.944   8.689  0.1758  0.3051 -0.6155
  584MOL0     C76982   3.526   3.063   8.768 -0.2305 -0.9480  0.6277
  584MOL0     C76983   3.422   3.111   8.844 -0.2984 -0.3100 -0.6797
  584MOL0     C76984   3.292   3.055   8.827  0.0599  0.2126  0.3006
  584MOL0     C76985   3.172   3.107   8.898  0.4396 -0.2280 -0.2656
  584MOL0     O76986   3.046   3.064   8.846 -0.3181  0.7892  0.2098
  584MOL0     C76987   2.927   3.125   8.880  0.7795  0.0898 -0.6407
  584MOL0     C76988   2.808   3.076   8.820  0.8206 -0.1236 -0.6747
  584MOL0     C76989   2.678   3.131   8.852  0.7704  0.9271 -0.5533
  584MOL0     C76990   2.666   3.227   8.959 -0.0175  0.8076 -0.0573
  584MOL0     O76991   2.542   3.276   8.983 -0.1063 -0.9019 -0.3777
  584MOL0     C76992   2.502   3.303   9.119 -0.3868 -0.0819  0.3969
  584MOL0     C76993   2.345   3.311   9.136  0.8489 -0.8502  0.2293
  584MOL0     C76994   2.274   3.442   9.086  0.4103  1.0125  0.9090
  584MOL0     C76995   2.162   3.409   8.984  0.5613  0.5166  0.1220
  584MOL0     C76996   2.105   3.535   8.925  0.3413 -0.2309  0.0466
  584MOL0     C76997   2.171   3.549   8.787 -0.6721  0.6684  0.0920
  584MOL0     C76998   2.096   3.666   8.712  0.3891  0.6092  0.3239
  584MOL0     C76999   2.170   3.715   8.587 -0.5616  0.1268  0.9108
  584MOL0    Cl77000   2.212   3.574   8.489  0.1053 -0.5348 -0.2659
  584MOL0     C77001   2.779   3.283   9.013 -0.5467 -0.2543  0.5831
  584MOL0     C77002   2.910   3.235   8.976 -0.4709  0.1662 -0.3004
  584MOL0     O77003   3.197   3.184   8.983 -0.4642  0.0391  0.4233
  584MOL0     C77004   3.271   2.954   8.737 -0.5260  1.4494 -0.6665
  584MOL0     C77005   3.379   2.899   8.671 -0.9397 -0.2724 -0.7484
  584MOL0     N77006   4.120   2.622   8.262 -0.2308 -0.1082 -1.2213
  584MOL0     N77007   4.098   2.560   8.150  0.1766 -0.5426 -0.0791
  584MOL0     C77008   3.025   2.153   8.107 -1.4559  0.0060 -0.1333
  584MOL0     C77009   2.905   2.211   8.073 -0.3028  0.2094  0.8137
  584MOL0     C77010   2.524   2.422   8.012 -1.2633 -0.5366 -0.3765
  584MOL0     C77011   2.389   2.389   8.026  0.5990 -0.6548  0.1826
  584MOL0     C77012   2.288   2.462   7.971  0.2953  0.1076 -0.2215
  584MOL0     C77013   2.322   2.562   7.881  0.6652  0.2794 -0.4591
  584MOL0     O77014   2.225   2.634   7.818  0.0310  0.1373 -0.8712
  584MOL0     C77015   2.135   2.714   7.891 -0.0170 -0.1639 -0.8609
  584MOL0     C77016   2.058   2.798   7.793  0.1264 -0.3233 -1.3149
  584MOL0     C77017   1.937   2.860   7.858  1.0377 -0.5530 -0.0525
  584MOL0     C77018   1.912   2.993   7.786  0.1517  0.8785 -0.6065
  584MOL0     C77019   1.798   3.064   7.823  0.9018 -0.3618 -0.2130
  584MOL0     C77020   1.722   3.149   7.871 -0.8843 -0.6353  0.2016
  584MOL0     C77021   2.457   2.605   7.870  0.1078  0.6653 -0.0169
  584MOL0     C77022   2.557   2.532   7.931  0.2570 -1.0818 -0.2614
  584MOL0     H77023   2.897   2.482   8.262 -2.4898 -0.9924  0.2323
  584MOL0     H77024   3.127   2.394   8.338 -4.0619  3.6956  0.5393
  584MOL0     H77025   3.368   2.206   8.080 -0.9501  1.5926  1.4021
  584MOL0     H77026   3.289   2.059   8.054  1.9770  0.2229 -1.5385
  584MOL0     H77027   3.416   1.960   8.277 -0.9984 -0.2218 -1.0750
  584MOL0     H77028   3.474   2.126   8.298  0.8669 -0.5582  0.7487
  584MOL0     H77029   3.520   2.012   8.027  0.0128 -1.8882 -0.0625
  584MOL0     H77030   3.603   1.919   8.157  0.8675 -0.7749 -2.0530
  584MOL0     H77031   3.720   2.133   8.220 -0.1677  1.3169 -0.9549
  584MOL0     H77032   3.758   2.080   8.061  2.3276  0.4324  0.7551
  584MOL0     H77033   3.578   2.302   8.165 -2.5016 -3.5884  1.6690
  584MOL0     H77034   3.570   2.252   8.001 -1.8124  6.1353  1.4376
  584MOL0     H77035   3.813   2.264   7.974  0.3743 -2.8174  2.3595
  584MOL0     H77036   3.839   2.304   8.136  0.8114  2.3469  0.6130
  584MOL0     H77037   3.720   2.455   7.909  1.8636 -2.9658 -1.4390
  584MOL0     H77038   3.685   2.520   8.073 -1.5571 -3.1758  1.0604
  584MOL0     H77039   3.885   2.640   7.965  0.4227 -0.3730 -1.5338
  584MOL0     H77040   3.958   2.479   7.930 -1.7718  0.6894 -1.1057
  584MOL0     H77041   3.790   2.636   8.234 -0.0023  0.0400  1.3823
  584MOL0     H77042   3.990   2.840   8.399  0.1551  1.5958  0.7720
  584MOL0     H77043   4.063   2.725   8.509 -0.0340  4.2605  0.5678
  584MOL0     H77044   3.825   2.630   8.561  0.3642 -0.7877 -1.4319
  584MOL0     H77045   3.765   2.757   8.458 -0.1290 -2.0646  0.3360
  584MOL0     H77046   3.923   2.797   8.706 -0.7115 -0.8049 -0.2175
  584MOL0     H77047   3.869   2.937   8.601 -0.0668 -0.1419 -1.0074
  584MOL0     H77048   3.718   2.867   8.798 -3.4164 -0.5581  0.9235
  584MOL0     H77049   3.677   2.725   8.704 -1.7710  0.0636  0.5844
  584MOL0     H77050   3.616   3.122   8.775 -0.4000 -0.8598  2.6238
  584MOL0     H77051   3.435   3.197   8.909 -3.0015 -0.0480 -0.3584
  584MOL0     H77052   2.824   2.999   8.745 -0.5406 -1.3118  0.1925
  584MOL0     H77053   2.592   3.100   8.793  2.1674 -2.6926 -0.9207
  584MOL0     H77054   2.557   3.387   9.164 -1.6946 -0.6481  3.3500
  584MOL0     H77055   2.537   3.220   9.181  2.5374 -0.6419 -1.7989
  584MOL0     H77056   2.320   3.300   9.242  3.2127  1.8495  1.1813
  584MOL0     H77057   2.319   3.230   9.066 -1.5657 -0.2664  0.3900
  584MOL0     H77058   2.353   3.504   9.041 -0.4101  0.0987 -1.9611
  584MOL0     H77059   2.239   3.501   9.172  0.6984  3.4935 -0.5802
  584MOL0     H77060   2.214   3.362   8.900  0.1238  1.1186 -0.4918
  584MOL0     H77061   2.085   3.341   9.022 -0.1032  0.9819 -0.3809
  584MOL0     H77062   2.124   3.625   8.984 -3.6005  0.4089  0.5583
  584MOL0     H77063   1.996   3.534   8.918  0.3567  0.1397 -0.2844
  584MOL0     H77064   2.162   3.460   8.724  2.0033 -0.3441  1.0027
  584MOL0     H77065   2.277   3.574   8.796 -0.4490 -0.1221 -0.2817
  584MOL0     H77066   1.995   3.631   8.687 -0.8484  1.3076  3.7480
  584MOL0     H77067   2.082   3.748   8.783  3.8117 -0.3630  2.3536
  584MOL0     H77068   2.246   3.780   8.631 -1.0348 -0.0425  2.0417
  584MOL0     H77069   2.100   3.782   8.537 -0.6787  0.0479  0.9671
  584MOL0     H77070   2.783   3.377   9.067 -0.3287  0.1462 -0.1141
  584MOL0     H77071   2.994   3.288   9.018  0.1662 -0.2128 -1.0724
  584MOL0     H77072   3.173   2.912   8.714  0.0671  0.3076 -1.2020
  584MOL0     H77073   3.365   2.816   8.603 -0.3125 -2.0655  1.1987
  584MOL0     H77074   3.062   2.062   8.060 -1.3452 -0.1640  0.2833
  584MOL0     H77075   2.831   2.156   8.016  0.3328 -0.5667  0.7280
  584MOL0     H77076   2.362   2.304   8.089 -2.6215  0.1074 -0.0082
  584MOL0     H77077   2.182   2.438   7.975  0.1344  0.7674 -0.3624
  584MOL0     H77078   2.189   2.776   7.963 -0.2604  0.1983 -0.9893
  584MOL0     H77079   2.065   2.642   7.934  3.9130 -3.4227  0.8156
  584MOL0     H77080   2.128   2.873   7.754 -1.4524  1.8988 -0.0829
  584MOL0     H77081   2.028   2.725   7.718  0.5187 -0.2041 -1.5932
  584MOL0     H77082   1.974   2.880   7.959  0.8208 -0.5597  0.0300
  584MOL0     H77083   1.843   2.804   7.849  0.7006 -0.2443  1.2556
  584MOL0     H77084   1.993   3.064   7.805 -0.1832  0.8895  0.8605
  584MOL0     H77085   1.895   2.966   7.681  0.9486  0.1095 -0.5507
  584MOL0     H77086   1.666   3.221   7.927  1.2468  0.0181  1.5834
  584MOL0     H77087   2.474   2.691   7.806 -0.9518  1.4590  0.7314
  584MOL0     H77088   2.662   2.554   7.913  0.2370 -1.5538 -1.0011
  585MOL0     O77089   4.605   9.248   1.973  0.2756  0.0394 -0.2262
  585MOL0     C77090   4.731   9.264   1.988 -0.5751 -0.7195  0.0529
  585MOL0     O77091   4.797   9.315   2.090 -0.5473  0.6301 -0.5656
  585MOL0     C77092   4.714   9.347   2.200  0.7588 -0.8840  0.4461
  585MOL0     C77093   4.672   9.479   2.203 -0.8970  0.4530 -0.3065
  585MOL0     C77094   4.590   9.528   2.294  0.6260 -0.1108  0.2756
  585MOL0     C77095   4.541   9.449   2.393 -0.5072  0.5796  0.5894
  585MOL0     O77096   4.458   9.501   2.484  0.5733  0.9739  0.7712
  585MOL0     C77097   4.502   9.631   2.537 -0.0428 -0.2298 -0.0498
  585MOL0     C77098   4.385   9.679   2.628  0.8799  0.2495 -0.4828
  585MOL0     C77099   4.375   9.610   2.768 -0.4746 -0.5323  0.2558
  585MOL0     C77100   4.278   9.695   2.841 -0.0513  0.4382  0.2884
  585MOL0     C77101   4.352   9.809   2.913  0.0092  0.3115  0.2590
  585MOL0     C77102   4.279   9.941   2.914 -0.0716 -0.9087 -0.2439
  585MOL0     C77103   4.134   9.930   2.974  0.3482 -0.1171 -0.2450
  585MOL0     C77104   4.069  10.070   3.008 -1.3052 -0.2813 -0.1608
  585MOL0     N77105   3.952  10.069   3.097 -0.8039 -0.6491 -0.7338
  585MOL0     C77106   3.942   9.991   3.209  0.4396 -0.1284 -0.2847
  585MOL0     C77107   3.811  10.021   3.253  0.1358 -0.6886 -0.1008
  585MOL0     C77108   3.757   9.947   3.366 -0.2032 -0.0530 -0.0474
  585MOL0     C77109   3.638  10.022   3.428 -0.4717  0.7349  0.2667
  585MOL0     C77110   3.584   9.955   3.559  0.2187  0.0099  0.3071
  585MOL0     C77111   3.469  10.039   3.612  0.3187 -0.9745  0.1748
  585MOL0     O77112   3.412   9.958   3.717 -0.2661 -0.4490  0.1473
  585MOL0     C77113   3.284   9.981   3.764 -0.1424 -0.1751 -0.4471
  585MOL0     C77114   3.240   9.876   3.849  0.2406  0.3651  0.4496
  585MOL0     C77115   3.116   9.886   3.909 -0.7470  0.5436 -0.2302
  585MOL0     C77116   3.037   9.998   3.886 -0.0360 -0.7040 -0.5073
  585MOL0     C77117   2.901  10.009   3.936  0.3308  0.5419  0.0346
  585MOL0     O77118   2.848   9.906   3.996 -0.1696  0.3571 -0.0104
  585MOL0     C77119   2.727   9.915   4.048  0.3510 -0.9538 -0.5308
  585MOL0     C77120   2.708   9.955   4.175  0.0450  0.8912 -0.4979
  585MOL0     C77121   2.570   9.937   4.224  0.3214  0.1565  0.0232
  585MOL0     C77122   2.470   9.892   4.137  0.4345 -0.2270  0.0170
  585MOL0     O77123   2.346   9.880   4.189 -0.3508 -0.5375  1.3257
  585MOL0     C77124   2.224   9.881   4.101  0.6971 -1.2080 -0.6176
  585MOL0     C77125   2.115   9.930   4.189 -0.6515 -0.0264  0.0055
  585MOL0     C77126   1.977   9.859   4.171 -0.0974 -0.4644  0.6139
  585MOL0     C77127   1.886   9.932   4.274  0.0257  0.7298 -0.3793
  585MOL0     C77128   1.740   9.918   4.220 -1.0944  0.1091  0.3080
  585MOL0     C77129   1.629   9.980   4.304 -0.1623  0.1289  0.0813
  585MOL0     C77130   1.499   9.978   4.220 -0.2724  0.0341 -0.2565
  585MOL0     C77131   1.377  10.010   4.305 -0.2247 -0.3484 -0.2798
  585MOL0    Cl77132   1.242  10.029   4.201  0.1725  0.1212 -0.2339
  585MOL0     C77133   2.501   9.857   4.004 -0.3224 -0.4336 -0.1132
  585MOL0     C77134   2.629   9.865   3.963 -0.5198 -1.1835  1.2015
  585MOL0     O77135   2.836  10.118   3.923 -0.4712 -0.8606  0.2567
  585MOL0     C77136   3.076  10.094   3.792  0.5509 -0.8339  0.2002
  585MOL0     C77137   3.210  10.096   3.738  0.2057  0.7304  0.2181
  585MOL0     N77138   3.749  10.114   3.160 -1.3507  0.5224 -0.3896
  585MOL0     N77139   3.838  10.128   3.067  0.0943 -0.9776 -0.7677
  585MOL0     C77140   4.587   9.322   2.403  0.1921 -0.4130 -0.5776
  585MOL0     C77141   4.679   9.274   2.311 -0.6801 -0.3971  1.1347
  585MOL0     C77142   4.818   9.226   1.877 -0.4505 -0.0907 -0.7139
  585MOL0     C77143   4.759   9.189   1.748 -0.5912  0.0274  0.3992
  585MOL0     C77144   4.841   9.120   1.651  0.8461  0.7104 -0.0621
  585MOL0     C77145   4.976   9.114   1.676  0.4469 -0.1724  0.2506
  585MOL0     O77146   5.040   9.044   1.578  0.0673  0.0278  1.1633
  585MOL0     C77147   5.181   9.033   1.554  0.9888  0.3861  0.5821
  585MOL0     C77148   5.206   8.952   1.432 -0.1995 -0.1471 -0.0880
  585MOL0     C77149   5.162   9.032   1.307 -0.3872  0.3902 -0.2917
  585MOL0     C77150   5.227   8.954   1.188  0.2426  0.2848 -0.8286
  585MOL0     C77151   5.143   8.967   1.071 -0.8215 -0.6584  0.0410
  585MOL0     C77152   5.085   8.974   0.966 -0.5242  0.4263 -0.0974
  585MOL0     C77153   5.038   9.159   1.790 -0.3397 -0.3934 -0.0018
  585MOL0     C77154   4.958   9.210   1.891  0.0786 -0.0230 -0.9579
  585MOL0     H77155   4.701   9.551   2.127  0.4826 -0.6537 -0.8801
  585MOL0     H77156   4.556   9.630   2.282 -2.6277 -0.6901  2.9990
  585MOL0     H77157   4.507   9.717   2.469 -2.7972  1.0555  1.1945
  585MOL0     H77158   4.590   9.614   2.599 -0.5445 -0.2864  0.6637
  585MOL0     H77159   4.285   9.679   2.583 -0.0447  0.3829  1.4616
  585MOL0     H77160   4.403   9.786   2.641  1.0854  0.2167 -0.4887
  585MOL0     H77161   4.470   9.598   2.822 -0.1174  2.8578  0.5667
  585MOL0     H77162   4.341   9.506   2.756  1.6722 -1.2219 -0.3010
  585MOL0     H77163   4.201   9.725   2.769  0.0277  0.1148  0.0651
  585MOL0     H77164   4.235   9.634   2.922  0.7955  0.0526  0.4577
  585MOL0     H77165   4.447   9.826   2.862 -0.3303  0.7236 -0.2590
  585MOL0     H77166   4.375   9.779   3.015  2.3757  0.9950 -0.0247
  585MOL0     H77167   4.274   9.992   2.818  1.2834  0.7779  0.5306
  585MOL0     H77168   4.331  10.016   2.974 -2.4175  1.4448 -0.9548
  585MOL0     H77169   4.066   9.887   2.899 -3.0487  0.2755  2.3340
  585MOL0     H77170   4.137   9.873   3.067 -0.3644  3.7778  2.3972
  585MOL0     H77171   4.049  10.132   2.920  3.3384  1.3015 -0.4205
  585MOL0     H77172   4.150  10.133   3.049 -0.3672 -0.8181 -1.1564
  585MOL0     H77173   4.003   9.915   3.256 -0.4271  0.8526  2.6481
  585MOL0     H77174   3.829   9.923   3.445  0.1611  0.5961 -0.1776
  585MOL0     H77175   3.714   9.855   3.327 -0.5742  0.0691  0.0774
  585MOL0     H77176   3.561  10.025   3.351  2.3085  1.2794 -2.7459
  585MOL0     H77177   3.674  10.125   3.432  4.5197 -0.6210 -1.9288
  585MOL0     H77178   3.547   9.855   3.534  0.2929  0.0501  0.0374
  585MOL0     H77179   3.666   9.951   3.631  1.2058  0.4184 -0.7680
  585MOL0     H77180   3.396  10.060   3.533 -1.2465  0.1911  1.8542
  585MOL0     H77181   3.507  10.138   3.637 -0.1411 -0.0513 -2.4491
  585MOL0     H77182   3.303   9.790   3.863  0.1139 -0.4212 -2.9865
  585MOL0     H77183   3.081   9.806   3.973 -0.1440  1.5573  1.4416
  585MOL0     H77184   2.789   9.991   4.238  0.6874 -1.6451  0.2576
  585MOL0     H77185   2.549   9.956   4.329 -1.2499 -1.8325  0.1175
  585MOL0     H77186   2.205   9.781   4.061 -2.7310 -0.9947  0.1936
  585MOL0     H77187   2.216   9.949   4.016 -0.2300 -4.6522 -3.5204
  585MOL0     H77188   2.127  10.038   4.177  2.9022 -0.2845  0.1017
  585MOL0     H77189   2.135   9.905   4.294 -4.2293 -2.6808  0.2494
  585MOL0     H77190   1.984   9.752   4.191 -2.1011 -1.2422 -2.1068
  585MOL0     H77191   1.945   9.870   4.066 -1.8781  2.9085  1.3676
  585MOL0     H77192   1.891   9.885   4.373  0.0817 -2.0400 -1.5948
  585MOL0     H77193   1.912  10.037   4.291 -1.5760  1.0557  0.2007
  585MOL0     H77194   1.713   9.814   4.203 -1.4986  0.1630  0.5834
  585MOL0     H77195   1.746   9.955   4.118  0.8732 -2.5822 -0.6355
  585MOL0     H77196   1.649  10.086   4.321  0.6794  0.1504 -0.9536
  585MOL0     H77197   1.620   9.942   4.406  2.2720 -1.8496 -0.3323
  585MOL0     H77198   1.504  10.053   4.141  0.5275  0.9848  0.6632
  585MOL0     H77199   1.483   9.875   4.188  2.1025 -0.8109  0.9893
  585MOL0     H77200   1.387  10.106   4.357 -0.5887 -0.7928  0.6324
  585MOL0     H77201   1.364   9.938   4.386 -0.2334 -2.1064 -1.7881
  585MOL0     H77202   2.428   9.814   3.937 -1.5256 -0.6726  1.3025
  585MOL0     H77203   2.663   9.838   3.863  1.0965 -0.2196  1.4592
  585MOL0     H77204   3.022  10.181   3.758  3.4154  1.9948  2.2345
  585MOL0     H77205   3.242  10.180   3.678  0.3133  0.7343  0.2808
  585MOL0     H77206   4.562   9.259   2.488  0.8057  0.7087  0.4659
  585MOL0     H77207   4.701   9.169   2.328 -1.9891 -0.7908  0.5387
  585MOL0     H77208   4.661   9.212   1.709  1.0357  2.4654 -2.7251
  585MOL0     H77209   4.789   9.099   1.559  1.9292  1.1592 -0.7949
  585MOL0     H77210   5.225   8.982   1.641  0.8224 -2.5749 -0.9398
  585MOL0     H77211   5.230   9.131   1.546  1.3313  0.1616 -0.1280
  585MOL0     H77212   5.312   8.924   1.423  0.3589  0.4464  3.3674
  585MOL0     H77213   5.152   8.859   1.448 -0.7629  0.0819 -0.6270
  585MOL0     H77214   5.207   9.130   1.286 -1.4115  0.1984 -4.3735
  585MOL0     H77215   5.054   9.033   1.290 -0.4622 -1.2660 -0.0587
  585MOL0     H77216   5.326   8.996   1.171  1.9545 -3.1400 -0.0242
  585MOL0     H77217   5.234   8.850   1.220  0.6445  0.8666  1.1308
  585MOL0     H77218   5.030   8.991   0.876 -1.4114  2.8245  0.8071
  585MOL0     H77219   5.145   9.171   1.801 -0.3562 -0.8506  0.6540
  585MOL0     H77220   5.008   9.255   1.976  0.7817 -1.4377 -0.5926
  586MOL0     O77221   3.412  10.684   5.119 -0.5552  0.4438  0.1285
  586MOL0     C77222   3.437  10.727   5.231  0.0960 -0.0004  0.2203
  586MOL0     O77223   3.344  10.767   5.328  1.0883 -0.8272 -0.1493
  586MOL0     C77224   3.215  10.719   5.313  0.1543 -0.2775 -0.4582
  586MOL0     C77225   3.186  10.582   5.341 -0.1753  0.1636 -0.3677
  586MOL0     C77226   3.054  10.542   5.355 -0.5594 -0.3946  0.4691
  586MOL0     C77227   2.945  10.630   5.328 -0.1418  0.2996 -0.6861
  586MOL0     O77228   2.823  10.580   5.342  0.4970 -0.3414  0.0447
  586MOL0     C77229   2.713  10.669   5.387  0.0373  0.9379 -0.1815
  586MOL0     C77230   2.587  10.588   5.405 -0.2159  0.4016 -1.2339
  586MOL0     C77231   2.470  10.680   5.438  0.3276 -0.6574 -0.8588
  586MOL0     C77232   2.351  10.609   5.508  0.0513 -0.2480  0.0286
  586MOL0     C77233   2.252  10.717   5.545  0.2526 -0.3260  0.0097
  586MOL0     C77234   2.137  10.656   5.638 -0.3714  0.0877  0.1709
  586MOL0     C77235   2.015  10.596   5.575 -0.3038 -0.5418 -0.5020
  586MOL0     C77236   1.895  10.607   5.671 -0.3416 -0.1967  0.0020
  586MOL0     N77237   1.776  10.560   5.619 -0.5492  0.3984  0.0450
  586MOL0     C77238   1.677  10.489   5.692  0.7233  0.4884  0.8451
  586MOL0     C77239   1.583  10.461   5.597  0.3542  0.2492  0.3454
  586MOL0     C77240   1.452  10.386   5.614  0.1032 -0.8282 -0.1780
  586MOL0     C77241   1.406  10.316   5.489 -0.6208 -0.4219  0.3754
  586MOL0     C77242   1.279  10.240   5.515 -0.4852 -0.5073  0.3446
  586MOL0     C77243   1.270  10.114   5.427 -0.4921 -1.0048 -0.0499
  586MOL0     O77244   1.162  10.027   5.464  0.2961 -0.4600 -1.0834
  586MOL0     C77245   1.040  10.042   5.403 -0.3491 -0.4798  0.8940
  586MOL0     C77246   1.002  10.142   5.308 -0.1540 -0.3765 -0.3510
  586MOL0     C77247   0.881  10.137   5.236  0.1656 -0.0086  0.6612
  586MOL0     C77248   0.784  10.040   5.263  0.1410 -1.1451 -1.0822
  586MOL0     C77249   0.649  10.031   5.205 -0.6073 -1.3487 -0.8112
  586MOL0     O77250   0.605  10.152   5.140 -0.0922  0.0428 -0.8486
  586MOL0     C77251   0.469  10.155   5.105  0.1761  0.4111  1.0547
  586MOL0     C77252   0.441  10.203   4.972 -0.0293  0.4103 -0.4518
  586MOL0     C77253   0.312  10.236   4.933  0.3692 -0.3608  0.4439
  586MOL0     C77254   0.209  10.212   5.026  0.2664 -0.4674  0.1329
  586MOL0     O77255   0.090  10.256   4.965 -0.1324  0.4243 -0.3009
  586MOL0     C77256  -0.016  10.287   5.066 -0.1174  0.1903 -0.5924
  586MOL0     C77257  -0.138  10.355   5.003 -0.5036 -0.5417 -0.1066
  586MOL0     C77258  -0.103  10.491   4.951  0.0361  0.1737 -1.5389
  586MOL0     C77259  -0.227  10.580   4.908  0.7162 -1.0855  0.0845
  586MOL0     C77260  -0.283  10.533   4.776 -0.0046  0.2984  0.6612
  586MOL0     C77261  -0.377  10.636   4.712 -0.8841 -0.2997 -0.0196
  586MOL0     C77262  -0.397  10.627   4.570  0.0837 -0.1795  0.0019
  586MOL0     C77263  -0.481  10.751   4.518  0.2885 -0.2038  0.8486
  586MOL0    Cl77264  -0.426  10.811   4.363  0.4841 -0.1473  0.0925
  586MOL0     C77265   0.237  10.161   5.157 -0.4389  0.1311 -0.0816
  586MOL0     C77266   0.371  10.136   5.196  0.2540  0.7412 -1.0905
  586MOL0     O77267   0.591   9.926   5.219  0.3965  0.1300  0.2550
  586MOL0     C77268   0.818   9.939   5.367  0.0022  0.1516  0.7220
  586MOL0     C77269   0.949   9.944   5.420  0.3628 -0.3442 -1.2314
  586MOL0     N77270   1.616  10.521   5.474  0.5545 -0.6072  0.8896
  586MOL0     N77271   1.729  10.588   5.493 -0.0333  1.1772  0.0229
  586MOL0     C77272   2.969  10.758   5.283  0.1369  0.2302 -0.0843
  586MOL0     C77273   3.102  10.799   5.276  0.6863  0.0731 -0.5109
  586MOL0     C77274   3.577  10.751   5.276  0.2502  0.6549  0.2945
  586MOL0     C77275   3.618  10.735   5.412 -0.2769  0.1206  0.7432
  586MOL0     C77276   3.747  10.764   5.447 -0.0763  0.3310 -0.4247
  586MOL0     C77277   3.845  10.808   5.353 -0.1866  0.5780 -0.3919
  586MOL0     O77278   3.966  10.843   5.399 -0.5533 -0.6243 -0.2604
  586MOL0     C77279   4.056  10.915   5.306  0.2691  0.0363 -0.7041
  586MOL0     C77280   4.162  10.985   5.388 -0.9577  0.3528  0.5736
  586MOL0     C77281   4.263  10.887   5.458 -0.5217 -0.9136  0.0822
  586MOL0     C77282   4.403  10.945   5.487  0.1595  0.1208  0.2751
  586MOL0     C77283   4.491  10.853   5.556 -0.4855 -0.0737 -0.4949
  586MOL0     C77284   4.560  10.775   5.625  0.3407  0.1549  0.7692
  586MOL0     C77285   3.811  10.798   5.222  0.0711  0.1689  0.0364
  586MOL0     C77286   3.682  10.776   5.176 -0.7625  0.3779  0.2801
  586MOL0     H77287   3.260  10.513   5.380  0.8828  2.0419  1.1419
  586MOL0     H77288   3.043  10.439   5.387 -2.1988 -0.4225 -0.0825
  586MOL0     H77289   2.697  10.737   5.303  1.0055  1.2310 -0.1433
  586MOL0     H77290   2.743  10.721   5.478  2.3354 -1.2724  0.4419
  586MOL0     H77291   2.589  10.510   5.481  0.0691  0.4307 -1.2138
  586MOL0     H77292   2.557  10.539   5.311 -0.1893  0.2555 -1.1668
  586MOL0     H77293   2.441  10.734   5.348  0.0675  0.9899  0.1567
  586MOL0     H77294   2.503  10.758   5.508 -0.7958 -0.0171 -1.0129
  586MOL0     H77295   2.311  10.557   5.420  1.3853  0.9797 -1.3605
  586MOL0     H77296   2.383  10.554   5.597  0.5964  2.0138  1.3033
  586MOL0     H77297   2.213  10.771   5.458 -1.2993 -2.1935 -0.5159
  586MOL0     H77298   2.300  10.786   5.615 -0.7662 -0.5187  0.9170
  586MOL0     H77299   2.099  10.735   5.704 -0.7439 -0.2787  0.3948
  586MOL0     H77300   2.200  10.589   5.696  4.6778  2.3032 -2.0585
  586MOL0     H77301   1.991  10.638   5.477  0.6655  0.0650 -0.4919
  586MOL0     H77302   2.051  10.495   5.553  4.3199  0.8806 -0.5043
  586MOL0     H77303   1.872  10.707   5.708 -0.4562 -0.7184  1.3734
  586MOL0     H77304   1.926  10.561   5.765 -0.1458  0.2945  0.1829
  586MOL0     H77305   1.672  10.474   5.799  1.1181  0.7344  0.8997
  586MOL0     H77306   1.387  10.470   5.640  2.7792  1.3767 -0.2539
  586MOL0     H77307   1.457  10.322   5.703  1.3265  2.9451  2.7667
  586MOL0     H77308   1.483  10.247   5.452 -0.9147  0.1603 -1.4323
  586MOL0     H77309   1.386  10.391   5.412 -0.3637 -0.9633 -0.2250
  586MOL0     H77310   1.282  10.216   5.622 -0.3723  2.4232  1.0839
  586MOL0     H77311   1.194  10.307   5.495  0.6739  1.2038  0.9692
  586MOL0     H77312   1.359  10.051   5.431 -2.2495 -3.5437  2.4493
  586MOL0     H77313   1.263  10.147   5.323 -1.7587  0.3703  0.4244
  586MOL0     H77314   1.074  10.221   5.284  0.6720 -1.7693 -2.8594
  586MOL0     H77315   0.851  10.217   5.170 -2.2718 -0.9091  0.5790
  586MOL0     H77316   0.530  10.213   4.911  0.5187 -3.4755 -0.5216
  586MOL0     H77317   0.294  10.260   4.829 -0.0042 -1.8500  0.1427
  586MOL0     H77318   0.021  10.342   5.153  2.5292 -0.9479 -0.9066
  586MOL0     H77319  -0.054  10.199   5.118 -1.6349  0.9714 -0.3300
  586MOL0     H77320  -0.217  10.366   5.077  0.3408 -1.8331  1.0417
  586MOL0     H77321  -0.166  10.290   4.920 -3.2505 -0.2266  0.4838
  586MOL0     H77322  -0.030  10.477   4.871  1.6510  2.1527 -0.4747
  586MOL0     H77323  -0.065  10.548   5.036 -1.8024 -0.2640 -0.3568
  586MOL0     H77324  -0.302  10.574   4.988  2.5755 -0.8649  1.9156
  586MOL0     H77325  -0.204  10.686   4.894  1.0595 -1.2552 -0.6850
  586MOL0     H77326  -0.333  10.436   4.787 -0.6048  0.3922 -1.0286
  586MOL0     H77327  -0.198  10.532   4.707 -2.5752 -1.7137 -2.7931
  586MOL0     H77328  -0.349  10.738   4.740 -0.3160  0.4568 -3.0883
  586MOL0     H77329  -0.471  10.614   4.765 -0.2565  1.2944  1.8836
  586MOL0     H77330  -0.303  10.618   4.513 -0.5953 -0.6929 -1.0673
  586MOL0     H77331  -0.445  10.534   4.538  0.0337  1.2482 -4.9371
  586MOL0     H77332  -0.474  10.835   4.586  2.3211  1.1031 -0.8489
  586MOL0     H77333  -0.586  10.722   4.504 -0.6222  2.2960  2.0600
  586MOL0     H77334   0.147  10.136   5.213 -0.9720 -0.8333 -1.3278
  586MOL0     H77335   0.394  10.094   5.293 -3.6732  2.0389  0.5918
  586MOL0     H77336   0.770   9.847   5.398  1.6978  0.1124  3.6821
  586MOL0     H77337   0.977   9.858   5.479 -1.3186 -0.7450 -0.9612
  586MOL0     H77338   2.883  10.819   5.258 -0.3020 -1.0199 -1.8018
  586MOL0     H77339   3.126  10.900   5.243  0.3886  0.0836 -0.6949
  586MOL0     H77340   3.543  10.703   5.483 -0.2543 -0.7012  0.4089
  586MOL0     H77341   3.774  10.757   5.552  1.7854  0.8942 -0.8301
  586MOL0     H77342   3.999  10.989   5.249 -0.8409  0.2945  0.6859
  586MOL0     H77343   4.099  10.842   5.237  1.6223 -0.6780  0.8383
  586MOL0     H77344   4.221  11.039   5.313 -1.5113  0.9331  0.5435
  586MOL0     H77345   4.125  11.070   5.447 -0.8725 -0.3635  1.6770
  586MOL0     H77346   4.275  10.800   5.392  1.6787 -1.8698  1.6493
  586MOL0     H77347   4.220  10.854   5.553  0.3444 -0.3620  0.6777
  586MOL0     H77348   4.446  10.986   5.395 -0.2193  2.0280  0.9012
  586MOL0     H77349   4.403  11.029   5.557  1.7025  0.6227 -0.3005
  586MOL0     H77350   4.626  10.710   5.678 -0.9811 -0.7348  1.3745
  586MOL0     H77351   3.889  10.823   5.151  0.2001  1.5954  0.6624
  586MOL0     H77352   3.662  10.764   5.069 -2.4786  0.9275  0.5145
  587MOL0     O77353   7.090   2.862   1.681 -0.3960 -0.5114 -0.5865
  587MOL0     C77354   7.181   2.933   1.726 -0.4176 -0.1037  0.0169
  587MOL0     O77355   7.166   3.049   1.796 -0.2332 -0.1102 -0.0331
  587MOL0     C77356   7.039   3.106   1.807 -0.9485  1.4660  0.5449
  587MOL0     C77357   6.936   3.110   1.710 -0.5194  0.0399 -0.9070
  587MOL0     C77358   6.817   3.175   1.739 -0.4775  0.3329 -1.0828
  587MOL0     C77359   6.795   3.227   1.871 -0.6356 -0.3278 -0.2843
  587MOL0     O77360   6.680   3.285   1.909  0.2291  0.4113  0.5116
  587MOL0     C77361   6.588   3.330   1.812  0.6488  0.2331 -1.2772
  587MOL0     C77362   6.467   3.404   1.878 -0.9326  0.6244 -0.5328
  587MOL0     C77363   6.386   3.502   1.793 -0.9704 -0.0388  0.8136
  587MOL0     C77364   6.327   3.429   1.672  0.0651 -0.1215 -1.1627
  587MOL0     C77365   6.220   3.514   1.611 -0.1409 -0.2095  0.5860
  587MOL0     C77366   6.283   3.632   1.529 -0.7170  0.9404 -0.4570
  587MOL0     C77367   6.196   3.749   1.495  0.3514 -0.2663 -0.3555
  587MOL0     C77368   6.261   3.852   1.402  0.3070  0.4913  1.4347
  587MOL0     N77369   6.291   3.797   1.267 -0.4970  0.6258 -0.6490
  587MOL0     C77370   6.195   3.777   1.180 -0.1347  0.9830 -0.2500
  587MOL0     C77371   6.251   3.701   1.082  0.6590 -0.6127  0.2011
  587MOL0     C77372   6.178   3.647   0.961 -0.3610 -0.1928 -0.4194
  587MOL0     C77373   6.229   3.728   0.836  0.5150  0.1829 -0.5640
  587MOL0     C77374   6.188   3.873   0.814  0.1804 -0.4956  0.2156
  587MOL0     C77375   6.264   3.954   0.713  0.0636  0.2284 -0.0891
  587MOL0     O77376   6.283   3.873   0.595 -0.7706  0.1427 -0.3174
  587MOL0     C77377   6.173   3.869   0.501 -0.0959  0.7589  0.0803
  587MOL0     C77378   6.037   3.922   0.524 -0.5670 -0.7641 -0.6197
  587MOL0     C77379   5.941   3.905   0.423 -0.4945 -0.2135 -0.6897
  587MOL0     C77380   5.964   3.849   0.298  0.4211 -0.2440 -0.1371
  587MOL0     C77381   5.860   3.824   0.195  0.3977 -0.0865 -0.4860
  587MOL0     O77382   5.884   3.743   0.080  0.1593 -0.1636 -0.8597
  587MOL0     C77383   5.770   3.707   0.015 -0.3432 -0.2030 -0.4375
  587MOL0     C77384   5.762   3.777  -0.110 -0.3519  0.4752 -0.3769
  587MOL0     C77385   5.663   3.745  -0.202  0.4235  0.1232  0.1762
  587MOL0     C77386   5.571   3.644  -0.169 -0.0707  0.2909  1.3641
  587MOL0     O77387   5.465   3.618  -0.258 -0.0046 -0.1839  0.5657
  587MOL0     C77388   5.513   3.610  -0.394 -0.4877  0.1767  0.8004
  587MOL0     C77389   5.433   3.710  -0.487 -0.2219 -0.6489  0.0426
  587MOL0     C77390   5.479   3.728  -0.630 -0.0565  0.6216  0.5131
  587MOL0     C77391   5.449   3.869  -0.673 -0.6804  0.4873  0.0975
  587MOL0     C77392   5.500   3.906  -0.809 -0.1715  0.4935 -0.2147
  587MOL0     C77393   5.442   4.036  -0.877 -1.0525  0.5130 -0.8843
  587MOL0     C77394   5.539   4.089  -0.973 -0.7551  1.0288 -0.2783
  587MOL0     C77395   5.489   4.236  -0.996  0.1848 -0.4778  0.0685
  587MOL0    Cl77396   5.556   4.303  -1.143  0.5352 -0.1302  0.0181
  587MOL0     C77397   5.575   3.579  -0.047 -0.3716 -0.6668  0.0218
  587MOL0     C77398   5.675   3.606   0.045  1.0100 -0.1744 -0.1344
  587MOL0     O77399   5.750   3.875   0.232 -0.2443  0.6273  0.3562
  587MOL0     C77400   6.092   3.806   0.273 -0.9001  0.0079  0.4366
  587MOL0     C77401   6.195   3.821   0.368 -0.0782  0.4606 -0.3660
  587MOL0     N77402   6.387   3.700   1.099  0.4687 -0.1960 -0.5696
  587MOL0     N77403   6.415   3.751   1.217  0.8136  1.1410 -0.4459
  587MOL0     C77404   6.904   3.233   1.962 -0.5691 -0.2154  0.1678
  587MOL0     C77405   7.018   3.171   1.929  0.9827 -0.5847 -1.1788
  587MOL0     C77406   7.320   2.880   1.727  0.4925  0.1639 -0.4785
  587MOL0     C77407   7.353   2.789   1.627 -0.2398 -0.3436  0.3096
  587MOL0     C77408   7.487   2.754   1.614 -0.6509  0.1209 -0.5054
  587MOL0     C77409   7.580   2.787   1.710 -0.3603 -0.5421 -0.4230
  587MOL0     O77410   7.705   2.741   1.680 -0.4864  0.3883 -0.0556
  587MOL0     C77411   7.809   2.809   1.747 -0.9577  0.4652  0.3436
  587MOL0     C77412   7.951   2.763   1.712 -0.1534  0.1701 -0.0950
  587MOL0     C77413   8.063   2.819   1.794  0.1245 -0.2029  0.2926
  587MOL0     C77414   8.098   2.964   1.753  0.7634 -0.3954 -0.2268
  587MOL0     C77415   8.211   3.007   1.839 -0.0026 -0.4472 -0.7951
  587MOL0     C77416   8.304   3.049   1.905  0.7257 -0.1278 -0.1244
  587MOL0     C77417   7.546   2.865   1.814  0.6330 -0.5525 -0.7161
  587MOL0     C77418   7.414   2.919   1.824 -0.2449  0.3612 -0.7053
  587MOL0     H77419   6.937   3.062   1.613 -1.1810 -1.0685 -0.3894
  587MOL0     H77420   6.739   3.198   1.667 -1.7894  0.6361  0.3876
  587MOL0     H77421   6.545   3.245   1.758  0.4803 -0.0369 -0.7190
  587MOL0     H77422   6.639   3.399   1.743  1.7695  1.1187  0.3712
  587MOL0     H77423   6.497   3.467   1.962  1.6056 -1.2523  0.0908
  587MOL0     H77424   6.400   3.332   1.924 -1.6407  1.6172  0.0360
  587MOL0     H77425   6.456   3.581   1.765 -3.2082  1.0203 -2.2780
  587MOL0     H77426   6.313   3.542   1.865 -2.8612 -1.4210 -0.2442
  587MOL0     H77427   6.405   3.408   1.598  0.0348 -1.5196 -0.8253
  587MOL0     H77428   6.281   3.333   1.698  0.5004 -0.8304 -2.9030
  587MOL0     H77429   6.152   3.563   1.681  1.1912  1.9369  0.4605
  587MOL0     H77430   6.160   3.451   1.545  1.1403 -0.8930  0.0318
  587MOL0     H77431   6.311   3.593   1.431 -3.7817  1.7618 -1.7677
  587MOL0     H77432   6.371   3.663   1.586 -0.2655 -0.6316 -0.2365
  587MOL0     H77433   6.106   3.717   1.442  0.3390 -1.4246  0.3294
  587MOL0     H77434   6.169   3.799   1.589  0.9003 -0.8405  0.1155
  587MOL0     H77435   6.362   3.878   1.434 -0.0355  3.1813  0.5838
  587MOL0     H77436   6.198   3.941   1.395  0.4517  0.6121  1.6620
  587MOL0     H77437   6.089   3.796   1.186 -0.3627  0.2643 -1.7915
  587MOL0     H77438   6.070   3.654   0.972 -0.1099  0.1021  2.7970
  587MOL0     H77439   6.214   3.546   0.942  0.2705  0.4063 -2.6992
  587MOL0     H77440   6.193   3.668   0.752 -1.3707 -2.3331  1.8542
  587MOL0     H77441   6.336   3.714   0.822  0.7314  1.6394 -0.5305
  587MOL0     H77442   6.081   3.877   0.791  0.3459 -0.2670 -0.5320
  587MOL0     H77443   6.204   3.935   0.902  1.3715  2.5796 -2.0065
  587MOL0     H77444   6.362   3.980   0.754 -0.0729  0.6014  0.0099
  587MOL0     H77445   6.221   4.051   0.687  1.9811  1.0796 -0.2482
  587MOL0     H77446   6.016   3.973   0.617 -1.2059  1.0941 -1.7409
  587MOL0     H77447   5.839   3.938   0.439  0.1882  1.8119 -0.1838
  587MOL0     H77448   5.829   3.862  -0.119 -0.7903  1.1759  2.1429
  587MOL0     H77449   5.658   3.806  -0.293  2.3521  0.0763  0.0024
  587MOL0     H77450   5.496   3.510  -0.435  1.9811 -0.3618  0.9349
  587MOL0     H77451   5.622   3.610  -0.402 -0.3776 -1.3737  1.8371
  587MOL0     H77452   5.430   3.806  -0.435  0.6546 -0.7433  0.2890
  587MOL0     H77453   5.329   3.677  -0.489 -1.1260  1.9574 -1.1019
  587MOL0     H77454   5.423   3.662  -0.697  0.0591  1.3120 -0.2751
  587MOL0     H77455   5.586   3.707  -0.646 -0.7572 -1.1611 -2.7107
  587MOL0     H77456   5.341   3.886  -0.669 -0.8890 -0.8925  0.5177
  587MOL0     H77457   5.486   3.940  -0.598 -0.8251  1.7087 -0.9449
  587MOL0     H77458   5.474   3.818  -0.869 -1.4513  0.0065  0.9875
  587MOL0     H77459   5.608   3.918  -0.805 -0.1878  0.5723  0.0618
  587MOL0     H77460   5.438   4.107  -0.795 -2.0111  0.4605 -0.8742
  587MOL0     H77461   5.341   4.016  -0.912 -1.2566 -1.3792  0.6147
  587MOL0     H77462   5.641   4.093  -0.934 -0.5363  0.6950 -0.8019
  587MOL0     H77463   5.539   4.030  -1.065  2.9970  0.5972 -0.1511
  587MOL0     H77464   5.533   4.297  -0.917 -0.1736 -0.6008  0.3644
  587MOL0     H77465   5.381   4.248  -0.990 -0.4354 -4.0682 -1.2487
  587MOL0     H77466   5.493   3.508  -0.041  0.5269 -1.8647 -1.2260
  587MOL0     H77467   5.663   3.558   0.142 -2.2091 -4.6850 -2.4317
  587MOL0     H77468   6.117   3.755   0.180 -0.1909 -0.9357  1.1204
  587MOL0     H77469   6.300   3.801   0.349  0.0783  1.7402 -0.8955
  587MOL0     H77470   6.890   3.280   2.059  0.5474 -1.7155  1.0999
  587MOL0     H77471   7.094   3.161   2.005 -2.0103 -2.7310  1.8336
  587MOL0     H77472   7.274   2.756   1.560 -1.5234  1.5730  0.7784
  587MOL0     H77473   7.515   2.700   1.524 -0.3664 -1.9326  0.7637
  587MOL0     H77474   7.792   2.787   1.853 -0.1204 -0.5906  0.2731
  587MOL0     H77475   7.804   2.916   1.727  0.7384  0.9788  2.3581
  587MOL0     H77476   7.945   2.654   1.711  0.6239  0.1125  0.4733
  587MOL0     H77477   7.972   2.782   1.607  0.1179 -0.0126 -0.0760
  587MOL0     H77478   8.150   2.754   1.785  0.2698  0.2197 -1.6159
  587MOL0     H77479   8.037   2.820   1.901 -3.0237 -1.4987 -0.3754
  587MOL0     H77480   8.141   2.980   1.653  0.4801 -0.0858 -0.3007
  587MOL0     H77481   8.006   3.021   1.766  0.6617 -0.6973  0.4038
  587MOL0     H77482   8.376   3.083   1.977  1.5086 -1.9429  0.0051
  587MOL0     H77483   7.614   2.892   1.894 -0.9845 -0.2670  0.6285
  587MOL0     H77484   7.387   2.979   1.910  0.7437  2.4195 -1.7619
  588MOL0     O77485  10.101   3.145   6.343 -0.7913 -0.1433  0.9801
  588MOL0     C77486  10.138   3.035   6.300 -0.1034 -0.5795  0.9762
  588MOL0     O77487  10.060   2.942   6.228 -0.6602 -0.6038 -0.5829
  588MOL0     C77488   9.932   2.955   6.207 -0.3585  1.6342  0.1909
  588MOL0     C77489   9.836   2.886   6.292 -0.0452  0.0370 -0.7793
  588MOL0     C77490   9.703   2.902   6.257  0.1164  0.3683 -0.5673
  588MOL0     C77491   9.653   2.979   6.152  0.2892 -0.4807 -0.3683
  588MOL0     O77492   9.520   2.977   6.125 -0.1943  0.0886  0.5794
  588MOL0     C77493   9.480   3.062   6.027 -0.2729 -0.8359 -0.2252
  588MOL0     C77494   9.333   3.087   6.043  0.0297 -1.2527  0.3294
  588MOL0     C77495   9.281   3.175   5.922 -0.2016  0.1904  0.4354
  588MOL0     C77496   9.123   3.186   5.921  0.1991  0.3709  0.4311
  588MOL0     C77497   9.051   3.226   5.784 -0.4482  0.1592 -0.6592
  588MOL0     C77498   8.906   3.253   5.788 -1.1722 -0.7298  0.9711
  588MOL0     C77499   8.838   3.202   5.652  0.0578 -0.4913  0.1943
  588MOL0     C77500   8.693   3.224   5.656 -0.4448 -0.3754  0.4765
  588MOL0     N77501   8.609   3.150   5.561  0.6036  0.7872  0.3625
  588MOL0     C77502   8.644   3.116   5.436  0.2102  0.8590 -0.0203
  588MOL0     C77503   8.531   3.057   5.389  0.0866  0.5105 -0.0169
  588MOL0     C77504   8.522   3.006   5.244 -0.2733 -0.5111 -0.0304
  588MOL0     C77505   8.513   3.128   5.152 -1.4442 -0.2150 -0.0590
  588MOL0     C77506   8.495   3.082   5.001 -0.5396  0.6666 -0.3965
  588MOL0     C77507   8.359   3.010   4.978  0.1019 -0.1601 -0.1175
  588MOL0     O77508   8.347   2.976   4.841 -0.4002 -0.5509  0.0815
  588MOL0     C77509   8.226   2.927   4.786 -0.6609  0.6332 -0.2887
  588MOL0     C77510   8.225   2.883   4.645 -0.4604 -0.3261 -0.5217
  588MOL0     C77511   8.112   2.828   4.594 -1.1603  1.2361 -0.1197
  588MOL0     C77512   7.995   2.817   4.676 -0.5906 -0.1399 -0.1752
  588MOL0     C77513   7.867   2.759   4.617  0.7309 -0.0375  0.3587
  588MOL0     O77514   7.751   2.770   4.685 -0.2293 -0.4144  0.6259
  588MOL0     C77515   7.645   2.709   4.630  0.1253  0.2397 -0.3809
  588MOL0     C77516   7.545   2.772   4.554  0.8971  0.2256  0.3387
  588MOL0     C77517   7.444   2.692   4.499  0.0606 -1.1489  0.1302
  588MOL0     C77518   7.434   2.554   4.534  0.7139 -0.6370  0.1307
  588MOL0     O77519   7.330   2.467   4.484 -0.3989  0.1838  0.0483
  588MOL0     C77520   7.205   2.464   4.560  0.5136  0.1475  0.5193
  588MOL0     C77521   7.095   2.550   4.496  0.5644  0.1157  0.7696
  588MOL0     C77522   7.058   2.491   4.356  0.8407  0.3424  0.3223
  588MOL0     C77523   6.927   2.563   4.320  0.4281  0.6976 -0.0212
  588MOL0     C77524   6.874   2.493   4.199  0.4087 -1.0407 -0.4900
  588MOL0     C77525   6.748   2.560   4.143 -0.2716  0.1816 -0.3129
  588MOL0     C77526   6.775   2.688   4.059  1.2472  0.0357  1.2266
  588MOL0     C77527   6.671   2.727   3.958  0.8255  0.8060  0.0331
  588MOL0    Cl77528   6.514   2.750   4.044 -0.1482  0.0548 -0.0802
  588MOL0     C77529   7.528   2.505   4.628  0.7890 -0.6262  0.5428
  588MOL0     C77530   7.637   2.577   4.678 -0.5915  0.1361  0.4217
  588MOL0     O77531   7.880   2.721   4.503 -0.9260  0.9130 -0.1915
  588MOL0     C77532   7.991   2.870   4.807  0.4348  0.4927  0.3654
  588MOL0     C77533   8.112   2.920   4.861  0.0546  0.1350  0.0585
  588MOL0     N77534   8.431   3.042   5.491  0.1686  0.7597  0.0982
  588MOL0     N77535   8.478   3.107   5.593 -1.1032 -0.5923  0.0067
  588MOL0     C77536   9.751   3.052   6.083 -0.0730  0.3307  0.3993
  588MOL0     C77537   9.886   3.028   6.107  0.5306 -0.4061  1.3055
  588MOL0     C77538  10.278   2.992   6.302 -0.4298 -0.0487  0.6826
  588MOL0     C77539  10.320   2.885   6.221  0.5715 -0.4779 -0.1634
  588MOL0     C77540  10.452   2.846   6.221 -0.5083  0.4545 -0.2367
  588MOL0     C77541  10.547   2.914   6.302  0.5866 -0.4034  0.4660
  588MOL0     O77542  10.680   2.894   6.291  0.3494  0.1961 -0.0251
  588MOL0     C77543  10.741   2.814   6.392 -0.2568 -0.6108 -0.0653
  588MOL0     C77544  10.881   2.766   6.350  0.2878 -0.1039 -1.0325
  588MOL0     C77545  11.001   2.860   6.392 -0.6025 -0.8534 -0.7198
  588MOL0     C77546  11.131   2.797   6.329 -0.4959 -0.4244  0.6724
  588MOL0     C77547  11.235   2.896   6.302  0.8765 -1.0049 -0.3244
  588MOL0     C77548  11.333   2.973   6.308 -0.1496  0.0873  0.5492
  588MOL0     C77549  10.506   3.013   6.389 -0.8969 -0.0890  0.0939
  588MOL0     C77550  10.375   3.053   6.385  0.2673  0.1588  0.2542
  588MOL0     H77551   9.861   2.822   6.376 -3.1839  1.1486  1.1654
  588MOL0     H77552   9.628   2.842   6.307 -1.1420  2.8869  0.7285
  588MOL0     H77553   9.504   3.016   5.930 -0.5882  0.0600 -0.7390
  588MOL0     H77554   9.532   3.157   6.043 -0.8975 -0.1200 -2.1542
  588MOL0     H77555   9.305   3.150   6.128 -3.6142 -1.6611 -0.4109
  588MOL0     H77556   9.277   2.994   6.045  0.6748 -1.6679 -0.5211
  588MOL0     H77557   9.318   3.126   5.832  3.4356 -2.0477  2.8758
  588MOL0     H77558   9.324   3.275   5.912  1.7998 -0.3916  2.2711
  588MOL0     H77559   9.084   3.088   5.950 -3.7855  1.7018  0.2196
  588MOL0     H77560   9.099   3.254   6.004 -1.1134  1.0187 -0.4505
  588MOL0     H77561   9.080   3.157   5.704 -0.2459  0.4419 -0.8366
  588MOL0     H77562   9.094   3.326   5.769  0.1779  0.2669  1.4802
  588MOL0     H77563   8.891   3.361   5.802  0.2411 -0.7149  2.6518
  588MOL0     H77564   8.864   3.204   5.876 -2.2336 -1.5685  0.0236
  588MOL0     H77565   8.891   3.250   5.570  1.6028  0.4427  1.6816
  588MOL0     H77566   8.840   3.093   5.642  1.6468 -0.5266  0.6095
  588MOL0     H77567   8.684   3.332   5.648  1.8090  0.1023  3.0023
  588MOL0     H77568   8.652   3.189   5.752  0.2611 -1.3452  0.4403
  588MOL0     H77569   8.743   3.140   5.399 -0.1196  0.0837 -1.4956
  588MOL0     H77570   8.433   2.945   5.226 -1.8096  1.9642 -1.3789
  588MOL0     H77571   8.604   2.940   5.216 -0.2927  0.0109 -1.3917
  588MOL0     H77572   8.594   3.201   5.159 -1.9887  0.3599  0.2968
  588MOL0     H77573   8.431   3.192   5.184 -1.7352 -0.9824  0.7795
  588MOL0     H77574   8.482   3.173   4.941 -0.7754  0.8235 -0.1091
  588MOL0     H77575   8.581   3.021   4.973 -0.4480  0.1188  1.0255
  588MOL0     H77576   8.288   3.091   4.998  1.3562  1.1531 -0.7717
  588MOL0     H77577   8.334   2.923   5.038  0.3420 -0.6390 -0.7070
  588MOL0     H77578   8.311   2.887   4.578 -0.1399  1.1301 -0.0584
  588MOL0     H77579   8.111   2.793   4.492 -1.8251 -2.1855  0.9238
  588MOL0     H77580   7.554   2.871   4.510 -2.3931  1.5021  2.1564
  588MOL0     H77581   7.375   2.737   4.428  0.5417  0.5963  0.7156
  588MOL0     H77582   7.216   2.510   4.659 -1.7638  1.8714  0.0669
  588MOL0     H77583   7.176   2.359   4.571 -0.8932  0.6760  2.4244
  588MOL0     H77584   7.123   2.654   4.476  2.2652 -0.6983 -1.5987
  588MOL0     H77585   7.004   2.540   4.555 -1.1388 -1.8627 -1.9251
  588MOL0     H77586   7.036   2.384   4.357  0.9814  0.2937 -0.8707
  588MOL0     H77587   7.138   2.521   4.288 -1.1353  2.8571 -1.0748
  588MOL0     H77588   6.858   2.550   4.404  0.6947 -1.5420 -0.0776
  588MOL0     H77589   6.946   2.670   4.305 -1.0439  0.8316 -1.1126
  588MOL0     H77590   6.853   2.389   4.226  1.2412 -0.8961  0.8261
  588MOL0     H77591   6.956   2.493   4.126  2.9100 -0.5308  2.1211
  588MOL0     H77592   6.687   2.595   4.226 -0.0252  0.4896 -0.2604
  588MOL0     H77593   6.695   2.485   4.085  0.8243 -1.3377  0.5758
  588MOL0     H77594   6.783   2.772   4.129  2.1809  0.8177  0.2238
  588MOL0     H77595   6.871   2.667   4.010  1.3065 -1.0517  1.7858
  588MOL0     H77596   6.655   2.657   3.875 -1.2508  2.2264 -0.8425
  588MOL0     H77597   6.692   2.821   3.905 -1.4295  0.4797 -1.6109
  588MOL0     H77598   7.520   2.403   4.663  3.1457 -1.3999 -0.9396
  588MOL0     H77599   7.719   2.548   4.743 -1.1692  2.7764  2.4556
  588MOL0     H77600   7.903   2.859   4.870 -1.1595 -2.6432 -2.0933
  588MOL0     H77601   8.103   2.944   4.966 -1.1096 -0.7743  0.1993
  588MOL0     H77602   9.732   3.132   6.011  1.8850  2.3486  1.9712
  588MOL0     H77603   9.952   3.084   6.042 -1.5361  1.2386  0.5109
  588MOL0     H77604  10.250   2.835   6.155 -1.5519  1.1909  0.6779
  588MOL0     H77605  10.479   2.763   6.156  0.0925 -1.5799  2.4126
  588MOL0     H77606  10.672   2.734   6.421 -2.2175  0.6543 -1.0298
  588MOL0     H77607  10.755   2.876   6.482  0.2612 -0.9734  0.1053
  588MOL0     H77608  10.899   2.668   6.396 -1.4348  0.0474  0.0679
  588MOL0     H77609  10.885   2.752   6.242  1.3362  1.2170 -1.1895
  588MOL0     H77610  11.011   2.867   6.501  1.7202  2.7018 -1.0064
  588MOL0     H77611  10.979   2.959   6.351 -0.0180 -0.6354 -0.5204
  588MOL0     H77612  11.161   2.710   6.388  0.3903 -0.8877 -0.4323
  588MOL0     H77613  11.110   2.768   6.225 -0.1247  2.1385 -0.1812
  588MOL0     H77614  11.420   3.034   6.312 -0.1467  0.8745 -4.7127
  588MOL0     H77615  10.590   3.062   6.439  0.5050 -1.6857 -0.5882
  588MOL0     H77616  10.346   3.136   6.448  0.0526 -0.0842  0.4753
  589MOL0     O77617   7.058   7.679   1.172  0.3346 -0.3038 -0.2781
  589MOL0     C77618   7.164   7.626   1.202  0.0290  0.7250  0.4662
  589MOL0     O77619   7.188   7.494   1.235  0.7996  0.2536 -0.5985
  589MOL0     C77620   7.082   7.406   1.256 -0.2309  0.5579 -0.3604
  589MOL0     C77621   6.996   7.343   1.160  0.6569  0.6461 -0.6927
  589MOL0     C77622   6.878   7.271   1.202 -0.5634  0.3048  0.8644
  589MOL0     C77623   6.853   7.262   1.334  0.8306  0.1014 -0.1110
  589MOL0     O77624   6.737   7.194   1.379  1.3460 -0.7035 -0.3689
  589MOL0     C77625   6.633   7.188   1.274  1.2427  0.2533 -0.2555
  589MOL0     C77626   6.506   7.134   1.338  0.3380 -0.6089 -1.1187
  589MOL0     C77627   6.491   6.979   1.306 -0.4147 -1.1324 -0.0989
  589MOL0     C77628   6.402   6.909   1.405  0.2934  0.4352  0.0158
  589MOL0     C77629   6.263   6.945   1.361 -0.7219  0.4204 -0.3318
  589MOL0     C77630   6.150   6.898   1.452 -0.0793  0.5250 -0.1633
  589MOL0     C77631   6.009   6.918   1.394  0.3945  0.1756  1.5263
  589MOL0     C77632   5.956   6.781   1.334  0.0008 -0.1669  0.3302
  589MOL0     N77633   5.915   6.674   1.424 -1.0438 -0.5827  0.2621
  589MOL0     C77634   6.002   6.573   1.471  0.7812  0.1677 -0.5714
  589MOL0     C77635   5.920   6.482   1.529  0.3962  0.2611  0.9180
  589MOL0     C77636   5.972   6.356   1.583  0.3308  0.0917 -0.7613
  589MOL0     C77637   5.957   6.239   1.486 -0.4217  0.0762  0.0955
  589MOL0     C77638   6.073   6.221   1.382 -0.1262 -0.2317  0.1838
  589MOL0     C77639   6.203   6.175   1.455 -0.6143  0.6672 -0.1368
  589MOL0     O77640   6.303   6.142   1.356 -0.4413 -0.1114 -0.5565
  589MOL0     C77641   6.436   6.129   1.403 -0.1487  0.2331  0.3435
  589MOL0     C77642   6.519   6.061   1.313  0.5255 -0.3468 -0.0227
  589MOL0     C77643   6.650   6.021   1.348  0.7409 -0.2160  0.6073
  589MOL0     C77644   6.705   6.057   1.471 -0.1323 -0.5639  0.2327
  589MOL0     C77645   6.842   6.037   1.510  0.2010 -0.4879  0.2772
  589MOL0     O77646   6.907   6.113   1.604  0.7578 -0.6925  0.1630
  589MOL0     C77647   7.044   6.112   1.617 -0.0222 -0.7358  0.0220
  589MOL0     C77648   7.090   6.222   1.682 -0.3426 -0.4707 -0.4831
  589MOL0     C77649   7.230   6.234   1.708  0.3833 -0.9421  0.8177
  589MOL0     C77650   7.327   6.138   1.669  0.1555  0.2441 -0.5996
  589MOL0     O77651   7.461   6.172   1.687  0.5770 -0.6639  0.2048
  589MOL0     C77652   7.559   6.068   1.702 -0.7089 -0.3040 -0.1527
  589MOL0     C77653   7.691   6.119   1.731 -0.2912  0.0920  0.0861
  589MOL0     C77654   7.714   6.193   1.860  0.9030  0.6712  0.2697
  589MOL0     C77655   7.712   6.102   1.979 -0.4529  0.3842 -0.0584
  589MOL0     C77656   7.745   6.182   2.107 -0.4214 -0.1469  0.2222
  589MOL0     C77657   7.760   6.097   2.226 -0.8653 -0.2129  0.3051
  589MOL0     C77658   7.729   6.159   2.357 -0.4279 -0.1219  0.6579
  589MOL0     C77659   7.828   6.270   2.403 -0.0388 -0.4347 -0.3897
  589MOL0    Cl77660   7.770   6.435   2.372 -0.3081  0.4001  0.1266
  589MOL0     C77661   7.275   6.026   1.608 -0.0501  0.3609  0.0291
  589MOL0     C77662   7.141   6.013   1.585  1.0431  0.2800  0.3007
  589MOL0     O77663   6.900   5.965   1.427 -0.4416 -0.3109 -0.0115
  589MOL0     C77664   6.630   6.137   1.557  0.7198 -0.6612  0.6688
  589MOL0     C77665   6.494   6.160   1.527  0.4852 -0.3732 -0.2556
  589MOL0     N77666   5.789   6.532   1.504  0.2203  0.1384 -0.4076
  589MOL0     N77667   5.784   6.645   1.453 -0.6449  1.2221 -0.9819
  589MOL0     C77668   6.944   7.315   1.430 -0.3166  0.3339  0.3248
  589MOL0     C77669   7.054   7.384   1.394 -0.3644 -0.7025 -0.8414
  589MOL0     C77670   7.283   7.700   1.166 -0.2292  0.1491 -0.3069
  589MOL0     C77671   7.277   7.831   1.103  0.0771  0.1426 -0.1895
  589MOL0     C77672   7.395   7.902   1.059  0.3011  0.9847  0.8337
  589MOL0     C77673   7.519   7.849   1.081 -0.3043  0.5262  0.6934
  589MOL0     O77674   7.638   7.886   1.027  0.6285 -0.4975  0.2898
  589MOL0     C77675   7.686   7.814   0.916 -0.0250  0.6894  0.0279
  589MOL0     C77676   7.808   7.717   0.936  0.5912 -0.4778  0.3084
  589MOL0     C77677   7.849   7.666   0.798  0.6946 -0.9231  0.0386
  589MOL0     C77678   7.968   7.575   0.806 -0.2159  0.2176 -0.6060
  589MOL0     C77679   8.088   7.651   0.861  0.9426 -0.1451 -0.3122
  589MOL0     C77680   8.189   7.706   0.899  0.0456  0.4730 -0.0315
  589MOL0     C77681   7.536   7.725   1.148 -0.7660 -1.1719  0.4617
  589MOL0     C77682   7.418   7.653   1.187 -0.0865  0.3361  0.5033
  589MOL0     H77683   7.021   7.376   1.060  1.3059  3.6749  0.3741
  589MOL0     H77684   6.818   7.237   1.118 -0.4104  0.9928  0.4687
  589MOL0     H77685   6.661   7.125   1.190 -1.4091  0.1711 -1.1627
  589MOL0     H77686   6.604   7.286   1.235 -2.2264 -0.4313  0.2871
  589MOL0     H77687   6.416   7.184   1.300 -0.0806 -1.2698 -1.0144
  589MOL0     H77688   6.510   7.149   1.446  0.7110  3.0804 -1.5252
  589MOL0     H77689   6.591   6.934   1.303 -0.8244 -1.9925 -2.3229
  589MOL0     H77690   6.457   6.977   1.202 -2.7084 -1.7159  0.6043
  589MOL0     H77691   6.415   6.801   1.391  0.7483  0.7176 -2.0316
  589MOL0     H77692   6.418   6.936   1.510 -1.7542  1.1485  0.2000
  589MOL0     H77693   6.250   6.910   1.258 -1.8639  0.6952 -0.2901
  589MOL0     H77694   6.261   7.053   1.345 -2.7833 -0.0340 -4.2834
  589MOL0     H77695   6.157   6.948   1.549 -0.8240  3.2621 -1.4211
  589MOL0     H77696   6.153   6.789   1.465 -2.9471 -0.2472 -4.0619
  589MOL0     H77697   5.933   6.952   1.465  0.4598  0.4259  1.4745
  589MOL0     H77698   6.010   7.000   1.322 -0.8625 -0.8519  0.2657
  589MOL0     H77699   6.032   6.748   1.263  1.4152 -1.7445  2.4534
  589MOL0     H77700   5.866   6.807   1.277  2.4125 -0.0314 -3.8195
  589MOL0     H77701   6.110   6.571   1.466  0.9934 -3.6445  1.5347
  589MOL0     H77702   5.902   6.329   1.663  1.1503 -3.8430 -1.1798
  589MOL0     H77703   6.068   6.366   1.635 -0.1838 -1.8490  0.7352
  589MOL0     H77704   5.865   6.236   1.429  0.6286  0.6782 -1.6926
  589MOL0     H77705   5.957   6.142   1.538  2.7391 -1.7533 -2.8696
  589MOL0     H77706   6.046   6.137   1.318  0.6872 -0.5997  0.3131
  589MOL0     H77707   6.085   6.319   1.333  0.7673  0.8850  2.4710
  589MOL0     H77708   6.181   6.088   1.517 -2.2781  0.9003 -0.3417
  589MOL0     H77709   6.238   6.253   1.524  2.2080 -2.3701  2.1552
  589MOL0     H77710   6.482   6.025   1.217  3.0115 -1.7967 -0.5307
  589MOL0     H77711   6.693   5.954   1.273 -0.6053 -1.2485  0.7255
  589MOL0     H77712   7.029   6.297   1.730 -1.5041 -1.5580 -0.2076
  589MOL0     H77713   7.262   6.319   1.768  0.6642 -0.5268  0.0977
  589MOL0     H77714   7.553   6.018   1.604  0.2096  0.5847 -0.6802
  589MOL0     H77715   7.524   5.994   1.774 -1.8609  0.2721 -0.0887
  589MOL0     H77716   7.738   6.179   1.652  0.4622  0.2103  0.6186
  589MOL0     H77717   7.756   6.031   1.738  0.8305  0.8590 -0.3808
  589MOL0     H77718   7.628   6.260   1.872 -0.6065 -0.9142 -1.1422
  589MOL0     H77719   7.798   6.262   1.853  0.3432  1.2950 -0.4983
  589MOL0     H77720   7.624   6.038   1.987  1.4374 -2.5635 -1.2757
  589MOL0     H77721   7.793   6.029   1.970 -1.3148 -0.7199  0.8150
  589MOL0     H77722   7.665   6.253   2.126 -1.0664 -0.7255 -0.2442
  589MOL0     H77723   7.843   6.229   2.095  0.8134 -2.5749  0.1498
  589MOL0     H77724   7.852   6.038   2.228 -1.0629 -0.4952  2.1808
  589MOL0     H77725   7.691   6.013   2.219  0.2581 -1.0335 -1.8166
  589MOL0     H77726   7.626   6.192   2.371 -1.3940 -2.6920  0.1182
  589MOL0     H77727   7.744   6.082   2.433  1.2951 -0.5307 -0.0556
  589MOL0     H77728   7.917   6.242   2.346  0.0616  1.2082 -1.0840
  589MOL0     H77729   7.844   6.258   2.510  0.4660 -2.8765 -0.6659
  589MOL0     H77730   7.347   5.947   1.586  1.9640  2.3709 -1.0678
  589MOL0     H77731   7.092   5.923   1.549  0.6895  0.0229  1.3863
  589MOL0     H77732   6.663   6.187   1.648 -0.1754 -1.8062  1.6733
  589MOL0     H77733   6.439   6.229   1.590  3.4378  3.4055 -1.4774
  589MOL0     H77734   6.922   7.322   1.537 -0.2266 -2.8055  0.6615
  589MOL0     H77735   7.117   7.429   1.469 -1.7898  0.8627 -0.5337
  589MOL0     H77736   7.179   7.873   1.082 -0.6584 -1.8493 -0.9347
  589MOL0     H77737   7.394   8.003   1.020 -3.3357  1.7606  2.5425
  589MOL0     H77738   7.722   7.893   0.848  1.1452 -1.1616 -1.6395
  589MOL0     H77739   7.610   7.757   0.862  1.2934  0.1815 -1.3980
  589MOL0     H77740   7.888   7.769   0.989  0.6758 -0.7388  0.4396
  589MOL0     H77741   7.787   7.627   0.995  1.8819 -1.5797 -0.8555
  589MOL0     H77742   7.864   7.751   0.730  1.7301 -1.2595 -0.1812
  589MOL0     H77743   7.765   7.611   0.754 -0.7445  0.0661  1.4351
  589MOL0     H77744   7.943   7.486   0.864  0.4375  2.3016  3.2456
  589MOL0     H77745   8.004   7.553   0.705  0.7304 -0.7214 -0.0828
  589MOL0     H77746   8.278   7.754   0.933 -0.5739  0.0811  2.3574
  589MOL0     H77747   7.635   7.682   1.157 -0.9828 -1.4580  1.6990
  589MOL0     H77748   7.434   7.551   1.221 -0.3196  0.2684  0.4204
  590MOL0     O77749   9.856   4.183   7.562  0.3905  0.3454  0.5258
  590MOL0     C77750   9.916   4.253   7.485  0.3043  0.4666  0.2791
  590MOL0     O77751   9.854   4.339   7.384 -0.3597 -0.1239 -0.4924
  590MOL0     C77752   9.721   4.343   7.382  0.4464  0.1722 -0.8742
  590MOL0     C77753   9.654   4.315   7.272 -0.9723  0.4979  0.2637
  590MOL0     C77754   9.514   4.316   7.269 -0.8805  0.1959 -0.0338
  590MOL0     C77755   9.445   4.332   7.391  0.4794 -0.0605  0.2221
  590MOL0     O77756   9.313   4.315   7.409  0.0881 -0.7049 -0.4829
  590MOL0     C77757   9.226   4.242   7.317 -0.5397  0.7366  0.3451
  590MOL0     C77758   9.077   4.220   7.365 -0.5515  0.2042 -0.0964
  590MOL0     C77759   9.019   4.351   7.430 -0.1621 -0.0264  0.0121
  590MOL0     C77760   8.869   4.347   7.447 -0.2983 -0.1986  0.3011
  590MOL0     C77761   8.814   4.485   7.483 -0.4853  0.2916 -0.3331
  590MOL0     C77762   8.660   4.485   7.469  0.3629 -0.5982  0.6859
  590MOL0     C77763   8.594   4.404   7.579  0.1744 -0.0602  0.0141
  590MOL0     C77764   8.450   4.454   7.587  0.4207  0.4249  1.3734
  590MOL0     N77765   8.386   4.431   7.453  0.6698 -0.7622  0.2344
  590MOL0     C77766   8.347   4.539   7.368 -0.1493  0.0942  0.1138
  590MOL0     C77767   8.273   4.471   7.275 -0.7083 -0.0208  0.3337
  590MOL0     C77768   8.205   4.529   7.148 -0.5941 -0.7854  0.2973
  590MOL0     C77769   8.169   4.675   7.158 -0.5995 -0.2329 -0.0924
  590MOL0     C77770   8.085   4.742   7.043 -1.2473 -0.7806  0.2196
  590MOL0     C77771   7.948   4.683   7.036  0.1515  0.2033  0.0623
  590MOL0     O77772   7.870   4.729   6.920  0.0573 -0.5909  0.4411
  590MOL0     C77773   7.734   4.712   6.913  0.0807  0.9153 -0.5144
  590MOL0     C77774   7.674   4.771   6.805  0.1303 -0.0559 -0.5932
  590MOL0     C77775   7.540   4.745   6.775 -0.8426  0.5836 -0.2757
  590MOL0     C77776   7.459   4.675   6.861  0.1183  0.9187 -0.0126
  590MOL0     C77777   7.326   4.643   6.819  0.0533  0.6716 -0.5095
  590MOL0     O77778   7.307   4.618   6.683  0.3014  0.2008  0.7001
  590MOL0     C77779   7.172   4.612   6.643 -0.7679 -0.4322  0.4647
  590MOL0     C77780   7.114   4.489   6.586 -0.1043 -0.1304 -0.3660
  590MOL0     C77781   6.980   4.484   6.536 -0.5323 -0.6863 -0.1220
  590MOL0     C77782   6.903   4.601   6.543  0.0309 -0.1252 -0.1598
  590MOL0     O77783   6.771   4.597   6.500  0.0845 -1.2592 -0.1587
  590MOL0     C77784   6.691   4.713   6.506  0.5714  0.3164 -0.3939
  590MOL0     C77785   6.557   4.684   6.445  0.6210 -0.2794  0.5961
  590MOL0     C77786   6.477   4.573   6.505  0.4371 -0.4676 -0.5680
  590MOL0     C77787   6.394   4.495   6.404  0.1809 -0.3038 -0.4118
  590MOL0     C77788   6.294   4.406   6.484 -0.2456 -0.0273  1.5945
  590MOL0     C77789   6.206   4.324   6.387  0.3909 -0.0911  0.1746
  590MOL0     C77790   6.124   4.406   6.286  0.1307  0.9075  0.5379
  590MOL0     C77791   6.003   4.327   6.232 -0.5071  0.0212  0.3326
  590MOL0    Cl77792   6.058   4.267   6.063 -0.1663  0.1554 -0.5248
  590MOL0     C77793   6.960   4.717   6.592 -0.2764  0.0315 -0.0893
  590MOL0     C77794   7.090   4.723   6.641 -0.5720  0.2305  0.3247
  590MOL0     O77795   7.238   4.636   6.910 -0.2755 -0.0792  0.2379
  590MOL0     C77796   7.515   4.618   6.980 -0.8556 -0.2359 -0.6256
  590MOL0     C77797   7.654   4.635   7.000  0.2891  0.1102 -0.0677
  590MOL0     N77798   8.277   4.330   7.285 -0.8751 -0.4419 -0.2930
  590MOL0     N77799   8.344   4.311   7.394 -0.4559 -0.9816 -0.1475
  590MOL0     C77800   9.513   4.372   7.504 -0.0341 -0.5283  0.9986
  590MOL0     C77801   9.649   4.383   7.499  0.7446 -1.0359 -0.2535
  590MOL0     C77802  10.064   4.244   7.488  0.0925  0.4306 -0.0012
  590MOL0     C77803  10.131   4.133   7.553  0.0217  0.2687  0.1894
  590MOL0     C77804  10.264   4.109   7.556 -0.0342 -0.7224  0.3293
  590MOL0     C77805  10.344   4.208   7.499 -0.1718  0.0235  0.4153
  590MOL0     O77806  10.480   4.200   7.509 -0.1189  0.3362  0.7077
  590MOL0     C77807  10.530   4.274   7.617 -0.0317 -0.6795  0.3913
  590MOL0     C77808  10.644   4.198   7.690  0.6769  0.3063 -0.6812
  590MOL0     C77809  10.712   4.296   7.783  0.5881 -0.4476 -1.2374
  590MOL0     C77810  10.776   4.217   7.903 -0.7108 -0.3042  0.2683
  590MOL0     C77811  10.681   4.172   8.004 -0.1329 -0.9245  0.2557
  590MOL0     C77812  10.625   4.114   8.093  0.7988 -0.0822 -0.0667
  590MOL0     C77813  10.291   4.323   7.442  0.6155  0.4389  0.5819
  590MOL0     C77814  10.150   4.337   7.428 -0.9591  1.1575  0.5278
  590MOL0     H77815   9.714   4.298   7.183 -0.4972  0.0397  0.6627
  590MOL0     H77816   9.477   4.302   7.168 -0.2442  1.2530 -0.4309
  590MOL0     H77817   9.267   4.141   7.318 -1.2180  0.4475 -0.1872
  590MOL0     H77818   9.233   4.287   7.217  1.2773 -2.5249 -1.1551
  590MOL0     H77819   9.083   4.149   7.448  1.0785  2.1295  1.5498
  590MOL0     H77820   9.009   4.182   7.289  1.2144  1.8770 -2.6614
  590MOL0     H77821   9.053   4.431   7.362 -0.8995 -1.9028 -2.7436
  590MOL0     H77822   9.068   4.363   7.527 -1.3657 -0.2114  0.6624
  590MOL0     H77823   8.825   4.307   7.354 -1.3593  2.6179 -0.5058
  590MOL0     H77824   8.847   4.278   7.529 -1.7143 -2.4109 -1.7697
  590MOL0     H77825   8.848   4.560   7.411 -0.3826  0.5163 -0.0517
  590MOL0     H77826   8.854   4.523   7.577 -1.6998  3.4429 -0.9930
  590MOL0     H77827   8.627   4.442   7.374  1.5413 -3.0088  1.2912
  590MOL0     H77828   8.635   4.591   7.479 -0.4202 -0.9331  2.9913
  590MOL0     H77829   8.583   4.296   7.563 -1.3627  0.1763 -0.7633
  590MOL0     H77830   8.646   4.418   7.674  1.0909 -0.2200 -0.4576
  590MOL0     H77831   8.448   4.561   7.609  1.0714  1.3320 -2.3103
  590MOL0     H77832   8.396   4.393   7.659 -1.3735 -0.8401 -0.9062
  590MOL0     H77833   8.372   4.643   7.386 -0.1538 -0.0163  0.7846
  590MOL0     H77834   8.113   4.474   7.125 -0.4885 -0.6737 -0.3986
  590MOL0     H77835   8.266   4.509   7.060  0.6946 -0.9915  1.2140
  590MOL0     H77836   8.266   4.726   7.152 -2.4156  3.7187  1.2119
  590MOL0     H77837   8.112   4.699   7.248  2.3061  0.2946  1.7398
  590MOL0     H77838   8.087   4.851   7.056  2.0340 -0.4103 -2.0723
  590MOL0     H77839   8.132   4.727   6.946  3.1107  2.2826  1.5911
  590MOL0     H77840   7.901   4.708   7.131  2.1771 -3.3557  2.2541
  590MOL0     H77841   7.966   4.575   7.036 -0.1682  0.1495  0.2878
  590MOL0     H77842   7.729   4.835   6.737  1.8032  0.8538  1.5190
  590MOL0     H77843   7.515   4.805   6.688  1.5851  0.9316 -0.8161
  590MOL0     H77844   7.190   4.411   6.594  1.5505  1.3220 -1.2617
  590MOL0     H77845   6.941   4.400   6.480 -3.5674  0.8333 -0.5013
  590MOL0     H77846   6.719   4.803   6.451  1.8416 -0.5952 -1.3048
  590MOL0     H77847   6.664   4.733   6.610  0.2623 -1.0744 -0.1851
  590MOL0     H77848   6.565   4.667   6.337  1.3812 -2.5806  0.9540
  590MOL0     H77849   6.511   4.782   6.460  0.3319 -0.5076  1.2294
  590MOL0     H77850   6.407   4.616   6.577  1.5602  0.5625 -0.0579
  590MOL0     H77851   6.546   4.501   6.549 -1.4283 -1.5930  0.6812
  590MOL0     H77852   6.337   4.564   6.340 -1.2591  0.6215  1.7633
  590MOL0     H77853   6.463   4.438   6.341 -1.7088 -1.5750 -1.4330
  590MOL0     H77854   6.224   4.462   6.547 -1.7932 -0.2705  0.1703
  590MOL0     H77855   6.357   4.343   6.547  0.9227 -0.4792  0.0101
  590MOL0     H77856   6.141   4.268   6.455  0.7058  1.6720  2.0409
  590MOL0     H77857   6.276   4.255   6.338  0.4654 -0.9844  1.4646
  590MOL0     H77858   6.084   4.495   6.338  1.5613  2.7455 -1.3493
  590MOL0     H77859   6.191   4.440   6.208  2.0450  1.1964  2.2210
  590MOL0     H77860   5.925   4.402   6.219  0.8436  1.4665  0.2275
  590MOL0     H77861   5.974   4.240   6.292  1.2237 -0.7072  0.1723
  590MOL0     H77862   6.897   4.804   6.603  0.1327 -0.0122  3.7153
  590MOL0     H77863   7.131   4.814   6.683  1.7962 -1.2552  1.4381
  590MOL0     H77864   7.458   4.559   7.052  1.2699 -1.7466 -0.0780
  590MOL0     H77865   7.700   4.591   7.088  0.0289 -1.2046 -0.5703
  590MOL0     H77866   9.465   4.408   7.595 -0.7524 -0.2814  0.5294
  590MOL0     H77867   9.703   4.407   7.590 -0.4035 -0.7101  0.3517
  590MOL0     H77868  10.061   4.057   7.589 -0.9077  0.1114 -1.8270
  590MOL0     H77869  10.322   4.032   7.605 -0.0488  0.2359  1.9103
  590MOL0     H77870  10.450   4.297   7.688 -2.9141 -1.3077 -2.4366
  590MOL0     H77871  10.565   4.375   7.592 -1.5906 -0.4417 -0.9749
  590MOL0     H77872  10.592   4.120   7.746 -0.3473 -0.7163 -2.9221
  590MOL0     H77873  10.714   4.142   7.628 -0.4333 -0.6450 -1.1203
  590MOL0     H77874  10.655   4.379   7.827  1.6720 -0.8165  1.0332
  590MOL0     H77875  10.790   4.354   7.731  0.8573 -1.1349 -1.6062
  590MOL0     H77876  10.824   4.127   7.865  1.0196  0.9023 -0.5605
  590MOL0     H77877  10.859   4.271   7.949 -1.5637 -0.6012  2.2584
  590MOL0     H77878  10.582   4.069   8.180  2.1024  1.5216  1.4775
  590MOL0     H77879  10.352   4.403   7.400  1.8873 -1.5915 -1.7176
  590MOL0     H77880  10.101   4.425   7.385 -0.6667  1.6116  1.1192
  591MOL0     O77881   0.321  11.015   0.935 -0.2631  0.7676 -0.4346
  591MOL0     C77882   0.333  11.008   0.811  0.5723 -0.3833  0.0078
  591MOL0     O77883   0.422  10.922   0.743  0.2954 -0.2143 -0.0194
  591MOL0     C77884   0.500  10.824   0.806  1.4083  0.8300  0.1677
  591MOL0     C77885   0.613  10.788   0.729 -0.1473 -1.3565 -0.8413
  591MOL0     C77886   0.709  10.700   0.789  0.1739 -0.4103 -0.0286
  591MOL0     C77887   0.690  10.641   0.913 -0.2865 -0.5153 -0.4448
  591MOL0     O77888   0.793  10.566   0.972 -0.6531 -0.1300 -0.3351
  591MOL0     C77889   0.756  10.434   1.021  0.4842  0.1845 -0.3652
  591MOL0     C77890   0.872  10.369   1.103 -0.0459  0.2407  0.6656
  591MOL0     C77891   1.015  10.380   1.038  1.2543 -0.4131  1.2933
  591MOL0     C77892   1.115  10.332   1.141 -0.4112  0.4037 -0.1053
  591MOL0     C77893   1.265  10.367   1.102  0.3307  0.2332 -0.1827
  591MOL0     C77894   1.332  10.260   1.006  0.5132 -0.2040  0.7656
  591MOL0     C77895   1.481  10.293   0.974  0.4150  0.0488 -0.4891
  591MOL0     C77896   1.563  10.208   0.881  0.9619  0.6610 -0.4262
  591MOL0     N77897   1.577  10.073   0.931  0.4797  0.0704 -0.2682
  591MOL0     C77898   1.650  10.044   1.038  0.3368 -0.0556  0.0104
  591MOL0     C77899   1.638   9.908   1.058  0.2197 -0.1532 -0.9587
  591MOL0     C77900   1.726   9.824   1.148 -0.1644 -0.2784  0.2096
  591MOL0     C77901   1.873   9.797   1.105  0.0152 -0.8671 -0.5849
  591MOL0     C77902   1.950   9.711   1.208 -0.4122  0.4372 -0.1620
  591MOL0     C77903   2.086   9.662   1.142 -0.6835  0.2484 -0.2509
  591MOL0     O77904   2.185   9.771   1.141 -0.3617 -0.0279 -0.2796
  591MOL0     C77905   2.319   9.738   1.120  0.1663 -0.0036 -0.5245
  591MOL0     C77906   2.415   9.814   1.185  0.6325 -0.3779  0.3773
  591MOL0     C77907   2.558   9.794   1.174 -0.1028 -0.1978  1.0567
  591MOL0     C77908   2.608   9.683   1.100  0.9350  0.0869  0.2094
  591MOL0     C77909   2.748   9.647   1.098 -0.4741  0.9819 -0.2544
  591MOL0     O77910   2.790   9.559   0.993  0.0014 -0.2929 -0.3846
  591MOL0     C77911   2.922   9.540   0.948  0.2506  0.0411  0.0296
  591MOL0     C77912   2.943   9.428   0.871 -0.6898  0.5292 -0.2211
  591MOL0     C77913   3.071   9.402   0.821  0.1212 -0.5369 -0.0010
  591MOL0     C77914   3.179   9.485   0.854  0.2100 -0.3687 -1.0408
  591MOL0     O77915   3.302   9.449   0.804 -0.5312  0.0421 -0.9990
  591MOL0     C77916   3.398   9.562   0.774 -1.0421  0.5098 -0.6006
  591MOL0     C77917   3.504   9.565   0.884 -0.0533  0.6262 -0.1766
  591MOL0     C77918   3.607   9.686   0.863  1.2620  1.5673  0.4117
  591MOL0     C77919   3.550   9.826   0.858 -0.4371 -0.7592  0.0819
  591MOL0     C77920   3.651   9.940   0.854 -0.1804  0.1860 -0.3353
  591MOL0     C77921   3.732   9.935   0.730 -0.8155  0.3416 -0.9521
  591MOL0     C77922   3.818  10.061   0.726  0.6729  1.1565 -0.2788
  591MOL0     C77923   3.945  10.041   0.632  0.3403  0.7680 -0.2873
  591MOL0    Cl77924   4.069   9.929   0.703 -0.4881 -0.3132  0.5867
  591MOL0     C77925   3.151   9.595   0.934  0.2749 -0.4679 -0.3696
  591MOL0     C77926   3.022   9.627   0.978 -1.5392  0.3965 -0.4669
  591MOL0     O77927   2.820   9.679   1.197 -0.3486  0.0141 -0.2431
  591MOL0     C77928   2.510   9.607   1.033 -0.0886 -0.3621 -0.3981
  591MOL0     C77929   2.367   9.631   1.050 -0.5881 -0.1867 -0.0169
  591MOL0     N77930   1.536   9.861   0.983  0.6075 -0.1101 -0.7156
  591MOL0     N77931   1.500   9.962   0.914  0.3661  0.1608  0.4791
  591MOL0     C77932   0.578  10.674   0.985  0.5010 -0.2430  0.9893
  591MOL0     C77933   0.480  10.756   0.930 -0.4039 -0.9950 -0.3315
  591MOL0     C77934   0.217  11.080   0.738 -0.2506 -0.0087  0.0733
  591MOL0     C77935   0.250  11.164   0.634  1.0022 -0.0197  0.1639
  591MOL0     C77936   0.151  11.259   0.580 -0.2943  0.7484 -0.2279
  591MOL0     C77937   0.019  11.252   0.620  0.6098  0.3280 -0.3051
  591MOL0     O77938  -0.074  11.334   0.561 -0.0207  0.2829  0.5070
  591MOL0     C77939  -0.077  11.308   0.420  1.3121 -0.5477  0.2549
  591MOL0     C77940  -0.198  11.215   0.382  0.8612 -0.1366 -0.0173
  591MOL0     C77941  -0.202  11.212   0.224  0.3918 -0.0131  0.4127
  591MOL0     C77942  -0.280  11.092   0.164 -0.1357  0.4479  0.3851
  591MOL0     C77943  -0.288  11.111   0.016 -0.5782  0.0421 -0.4085
  591MOL0     C77944  -0.302  11.116  -0.108  0.5532  0.4643  0.0136
  591MOL0     C77945  -0.009  11.170   0.732  0.4368 -0.8134  1.0169
  591MOL0     C77946   0.089  11.086   0.780 -0.6048  0.0232 -0.4214
  591MOL0     H77947   0.635  10.835   0.634  1.6577  0.3545  0.3559
  591MOL0     H77948   0.800  10.676   0.735  0.4842  0.7941 -0.0909
  591MOL0     H77949   0.746  10.370   0.933 -1.0579  0.4951 -0.4296
  591MOL0     H77950   0.663  10.441   1.077 -0.2922 -1.4391 -1.3802
  591MOL0     H77951   0.850  10.262   1.109  1.4566  0.0164  3.8504
  591MOL0     H77952   0.871  10.405   1.206  1.9362 -0.9969  1.1672
  591MOL0     H77953   1.043  10.483   1.015 -0.6004 -0.5377 -2.1803
  591MOL0     H77954   1.032  10.324   0.946  3.8733  0.1639  1.3552
  591MOL0     H77955   1.088  10.370   1.239 -0.4939  2.5767 -0.9205
  591MOL0     H77956   1.114  10.223   1.144 -0.0203  0.3233 -1.7536
  591MOL0     H77957   1.328  10.377   1.190  0.1157 -1.8042  0.2670
  591MOL0     H77958   1.259  10.465   1.054 -0.3179 -0.0348 -0.6748
  591MOL0     H77959   1.274  10.250   0.914  1.5373  0.2396  0.0595
  591MOL0     H77960   1.323  10.163   1.055 -1.1634 -1.2512 -1.4547
  591MOL0     H77961   1.492  10.398   0.947 -0.9421  0.3172 -0.0726
  591MOL0     H77962   1.531  10.284   1.071  1.3169 -1.7447 -1.0660
  591MOL0     H77963   1.664  10.248   0.866  0.8301  0.9661 -0.4884
  591MOL0     H77964   1.523  10.207   0.780  1.8616  2.0748 -0.8306
  591MOL0     H77965   1.725  10.105   1.087  1.7065 -2.7862  1.5104
  591MOL0     H77966   1.682   9.724   1.139 -2.0497  0.3721  1.6101
  591MOL0     H77967   1.727   9.857   1.252  0.3846 -0.1561  0.1689
  591MOL0     H77968   1.934   9.887   1.091  0.8490 -0.5857  3.5211
  591MOL0     H77969   1.877   9.745   1.009  1.1502  1.0539 -1.6285
  591MOL0     H77970   1.956   9.757   1.307  0.1348 -0.8624  0.4449
  591MOL0     H77971   1.893   9.621   1.232 -1.0619  1.5917  3.2783
  591MOL0     H77972   2.076   9.626   1.039  1.1082 -0.4242 -0.2208
  591MOL0     H77973   2.127   9.582   1.204  1.9837  1.5126 -0.2456
  591MOL0     H77974   2.367   9.887   1.249 -1.6624 -1.9199  0.5682
  591MOL0     H77975   2.634   9.860   1.215 -0.1000  1.3455 -1.2316
  591MOL0     H77976   2.863   9.358   0.850  0.5588 -1.1132  0.2969
  591MOL0     H77977   3.083   9.317   0.754 -0.2836 -0.9444  0.4407
  591MOL0     H77978   3.343   9.654   0.753 -0.9063  0.6982 -0.1420
  591MOL0     H77979   3.463   9.533   0.691 -0.3677 -3.6034  1.1143
  591MOL0     H77980   3.548   9.465   0.887 -0.1395  0.4865 -2.0261
  591MOL0     H77981   3.452   9.592   0.976  0.5223  1.0575  0.0239
  591MOL0     H77982   3.662   9.669   0.770  0.9425  1.7202  0.1950
  591MOL0     H77983   3.684   9.682   0.941  2.1305 -0.0324 -0.4774
  591MOL0     H77984   3.484   9.838   0.772  0.4902  3.0991 -0.2686
  591MOL0     H77985   3.490   9.838   0.949  1.7710 -0.5680  1.6147
  591MOL0     H77986   3.706   9.928   0.948 -2.3103  0.0545  0.9711
  591MOL0     H77987   3.595  10.033   0.869 -0.9767 -0.6119  2.1545
  591MOL0     H77988   3.664   9.927   0.644 -3.2778  3.3418  0.5406
  591MOL0     H77989   3.798   9.848   0.730 -0.6742  0.4056  1.5015
  591MOL0     H77990   3.759  10.133   0.670  0.6126 -0.1625 -2.0080
  591MOL0     H77991   3.858  10.094   0.822 -0.7890 -1.3491  1.2914
  591MOL0     H77992   4.002  10.135   0.628  4.8731 -1.7544 -1.5415
  591MOL0     H77993   3.924  10.002   0.533  1.3318  0.1547 -0.2732
  591MOL0     H77994   3.234   9.654   0.973 -0.2356 -2.2730  4.0709
  591MOL0     H77995   2.998   9.709   1.045  0.3907  0.0000  0.8082
  591MOL0     H77996   2.534   9.520   0.974 -0.4326 -3.0085  3.0406
  591MOL0     H77997   2.304   9.555   1.006  0.4941 -0.1123 -1.8091
  591MOL0     H77998   0.558  10.627   1.081  2.3289 -3.4941 -0.0882
  591MOL0     H77999   0.392  10.776   0.991 -0.6666  1.7076 -1.4664
  591MOL0     H78000   0.351  11.168   0.596  0.5035  0.5914 -1.1589
  591MOL0     H78001   0.174  11.337   0.507 -0.3767  1.0449  0.0614
  591MOL0     H78002   0.013  11.268   0.373  3.1299  2.9188  0.3906
  591MOL0     H78003  -0.095  11.407   0.377  0.7445 -0.2821  1.0845
  591MOL0     H78004  -0.170  11.117   0.422 -0.8978  0.1895  2.2006
  591MOL0     H78005  -0.288  11.258   0.427 -0.0633  0.2700 -2.1180
  591MOL0     H78006  -0.101  11.216   0.184  0.6631  0.0295  1.0825
  591MOL0     H78007  -0.243  11.307   0.189 -0.0022 -0.0967  0.6311
  591MOL0     H78008  -0.233  10.998   0.196 -3.9353 -1.7064  0.2062
  591MOL0     H78009  -0.383  11.095   0.200 -0.9362 -1.8828 -1.4075
  591MOL0     H78010  -0.321  11.094  -0.211  0.2285  2.0557 -0.2914
  591MOL0     H78011  -0.109  11.176   0.774 -0.3999  0.5135 -0.9888
  591MOL0     H78012   0.068  11.035   0.873  0.3868 -1.3312 -0.9161
  592MOL0     O78013  10.934   4.717   8.867 -0.7300  0.1295  0.2671
  592MOL0     C78014  10.886   4.618   8.813  0.5739  0.2189 -0.4955
  592MOL0     O78015  10.748   4.597   8.792 -0.4936 -0.4637 -0.2007
  592MOL0     C78016  10.653   4.687   8.822 -0.1607 -0.0249  0.2105
  592MOL0     C78017  10.549   4.655   8.917 -0.8975  0.1718  0.1752
  592MOL0     C78018  10.455   4.749   8.953  0.3281  0.5449  0.4675
  592MOL0     C78019  10.449   4.867   8.894 -0.0230  0.3176  0.5823
  592MOL0     O78020  10.371   4.966   8.942  0.3260  0.3454  0.1243
  592MOL0     C78021  10.233   4.944   8.902  0.0118  0.5687  1.2391
  592MOL0     C78022  10.158   5.050   8.972  0.5616  0.2314  0.2057
  592MOL0     C78023  10.004   5.039   8.962  0.1933  0.0447 -0.3036
  592MOL0     C78024   9.935   5.151   9.031 -0.1247 -0.1790  0.5568
  592MOL0     C78025   9.790   5.136   9.027 -0.0807  0.0866 -0.0193
  592MOL0     C78026   9.710   5.236   9.120 -0.8093 -0.1803 -0.6364
  592MOL0     C78027   9.563   5.255   9.066  0.9451  0.4190 -0.3937
  592MOL0     C78028   9.494   5.374   9.137 -0.8059 -0.2603  0.0427
  592MOL0     N78029   9.367   5.412   9.077 -0.8760  0.4553  0.2605
  592MOL0     C78030   9.240   5.396   9.130  0.5783 -0.9136  0.2544
  592MOL0     C78031   9.157   5.469   9.051  0.2695  0.3743 -0.3244
  592MOL0     C78032   9.012   5.485   9.072 -0.1541 -0.3376 -0.7458
  592MOL0     C78033   8.926   5.384   8.995 -0.1187 -0.1781  0.9312
  592MOL0     C78034   8.786   5.426   8.964 -0.0526  0.7455 -0.5300
  592MOL0     C78035   8.698   5.405   9.093 -0.5455  0.1021  0.2400
  592MOL0     O78036   8.664   5.261   9.103  0.1520 -1.1284 -0.3109
  592MOL0     C78037   8.555   5.240   9.182  0.1739  0.1719  0.3078
  592MOL0     C78038   8.488   5.326   9.273 -0.5806  1.3470  0.1373
  592MOL0     C78039   8.375   5.282   9.344  0.3750 -0.4322 -0.1537
  592MOL0     C78040   8.322   5.158   9.326 -0.4970 -0.3893  0.4174
  592MOL0     C78041   8.199   5.120   9.406 -0.0920  0.3707 -0.0198
  592MOL0     O78042   8.125   5.219   9.465 -0.3702 -0.5357 -0.4542
  592MOL0     C78043   8.006   5.186   9.523 -0.5646 -0.1203  0.1476
  592MOL0     C78044   7.987   5.209   9.658 -0.8070  0.3488  0.2524
  592MOL0     C78045   7.875   5.180   9.719  0.8522  0.2384 -0.4814
  592MOL0     C78046   7.765   5.137   9.646 -0.1816 -0.0068  0.4044
  592MOL0     O78047   7.636   5.110   9.686 -0.2390  0.1987 -0.0087
  592MOL0     C78048   7.620   4.977   9.739 -0.2025 -1.3056  0.7218
  592MOL0     C78049   7.480   4.977   9.805 -0.4166 -0.2877  0.1740
  592MOL0     C78050   7.364   5.016   9.705 -0.7444  0.2976 -0.5752
  592MOL0     C78051   7.255   5.097   9.782 -1.1869  0.1513  0.2582
  592MOL0     C78052   7.125   5.111   9.704  0.2802 -0.2163  0.5415
  592MOL0     C78053   7.020   5.180   9.784 -0.2131 -0.0159 -0.0399
  592MOL0     C78054   6.885   5.200   9.718 -0.3160 -1.0399  0.1685
  592MOL0     C78055   6.794   5.274   9.815  0.1203  0.6290 -0.2133
  592MOL0    Cl78056   6.643   5.321   9.710 -0.5954 -0.3106  0.4412
  592MOL0     C78057   7.782   5.116   9.515 -0.2464 -0.3341  0.5940
  592MOL0     C78058   7.901   5.145   9.447 -0.9123 -0.0485 -0.8231
  592MOL0     O78059   8.166   5.004   9.406  0.8837 -0.2845  0.1426
  592MOL0     C78060   8.378   5.072   9.228  0.4548 -0.0578 -0.2673
  592MOL0     C78061   8.489   5.120   9.150 -0.3204  0.0618  0.3961
  592MOL0     N78062   9.225   5.517   8.947 -0.6312  0.3760 -0.0955
  592MOL0     N78063   9.352   5.476   8.960  0.1731 -0.8214  0.4267
  592MOL0     C78064  10.531   4.896   8.782  0.5234 -0.2894 -1.1214
  592MOL0     C78065  10.641   4.810   8.758 -0.1430 -0.0720 -0.2728
  592MOL0     C78066  10.971   4.514   8.772 -0.0054  0.5210  0.2618
  592MOL0     C78067  11.105   4.495   8.821 -0.4091  0.3970 -0.5475
  592MOL0     C78068  11.187   4.387   8.775 -0.0810  0.3317 -0.0208
  592MOL0     C78069  11.134   4.304   8.678 -0.0734 -0.3498 -0.2524
  592MOL0     O78070  11.215   4.200   8.634  0.1098 -0.1459  0.9998
  592MOL0     C78071  11.341   4.242   8.584 -0.4174  0.1443  0.3831
  592MOL0     C78072  11.415   4.139   8.498 -0.0865 -0.1701 -0.5269
  592MOL0     C78073  11.403   3.994   8.546 -0.0287 -0.5752  0.7798
  592MOL0     C78074  11.482   3.922   8.441 -0.4440  0.7361  0.3512
  592MOL0     C78075  11.465   3.782   8.467  0.0490  0.4787 -0.5641
  592MOL0     C78076  11.446   3.663   8.473  0.8335  1.4004 -0.3218
  592MOL0     C78077  10.998   4.315   8.637  0.4224 -0.3333 -0.3988
  592MOL0     C78078  10.917   4.416   8.688 -1.0479 -0.4540  0.7730
  592MOL0     H78079  10.553   4.556   8.962  0.5242  0.1183 -0.0172
  592MOL0     H78080  10.377   4.736   9.028 -1.9546 -0.1686 -1.8943
  592MOL0     H78081  10.204   4.844   8.935  0.2178 -0.3096 -1.0774
  592MOL0     H78082  10.220   4.943   8.793 -3.9031 -3.8800  1.4122
  592MOL0     H78083  10.187   5.147   8.931 -3.0596  1.6241  0.4940
  592MOL0     H78084  10.184   5.070   9.076 -2.3339  0.9608  0.8930
  592MOL0     H78085   9.963   4.951   9.012 -3.0159  2.6463  2.1150
  592MOL0     H78086   9.965   5.036   8.860  0.6928  0.6592 -0.5145
  592MOL0     H78087   9.981   5.142   9.130  2.8741 -3.8108 -0.9010
  592MOL0     H78088   9.970   5.247   8.993 -0.1931  0.0685  1.0983
  592MOL0     H78089   9.761   5.034   9.053  0.2039  0.1659  0.6163
  592MOL0     H78090   9.752   5.156   8.926 -1.0211  0.6686  0.4272
  592MOL0     H78091   9.769   5.327   9.110 -0.6848 -0.4565 -3.2457
  592MOL0     H78092   9.714   5.212   9.226 -1.2909  2.5550  0.0784
  592MOL0     H78093   9.576   5.284   8.961 -0.7795 -3.2490 -1.7905
  592MOL0     H78094   9.505   5.162   9.063  1.8828 -0.2622  1.3007
  592MOL0     H78095   9.562   5.459   9.134 -0.9798 -0.1206 -2.7802
  592MOL0     H78096   9.479   5.351   9.243  0.7452  2.3968  0.9068
  592MOL0     H78097   9.219   5.345   9.224  0.4173  2.0433  1.9382
  592MOL0     H78098   8.978   5.588   9.060  0.1875 -0.2963 -1.3963
  592MOL0     H78099   8.999   5.470   9.179  4.1909  1.8896  0.3136
  592MOL0     H78100   8.939   5.287   9.043 -0.3090 -0.1782  0.9845
  592MOL0     H78101   8.982   5.382   8.901 -1.6373  2.5140 -0.1528
  592MOL0     H78102   8.778   5.531   8.937  1.6969  0.9818 -0.2913
  592MOL0     H78103   8.753   5.359   8.885  0.4888 -0.3729  0.1514
  592MOL0     H78104   8.606   5.461   9.076 -1.6471 -2.1660 -2.1326
  592MOL0     H78105   8.751   5.428   9.185 -1.1636 -1.5510  1.0627
  592MOL0     H78106   8.537   5.423   9.284  1.6745  0.1303  1.7145
  592MOL0     H78107   8.332   5.350   9.417  2.8748  2.6123 -1.2701
  592MOL0     H78108   8.073   5.242   9.715  0.9327 -2.4882 -0.5267
  592MOL0     H78109   7.874   5.190   9.827  1.0374  0.4372 -0.4977
  592MOL0     H78110   7.695   4.955   9.816 -0.7814 -0.2096  1.6224
  592MOL0     H78111   7.624   4.907   9.654 -0.2046  1.3938 -1.6381
  592MOL0     H78112   7.481   5.057   9.880  0.2458  0.1764 -0.3100
  592MOL0     H78113   7.464   4.881   9.854 -1.2128 -1.1944 -1.7551
  592MOL0     H78114   7.326   4.929   9.650 -0.3621 -0.8679  0.9440
  592MOL0     H78115   7.397   5.079   9.622 -0.9078  0.1587 -0.7482
  592MOL0     H78116   7.236   5.052   9.880 -3.5532 -0.1639 -0.2776
  592MOL0     H78117   7.300   5.195   9.793  0.7109 -0.6164 -0.2380
  592MOL0     H78118   7.089   5.017   9.660 -0.5009 -0.3517  1.4324
  592MOL0     H78119   7.148   5.183   9.625  0.6922 -0.0030  0.8517
  592MOL0     H78120   7.047   5.285   9.797  0.2540 -0.1454  0.0683
  592MOL0     H78121   7.008   5.139   9.885 -0.6903  3.6540  1.5215
  592MOL0     H78122   6.895   5.259   9.626 -2.5374  2.4450  1.9248
  592MOL0     H78123   6.851   5.099   9.695  0.5938 -0.9539 -1.7915
  592MOL0     H78124   6.839   5.371   9.835  3.0607 -0.4049 -1.2342
  592MOL0     H78125   6.783   5.205   9.900  5.3083 -1.0653 -0.5869
  592MOL0     H78126   7.697   5.069   9.468 -0.2652 -1.1762  1.4486
  592MOL0     H78127   7.930   5.120   9.346 -0.9847 -4.0172 -0.0288
  592MOL0     H78128   8.329   4.978   9.207 -0.1005 -0.1986  1.4623
  592MOL0     H78129   8.527   5.065   9.065 -1.9360  0.6560 -0.7366
  592MOL0     H78130  10.525   4.995   8.738 -0.9631  0.0520 -0.2275
  592MOL0     H78131  10.699   4.831   8.669  1.6591  0.3466  0.9437
  592MOL0     H78132  11.138   4.569   8.893 -2.3784  0.9048 -0.1039
  592MOL0     H78133  11.287   4.368   8.813 -0.7057  1.3607  2.3041
  592MOL0     H78134  11.412   4.261   8.665 -0.7402  0.9255  0.4954
  592MOL0     H78135  11.336   4.332   8.521  1.0943 -0.2644 -0.3822
  592MOL0     H78136  11.379   4.139   8.395  1.1086 -0.4119 -0.9542
  592MOL0     H78137  11.521   4.163   8.495 -0.5944  2.4403  0.0502
  592MOL0     H78138  11.303   3.949   8.552  0.6153 -1.8765  2.9694
  592MOL0     H78139  11.446   3.985   8.646 -0.2367  2.2711  1.2064
  592MOL0     H78140  11.452   3.940   8.337 -0.9395 -4.7167 -0.7739
  592MOL0     H78141  11.587   3.953   8.442 -0.1424 -0.2327  1.6351
  592MOL0     H78142  11.412   3.562   8.484 -0.6898  1.8910 -0.2449
  592MOL0     H78143  10.971   4.243   8.561  0.2100 -1.6255  0.8538
  592MOL0     H78144  10.812   4.422   8.660 -1.2171 -0.9915  1.2707
  593MOL0     O78145  10.842   4.132  10.592 -0.4661  0.0398  0.1095
  593MOL0     C78146  10.916   4.224  10.558  0.0441 -0.4499 -0.2820
  593MOL0     O78147  10.874   4.350  10.508 -0.2054  0.6009  0.3415
  593MOL0     C78148  10.738   4.369  10.496  0.3766  0.6932 -0.6161
  593MOL0     C78149  10.697   4.434  10.379  0.7963 -0.2030 -0.7266
  593MOL0     C78150  10.562   4.474  10.368 -0.3039 -0.4240  0.1028
  593MOL0     C78151  10.467   4.455  10.471  0.5929 -0.1374 -0.1466
  593MOL0     O78152  10.337   4.489  10.457 -1.0102  0.4484 -0.3318
  593MOL0     C78153  10.319   4.630  10.426 -0.1253 -0.0221 -0.7116
  593MOL0     C78154  10.230   4.643  10.300  0.3008 -1.3177 -0.1499
  593MOL0     C78155  10.089   4.682  10.345  0.0061 -0.7424 -0.0202
  593MOL0     C78156  10.002   4.740  10.234 -0.2653  0.1855 -0.6209
  593MOL0     C78157   9.863   4.761  10.288  0.4765 -1.0859  0.0540
  593MOL0     C78158   9.785   4.833  10.186  0.4008 -0.1126 -0.0482
  593MOL0     C78159   9.654   4.879  10.254  1.1591  0.5944  0.0936
  593MOL0     C78160   9.659   5.002  10.347 -0.1750  0.2808 -0.3577
  593MOL0     N78161   9.723   5.114  10.280 -0.2765  0.2208  0.1378
  593MOL0     C78162   9.857   5.134  10.268 -0.0897 -0.2186  1.2915
  593MOL0     C78163   9.869   5.256  10.204 -0.0064 -0.1762  0.2095
  593MOL0     C78164   9.984   5.303  10.136  0.0328 -0.7480 -0.4751
  593MOL0     C78165  10.108   5.300  10.222 -0.8600  0.4270 -0.6550
  593MOL0     C78166  10.219   5.334  10.124 -0.7371  0.0285 -0.2279
  593MOL0     C78167  10.362   5.296  10.173  0.3022 -0.6457 -0.7220
  593MOL0     O78168  10.458   5.392  10.124  0.1663 -0.4435  0.1794
  593MOL0     C78169  10.587   5.342  10.116 -0.2394  0.2700 -0.1779
  593MOL0     C78170  10.639   5.322   9.988  0.2366 -0.0792 -0.7041
  593MOL0     C78171  10.762   5.271   9.967  0.6880  0.7254 -0.7287
  593MOL0     C78172  10.844   5.242  10.075  0.0450 -0.1437  0.2707
  593MOL0     C78173  10.982   5.201  10.055  0.2659 -0.6904  0.1314
  593MOL0     O78174  11.061   5.192  10.172  0.0729  0.4789  0.4176
  593MOL0     C78175  11.197   5.183  10.147 -0.0027  0.2508 -0.4996
  593MOL0     C78176  11.258   5.058  10.170  0.3661  0.4491  0.5500
  593MOL0     C78177  11.396   5.043  10.152  0.2458 -0.9781 -0.2919
  593MOL0     C78178  11.485   5.154  10.114  0.0306 -0.6217  0.6198
  593MOL0     O78179  11.619   5.133  10.115 -0.2573  0.2097  0.3317
  593MOL0     C78180  11.708   5.243  10.071 -0.3285 -0.4001  0.1238
  593MOL0     C78181  11.847   5.181  10.069  0.2720  0.2143  0.0962
  593MOL0     C78182  11.962   5.274  10.048  0.8389  0.5954 -0.9545
  593MOL0     C78183  12.096   5.218  10.025 -0.4014  0.7481 -0.1134
  593MOL0     C78184  12.157   5.159  10.158  0.0468  0.7008  0.5657
  593MOL0     C78185  12.275   5.073  10.127  0.3944  0.2962  0.7754
  593MOL0     C78186  12.314   4.988  10.247  0.1661  1.5360 -0.8130
  593MOL0     C78187  12.468   4.969  10.243  0.0185 -0.1784  0.5561
  593MOL0    Cl78188  12.518   4.868  10.104  0.7545  0.2740  0.0731
  593MOL0     C78189  11.418   5.277  10.091 -0.3950 -0.2018 -0.0918
  593MOL0     C78190  11.278   5.287  10.111 -0.2213  0.0759  0.2018
  593MOL0     O78191  11.022   5.204   9.940 -0.5777  0.2352  0.1601
  593MOL0     C78192  10.795   5.258  10.202 -0.7492  0.1434 -0.3812
  593MOL0     C78193  10.670   5.319  10.220  0.5055  0.5532  0.2546
  593MOL0     N78194   9.746   5.317  10.199 -0.1342  0.5386  0.4810
  593MOL0     N78195   9.663   5.230  10.234  0.4293 -0.4150 -0.3046
  593MOL0     C78196  10.516   4.382  10.579  0.1790  0.2047  0.1018
  593MOL0     C78197  10.644   4.343  10.601 -0.1000 -0.0045 -0.2090
  593MOL0     C78198  11.058   4.199  10.548 -0.6380 -0.3239 -0.4694
  593MOL0     C78199  11.147   4.295  10.494 -0.4375 -0.4582  0.3916
  593MOL0     C78200  11.280   4.258  10.470 -1.3164  0.0976  0.1115
  593MOL0     C78201  11.334   4.138  10.516  0.8870  0.1633  0.5696
  593MOL0     O78202  11.466   4.102  10.487 -0.5320 -0.6833 -0.0555
  593MOL0     C78203  11.572   4.176  10.546  0.4303  1.0997 -0.1449
  593MOL0     C78204  11.695   4.094  10.519 -0.1871 -0.0986  0.6666
  593MOL0     C78205  11.740   4.090  10.371  0.8945  0.3105  0.2604
  593MOL0     C78206  11.843   4.187  10.325  0.4609  0.6253 -0.0308
  593MOL0     C78207  11.979   4.123  10.336 -0.5825 -1.6535 -0.3598
  593MOL0     C78208  12.086   4.072  10.346 -0.7171 -0.4317  0.2745
  593MOL0     C78209  11.244   4.047  10.574  0.0022  0.1933 -0.7656
  593MOL0     C78210  11.107   4.077  10.589  0.1781  0.6394 -0.8238
  593MOL0     H78211  10.773   4.442  10.302  3.8686 -1.8703  1.9366
  593MOL0     H78212  10.546   4.531  10.277  4.0397 -0.6408 -0.9978
  593MOL0     H78213  10.411   4.681  10.397  0.8339 -0.8441  0.7598
  593MOL0     H78214  10.285   4.676  10.519 -1.4879 -0.1997 -1.1068
  593MOL0     H78215  10.222   4.543  10.257  3.6173 -2.0098  0.5372
  593MOL0     H78216  10.275   4.719  10.235 -1.1033 -1.3994 -1.2823
  593MOL0     H78217  10.096   4.758  10.424  0.3329 -1.4748  0.6740
  593MOL0     H78218  10.036   4.596  10.387 -0.2539  1.0929  3.9467
  593MOL0     H78219  10.045   4.833  10.196  0.0621 -0.2798 -1.4080
  593MOL0     H78220   9.993   4.662  10.158 -1.3580  2.2380 -2.7139
  593MOL0     H78221   9.874   4.830  10.372  0.5759 -2.4098  1.1502
  593MOL0     H78222   9.803   4.673  10.315 -1.0964  0.0409  0.3887
  593MOL0     H78223   9.758   4.764  10.105 -0.2102  0.6291 -0.4915
  593MOL0     H78224   9.837   4.916  10.138 -0.1809  0.4316  0.2449
  593MOL0     H78225   9.582   4.901  10.175  1.3959  0.1834 -0.2377
  593MOL0     H78226   9.610   4.797  10.311  0.6281  0.8473  0.0511
  593MOL0     H78227   9.707   4.994  10.444 -1.0603  0.5131  0.1106
  593MOL0     H78228   9.559   5.037  10.374  0.4501 -0.5510  3.6977
  593MOL0     H78229   9.933   5.058  10.286  0.1578  0.2132  2.1207
  593MOL0     H78230   9.954   5.398  10.091 -4.4559  0.2393  3.7157
  593MOL0     H78231   9.990   5.226  10.057  0.9094 -1.6587  0.4478
  593MOL0     H78232  10.118   5.202  10.269  1.6972  1.1525  0.4767
  593MOL0     H78233  10.091   5.379  10.296 -0.1858  1.2089 -1.3123
  593MOL0     H78234  10.200   5.273  10.036 -0.6816 -0.9890  0.4559
  593MOL0     H78235  10.212   5.440  10.098 -1.8391  1.0566  3.5673
  593MOL0     H78236  10.394   5.203  10.126 -0.4149 -1.3760  0.1757
  593MOL0     H78237  10.358   5.302  10.282  0.8456  1.1348 -0.7812
  593MOL0     H78238  10.573   5.337   9.904 -0.3712  0.5719 -0.1249
  593MOL0     H78239  10.789   5.273   9.862 -1.9702  0.7646 -1.4766
  593MOL0     H78240  11.193   4.975  10.196  2.5724 -1.0952  1.4902
  593MOL0     H78241  11.441   4.948  10.179 -1.9958 -1.9458  0.2525
  593MOL0     H78242  11.718   5.328  10.139  1.5268  0.2115 -0.8252
  593MOL0     H78243  11.680   5.286   9.974  0.5165 -1.4835 -0.6339
  593MOL0     H78244  11.851   5.109   9.988 -1.7239  0.5912 -0.4024
  593MOL0     H78245  11.867   5.131  10.164  2.8209  2.6838  0.9993
  593MOL0     H78246  11.962   5.338  10.137 -4.8468 -0.2948  0.0566
  593MOL0     H78247  11.941   5.339   9.963 -0.8653  1.5948  0.1777
  593MOL0     H78248  12.079   5.133   9.958  0.5544  1.1715 -0.9046
  593MOL0     H78249  12.173   5.283   9.984  1.3394 -0.2410  1.4475
  593MOL0     H78250  12.080   5.105  10.214 -1.3109  3.8516  1.9841
  593MOL0     H78251  12.184   5.250  10.213 -0.1622  0.0501  1.7939
  593MOL0     H78252  12.351   5.147  10.098 -0.2391 -0.0029 -1.9183
  593MOL0     H78253  12.262   5.012  10.038 -0.7265  1.7983 -0.1258
  593MOL0     H78254  12.283   5.029  10.344  1.1325 -1.2565  0.8006
  593MOL0     H78255  12.264   4.891  10.250  2.8020  0.0177 -2.0073
  593MOL0     H78256  12.487   4.911  10.334  0.0415 -2.5700 -0.8908
  593MOL0     H78257  12.518   5.065  10.232  1.9400 -1.2186 -0.3236
  593MOL0     H78258  11.484   5.362  10.072 -1.5450  0.5515 -0.7975
  593MOL0     H78259  11.235   5.386  10.109  0.2060  0.2605 -0.9046
  593MOL0     H78260  10.856   5.237  10.289 -1.5478  1.9211  0.6650
  593MOL0     H78261  10.639   5.334  10.323  1.5194  2.6158  0.3183
  593MOL0     H78262  10.442   4.358  10.654  2.5440  0.0462  2.5500
  593MOL0     H78263  10.679   4.292  10.690  0.7062  1.1954  0.1947
  593MOL0     H78264  11.111   4.389  10.453 -3.0250 -1.8283 -0.7191
  593MOL0     H78265  11.356   4.321  10.424 -0.6733  0.3679  1.4981
  593MOL0     H78266  11.560   4.192  10.654 -0.6606 -1.2995  0.1481
  593MOL0     H78267  11.580   4.277  10.504  1.4476  1.1229  0.0751
  593MOL0     H78268  11.776   4.126  10.586  0.7276 -0.6980 -0.1327
  593MOL0     H78269  11.679   3.989  10.544 -1.3756 -0.2493 -0.6602
  593MOL0     H78270  11.654   4.111  10.306  2.5166  0.5436 -1.9118
  593MOL0     H78271  11.763   3.991  10.330 -0.5290  1.2388 -3.1993
  593MOL0     H78272  11.821   4.213  10.221  0.5354  1.2091  0.0922
  593MOL0     H78273  11.832   4.279  10.383 -1.0879 -0.4338  1.4508
  593MOL0     H78274  12.184   4.030  10.357  0.8054  1.8261 -3.0739
  593MOL0     H78275  11.282   3.951  10.606 -0.7764  0.2306  0.3329
  593MOL0     H78276  11.037   4.002  10.625  0.9176 -0.2715 -1.2385
  594MOL0     O78277   0.363   7.449   9.530  0.5336 -0.0154 -0.3880
  594MOL0     C78278   0.406   7.564   9.526  0.5733 -0.1750  0.1159
  594MOL0     O78279   0.351   7.676   9.584  0.3998 -0.0462 -0.1112
  594MOL0     C78280   0.225   7.660   9.630  0.0248 -0.2025 -0.0508
  594MOL0     C78281   0.123   7.601   9.559 -0.2478  1.2720 -0.1129
  594MOL0     C78282  -0.004   7.600   9.622 -0.3429 -0.0627  0.3306
  594MOL0     C78283  -0.028   7.643   9.750 -0.0219  0.0066 -0.3759
  594MOL0     O78284  -0.142   7.628   9.822 -0.3362  0.1945  0.0156
  594MOL0     C78285  -0.230   7.524   9.765  0.3225  0.6047 -0.6372
  594MOL0     C78286  -0.341   7.497   9.861  0.0321 -0.1297  0.3064
  594MOL0     C78287  -0.410   7.359   9.840 -0.5948  0.4437 -0.7903
  594MOL0     C78288  -0.522   7.351   9.939  0.4411  0.6080 -0.2632
  594MOL0     C78289  -0.599   7.216   9.950 -0.0332  0.0840 -0.2209
  594MOL0     C78290  -0.718   7.234  10.038  0.2195  0.7275 -0.1746
  594MOL0     C78291  -0.783   7.100  10.054 -0.2670  0.2483  0.6150
  594MOL0     C78292  -0.704   6.988  10.130 -0.9876 -0.9525 -0.4881
  594MOL0     N78293  -0.742   6.854  10.080  0.4227  0.1130 -0.1745
  594MOL0     C78294  -0.726   6.735  10.147  0.0563  0.6499  0.1587
  594MOL0     C78295  -0.765   6.638  10.050 -0.6356  0.3458 -0.0920
  594MOL0     C78296  -0.776   6.496  10.077 -0.1988 -0.6343  1.1451
  594MOL0     C78297  -0.653   6.429  10.007 -0.1837 -1.3104 -0.2446
  594MOL0     C78298  -0.657   6.282  10.010  1.2356 -0.3146  1.3418
  594MOL0     C78299  -0.608   6.228  10.145 -0.2297 -0.6660 -0.6509
  594MOL0     O78300  -0.489   6.290  10.193 -0.5257 -0.3431 -0.8544
  594MOL0     C78301  -0.366   6.238  10.165  0.3462  1.3073 -0.7933
  594MOL0     C78302  -0.257   6.308  10.207 -0.4395 -0.6768  1.0112
  594MOL0     C78303  -0.127   6.286  10.163 -0.8168  0.1216  0.5097
  594MOL0     C78304  -0.093   6.169  10.086  0.3623 -0.0608  0.9755
  594MOL0     C78305   0.043   6.135  10.039  0.2147 -0.3414  0.3406
  594MOL0     O78306   0.132   6.233  10.060  0.5117 -0.2832 -0.4470
  594MOL0     C78307   0.258   6.207  10.006  0.6018 -1.1873 -0.5528
  594MOL0     C78308   0.286   6.267   9.880 -0.2878 -0.9436 -1.1311
  594MOL0     C78309   0.408   6.234   9.819 -0.0293  0.5385  0.4064
  594MOL0     C78310   0.510   6.176   9.890  0.3223  0.4307  0.4903
  594MOL0     O78311   0.621   6.177   9.810 -0.7766 -0.9066  0.1158
  594MOL0     C78312   0.748   6.164   9.885 -0.6746 -0.3389  0.6365
  594MOL0     C78313   0.805   6.013   9.876  0.7075 -0.9351 -0.4190
  594MOL0     C78314   0.926   6.005   9.969  0.3139  0.0487 -0.1880
  594MOL0     C78315   0.975   5.868   9.998 -0.3455 -0.9516 -0.5897
  594MOL0     C78316   1.074   5.865  10.115 -0.3074  0.1997 -0.2530
  594MOL0     C78317   1.156   5.728  10.111 -0.2596  0.5833  0.8974
  594MOL0     C78318   1.225   5.707  10.255  0.0399 -0.0421  0.0948
  594MOL0     C78319   1.317   5.586  10.268  0.2061 -0.7383  0.3872
  594MOL0    Cl78320   1.460   5.609  10.156 -0.3632  0.0666  0.1837
  594MOL0     C78321   0.489   6.126  10.015 -0.4728 -1.1151  0.2604
  594MOL0     C78322   0.359   6.135  10.068  0.1553  0.0358  0.0020
  594MOL0     O78323   0.063   6.040   9.972  0.0265 -0.3981 -0.4849
  594MOL0     C78324  -0.201   6.085  10.058  0.3017 -0.0545 -0.1554
  594MOL0     C78325  -0.338   6.118  10.096  0.3770  0.4046 -0.3001
  594MOL0     N78326  -0.793   6.706   9.931 -0.0609  1.3203 -0.4217
  594MOL0     N78327  -0.799   6.827   9.957 -0.4929 -0.6261  0.3714
  594MOL0     C78328   0.079   7.691   9.823 -0.1127 -0.1709  0.6051
  594MOL0     C78329   0.202   7.706   9.761 -0.7667  0.0355  0.1638
  594MOL0     C78330   0.542   7.579   9.455 -0.0217 -0.8495  0.0165
  594MOL0     C78331   0.590   7.497   9.348 -0.0726  0.1372 -0.5174
  594MOL0     C78332   0.717   7.515   9.295  0.1840  0.2070 -0.2865
  594MOL0     C78333   0.800   7.615   9.335  0.3711 -0.1351 -0.6164
  594MOL0     O78334   0.922   7.628   9.275  0.1718  0.5356  0.2853
  594MOL0     C78335   0.990   7.749   9.302 -0.0102  0.1573 -1.3292
  594MOL0     C78336   1.094   7.772   9.192  0.1243  0.2880 -0.1097
  594MOL0     C78337   1.181   7.899   9.214  0.4607 -0.0715  1.1830
  594MOL0     C78338   1.292   7.913   9.103  0.5757 -0.0383  0.0376
  594MOL0     C78339   1.363   8.039   9.107 -0.2511 -0.6009 -0.1620
  594MOL0     C78340   1.410   8.154   9.102 -0.4306  0.7146 -0.1720
  594MOL0     C78341   0.757   7.692   9.442  0.0375 -0.4473 -0.2325
  594MOL0     C78342   0.632   7.674   9.502 -0.7775  0.4558  0.4589
  594MOL0     H78343   0.134   7.546   9.466 -2.4568  0.9784 -0.2504
  594MOL0     H78344  -0.087   7.554   9.569 -1.4493  2.0098  0.1512
  594MOL0     H78345  -0.166   7.440   9.737 -2.5570 -1.7816 -0.5558
  594MOL0     H78346  -0.279   7.557   9.673 -3.5157 -0.8713  0.6768
  594MOL0     H78347  -0.417   7.573   9.840 -1.5272 -0.7777  3.1189
  594MOL0     H78348  -0.312   7.515   9.965  1.6549  1.2583 -0.3442
  594MOL0     H78349  -0.341   7.276   9.851  0.9959  1.5706 -1.7930
  594MOL0     H78350  -0.443   7.364   9.735  1.5342  4.0134 -1.4717
  594MOL0     H78351  -0.493   7.379  10.040  0.2567 -2.5807  0.7757
  594MOL0     H78352  -0.601   7.419   9.903 -1.3209 -1.0980  0.2011
  594MOL0     H78353  -0.531   7.151  10.005  0.7792  1.1261  0.0408
  594MOL0     H78354  -0.627   7.175   9.853 -0.8511 -3.4681  1.3635
  594MOL0     H78355  -0.789   7.300   9.988 -1.9302 -1.4858 -0.2503
  594MOL0     H78356  -0.690   7.284  10.132  2.1704 -1.7446  0.6779
  594MOL0     H78357  -0.872   7.109  10.117  0.8058 -4.6395  3.4044
  594MOL0     H78358  -0.815   7.065   9.955 -2.5919 -0.0023  1.3935
  594MOL0     H78359  -0.742   6.990  10.233 -2.0647  1.7835 -0.8443
  594MOL0     H78360  -0.596   7.002  10.133 -0.8953 -0.7230 -2.9181
  594MOL0     H78361  -0.700   6.708  10.248 -0.1499  0.4712  0.1652
  594MOL0     H78362  -0.865   6.461  10.023 -0.0066 -2.7752  2.1251
  594MOL0     H78363  -0.788   6.466  10.182 -0.1803 -3.8807  0.3266
  594MOL0     H78364  -0.565   6.464  10.061  1.4779 -2.2785 -2.1672
  594MOL0     H78365  -0.642   6.459   9.902  1.5467 -2.3750 -0.3947
  594MOL0     H78366  -0.752   6.242   9.975  1.5895 -1.5104  1.7232
  594MOL0     H78367  -0.585   6.242   9.938 -1.4294 -1.7914 -0.7063
  594MOL0     H78368  -0.597   6.120  10.133  0.6178 -0.7114  0.4258
  594MOL0     H78369  -0.690   6.241  10.216  0.4907  2.2522 -0.2414
  594MOL0     H78370  -0.287   6.397  10.262  0.6682 -0.2745  0.9986
  594MOL0     H78371  -0.060   6.354  10.213  0.7430  0.1421 -1.4701
  594MOL0     H78372   0.209   6.316   9.821 -3.2786 -0.2497  2.9225
  594MOL0     H78373   0.431   6.294   9.732 -0.1621  1.5845  1.0713
  594MOL0     H78374   0.720   6.197   9.986 -1.5692 -1.8049  0.9046
  594MOL0     H78375   0.818   6.225   9.827  1.4798 -2.9521  0.2906
  594MOL0     H78376   0.842   5.989   9.776 -2.8543 -3.3333 -1.3633
  594MOL0     H78377   0.722   5.947   9.901 -1.1814  0.5761 -2.3840
  594MOL0     H78378   0.908   6.049  10.067 -2.3590  3.7206 -2.0999
  594MOL0     H78379   1.004   6.065   9.923  0.5583  3.0561  3.6287
  594MOL0     H78380   0.901   5.793  10.028 -0.9878 -0.6890 -1.4824
  594MOL0     H78381   1.032   5.845   9.907  0.1409  2.8929 -1.4138
  594MOL0     H78382   1.021   5.873  10.210  1.7872  3.6814  0.7859
  594MOL0     H78383   1.138   5.953  10.102  0.0064 -0.0683 -0.5537
  594MOL0     H78384   1.228   5.730  10.028 -0.0900 -1.8799  0.8993
  594MOL0     H78385   1.075   5.655  10.100  0.6923 -0.9440  3.2694
  594MOL0     H78386   1.289   5.792  10.283  0.1461  0.5406 -1.7785
  594MOL0     H78387   1.145   5.691  10.328 -0.8081  2.0508 -0.2817
  594MOL0     H78388   1.262   5.493  10.251 -0.5858 -0.1696 -0.2522
  594MOL0     H78389   1.357   5.579  10.370  2.5416 -0.4620 -0.4470
  594MOL0     H78390   0.565   6.086  10.082  1.5130  0.3853 -0.9649
  594MOL0     H78391   0.352   6.086  10.164  1.2740  0.4606  0.3277
  594MOL0     H78392  -0.176   5.994  10.005  1.9906 -0.0545  0.5441
  594MOL0     H78393  -0.414   6.044  10.074  3.3365 -2.4553 -1.7144
  594MOL0     H78394   0.056   7.714   9.926 -1.1038 -0.1291  0.3834
  594MOL0     H78395   0.275   7.757   9.824 -2.5945  1.8021  0.9548
  594MOL0     H78396   0.523   7.414   9.328 -0.6692  0.5768 -0.3927
  594MOL0     H78397   0.753   7.449   9.216 -0.0266  0.3121 -0.4694
  594MOL0     H78398   1.053   7.742   9.391 -0.3614  0.7003 -1.0301
  594MOL0     H78399   0.911   7.824   9.310 -0.9862 -1.0197  1.0049
  594MOL0     H78400   1.152   7.681   9.175 -0.4053 -0.5622  2.2556
  594MOL0     H78401   1.036   7.802   9.103 -0.4402  2.2371  0.8515
  594MOL0     H78402   1.218   7.911   9.316  0.5324  1.6513  0.9921
  594MOL0     H78403   1.112   7.984   9.202 -0.3798 -0.5618  2.4218
  594MOL0     H78404   1.366   7.834   9.118 -0.7374 -1.9349 -2.5427
  594MOL0     H78405   1.243   7.903   9.006 -1.1133 -0.2093  0.8804
  594MOL0     H78406   1.465   8.245   9.100 -1.3000  1.2451 -0.2884
  594MOL0     H78407   0.822   7.754   9.502  0.1853 -1.3193  0.5335
  594MOL0     H78408   0.611   7.739   9.586 -2.1204 -0.4172  0.8308
  595MOL0     O78409   9.346   5.637   0.937 -0.4359  0.1754  0.3346
  595MOL0     C78410   9.325   5.535   0.873  0.0547  0.1032  0.7828
  595MOL0     O78411   9.406   5.425   0.855  0.3926  0.0194  0.0206
  595MOL0     C78412   9.527   5.435   0.914  0.4008 -0.0300 -0.4937
  595MOL0     C78413   9.553   5.404   1.048  0.1859 -0.0233  0.5702
  595MOL0     C78414   9.685   5.400   1.095 -0.2348  0.0620  0.0320
  595MOL0     C78415   9.786   5.433   1.015  0.1709  0.6826  0.1793
  595MOL0     O78416   9.907   5.443   1.081 -0.3356  0.3614  0.4330
  595MOL0     C78417  10.000   5.549   1.054  0.0793  0.1544 -1.0044
  595MOL0     C78418  10.129   5.526   1.120 -0.5154  0.7320 -0.0918
  595MOL0     C78419  10.132   5.562   1.274  0.4652  0.0960 -0.2565
  595MOL0     C78420  10.046   5.468   1.368  0.8178 -0.0323  0.0982
  595MOL0     C78421  10.027   5.526   1.512  0.1213 -0.3114  0.2954
  595MOL0     C78422   9.922   5.639   1.519  0.0973  0.1914  0.5987
  595MOL0     C78423   9.785   5.603   1.447  0.4418 -1.2523 -0.1549
  595MOL0     C78424   9.676   5.703   1.494 -0.4501  0.0480 -0.0645
  595MOL0     N78425   9.550   5.652   1.468 -0.3752  0.2054  0.1327
  595MOL0     C78426   9.482   5.665   1.345 -0.1944  0.1399 -0.1697
  595MOL0     C78427   9.372   5.591   1.371  0.7176 -0.2721 -0.1768
  595MOL0     C78428   9.271   5.561   1.269 -0.8827 -0.0692 -0.2553
  595MOL0     C78429   9.123   5.545   1.311 -0.0427 -0.1406  0.0507
  595MOL0     C78430   9.029   5.520   1.190  0.0679 -0.9289  0.4588
  595MOL0     C78431   8.881   5.488   1.230 -0.1420  0.5172 -0.1246
  595MOL0     O78432   8.794   5.532   1.124 -0.2962  0.0440  0.4731
  595MOL0     C78433   8.690   5.442   1.107 -0.5282  0.1966 -0.8017
  595MOL0     C78434   8.663   5.405   0.978  0.5049  0.2487  0.8047
  595MOL0     C78435   8.561   5.318   0.940 -0.6454  0.1932 -0.0509
  595MOL0     C78436   8.476   5.267   1.041 -0.2061 -0.3467 -0.8314
  595MOL0     C78437   8.366   5.181   1.009  0.5774 -0.3401 -0.4595
  595MOL0     O78438   8.366   5.120   0.890 -0.0619 -0.3725  0.5051
  595MOL0     C78439   8.260   5.035   0.856  0.6193  0.6827 -0.1110
  595MOL0     C78440   8.139   5.069   0.781 -0.1949 -0.3391  0.5340
  595MOL0     C78441   8.046   4.974   0.740  0.1696  0.2603  0.8955
  595MOL0     C78442   8.065   4.841   0.767  1.0239  0.0722  0.0264
  595MOL0     O78443   7.963   4.753   0.725 -0.2592 -0.3533 -0.7537
  595MOL0     C78444   7.978   4.616   0.745  0.1295  1.1655 -0.4559
  595MOL0     C78445   7.874   4.543   0.654 -0.2357  0.3928 -0.2042
  595MOL0     C78446   7.728   4.578   0.643 -0.7596 -0.2768 -0.7826
  595MOL0     C78447   7.696   4.735   0.641 -0.6977 -0.0981  0.0521
  595MOL0     C78448   7.545   4.764   0.611 -0.6360  1.0764  0.9026
  595MOL0     C78449   7.519   4.913   0.597  0.5782 -0.0646 -0.4259
  595MOL0     C78450   7.486   4.961   0.741 -0.6704 -0.1131 -0.1918
  595MOL0     C78451   7.429   5.097   0.738 -0.4204  0.1857  0.0942
  595MOL0    Cl78452   7.399   5.180   0.894  0.0006  0.1884  0.2664
  595MOL0     C78453   8.178   4.799   0.843  0.9083 -0.2237  1.3040
  595MOL0     C78454   8.268   4.900   0.892 -0.5607 -0.3078 -0.3649
  595MOL0     O78455   8.287   5.150   1.096 -0.4046 -0.6396  0.1033
  595MOL0     C78456   8.506   5.293   1.176 -0.0423 -0.1818 -0.8357
  595MOL0     C78457   8.608   5.391   1.207  0.7284 -0.4321  0.2776
  595MOL0     N78458   9.362   5.551   1.501 -0.0355 -0.5652 -0.4448
  595MOL0     N78459   9.474   5.577   1.556 -0.5889 -0.5210 -0.4890
  595MOL0     C78460   9.770   5.452   0.876  0.5859  0.6916 -0.6504
  595MOL0     C78461   9.637   5.441   0.828  0.1571 -0.6155 -0.0381
  595MOL0     C78462   9.198   5.532   0.790 -0.2042  1.1007  0.3572
  595MOL0     C78463   9.185   5.417   0.700  0.3696  0.7171 -1.1695
  595MOL0     C78464   9.067   5.407   0.627  0.0182  0.5888 -0.7115
  595MOL0     C78465   8.954   5.498   0.638  0.9764  0.3785  0.1326
  595MOL0     O78466   8.832   5.488   0.572 -0.5910  0.0276 -0.7303
  595MOL0     C78467   8.831   5.387   0.480  0.3742 -0.1260 -0.4943
  595MOL0     C78468   8.690   5.381   0.414  0.4230  0.5835  0.1090
  595MOL0     C78469   8.687   5.311   0.274 -0.7741  1.2201  0.0112
  595MOL0     C78470   8.572   5.357   0.186  0.1690 -0.0338  0.3657
  595MOL0     C78471   8.446   5.296   0.237 -0.3044  0.3269 -0.1663
  595MOL0     C78472   8.342   5.256   0.279  0.3268 -0.9901 -1.2483
  595MOL0     C78473   8.972   5.604   0.723  0.2312 -0.2237  0.4626
  595MOL0     C78474   9.086   5.621   0.799 -0.9030 -0.8765  0.2190
  595MOL0     H78475   9.477   5.371   1.118  1.2559 -2.1768  0.8010
  595MOL0     H78476   9.708   5.363   1.195  0.8304 -1.5691 -0.7846
  595MOL0     H78477   9.952   5.640   1.091  1.0346  0.1934  0.2108
  595MOL0     H78478  10.017   5.560   0.947  1.0583  2.1032 -0.6919
  595MOL0     H78479  10.193   5.601   1.073  0.5154 -0.4639 -0.6665
  595MOL0     H78480  10.181   5.432   1.100 -0.5246  0.4855  1.0051
  595MOL0     H78481  10.092   5.663   1.290  2.1564  0.1715  6.7211
  595MOL0     H78482  10.233   5.554   1.315  2.0119 -1.6686 -3.9494
  595MOL0     H78483   9.946   5.453   1.327  1.1966 -0.2269 -0.7835
  595MOL0     H78484  10.096   5.370   1.361  3.2293  1.1720 -0.6353
  595MOL0     H78485  10.125   5.561   1.547 -1.2076  1.3886  2.6265
  595MOL0     H78486  10.001   5.448   1.583  1.7549 -0.0032  1.2793
  595MOL0     H78487   9.963   5.729   1.472  1.5898  0.6433  2.5940
  595MOL0     H78488   9.909   5.658   1.626 -1.6529  1.3714  0.2212
  595MOL0     H78489   9.786   5.610   1.338 -1.0014  0.8220 -0.0889
  595MOL0     H78490   9.754   5.503   1.478 -1.1526 -0.5520  0.6200
  595MOL0     H78491   9.694   5.797   1.442 -1.8901 -0.0015 -0.6975
  595MOL0     H78492   9.678   5.713   1.603  2.0185  0.2242 -0.0705
  595MOL0     H78493   9.510   5.715   1.253 -0.4206  0.3439 -0.1297
  595MOL0     H78494   9.296   5.466   1.222 -1.2051  0.5011 -1.6093
  595MOL0     H78495   9.278   5.638   1.192  0.4933  0.0338 -0.0556
  595MOL0     H78496   9.108   5.638   1.366  2.8446 -0.0505  0.8493
  595MOL0     H78497   9.115   5.469   1.389  2.0592  1.2783  1.7482
  595MOL0     H78498   9.033   5.609   1.127  1.9189 -1.2951 -0.0120
  595MOL0     H78499   9.077   5.454   1.117 -1.3536 -0.6114 -0.7956
  595MOL0     H78500   8.837   5.516   1.326 -0.8675  0.8029 -0.5386
  595MOL0     H78501   8.888   5.380   1.246  0.7849  0.4843 -0.6430
  595MOL0     H78502   8.731   5.446   0.904 -1.7919  0.7136 -1.1791
  595MOL0     H78503   8.549   5.277   0.840  3.6963 -1.9742  0.0862
  595MOL0     H78504   8.129   5.176   0.765  1.8030  0.3418  3.1968
  595MOL0     H78505   7.972   5.008   0.669  0.6975 -3.4249 -1.6885
  595MOL0     H78506   7.955   4.586   0.848 -0.1960  0.6982 -0.6594
  595MOL0     H78507   8.078   4.579   0.724 -0.3016 -0.9263  0.8437
  595MOL0     H78508   7.874   4.437   0.684 -3.3303 -0.3628 -2.3653
  595MOL0     H78509   7.915   4.544   0.552  2.0817  1.4109  0.6855
  595MOL0     H78510   7.677   4.539   0.732 -2.3068 -0.3162 -1.6503
  595MOL0     H78511   7.679   4.525   0.561 -0.8913 -0.1209 -0.8062
  595MOL0     H78512   7.719   4.776   0.740  1.0393 -0.5741 -0.1080
  595MOL0     H78513   7.756   4.789   0.567 -0.5037 -0.2508  0.0965
  595MOL0     H78514   7.477   4.725   0.687 -3.5438  0.5662 -1.7558
  595MOL0     H78515   7.515   4.714   0.518 -0.4655 -1.1343  1.9833
  595MOL0     H78516   7.423   4.936   0.550  0.9040  0.5960 -0.7756
  595MOL0     H78517   7.588   4.977   0.542 -2.2299  2.6540 -0.9929
  595MOL0     H78518   7.411   4.895   0.785 -0.2905  0.1254  0.8480
  595MOL0     H78519   7.579   4.962   0.800  1.3556  0.5324 -3.1693
  595MOL0     H78520   7.334   5.102   0.684 -0.0637  2.4402 -0.4151
  595MOL0     H78521   7.505   5.152   0.681  1.0220 -1.2187  0.5976
  595MOL0     H78522   8.185   4.693   0.868  3.7541 -0.3217  0.3602
  595MOL0     H78523   8.357   4.872   0.948  0.3079  0.8852 -1.0907
  595MOL0     H78524   8.459   5.244   1.260 -2.1322 -1.4323 -2.6304
  595MOL0     H78525   8.622   5.419   1.311 -1.2565 -2.5843  1.2023
  595MOL0     H78526   9.846   5.481   0.805 -1.1338 -1.0209 -3.3540
  595MOL0     H78527   9.611   5.467   0.726  1.1858  0.2262 -0.1031
  595MOL0     H78528   9.251   5.331   0.691 -2.2091 -1.7144  1.1359
  595MOL0     H78529   9.057   5.309   0.580  2.2214  0.5235 -1.1636
  595MOL0     H78530   8.852   5.293   0.533  1.0537  0.2914 -0.0124
  595MOL0     H78531   8.897   5.409   0.396  1.6653 -3.0589 -0.3687
  595MOL0     H78532   8.628   5.324   0.483  0.7491  0.4669  0.3055
  595MOL0     H78533   8.649   5.482   0.403  0.6187  0.7410  0.8259
  595MOL0     H78534   8.689   5.203   0.286 -0.9255  1.0140 -1.6012
  595MOL0     H78535   8.779   5.346   0.225 -0.2596  0.1879  0.2232
  595MOL0     H78536   8.564   5.463   0.160 -0.9078 -1.0704 -4.6027
  595MOL0     H78537   8.588   5.320   0.084  2.0335 -1.8633  1.2458
  595MOL0     H78538   8.249   5.220   0.319  0.2256 -1.7194 -2.1047
  595MOL0     H78539   8.883   5.665   0.740 -1.2587 -2.1378 -0.1031
  595MOL0     H78540   9.095   5.705   0.867  2.8152 -0.2692 -0.8108
  596MOL0     O78541   8.938  10.102   6.823 -0.3244  0.3246 -0.1085
  596MOL0     C78542   8.979  10.193   6.897 -0.3429 -0.9483  0.0875
  596MOL0     O78543   9.080  10.279   6.863  0.0092  0.3783 -0.5640
  596MOL0     C78544   9.158  10.264   6.757 -0.6038 -0.1013 -0.1858
  596MOL0     C78545   9.102  10.245   6.630 -0.4232 -0.7137 -0.0885
  596MOL0     C78546   9.187  10.243   6.519  0.0218  0.2949  0.4287
  596MOL0     C78547   9.326  10.254   6.532 -0.3495 -1.1034  0.1500
  596MOL0     O78548   9.418  10.239   6.431  0.0143  0.6875  0.2727
  596MOL0     C78549   9.385  10.290   6.297 -0.1184 -0.9289  0.2145
  596MOL0     C78550   9.405  10.167   6.205 -0.3553 -0.2964  0.5376
  596MOL0     C78551   9.269  10.086   6.210 -0.3889 -0.5255  0.0955
  596MOL0     C78552   9.277   9.978   6.102  0.1806 -0.5249 -0.5695
  596MOL0     C78553   9.148   9.892   6.125 -0.3558 -0.2697 -0.1706
  596MOL0     C78554   9.010   9.969   6.127  1.3939  1.0162  0.7141
  596MOL0     C78555   8.914   9.938   6.249  0.1840 -0.1907 -0.0842
  596MOL0     C78556   8.795  10.036   6.252  0.1376  0.1661  0.7176
  596MOL0     N78557   8.727  10.037   6.124 -1.2645  0.0922 -0.5973
  596MOL0     C78558   8.641   9.947   6.083  0.6617 -0.7704  0.2500
  596MOL0     C78559   8.589  10.013   5.975  0.6799  0.3036  0.5528
  596MOL0     C78560   8.481   9.943   5.892  0.6297 -0.4715  0.1436
  596MOL0     C78561   8.459  10.026   5.761 -0.1328 -0.2779 -0.7515
  596MOL0     C78562   8.545   9.964   5.650  0.7114 -0.1382  0.3712
  596MOL0     C78563   8.694   9.988   5.666  0.7494  0.6287 -0.6195
  596MOL0     O78564   8.770   9.922   5.554 -0.4813 -0.0112 -1.1291
  596MOL0     C78565   8.903   9.956   5.539 -0.7606  0.5851 -0.8776
  596MOL0     C78566   8.975   9.887   5.446  0.4750  0.1038 -0.2813
  596MOL0     C78567   9.107   9.917   5.423 -1.0500 -0.2932 -0.3207
  596MOL0     C78568   9.173  10.015   5.494  0.0599  0.5760 -0.0841
  596MOL0     C78569   9.321  10.042   5.467 -0.1383 -0.7918 -0.8425
  596MOL0     O78570   9.393   9.968   5.380 -0.1854 -0.3329 -0.4707
  596MOL0     C78571   9.524  10.014   5.364  0.2685 -0.2762 -1.1387
  596MOL0     C78572   9.557  10.113   5.284  0.5117 -0.4661 -0.1650
  596MOL0     C78573   9.688  10.159   5.272 -0.2172 -0.5003 -1.0560
  596MOL0     C78574   9.784  10.101   5.353  0.7371 -0.0694 -0.7768
  596MOL0     O78575   9.911  10.140   5.328 -0.4847 -0.2583 -0.4600
  596MOL0     C78576  10.009  10.035   5.323 -0.3628 -0.5537  0.3063
  596MOL0     C78577  10.134  10.093   5.274 -0.8106 -1.0022  0.5739
  596MOL0     C78578  10.223   9.977   5.231  0.0841 -0.4342  0.5920
  596MOL0     C78579  10.370  10.027   5.202 -0.6015  0.1170  0.8793
  596MOL0     C78580  10.466   9.912   5.173  0.1818  0.0990  1.3770
  596MOL0     C78581  10.538   9.946   5.039 -0.4946  0.0614  0.0459
  596MOL0     C78582  10.645  10.053   5.080 -0.3355 -0.8111  0.8245
  596MOL0     C78583  10.702  10.104   4.953 -0.1311 -1.0138 -0.4467
  596MOL0    Cl78584  10.837  10.224   4.979  0.4691 -0.4191 -0.2543
  596MOL0     C78585   9.750  10.002   5.447  0.1376 -0.1567  0.3333
  596MOL0     C78586   9.617   9.963   5.452 -0.7192 -0.6254  1.1297
  596MOL0     O78587   9.375  10.128   5.538 -0.7819  1.0006 -0.1745
  596MOL0     C78588   9.101  10.085   5.595  0.2077  0.9415  0.1729
  596MOL0     C78589   8.963  10.057   5.617 -0.2400  0.1707 -0.2357
  596MOL0     N78590   8.654  10.129   5.951 -0.2191  0.3623  0.3656
  596MOL0     N78591   8.757  10.139   6.036 -0.6415  0.7554  0.0171
  596MOL0     C78592   9.377  10.277   6.660  0.4949 -0.7337  0.8233
  596MOL0     C78593   9.292  10.287   6.773 -0.0150 -1.3232  0.7161
  596MOL0     C78594   8.925  10.199   7.033 -0.7331  0.1068 -0.3607
  596MOL0     C78595   8.978  10.288   7.127 -0.0013  0.4166  0.3598
  596MOL0     C78596   8.924  10.294   7.262 -0.5084 -0.2083 -0.3438
  596MOL0     C78597   8.825  10.208   7.306  0.5771  0.8337  0.4336
  596MOL0     O78598   8.794  10.209   7.442  0.0914  0.6876 -0.6937
  596MOL0     C78599   8.677  10.133   7.479  0.1295  0.1302  0.3354
  596MOL0     C78600   8.544  10.187   7.421  0.5739  0.4166 -0.5427
  596MOL0     C78601   8.429  10.156   7.522 -0.7040 -0.6730  0.3138
  596MOL0     C78602   8.393  10.013   7.534  0.6174  0.1795 -0.3345
  596MOL0     C78603   8.269   9.988   7.615  1.1547 -0.2638  0.1823
  596MOL0     C78604   8.179   9.977   7.693 -0.3314  1.3024  0.2791
  596MOL0     C78605   8.773  10.117   7.208  0.0374  0.4918  0.1101
  596MOL0     C78606   8.834  10.104   7.077 -0.7487 -0.2048  0.2206
  596MOL0     H78607   8.995  10.242   6.612 -0.8507  1.6411  1.6017
  596MOL0     H78608   9.139  10.240   6.422  0.5729 -0.4357  0.1697
  596MOL0     H78609   9.462  10.364   6.273 -0.3762 -1.1718 -1.4714
  596MOL0     H78610   9.288  10.338   6.289 -1.4844 -3.5397  0.1865
  596MOL0     H78611   9.491  10.111   6.242 -1.4019 -0.3275  3.1399
  596MOL0     H78612   9.425  10.200   6.103 -0.2859 -0.4056  0.5159
  596MOL0     H78613   9.181  10.152   6.210  0.7625  1.1355  2.0519
  596MOL0     H78614   9.270  10.040   6.309  0.9760 -2.3079 -0.7022
  596MOL0     H78615   9.271  10.026   6.005 -3.2052 -3.1662 -1.8695
  596MOL0     H78616   9.368   9.917   6.106 -0.8267 -2.0417  0.9479
  596MOL0     H78617   9.155   9.831   6.216 -0.1338 -0.0773 -0.0600
  596MOL0     H78618   9.139   9.835   6.032 -1.6924  1.7775 -1.3768
  596MOL0     H78619   8.952   9.944   6.037  2.3218 -1.4472  0.7413
  596MOL0     H78620   9.029  10.075   6.108 -2.2278  1.5718 -0.8346
  596MOL0     H78621   8.877   9.836   6.233 -0.7796  0.2288 -0.5143
  596MOL0     H78622   8.964   9.944   6.347 -2.5914  0.7538  1.3619
  596MOL0     H78623   8.842  10.131   6.282  2.2886 -1.3771  2.5523
  596MOL0     H78624   8.728  10.008   6.333 -0.0333 -0.7300  0.2739
  596MOL0     H78625   8.604   9.862   6.139 -0.3858  0.4277  1.4572
  596MOL0     H78626   8.386   9.955   5.945  0.4101  1.2481 -0.5655
  596MOL0     H78627   8.502   9.838   5.872  2.2828 -0.0655 -0.3797
  596MOL0     H78628   8.494  10.130   5.766 -1.1122  0.1522 -2.1984
  596MOL0     H78629   8.354  10.023   5.732 -0.0285 -3.6833 -1.1218
  596MOL0     H78630   8.525   9.857   5.638  0.6991 -0.1034  0.0633
  596MOL0     H78631   8.507  10.000   5.554 -2.2353 -0.1292  1.4401
  596MOL0     H78632   8.727   9.949   5.763 -0.1529 -1.0615 -0.9535
  596MOL0     H78633   8.708  10.097   5.658 -1.2371  1.4344  3.7098
  596MOL0     H78634   8.936   9.801   5.393  1.9906 -0.4170 -0.6055
  596MOL0     H78635   9.154   9.846   5.356  1.8416  2.0079 -0.9607
  596MOL0     H78636   9.477  10.155   5.223 -0.6760  0.3611  1.8908
  596MOL0     H78637   9.704  10.233   5.194 -1.7493  1.0956  0.0793
  596MOL0     H78638   9.974   9.951   5.262  1.1296 -0.2308 -1.0585
  596MOL0     H78639  10.029  10.002   5.425 -1.3942  1.4240  1.2024
  596MOL0     H78640  10.185  10.157   5.346  1.2636 -2.1076  0.1511
  596MOL0     H78641  10.117  10.161   5.189  0.3310 -3.9358 -2.2151
  596MOL0     H78642  10.180   9.917   5.151  0.1701  0.9815 -0.5486
  596MOL0     H78643  10.229   9.908   5.317 -0.6463 -0.3934  0.6754
  596MOL0     H78644  10.367  10.107   5.128 -1.6131 -1.9867 -1.5149
  596MOL0     H78645  10.403  10.082   5.291 -0.3005  2.7741 -0.7603
  596MOL0     H78646  10.410   9.819   5.164  1.3109 -0.5392  0.6349
  596MOL0     H78647  10.541   9.904   5.252  0.8242  1.6317  0.9716
  596MOL0     H78648  10.463   9.985   4.969  2.2254  2.1674 -1.9112
  596MOL0     H78649  10.592   9.862   4.994  0.1239  0.4869 -0.0206
  596MOL0     H78650  10.595  10.130   5.140  0.5510 -1.3968  2.3727
  596MOL0     H78651  10.724  10.020   5.148 -0.0609  1.5409  1.7644
  596MOL0     H78652  10.624  10.156   4.898 -1.5229 -2.8795 -0.3131
  596MOL0     H78653  10.754  10.026   4.896 -0.7094  0.0068 -2.4545
  596MOL0     H78654   9.816   9.956   5.519  2.4756  2.0311 -0.2852
  596MOL0     H78655   9.588   9.876   5.510 -1.5243 -1.6786 -0.7797
  596MOL0     H78656   9.145  10.166   5.653 -0.1726  1.2388  0.0486
  596MOL0     H78657   8.911  10.110   5.696  1.4486 -1.4021  2.0983
  596MOL0     H78658   9.479  10.302   6.687 -0.3656  2.8134  1.2720
  596MOL0     H78659   9.337  10.312   6.868 -0.6759 -1.3968  1.0588
  596MOL0     H78660   9.063  10.353   7.107  1.6186 -0.7835  2.9039
  596MOL0     H78661   8.976  10.361   7.330 -2.1521 -1.0467  1.9001
  596MOL0     H78662   8.677  10.117   7.587 -0.5654 -1.5222  0.1221
  596MOL0     H78663   8.689  10.030   7.443 -0.3226  0.4682 -0.8050
  596MOL0     H78664   8.544  10.295   7.410  0.1004  0.3127 -1.8156
  596MOL0     H78665   8.526  10.140   7.324  0.2085  0.2391 -0.3887
  596MOL0     H78666   8.341  10.200   7.474 -1.3716 -1.7046  0.5738
  596MOL0     H78667   8.449  10.215   7.613 -1.2461  0.6384 -0.3898
  596MOL0     H78668   8.369   9.973   7.435 -2.5563  1.0609 -0.0299
  596MOL0     H78669   8.477   9.951   7.570  0.7085 -0.1710 -1.1367
  596MOL0     H78670   8.092   9.975   7.754 -0.1422  0.9865  0.5444
  596MOL0     H78671   8.692  10.046   7.222  0.3813  0.4348  2.1301
  596MOL0     H78672   8.794  10.021   7.019  0.8818 -3.2502  3.1075
  597MOL0     O78673   2.960   3.486   2.108 -0.5442  0.5681  0.4102
  597MOL0     C78674   2.883   3.567   2.159 -0.0019 -0.5545 -0.0881
  597MOL0     O78675   2.923   3.683   2.221  0.3591 -0.5784  0.1045
  597MOL0     C78676   3.062   3.727   2.232  0.0180 -0.0563 -0.0701
  597MOL0     C78677   3.168   3.640   2.287 -0.5994  0.4073  0.0129
  597MOL0     C78678   3.300   3.685   2.301  1.1330  0.2526 -0.4382
  597MOL0     C78679   3.325   3.816   2.268  0.7435 -0.0384 -0.9055
  597MOL0     O78680   3.453   3.865   2.273 -0.2947  0.4747  0.9429
  597MOL0     C78681   3.550   3.796   2.190  0.3478  0.2091  0.2250
  597MOL0     C78682   3.504   3.792   2.037  0.3283  0.4847  0.2344
  597MOL0     C78683   3.557   3.928   1.975 -0.2420  0.6618 -0.1939
  597MOL0     C78684   3.509   3.959   1.831 -0.3241 -0.5565  0.4228
  597MOL0     C78685   3.552   4.099   1.792  0.5529 -0.2799 -0.2581
  597MOL0     C78686   3.510   4.133   1.649  0.2002 -0.7341 -0.0713
  597MOL0     C78687   3.634   4.164   1.559  0.6345  0.4581  0.5861
  597MOL0     C78688   3.598   4.220   1.421  0.4912  0.6049 -0.7045
  597MOL0     N78689   3.545   4.107   1.339 -0.5671  0.4893  0.0455
  597MOL0     C78690   3.425   4.040   1.346  0.2455 -0.1524  0.7234
  597MOL0     C78691   3.446   3.925   1.265 -0.3213 -0.1330  0.3022
  597MOL0     C78692   3.350   3.831   1.218  0.2525  0.5944 -0.6834
  597MOL0     C78693   3.337   3.821   1.054 -0.1750  0.7760 -0.3414
  597MOL0     C78694   3.293   3.944   0.994  0.7197 -0.2015  0.6829
  597MOL0     C78695   3.144   3.981   1.005 -0.0796  1.4140  0.5238
  597MOL0     O78696   3.072   3.887   0.920  0.5624  0.1749  0.3253
  597MOL0     C78697   2.940   3.917   0.893 -1.0380 -0.5458  0.2139
  597MOL0     C78698   2.880   4.041   0.877  0.1220  0.1146 -0.1424
  597MOL0     C78699   2.737   4.047   0.846 -0.4877  0.4065 -0.1210
  597MOL0     C78700   2.664   3.937   0.828 -0.2314 -0.7250 -0.6535
  597MOL0     C78701   2.526   3.952   0.784 -0.4293  0.2379 -0.3582
  597MOL0     O78702   2.456   3.848   0.724 -0.1950 -0.1702 -0.0766
  597MOL0     C78703   2.322   3.853   0.738  0.5883  0.4667  0.5906
  597MOL0     C78704   2.242   3.906   0.631  0.2539 -0.0749 -0.8986
  597MOL0     C78705   2.102   3.918   0.648 -0.2910 -0.8195 -0.4148
  597MOL0     C78706   2.037   3.872   0.765 -0.3257  0.1566 -0.9319
  597MOL0     O78707   1.905   3.890   0.776 -1.1962  0.1980  0.2763
  597MOL0     C78708   1.845   3.864   0.898  0.0839  0.7127 -0.0205
  597MOL0     C78709   1.693   3.866   0.876 -0.2008  0.7254  0.4850
  597MOL0     C78710   1.650   3.995   0.810  0.6407  0.5511 -0.2770
  597MOL0     C78711   1.491   3.999   0.779 -0.0126  0.2174 -0.4544
  597MOL0     C78712   1.443   4.131   0.737  0.2833  0.4537  0.4240
  597MOL0     C78713   1.297   4.138   0.691  0.5507 -0.0535 -0.3045
  597MOL0     C78714   1.198   4.070   0.785  0.2108  0.7295 -0.1642
  597MOL0     C78715   1.062   4.070   0.713 -0.0475  0.1610  0.0321
  597MOL0    Cl78716   0.951   3.951   0.788  0.4772 -0.0351 -0.5164
  597MOL0     C78717   2.117   3.803   0.865  0.1564 -0.3299 -0.0654
  597MOL0     C78718   2.256   3.811   0.848  0.1085  0.3982 -0.0429
  597MOL0     O78719   2.472   4.054   0.817 -0.2863  0.5947  0.7219
  597MOL0     C78720   2.727   3.813   0.845  0.3771 -0.6126  0.4322
  597MOL0     C78721   2.863   3.808   0.861 -0.5242 -0.3897 -1.1455
  597MOL0     N78722   3.580   3.924   1.219  0.0990  0.3811 -0.2954
  597MOL0     N78723   3.631   4.036   1.257 -0.6473  0.0057  0.0325
  597MOL0     C78724   3.229   3.907   2.223 -0.3968  0.0993  0.0984
  597MOL0     C78725   3.101   3.860   2.206  0.5125 -0.9812 -0.3316
  597MOL0     C78726   2.742   3.547   2.156  0.9085  1.0297 -0.1787
  597MOL0     C78727   2.655   3.646   2.188 -0.8654  0.3180 -0.0288
  597MOL0     C78728   2.521   3.629   2.162 -0.3218 -0.1194 -1.0525
  597MOL0     C78729   2.472   3.510   2.117  0.3783 -0.6459  0.3955
  597MOL0     O78730   2.336   3.512   2.093  0.1996  0.2330  0.2935
  597MOL0     C78731   2.287   3.387   2.030 -0.8129  0.5108 -0.1845
  597MOL0     C78732   2.144   3.414   2.005 -0.5923  0.1851 -0.0744
  597MOL0     C78733   2.065   3.291   1.950  0.2147  0.1771 -0.3782
  597MOL0     C78734   1.920   3.331   1.930  0.8022 -0.5729  0.2596
  597MOL0     C78735   1.834   3.227   1.973  0.7349  0.8109 -0.5633
  597MOL0     C78736   1.768   3.136   2.024 -0.3343  0.3517 -1.1782
  597MOL0     C78737   2.558   3.402   2.097 -0.6516  0.0127  0.3032
  597MOL0     C78738   2.692   3.421   2.111 -0.3648  1.0579  0.1448
  597MOL0     H78739   3.146   3.546   2.338 -0.6510  1.4116  1.9540
  597MOL0     H78740   3.378   3.620   2.340  0.6096 -0.0594  0.0992
  597MOL0     H78741   3.566   3.694   2.227 -2.1808 -2.4908 -5.0335
  597MOL0     H78742   3.649   3.839   2.204  0.8294 -0.6160 -0.5443
  597MOL0     H78743   3.396   3.794   2.025 -0.2835 -0.1750  4.1164
  597MOL0     H78744   3.550   3.701   1.997  0.0647  1.6782 -3.0900
  597MOL0     H78745   3.666   3.933   1.973  0.1551 -3.0278  1.9966
  597MOL0     H78746   3.526   4.003   2.049 -1.1570 -1.9380  2.2677
  597MOL0     H78747   3.540   3.872   1.773  0.4050 -0.8855  1.2865
  597MOL0     H78748   3.401   3.962   1.850 -0.0604 -3.6298  3.2846
  597MOL0     H78749   3.660   4.107   1.803  0.3072 -0.3753  3.4710
  597MOL0     H78750   3.510   4.173   1.862  2.5874 -1.1133  1.9891
  597MOL0     H78751   3.450   4.224   1.644  0.6026 -0.3941  0.9232
  597MOL0     H78752   3.452   4.049   1.611  0.0523 -1.0384  0.7929
  597MOL0     H78753   3.674   4.248   1.615 -1.8966  2.7430 -0.8006
  597MOL0     H78754   3.693   4.072   1.555 -0.3245 -0.1185 -1.9523
  597MOL0     H78755   3.674   4.271   1.362 -1.1168  2.4241 -1.3240
  597MOL0     H78756   3.519   4.296   1.428  0.4001  0.7710 -2.8873
  597MOL0     H78757   3.329   4.074   1.382  0.7081  2.7968 -0.5314
  597MOL0     H78758   3.249   3.862   1.246 -0.2574 -1.2311 -0.3551
  597MOL0     H78759   3.361   3.730   1.258 -1.4181  0.7017  0.1250
  597MOL0     H78760   3.269   3.742   1.020  0.9527  0.2428 -1.4538
  597MOL0     H78761   3.436   3.788   1.020 -1.2896 -2.2447 -0.9764
  597MOL0     H78762   3.354   4.031   1.020  2.6265 -1.8055  1.9065
  597MOL0     H78763   3.307   3.940   0.885 -0.5197  0.3906  0.4857
  597MOL0     H78764   3.127   4.077   0.955 -1.5480 -0.1935 -2.3128
  597MOL0     H78765   3.110   3.984   1.109  0.0724 -0.1549  0.6389
  597MOL0     H78766   2.932   4.136   0.886 -2.0909  1.4309 -0.5525
  597MOL0     H78767   2.692   4.145   0.841 -1.7506 -0.1876 -3.5771
  597MOL0     H78768   2.291   3.941   0.540  2.3608 -0.5684  0.0006
  597MOL0     H78769   2.036   3.976   0.585  0.0057  1.4633  1.2551
  597MOL0     H78770   1.873   3.941   0.970  0.3822  1.9271 -1.3935
  597MOL0     H78771   1.866   3.769   0.949  3.1392  1.6734  0.7341
  597MOL0     H78772   1.636   3.842   0.966 -3.4259  1.1317 -1.2925
  597MOL0     H78773   1.668   3.779   0.814 -4.6707  1.9851  0.1322
  597MOL0     H78774   1.705   4.014   0.717 -0.0551 -2.9346 -1.5224
  597MOL0     H78775   1.674   4.071   0.886  0.9885 -1.0411  1.2609
  597MOL0     H78776   1.475   3.922   0.704  2.4295 -0.9867  0.1609
  597MOL0     H78777   1.441   3.971   0.872  0.7634  0.4579  0.0443
  597MOL0     H78778   1.496   4.164   0.647 -1.6132  4.1658  0.5099
  597MOL0     H78779   1.466   4.209   0.810  0.0857  1.9546 -1.0540
  597MOL0     H78780   1.281   4.082   0.599 -2.1226 -4.5995  2.5606
  597MOL0     H78781   1.263   4.238   0.662 -0.5366 -0.7470 -1.5184
  597MOL0     H78782   1.211   3.962   0.797 -0.3226  0.6212 -0.5084
  597MOL0     H78783   1.183   4.115   0.883 -3.5557  0.4359 -0.4588
  597MOL0     H78784   1.075   4.041   0.608 -1.5998  1.0395 -0.4348
  597MOL0     H78785   1.006   4.164   0.709 -0.9394 -0.3867 -3.4064
  597MOL0     H78786   2.073   3.741   0.943 -0.1036 -1.1148 -0.8126
  597MOL0     H78787   2.323   3.778   0.926 -2.1816 -0.6137  1.6025
  597MOL0     H78788   2.675   3.718   0.839  0.5009 -0.6093 -4.4755
  597MOL0     H78789   2.917   3.715   0.871 -1.8785 -1.1169 -0.2069
  597MOL0     H78790   3.266   4.003   2.190  0.6510  0.6518  2.6355
  597MOL0     H78791   3.044   3.940   2.161  2.0025  2.5523  3.3863
  597MOL0     H78792   2.698   3.741   2.217 -1.3691  1.2533 -2.1446
  597MOL0     H78793   2.450   3.710   2.171  0.4666  0.5589 -0.7562
  597MOL0     H78794   2.293   3.302   2.099  3.7299  0.8226  0.0732
  597MOL0     H78795   2.345   3.352   1.945 -0.4506 -1.5733  0.8600
  597MOL0     H78796   2.103   3.444   2.101  1.6092 -0.3185  1.0961
  597MOL0     H78797   2.141   3.496   1.932  1.2238  0.9388  0.6450
  597MOL0     H78798   2.067   3.216   2.029 -1.4671  0.8154  0.3026
  597MOL0     H78799   2.099   3.250   1.854 -0.3080 -0.9378 -0.1069
  597MOL0     H78800   1.878   3.424   1.970  3.9015  1.3815 -0.6268
  597MOL0     H78801   1.915   3.349   1.822 -0.6999 -1.8471  0.0736
  597MOL0     H78802   1.720   3.045   2.055  2.2858 -0.4203  1.0951
  597MOL0     H78803   2.533   3.301   2.068  1.5865 -0.3609 -0.4575
  597MOL0     H78804   2.765   3.347   2.082  0.5446  2.2975 -0.8335
  598MOL0     O78805   0.509   6.690   8.216  0.3640  0.1407  0.3844
  598MOL0     C78806   0.586   6.688   8.312  0.0662  0.3233 -0.4333
  598MOL0     O78807   0.539   6.660   8.444  0.4807  0.3965 -0.7069
  598MOL0     C78808   0.404   6.629   8.473  0.3517  0.6673  0.6566
  598MOL0     C78809   0.363   6.635   8.606  0.0739 -0.4758 -0.4235
  598MOL0     C78810   0.224   6.615   8.659  0.4182 -0.0969  0.1533
  598MOL0     C78811   0.130   6.568   8.566  0.6045  0.5467 -0.0026
  598MOL0     O78812   0.004   6.533   8.613  0.1413  0.7204  0.3414
  598MOL0     C78813  -0.097   6.639   8.622  0.5936 -0.6823  0.1102
  598MOL0     C78814  -0.171   6.601   8.750  0.2627 -0.9356 -0.0164
  598MOL0     C78815  -0.273   6.714   8.791 -0.1741  0.6092 -0.0422
  598MOL0     C78816  -0.334   6.687   8.931  0.4027 -0.0873 -0.5709
  598MOL0     C78817  -0.471   6.617   8.923 -0.2746  0.4772 -0.0989
  598MOL0     C78818  -0.588   6.719   8.901 -0.8024  0.4862  0.4230
  598MOL0     C78819  -0.644   6.785   9.031 -0.2861 -0.0204 -0.0643
  598MOL0     C78820  -0.800   6.790   9.031 -0.6438 -0.4662 -0.2589
  598MOL0     N78821  -0.845   6.884   8.927  0.4897  0.5552  0.7240
  598MOL0     C78822  -0.891   7.010   8.954 -0.0287 -1.0911  0.2820
  598MOL0     C78823  -0.944   7.053   8.845 -0.4368 -0.3564 -0.2055
  598MOL0     C78824  -1.013   7.184   8.816  0.0705  0.2411 -0.2801
  598MOL0     C78825  -1.156   7.188   8.876  0.2782  0.8047 -0.4341
  598MOL0     C78826  -1.245   7.068   8.837 -0.2376 -0.0580  0.1606
  598MOL0     C78827  -1.393   7.094   8.856  0.5752 -0.0720 -0.5726
  598MOL0     O78828  -1.409   7.065   8.996 -0.5344  0.9920  0.4226
  598MOL0     C78829  -1.524   7.078   9.064  0.2090  0.0253  0.3343
  598MOL0     C78830  -1.548   6.995   9.178 -0.3021 -0.3810  0.6472
  598MOL0     C78831  -1.672   7.014   9.244 -0.0224 -0.3474  1.0123
  598MOL0     C78832  -1.770   7.106   9.194 -0.6255 -0.3834  0.3034
  598MOL0     C78833  -1.905   7.112   9.263 -0.0386 -0.3833  0.4999
  598MOL0     O78834  -1.972   7.232   9.244 -0.9581  0.0428 -0.1057
  598MOL0     C78835  -2.106   7.239   9.272  0.8839 -0.9928 -0.3771
  598MOL0     C78836  -2.185   7.131   9.249  0.0011  0.3548  0.4064
  598MOL0     C78837  -2.319   7.127   9.290  0.5764 -0.1566  0.1540
  598MOL0     C78838  -2.381   7.238   9.344 -0.7491 -0.6509  0.2111
  598MOL0     O78839  -2.513   7.233   9.381 -0.6167 -0.0835  0.0450
  598MOL0     C78840  -2.590   7.350   9.393 -0.2143  0.4563 -0.5345
  598MOL0     C78841  -2.720   7.310   9.462 -0.2635  0.5255 -0.4556
  598MOL0     C78842  -2.824   7.425   9.467  0.2829  0.2643 -0.8296
  598MOL0     C78843  -2.971   7.362   9.491 -0.3606 -0.0600  0.8843
  598MOL0     C78844  -3.095   7.460   9.475  0.4180  0.2147  0.1251
  598MOL0     C78845  -3.229   7.400   9.528  0.2870 -0.1388  0.3760
  598MOL0     C78846  -3.223   7.406   9.678 -0.7083  0.0214  0.0285
  598MOL0     C78847  -3.345   7.434   9.737  0.5733  0.9827 -0.0001
  598MOL0    Cl78848  -3.390   7.600   9.712  0.2690 -0.2431  0.4539
  598MOL0     C78849  -2.295   7.350   9.370  0.4488  0.0588  0.1483
  598MOL0     C78850  -2.161   7.345   9.335 -0.4017 -1.0831 -0.3750
  598MOL0     O78851  -1.930   7.020   9.337  0.4986 -0.5568  0.0565
  598MOL0     C78852  -1.748   7.178   9.071  0.2456  0.3079 -0.3999
  598MOL0     C78853  -1.629   7.160   9.008  0.6247  0.1387  0.7294
  598MOL0     N78854  -0.945   6.948   8.756 -0.1461 -0.8307  0.4144
  598MOL0     N78855  -0.883   6.850   8.800  0.0154 -0.7490 -0.2552
  598MOL0     C78856   0.167   6.563   8.435  0.0507 -0.0846  0.1621
  598MOL0     C78857   0.296   6.592   8.387  0.0261 -0.2819  0.4107
  598MOL0     C78858   0.723   6.679   8.283 -0.7007  0.3965  0.3597
  598MOL0     C78859   0.772   6.742   8.175  0.1339  0.2572  0.7452
  598MOL0     C78860   0.909   6.711   8.143  0.8111 -0.6788  0.4433
  598MOL0     C78861   0.992   6.630   8.227  0.2832  0.1106 -0.3116
  598MOL0     O78862   1.113   6.592   8.198 -0.1011  0.2805 -0.4642
  598MOL0     C78863   1.199   6.645   8.094 -0.2123  0.0750  0.9264
  598MOL0     C78864   1.338   6.642   8.141 -0.7617  0.3985 -0.1360
  598MOL0     C78865   1.361   6.725   8.270 -0.7895  0.8877  0.1063
  598MOL0     C78866   1.516   6.769   8.288  0.2455  0.2335 -0.4631
  598MOL0     C78867   1.591   6.658   8.352 -0.0088 -0.1902  0.0966
  598MOL0     C78868   1.638   6.562   8.415  0.2390 -0.0516 -0.2004
  598MOL0     C78869   0.938   6.576   8.343  0.4492 -0.9847  0.1074
  598MOL0     C78870   0.808   6.605   8.377  0.5173 -0.1757 -0.4503
  598MOL0     H78871   0.437   6.673   8.676  0.1686  0.5302 -1.0409
  598MOL0     H78872   0.187   6.631   8.759  0.0032 -0.4900  0.0683
  598MOL0     H78873  -0.169   6.631   8.540 -0.1235  1.5845  0.4611
  598MOL0     H78874  -0.050   6.738   8.619  1.3080 -1.0341 -0.6938
  598MOL0     H78875  -0.098   6.592   8.832  0.5036 -1.8301 -0.3172
  598MOL0     H78876  -0.227   6.508   8.734  0.4584 -0.7297 -2.2336
  598MOL0     H78877  -0.351   6.728   8.716 -1.2111 -0.5788  0.7647
  598MOL0     H78878  -0.210   6.803   8.792 -0.4062  0.8119  2.5303
  598MOL0     H78879  -0.267   6.631   8.998 -1.7871  0.9341  2.7219
  598MOL0     H78880  -0.346   6.787   8.975 -2.9691 -1.1183  1.1709
  598MOL0     H78881  -0.485   6.557   9.014  0.6070  0.1974 -0.1415
  598MOL0     H78882  -0.459   6.542   8.844  1.7555  0.3236  0.3024
  598MOL0     H78883  -0.670   6.666   8.852 -0.6935  2.8617 -2.6071
  598MOL0     H78884  -0.559   6.781   8.816  2.2503 -1.5385 -0.1921
  598MOL0     H78885  -0.619   6.719   9.115  0.8663 -0.3766 -0.6618
  598MOL0     H78886  -0.594   6.880   9.054  0.4308 -0.6698  1.2450
  598MOL0     H78887  -0.829   6.815   9.133  1.4867 -0.1869  0.3238
  598MOL0     H78888  -0.832   6.687   9.012 -1.5706 -0.6391  1.9364
  598MOL0     H78889  -0.897   7.060   9.050  1.1003  3.1645 -1.6500
  598MOL0     H78890  -1.013   7.198   8.708 -3.6697  0.3696 -0.4023
  598MOL0     H78891  -0.951   7.266   8.853 -0.1255 -0.4064  1.5640
  598MOL0     H78892  -1.204   7.281   8.844  0.5414  0.6062 -1.4436
  598MOL0     H78893  -1.153   7.189   8.985 -0.7396 -1.0090 -0.3487
  598MOL0     H78894  -1.220   7.047   8.733  1.9824 -1.6570  0.9380
  598MOL0     H78895  -1.222   6.983   8.902 -0.1369  1.0334  1.5897
  598MOL0     H78896  -1.456   7.034   8.790 -1.0732 -1.0531  1.7447
  598MOL0     H78897  -1.417   7.197   8.830 -3.0557 -0.8844 -1.0262
  598MOL0     H78898  -1.487   6.916   9.218 -0.5689 -0.9391 -0.0253
  598MOL0     H78899  -1.684   6.935   9.317  1.9563 -1.2011  0.4882
  598MOL0     H78900  -2.158   7.038   9.201 -2.8433  0.2671 -1.2400
  598MOL0     H78901  -2.375   7.035   9.277  0.0025  0.5183 -3.1388
  598MOL0     H78902  -2.615   7.398   9.298 -3.1523  0.2366  0.0275
  598MOL0     H78903  -2.544   7.427   9.455 -3.4840  1.1496  1.2641
  598MOL0     H78904  -2.698   7.265   9.560 -2.3105  0.5574  0.0684
  598MOL0     H78905  -2.759   7.228   9.401  0.3925 -0.6882  0.7002
  598MOL0     H78906  -2.828   7.477   9.371 -4.1097 -0.1230 -1.0682
  598MOL0     H78907  -2.799   7.504   9.538 -4.0401  1.1086  0.0153
  598MOL0     H78908  -2.990   7.276   9.427  2.9845  0.0709 -0.5229
  598MOL0     H78909  -2.968   7.329   9.596  1.6861  0.3317  0.9936
  598MOL0     H78910  -3.116   7.482   9.370  0.1008  2.1155  0.5419
  598MOL0     H78911  -3.063   7.556   9.517 -2.8060  1.2488  0.4272
  598MOL0     H78912  -3.247   7.296   9.500 -2.1536 -0.2408  2.0157
  598MOL0     H78913  -3.312   7.461   9.490  1.0595  0.6831 -0.0235
  598MOL0     H78914  -3.174   7.316   9.716  0.1606  0.5857  0.2724
  598MOL0     H78915  -3.150   7.483   9.704 -0.0262  0.2392 -2.2928
  598MOL0     H78916  -3.335   7.424   9.846  2.3429  1.7935 -0.0464
  598MOL0     H78917  -3.420   7.364   9.700  1.8139  0.1811 -1.0750
  598MOL0     H78918  -2.330   7.443   9.413  2.4879  1.6021 -1.3015
  598MOL0     H78919  -2.092   7.428   9.353 -0.9414 -0.6894 -0.0934
  598MOL0     H78920  -1.823   7.240   9.021 -0.6872 -0.1983  0.3373
  598MOL0     H78921  -1.616   7.225   8.922  3.2198 -0.8987  0.2206
  598MOL0     H78922   0.096   6.518   8.365 -0.2086 -0.7321  0.8303
  598MOL0     H78923   0.314   6.579   8.281 -0.1980  0.6728  0.2484
  598MOL0     H78924   0.716   6.808   8.109  3.0377  1.7546 -0.4074
  598MOL0     H78925   0.940   6.741   8.044  0.4944 -1.3377  0.1391
  598MOL0     H78926   1.170   6.746   8.066 -2.9123 -1.2938 -1.8216
  598MOL0     H78927   1.184   6.578   8.008 -0.8604 -0.3984  1.3987
  598MOL0     H78928   1.360   6.536   8.157  0.4241  0.1859 -2.7494
  598MOL0     H78929   1.407   6.674   8.062  0.1484 -0.7233  0.1844
  598MOL0     H78930   1.331   6.659   8.352 -1.6062  0.7897 -0.2556
  598MOL0     H78931   1.295   6.812   8.265 -3.4245 -0.9628  0.5854
  598MOL0     H78932   1.563   6.785   8.190 -1.8710 -0.5165 -1.6671
  598MOL0     H78933   1.527   6.865   8.340 -1.1587  1.4916 -2.3509
  598MOL0     H78934   1.667   6.490   8.489 -1.0868 -0.3296  0.0859
  598MOL0     H78935   1.007   6.521   8.406  1.6004  0.5043  0.2105
  598MOL0     H78936   0.767   6.560   8.467  1.8340  1.2409  0.9151
  599MOL0     O78937   9.375   8.471   4.751  0.6878  0.0901 -1.5335
  599MOL0     C78938   9.405   8.356   4.775  0.7489 -0.1252  0.8223
  599MOL0     O78939   9.319   8.262   4.827 -0.2520  0.1794 -0.1952
  599MOL0     C78940   9.191   8.279   4.872 -0.2793  0.1729 -0.1970
  599MOL0     C78941   9.144   8.196   4.971 -0.7969  0.1690  0.1989
  599MOL0     C78942   9.015   8.208   5.020 -0.2591 -0.8955  0.2063
  599MOL0     C78943   8.927   8.307   4.963 -0.0100  0.1980 -0.4084
  599MOL0     O78944   8.800   8.329   4.997  0.8249  0.4100 -0.7686
  599MOL0     C78945   8.723   8.215   5.039  0.2002  0.1585 -0.5260
  599MOL0     C78946   8.584   8.284   5.064  0.6795  0.3423  0.3261
  599MOL0     C78947   8.465   8.173   5.083 -0.2438  0.3639  0.0823
  599MOL0     C78948   8.492   8.085   5.200  0.1624  0.5993 -0.2059
  599MOL0     C78949   8.406   7.961   5.185  0.3743 -0.7791 -0.5518
  599MOL0     C78950   8.423   7.876   5.307 -0.5398 -0.1764 -0.4676
  599MOL0     C78951   8.338   7.745   5.313  0.4659  0.9617 -0.2156
  599MOL0     C78952   8.201   7.781   5.351  0.1847  0.2840 -0.4728
  599MOL0     N78953   8.135   7.658   5.392  0.1119 -0.7302 -0.7267
  599MOL0     C78954   8.025   7.616   5.328  0.3491  0.2160  0.0475
  599MOL0     C78955   7.976   7.515   5.407 -0.5167 -0.1998  0.0803
  599MOL0     C78956   7.875   7.421   5.360  0.0638 -0.0914  0.4323
  599MOL0     C78957   7.737   7.467   5.406 -0.3094  0.5329  0.3711
  599MOL0     C78958   7.631   7.359   5.363  0.3728 -0.9148  0.2589
  599MOL0     C78959   7.511   7.437   5.313 -0.4999  0.2646  0.1420
  599MOL0     O78960   7.415   7.351   5.250 -0.1110 -0.4309  0.6017
  599MOL0     C78961   7.296   7.344   5.311 -0.1205 -0.6722 -0.4928
  599MOL0     C78962   7.167   7.365   5.251 -0.2410  0.5702 -0.0317
  599MOL0     C78963   7.039   7.355   5.320 -0.7961 -0.0615  0.5223
  599MOL0     C78964   7.038   7.295   5.445 -0.0348  0.5384  0.6402
  599MOL0     C78965   6.913   7.271   5.521  0.6386  0.3840  0.4747
  599MOL0     O78966   6.796   7.306   5.446 -0.4919 -0.1874 -0.7221
  599MOL0     C78967   6.677   7.299   5.508 -0.0635 -0.0234 -0.0323
  599MOL0     C78968   6.602   7.414   5.537  0.5801 -0.2474  0.1409
  599MOL0     C78969   6.473   7.409   5.601  0.2011  0.3311 -0.2703
  599MOL0     C78970   6.412   7.273   5.624  0.2366 -0.8980  0.5870
  599MOL0     O78971   6.292   7.262   5.683  0.3629  0.5330 -0.1694
  599MOL0     C78972   6.214   7.380   5.715 -0.5136  0.2440 -0.1545
  599MOL0     C78973   6.091   7.331   5.791 -0.1062 -0.8525  0.0291
  599MOL0     C78974   6.008   7.243   5.696 -0.1676 -0.4609  0.4174
  599MOL0     C78975   5.907   7.170   5.788  0.0840  0.0698  0.2497
  599MOL0     C78976   5.960   7.034   5.831  0.2098  0.8638 -0.0067
  599MOL0     C78977   5.880   6.995   5.961  0.3379  0.7468 -0.5486
  599MOL0     C78978   5.928   6.866   6.027  0.1204 -0.5147  0.0624
  599MOL0     C78979   5.865   6.865   6.170 -0.9007 -0.7256  0.0311
  599MOL0    Cl78980   5.937   6.725   6.253 -0.3527 -0.2598  0.0813
  599MOL0     C78981   6.481   7.162   5.595 -0.2520  0.8582 -0.6551
  599MOL0     C78982   6.612   7.170   5.535  0.2342  0.2050  0.2131
  599MOL0     O78983   6.909   7.225   5.633 -0.6009  0.7449 -0.5066
  599MOL0     C78984   7.164   7.275   5.504  0.4213  0.0002  0.3525
  599MOL0     C78985   7.288   7.306   5.448  0.5104 -1.2032 -0.8147
  599MOL0     N78986   8.056   7.507   5.520  0.5058  0.1276 -0.2348
  599MOL0     N78987   8.148   7.592   5.502  0.9951 -1.2488  0.1469
  599MOL0     C78988   8.973   8.380   4.856  0.4990  0.6401 -0.3383
  599MOL0     C78989   9.102   8.376   4.814  0.4641  0.6258 -0.4010
  599MOL0     C78990   9.535   8.303   4.754  0.2241  0.8146  0.0414
  599MOL0     C78991   9.554   8.173   4.721 -0.2231  0.1079 -0.7684
  599MOL0     C78992   9.686   8.126   4.714  0.6634 -0.2617 -0.5250
  599MOL0     C78993   9.794   8.201   4.747 -0.4713  0.1166 -0.2060
  599MOL0     O78994   9.926   8.168   4.716  0.2830 -0.4173  0.1540
  599MOL0     C78995   9.964   8.039   4.663  0.2403 -0.0742 -0.3090
  599MOL0     C78996  10.104   8.062   4.608 -0.2418  0.2836 -0.2026
  599MOL0     C78997  10.206   8.090   4.725  0.1124  0.4928 -0.1329
  599MOL0     C78998  10.354   8.060   4.683 -0.0588 -0.2086 -0.7417
  599MOL0     C78999  10.398   8.143   4.566  0.0282 -0.5064 -0.5799
  599MOL0     C79000  10.407   8.224   4.475 -0.1035 -0.0503 -0.4141
  599MOL0     C79001   9.772   8.337   4.779  0.3708  0.3811 -0.5458
  599MOL0     C79002   9.643   8.387   4.781  0.4031 -0.1926  0.2157
  599MOL0     H79003   9.211   8.129   5.023 -4.3135 -1.8583  2.5562
  599MOL0     H79004   8.999   8.149   5.110  1.6225 -0.0956  1.1163
  599MOL0     H79005   8.756   8.168   5.133 -0.2769  1.2424  0.2071
  599MOL0     H79006   8.744   8.146   4.957  4.0881 -0.4125  0.7279
  599MOL0     H79007   8.568   8.334   4.968 -2.4732 -2.7025 -0.9627
  599MOL0     H79008   8.584   8.353   5.150  2.9567 -2.1141  2.4620
  599MOL0     H79009   8.454   8.107   4.997  0.7855  1.1724 -0.6966
  599MOL0     H79010   8.367   8.218   5.098  0.4699  2.1678 -0.3814
  599MOL0     H79011   8.596   8.053   5.195  0.2493  0.9567 -0.7325
  599MOL0     H79012   8.495   8.132   5.299  1.2366  0.9733 -0.4046
  599MOL0     H79013   8.439   7.901   5.099 -2.3146 -2.2352 -0.6769
  599MOL0     H79014   8.303   7.993   5.168  1.1699  2.0123 -0.6017
  599MOL0     H79015   8.404   7.928   5.401 -1.9285 -1.2829 -0.1021
  599MOL0     H79016   8.529   7.848   5.304 -0.5372 -0.3513  0.8062
  599MOL0     H79017   8.336   7.706   5.211  1.9465  1.1662 -0.3493
  599MOL0     H79018   8.386   7.683   5.389 -0.4288  1.6996  0.9921
  599MOL0     H79019   8.150   7.828   5.267 -2.5149  1.4987  1.6600
  599MOL0     H79020   8.198   7.847   5.438  1.3480  1.2425 -1.1408
  599MOL0     H79021   7.977   7.650   5.237  2.2738  1.1490 -0.6752
  599MOL0     H79022   7.892   7.317   5.389  1.3518  0.0823  0.3500
  599MOL0     H79023   7.877   7.417   5.251  1.8416  0.6102  0.3961
  599MOL0     H79024   7.718   7.571   5.377 -2.6064  1.4071  4.2905
  599MOL0     H79025   7.736   7.473   5.515  1.9877 -0.7810  0.5444
  599MOL0     H79026   7.662   7.300   5.277  1.4297 -1.0481  0.7126
  599MOL0     H79027   7.613   7.296   5.451  2.6745 -2.0268  0.0021
  599MOL0     H79028   7.543   7.511   5.239  3.8500 -0.5719  0.8981
  599MOL0     H79029   7.472   7.499   5.394  1.4660  0.2275  1.1889
  599MOL0     H79030   7.180   7.382   5.145 -0.9372 -0.4448 -0.2883
  599MOL0     H79031   6.941   7.363   5.275 -1.1680 -1.6637  0.9750
  599MOL0     H79032   6.618   7.518   5.508 -1.7231 -0.3312 -1.7754
  599MOL0     H79033   6.425   7.502   5.628 -0.6429 -0.0175 -0.5206
  599MOL0     H79034   6.192   7.420   5.616 -0.4461 -0.0670 -0.2938
  599MOL0     H79035   6.276   7.459   5.758  3.4894 -1.9751 -1.3279
  599MOL0     H79036   6.019   7.407   5.824  1.0735 -0.2948  1.3833
  599MOL0     H79037   6.115   7.286   5.887  3.0886  2.7545  1.1916
  599MOL0     H79038   6.069   7.172   5.640 -0.1299  0.9169 -1.3506
  599MOL0     H79039   5.968   7.308   5.618 -0.6384  1.3978  2.1209
  599MOL0     H79040   5.871   7.233   5.870  2.8549  0.1266  1.5037
  599MOL0     H79041   5.816   7.142   5.733  1.0285 -2.4328 -0.1602
  599MOL0     H79042   6.067   7.038   5.850  0.1924 -0.0959  0.3565
  599MOL0     H79043   5.953   6.955   5.755 -2.8340 -0.8355  1.8590
  599MOL0     H79044   5.772   6.985   5.949  0.0945 -0.5347  2.0610
  599MOL0     H79045   5.898   7.074   6.035  3.7027  0.3432 -0.7797
  599MOL0     H79046   5.898   6.785   5.961 -1.6973  0.5433 -0.4771
  599MOL0     H79047   6.037   6.878   6.033  0.0913  0.0266 -0.3611
  599MOL0     H79048   5.756   6.860   6.168 -1.1405  2.2492  0.9755
  599MOL0     H79049   5.891   6.955   6.226 -3.9205  0.3215 -0.0798
  599MOL0     H79050   6.443   7.064   5.623 -0.0619  1.3186  1.3652
  599MOL0     H79051   6.669   7.079   5.524  0.1587 -0.0039  1.3579
  599MOL0     H79052   7.163   7.229   5.602 -1.4997 -1.5680 -0.3425
  599MOL0     H79053   7.380   7.282   5.501  0.3086  1.0281  0.7367
  599MOL0     H79054   8.895   8.425   4.795 -0.3485 -0.2653  0.0376
  599MOL0     H79055   9.126   8.421   4.718  2.0571 -0.5727 -0.5972
  599MOL0     H79056   9.477   8.099   4.698  0.9198 -2.1148  1.9671
  599MOL0     H79057   9.707   8.030   4.668  1.6228 -0.7859  0.9374
  599MOL0     H79058   9.897   8.018   4.579 -1.8445  2.6561  0.5055
  599MOL0     H79059   9.954   7.957   4.735 -1.5560 -0.5633 -1.0645
  599MOL0     H79060  10.135   7.969   4.559 -0.4401  0.0646  0.0757
  599MOL0     H79061  10.110   8.128   4.521  1.0809 -1.0606 -1.1870
  599MOL0     H79062  10.179   8.040   4.819 -0.4750 -0.6288 -0.8743
  599MOL0     H79063  10.185   8.194   4.748 -1.4705  0.7472 -2.4202
  599MOL0     H79064  10.409   8.095   4.771 -1.4016  0.8536 -0.2859
  599MOL0     H79065  10.377   7.955   4.663  2.6904 -0.1931  1.6535
  599MOL0     H79066  10.417   8.286   4.389 -3.7626  0.5202 -0.5983
  599MOL0     H79067   9.868   8.388   4.784  2.1472 -2.6278 -1.4737
  599MOL0     H79068   9.632   8.494   4.797 -3.2750 -0.7270  2.3455
  600MOL0     O79069   8.751   3.005   7.843  0.8777  0.1316 -0.3913
  600MOL0     C79070   8.669   3.069   7.912 -0.3136  0.2679  0.1785
  600MOL0     O79071   8.540   3.093   7.883  0.5006 -0.1252 -0.2246
  600MOL0     C79072   8.486   3.019   7.783 -0.0510 -0.0868  0.0076
  600MOL0     C79073   8.354   2.981   7.803 -0.2356 -0.6124 -0.9251
  600MOL0     C79074   8.286   2.908   7.707  0.0859  0.7197 -0.1567
  600MOL0     C79075   8.347   2.880   7.581  0.3262  0.1427  1.0268
  600MOL0     O79076   8.304   2.822   7.471  0.8705  0.3499 -0.0017
  600MOL0     C79077   8.175   2.747   7.467  0.1600  1.0280  0.2454
  600MOL0     C79078   8.188   2.605   7.532  0.2657 -0.4548  1.1887
  600MOL0     C79079   8.308   2.527   7.474  1.2591 -0.5475  0.7050
  600MOL0     C79080   8.294   2.381   7.527 -0.6261  0.5352  0.0579
  600MOL0     C79081   8.413   2.279   7.478  0.0042 -0.2736  0.8049
  600MOL0     C79082   8.404   2.136   7.551 -0.3393  0.3020  0.6483
  600MOL0     C79083   8.533   2.060   7.519 -0.4075 -0.1189  0.7659
  600MOL0     C79084   8.562   1.951   7.626 -0.5859  0.4306 -0.1581
  600MOL0     N79085   8.611   1.999   7.756  0.8853 -0.0319 -0.3705
  600MOL0     C79086   8.698   2.105   7.787  0.5163 -0.3279 -0.0239
  600MOL0     C79087   8.699   2.116   7.921 -0.2535  0.3128  0.1513
  600MOL0     C79088   8.771   2.221   8.006  0.2254  0.8984  0.0017
  600MOL0     C79089   8.913   2.196   8.038 -0.5258  0.7398  0.4153
  600MOL0     C79090   9.016   2.216   7.920 -0.0641  0.4868 -1.1883
  600MOL0     C79091   9.044   2.079   7.858  0.0341 -0.3742 -0.0896
  600MOL0     O79092   9.127   2.003   7.946  0.5381 -0.1211  0.4188
  600MOL0     C79093   9.262   2.019   7.955  0.1046 -0.3884  0.3164
  600MOL0     C79094   9.336   2.126   7.900 -0.4019  0.6782  0.7736
  600MOL0     C79095   9.476   2.130   7.898  0.2396 -0.0475 -0.1985
  600MOL0     C79096   9.549   2.025   7.951  0.9355  0.7216  0.5427
  600MOL0     C79097   9.697   2.026   7.954 -0.3488  0.3303 -0.1575
  600MOL0     O79098   9.754   2.122   7.861 -0.5176 -0.0495  0.5086
  600MOL0     C79099   9.889   2.119   7.846  0.1825 -0.7453  0.6119
  600MOL0     C79100   9.952   2.244   7.814  0.4829  1.1776  0.3587
  600MOL0     C79101  10.092   2.250   7.806  0.2956 -0.2356  0.6445
  600MOL0     C79102  10.169   2.133   7.809 -0.6537  0.2404 -0.7630
  600MOL0     O79103  10.310   2.133   7.811  0.6640 -0.6929  0.5685
  600MOL0     C79104  10.359   2.057   7.698 -0.0277 -0.6594  0.7311
  600MOL0     C79105  10.513   2.047   7.723 -0.1340  0.4683  0.6720
  600MOL0     C79106  10.550   1.921   7.797 -0.2168 -0.2675  0.1236
  600MOL0     C79107  10.683   1.859   7.776  0.1571 -0.9513 -0.2335
  600MOL0     C79108  10.797   1.952   7.809 -0.3576  0.5584  0.3955
  600MOL0     C79109  10.936   1.893   7.774  0.0043 -0.9420  0.5353
  600MOL0     C79110  10.981   1.772   7.851 -0.7765  0.3966 -0.4388
  600MOL0     C79111  11.064   1.662   7.783  1.3747  0.1949  0.3053
  600MOL0    Cl79112  11.218   1.721   7.715  0.6116 -0.0559  0.2342
  600MOL0     C79113  10.105   2.017   7.842 -0.0539  0.7529  1.7983
  600MOL0     C79114   9.971   2.003   7.855  0.9992 -0.1979  0.7409
  600MOL0     O79115   9.752   1.957   8.043 -0.6497 -0.1201  0.0357
  600MOL0     C79116   9.473   1.918   8.010  0.1969 -0.3999 -0.6124
  600MOL0     C79117   9.333   1.916   8.012  0.3139  0.2639  0.3346
  600MOL0     N79118   8.616   2.026   7.980  0.2475  0.7977  0.8006
  600MOL0     N79119   8.554   1.966   7.882 -0.6396  0.7546  0.9593
  600MOL0     C79120   8.479   2.926   7.562 -0.2596 -0.0710  0.4479
  600MOL0     C79121   8.551   2.995   7.658  0.4461 -1.1979 -0.2546
  600MOL0     C79122   8.715   3.120   8.047  0.8912  0.0825  0.4971
  600MOL0     C79123   8.621   3.171   8.147 -0.9305  0.3198 -0.0455
  600MOL0     C79124   8.680   3.227   8.263  0.5440 -0.0536  0.5965
  600MOL0     C79125   8.816   3.227   8.285  0.1390 -0.4728  0.5053
  600MOL0     O79126   8.862   3.291   8.402  0.0229 -0.3167 -0.1909
  600MOL0     C79127   8.997   3.263   8.441 -0.4206 -0.1799  0.4485
  600MOL0     C79128   9.098   3.352   8.373  0.2521 -0.1001  0.5332
  600MOL0     C79129   9.241   3.321   8.399 -0.1059 -0.0285 -0.8888
  600MOL0     C79130   9.321   3.451   8.434 -1.4135  0.6891  0.3019
  600MOL0     C79131   9.450   3.427   8.502 -0.0514 -1.5569 -0.0311
  600MOL0     C79132   9.551   3.402   8.568  0.1997  0.8634 -0.5104
  600MOL0     C79133   8.901   3.171   8.189  0.5976  0.5419  1.1122
  600MOL0     C79134   8.845   3.108   8.077 -0.1215 -1.0412 -0.8194
  600MOL0     H79135   8.296   2.996   7.893 -0.8657 -1.2987 -1.2049
  600MOL0     H79136   8.183   2.877   7.722 -0.4020  1.6759 -1.3915
  600MOL0     H79137   8.147   2.739   7.362  0.3134  2.0051  0.1151
  600MOL0     H79138   8.091   2.797   7.516 -1.7017 -0.8675 -0.8895
  600MOL0     H79139   8.097   2.545   7.533 -0.5213  0.6716 -0.1391
  600MOL0     H79140   8.218   2.637   7.633  2.5907  2.3271 -0.2368
  600MOL0     H79141   8.404   2.577   7.492  0.4199  1.8097 -0.8419
  600MOL0     H79142   8.302   2.523   7.365 -1.0726  0.5567  0.7280
  600MOL0     H79143   8.272   2.376   7.633 -1.6147  1.8669 -0.0690
  600MOL0     H79144   8.203   2.343   7.480 -1.3820 -0.1074  1.9821
  600MOL0     H79145   8.508   2.325   7.506  1.4390 -2.6396  0.0924
  600MOL0     H79146   8.409   2.267   7.370  0.1833  1.7455  0.5445
  600MOL0     H79147   8.326   2.072   7.508 -0.4585 -0.5053  2.0224
  600MOL0     H79148   8.376   2.137   7.656  0.8017 -2.5380  1.0598
  600MOL0     H79149   8.526   2.025   7.416 -1.4356 -0.8785  1.0719
  600MOL0     H79150   8.617   2.129   7.529  1.6178 -2.6527  2.6954
  600MOL0     H79151   8.647   1.893   7.589  0.6482  1.7186  0.5481
  600MOL0     H79152   8.471   1.893   7.643 -0.6354  0.4364 -0.4061
  600MOL0     H79153   8.744   2.182   7.726 -3.1228  3.9735  2.0323
  600MOL0     H79154   8.719   2.229   8.102  0.1603 -0.9986  0.1670
  600MOL0     H79155   8.764   2.317   7.955 -2.2276  0.9495  0.3010
  600MOL0     H79156   8.935   2.102   8.089 -0.8708  0.4160 -0.0290
  600MOL0     H79157   8.946   2.277   8.104  1.2827  1.8320 -1.6848
  600MOL0     H79158   8.985   2.287   7.843 -2.0998 -0.4253 -1.2632
  600MOL0     H79159   9.107   2.240   7.976 -0.5899 -1.3263  0.5757
  600MOL0     H79160   9.087   2.104   7.761 -1.4758  0.2413 -0.6362
  600MOL0     H79161   8.949   2.038   7.824  0.1029 -1.2900  0.7678
  600MOL0     H79162   9.282   2.211   7.861 -1.0469  0.3698  0.9730
  600MOL0     H79163   9.524   2.224   7.874  1.5379  0.2792  3.0887
  600MOL0     H79164   9.888   2.331   7.812 -1.8043 -0.3854 -2.2401
  600MOL0     H79165  10.133   2.350   7.802 -0.1567 -0.0726 -0.7264
  600MOL0     H79166  10.356   2.119   7.607  2.7459 -2.9487 -1.1164
  600MOL0     H79167  10.311   1.960   7.685 -0.6000 -0.4168  1.0359
  600MOL0     H79168  10.543   2.136   7.779  0.3308  0.0229  1.1474
  600MOL0     H79169  10.559   2.042   7.624  0.9266 -0.0918  1.1652
  600MOL0     H79170  10.468   1.848   7.792 -0.9924  0.3267  2.8988
  600MOL0     H79171  10.548   1.950   7.902  0.5207 -2.1217  0.6953
  600MOL0     H79172  10.688   1.765   7.832  1.4265 -1.8928 -1.8099
  600MOL0     H79173  10.692   1.837   7.669 -1.7229  0.2930 -0.6824
  600MOL0     H79174  10.807   1.980   7.914 -1.0569  0.0342  0.6044
  600MOL0     H79175  10.772   2.050   7.768 -0.8266  0.7087  1.0250
  600MOL0     H79176  11.008   1.975   7.784  1.0472 -1.1237 -3.7475
  600MOL0     H79177  10.933   1.869   7.667 -2.1725  1.6787 -0.0807
  600MOL0     H79178  11.050   1.807   7.927  0.5834 -0.8498 -1.0567
  600MOL0     H79179  10.895   1.723   7.898 -0.9790  1.8669  0.7899
  600MOL0     H79180  11.007   1.619   7.700  2.1889 -0.4951  0.0979
  600MOL0     H79181  11.090   1.576   7.845 -1.7868 -2.7233 -2.0060
  600MOL0     H79182  10.169   1.929   7.844 -0.6876  0.2870  3.3476
  600MOL0     H79183   9.926   1.906   7.873  1.1915  0.3154  5.1204
  600MOL0     H79184   9.531   1.829   8.030 -1.1921 -1.0600  0.6994
  600MOL0     H79185   9.266   1.834   8.035 -3.0245  1.9399 -2.3966
  600MOL0     H79186   8.519   2.924   7.461 -0.9839  0.3936  0.1484
  600MOL0     H79187   8.644   3.042   7.629  1.4574 -2.5165  0.7309
  600MOL0     H79188   8.515   3.161   8.130 -1.1669 -0.5543  1.7521
  600MOL0     H79189   8.625   3.287   8.335  0.8501  1.2150 -0.1757
  600MOL0     H79190   9.018   3.157   8.424 -0.3894 -0.1357  0.1996
  600MOL0     H79191   9.009   3.278   8.548 -2.2196 -0.5636  0.7295
  600MOL0     H79192   9.088   3.347   8.264  1.2120  2.8594  0.2301
  600MOL0     H79193   9.082   3.459   8.385 -0.6578 -0.2626  0.9284
  600MOL0     H79194   9.279   3.266   8.313 -0.2841 -0.5784 -0.6205
  600MOL0     H79195   9.255   3.255   8.485  2.0889  1.1380 -0.2739
  600MOL0     H79196   9.342   3.508   8.343 -0.0130  0.7492  0.6392
  600MOL0     H79197   9.270   3.523   8.498 -1.9527  0.3602  0.2486
  600MOL0     H79198   9.648   3.374   8.604  1.1436  1.5930 -2.2922
  600MOL0     H79199   9.009   3.160   8.194  0.9403  3.3070  1.6238
  600MOL0     H79200   8.918   3.056   8.016  2.3411 -0.8356  1.7677
  601MOL0     O79201   2.954   0.843   0.847  0.2797  0.0360 -0.4893
  601MOL0     C79202   2.997   0.923   0.921 -0.0265 -0.3152 -1.0484
  601MOL0     O79203   2.919   0.994   1.017  0.6759 -0.2158  0.1110
  601MOL0     C79204   2.788   0.962   1.041  1.2129  0.5164  0.2190
  601MOL0     C79205   2.706   1.073   1.065  0.2220 -0.8880  0.5291
  601MOL0     C79206   2.565   1.041   1.083  0.2572  0.3097 -0.8410
  601MOL0     C79207   2.527   0.912   1.085  0.2134  0.3741  0.2109
  601MOL0     O79208   2.394   0.879   1.096 -0.3862  0.2441 -0.3477
  601MOL0     C79209   2.336   0.917   1.219 -0.0453 -0.2679 -0.8946
  601MOL0     C79210   2.200   0.847   1.224 -0.0712  0.1237 -1.0364
  601MOL0     C79211   2.110   0.883   1.100  0.2936  0.5718  0.2978
  601MOL0     C79212   1.961   0.832   1.111 -1.6312  0.1919 -0.5280
  601MOL0     C79213   1.883   0.869   0.981  0.2109 -0.3918 -0.4272
  601MOL0     C79214   1.735   0.843   1.012 -0.2734 -0.4346 -0.3665
  601MOL0     C79215   1.649   0.861   0.894  0.1639  0.4860 -0.7337
  601MOL0     C79216   1.634   1.014   0.862  0.0309  0.1871 -0.0853
  601MOL0     N79217   1.503   1.045   0.802  0.5624 -0.2015  0.1648
  601MOL0     C79218   1.383   1.027   0.868 -0.2510 -0.1997  1.2789
  601MOL0     C79219   1.300   1.065   0.767  0.2996  0.4177  0.6494
  601MOL0     C79220   1.153   1.034   0.768  0.6650  0.5580 -0.3672
  601MOL0     C79221   1.061   1.066   0.649 -0.7172  0.0892 -0.3259
  601MOL0     C79222   1.083   1.003   0.510  0.0022 -1.0698 -0.1779
  601MOL0     C79223   1.026   0.862   0.502  1.0053  0.8105  0.1763
  601MOL0     O79224   0.884   0.859   0.549 -0.6781  0.3694  0.2679
  601MOL0     C79225   0.792   0.904   0.461 -0.4352 -0.5692  0.4994
  601MOL0     C79226   0.687   0.975   0.516 -0.2162 -0.4479  0.0897
  601MOL0     C79227   0.595   1.049   0.448  0.3867 -1.0903  0.4935
  601MOL0     C79228   0.592   1.037   0.307 -0.5156  0.3989 -0.1036
  601MOL0     C79229   0.487   1.102   0.227  0.4196 -0.7965 -0.7892
  601MOL0     O79230   0.474   1.069   0.098 -0.7482  0.1162  0.1433
  601MOL0     C79231   0.381   1.122   0.024  0.2321 -0.6256 -0.1998
  601MOL0     C79232   0.244   1.135   0.067  0.3458  0.4626  0.4202
  601MOL0     C79233   0.153   1.175  -0.030  0.1051  0.2340 -0.6181
  601MOL0     C79234   0.192   1.213  -0.161 -0.0031 -1.0864 -0.1573
  601MOL0     O79235   0.095   1.249  -0.248 -0.0415 -0.0342  0.1953
  601MOL0     C79236   0.074   1.171  -0.369  0.1972 -0.5936  0.0001
  601MOL0     C79237   0.056   1.264  -0.493 -0.2098 -0.0860 -1.1037
  601MOL0     C79238  -0.057   1.353  -0.470  0.5811 -0.1414  0.5633
  601MOL0     C79239  -0.087   1.460  -0.568 -0.0878  0.6190 -0.6196
  601MOL0     C79240  -0.076   1.401  -0.713 -0.0996 -0.6891 -0.2953
  601MOL0     C79241  -0.153   1.490  -0.819 -0.1150 -0.1201 -1.4460
  601MOL0     C79242  -0.110   1.457  -0.959 -0.3508  0.3451  1.4513
  601MOL0     C79243  -0.198   1.545  -1.043  0.4283 -0.3076  1.1602
  601MOL0    Cl79244  -0.367   1.474  -1.043 -0.3149 -0.3389 -0.4228
  601MOL0     C79245   0.332   1.212  -0.194  1.3846 -0.7358  0.0054
  601MOL0     C79246   0.421   1.168  -0.101  0.9500 -0.8811  0.1316
  601MOL0     O79247   0.408   1.174   0.281  0.1275  1.1472 -0.3327
  601MOL0     C79248   0.682   0.952   0.241  0.3038  0.0421  0.5149
  601MOL0     C79249   0.793   0.898   0.314  0.1533 -0.2250 -1.0574
  601MOL0     N79250   1.364   1.113   0.656  0.4092  0.8806 -0.0129
  601MOL0     N79251   1.489   1.096   0.677 -0.6063 -0.1542  0.3899
  601MOL0     C79252   2.613   0.811   1.060  0.7311  0.0433  0.5967
  601MOL0     C79253   2.739   0.833   1.046  0.0201  0.5925  0.3062
  601MOL0     C79254   3.145   0.956   0.931  0.3098  1.1260 -0.1602
  601MOL0     C79255   3.210   1.000   1.045 -0.1097  0.0352 -0.5211
  601MOL0     C79256   3.347   1.035   1.043 -0.3988  0.2219 -0.0482
  601MOL0     C79257   3.421   1.009   0.926 -0.0429 -0.6201  0.0869
  601MOL0     O79258   3.556   1.025   0.931  0.1532  0.0157  0.7129
  601MOL0     C79259   3.621   1.113   1.026  0.4774  0.5727  1.0826
  601MOL0     C79260   3.732   1.187   0.942 -0.2026  0.1088  0.4964
  601MOL0     C79261   3.812   1.274   1.041 -1.2034 -0.5985  0.7731
  601MOL0     C79262   3.948   1.319   0.971 -1.1981 -1.0176 -0.0447
  601MOL0     C79263   4.053   1.380   1.059  0.4818  0.1465  0.2857
  601MOL0     C79264   4.135   1.417   1.133  0.3399 -0.0913 -0.7507
  601MOL0     C79265   3.357   0.946   0.808 -0.4510  0.3962 -0.6136
  601MOL0     C79266   3.223   0.931   0.814  0.7640  0.2249 -0.6185
  601MOL0     H79267   2.740   1.175   1.076  0.6545 -0.8247 -1.0695
  601MOL0     H79268   2.497   1.124   1.100  0.8514  0.6894 -0.2707
  601MOL0     H79269   2.328   1.026   1.224  3.8118  0.1063  0.1692
  601MOL0     H79270   2.392   0.892   1.310 -0.7888 -0.0572 -0.3736
  601MOL0     H79271   2.154   0.882   1.317  1.0404 -0.5055 -0.2306
  601MOL0     H79272   2.218   0.741   1.245  0.9345  0.2192 -1.3673
  601MOL0     H79273   2.145   0.845   1.003 -0.9761  1.1985 -0.4316
  601MOL0     H79274   2.112   0.992   1.095  2.3430  0.6529  1.7973
  601MOL0     H79275   1.960   0.728   1.145  0.0503  0.4904  0.5541
  601MOL0     H79276   1.910   0.886   1.191 -1.5238 -1.2042  0.5108
  601MOL0     H79277   1.916   0.812   0.893  3.3807  2.3019 -1.1990
  601MOL0     H79278   1.897   0.977   0.970  0.8400 -0.6676 -3.1965
  601MOL0     H79279   1.699   0.915   1.086 -0.4320 -0.6370 -0.2430
  601MOL0     H79280   1.726   0.739   1.047  2.7922 -0.6381  0.1133
  601MOL0     H79281   1.691   0.811   0.806 -2.3248 -1.6768 -0.8346
  601MOL0     H79282   1.555   0.810   0.919  1.5261 -1.1591  1.3582
  601MOL0     H79283   1.714   1.038   0.792 -2.6877  3.0671 -2.5094
  601MOL0     H79284   1.651   1.081   0.947  2.2660  1.5324 -1.4845
  601MOL0     H79285   1.356   0.968   0.955  2.6504  0.0778  2.4840
  601MOL0     H79286   1.115   1.079   0.861  1.4493 -0.6004  0.5404
  601MOL0     H79287   1.142   0.926   0.772  2.2244  0.2902 -2.2047
  601MOL0     H79288   1.075   1.171   0.622 -2.4298  0.7481  1.0877
  601MOL0     H79289   0.957   1.072   0.684 -0.1655  2.0949  1.1432
  601MOL0     H79290   1.037   1.065   0.432  1.2025  2.5752  1.7928
  601MOL0     H79291   1.186   0.987   0.476  0.9858 -1.3458  2.7016
  601MOL0     H79292   1.090   0.795   0.561  2.1849  0.7115 -1.1545
  601MOL0     H79293   1.044   0.826   0.401  3.8330 -0.0552  0.8906
  601MOL0     H79294   0.686   0.969   0.625 -2.9014 -1.2611  0.1073
  601MOL0     H79295   0.523   1.114   0.497 -0.5386 -1.3095 -0.5252
  601MOL0     H79296   0.199   1.094   0.156  1.9453 -1.4951  0.3967
  601MOL0     H79297   0.048   1.184  -0.003 -0.7966 -1.6372 -3.1480
  601MOL0     H79298  -0.022   1.122  -0.350  1.3217 -2.6270  0.8450
  601MOL0     H79299   0.149   1.093  -0.388 -0.0706 -0.8774  0.0840
  601MOL0     H79300   0.029   1.205  -0.581  0.1491 -1.0426 -0.5777
  601MOL0     H79301   0.148   1.320  -0.514  0.2389  0.1062  1.1356
  601MOL0     H79302  -0.042   1.405  -0.375 -0.4970  0.1565  0.5931
  601MOL0     H79303  -0.149   1.293  -0.465  0.6560 -0.1783  2.1542
  601MOL0     H79304  -0.185   1.506  -0.554  0.6923  2.1994 -0.1650
  601MOL0     H79305  -0.017   1.543  -0.556  1.4885 -0.5279 -1.4489
  601MOL0     H79306  -0.119   1.301  -0.721  1.0135 -1.1732 -0.4915
  601MOL0     H79307   0.030   1.389  -0.738  0.2443 -0.7596  1.1032
  601MOL0     H79308  -0.118   1.591  -0.796  0.7705 -0.8021  0.3614
  601MOL0     H79309  -0.256   1.471  -0.786  0.0829 -0.3575 -0.9506
  601MOL0     H79310  -0.007   1.486  -0.983 -0.6051 -0.3858 -0.7959
  601MOL0     H79311  -0.123   1.353  -0.990 -3.0682  1.2159 -0.7275
  601MOL0     H79312  -0.154   1.552  -1.142 -0.7255  0.8156  0.7097
  601MOL0     H79313  -0.193   1.652  -1.022  4.2675  1.7598 -6.5861
  601MOL0     H79314   0.354   1.243  -0.296  0.2291 -1.0573 -0.3599
  601MOL0     H79315   0.526   1.161  -0.129  0.3074 -4.3488 -2.0658
  601MOL0     H79316   0.692   0.949   0.133  0.0211  0.3604  0.4761
  601MOL0     H79317   0.876   0.855   0.258  0.5405 -1.8625  0.6750
  601MOL0     H79318   2.570   0.711   1.056 -0.0348  0.3631  0.7015
  601MOL0     H79319   2.810   0.752   1.047  1.0476  1.4769  1.3226
  601MOL0     H79320   3.151   1.005   1.136  0.9088 -2.2266  0.3224
  601MOL0     H79321   3.385   1.083   1.133 -2.4227  1.2160  0.3361
  601MOL0     H79322   3.652   1.059   1.116 -0.4754 -0.6706  0.6943
  601MOL0     H79323   3.554   1.195   1.050 -0.6468  1.0544 -2.9574
  601MOL0     H79324   3.790   1.115   0.885  0.3747 -0.1639  1.4212
  601MOL0     H79325   3.678   1.249   0.869 -2.5587 -1.6441  0.6158
  601MOL0     H79326   3.825   1.215   1.132 -1.9382  2.0950  2.7442
  601MOL0     H79327   3.748   1.358   1.065 -2.3831 -2.3990  4.6847
  601MOL0     H79328   3.987   1.233   0.917 -0.4904 -1.4790  1.1646
  601MOL0     H79329   3.923   1.394   0.895 -0.8650  1.7626  2.3969
  601MOL0     H79330   4.213   1.450   1.199 -1.1755 -1.2557  1.7971
  601MOL0     H79331   3.421   0.928   0.722 -0.3206  1.2032 -0.6969
  601MOL0     H79332   3.169   0.907   0.722  0.6625 -0.1138 -0.4727
  602MOL0     O79333   3.561  10.968   0.428 -0.1344 -0.5414  0.2420
  602MOL0     C79334   3.634  11.038   0.492  0.4929 -0.1345 -0.4698
  602MOL0     O79335   3.586  11.137   0.577 -0.2041 -0.1032  0.5339
  602MOL0     C79336   3.456  11.167   0.600  0.8396 -0.5333  0.1955
  602MOL0     C79337   3.360  11.075   0.639  0.3028  0.0485 -0.5088
  602MOL0     C79338   3.230  11.112   0.660 -0.8894  1.0209 -0.1667
  602MOL0     C79339   3.192  11.243   0.635  0.8234 -0.2054  0.6952
  602MOL0     O79340   3.058  11.269   0.656 -0.2379  0.1401  0.0470
  602MOL0     C79341   3.011  11.408   0.647  0.0658  0.8381  0.1966
  602MOL0     C79342   2.868  11.404   0.629  0.1013  0.4576 -1.1895
  602MOL0     C79343   2.790  11.367   0.764  0.3163 -0.2962  1.0958
  602MOL0     C79344   2.640  11.344   0.732 -0.4421 -0.5455 -0.0505
  602MOL0     C79345   2.561  11.301   0.852 -0.7978 -0.0384  0.5100
  602MOL0     C79346   2.440  11.210   0.811  0.3184  0.3731 -0.5264
  602MOL0     C79347   2.324  11.279   0.736  0.3897  1.2709 -0.0243
  602MOL0     C79348   2.235  11.368   0.821 -0.1360 -1.0972  0.0683
  602MOL0     N79349   2.148  11.314   0.914 -0.0787  0.4522  0.1199
  602MOL0     C79350   2.016  11.287   0.898 -0.3464  0.4445  0.1704
  602MOL0     C79351   1.969  11.223   1.007 -0.3992 -0.3808  0.9532
  602MOL0     C79352   1.828  11.183   1.013  0.0499 -0.0214 -0.4387
  602MOL0     C79353   1.756  11.186   1.147 -0.3161  0.0458 -0.5122
  602MOL0     C79354   1.616  11.137   1.133  0.3123 -0.0774 -0.1315
  602MOL0     C79355   1.544  11.188   1.255  0.4982  0.8439 -0.1692
  602MOL0     O79356   1.395  11.160   1.267 -0.2292  0.7384  1.0800
  602MOL0     C79357   1.307  11.248   1.215 -0.0631  0.3260  0.7953
  602MOL0     C79358   1.348  11.351   1.125 -0.0179  0.4628  0.0072
  602MOL0     C79359   1.252  11.444   1.077  0.3218 -0.0220  0.6158
  602MOL0     C79360   1.116  11.424   1.111  0.5564  0.0948 -0.3465
  602MOL0     C79361   1.000  11.503   1.045 -0.2312 -0.0582 -0.1897
  602MOL0     O79362   0.872  11.495   1.089 -0.0324  1.1054  0.3536
  602MOL0     C79363   0.779  11.557   1.014 -0.2202  0.2268  0.1503
  602MOL0     C79364   0.716  11.497   0.911  0.5917 -0.1668 -0.2177
  602MOL0     C79365   0.601  11.541   0.849 -0.4448  0.1412  0.5652
  602MOL0     C79366   0.542  11.660   0.896 -0.6598  0.4367  0.3735
  602MOL0     O79367   0.431  11.726   0.856  0.0393  0.2042  1.1753
  602MOL0     C79368   0.380  11.677   0.724  0.5487 -0.5232  0.0818
  602MOL0     C79369   0.263  11.574   0.749 -0.3499  0.7444  0.6953
  602MOL0     C79370   0.152  11.644   0.824 -0.2930  0.2198  0.2507
  602MOL0     C79371   0.029  11.554   0.865  0.1776  0.3829  0.7383
  602MOL0     C79372  -0.103  11.626   0.869  0.6826 -0.7568 -0.1842
  602MOL0     C79373  -0.157  11.632   0.734  0.2988 -0.6819  1.0676
  602MOL0     C79374  -0.296  11.675   0.728  0.1327  0.4042 -0.2653
  602MOL0     C79375  -0.378  11.546   0.715 -0.4201  0.2220 -0.8655
  602MOL0    Cl79376  -0.539  11.588   0.640 -0.5796 -0.0279 -0.1942
  602MOL0     C79377   0.595  11.710   1.009  0.2157 -0.0651 -0.6374
  602MOL0     C79378   0.714  11.664   1.069 -0.9745 -0.0591  0.4299
  602MOL0     O79379   1.040  11.574   0.951  0.0728  0.5762 -0.0960
  602MOL0     C79380   1.080  11.321   1.204  0.5562 -0.1445  0.4814
  602MOL0     C79381   1.179  11.243   1.260  0.1542  0.8526 -0.3965
  602MOL0     N79382   2.069  11.228   1.107  0.4137  0.3988  0.4522
  602MOL0     N79383   2.173  11.281   1.044  0.0833  1.1039 -0.5893
  602MOL0     C79384   3.277  11.339   0.590 -1.2930  0.1334 -0.0448
  602MOL0     C79385   3.411  11.302   0.563  0.1850 -0.6487  0.9282
  602MOL0     C79386   3.775  10.999   0.505  0.5632 -0.4535  0.8271
  602MOL0     C79387   3.828  10.874   0.474 -0.3627  0.0618 -0.5484
  602MOL0     C79388   3.965  10.849   0.502  0.4407  0.8362  0.1710
  602MOL0     C79389   4.048  10.945   0.567  1.0390  0.1540  0.7162
  602MOL0     O79390   4.174  10.957   0.591  0.0263 -0.1972 -0.1982
  602MOL0     C79391   4.266  10.881   0.508  0.2960 -0.1825 -0.5490
  602MOL0     C79392   4.414  10.887   0.551 -0.4695 -0.0327 -0.7806
  602MOL0     C79393   4.488  10.776   0.474  0.9858 -0.9277  0.2954
  602MOL0     C79394   4.629  10.764   0.526  0.0087 -0.3219  0.4216
  602MOL0     C79395   4.698  10.889   0.531  0.3332 -0.0451  0.4031
  602MOL0     C79396   4.767  10.988   0.553  0.4273  0.2330 -0.1638
  602MOL0     C79397   3.987  11.070   0.609  0.6857 -0.0968  0.4376
  602MOL0     C79398   3.851  11.090   0.583  0.0786  0.1587  0.1341
  602MOL0     H79399   3.389  10.973   0.662 -2.0501 -0.0719  2.5523
  602MOL0     H79400   3.150  11.046   0.693  0.3382  0.4444  1.7947
  602MOL0     H79401   3.054  11.469   0.567  1.4763  0.5525  0.7060
  602MOL0     H79402   3.024  11.464   0.741  0.3469 -0.8625  1.2121
  602MOL0     H79403   2.844  11.322   0.560 -2.8221 -1.8602  2.1866
  602MOL0     H79404   2.826  11.499   0.597 -1.0468  1.3221  2.4257
  602MOL0     H79405   2.812  11.445   0.838  1.7974  1.8203 -1.4118
  602MOL0     H79406   2.832  11.277   0.811 -1.7483 -0.8543  1.9616
  602MOL0     H79407   2.597  11.430   0.680  2.2421  0.6689 -0.4083
  602MOL0     H79408   2.626  11.259   0.664 -1.4339  0.7394 -1.5139
  602MOL0     H79409   2.518  11.381   0.912 -1.2859 -0.2439  0.4408
  602MOL0     H79410   2.626  11.235   0.911  1.9589  1.3560 -0.7589
  602MOL0     H79411   2.404  11.176   0.908  0.0968  1.7738 -0.0971
  602MOL0     H79412   2.475  11.122   0.755 -1.4155  0.6608 -2.1582
  602MOL0     H79413   2.370  11.343   0.660  0.7328  2.0217  0.7855
  602MOL0     H79414   2.258  11.205   0.690  1.0981 -0.0300  0.9986
  602MOL0     H79415   2.178  11.428   0.750 -0.8853 -3.9726 -1.9216
  602MOL0     H79416   2.304  11.431   0.878 -1.2195 -1.9621  2.4769
  602MOL0     H79417   1.956  11.323   0.815 -1.7428 -0.7598  0.6153
  602MOL0     H79418   1.814  11.082   0.972  0.0430 -0.8445  1.4881
  602MOL0     H79419   1.777  11.247   0.940  1.1479 -0.1678 -1.3622
  602MOL0     H79420   1.768  11.290   1.179  0.1159  0.2853 -1.4145
  602MOL0     H79421   1.811  11.129   1.223 -0.6002  0.5811  0.1084
  602MOL0     H79422   1.566  11.176   1.044  0.3258 -1.9395 -1.0129
  602MOL0     H79423   1.602  11.029   1.119 -3.7637 -0.1364  2.6040
  602MOL0     H79424   1.568  11.293   1.274  2.8391  0.3943 -0.2988
  602MOL0     H79425   1.586  11.141   1.345 -3.1031  2.3224  2.5114
  602MOL0     H79426   1.445  11.370   1.081 -1.0835 -0.5599 -3.0038
  602MOL0     H79427   1.283  11.521   1.007 -0.1587 -1.7560 -1.6352
  602MOL0     H79428   0.758  11.399   0.891  2.0995  0.3983  0.0656
  602MOL0     H79429   0.549  11.491   0.767  0.5318 -1.4123  0.8741
  602MOL0     H79430   0.457  11.636   0.658 -0.2574 -1.5463 -0.2460
  602MOL0     H79431   0.336  11.767   0.680 -0.7554 -1.7210 -1.1836
  602MOL0     H79432   0.295  11.475   0.785  2.1059  1.2142  0.0108
  602MOL0     H79433   0.232  11.555   0.645 -1.3199 -3.1704  1.5310
  602MOL0     H79434   0.114  11.724   0.760  1.8296 -0.2991 -1.8178
  602MOL0     H79435   0.185  11.681   0.921 -0.5679 -2.0734  1.3010
  602MOL0     H79436   0.038  11.460   0.810 -0.7179  0.7123  0.0239
  602MOL0     H79437   0.044  11.519   0.968 -0.4513 -3.0743 -0.2075
  602MOL0     H79438  -0.102  11.721   0.923  2.3666 -1.5059  1.1954
  602MOL0     H79439  -0.164  11.571   0.942  1.0184  0.2293  0.8691
  602MOL0     H79440  -0.144  11.531   0.694  0.4999  0.4085 -1.8315
  602MOL0     H79441  -0.094  11.705   0.683  0.4541 -1.4348  0.1436
  602MOL0     H79442  -0.323  11.732   0.818  1.7378 -0.2867  0.6990
  602MOL0     H79443  -0.313  11.736   0.639  1.5366  0.6602 -0.3866
  602MOL0     H79444  -0.408  11.511   0.815  0.1073  1.9183 -0.0701
  602MOL0     H79445  -0.340  11.465   0.653 -1.9433  0.3623 -2.0136
  602MOL0     H79446   0.554  11.804   1.044  3.0363  1.5148 -1.2283
  602MOL0     H79447   0.763  11.720   1.148 -0.5543  0.4697 -0.2009
  602MOL0     H79448   0.981  11.311   1.247 -0.2285  1.5215 -0.8368
  602MOL0     H79449   1.152  11.176   1.341 -2.2734  1.8140 -0.3384
  602MOL0     H79450   3.256  11.446   0.585 -0.6346  0.2220 -1.3253
  602MOL0     H79451   3.492  11.371   0.539  0.5269 -1.4700 -0.4485
  602MOL0     H79452   3.772  10.803   0.415 -1.5864  0.3532  0.2249
  602MOL0     H79453   3.999  10.754   0.463  0.1864  0.5178  0.7173
  602MOL0     H79454   4.257  10.915   0.405 -0.9544  1.7684  0.1278
  602MOL0     H79455   4.235  10.777   0.520 -1.6899  0.6052  2.5241
  602MOL0     H79456   4.460  10.983   0.527  0.2015 -0.9623 -3.5246
  602MOL0     H79457   4.427  10.867   0.658 -1.0711  2.2130 -0.2351
  602MOL0     H79458   4.483  10.793   0.366 -2.2221  1.5373  0.6713
  602MOL0     H79459   4.435  10.680   0.485  1.0530 -0.9587  0.3494
  602MOL0     H79460   4.626  10.729   0.630  1.2379  0.8333  0.8781
  602MOL0     H79461   4.692  10.708   0.457 -1.0758  1.0983 -1.8592
  602MOL0     H79462   4.825  11.076   0.569  0.3465  0.2033  0.3042
  602MOL0     H79463   4.053  11.149   0.644  0.6628 -0.0914  0.4695
  602MOL0     H79464   3.806  11.186   0.607  1.1158 -0.0445  3.4108
  603MOL0     O79465   2.450   8.393   0.452  0.1890 -0.4397 -0.3912
  603MOL0     C79466   2.400   8.389   0.562  0.0059  0.5893  0.3671
  603MOL0     O79467   2.283   8.451   0.603  0.1107  0.2524 -0.0102
  603MOL0     C79468   2.219   8.521   0.502  0.7128 -0.5442  0.0709
  603MOL0     C79469   2.244   8.646   0.456 -0.6243 -0.7114 -0.3036
  603MOL0     C79470   2.161   8.709   0.360  0.0438 -0.3224 -0.3721
  603MOL0     C79471   2.046   8.640   0.312 -0.9126 -0.6239 -1.1466
  603MOL0     O79472   1.961   8.684   0.221  0.3990 -0.2985 -0.2501
  603MOL0     C79473   2.009   8.775   0.109 -0.6234  1.1588  0.3086
  603MOL0     C79474   1.916   8.798  -0.006  0.3483 -0.0523 -0.1682
  603MOL0     C79475   1.768   8.826   0.034  0.0040 -0.8304  0.5147
  603MOL0     C79476   1.745   8.973   0.072 -0.3389  0.0582 -0.4277
  603MOL0     C79477   1.589   8.991   0.081 -0.6814  0.2294  0.7045
  603MOL0     C79478   1.568   9.135   0.134  0.3790 -0.4200 -1.0593
  603MOL0     C79479   1.434   9.149   0.203 -0.3772  0.3663 -0.2261
  603MOL0     C79480   1.297   9.131   0.124 -0.5779  0.7759  0.2937
  603MOL0     N79481   1.169   9.123   0.208 -0.6883 -0.5179  0.8119
  603MOL0     C79482   1.126   9.237   0.268 -0.1798  0.3970 -1.4458
  603MOL0     C79483   1.020   9.203   0.344 -0.7460 -0.6783  0.0127
  603MOL0     C79484   0.940   9.296   0.427 -0.0866 -0.3168  1.2731
  603MOL0     C79485   0.794   9.263   0.395  0.8000  0.2790 -0.3289
  603MOL0     C79486   0.708   9.356   0.480  1.0956  0.3439 -0.6779
  603MOL0     C79487   0.557   9.322   0.453 -0.7048 -0.1930 -0.7643
  603MOL0     O79488   0.517   9.199   0.522 -0.4235 -0.0765 -0.1168
  603MOL0     C79489   0.390   9.153   0.511  0.2524  0.0272  0.1726
  603MOL0     C79490   0.355   9.053   0.596 -0.0310  0.4866  0.2937
  603MOL0     C79491   0.237   8.974   0.571 -0.1617  0.0761  0.0581
  603MOL0     C79492   0.158   9.011   0.462  0.3522 -0.0627  0.3306
  603MOL0     C79493   0.035   8.933   0.434  0.1585  0.2880 -0.5369
  603MOL0     O79494   0.004   8.811   0.490 -0.2041 -0.0859  0.0571
  603MOL0     C79495  -0.117   8.752   0.463  0.0604  0.4431  0.5701
  603MOL0     C79496  -0.115   8.611   0.428 -0.4376 -0.8694  0.7129
  603MOL0     C79497  -0.227   8.539   0.397  0.4354  1.0207  0.8709
  603MOL0     C79498  -0.360   8.594   0.414  0.3231  0.2855  0.3979
  603MOL0     O79499  -0.479   8.526   0.401 -0.3762 -0.0568  0.1121
  603MOL0     C79500  -0.599   8.589   0.377  0.6355 -0.2322  0.8421
  603MOL0     C79501  -0.704   8.483   0.339  1.0665  0.6844 -0.0036
  603MOL0     C79502  -0.732   8.461   0.184  0.1682 -0.3358 -0.6522
  603MOL0     C79503  -0.632   8.384   0.101 -0.4652  0.1677  0.4612
  603MOL0     C79504  -0.534   8.469   0.020 -0.0287 -0.4097  0.2537
  603MOL0     C79505  -0.426   8.378  -0.051 -0.4802 -0.1464  0.4536
  603MOL0     C79506  -0.326   8.481  -0.107 -0.7357 -0.0486 -0.5732
  603MOL0     C79507  -0.211   8.419  -0.194 -0.7961  0.3384  0.4792
  603MOL0    Cl79508  -0.069   8.521  -0.233 -0.4518 -0.0576 -0.0435
  603MOL0     C79509  -0.368   8.727   0.463  0.3502 -0.1339  0.4837
  603MOL0     C79510  -0.249   8.803   0.477 -0.7178  0.1111  0.4788
  603MOL0     O79511  -0.039   8.979   0.352 -0.6143 -0.4684  0.2693
  603MOL0     C79512   0.189   9.118   0.379 -0.0164 -0.2835  0.3814
  603MOL0     C79513   0.303   9.195   0.408 -0.1681 -0.0360  0.7271
  603MOL0     N79514   1.003   9.070   0.332  0.1021  0.1816 -0.1196
  603MOL0     N79515   1.090   9.017   0.251 -0.0320 -0.2194 -0.4539
  603MOL0     C79516   2.019   8.518   0.365  1.3683 -0.5009 -0.5645
  603MOL0     C79517   2.099   8.463   0.465  0.8145 -0.1045 -0.0401
  603MOL0     C79518   2.478   8.310   0.654 -0.6527 -0.6221 -0.0102
  603MOL0     C79519   2.413   8.291   0.773  0.3933  0.5150  0.5317
  603MOL0     C79520   2.468   8.222   0.880  0.2519  0.1285  0.7387
  603MOL0     C79521   2.593   8.158   0.863  0.2651  0.3261  1.2256
  603MOL0     O79522   2.638   8.110   0.980 -0.8571 -0.0312  0.7956
  603MOL0     C79523   2.735   7.999   0.959 -0.0168 -0.7172  0.5089
  603MOL0     C79524   2.748   7.923   1.087 -0.0819  0.5261  0.0605
  603MOL0     C79525   2.656   7.799   1.100 -0.1459  1.2976  0.5197
  603MOL0     C79526   2.522   7.844   1.158  1.4788  0.0098  0.8645
  603MOL0     C79527   2.443   7.723   1.194 -0.7120  0.4228  0.1352
  603MOL0     C79528   2.371   7.624   1.219  0.2419 -0.4601  0.1822
  603MOL0     C79529   2.654   8.169   0.732 -0.2145 -0.2507  0.4944
  603MOL0     C79530   2.599   8.250   0.630 -0.4397  0.4437  1.1825
  603MOL0     H79531   2.341   8.685   0.485  0.4577 -3.4169  0.0096
  603MOL0     H79532   2.176   8.796   0.297  2.9869 -1.5456 -1.5521
  603MOL0     H79533   2.110   8.753   0.072  0.0226  1.5811  1.7500
  603MOL0     H79534   2.025   8.867   0.165 -0.7094 -0.0163  2.3661
  603MOL0     H79535   1.935   8.722  -0.082  0.7436  1.7460 -1.9358
  603MOL0     H79536   1.946   8.887  -0.063 -1.0330  0.5924  0.0678
  603MOL0     H79537   1.736   8.765   0.119  0.9549  0.2781  1.7142
  603MOL0     H79538   1.700   8.802  -0.048  1.2659  0.6350 -1.0365
  603MOL0     H79539   1.799   8.993   0.166 -0.8937 -1.6475  0.2812
  603MOL0     H79540   1.789   9.043   0.000  2.6137 -0.9892  0.2412
  603MOL0     H79541   1.545   8.923   0.155  0.3013 -0.0081  1.0870
  603MOL0     H79542   1.555   8.971  -0.021  0.7340 -2.2524  0.6251
  603MOL0     H79543   1.595   9.202   0.053  1.3715 -2.5635 -2.6013
  603MOL0     H79544   1.644   9.149   0.211  1.6113 -4.9028 -1.1850
  603MOL0     H79545   1.431   9.079   0.288  0.0195  1.2082  0.5043
  603MOL0     H79546   1.442   9.250   0.244  3.3441 -0.6267  2.0126
  603MOL0     H79547   1.317   9.038   0.069  1.3068  0.0560  2.0474
  603MOL0     H79548   1.297   9.216   0.055  0.5556  3.4399  3.3090
  603MOL0     H79549   1.160   9.339   0.257  0.6790  0.7218  2.6858
  603MOL0     H79550   0.957   9.401   0.400 -3.9372  0.2359  0.4357
  603MOL0     H79551   0.958   9.279   0.533  1.3206  1.5022  1.3905
  603MOL0     H79552   0.778   9.155   0.407  0.6268  0.3149 -0.2407
  603MOL0     H79553   0.780   9.287   0.289  0.7787 -1.0155 -0.6365
  603MOL0     H79554   0.723   9.350   0.588  0.1360 -1.9472 -0.6191
  603MOL0     H79555   0.731   9.460   0.454  0.5435  1.0260  1.3747
  603MOL0     H79556   0.544   9.301   0.346 -2.7524 -2.5922 -0.1363
  603MOL0     H79557   0.487   9.397   0.490 -2.3873 -3.1837  2.7506
  603MOL0     H79558   0.432   9.031   0.669 -1.7206 -0.9615  1.7464
  603MOL0     H79559   0.211   8.885   0.627 -0.6223 -0.1692 -0.5389
  603MOL0     H79560  -0.015   8.571   0.425  1.0630  2.4952 -2.5557
  603MOL0     H79561  -0.216   8.442   0.349 -0.7726  0.8010  0.9868
  603MOL0     H79562  -0.591   8.659   0.294 -3.5558 -2.2462 -1.5951
  603MOL0     H79563  -0.639   8.628   0.471 -2.3601 -0.1471 -0.3434
  603MOL0     H79564  -0.793   8.512   0.395  2.3073  3.9635  0.5045
  603MOL0     H79565  -0.674   8.390   0.388 -1.7829  0.7729  2.1685
  603MOL0     H79566  -0.762   8.553   0.133 -0.0366  0.2875  0.5452
  603MOL0     H79567  -0.820   8.398   0.167  0.1368  0.2243 -2.7277
  603MOL0     H79568  -0.587   8.320   0.177 -0.9251 -2.0059 -1.0354
  603MOL0     H79569  -0.679   8.302   0.046  0.0012 -0.2513  0.6910
  603MOL0     H79570  -0.488   8.548   0.080  1.0730  0.4919 -1.6895
  603MOL0     H79571  -0.588   8.525  -0.057 -0.1512 -1.5515 -0.5258
  603MOL0     H79572  -0.465   8.315  -0.132  0.5211  1.5067 -1.4180
  603MOL0     H79573  -0.375   8.321   0.027  1.5341 -0.3113 -0.9170
  603MOL0     H79574  -0.371   8.554  -0.175  2.7610 -1.1464 -4.4790
  603MOL0     H79575  -0.282   8.538  -0.024  2.3088 -3.9557  0.7655
  603MOL0     H79576  -0.252   8.386  -0.290 -0.6456  0.3888  0.3961
  603MOL0     H79577  -0.164   8.331  -0.148  2.1598  1.3499 -0.3703
  603MOL0     H79578  -0.465   8.769   0.489 -0.7137 -2.8331  1.1488
  603MOL0     H79579  -0.262   8.908   0.500  1.9241  0.8305 -0.8541
  603MOL0     H79580   0.131   9.153   0.294  1.1916 -0.4841 -0.5559
  603MOL0     H79581   0.330   9.274   0.339 -0.5897 -1.6430 -1.4108
  603MOL0     H79582   1.928   8.473   0.330  1.6058 -0.2561 -1.5180
  603MOL0     H79583   2.047   8.389   0.526 -2.1649  2.6066  0.9889
  603MOL0     H79584   2.314   8.326   0.802  1.3847  2.1315  2.1140
  603MOL0     H79585   2.417   8.208   0.975  2.2423  0.1366  1.8580
  603MOL0     H79586   2.833   8.045   0.939 -0.8193  0.7093 -0.3026
  603MOL0     H79587   2.706   7.941   0.871 -1.8670  0.1983  0.4799
  603MOL0     H79588   2.851   7.889   1.073  1.0966  4.4418 -2.3657
  603MOL0     H79589   2.754   7.982   1.178  0.2841 -1.1841  1.1925
  603MOL0     H79590   2.715   7.736   1.167  1.0881  1.2882 -0.5335
  603MOL0     H79591   2.640   7.737   1.011  0.3557 -1.7691  2.4093
  603MOL0     H79592   2.526   7.882   1.260 -2.2334 -1.1376  1.6179
  603MOL0     H79593   2.459   7.901   1.089  1.1618 -0.9723  0.3164
  603MOL0     H79594   2.301   7.545   1.236 -1.4248  0.8757 -0.2398
  603MOL0     H79595   2.751   8.121   0.724  0.6801  1.4684  0.5481
  603MOL0     H79596   2.660   8.241   0.540  0.6037  3.0376  1.5282
  604MOL0     O79597   7.301   5.290   1.405  0.4604  0.8498  0.3962
  604MOL0     C79598   7.327   5.213   1.316  0.3184 -0.1182  0.0358
  604MOL0     O79599   7.239   5.112   1.276  0.2400  0.4897 -0.2897
  604MOL0     C79600   7.111   5.098   1.321 -0.4687  0.0285 -0.4119
  604MOL0     C79601   7.048   4.969   1.317 -0.5514 -0.3192  0.4051
  604MOL0     C79602   6.915   4.955   1.348  1.0305 -0.2902  0.3884
  604MOL0     C79603   6.834   5.064   1.388 -0.2114 -0.0477 -0.2141
  604MOL0     O79604   6.712   5.046   1.437 -0.1088  0.2910  0.4238
  604MOL0     C79605   6.601   5.118   1.384  0.0374 -0.1335  0.0337
  604MOL0     C79606   6.501   5.149   1.482  0.4552 -0.7232  0.6305
  604MOL0     C79607   6.375   5.186   1.401 -0.8764 -0.5157 -0.4249
  604MOL0     C79608   6.253   5.197   1.491  0.8444  0.7430  0.3019
  604MOL0     C79609   6.142   5.295   1.447  0.4529  0.4616 -0.0250
  604MOL0     C79610   6.023   5.297   1.540  0.7921 -0.2382 -0.0619
  604MOL0     C79611   5.896   5.346   1.463 -0.5044  0.3368 -0.7594
  604MOL0     C79612   5.901   5.487   1.408  0.5536 -0.9481 -0.6977
  604MOL0     N79613   5.772   5.520   1.340  0.3482 -0.0233 -1.0238
  604MOL0     C79614   5.646   5.529   1.398  0.2448 -0.2589 -0.1261
  604MOL0     C79615   5.571   5.555   1.292  0.9830 -0.2898  0.4565
  604MOL0     C79616   5.418   5.576   1.299 -0.2234 -0.5986 -0.3090
  604MOL0     C79617   5.338   5.480   1.203  0.4804 -0.2146 -0.8993
  604MOL0     C79618   5.340   5.505   1.042 -0.0878  0.3076 -0.0757
  604MOL0     C79619   5.289   5.639   1.008 -0.8613 -0.1935  0.0058
  604MOL0     O79620   5.176   5.683   1.086 -0.0840 -0.9311 -0.1970
  604MOL0     C79621   5.051   5.626   1.047 -0.1092 -0.7951 -0.3393
  604MOL0     C79622   4.944   5.658   1.128  0.5096  0.4996  0.0247
  604MOL0     C79623   4.812   5.610   1.103 -0.8307  0.1930 -0.4637
  604MOL0     C79624   4.781   5.546   0.988 -0.1682 -0.2597 -0.4918
  604MOL0     C79625   4.646   5.524   0.947  0.0835 -0.0723 -1.0475
  604MOL0     O79626   4.552   5.581   1.035 -0.1433  0.0721 -0.8986
  604MOL0     C79627   4.427   5.524   1.039 -0.1019  0.0730  1.3146
  604MOL0     C79628   4.382   5.462   1.158  0.4131 -0.7047  0.0396
  604MOL0     C79629   4.257   5.400   1.167 -0.0163 -0.1905 -0.3940
  604MOL0     C79630   4.164   5.422   1.068 -1.3866 -0.3372  0.6855
  604MOL0     O79631   4.040   5.366   1.101 -0.2263 -0.0431  0.4810
  604MOL0     C79632   3.960   5.331   0.998  0.6264  0.2647 -0.0890
  604MOL0     C79633   3.826   5.312   1.062  0.4946  1.1671  0.3885
  604MOL0     C79634   3.723   5.261   0.961 -0.0496 -0.4503 -0.3679
  604MOL0     C79635   3.587   5.238   1.025 -0.3698  0.6875  0.0364
  604MOL0     C79636   3.470   5.253   0.929  0.1087 -0.3286  0.2498
  604MOL0     C79637   3.337   5.197   0.980 -0.8710 -0.1518  0.2981
  604MOL0     C79638   3.214   5.223   0.893 -0.7649  0.4571  0.1985
  604MOL0     C79639   3.091   5.212   0.971  0.5365  0.1876  0.9332
  604MOL0    Cl79640   2.936   5.218   0.871 -0.0842  0.2066  0.0179
  604MOL0     C79641   4.206   5.476   0.943 -0.2126 -0.4251  0.3046
  604MOL0     C79642   4.344   5.520   0.921  0.4686 -0.9653  0.0673
  604MOL0     O79643   4.623   5.465   0.843 -0.5224  0.2663 -0.3048
  604MOL0     C79644   4.888   5.497   0.916 -0.3787 -1.3943  0.0646
  604MOL0     C79645   5.028   5.532   0.942 -0.5428 -0.2528  0.7895
  604MOL0     N79646   5.643   5.562   1.176  0.3746  1.5083  0.2940
  604MOL0     N79647   5.764   5.528   1.213 -0.5047  0.6757  0.3729
  604MOL0     C79648   6.901   5.191   1.393  0.5555  0.1442 -0.3163
  604MOL0     C79649   7.033   5.206   1.357  0.2065  0.0113 -1.0376
  604MOL0     C79650   7.454   5.214   1.248  0.3365  0.5629  0.4149
  604MOL0     C79651   7.546   5.309   1.275  0.1496  0.8041 -0.5955
  604MOL0     C79652   7.678   5.303   1.225 -0.3563 -0.4656 -0.3721
  604MOL0     C79653   7.720   5.203   1.138  0.2321  0.5497  0.3215
  604MOL0     O79654   7.849   5.193   1.084 -0.3251 -0.4883  0.3388
  604MOL0     C79655   7.908   5.315   1.035 -0.6023  0.0669  0.0761
  604MOL0     C79656   7.829   5.371   0.919  0.0354  0.2147  0.5140
  604MOL0     C79657   7.846   5.283   0.801 -0.7559 -0.3414  0.3386
  604MOL0     C79658   7.751   5.318   0.692 -0.6566 -0.8721 -0.0547
  604MOL0     C79659   7.780   5.217   0.588  0.1105  0.2424  1.4662
  604MOL0     C79660   7.801   5.127   0.508  0.5838  0.2155  0.3266
  604MOL0     C79661   7.630   5.104   1.112 -0.1144 -0.1743  0.4350
  604MOL0     C79662   7.500   5.105   1.174  0.1642 -0.8037  0.0717
  604MOL0     H79663   7.095   4.876   1.288 -0.5758  0.4034 -2.1940
  604MOL0     H79664   6.879   4.853   1.339  0.9201 -0.1106 -1.7597
  604MOL0     H79665   6.551   5.055   1.311  0.4883 -0.4044 -0.0397
  604MOL0     H79666   6.632   5.213   1.339  0.6798 -0.5697 -0.4487
  604MOL0     H79667   6.531   5.233   1.546 -2.4168  0.1505  0.9631
  604MOL0     H79668   6.474   5.068   1.550 -1.4670  0.4024  1.2733
  604MOL0     H79669   6.349   5.115   1.322  1.2331 -2.3942  0.4440
  604MOL0     H79670   6.396   5.285   1.361  0.6090 -1.2348 -1.5062
  604MOL0     H79671   6.206   5.099   1.491 -0.9848  1.5720 -0.1529
  604MOL0     H79672   6.277   5.238   1.589  2.5083 -0.0263  0.2432
  604MOL0     H79673   6.099   5.277   1.348 -1.3001 -2.8820  1.1881
  604MOL0     H79674   6.183   5.395   1.464 -3.3723  2.1630  0.2419
  604MOL0     H79675   6.031   5.359   1.630  1.9502 -2.7436  1.6667
  604MOL0     H79676   5.989   5.197   1.567  0.1793  0.0564  0.2813
  604MOL0     H79677   5.869   5.271   1.389 -1.5194 -0.6781  0.5835
  604MOL0     H79678   5.816   5.354   1.537 -0.2784  2.5254 -0.6760
  604MOL0     H79679   5.987   5.487   1.341  2.2874 -2.2579  1.4183
  604MOL0     H79680   5.925   5.557   1.488  2.3372 -1.9066 -0.3343
  604MOL0     H79681   5.616   5.516   1.502 -0.9104  2.7478 -0.0051
  604MOL0     H79682   5.384   5.678   1.282 -1.9544 -1.5289 -3.1616
  604MOL0     H79683   5.389   5.542   1.399  0.9165 -0.9069 -0.0659
  604MOL0     H79684   5.234   5.482   1.235  1.0351  4.4437  1.5569
  604MOL0     H79685   5.399   5.390   1.211  1.7149  0.1874 -4.1186
  604MOL0     H79686   5.442   5.492   1.005  0.0638  1.3394 -0.0640
  604MOL0     H79687   5.282   5.425   0.995  1.5105 -1.5899  1.0424
  604MOL0     H79688   5.252   5.639   0.905 -4.0780 -3.6350  0.9278
  604MOL0     H79689   5.369   5.711   1.024 -1.2925 -0.1304  2.0672
  604MOL0     H79690   4.958   5.727   1.210  0.0716  0.8183 -0.1669
  604MOL0     H79691   4.747   5.662   1.172  0.5148  0.4124  0.6903
  604MOL0     H79692   4.445   5.457   1.247 -0.6885 -1.2631  0.8138
  604MOL0     H79693   4.236   5.330   1.247  2.2829  0.4565  0.8887
  604MOL0     H79694   3.994   5.236   0.956 -2.3592 -0.6440 -0.6915
  604MOL0     H79695   3.941   5.405   0.920  0.5968 -1.5286 -1.8565
  604MOL0     H79696   3.801   5.409   1.106  0.9020  2.6657 -2.4334
  604MOL0     H79697   3.837   5.238   1.141 -1.4018  0.8432  0.3899
  604MOL0     H79698   3.757   5.168   0.914  1.2227  0.1331 -0.6471
  604MOL0     H79699   3.707   5.326   0.875 -1.2827  0.8364  0.7820
  604MOL0     H79700   3.588   5.136   1.065  0.9200 -0.1089 -1.8991
  604MOL0     H79701   3.569   5.298   1.114 -0.2905 -2.4005  2.2966
  604MOL0     H79702   3.507   5.207   0.837  2.1651  0.6830  0.5239
  604MOL0     H79703   3.466   5.362   0.914 -1.3845 -0.2217  1.1685
  604MOL0     H79704   3.323   5.224   1.085  0.9212  2.8530 -0.1092
  604MOL0     H79705   3.356   5.090   0.986  1.0723  0.2028  1.4837
  604MOL0     H79706   3.239   5.311   0.833  0.8169 -1.6290 -2.3969
  604MOL0     H79707   3.207   5.149   0.814 -1.4397  0.5551  0.1588
  604MOL0     H79708   3.090   5.285   1.052  0.7862  1.7783 -0.4438
  604MOL0     H79709   3.092   5.109   1.007 -0.2510 -0.5362 -0.9650
  604MOL0     H79710   4.140   5.465   0.858  2.8873  1.5112 -2.6639
  604MOL0     H79711   4.370   5.565   0.826  0.8950 -1.5919 -0.1201
  604MOL0     H79712   4.869   5.425   0.837  0.9692 -1.7266  0.0172
  604MOL0     H79713   5.105   5.488   0.879 -0.6236 -2.1208  1.9220
  604MOL0     H79714   6.840   5.273   1.430 -1.4655 -1.7673  0.9134
  604MOL0     H79715   7.081   5.303   1.369 -0.9935  0.3390  1.8337
  604MOL0     H79716   7.516   5.387   1.345 -1.1567 -2.3883  2.7142
  604MOL0     H79717   7.749   5.379   1.254  0.3038  0.2892 -3.5816
  604MOL0     H79718   8.007   5.277   1.009  0.2505 -1.1818  4.2785
  604MOL0     H79719   7.936   5.392   1.109  2.3480 -0.3726 -0.4819
  604MOL0     H79720   7.726   5.370   0.957  0.6077  0.0621  2.1620
  604MOL0     H79721   7.857   5.475   0.900  1.7412 -0.6503 -2.2589
  604MOL0     H79722   7.825   5.178   0.824 -0.1823 -0.9888 -1.7983
  604MOL0     H79723   7.950   5.280   0.769 -1.4183  0.3617 -2.1078
  604MOL0     H79724   7.653   5.324   0.740 -0.7074  1.6304 -0.3723
  604MOL0     H79725   7.766   5.415   0.645 -2.5374 -0.3220  0.4128
  604MOL0     H79726   7.803   5.051   0.432 -0.9431  1.6731 -1.2481
  604MOL0     H79727   7.661   5.015   1.059 -0.9569 -0.1526 -0.1090
  604MOL0     H79728   7.447   5.011   1.171 -2.8228  0.6800  1.7584
  605MOL0     O79729  10.505   6.233   5.533 -0.1497  0.3857  0.2733
  605MOL0     C79730  10.586   6.158   5.473 -0.5466 -0.4295 -0.5056
  605MOL0     O79731  10.572   6.096   5.350  0.6980 -0.4761  0.1296
  605MOL0     C79732  10.453   6.058   5.299 -0.2833  0.3364  0.8123
  605MOL0     C79733  10.440   5.921   5.255  0.6132 -0.1128  0.1729
  605MOL0     C79734  10.307   5.885   5.207  0.2673  0.7139 -0.3961
  605MOL0     C79735  10.196   5.976   5.210  0.4866  0.9560 -1.2043
  605MOL0     O79736  10.072   5.952   5.162 -0.7857  0.4340 -0.2049
  605MOL0     C79737  10.068   5.928   5.021 -0.2685  0.7367  0.0640
  605MOL0     C79738   9.937   5.985   4.959  0.6158 -0.2400  0.4749
  605MOL0     C79739   9.812   5.908   5.016 -0.1033 -0.0977  0.1965
  605MOL0     C79740   9.684   5.925   4.936  0.4380  0.5484 -0.2203
  605MOL0     C79741   9.557   5.844   4.993  0.2480 -0.7292 -0.4313
  605MOL0     C79742   9.423   5.887   4.926 -0.0594  0.6814 -0.4179
  605MOL0     C79743   9.412   5.866   4.773 -0.0030 -0.5719 -0.7717
  605MOL0     C79744   9.336   5.737   4.742  0.0157 -0.1056  0.2136
  605MOL0     N79745   9.195   5.731   4.773 -0.4917  0.0632 -0.0657
  605MOL0     C79746   9.134   5.619   4.833  0.2638  0.6009  0.6129
  605MOL0     C79747   8.997   5.651   4.839  0.5635  0.4496 -0.2085
  605MOL0     C79748   8.881   5.579   4.911  0.3116  0.5040  0.0322
  605MOL0     C79749   8.824   5.645   5.029 -0.4588 -0.3437  0.1280
  605MOL0     C79750   8.749   5.545   5.119 -0.6031  0.4212  0.0393
  605MOL0     C79751   8.700   5.615   5.231  0.4700 -0.2445 -0.1760
  605MOL0     O79752   8.576   5.686   5.206  0.1942 -0.2259 -0.4473
  605MOL0     C79753   8.469   5.606   5.174  0.3876  0.0356  0.2110
  605MOL0     C79754   8.406   5.611   5.048  0.4861  0.5348 -0.6939
  605MOL0     C79755   8.310   5.512   5.010 -0.4350  0.0888 -0.0184
  605MOL0     C79756   8.268   5.407   5.098 -0.6289  0.8218  0.9279
  605MOL0     C79757   8.176   5.303   5.053  0.5610 -0.1143 -0.0266
  605MOL0     O79758   8.182   5.277   4.926 -0.0616  1.0834 -0.1811
  605MOL0     C79759   8.111   5.170   4.880  0.2725 -0.3198 -0.1953
  605MOL0     C79760   7.979   5.200   4.830  0.0712  0.7572 -0.7524
  605MOL0     C79761   7.906   5.093   4.772 -0.9311 -0.6137 -0.0190
  605MOL0     C79762   7.967   4.974   4.739 -0.0981 -0.2119  0.9575
  605MOL0     O79763   7.924   4.872   4.652  0.3654  0.0398  0.3637
  605MOL0     C79764   7.811   4.901   4.568  0.2436  0.6779  0.1150
  605MOL0     C79765   7.772   4.766   4.498  0.1397  0.9457  0.4551
  605MOL0     C79766   7.663   4.780   4.391  0.0339 -1.3413  0.4289
  605MOL0     C79767   7.536   4.852   4.436 -0.4022 -1.0282  0.7384
  605MOL0     C79768   7.417   4.797   4.369 -0.0562 -0.1833 -0.2253
  605MOL0     C79769   7.286   4.868   4.427 -0.3996 -0.4527 -0.2189
  605MOL0     C79770   7.154   4.793   4.375  0.9760 -0.0938 -0.5461
  605MOL0     C79771   7.016   4.851   4.403 -0.2039 -0.0241  0.3153
  605MOL0    Cl79772   6.978   4.854   4.576 -0.5809 -0.6963 -0.3330
  605MOL0     C79773   8.091   4.943   4.790  0.2716 -0.1261  0.5887
  605MOL0     C79774   8.161   5.038   4.865  0.0885 -0.1042 -0.2830
  605MOL0     O79775   8.118   5.244   5.139 -0.2506  0.4108  0.2017
  605MOL0     C79776   8.321   5.407   5.224 -0.4855  0.4225 -0.2782
  605MOL0     C79777   8.421   5.507   5.265 -0.5841 -0.2449  0.7075
  605MOL0     N79778   8.986   5.777   4.786 -0.8723 -0.3465 -0.4381
  605MOL0     N79779   9.096   5.822   4.745 -0.4812  0.6408  0.0659
  605MOL0     C79780  10.214   6.102   5.264  0.9623  0.0478 -0.5336
  605MOL0     C79781  10.346   6.143   5.300  0.2948 -0.3106 -0.5388
  605MOL0     C79782  10.715   6.142   5.549  0.1135  1.0920  0.1668
  605MOL0     C79783  10.733   6.137   5.683  0.7004 -0.9134 -0.3680
  605MOL0     C79784  10.858   6.126   5.747  0.6064 -0.8603  0.1818
  605MOL0     C79785  10.970   6.117   5.670 -0.1385  0.6326 -0.4485
  605MOL0     O79786  11.088   6.107   5.738 -0.6113  0.8225 -0.8920
  605MOL0     C79787  11.188   6.211   5.699 -0.3652  0.2309  0.0802
  605MOL0     C79788  11.311   6.140   5.639  0.5148 -1.3281  0.0650
  605MOL0     C79789  11.396   6.265   5.583  0.4129  0.2044 -0.4251
  605MOL0     C79790  11.500   6.216   5.469  1.1104  0.1577 -0.4926
  605MOL0     C79791  11.415   6.159   5.363 -0.1673  0.1326 -0.3052
  605MOL0     C79792  11.349   6.099   5.277  0.8494  0.0145  0.6230
  605MOL0     C79793  10.963   6.121   5.530  0.1281  0.0548 -0.4250
  605MOL0     C79794  10.834   6.136   5.472 -0.2447  0.1285  0.6927
  605MOL0     H79795  10.524   5.852   5.262 -1.0656 -2.3201 -0.3421
  605MOL0     H79796  10.291   5.784   5.171  0.1529  0.6079 -0.0545
  605MOL0     H79797  10.062   5.821   4.996  0.0617  1.1015 -1.6903
  605MOL0     H79798  10.154   5.976   4.972  1.8954 -1.7822  1.1234
  605MOL0     H79799   9.946   5.970   4.851  0.0919 -0.5103  0.4679
  605MOL0     H79800   9.939   6.092   4.980  0.2968  0.2005 -1.5297
  605MOL0     H79801   9.791   5.930   5.121 -2.4068 -2.2053  0.2627
  605MOL0     H79802   9.838   5.802   5.006  0.7353  0.0999  0.2049
  605MOL0     H79803   9.659   6.031   4.927  1.2074  0.7261 -0.3711
  605MOL0     H79804   9.710   5.874   4.843 -2.6052 -4.2515  1.2028
  605MOL0     H79805   9.560   5.858   5.101 -0.4906  1.0888 -0.6190
  605MOL0     H79806   9.569   5.736   4.980  1.4080 -0.7797  0.7851
  605MOL0     H79807   9.417   5.994   4.947 -0.5367  0.3683  1.1805
  605MOL0     H79808   9.346   5.830   4.977  0.6070  0.6856  0.6223
  605MOL0     H79809   9.379   5.954   4.717  3.0780  2.1759  1.3571
  605MOL0     H79810   9.517   5.853   4.746  0.6337  1.8570  0.3191
  605MOL0     H79811   9.379   5.654   4.799  1.3681  1.1297  1.0553
  605MOL0     H79812   9.340   5.714   4.636 -1.0800  1.2905 -0.1708
  605MOL0     H79813   9.189   5.537   4.878 -0.5416  0.2100  0.9137
  605MOL0     H79814   8.922   5.481   4.940 -0.4095 -0.1669 -1.1358
  605MOL0     H79815   8.804   5.560   4.835  0.8652  4.6222 -1.8082
  605MOL0     H79816   8.757   5.727   5.002  0.7019  0.5128 -0.2709
  605MOL0     H79817   8.903   5.699   5.082 -1.1010  0.5773  0.1712
  605MOL0     H79818   8.673   5.501   5.054  1.0452 -2.5945 -0.0523
  605MOL0     H79819   8.821   5.465   5.139 -0.7454  0.1574 -0.5088
  605MOL0     H79820   8.773   5.686   5.271  1.0929  0.1360 -1.9067
  605MOL0     H79821   8.668   5.541   5.305 -0.5902 -0.8543 -1.2166
  605MOL0     H79822   8.436   5.690   4.979 -0.3357 -0.4691 -2.2742
  605MOL0     H79823   8.266   5.509   4.911 -1.8457  2.0172  0.4973
  605MOL0     H79824   7.947   5.303   4.843  1.1073  1.1688 -1.3621
  605MOL0     H79825   7.807   5.119   4.734 -0.3290  1.6119 -0.2236
  605MOL0     H79826   7.844   4.981   4.501 -0.0438  0.0427 -0.8055
  605MOL0     H79827   7.723   4.924   4.628 -0.6021  0.0087 -0.8406
  605MOL0     H79828   7.731   4.699   4.574 -0.8282  1.1729  0.1591
  605MOL0     H79829   7.860   4.727   4.447 -1.4542  0.6635 -2.3308
  605MOL0     H79830   7.628   4.682   4.355 -3.3539 -0.2431  0.2998
  605MOL0     H79831   7.704   4.833   4.305 -3.7919  0.4604 -0.5390
  605MOL0     H79832   7.519   4.833   4.542 -0.9658 -2.7461  0.3656
  605MOL0     H79833   7.553   4.958   4.416  1.0387 -1.6245 -1.6449
  605MOL0     H79834   7.406   4.690   4.389 -0.1664 -0.0536  0.4039
  605MOL0     H79835   7.418   4.818   4.261  0.6715  4.1256  0.4475
  605MOL0     H79836   7.284   4.976   4.409 -0.7369 -0.0414  2.0105
  605MOL0     H79837   7.282   4.847   4.534  1.8122 -1.7569 -0.3116
  605MOL0     H79838   7.170   4.793   4.267  2.1592 -1.7953 -0.4039
  605MOL0     H79839   7.156   4.699   4.431 -2.1061  0.2009  0.2234
  605MOL0     H79840   6.943   4.787   4.352 -1.0188  3.6307 -3.6442
  605MOL0     H79841   7.014   4.953   4.366  0.6848 -0.2812 -0.4639
  605MOL0     H79842   8.137   4.848   4.765  0.3023  0.6525 -2.7543
  605MOL0     H79843   8.264   5.022   4.896  0.3310 -0.7698 -1.3752
  605MOL0     H79844   8.309   5.322   5.290 -1.8263  1.7659  1.3234
  605MOL0     H79845   8.480   5.496   5.356  2.2220  3.0199 -0.4913
  605MOL0     H79846  10.122   6.159   5.268  0.8428 -0.1933  0.6404
  605MOL0     H79847  10.358   6.247   5.329  1.7165 -0.6963  0.3371
  605MOL0     H79848  10.645   6.148   5.745 -1.8331  0.1197 -3.8369
  605MOL0     H79849  10.856   6.134   5.855  0.8713  0.6266  0.0981
  605MOL0     H79850  11.223   6.273   5.783  1.1399 -0.0646 -0.3023
  605MOL0     H79851  11.153   6.279   5.621  0.9985  2.2561  1.1517
  605MOL0     H79852  11.365   6.080   5.713 -1.5014 -1.9704  1.0948
  605MOL0     H79853  11.284   6.077   5.554  1.8754  1.4181 -2.5781
  605MOL0     H79854  11.451   6.307   5.668 -1.6911  0.9050  0.6727
  605MOL0     H79855  11.353   6.361   5.554  1.4988  0.1364 -2.4803
  605MOL0     H79856  11.556   6.298   5.423  1.4788 -0.8951 -1.9917
  605MOL0     H79857  11.577   6.141   5.486 -1.0103 -2.9461 -3.2889
  605MOL0     H79858  11.276   6.078   5.201 -0.8613 -2.9300  2.8860
  605MOL0     H79859  11.051   6.103   5.469  0.5559  1.1217 -0.1413
  605MOL0     H79860  10.833   6.130   5.364 -0.8686 -1.0449  0.7552
  606MOL0     O79861   3.685   4.910   0.472  0.6354  0.6745 -1.4756
  606MOL0     C79862   3.712   5.027   0.514  0.7497  0.5719  0.3204
  606MOL0     O79863   3.615   5.129   0.539 -0.6545 -0.1934 -0.5627
  606MOL0     C79864   3.487   5.116   0.488 -0.2368  0.5235  0.5398
  606MOL0     C79865   3.441   5.023   0.396  0.0608 -0.2743  0.3632
  606MOL0     C79866   3.312   5.015   0.361  0.5881 -0.2326  0.3088
  606MOL0     C79867   3.206   5.093   0.425 -0.1236  0.1601  0.6190
  606MOL0     O79868   3.071   5.069   0.413  0.6042  0.2478  0.0900
  606MOL0     C79869   3.003   5.081   0.537  0.0806  0.4554  0.0947
  606MOL0     C79870   2.859   5.035   0.512  0.4912  0.2425  0.5767
  606MOL0     C79871   2.781   5.012   0.644 -0.2828 -0.7129 -0.2083
  606MOL0     C79872   2.845   4.912   0.742  0.0863  0.5278  0.1553
  606MOL0     C79873   2.739   4.850   0.845  0.6134  0.6963 -0.1638
  606MOL0     C79874   2.699   4.953   0.957 -0.6785  1.4120 -0.6342
  606MOL0     C79875   2.799   4.948   1.066  0.3635  0.0339 -0.2905
  606MOL0     C79876   2.755   5.023   1.199  0.7378 -0.3360  0.1451
  606MOL0     N79877   2.609   5.002   1.237 -0.1945 -0.1534 -0.4991
  606MOL0     C79878   2.510   5.095   1.200 -0.0024  0.3325 -0.2118
  606MOL0     C79879   2.400   5.036   1.252 -0.3954  0.7862 -0.2528
  606MOL0     C79880   2.264   5.102   1.236  0.1223 -0.2047 -0.3718
  606MOL0     C79881   2.156   4.998   1.284  0.1343 -0.9744  0.0152
  606MOL0     C79882   2.024   5.071   1.267 -0.1007  0.0918 -0.5478
  606MOL0     C79883   1.901   4.986   1.316  0.4977 -0.0103 -0.3514
  606MOL0     O79884   1.776   5.049   1.265  0.2664  0.2517  0.4807
  606MOL0     C79885   1.653   4.999   1.301  0.4497  1.5293 -0.2692
  606MOL0     C79886   1.542   5.051   1.236 -0.8418 -0.5631 -0.1184
  606MOL0     C79887   1.413   5.030   1.284  0.0912  0.5846  0.6477
  606MOL0     C79888   1.387   4.952   1.400  0.4446 -0.0879  0.6205
  606MOL0     C79889   1.246   4.906   1.443  0.1330  0.5657 -0.3729
  606MOL0     O79890   1.243   4.802   1.535  0.9675 -0.7159 -0.4659
  606MOL0     C79891   1.121   4.796   1.599 -0.8868  0.5282  0.4940
  606MOL0     C79892   1.047   4.903   1.649 -0.1952  0.1884  0.7912
  606MOL0     C79893   0.926   4.891   1.716 -0.9007 -0.1526 -0.3272
  606MOL0     C79894   0.882   4.759   1.749  0.9671  0.2810  0.6410
  606MOL0     O79895   0.765   4.729   1.816  0.3722 -0.1288  0.7547
  606MOL0     C79896   0.714   4.816   1.913 -0.4429 -0.7135 -1.2035
  606MOL0     C79897   0.609   4.739   1.987  0.2987 -0.8548 -0.3186
  606MOL0     C79898   0.460   4.741   1.941 -0.1609  0.0224  0.1243
  606MOL0     C79899   0.433   4.658   1.821 -0.4916 -0.3942 -1.1792
  606MOL0     C79900   0.427   4.510   1.845 -0.3623 -0.9384  0.4084
  606MOL0     C79901   0.378   4.430   1.728 -0.9120 -0.8867  0.6706
  606MOL0     C79902   0.478   4.375   1.632  0.0418  0.5414 -0.5488
  606MOL0     C79903   0.420   4.297   1.525  0.3271  0.8896  0.5239
  606MOL0    Cl79904   0.344   4.413   1.408 -0.2592  0.0581 -0.3301
  606MOL0     C79905   0.954   4.657   1.693  0.3169  0.9208 -0.0448
  606MOL0     C79906   1.074   4.665   1.621 -0.6871 -0.4608  0.3799
  606MOL0     O79907   1.155   4.951   1.388  0.3057  0.7339 -0.3593
  606MOL0     C79908   1.502   4.906   1.471  0.5241 -0.7460 -0.0401
  606MOL0     C79909   1.630   4.931   1.425  0.1707 -0.1236 -0.5916
  606MOL0     N79910   2.436   4.922   1.329  0.3365 -0.5711  0.2948
  606MOL0     N79911   2.564   4.904   1.317  0.1083 -0.3005 -0.3487
  606MOL0     C79912   3.266   5.179   0.525  0.4211 -0.5479  0.7081
  606MOL0     C79913   3.399   5.198   0.548 -0.4485 -0.0910  0.3071
  606MOL0     C79914   3.843   5.060   0.567 -0.7258  0.4582  0.4595
  606MOL0     C79915   3.943   4.961   0.563  0.3407 -0.3453  0.2753
  606MOL0     C79916   4.063   4.975   0.626 -0.5243 -1.2044  0.1011
  606MOL0     C79917   4.099   5.101   0.677  1.0608  0.6772 -0.0010
  606MOL0     O79918   4.216   5.135   0.732 -0.4891 -0.1963 -0.5314
  606MOL0     C79919   4.334   5.062   0.723  0.8183 -0.4730  0.5979
  606MOL0     C79920   4.440   5.164   0.757  0.2193  0.1986 -0.0513
  606MOL0     C79921   4.568   5.114   0.823 -0.2351  0.1722  0.0385
  606MOL0     C79922   4.668   5.048   0.736  0.1717 -0.4300  1.8712
  606MOL0     C79923   4.769   4.982   0.811 -0.9425 -0.0783 -0.1885
  606MOL0     C79924   4.860   4.924   0.860 -0.2125  0.3455  0.2249
  606MOL0     C79925   4.003   5.202   0.687 -0.3004  0.1475 -0.3162
  606MOL0     C79926   3.874   5.185   0.631  0.2939  0.1896 -0.3619
  606MOL0     H79927   3.509   4.961   0.339 -0.5931  1.1768 -2.1567
  606MOL0     H79928   3.292   4.937   0.288 -2.8062 -0.7115  1.5691
  606MOL0     H79929   2.988   5.184   0.570 -1.0872  0.3288  0.0175
  606MOL0     H79930   3.051   5.022   0.615 -1.1727  2.6677  2.6913
  606MOL0     H79931   2.862   4.943   0.453  0.0833  2.3335 -2.9258
  606MOL0     H79932   2.818   5.109   0.443  3.4136  1.1255 -0.3612
  606MOL0     H79933   2.686   4.969   0.611 -1.2019  1.4216 -0.5128
  606MOL0     H79934   2.765   5.102   0.704  1.1147 -1.7018  1.7469
  606MOL0     H79935   2.897   4.831   0.691 -0.5262 -0.0284  0.3916
  606MOL0     H79936   2.923   4.966   0.796  1.0145  0.4063 -1.0162
  606MOL0     H79937   2.783   4.761   0.892  1.2015  0.0114 -1.9363
  606MOL0     H79938   2.649   4.818   0.791 -0.9758  1.7044  1.7685
  606MOL0     H79939   2.596   4.930   0.990 -0.0488 -0.0219  0.4829
  606MOL0     H79940   2.704   5.055   0.919  2.7738  0.9372 -1.8102
  606MOL0     H79941   2.816   4.844   1.093  0.5805 -0.0518 -0.7528
  606MOL0     H79942   2.894   4.981   1.023  0.9145  4.3473  3.4526
  606MOL0     H79943   2.766   5.131   1.189  3.3578 -0.5771 -0.0638
  606MOL0     H79944   2.809   4.984   1.285 -0.8917 -3.0980  0.0368
  606MOL0     H79945   2.506   5.191   1.151  0.9669  0.7203  0.4580
  606MOL0     H79946   2.239   5.148   1.140  1.4153 -3.6433 -2.5422
  606MOL0     H79947   2.270   5.187   1.305 -1.5390 -1.1343  0.9868
  606MOL0     H79948   2.173   4.984   1.391 -0.6391  1.2372  0.4862
  606MOL0     H79949   2.161   4.902   1.232 -0.9969 -1.5254  0.8636
  606MOL0     H79950   2.016   5.169   1.313  0.5149  0.0279 -0.3079
  606MOL0     H79951   2.011   5.078   1.158  1.1967 -1.3892 -0.8405
  606MOL0     H79952   1.904   4.981   1.425 -1.5815 -0.8908 -0.2927
  606MOL0     H79953   1.899   4.883   1.280  1.7050  0.6858 -2.6116
  606MOL0     H79954   1.559   5.102   1.142 -1.0328 -1.3240 -0.5783
  606MOL0     H79955   1.333   5.062   1.218 -0.9811 -0.0346  1.6167
  606MOL0     H79956   1.076   5.007   1.636 -3.0091  0.8558 -1.0437
  606MOL0     H79957   0.884   4.984   1.753  1.5286  2.0208 -2.6129
  606MOL0     H79958   0.676   4.909   1.869 -3.9633 -1.5037 -0.1773
  606MOL0     H79959   0.794   4.837   1.985 -1.5324  1.5700 -0.5804
  606MOL0     H79960   0.596   4.773   2.090 -2.1904  0.3029 -0.9477
  606MOL0     H79961   0.649   4.637   1.987  0.6931 -0.7132 -1.1270
  606MOL0     H79962   0.442   4.848   1.929 -0.3011 -0.0924 -0.7113
  606MOL0     H79963   0.395   4.693   2.015 -2.9585 -0.8766 -2.7272
  606MOL0     H79964   0.335   4.682   1.778 -2.2980  1.3030  3.2563
  606MOL0     H79965   0.498   4.691   1.739 -0.6968  1.4563 -0.6586
  606MOL0     H79966   0.347   4.498   1.919 -0.5054 -2.3357  0.0560
  606MOL0     H79967   0.513   4.464   1.894 -1.3504 -1.2544  1.9024
  606MOL0     H79968   0.300   4.491   1.681 -0.7357  0.1071  1.6321
  606MOL0     H79969   0.342   4.336   1.772  0.0432 -1.2762  0.6368
  606MOL0     H79970   0.532   4.464   1.596 -0.8245  0.7855 -1.2806
  606MOL0     H79971   0.553   4.309   1.676 -2.6140 -1.3367  1.4645
  606MOL0     H79972   0.343   4.228   1.562  0.4904  0.4832  0.1295
  606MOL0     H79973   0.496   4.239   1.471  0.8995 -0.4195  2.5770
  606MOL0     H79974   0.905   4.560   1.700 -2.7129  2.2484 -0.9363
  606MOL0     H79975   1.126   4.584   1.570 -0.5871 -0.7980  1.0106
  606MOL0     H79976   1.479   4.848   1.560  2.6282 -1.8585 -0.1665
  606MOL0     H79977   1.708   4.895   1.491 -0.4524  0.5771  0.5535
  606MOL0     H79978   3.197   5.228   0.594 -3.4601 -2.5599 -1.3791
  606MOL0     H79979   3.436   5.265   0.624 -0.6814 -1.0941  1.3301
  606MOL0     H79980   3.924   4.863   0.520 -2.7255  1.3838 -2.8098
  606MOL0     H79981   4.130   4.890   0.641  1.8387  0.3098 -1.1750
  606MOL0     H79982   4.359   5.015   0.627 -1.5717 -1.7589  0.5365
  606MOL0     H79983   4.320   4.987   0.800 -3.4799 -1.7542 -1.1117
  606MOL0     H79984   4.461   5.226   0.669  1.0475 -2.2936 -1.7258
  606MOL0     H79985   4.393   5.232   0.830  2.2758  2.0597 -0.3455
  606MOL0     H79986   4.534   5.033   0.888  0.8143 -0.2144  0.1092
  606MOL0     H79987   4.615   5.198   0.877  1.3235  0.5478 -1.8153
  606MOL0     H79988   4.634   4.976   0.660  0.4427  3.0184 -1.8748
  606MOL0     H79989   4.717   5.122   0.672 -2.2766 -1.9834 -2.1751
  606MOL0     H79990   4.947   4.867   0.887 -1.7950 -2.3604 -0.0342
  606MOL0     H79991   4.022   5.300   0.730 -0.8400  0.6620 -1.2144
  606MOL0     H79992   3.809   5.271   0.625 -1.1254 -0.6416  1.9333
  607MOL0     O79993  10.239   0.244   1.161  0.4504 -0.4494 -0.6964
  607MOL0     C79994  10.231   0.244   1.038 -1.0185 -0.0447  0.2144
  607MOL0     O79995  10.339   0.252   0.945 -0.4632  0.0249  0.0116
  607MOL0     C79996  10.470   0.255   1.005  0.5658 -0.2521  0.6944
  607MOL0     C79997  10.557   0.149   0.998 -0.2459 -0.2674  0.6011
  607MOL0     C79998  10.687   0.152   1.047 -0.1846  0.9978  0.0304
  607MOL0     C79999  10.739   0.276   1.074 -0.1386  0.8190 -0.1808
  607MOL0     O80000  10.873   0.290   1.091  0.2760  0.3460 -0.4838
  607MOL0     C80001  10.901   0.236   1.221 -0.3276 -0.2043  0.1633
  607MOL0     C80002  11.027   0.163   1.218 -0.1719  0.0588  0.0091
  607MOL0     C80003  11.037   0.041   1.129  0.3889  0.4909  0.3782
  607MOL0     C80004  11.160  -0.044   1.167  0.8081 -1.1948  0.1803
  607MOL0     C80005  11.171  -0.178   1.093 -0.3518 -0.1912  0.1723
  607MOL0     C80006  11.270  -0.284   1.159  0.2658 -1.0937  0.2773
  607MOL0     C80007  11.407  -0.229   1.179 -0.5862 -0.3678  0.1923
  607MOL0     C80008  11.494  -0.354   1.196 -0.1414  0.7089  0.6312
  607MOL0     N80009  11.462  -0.440   1.315 -0.4354 -0.4406 -0.4842
  607MOL0     C80010  11.436  -0.390   1.442  0.2159  0.1514 -0.4614
  607MOL0     C80011  11.416  -0.495   1.521 -0.4386  0.5470  0.8160
  607MOL0     C80012  11.402  -0.497   1.676 -0.1098 -0.5558  0.8124
  607MOL0     C80013  11.249  -0.508   1.725 -0.2810 -0.1310  0.0270
  607MOL0     C80014  11.235  -0.622   1.826 -0.3864  0.8618  0.1672
  607MOL0     C80015  11.097  -0.633   1.898  0.5326 -0.1538 -0.0972
  607MOL0     O80016  10.995  -0.665   1.800 -0.1600 -0.1620  1.0991
  607MOL0     C80017  10.886  -0.729   1.849  0.4008  0.3084  1.1653
  607MOL0     C80018  10.781  -0.729   1.762  0.0277  0.1717  0.2572
  607MOL0     C80019  10.650  -0.755   1.805  0.2445 -0.0216  0.1108
  607MOL0     C80020  10.624  -0.815   1.926  1.0484  0.0656 -0.7214
  607MOL0     C80021  10.486  -0.843   1.969  0.2714  0.3473 -0.1383
  607MOL0     O80022  10.387  -0.837   1.879  0.7929  0.8437  0.3387
  607MOL0     C80023  10.257  -0.873   1.908  0.1623 -0.4432 -0.3659
  607MOL0     C80024  10.161  -0.771   1.915 -0.5931 -0.6591  0.4906
  607MOL0     C80025  10.036  -0.796   1.959  0.1975 -0.2278 -0.7044
  607MOL0     C80026  10.005  -0.926   2.006  0.3770  0.1401 -0.1193
  607MOL0     O80027   9.882  -0.948   2.054 -0.3972 -0.6490  1.0841
  607MOL0     C80028   9.775  -0.957   1.956  0.4558  0.3085 -0.9435
  607MOL0     C80029   9.643  -0.982   2.036  0.5071  0.0360  0.0123
  607MOL0     C80030   9.557  -0.859   2.076  0.6546 -0.4285 -0.3117
  607MOL0     C80031   9.631  -0.748   2.151  0.4094 -0.9257  0.4298
  607MOL0     C80032   9.535  -0.641   2.194 -0.0084 -0.1759  0.0537
  607MOL0     C80033   9.610  -0.536   2.278  0.6038  0.4114 -0.6132
  607MOL0     C80034   9.525  -0.407   2.300  0.6183 -0.1585  0.8029
  607MOL0     C80035   9.533  -0.309   2.179 -0.6157  0.3844  0.8217
  607MOL0    Cl80036   9.707  -0.249   2.165 -0.4914  0.1280 -0.2042
  607MOL0     C80037  10.102  -1.023   2.002 -0.5712 -0.0269  0.1435
  607MOL0     C80038  10.228  -1.001   1.947  0.2695  0.1721 -0.4408
  607MOL0     O80039  10.472  -0.855   2.095  0.7277  0.2317  0.4017
  607MOL0     C80040  10.731  -0.834   2.014  0.7842  0.2595  0.9264
  607MOL0     C80041  10.860  -0.782   1.980  0.4087 -0.2277  0.4752
  607MOL0     N80042  11.426  -0.611   1.435 -0.3013 -0.0707  0.5472
  607MOL0     N80043  11.454  -0.576   1.315 -0.3152 -0.7241 -0.2119
  607MOL0     C80044  10.656   0.385   1.079  0.0526 -0.5872 -0.0277
  607MOL0     C80045  10.518   0.372   1.053  0.5907 -0.3529  0.0460
  607MOL0     C80046  10.096   0.224   0.980 -0.0966  0.6558 -0.0375
  607MOL0     C80047  10.080   0.143   0.863 -0.5870 -0.8095  1.0472
  607MOL0     C80048   9.957   0.142   0.791  0.4421  0.2256 -0.3063
  607MOL0     C80049   9.847   0.211   0.845  1.0880 -0.2047  0.7583
  607MOL0     O80050   9.726   0.200   0.774  0.9907 -0.8188 -0.2529
  607MOL0     C80051   9.614   0.285   0.793 -0.0009 -0.7070  0.8711
  607MOL0     C80052   9.487   0.256   0.699  0.5449  0.4086 -0.5375
  607MOL0     C80053   9.464   0.104   0.695  0.1771 -0.4408  0.2432
  607MOL0     C80054   9.382   0.052   0.583 -0.4841  0.0257  0.3626
  607MOL0     C80055   9.237   0.064   0.602 -0.1728 -0.5132  0.2353
  607MOL0     C80056   9.115   0.073   0.608 -1.0589  0.7167 -0.0897
  607MOL0     C80057   9.857   0.278   0.967 -0.1206 -0.1055 -0.0397
  607MOL0     C80058   9.982   0.284   1.028 -0.3589 -0.3111  0.6872
  607MOL0     H80059  10.526   0.054   0.954 -3.5193  0.7071  0.5380
  607MOL0     H80060  10.746   0.061   1.036  1.3049  2.1067 -1.6583
  607MOL0     H80061  10.825   0.183   1.279 -0.9678  0.1684 -0.3181
  607MOL0     H80062  10.899   0.328   1.280 -1.5747  1.5058 -2.3602
  607MOL0     H80063  11.046   0.125   1.319 -4.6461 -0.1843  0.9764
  607MOL0     H80064  11.097   0.246   1.199  0.9876 -0.5623  1.3695
  607MOL0     H80065  11.040   0.079   1.027 -4.0481 -2.1331 -0.9863
  607MOL0     H80066  10.949  -0.024   1.130  0.7030  0.0222 -0.7479
  607MOL0     H80067  11.254   0.013   1.166  2.9087 -4.3870  0.3495
  607MOL0     H80068  11.142  -0.079   1.269 -1.0206 -1.7563 -0.2916
  607MOL0     H80069  11.210  -0.164   0.992  0.3541 -1.9255  0.1689
  607MOL0     H80070  11.073  -0.223   1.079  0.5427 -1.6725 -1.7409
  607MOL0     H80071  11.262  -0.375   1.099  0.2837 -0.3811 -0.8512
  607MOL0     H80072  11.218  -0.321   1.247 -3.9072 -2.8395 -2.5817
  607MOL0     H80073  11.448  -0.178   1.092 -0.5238  1.9456  1.4922
  607MOL0     H80074  11.418  -0.154   1.258  0.4980 -1.4092  1.0743
  607MOL0     H80075  11.599  -0.324   1.193 -0.7987  3.2061  0.6429
  607MOL0     H80076  11.470  -0.415   1.108 -0.2985  0.6002  0.7480
  607MOL0     H80077  11.434  -0.290   1.485  0.7396  0.5564 -1.3507
  607MOL0     H80078  11.454  -0.412   1.723  1.1876 -1.7153  1.5383
  607MOL0     H80079  11.450  -0.592   1.697  2.0595  0.1862 -0.4917
  607MOL0     H80080  11.191  -0.537   1.637 -0.4095  1.5697 -0.4876
  607MOL0     H80081  11.207  -0.416   1.767 -5.1190 -2.5696  1.2508
  607MOL0     H80082  11.255  -0.711   1.766 -0.7310  0.9117 -0.0244
  607MOL0     H80083  11.314  -0.615   1.901  0.5736 -2.4660 -0.3719
  607MOL0     H80084  11.073  -0.533   1.935 -0.8832 -0.1542 -0.9492
  607MOL0     H80085  11.103  -0.703   1.982  0.1268  0.6091  0.5773
  607MOL0     H80086  10.803  -0.697   1.660 -3.0625  1.2961 -0.1569
  607MOL0     H80087  10.571  -0.739   1.733  1.6519 -0.1635 -1.5398
  607MOL0     H80088  10.203  -0.673   1.892  1.4098 -1.0317  2.2518
  607MOL0     H80089   9.954  -0.727   1.972 -0.0069 -0.5233 -0.3950
  607MOL0     H80090   9.798  -1.034   1.882 -3.1378 -1.3006 -0.5820
  607MOL0     H80091   9.751  -0.870   1.895  0.0693 -0.3739 -1.7832
  607MOL0     H80092   9.666  -1.045   2.122 -0.9498 -0.9449 -0.2695
  607MOL0     H80093   9.586  -1.044   1.966  0.0006  2.5686 -1.9519
  607MOL0     H80094   9.475  -0.902   2.135  0.5832 -2.5272 -1.8433
  607MOL0     H80095   9.508  -0.825   1.985 -0.7668  0.0310  0.5917
  607MOL0     H80096   9.671  -0.788   2.244  2.0668 -0.9717 -0.2764
  607MOL0     H80097   9.695  -0.695   2.080 -1.0087  1.9386  1.1407
  607MOL0     H80098   9.460  -0.692   2.255 -0.8792 -3.9261 -3.6371
  607MOL0     H80099   9.495  -0.582   2.111  2.5715  2.4597  0.5246
  607MOL0     H80100   9.696  -0.514   2.214  1.0370  1.1007  0.1810
  607MOL0     H80101   9.656  -0.572   2.370 -2.2702 -1.6168  0.1498
  607MOL0     H80102   9.421  -0.437   2.313  0.5502 -3.4294 -4.4270
  607MOL0     H80103   9.554  -0.353   2.391  0.4353  0.4958  0.4804
  607MOL0     H80104   9.476  -0.217   2.194  0.1590  0.8263  1.1393
  607MOL0     H80105   9.501  -0.358   2.087  0.5204  0.9972  0.0927
  607MOL0     H80106  10.076  -1.110   2.061 -1.0270  0.6354  0.9498
  607MOL0     H80107  10.302  -1.081   1.949  1.2904  1.1211  0.6405
  607MOL0     H80108  10.725  -0.899   2.100  1.2789 -0.3978  0.4755
  607MOL0     H80109  10.936  -0.776   2.058 -0.4837  0.0821  1.3454
  607MOL0     H80110  10.687   0.487   1.101 -1.0672 -0.0474 -0.8704
  607MOL0     H80111  10.448   0.456   1.060 -0.0346 -0.8183 -0.4383
  607MOL0     H80112  10.164   0.083   0.830  0.2352  1.8281 -2.1680
  607MOL0     H80113   9.960   0.092   0.695 -0.0734  0.7133 -0.5838
  607MOL0     H80114   9.645   0.390   0.787  0.6033 -0.8542  1.2469
  607MOL0     H80115   9.575   0.283   0.895 -2.4656  2.7675  0.1958
  607MOL0     H80116   9.397   0.308   0.732  0.3326 -0.6736  0.6479
  607MOL0     H80117   9.506   0.286   0.596 -0.9567  0.2209 -0.8829
  607MOL0     H80118   9.415   0.079   0.790 -0.7106 -2.1732 -0.6303
  607MOL0     H80119   9.558   0.050   0.680  0.2955 -0.5686  1.3722
  607MOL0     H80120   9.413   0.101   0.491  0.7955 -2.6469 -0.7527
  607MOL0     H80121   9.405  -0.052   0.556 -0.7619  0.2781 -0.9106
  607MOL0     H80122   9.009   0.087   0.603 -1.5806 -2.9352 -2.0977
  607MOL0     H80123   9.777   0.328   1.020  0.8418  1.2729  0.1522
  607MOL0     H80124   9.986   0.345   1.118  0.9563 -0.7727  0.9719
  608MOL0     O80125   0.530   3.543   6.429  0.0136 -0.0833  0.6351
  608MOL0     C80126   0.419   3.580   6.467 -0.0469  0.3594 -0.3061
  608MOL0     O80127   0.376   3.578   6.591 -0.1430  0.2699  0.1943
  608MOL0     C80128   0.465   3.568   6.698 -0.2193 -0.3430  0.5891
  608MOL0     C80129   0.569   3.660   6.704 -0.1286 -0.0580  0.5666
  608MOL0     C80130   0.663   3.666   6.809 -0.3924  0.1760  0.6485
  608MOL0     C80131   0.646   3.590   6.921  0.1170 -0.7820  0.1257
  608MOL0     O80132   0.716   3.614   7.037  0.5451 -0.5964  0.5701
  608MOL0     C80133   0.793   3.740   7.039 -0.1419  0.4993 -0.2962
  608MOL0     C80134   0.813   3.782   7.185  0.3696  0.3205 -0.7271
  608MOL0     C80135   0.901   3.694   7.265 -0.9645  0.5529 -0.7314
  608MOL0     C80136   1.049   3.723   7.234  0.1070  0.1408  0.0875
  608MOL0     C80137   1.151   3.618   7.290  0.7883  0.3414  0.2029
  608MOL0     C80138   1.132   3.570   7.433  0.0935 -0.4056 -0.3222
  608MOL0     C80139   1.239   3.480   7.487  0.1555 -0.3668 -0.7659
  608MOL0     C80140   1.193   3.412   7.619 -0.1923 -1.2220  0.6548
  608MOL0     N80141   1.297   3.326   7.667  0.2607  0.0276  0.0478
  608MOL0     C80142   1.348   3.214   7.603 -0.3784 -0.1791  0.4462
  608MOL0     C80143   1.411   3.150   7.708  1.3467  0.9984 -0.4475
  608MOL0     C80144   1.449   3.004   7.688 -1.2233 -0.6998 -0.2888
  608MOL0     C80145   1.361   2.908   7.752  1.0500 -0.2772 -0.3886
  608MOL0     C80146   1.241   2.888   7.661  0.2146  0.1737 -1.0826
  608MOL0     C80147   1.135   2.815   7.740 -0.4395 -0.5141 -0.0006
  608MOL0     O80148   1.017   2.777   7.660  0.2232 -0.1498 -0.3267
  608MOL0     C80149   0.928   2.877   7.620  0.9504  0.8141  0.5444
  608MOL0     C80150   0.844   2.829   7.523  0.3271 -0.2189  0.7953
  608MOL0     C80151   0.749   2.914   7.472  0.4280 -0.3974  0.7608
  608MOL0     C80152   0.751   3.054   7.502  0.0770 -0.6606  0.2700
  608MOL0     C80153   0.659   3.148   7.439  0.2914  0.5895 -0.1016
  608MOL0     O80154   0.673   3.290   7.464  1.0335  0.5090  0.5909
  608MOL0     C80155   0.560   3.351   7.415 -0.5988 -0.2389  0.2373
  608MOL0     C80156   0.430   3.329   7.463 -0.2907 -0.2849 -0.4036
  608MOL0     C80157   0.323   3.412   7.436  0.6896 -0.0453 -0.0002
  608MOL0     C80158   0.335   3.519   7.345 -0.5678 -0.3785  0.0251
  608MOL0     O80159   0.237   3.601   7.305 -0.5555  0.0893  0.1885
  608MOL0     C80160   0.133   3.540   7.227  0.2040  0.3618  0.0726
  608MOL0     C80161   0.038   3.654   7.179  0.9685 -0.1035  0.4166
  608MOL0     C80162  -0.046   3.598   7.066 -0.7468 -0.6043 -0.6295
  608MOL0     C80163  -0.162   3.505   7.102  0.2567  0.0986  0.1818
  608MOL0     C80164  -0.249   3.490   6.978 -0.2060  0.6781 -0.0569
  608MOL0     C80165  -0.325   3.609   6.941 -0.3220 -0.3489  0.1763
  608MOL0     C80166  -0.444   3.575   6.861  0.8216  0.5376 -0.3928
  608MOL0     C80167  -0.423   3.487   6.726  0.6331 -0.2844 -0.3957
  608MOL0    Cl80168  -0.565   3.516   6.631 -0.6840 -0.0893 -0.1094
  608MOL0     C80169   0.463   3.535   7.293 -0.0759 -0.6436  0.0188
  608MOL0     C80170   0.570   3.459   7.326  0.2795 -0.5291 -0.2498
  608MOL0     O80171   0.566   3.098   7.371 -0.1733  0.3308  0.7542
  608MOL0     C80172   0.844   3.102   7.591  0.0232 -0.1044  1.0380
  608MOL0     C80173   0.932   3.012   7.654  0.3486 -0.6337 -0.0417
  608MOL0     N80174   1.404   3.222   7.823 -0.3451  0.4347  0.4649
  608MOL0     N80175   1.333   3.325   7.805  0.5312 -0.0746  0.6703
  608MOL0     C80176   0.545   3.491   6.911  0.3795  0.1706 -0.4597
  608MOL0     C80177   0.453   3.481   6.801 -0.2761  0.1126 -1.2545
  608MOL0     C80178   0.325   3.620   6.349 -0.4348 -0.2201 -0.7366
  608MOL0     C80179   0.189   3.634   6.373  0.1152 -0.6878 -0.0443
  608MOL0     C80180   0.102   3.673   6.285 -0.0522 -0.1088  0.0406
  608MOL0     C80181   0.148   3.710   6.163  0.3789 -0.7150  0.4863
  608MOL0     O80182   0.064   3.754   6.058  0.5531 -0.3867  0.5006
  608MOL0     C80183  -0.076   3.771   6.082 -0.5583  0.3939 -0.3799
  608MOL0     C80184  -0.146   3.632   6.049 -0.3892 -0.5236 -1.1311
  608MOL0     C80185  -0.291   3.642   6.083  0.3243 -0.6756 -0.0853
  608MOL0     C80186  -0.362   3.533   6.007 -0.5489 -0.2052 -0.2915
  608MOL0     C80187  -0.505   3.547   6.002  0.7661  0.7340  0.4420
  608MOL0     C80188  -0.628   3.548   5.988  0.1035  0.4493 -0.7441
  608MOL0     C80189   0.288   3.701   6.123 -0.6591  0.5304  1.1946
  608MOL0     C80190   0.374   3.646   6.218 -0.0022  0.1801 -1.3039
  608MOL0     H80191   0.592   3.730   6.624 -0.8123  3.1767  2.9662
  608MOL0     H80192   0.748   3.734   6.809 -1.1211  1.1236  2.2381
  608MOL0     H80193   0.737   3.820   6.989 -1.2157 -1.4248 -2.3301
  608MOL0     H80194   0.878   3.719   6.974 -1.8313 -0.7028 -2.2253
  608MOL0     H80195   0.718   3.791   7.238  0.1578 -0.6315 -0.9235
  608MOL0     H80196   0.873   3.873   7.185  3.8008 -1.7471  0.0111
  608MOL0     H80197   0.863   3.594   7.242 -1.5359  0.9101 -1.3956
  608MOL0     H80198   0.886   3.714   7.371 -3.6187  1.3828 -1.1941
  608MOL0     H80199   1.056   3.730   7.125  0.1191  1.9320  0.1826
  608MOL0     H80200   1.083   3.819   7.273 -0.7119  1.3277 -1.9887
  608MOL0     H80201   1.252   3.660   7.282  1.6618 -1.7974 -0.9875
  608MOL0     H80202   1.150   3.530   7.224  0.2694 -0.4696  1.2606
  608MOL0     H80203   1.036   3.519   7.443  0.8989 -1.9031  0.0351
  608MOL0     H80204   1.125   3.653   7.504 -1.1501 -0.4453 -0.3844
  608MOL0     H80205   1.255   3.406   7.408 -0.9966 -1.5991  0.1149
  608MOL0     H80206   1.331   3.537   7.507  0.7526 -1.3121 -0.7451
  608MOL0     H80207   1.106   3.347   7.606 -1.2127 -0.7989  4.2027
  608MOL0     H80208   1.161   3.499   7.678 -1.6204 -1.8792  0.8941
  608MOL0     H80209   1.328   3.178   7.503 -0.1943 -0.9190  0.6677
  608MOL0     H80210   1.547   2.984   7.731 -3.1046 -7.9453  2.1759
  608MOL0     H80211   1.458   2.973   7.583 -1.6460  0.5630 -0.7241
  608MOL0     H80212   1.328   2.967   7.838  3.0083  0.6977 -0.2534
  608MOL0     H80213   1.414   2.821   7.791  2.9254  2.4542  3.8660
  608MOL0     H80214   1.203   2.982   7.620 -1.2274 -1.2189 -3.1383
  608MOL0     H80215   1.258   2.830   7.570  1.3120 -4.6726  1.8960
  608MOL0     H80216   1.118   2.895   7.813 -0.7117  2.5995 -3.1394
  608MOL0     H80217   1.168   2.730   7.799  0.2534  2.7379  4.8295
  608MOL0     H80218   0.843   2.722   7.505 -0.4138  0.0413 -0.8842
  608MOL0     H80219   0.685   2.877   7.393  1.0754 -2.9324  1.3286
  608MOL0     H80220   0.420   3.271   7.554  0.4736  2.2916  1.4555
  608MOL0     H80221   0.233   3.383   7.489  1.3284 -0.0115  1.1342
  608MOL0     H80222   0.089   3.455   7.279  0.4771 -0.6688 -1.3138
  608MOL0     H80223   0.181   3.492   7.141  3.8320 -0.3821  2.2981
  608MOL0     H80224   0.103   3.734   7.144  2.4859 -1.3384  0.3064
  608MOL0     H80225  -0.021   3.700   7.259  3.7901  1.5282  1.7133
  608MOL0     H80226   0.013   3.541   6.994  2.7649  4.0811 -1.9883
  608MOL0     H80227  -0.065   3.683   7.000 -1.1682 -1.3903 -1.5472
  608MOL0     H80228  -0.124   3.410   7.138  0.2996 -0.4215 -1.1767
  608MOL0     H80229  -0.214   3.556   7.184 -0.2301  0.5865 -0.4221
  608MOL0     H80230  -0.322   3.415   7.010  1.3176 -1.0294 -0.4195
  608MOL0     H80231  -0.198   3.443   6.893 -1.1958 -0.0256 -0.2795
  608MOL0     H80232  -0.268   3.689   6.893  0.4447 -0.7765  0.3609
  608MOL0     H80233  -0.363   3.656   7.033  0.5031  2.8414 -0.9951
  608MOL0     H80234  -0.513   3.511   6.915 -0.5668  0.1287 -2.5196
  608MOL0     H80235  -0.505   3.665   6.850 -1.4895 -0.8665  0.3182
  608MOL0     H80236  -0.393   3.386   6.753 -0.4103 -0.0371  1.9209
  608MOL0     H80237  -0.336   3.536   6.681  0.4825  1.4667  1.0947
  608MOL0     H80238   0.490   3.616   7.225 -0.9560  0.3733  0.8415
  608MOL0     H80239   0.665   3.484   7.279  0.4167  1.2657  0.8487
  608MOL0     H80240   0.864   3.207   7.607  2.1180 -0.1989 -0.5432
  608MOL0     H80241   0.994   3.061   7.728  0.4669 -0.9054  0.0392
  608MOL0     H80242   0.535   3.412   6.986 -0.9620  0.8750  0.1378
  608MOL0     H80243   0.375   3.405   6.806  1.8093 -2.0710  0.7747
  608MOL0     H80244   0.153   3.606   6.472 -2.6629 -3.1260 -1.5757
  608MOL0     H80245  -0.003   3.674   6.313  0.4666 -1.1892  2.2443
  608MOL0     H80246  -0.123   3.851   6.024 -2.3301  0.1646  0.6324
  608MOL0     H80247  -0.086   3.803   6.187  0.5848 -2.4391  0.6955
  608MOL0     H80248  -0.134   3.610   5.943 -1.9517  2.9410 -2.1743
  608MOL0     H80249  -0.104   3.546   6.103  0.2396 -0.1509 -1.0175
  608MOL0     H80250  -0.333   3.732   6.037 -0.8484 -1.7631 -1.1994
  608MOL0     H80251  -0.315   3.647   6.190  0.6952 -1.0805  0.0203
  608MOL0     H80252  -0.321   3.534   5.905 -0.2397 -0.0431 -0.1675
  608MOL0     H80253  -0.339   3.431   6.040  2.2202  0.9146  1.6354
  608MOL0     H80254  -0.729   3.580   5.975  0.4072  1.9901  0.4787
  608MOL0     H80255   0.321   3.730   6.024 -0.2766  1.6405  1.6326
  608MOL0     H80256   0.480   3.636   6.196  0.2401 -0.6890  0.1221
  609MOL0     O80257   8.039   6.940   8.557  0.0586  0.0133 -0.7935
  609MOL0     C80258   8.032   6.971   8.674 -0.5859 -1.3946  1.1432
  609MOL0     O80259   8.136   7.018   8.747  0.1644  0.1691 -0.3515
  609MOL0     C80260   8.263   7.041   8.707 -0.2567 -0.2936 -0.8998
  609MOL0     C80261   8.308   7.060   8.573  0.9773  0.0003  0.3499
  609MOL0     C80262   8.440   7.095   8.544  0.3260 -0.3708 -0.2371
  609MOL0     C80263   8.540   7.084   8.648  0.7463 -0.0060  0.6807
  609MOL0     O80264   8.676   7.106   8.621 -0.5804 -0.1407 -0.3261
  609MOL0     C80265   8.710   7.117   8.481 -0.2509 -0.0482  0.0338
  609MOL0     C80266   8.865   7.149   8.471  0.5820  1.1573  0.1419
  609MOL0     C80267   8.918   7.255   8.566  0.0678  0.6763 -0.1715
  609MOL0     C80268   9.047   7.310   8.524 -0.5675  0.1854 -0.5183
  609MOL0     C80269   9.082   7.434   8.622 -0.3579  0.7586  0.6371
  609MOL0     C80270   9.148   7.381   8.748 -0.3354 -0.1594  0.0227
  609MOL0     C80271   9.190   7.491   8.843 -0.0668 -0.0188  0.0173
  609MOL0     C80272   9.291   7.592   8.804  0.5624 -0.5800  0.2874
  609MOL0     N80273   9.435   7.542   8.803 -0.1504 -0.0729  0.2659
  609MOL0     C80274   9.540   7.610   8.868  1.0309 -0.9808  0.7837
  609MOL0     C80275   9.652   7.533   8.847  0.2789 -0.1084  0.6283
  609MOL0     C80276   9.793   7.560   8.895  0.2885  1.1072 -0.1951
  609MOL0     C80277   9.838   7.469   9.012  0.9848 -0.6812 -0.7376
  609MOL0     C80278   9.816   7.526   9.146 -0.3220  0.3653  1.0861
  609MOL0     C80279   9.845   7.440   9.263  0.3418 -0.0693  0.7348
  609MOL0     O80280   9.834   7.508   9.383  0.3296  0.0119 -0.3548
  609MOL0     C80281   9.721   7.499   9.455 -0.3234 -0.3918  0.0732
  609MOL0     C80282   9.604   7.455   9.397 -0.7352  0.3170  0.3488
  609MOL0     C80283   9.474   7.451   9.462 -0.6954  0.4665  0.9995
  609MOL0     C80284   9.471   7.520   9.590  1.1522  0.4450  0.3427
  609MOL0     C80285   9.349   7.541   9.661 -1.1134 -0.4132  0.0491
  609MOL0     O80286   9.237   7.492   9.603  0.0269 -0.3775  0.9826
  609MOL0     C80287   9.104   7.514   9.648  0.3320  0.2514 -0.8174
  609MOL0     C80288   9.040   7.631   9.613 -0.1303 -0.6833 -0.2689
  609MOL0     C80289   8.909   7.667   9.652 -0.7743 -0.2078 -0.8306
  609MOL0     C80290   8.829   7.582   9.733 -0.5664 -0.5696  0.2136
  609MOL0     O80291   8.698   7.619   9.743 -0.3159  0.0195 -0.4770
  609MOL0     C80292   8.614   7.528   9.817  0.0497 -0.7570 -0.2141
  609MOL0     C80293   8.470   7.577   9.843  0.3498 -0.1198 -0.1475
  609MOL0     C80294   8.383   7.480   9.925 -0.8195  0.7333  0.0237
  609MOL0     C80295   8.426   7.466  10.071  0.5137 -0.8757  0.1928
  609MOL0     C80296   8.322   7.409  10.153 -0.7660  0.0185 -0.6195
  609MOL0     C80297   8.200   7.502  10.163 -0.1587  0.3076 -0.7598
  609MOL0     C80298   8.234   7.615  10.263 -0.7941 -0.0508  0.7071
  609MOL0     C80299   8.119   7.704  10.287 -0.3871 -0.4048  0.3121
  609MOL0    Cl80300   8.036   7.760  10.136  0.4956 -0.2363 -0.4682
  609MOL0     C80301   8.900   7.463   9.781 -0.8444 -0.1249 -0.1731
  609MOL0     C80302   9.033   7.430   9.739 -0.9900  0.0436 -0.2425
  609MOL0     O80303   9.344   7.622   9.756 -0.2474 -0.2106  0.1414
  609MOL0     C80304   9.591   7.564   9.644  0.9154 -0.1774  0.0457
  609MOL0     C80305   9.709   7.559   9.578  0.2607  0.0243 -0.1459
  609MOL0     N80306   9.612   7.414   8.776 -0.4648  0.1300 -0.5661
  609MOL0     N80307   9.484   7.423   8.753 -0.3610 -0.6282 -0.3575
  609MOL0     C80308   8.494   7.049   8.782  0.7337 -0.0383 -0.7207
  609MOL0     C80309   8.350   7.039   8.811  0.0331  0.5693  0.2544
  609MOL0     C80310   7.895   6.978   8.731 -0.1641  0.1639 -0.3795
  609MOL0     C80311   7.774   6.960   8.660 -1.0638  0.0819  0.0521
  609MOL0     C80312   7.657   6.930   8.730  1.4201 -0.3112  0.0106
  609MOL0     C80313   7.648   6.928   8.870 -0.4717 -0.4210 -0.4139
  609MOL0     O80314   7.527   6.900   8.930  0.6352 -0.6947  0.3284
  609MOL0     C80315   7.515   6.908   9.066 -0.0813  0.0885  0.8399
  609MOL0     C80316   7.366   6.867   9.103 -0.3397  0.9892  0.3327
  609MOL0     C80317   7.362   6.848   9.256  0.8464 -0.5721 -0.0219
  609MOL0     C80318   7.222   6.800   9.308  0.0020  0.6719 -0.8287
  609MOL0     C80319   7.121   6.906   9.310 -0.1240  0.0854 -0.2832
  609MOL0     C80320   7.029   6.988   9.291  0.1705 -0.7424 -0.3057
  609MOL0     C80321   7.765   6.954   8.936  0.0148 -0.1190 -0.0844
  609MOL0     C80322   7.883   6.977   8.870  0.7684 -0.2730 -1.0081
  609MOL0     H80323   8.254   7.060   8.479  1.1909 -0.7094  0.2222
  609MOL0     H80324   8.462   7.111   8.439  1.2458  0.6689  0.0979
  609MOL0     H80325   8.655   7.196   8.430 -1.7512 -2.8893 -3.1617
  609MOL0     H80326   8.696   7.024   8.425 -1.0404  0.5543 -0.7920
  609MOL0     H80327   8.886   7.177   8.367  4.3079 -0.4615  0.2951
  609MOL0     H80328   8.927   7.061   8.489 -2.0481 -0.6249  1.1240
  609MOL0     H80329   8.924   7.206   8.663  0.5766 -1.8574 -1.3793
  609MOL0     H80330   8.848   7.338   8.577  0.9748  1.2089  1.9234
  609MOL0     H80331   9.121   7.231   8.532 -1.0369 -0.1103  1.2134
  609MOL0     H80332   9.040   7.337   8.418  1.6495  0.1472 -0.7080
  609MOL0     H80333   8.986   7.483   8.643 -1.1179 -0.2193 -0.4520
  609MOL0     H80334   9.151   7.502   8.571  1.3706 -0.6896  0.9579
  609MOL0     H80335   9.237   7.328   8.713 -0.7653 -2.3461  2.0227
  609MOL0     H80336   9.072   7.316   8.792  1.2652 -1.2846  1.2598
  609MOL0     H80337   9.100   7.551   8.860  0.0170  0.6909 -1.7916
  609MOL0     H80338   9.231   7.444   8.933  0.3882  2.5472  1.2530
  609MOL0     H80339   9.277   7.685   8.860  2.3579 -0.7511  1.1051
  609MOL0     H80340   9.267   7.623   8.702  1.8434  4.2103  1.2114
  609MOL0     H80341   9.523   7.692   8.937  2.0218  0.3173 -0.4386
  609MOL0     H80342   9.806   7.665   8.922  0.2430  0.6495  1.7317
  609MOL0     H80343   9.849   7.530   8.806 -1.1745 -1.7477 -0.2987
  609MOL0     H80344   9.946   7.451   9.019  0.9108 -0.5674  1.6462
  609MOL0     H80345   9.781   7.375   9.006  0.2303 -0.1380 -4.6905
  609MOL0     H80346   9.877   7.616   9.150  0.1182  0.1434 -0.1654
  609MOL0     H80347   9.711   7.559   9.150  0.0815  1.7081  1.1923
  609MOL0     H80348   9.945   7.399   9.248 -0.4380 -1.9383  0.3251
  609MOL0     H80349   9.782   7.350   9.260  1.6695 -1.0106 -2.0129
  609MOL0     H80350   9.598   7.421   9.294 -1.7736  4.3660 -1.1455
  609MOL0     H80351   9.394   7.397   9.414  0.5984 -1.2831  0.7045
  609MOL0     H80352   9.107   7.692   9.553  0.0501 -0.3367  0.2688
  609MOL0     H80353   8.859   7.758   9.620 -0.9289  0.2410  0.6209
  609MOL0     H80354   8.669   7.518   9.911  2.4708  1.0672 -1.3306
  609MOL0     H80355   8.614   7.434   9.761 -2.9457  0.1651 -1.9700
  609MOL0     H80356   8.427   7.585   9.743 -3.0318 -1.0088  1.1074
  609MOL0     H80357   8.477   7.672   9.897  0.8660  1.0225 -2.1275
  609MOL0     H80358   8.386   7.381   9.878  2.6309  0.3775  0.7437
  609MOL0     H80359   8.278   7.510   9.914 -1.2481 -0.7014 -0.0048
  609MOL0     H80360   8.503   7.389  10.079 -0.2276 -1.8551 -1.4715
  609MOL0     H80361   8.450   7.562  10.118  2.5037 -0.5155 -1.4218
  609MOL0     H80362   8.359   7.381  10.252  2.2944 -3.2298 -2.4537
  609MOL0     H80363   8.275   7.320  10.112 -3.0659  0.3638  1.0949
  609MOL0     H80364   8.121   7.445  10.212 -0.3039 -0.6999 -2.1157
  609MOL0     H80365   8.178   7.540  10.063 -0.2708 -0.1967 -0.9257
  609MOL0     H80366   8.259   7.561  10.355 -0.7961  0.3770  0.9634
  609MOL0     H80367   8.310   7.681  10.220 -3.3808  1.9602 -1.1087
  609MOL0     H80368   8.152   7.795  10.338  1.9330 -0.9768 -0.0669
  609MOL0     H80369   8.044   7.651  10.346  1.4073 -0.5964  2.5104
  609MOL0     H80370   8.850   7.381   9.833  0.8765  0.2195  2.2189
  609MOL0     H80371   9.072   7.343   9.791 -0.0670  1.4113  1.5137
  609MOL0     H80372   9.586   7.596   9.748 -0.6814 -0.5359  0.1110
  609MOL0     H80373   9.805   7.594   9.614  0.2581  0.6627 -0.7285
  609MOL0     H80374   8.570   7.060   8.858 -1.7185 -0.1519  1.8947
  609MOL0     H80375   8.315   7.027   8.913  0.6435  2.3148  0.7206
  609MOL0     H80376   7.777   6.961   8.551 -0.4645  0.7710  0.0682
  609MOL0     H80377   7.564   6.901   8.683  1.5976 -3.8374  1.5037
  609MOL0     H80378   7.522   7.006   9.114 -0.2848 -0.3401  1.7660
  609MOL0     H80379   7.578   6.831   9.112  0.8449 -1.5215 -2.8155
  609MOL0     H80380   7.301   6.948   9.069 -0.1927 -0.1774 -3.1644
  609MOL0     H80381   7.347   6.778   9.042  5.7579  0.1990 -1.1081
  609MOL0     H80382   7.385   6.942   9.306 -1.4493 -0.9729  1.9651
  609MOL0     H80383   7.440   6.775   9.282  1.1385 -0.3429 -0.2402
  609MOL0     H80384   7.196   6.721   9.237 -0.9189 -0.1204  0.3526
  609MOL0     H80385   7.231   6.758   9.409 -0.8296  1.9708 -0.1812
  609MOL0     H80386   6.954   7.057   9.258  1.5750  0.6928 -0.6176
  609MOL0     H80387   7.767   6.972   9.043  2.0808  1.8745 -0.3884
  609MOL0     H80388   7.976   6.998   8.922  1.0588  0.9268 -1.9663
  610MOL0     O80389   9.344   1.092   7.877 -0.4098  1.1371 -0.0275
  610MOL0     C80390   9.417   1.139   7.792  0.0329  0.1476 -0.8359
  610MOL0     O80391   9.377   1.185   7.670 -0.0712  0.1753  0.9430
  610MOL0     C80392   9.244   1.177   7.630  0.9367  0.4107 -0.9463
  610MOL0     C80393   9.215   1.135   7.499  0.4800 -0.1802 -0.0122
  610MOL0     C80394   9.088   1.145   7.444  0.3270  0.3883  0.8132
  610MOL0     C80395   8.983   1.190   7.524  0.6043  0.1062  0.7149
  610MOL0     O80396   8.848   1.207   7.477 -0.2688  0.7429  0.1258
  610MOL0     C80397   8.777   1.087   7.489 -0.0224  0.2300 -0.2830
  610MOL0     C80398   8.692   1.080   7.613  0.4134  0.7691  0.4460
  610MOL0     C80399   8.586   1.189   7.589  0.1422 -1.1835 -0.1463
  610MOL0     C80400   8.475   1.185   7.698  0.1317 -0.1207 -0.1649
  610MOL0     C80401   8.371   1.288   7.676  0.3606  0.4056  0.2925
  610MOL0     C80402   8.250   1.269   7.755  0.4042 -0.5987 -0.3040
  610MOL0     C80403   8.168   1.396   7.754  0.0743 -0.6889  0.0634
  610MOL0     C80404   8.043   1.389   7.855 -0.7173 -0.2996  0.5944
  610MOL0     N80405   7.942   1.294   7.804 -0.2982 -0.2985  0.5478
  610MOL0     C80406   7.937   1.156   7.835 -0.8639 -0.3279  0.0999
  610MOL0     C80407   7.823   1.112   7.778 -0.4467 -0.7036 -0.3333
  610MOL0     C80408   7.794   0.969   7.776  0.1191 -0.5100 -0.3984
  610MOL0     C80409   7.635   0.956   7.775 -0.2283  0.0470  0.0784
  610MOL0     C80410   7.600   0.816   7.722  0.0138 -0.4131  1.0283
  610MOL0     C80411   7.453   0.781   7.724 -0.8831 -0.1916  0.6525
  610MOL0     O80412   7.375   0.853   7.634  0.3098  0.0255  0.0167
  610MOL0     C80413   7.241   0.837   7.638  0.2513 -0.1543  0.8836
  610MOL0     C80414   7.173   0.721   7.668 -0.7200 -0.1012 -0.1254
  610MOL0     C80415   7.035   0.721   7.685  0.6080 -0.1579  0.0687
  610MOL0     C80416   6.959   0.838   7.661 -0.0102  0.4400 -0.4998
  610MOL0     C80417   6.813   0.840   7.656  0.1148  0.2746 -0.4323
  610MOL0     O80418   6.759   0.726   7.693  0.3097  0.2193  0.1141
  610MOL0     C80419   6.627   0.690   7.664 -0.2284  0.0125  0.6681
  610MOL0     C80420   6.613   0.552   7.623  0.0579  0.2738 -0.3842
  610MOL0     C80421   6.483   0.505   7.590  0.5829  0.7613  0.6014
  610MOL0     C80422   6.369   0.587   7.600  0.0727 -0.1845  0.3688
  610MOL0     O80423   6.239   0.549   7.568  0.1465 -0.4298  0.2878
  610MOL0     C80424   6.217   0.412   7.546  0.7504  1.0784  0.3152
  610MOL0     C80425   6.077   0.388   7.601 -1.1868  0.8618  0.4990
  610MOL0     C80426   5.960   0.440   7.530  0.1524 -0.0815  0.2698
  610MOL0     C80427   5.822   0.400   7.603 -0.2673 -0.2169 -0.3006
  610MOL0     C80428   5.792   0.250   7.580  0.0474 -0.4454 -0.3136
  610MOL0     C80429   5.657   0.196   7.622  0.4380  0.5689 -0.7010
  610MOL0     C80430   5.624   0.080   7.528 -0.2564  0.0761 -0.4538
  610MOL0     C80431   5.494   0.007   7.553 -0.0949  1.1563  0.9600
  610MOL0    Cl80432   5.481  -0.129   7.436 -0.2797  0.4178 -0.0041
  610MOL0     C80433   6.381   0.717   7.654 -1.2948 -0.1144  0.9791
  610MOL0     C80434   6.510   0.766   7.679  0.3643 -0.2282  0.1766
  610MOL0     O80435   6.753   0.938   7.617  1.1032  0.1445 -0.0530
  610MOL0     C80436   7.030   0.956   7.622 -0.3891  0.9322  0.1361
  610MOL0     C80437   7.168   0.951   7.609 -0.3695 -0.7883 -0.0345
  610MOL0     N80438   7.765   1.212   7.712  0.2992  0.0848  0.3427
  610MOL0     N80439   7.843   1.319   7.715 -0.2031 -0.5984 -0.3073
  610MOL0     C80440   9.011   1.236   7.652 -0.2224  0.6398 -0.5519
  610MOL0     C80441   9.143   1.230   7.704 -0.1264 -0.3905 -0.5561
  610MOL0     C80442   9.556   1.173   7.821  0.2259 -0.5185 -0.2318
  610MOL0     C80443   9.630   1.236   7.718 -0.3337  0.4658  0.3496
  610MOL0     C80444   9.761   1.286   7.749 -0.1179  0.3521 -1.4482
  610MOL0     C80445   9.821   1.267   7.872 -0.3067 -0.6552 -0.2808
  610MOL0     O80446   9.953   1.307   7.897 -0.0575  0.4359  0.3975
  610MOL0     C80447  10.009   1.308   8.031  0.5148  0.5969  0.2893
  610MOL0     C80448  10.119   1.414   8.043 -0.3088 -0.5593 -0.0263
  610MOL0     C80449  10.253   1.353   8.006 -0.5483 -0.4357 -0.0674
  610MOL0     C80450  10.372   1.409   8.080 -0.6416 -0.3574 -0.0598
  610MOL0     C80451  10.398   1.557   8.063  0.4452  1.4326 -0.6918
  610MOL0     C80452  10.412   1.676   8.048  0.8301  0.0683 -0.2549
  610MOL0     C80453   9.747   1.193   7.967 -0.2207  1.0344  0.4533
  610MOL0     C80454   9.612   1.154   7.945  0.0370 -1.5966 -1.0170
  610MOL0     H80455   9.306   1.116   7.444  1.4843  0.8754  1.2169
  610MOL0     H80456   9.070   1.111   7.343  0.7319 -0.1857  0.9307
  610MOL0     H80457   8.848   1.004   7.485 -1.4971 -1.0799 -0.1846
  610MOL0     H80458   8.703   1.077   7.408  1.0588  0.4613 -1.3292
  610MOL0     H80459   8.760   1.098   7.697 -1.1202  0.6372  1.7855
  610MOL0     H80460   8.642   0.983   7.620 -3.8938  2.4910 -2.2085
  610MOL0     H80461   8.544   1.173   7.490 -0.0611 -1.6473  0.0128
  610MOL0     H80462   8.629   1.289   7.593  0.8795 -1.5367  2.1016
  610MOL0     H80463   8.428   1.087   7.709 -2.6229  1.0462 -0.7383
  610MOL0     H80464   8.512   1.210   7.798 -4.0782  2.2069  1.0746
  610MOL0     H80465   8.332   1.265   7.576 -2.1036 -1.7339  1.6177
  610MOL0     H80466   8.421   1.385   7.687  0.7193  0.4070 -1.1398
  610MOL0     H80467   8.283   1.228   7.852 -0.0547  0.2595  0.2208
  610MOL0     H80468   8.194   1.184   7.716 -0.5652 -0.4870  0.7970
  610MOL0     H80469   8.234   1.472   7.796 -1.8314  1.7672 -1.0731
  610MOL0     H80470   8.132   1.420   7.653 -2.6492 -0.3246  1.0125
  610MOL0     H80471   7.997   1.488   7.857  0.1822  0.3874 -3.5916
  610MOL0     H80472   8.075   1.353   7.954  0.0896  1.6115  1.0830
  610MOL0     H80473   8.017   1.094   7.875  0.5447  0.2417 -1.6871
  610MOL0     H80474   7.833   0.926   7.869  1.2241  0.3917 -0.4265
  610MOL0     H80475   7.828   0.915   7.687  0.5839  1.4729 -1.4665
  610MOL0     H80476   7.586   1.031   7.713 -1.3520 -1.0136 -0.3742
  610MOL0     H80477   7.591   0.976   7.873 -0.8446  1.8512 -0.5424
  610MOL0     H80478   7.638   0.804   7.620 -2.8967  0.8107 -0.3293
  610MOL0     H80479   7.657   0.749   7.786  1.4444 -0.8205 -0.5812
  610MOL0     H80480   7.413   0.788   7.826 -1.6648 -1.1997  0.4302
  610MOL0     H80481   7.440   0.674   7.703 -1.5192  0.1246 -0.6183
  610MOL0     H80482   7.219   0.626   7.691  0.2005 -0.1125 -1.8739
  610MOL0     H80483   6.978   0.633   7.715  1.1857 -1.2931 -1.9475
  610MOL0     H80484   6.700   0.496   7.593 -1.9165 -1.0749 -4.1705
  610MOL0     H80485   6.486   0.409   7.540  5.1369  1.2401 -0.4340
  610MOL0     H80486   6.288   0.348   7.599  0.5430 -1.6082 -2.3733
  610MOL0     H80487   6.232   0.386   7.440 -1.1590  2.7880 -0.4357
  610MOL0     H80488   6.074   0.432   7.701  0.5616  3.7215 -0.5707
  610MOL0     H80489   6.061   0.281   7.616  0.3640  0.4470 -0.5492
  610MOL0     H80490   5.950   0.397   7.430  0.2942 -2.2509  1.1203
  610MOL0     H80491   5.981   0.546   7.516  0.7769 -0.2624 -0.2096
  610MOL0     H80492   5.836   0.422   7.709  2.3334 -0.0105 -0.5999
  610MOL0     H80493   5.740   0.459   7.563 -0.4114  1.9038  2.7658
  610MOL0     H80494   5.860   0.178   7.627 -0.6151 -1.0983 -0.3365
  610MOL0     H80495   5.789   0.234   7.472  0.8525 -1.0469 -0.2528
  610MOL0     H80496   5.579   0.270   7.605  0.1210  0.2559 -0.6069
  610MOL0     H80497   5.663   0.173   7.729  1.3911  1.2786 -0.5781
  610MOL0     H80498   5.615   0.133   7.433  2.1093  5.8755  2.0476
  610MOL0     H80499   5.708   0.010   7.528 -0.3101 -0.0123  0.7293
  610MOL0     H80500   5.416   0.076   7.520 -0.9408 -0.1844  0.0326
  610MOL0     H80501   5.491  -0.030   7.656 -1.9842  2.3514  1.3902
  610MOL0     H80502   6.290   0.772   7.677  0.1220  3.3724 -0.9594
  610MOL0     H80503   6.509   0.865   7.723  0.9972 -1.0381  2.0815
  610MOL0     H80504   6.977   1.051   7.614 -1.2755  0.5777  1.5133
  610MOL0     H80505   7.223   1.040   7.580  0.8649 -1.0867  1.2645
  610MOL0     H80506   8.925   1.278   7.704 -0.9266  0.4287 -1.5125
  610MOL0     H80507   9.166   1.264   7.805 -1.3523 -1.4145  0.0943
  610MOL0     H80508   9.593   1.251   7.618 -2.2044 -0.3110  0.8734
  610MOL0     H80509   9.821   1.339   7.675 -1.1684  2.1547 -1.0494
  610MOL0     H80510  10.052   1.211   8.056 -0.9266  0.7880  4.0800
  610MOL0     H80511   9.933   1.331   8.106  0.7671  0.0186  0.7333
  610MOL0     H80512  10.084   1.500   7.986 -3.1645  0.0343  2.3325
  610MOL0     H80513  10.117   1.450   8.147  0.3668  1.0492 -0.5263
  610MOL0     H80514  10.266   1.360   7.898 -1.7834  0.3226 -0.1903
  610MOL0     H80515  10.251   1.246   8.024 -1.3391 -0.3384  0.4865
  610MOL0     H80516  10.362   1.390   8.187  0.2397 -0.2862  0.0414
  610MOL0     H80517  10.467   1.365   8.048  0.4604  0.0114  2.4149
  610MOL0     H80518  10.412   1.782   8.031 -4.7412  0.1781 -1.4446
  610MOL0     H80519   9.788   1.176   8.066 -1.6599  3.9371  1.6879
  610MOL0     H80520   9.544   1.122   8.023 -1.7972  1.0306 -1.3892
  611MOL0     O80521   6.781   2.450   7.435 -0.5959 -0.6697  0.2083
  611MOL0     C80522   6.757   2.444   7.320 -0.4321  0.1675  0.5001
  611MOL0     O80523   6.822   2.369   7.229  0.1444 -0.9915  0.3156
  611MOL0     C80524   6.947   2.324   7.251 -0.1301 -0.0125 -0.2743
  611MOL0     C80525   7.046   2.415   7.284  0.2702 -0.2290 -0.6562
  611MOL0     C80526   7.176   2.380   7.307 -0.2580  0.8671 -0.5088
  611MOL0     C80527   7.215   2.240   7.312  0.6412  0.1556  0.6359
  611MOL0     O80528   7.348   2.202   7.339  0.1795 -0.4341  0.5895
  611MOL0     C80529   7.358   2.078   7.409  0.3498  0.9524 -0.3031
  611MOL0     C80530   7.393   2.095   7.562  0.2455  0.5390 -0.4353
  611MOL0     C80531   7.518   2.185   7.595  0.3860  0.2441  0.8161
  611MOL0     C80532   7.572   2.166   7.740 -0.0945  1.2807 -0.4566
  611MOL0     C80533   7.497   2.223   7.859  0.3830 -0.4983 -0.6925
  611MOL0     C80534   7.388   2.126   7.912  0.5422  0.0199 -0.6534
  611MOL0     C80535   7.338   2.175   8.047 -1.2165  0.5177 -0.2454
  611MOL0     C80536   7.212   2.114   8.093 -0.7348  0.2601  0.3530
  611MOL0     N80537   7.140   2.198   8.194  0.2556 -0.1388 -1.0549
  611MOL0     C80538   7.089   2.324   8.172 -0.3411  1.2385  0.2212
  611MOL0     C80539   7.005   2.340   8.275 -0.4356  0.1960 -0.0329
  611MOL0     C80540   6.891   2.437   8.282  0.0880 -0.5811 -0.3121
  611MOL0     C80541   6.767   2.382   8.224  0.0412 -0.2731 -0.1196
  611MOL0     C80542   6.672   2.500   8.177 -0.0620  0.8804 -0.2429
  611MOL0     C80543   6.529   2.448   8.157  0.3049  0.9126  1.0815
  611MOL0     O80544   6.469   2.436   8.286 -0.8499  0.2946  0.1310
  611MOL0     C80545   6.331   2.461   8.291  0.4947 -0.6262 -0.8794
  611MOL0     C80546   6.275   2.464   8.419 -0.7602 -0.2993  0.5745
  611MOL0     C80547   6.139   2.473   8.443  0.5294 -0.2296  0.7050
  611MOL0     C80548   6.050   2.488   8.336 -0.9019  1.4526 -0.2725
  611MOL0     C80549   5.903   2.478   8.367  0.8749  0.3488  0.2285
  611MOL0     O80550   5.858   2.493   8.497  0.4256  0.0838 -0.2356
  611MOL0     C80551   5.721   2.517   8.523  0.0159  0.7711  0.4379
  611MOL0     C80552   5.644   2.620   8.466 -0.6304  0.0111 -0.8138
  611MOL0     C80553   5.511   2.648   8.502 -0.7376 -0.1335 -0.2866
  611MOL0     C80554   5.462   2.568   8.608  0.2519 -0.1468 -0.3060
  611MOL0     O80555   5.332   2.578   8.649  0.1875 -0.1054 -0.3208
  611MOL0     C80556   5.239   2.665   8.567 -0.5112  0.1792  0.1711
  611MOL0     C80557   5.093   2.660   8.628  0.3241 -0.7691 -0.5311
  611MOL0     C80558   4.986   2.744   8.549 -0.9712  0.1403 -0.2817
  611MOL0     C80559   4.845   2.704   8.600  1.1197 -0.6499  0.8702
  611MOL0     C80560   4.746   2.784   8.517 -0.1668 -0.3186 -0.0286
  611MOL0     C80561   4.600   2.796   8.583 -1.1183  0.0714  0.5042
  611MOL0     C80562   4.497   2.765   8.476  0.1694  0.3935 -0.2148
  611MOL0     C80563   4.360   2.709   8.531 -0.0326  0.5317  0.2007
  611MOL0    Cl80564   4.287   2.820   8.662  0.0686  0.2958  0.4118
  611MOL0     C80565   5.538   2.472   8.683 -0.8611 -0.0539  0.2013
  611MOL0     C80566   5.667   2.445   8.631 -1.1608 -0.2243 -0.3978
  611MOL0     O80567   5.828   2.463   8.270  0.1858  1.3696 -0.3663
  611MOL0     C80568   6.103   2.499   8.210  0.4370  0.2977  0.1841
  611MOL0     C80569   6.238   2.476   8.181 -0.3533  0.6818  0.8271
  611MOL0     N80570   7.019   2.240   8.368 -0.5187 -0.4040  0.8171
  611MOL0     N80571   7.105   2.154   8.319 -0.0006  0.5933 -0.6277
  611MOL0     C80572   7.120   2.146   7.265 -0.4489  0.0990 -0.0360
  611MOL0     C80573   6.984   2.185   7.247  1.4124  0.3278 -0.3179
  611MOL0     C80574   6.623   2.504   7.280 -0.3274  0.2990 -0.2590
  611MOL0     C80575   6.561   2.461   7.160  0.4056  0.4247 -0.3300
  611MOL0     C80576   6.439   2.515   7.116  1.3042 -1.2583  1.1602
  611MOL0     C80577   6.366   2.590   7.205  0.4358 -0.1032  1.0021
  611MOL0     O80578   6.237   2.628   7.175  0.1057 -0.2019 -0.4089
  611MOL0     C80579   6.165   2.573   7.066 -0.2582  0.5908  0.7306
  611MOL0     C80580   6.021   2.631   7.061  0.2839  0.1380  1.0491
  611MOL0     C80581   5.934   2.564   6.953  0.9352  0.6024  0.1611
  611MOL0     C80582   5.782   2.608   6.961  0.0005 -1.0179  0.2379
  611MOL0     C80583   5.710   2.575   7.078  0.5041 -0.8155 -0.2735
  611MOL0     C80584   5.662   2.545   7.190 -0.5070  0.2749 -0.0012
  611MOL0     C80585   6.422   2.635   7.320 -0.3301  0.1544  0.8448
  611MOL0     C80586   6.548   2.597   7.361 -0.1595 -0.2783  0.4166
  611MOL0     H80587   7.021   2.520   7.285  1.2454  0.2986  5.5106
  611MOL0     H80588   7.250   2.451   7.343  1.5293  0.7457 -3.6022
  611MOL0     H80589   7.435   2.012   7.368  2.1870  0.9245  2.8112
  611MOL0     H80590   7.264   2.023   7.410  1.3653 -1.2751 -4.3275
  611MOL0     H80591   7.421   1.992   7.586 -2.2846 -0.4049 -1.2539
  611MOL0     H80592   7.298   2.105   7.616  1.6792  0.4844  2.2957
  611MOL0     H80593   7.503   2.292   7.579 -0.3119 -0.2881 -3.3134
  611MOL0     H80594   7.586   2.148   7.518 -3.6231 -1.8722 -2.0695
  611MOL0     H80595   7.577   2.058   7.758 -1.6513  1.2222 -0.2688
  611MOL0     H80596   7.673   2.208   7.730  0.6504 -0.5387 -0.8964
  611MOL0     H80597   7.448   2.320   7.845 -0.6637 -0.8817  0.1411
  611MOL0     H80598   7.570   2.242   7.937  0.7254 -4.4407  0.1850
  611MOL0     H80599   7.435   2.028   7.928  0.0629 -0.6061 -2.7564
  611MOL0     H80600   7.308   2.138   7.839 -1.3328  1.7751  1.5497
  611MOL0     H80601   7.415   2.153   8.121  0.4857  0.0072 -2.0927
  611MOL0     H80602   7.325   2.283   8.032  1.0618  0.8913  0.1385
  611MOL0     H80603   7.232   2.018   8.143  1.3482  0.9927  1.0458
  611MOL0     H80604   7.146   2.096   8.008  1.9008 -0.5944 -1.6705
  611MOL0     H80605   7.102   2.393   8.090 -0.4548  2.5388  1.2683
  611MOL0     H80606   6.921   2.527   8.229 -3.2639 -0.0205 -1.5111
  611MOL0     H80607   6.883   2.457   8.390  1.0697  3.0238 -0.7826
  611MOL0     H80608   6.711   2.314   8.290 -1.0116  0.8293  0.1643
  611MOL0     H80609   6.796   2.331   8.132  0.8297 -0.4696  0.2312
  611MOL0     H80610   6.668   2.574   8.258 -2.4006 -1.2427  1.7767
  611MOL0     H80611   6.709   2.545   8.084  0.0482 -0.3426 -0.8092
  611MOL0     H80612   6.542   2.349   8.113  2.6016  2.1513 -1.3075
  611MOL0     H80613   6.470   2.515   8.094  0.9853 -0.4235 -1.0591
  611MOL0     H80614   6.348   2.448   8.498 -1.4346  2.7540  1.9744
  611MOL0     H80615   6.098   2.453   8.541 -2.8792 -1.1137 -0.7437
  611MOL0     H80616   5.698   2.669   8.386 -0.0652 -1.0391 -1.0880
  611MOL0     H80617   5.467   2.716   8.430  0.2141 -1.3796 -2.1254
  611MOL0     H80618   5.239   2.613   8.471  1.1855 -0.8831  0.6886
  611MOL0     H80619   5.282   2.764   8.546 -1.0797 -0.0484 -2.3537
  611MOL0     H80620   5.096   2.689   8.733  1.4967  1.2021 -1.0473
  611MOL0     H80621   5.064   2.555   8.626 -0.5270 -0.5467 -0.3723
  611MOL0     H80622   4.989   2.723   8.442 -1.1469 -2.7131  0.1682
  611MOL0     H80623   5.004   2.851   8.551  0.7169  0.0088 -3.3292
  611MOL0     H80624   4.830   2.597   8.582 -1.7807 -0.0047 -1.3650
  611MOL0     H80625   4.832   2.727   8.706  2.3799 -2.3823  1.4530
  611MOL0     H80626   4.752   2.729   8.423  1.4555 -1.4267  0.6799
  611MOL0     H80627   4.777   2.887   8.500  0.4227 -0.5902 -0.5967
  611MOL0     H80628   4.577   2.893   8.627 -3.3780  0.9650 -2.3387
  611MOL0     H80629   4.600   2.723   8.664  2.1802  0.1412  0.6975
  611MOL0     H80630   4.491   2.846   8.402 -0.8799 -0.4512 -1.0784
  611MOL0     H80631   4.537   2.680   8.419 -0.0448 -0.4329  0.8473
  611MOL0     H80632   4.379   2.613   8.580  1.5878  1.4864  1.5806
  611MOL0     H80633   4.292   2.699   8.446  2.7542 -1.2888 -1.9950
  611MOL0     H80634   5.504   2.423   8.774  2.8565 -1.3356  1.0797
  611MOL0     H80635   5.724   2.367   8.680 -1.1337  1.0574  1.7231
  611MOL0     H80636   6.021   2.515   8.141 -0.0246 -4.1067 -0.6137
  611MOL0     H80637   6.277   2.466   8.080  1.2099  2.1450  1.2224
  611MOL0     H80638   7.145   2.042   7.249  1.7532  0.8969 -2.6601
  611MOL0     H80639   6.905   2.114   7.223 -0.5045  1.9338  0.9069
  611MOL0     H80640   6.614   2.390   7.097  0.5118 -1.6891  1.9841
  611MOL0     H80641   6.386   2.479   7.028 -0.9905  3.1940  0.4296
  611MOL0     H80642   6.166   2.463   7.071 -0.0872  0.5805  0.5037
  611MOL0     H80643   6.219   2.585   6.972 -4.4480  1.1031 -1.8567
  611MOL0     H80644   5.970   2.601   7.153 -0.2549 -0.2828  0.6211
  611MOL0     H80645   6.024   2.740   7.059 -0.9826  0.2969  3.6731
  611MOL0     H80646   5.937   2.454   6.957 -0.3429  0.3242 -3.1231
  611MOL0     H80647   5.972   2.596   6.856 -0.1878 -1.8089 -1.1711
  611MOL0     H80648   5.778   2.715   6.937 -2.5295 -1.1725 -0.2934
  611MOL0     H80649   5.725   2.557   6.883  0.9078 -2.5626  0.5448
  611MOL0     H80650   5.634   2.525   7.292 -0.3813 -2.3388 -0.4082
  611MOL0     H80651   6.374   2.711   7.380  2.0724  1.9345  0.6843
  611MOL0     H80652   6.583   2.643   7.453 -0.7707 -0.5870  0.8103
  612MOL0     O80653   5.277   3.806   5.076  0.4198  0.9831 -0.6215
  612MOL0     C80654   5.314   3.918   5.052 -0.5668 -0.1694  0.9371
  612MOL0     O80655   5.226   4.020   5.013  0.3313  0.0947 -0.6757
  612MOL0     C80656   5.090   4.013   5.024  0.5252  0.3794  0.2620
  612MOL0     C80657   5.010   4.093   4.949 -0.1725 -1.2243 -0.0999
  612MOL0     C80658   4.869   4.094   4.958 -0.1047  0.4453 -0.0630
  612MOL0     C80659   4.802   4.018   5.049 -0.5653 -0.5973  0.9320
  612MOL0     O80660   4.670   3.992   5.039  0.5203 -0.2764  0.2053
  612MOL0     C80661   4.581   4.063   5.127 -0.7655  0.5236 -0.0802
  612MOL0     C80662   4.447   4.073   5.071  0.0864 -0.3969  0.5041
  612MOL0     C80663   4.332   4.120   5.170  0.3986 -0.2922  0.3038
  612MOL0     C80664   4.211   4.102   5.102  0.0280  0.3599 -0.5824
  612MOL0     C80665   4.088   4.158   5.188  0.2234 -0.4430  0.7886
  612MOL0     C80666   4.033   4.294   5.137  0.0958  0.1822  0.0560
  612MOL0     C80667   3.901   4.337   5.216 -0.6229  0.6254 -0.1638
  612MOL0     C80668   3.781   4.241   5.201  0.2588 -0.1055  1.0660
  612MOL0     N80669   3.713   4.249   5.067 -0.7393  0.2711 -0.0535
  612MOL0     C80670   3.587   4.302   5.040 -0.3334  0.1536  0.7720
  612MOL0     C80671   3.558   4.247   4.921 -0.8542  0.1367  1.0900
  612MOL0     C80672   3.426   4.261   4.848  0.7273  1.2539  0.1140
  612MOL0     C80673   3.314   4.189   4.927  0.2221 -0.4900  0.4275
  612MOL0     C80674   3.206   4.152   4.817  0.2984 -0.0398 -0.3306
  612MOL0     C80675   3.070   4.127   4.880  0.2748 -0.3348 -0.4192
  612MOL0     O80676   3.011   4.258   4.906 -0.4631  0.6855 -0.7407
  612MOL0     C80677   2.881   4.265   4.931  0.7855  0.6583 -0.3113
  612MOL0     C80678   2.835   4.387   4.982  0.1382 -0.7136  0.4484
  612MOL0     C80679   2.697   4.410   5.015  0.3591  0.2588 -0.4682
  612MOL0     C80680   2.602   4.305   5.003 -0.4378 -0.1052  0.6298
  612MOL0     C80681   2.455   4.332   5.020 -0.4647 -0.3857  1.3951
  612MOL0     O80682   2.373   4.240   4.967  0.6183 -0.3998  0.4926
  612MOL0     C80683   2.240   4.257   4.965  0.1565  0.8363  0.1850
  612MOL0     C80684   2.168   4.354   4.891  0.3110 -0.3650  0.4937
  612MOL0     C80685   2.026   4.362   4.907 -0.6921  0.0346  0.5157
  612MOL0     C80686   1.959   4.255   4.968 -0.3965  0.0173  0.8569
  612MOL0     O80687   1.822   4.250   4.974 -0.1220  0.3093  0.1044
  612MOL0     C80688   1.745   4.377   4.956 -1.1523  0.7904  0.0215
  612MOL0     C80689   1.594   4.350   4.972 -0.3137 -0.3687  0.9177
  612MOL0     C80690   1.518   4.489   4.952  0.2747 -0.3111  0.5603
  612MOL0     C80691   1.369   4.474   4.973  0.8187  0.3233  0.9137
  612MOL0     C80692   1.294   4.425   4.850  0.6483 -0.1764  0.2530
  612MOL0     C80693   1.144   4.433   4.862  1.0768  0.1601  0.0430
  612MOL0     C80694   1.069   4.388   4.725  0.4004  0.0568 -0.1313
  612MOL0     C80695   0.920   4.433   4.735 -0.1850 -0.3323  0.3962
  612MOL0    Cl80696   0.848   4.405   4.568 -0.0712 -0.6525  0.2351
  612MOL0     C80697   2.034   4.153   5.026  0.3708 -0.0382 -0.3917
  612MOL0     C80698   2.172   4.149   5.024  0.4408 -0.3533  0.4889
  612MOL0     O80699   2.422   4.429   5.090  0.0611 -0.2491 -0.2983
  612MOL0     C80700   2.655   4.181   4.955 -0.7224 -0.4251  1.0881
  612MOL0     C80701   2.796   4.152   4.917  0.0015 -0.6609 -0.4206
  612MOL0     N80702   3.661   4.165   4.873  0.8862  0.3106 -0.6412
  612MOL0     N80703   3.757   4.182   4.957 -0.3096 -0.9969  0.2316
  612MOL0     C80704   4.881   3.926   5.132 -0.1522  0.5115  0.0132
  612MOL0     C80705   5.017   3.928   5.108  0.1634 -0.4863 -0.1784
  612MOL0     C80706   5.464   3.953   5.068  0.5100  0.1371  0.2613
  612MOL0     C80707   5.560   3.860   5.105 -0.1620 -0.0877  0.1480
  612MOL0     C80708   5.692   3.902   5.109  0.2144  0.1450 -0.1177
  612MOL0     C80709   5.732   4.036   5.080 -0.3969 -0.4255 -0.3145
  612MOL0     O80710   5.862   4.073   5.104 -0.0609  0.0834  0.1516
  612MOL0     C80711   5.909   4.216   5.085  0.5704 -0.9160  0.0336
  612MOL0     C80712   5.854   4.311   5.195  0.2479 -0.6843 -0.1349
  612MOL0     C80713   5.844   4.463   5.164 -0.5703  1.0164  0.1161
  612MOL0     C80714   5.970   4.523   5.105 -0.1918  0.2640  0.6220
  612MOL0     C80715   6.082   4.514   5.207  0.0143  0.4104  0.8239
  612MOL0     C80716   6.171   4.483   5.284  0.4511  0.2301 -0.2037
  612MOL0     C80717   5.630   4.125   5.036 -0.9297 -0.5106  1.0441
  612MOL0     C80718   5.501   4.083   5.029 -0.7830 -0.0852 -0.2907
  612MOL0     H80719   5.063   4.166   4.889 -2.3896  0.1681 -0.4808
  612MOL0     H80720   4.802   4.153   4.895 -0.7678  0.2728  0.4605
  612MOL0     H80721   4.619   4.165   5.138  0.5606  0.4455 -2.8679
  612MOL0     H80722   4.578   4.010   5.222  2.0390  1.1903  0.4730
  612MOL0     H80723   4.422   3.975   5.029 -0.4466  1.2541 -3.4515
  612MOL0     H80724   4.464   4.139   4.985  1.1210  0.1298  1.0874
  612MOL0     H80725   4.342   4.227   5.191  2.7893 -0.1359 -1.2659
  612MOL0     H80726   4.320   4.059   5.260 -2.1619  2.2935  1.8849
  612MOL0     H80727   4.208   4.141   5.000 -3.7355  0.5742 -0.5307
  612MOL0     H80728   4.201   3.993   5.100  0.5180  0.3066 -0.3491
  612MOL0     H80729   4.111   4.166   5.294  2.1968  0.3460  0.3400
  612MOL0     H80730   4.009   4.082   5.190  1.2741 -1.5897  0.4006
  612MOL0     H80731   4.010   4.303   5.030 -0.9155 -0.8269  0.1691
  612MOL0     H80732   4.103   4.374   5.163 -1.1834  1.4449 -0.3015
  612MOL0     H80733   3.935   4.338   5.320  2.3653  0.8326 -1.0506
  612MOL0     H80734   3.876   4.436   5.179  1.9628  1.9892  1.4339
  612MOL0     H80735   3.708   4.275   5.275 -0.4156 -1.5492  1.1078
  612MOL0     H80736   3.798   4.138   5.234  0.6062 -0.1366  0.7918
  612MOL0     H80737   3.525   4.367   5.101  0.8692  0.8039  1.3366
  612MOL0     H80738   3.439   4.197   4.760  2.6107  0.6460  0.7816
  612MOL0     H80739   3.393   4.362   4.823  1.3392  1.8669  1.6757
  612MOL0     H80740   3.264   4.253   5.000 -1.1215 -0.7032 -0.2669
  612MOL0     H80741   3.364   4.105   4.977  1.4328 -0.3774 -0.5674
  612MOL0     H80742   3.203   4.246   4.762 -0.2329  1.0133  1.4452
  612MOL0     H80743   3.252   4.075   4.754  1.4237  1.7063 -1.7466
  612MOL0     H80744   3.064   4.066   4.971 -0.0597 -1.9902 -1.5091
  612MOL0     H80745   3.010   4.086   4.799  1.1114  4.3949 -3.7944
  612MOL0     H80746   2.906   4.468   4.996  0.6721 -1.0245 -0.4379
  612MOL0     H80747   2.670   4.511   5.044 -0.2422 -0.3304  1.1326
  612MOL0     H80748   2.209   4.443   4.844  1.1913 -0.5257  0.9450
  612MOL0     H80749   1.970   4.438   4.855 -0.0966  1.5574  2.0032
  612MOL0     H80750   1.761   4.419   4.856  1.0626  0.2645  0.1017
  612MOL0     H80751   1.786   4.442   5.033  2.5441 -2.4820  1.1878
  612MOL0     H80752   1.581   4.315   5.075  2.2142 -0.4216  1.2907
  612MOL0     H80753   1.558   4.269   4.907  0.5550  0.1405 -0.2364
  612MOL0     H80754   1.543   4.516   4.849  0.7637  0.9645  0.9930
  612MOL0     H80755   1.569   4.559   5.019  0.2288  0.1652  0.1003
  612MOL0     H80756   1.344   4.398   5.048 -1.6322 -2.6996 -2.6331
  612MOL0     H80757   1.332   4.571   5.006 -0.9749  0.7824 -2.0906
  612MOL0     H80758   1.323   4.325   4.817  0.4793  0.5457 -2.2249
  612MOL0     H80759   1.316   4.495   4.769 -1.2075  2.1582  1.6331
  612MOL0     H80760   1.120   4.538   4.884  0.8795  0.5161 -1.6897
  612MOL0     H80761   1.110   4.376   4.948 -3.2705  1.4681 -0.5430
  612MOL0     H80762   1.120   4.428   4.637 -3.3651  2.7650 -1.3238
  612MOL0     H80763   1.069   4.279   4.727 -1.7067  0.0133 -0.6259
  612MOL0     H80764   0.926   4.541   4.748 -1.0428 -0.3537  1.0723
  612MOL0     H80765   0.865   4.379   4.812 -2.1212 -1.0310 -1.3774
  612MOL0     H80766   1.988   4.076   5.088 -0.3074 -0.2383 -1.1122
  612MOL0     H80767   2.230   4.066   5.065 -2.0003 -2.3538  0.1015
  612MOL0     H80768   2.595   4.092   4.938  1.3062 -1.9113  1.3347
  612MOL0     H80769   2.835   4.059   4.877  0.7238  0.4138 -2.4009
  612MOL0     H80770   4.838   3.851   5.198  0.8973  0.1779  0.3366
  612MOL0     H80771   5.075   3.861   5.171  0.1017 -0.6187 -0.2621
  612MOL0     H80772   5.535   3.754   5.117  1.3053 -0.5387 -0.6411
  612MOL0     H80773   5.769   3.833   5.141 -0.2529  0.2168  1.2217
  612MOL0     H80774   5.865   4.243   4.988  0.2250 -2.0758 -0.1428
  612MOL0     H80775   6.018   4.207   5.087  0.4981 -2.0174 -0.6161
  612MOL0     H80776   5.746   4.299   5.204 -0.0671  1.4224 -0.5900
  612MOL0     H80777   5.898   4.289   5.293 -2.0300 -1.1233  0.8580
  612MOL0     H80778   5.822   4.525   5.252  0.3498 -1.7428  2.4195
  612MOL0     H80779   5.774   4.491   5.085  1.3760  0.1496 -2.0196
  612MOL0     H80780   5.997   4.455   5.024  0.9061  2.3828 -0.8855
  612MOL0     H80781   5.965   4.625   5.068 -0.2764  1.2104  3.0982
  612MOL0     H80782   6.255   4.454   5.344  0.2177  0.9973  0.5210
  612MOL0     H80783   5.653   4.230   5.024 -1.2618 -0.1322  3.1956
  612MOL0     H80784   5.428   4.162   5.018 -0.7659 -0.1114 -0.6113
  613MOL0     O80785   3.699   0.295   8.780 -0.5718  0.2593  0.2649
  613MOL0     C80786   3.775   0.374   8.715  0.0861  0.6147 -0.5059
  613MOL0     O80787   3.735   0.466   8.624  0.3626  0.4586  0.3877
  613MOL0     C80788   3.600   0.444   8.586 -0.9849  0.4345 -0.1477
  613MOL0     C80789   3.552   0.400   8.462 -0.2104  0.1460 -0.7036
  613MOL0     C80790   3.411   0.405   8.433  0.4828  0.2645  0.5165
  613MOL0     C80791   3.333   0.476   8.511 -0.1207 -1.5994 -0.3091
  613MOL0     O80792   3.201   0.492   8.481 -0.2964 -0.6597  0.0426
  613MOL0     C80793   3.168   0.576   8.365 -0.7186 -0.4653 -0.4298
  613MOL0     C80794   3.073   0.506   8.273 -0.4529  0.9655  0.1627
  613MOL0     C80795   2.947   0.486   8.350  0.1936 -0.3317 -0.7589
  613MOL0     C80796   2.832   0.440   8.261 -1.3182  0.7698 -0.2305
  613MOL0     C80797   2.689   0.455   8.322  0.5402  0.1894 -0.0360
  613MOL0     C80798   2.579   0.422   8.222 -0.3170  0.5088  0.7036
  613MOL0     C80799   2.440   0.414   8.272  0.9570  0.4546 -0.5917
  613MOL0     C80800   2.388   0.265   8.238 -0.4944  0.1147 -0.3927
  613MOL0     N80801   2.256   0.258   8.291  0.1864  0.3108 -0.5879
  613MOL0     C80802   2.150   0.310   8.231 -0.2525  0.1586 -0.1836
  613MOL0     C80803   2.044   0.250   8.287 -0.3032  0.7143 -0.0907
  613MOL0     C80804   1.899   0.270   8.257 -0.3339  0.5303 -0.1707
  613MOL0     C80805   1.829   0.132   8.265  1.2076  0.2552 -0.9329
  613MOL0     C80806   1.681   0.154   8.237 -0.7406 -0.8247  0.1298
  613MOL0     C80807   1.599   0.039   8.303  0.3921 -0.6082  1.0050
  613MOL0     O80808   1.455   0.043   8.274  0.2360 -0.1127  0.0563
  613MOL0     C80809   1.397  -0.014   8.161 -0.0030  0.2018  0.3540
  613MOL0     C80810   1.471  -0.084   8.060 -0.7433 -0.1616  0.8637
  613MOL0     C80811   1.406  -0.139   7.950 -0.0908  0.6949 -0.7697
  613MOL0     C80812   1.271  -0.133   7.930  0.4995  0.9409 -0.7103
  613MOL0     C80813   1.211  -0.202   7.818 -0.2014  0.1667 -0.6111
  613MOL0     O80814   1.293  -0.276   7.731 -0.0223  0.3229  0.3513
  613MOL0     C80815   1.218  -0.326   7.633 -0.0428  0.6190  1.1094
  613MOL0     C80816   1.163  -0.452   7.640 -0.1487 -0.4770 -0.3769
  613MOL0     C80817   1.103  -0.511   7.524  0.0138  0.9480 -0.3697
  613MOL0     C80818   1.081  -0.438   7.408 -0.1204  0.0343  0.4759
  613MOL0     O80819   1.019  -0.480   7.300 -0.3624  0.7518 -0.2530
  613MOL0     C80820   0.934  -0.595   7.303 -1.0469  0.1450 -0.2213
  613MOL0     C80821   0.847  -0.579   7.177  0.4374  0.1781 -0.6290
  613MOL0     C80822   0.747  -0.696   7.176  0.0023  0.3519  0.6792
  613MOL0     C80823   0.654  -0.709   7.049 -0.6541 -0.0852  0.3253
  613MOL0     C80824   0.522  -0.760   7.086 -0.0524  0.3307  0.4879
  613MOL0     C80825   0.533  -0.901   7.153  0.6088 -0.8167 -0.2162
  613MOL0     C80826   0.399  -0.950   7.199  0.9018 -0.1906 -0.8791
  613MOL0     C80827   0.283  -0.946   7.103 -0.4722  0.3639  0.1388
  613MOL0    Cl80828   0.332  -1.030   6.954 -0.4515  0.1561 -0.0297
  613MOL0     C80829   1.140  -0.311   7.408  0.5305 -0.5474 -0.2066
  613MOL0     C80830   1.217  -0.257   7.516  0.7776 -0.3560 -0.0886
  613MOL0     O80831   1.093  -0.180   7.799  0.1215 -0.2987  0.1642
  613MOL0     C80832   1.197  -0.075   8.033 -0.2057  0.0699 -0.8572
  613MOL0     C80833   1.260  -0.011   8.144 -0.1848  0.7388 -0.5118
  613MOL0     N80834   2.080   0.178   8.402 -0.7503 -0.6737 -0.0990
  613MOL0     N80835   2.214   0.180   8.396  0.0650  0.3463 -1.0590
  613MOL0     C80836   3.379   0.528   8.625 -0.1910 -0.7169 -0.8743
  613MOL0     C80837   3.509   0.512   8.670 -0.1548 -0.0577  0.4937
  613MOL0     C80838   3.916   0.349   8.712  0.1328  0.5325 -0.9029
  613MOL0     C80839   4.000   0.436   8.651  0.2517  0.4096  0.7827
  613MOL0     C80840   4.135   0.416   8.628 -0.5304 -0.5095 -0.0601
  613MOL0     C80841   4.192   0.300   8.692  0.1580  0.2644  0.3012
  613MOL0     O80842   4.329   0.286   8.683 -0.0423  0.2144 -0.0088
  613MOL0     C80843   4.401   0.184   8.754 -0.1480 -0.2200 -0.2028
  613MOL0     C80844   4.556   0.203   8.737  0.0420 -0.2290  0.5832
  613MOL0     C80845   4.599   0.339   8.774  0.0647  0.1211 -0.8125
  613MOL0     C80846   4.748   0.366   8.755 -0.1451 -0.3512 -0.0541
  613MOL0     C80847   4.785   0.506   8.779  0.4006 -0.2491 -0.3280
  613MOL0     C80848   4.804   0.624   8.803 -0.0102 -0.4599  0.1906
  613MOL0     C80849   4.106   0.206   8.750  0.4342  0.1563  0.2072
  613MOL0     C80850   3.968   0.229   8.760 -0.5758  0.0687 -0.6452
  613MOL0     H80851   3.631   0.367   8.395  3.0383  2.4520  1.6728
  613MOL0     H80852   3.364   0.366   8.343  0.9398  2.5562 -0.7759
  613MOL0     H80853   3.259   0.607   8.313 -0.3821  0.5122  0.6912
  613MOL0     H80854   3.124   0.672   8.392 -0.4790  0.0791 -1.8983
  613MOL0     H80855   3.105   0.405   8.245  0.6502  1.5640 -0.7949
  613MOL0     H80856   3.049   0.567   8.185 -2.0598 -1.6041 -1.3378
  613MOL0     H80857   2.906   0.579   8.392  1.5383  0.5941 -1.4220
  613MOL0     H80858   2.961   0.415   8.431  1.0547 -0.1479 -0.7404
  613MOL0     H80859   2.839   0.486   8.162  1.8923  0.3865 -0.2865
  613MOL0     H80860   2.860   0.334   8.254 -2.6318  0.4626 -1.1349
  613MOL0     H80861   2.679   0.562   8.345  0.7902 -0.0300  1.1812
  613MOL0     H80862   2.677   0.396   8.413  0.6129  1.3199  0.7342
  613MOL0     H80863   2.606   0.326   8.177 -2.2024  0.2035  0.1680
  613MOL0     H80864   2.584   0.495   8.140  3.6671 -1.3236 -0.9646
  613MOL0     H80865   2.446   0.416   8.381  3.4669 -2.1254 -0.5795
  613MOL0     H80866   2.377   0.486   8.218 -1.0058 -0.9460 -0.2754
  613MOL0     H80867   2.454   0.194   8.290 -0.8523  3.2243  5.0652
  613MOL0     H80868   2.397   0.244   8.131 -0.0671  0.8730 -0.5139
  613MOL0     H80869   2.156   0.365   8.138  2.4878 -2.7555 -1.9276
  613MOL0     H80870   1.890   0.315   8.158 -0.7627 -0.7507 -0.7216
  613MOL0     H80871   1.852   0.326   8.339 -0.7530 -1.0158  0.6676
  613MOL0     H80872   1.839   0.111   8.372 -0.4159 -0.0182 -0.8066
  613MOL0     H80873   1.869   0.051   8.202 -1.5933 -3.7167  1.8992
  613MOL0     H80874   1.649   0.255   8.264  0.7067 -0.5807  1.0294
  613MOL0     H80875   1.686   0.147   8.128  2.7816  1.9897 -0.0734
  613MOL0     H80876   1.615   0.046   8.411  3.7940  3.3101  0.4791
  613MOL0     H80877   1.634  -0.057   8.264  0.8211 -1.4782  3.3861
  613MOL0     H80878   1.576  -0.060   8.056 -0.5876 -0.7588 -2.9739
  613MOL0     H80879   1.476  -0.187   7.883 -0.6123  0.9005 -1.4733
  613MOL0     H80880   1.158  -0.507   7.734  0.3836  0.6967  0.3556
  613MOL0     H80881   1.077  -0.617   7.529  1.3454  0.3614 -3.4396
  613MOL0     H80882   0.865  -0.590   7.388 -0.1603  3.5422  0.4228
  613MOL0     H80883   0.999  -0.683   7.305  0.1499  1.0298  1.0276
  613MOL0     H80884   0.909  -0.595   7.089  3.0812 -0.5967  1.2375
  613MOL0     H80885   0.784  -0.490   7.168  0.8688  0.5607 -0.0274
  613MOL0     H80886   0.677  -0.683   7.259 -1.2631 -0.4766 -0.2241
  613MOL0     H80887   0.800  -0.791   7.185  0.2837  0.3096 -1.0088
  613MOL0     H80888   0.650  -0.604   7.017  0.7171  1.3092  4.1947
  613MOL0     H80889   0.701  -0.777   6.977  0.2815  0.4908  0.3762
  613MOL0     H80890   0.460  -0.757   6.996  0.8348 -1.8683 -0.2464
  613MOL0     H80891   0.477  -0.701   7.167 -2.2883 -0.4076 -0.1295
  613MOL0     H80892   0.600  -0.896   7.239 -0.9666  1.0638  0.9901
  613MOL0     H80893   0.570  -0.980   7.086 -3.3890 -1.8445 -1.5094
  613MOL0     H80894   0.421  -1.052   7.235  3.5125  0.4253 -0.5343
  613MOL0     H80895   0.370  -0.890   7.286 -1.1460 -3.0153  0.5659
  613MOL0     H80896   0.280  -0.839   7.079 -0.3143  0.2150 -0.5615
  613MOL0     H80897   0.195  -0.983   7.156 -0.0208  1.9673  2.1320
  613MOL0     H80898   1.134  -0.244   7.323  4.5818 -1.0042 -1.0881
  613MOL0     H80899   1.259  -0.157   7.515  1.0162 -0.4485  0.3737
  613MOL0     H80900   1.089  -0.067   8.019 -0.2158  4.0999  0.4549
  613MOL0     H80901   1.207   0.038   8.224  0.1219  0.5343 -0.1788
  613MOL0     H80902   3.301   0.577   8.684 -1.1705 -1.9177 -1.1130
  613MOL0     H80903   3.535   0.548   8.769  0.4867 -1.9298  1.0527
  613MOL0     H80904   3.974   0.533   8.608  3.0252  1.8669  2.1577
  613MOL0     H80905   4.193   0.483   8.566  0.1115 -2.4843 -1.7229
  613MOL0     H80906   4.371   0.085   8.718  1.0139  0.4705 -3.4104
  613MOL0     H80907   4.380   0.199   8.861  0.8664  0.0584 -0.0330
  613MOL0     H80908   4.619   0.129   8.786  1.5677  0.3013 -0.4967
  613MOL0     H80909   4.566   0.203   8.628 -1.8696  1.8038  0.3189
  613MOL0     H80910   4.574   0.350   8.879 -2.5744 -1.5126 -1.1645
  613MOL0     H80911   4.535   0.410   8.720 -1.4867  0.4985  1.4046
  613MOL0     H80912   4.810   0.309   8.824  1.2672 -0.4995 -1.3943
  613MOL0     H80913   4.782   0.333   8.656 -1.4420 -1.6975 -0.0920
  613MOL0     H80914   4.822   0.729   8.809  0.9856 -0.3092 -3.2304
  613MOL0     H80915   4.149   0.123   8.806 -2.2275 -1.1658  0.4400
  613MOL0     H80916   3.912   0.159   8.821 -0.0743  2.5937  3.0862
  614MOL0     O80917   1.276   9.723   9.227  0.1468  0.0796  0.1887
  614MOL0     C80918   1.308   9.785   9.123 -0.4374 -0.0868 -0.5093
  614MOL0     O80919   1.241   9.794   9.009  0.5584  0.0580  0.2315
  614MOL0     C80920   1.125   9.727   8.997 -0.3647 -0.5364  0.2615
  614MOL0     C80921   1.101   9.653   8.881 -0.4459  0.3300 -0.6930
  614MOL0     C80922   0.969   9.596   8.859 -0.7651  0.1887 -0.1853
  614MOL0     C80923   0.863   9.613   8.960 -0.0500 -0.4905 -0.0916
  614MOL0     O80924   0.746   9.550   8.950  1.0643  0.1775  0.5026
  614MOL0     C80925   0.654   9.521   9.058  0.1073  0.2277  0.1893
  614MOL0     C80926   0.546   9.425   9.013 -0.9667 -0.0150  0.3760
  614MOL0     C80927   0.455   9.392   9.131  0.2271  1.1526  0.1200
  614MOL0     C80928   0.524   9.301   9.230 -0.5862  0.0032 -0.3742
  614MOL0     C80929   0.428   9.254   9.347 -0.8992 -0.1271 -0.3683
  614MOL0     C80930   0.505   9.169   9.450  0.8725  0.9430 -0.9302
  614MOL0     C80931   0.398   9.115   9.550 -0.6261 -0.1225 -0.2984
  614MOL0     C80932   0.450   8.998   9.634 -0.4996 -0.2057  0.3523
  614MOL0     N80933   0.346   8.961   9.731  0.4721 -0.3562 -0.0876
  614MOL0     C80934   0.324   9.018   9.852  0.2865 -0.5712  0.0120
  614MOL0     C80935   0.198   8.975   9.891  0.2768 -0.9723 -0.3303
  614MOL0     C80936   0.129   9.025  10.014 -0.3267  0.6608 -0.2197
  614MOL0     C80937   0.074   9.167   9.990 -0.5973  0.6169 -0.1573
  614MOL0     C80938   0.015   9.190   9.848 -0.4644  0.0552 -0.0491
  614MOL0     C80939  -0.115   9.115   9.810  0.4598 -0.8056 -0.9686
  614MOL0     O80940  -0.227   9.163   9.881 -1.0596 -0.5780  0.1527
  614MOL0     C80941  -0.351   9.117   9.851  0.3157  0.6869 -0.3073
  614MOL0     C80942  -0.451   9.144   9.941  1.4520  0.2718 -0.2751
  614MOL0     C80943  -0.579   9.086   9.933 -0.7097  0.6008  0.0375
  614MOL0     C80944  -0.611   9.002   9.820  0.3275  0.7307  0.8346
  614MOL0     C80945  -0.740   8.948   9.805  0.7883  0.6164 -1.2644
  614MOL0     O80946  -0.771   8.892   9.679  0.6573 -0.8807 -0.5096
  614MOL0     C80947  -0.898   8.864   9.647  0.8193  0.3050  0.1078
  614MOL0     C80948  -0.919   8.743   9.588  0.3016  0.6982  0.2760
  614MOL0     C80949  -1.052   8.709   9.546  0.2652  1.4652  0.0782
  614MOL0     C80950  -1.163   8.793   9.554  0.1742  1.2655  0.4487
  614MOL0     O80951  -1.287   8.758   9.523  0.7409 -0.2240 -0.0399
  614MOL0     C80952  -1.311   8.642   9.440 -0.1740 -0.4674  0.3241
  614MOL0     C80953  -1.460   8.632   9.412  0.0337 -0.2682 -0.6458
  614MOL0     C80954  -1.489   8.486   9.369  0.5548  0.5160 -0.5421
  614MOL0     C80955  -1.643   8.467   9.353  0.4093  0.4110 -0.7117
  614MOL0     C80956  -1.683   8.355   9.254  0.3901  1.1142 -0.1342
  614MOL0     C80957  -1.839   8.343   9.238  0.0322  0.8548  0.2080
  614MOL0     C80958  -1.896   8.209   9.181 -0.6317  0.7448 -0.5187
  614MOL0     C80959  -2.040   8.219   9.153 -0.2842  0.3394  0.3745
  614MOL0    Cl80960  -2.116   8.239   9.313 -0.0531  0.6549 -0.2903
  614MOL0     C80961  -1.139   8.920   9.607 -0.2283  0.8683 -0.0238
  614MOL0     C80962  -1.007   8.952   9.656  0.2661 -0.4579  0.3181
  614MOL0     O80963  -0.818   8.953   9.903 -0.3760  0.7893 -0.1383
  614MOL0     C80964  -0.512   8.978   9.720 -0.0786 -0.6924 -0.1082
  614MOL0     C80965  -0.383   9.027   9.743 -0.0583  0.6587 -0.5735
  614MOL0     N80966   0.153   8.902   9.793 -0.8924  0.3725 -0.5911
  614MOL0     N80967   0.232   8.905   9.699 -0.7355  0.4171  0.5104
  614MOL0     C80968   0.893   9.689   9.076 -0.2007  0.4276  0.3145
  614MOL0     C80969   1.019   9.744   9.090  0.0436  0.2465 -0.0784
  614MOL0     C80970   1.417   9.880   9.131 -0.4728 -0.7475 -0.0673
  614MOL0     C80971   1.449   9.974   9.029  1.1196 -0.4473 -0.4971
  614MOL0     C80972   1.572  10.029   9.016 -0.2322  1.0763 -0.4170
  614MOL0     C80973   1.667  10.021   9.121 -0.5610  0.6749  1.0002
  614MOL0     O80974   1.799  10.070   9.117  0.0694  0.3474 -0.4863
  614MOL0     C80975   1.841  10.129   9.247  0.3985  0.3496 -0.2119
  614MOL0     C80976   1.880  10.272   9.228  0.1268  0.4164  0.4062
  614MOL0     C80977   1.995  10.281   9.119  0.0575  0.3634 -0.2673
  614MOL0     C80978   2.074  10.415   9.132 -0.3900 -0.0128  0.0401
  614MOL0     C80979   2.170  10.416   9.024 -0.5693 -0.0049 -0.7252
  614MOL0     C80980   2.245  10.401   8.934  0.0955  0.3312 -0.2250
  614MOL0     C80981   1.629   9.949   9.232  0.2958  0.8128 -1.5150
  614MOL0     C80982   1.506   9.877   9.236  0.2073  0.4926  0.6314
  614MOL0     H80983   1.176   9.664   8.803 -2.8084  3.3322 -2.7495
  614MOL0     H80984   0.961   9.546   8.763  0.8741 -0.3878 -0.0463
  614MOL0     H80985   0.612   9.618   9.087 -2.7799 -0.7488 -0.4189
  614MOL0     H80986   0.701   9.497   9.154 -3.2293  5.2178  3.5951
  614MOL0     H80987   0.592   9.334   8.975 -3.0560  0.0902 -2.8398
  614MOL0     H80988   0.492   9.473   8.931 -0.1534 -1.8811 -1.3303
  614MOL0     H80989   0.359   9.353   9.095  0.4225 -0.0158  0.8253
  614MOL0     H80990   0.430   9.483   9.185  1.4847  3.4351 -2.8386
  614MOL0     H80991   0.579   9.215   9.190  1.1792  0.5653  0.7218
  614MOL0     H80992   0.598   9.364   9.280 -1.0130  0.6828 -0.5781
  614MOL0     H80993   0.361   9.184   9.295  1.5153 -2.5189 -0.4883
  614MOL0     H80994   0.375   9.336   9.396 -0.6913 -0.3133  0.1736
  614MOL0     H80995   0.582   9.226   9.503  2.0644 -0.0906 -1.4871
  614MOL0     H80996   0.549   9.079   9.405  3.2038  0.3026  2.2731
  614MOL0     H80997   0.361   9.187   9.624 -0.5638 -0.1263 -0.2633
  614MOL0     H80998   0.308   9.076   9.502  0.7950 -2.6589 -1.0845
  614MOL0     H80999   0.547   9.018   9.681  0.7539 -1.5044 -1.4939
  614MOL0     H81000   0.470   8.916   9.564  0.4651  1.9555 -2.0855
  614MOL0     H81001   0.390   9.095   9.889 -0.2848  0.8123 -1.7223
  614MOL0     H81002   0.201   9.028  10.097  1.0151  3.3070 -1.3709
  614MOL0     H81003   0.050   8.954  10.041 -0.4321  1.2330  1.0502
  614MOL0     H81004   0.158   9.236  10.003  0.2550 -0.4406  0.1365
  614MOL0     H81005  -0.001   9.194  10.066 -0.9683 -2.3727  0.6611
  614MOL0     H81006  -0.007   9.297   9.846 -2.1896 -0.2579 -2.5841
  614MOL0     H81007   0.084   9.162   9.767  0.2289 -2.1412  1.2260
  614MOL0     H81008  -0.118   9.007   9.822 -2.2466 -0.5511  1.6683
  614MOL0     H81009  -0.132   9.139   9.704 -2.1164 -3.8742 -1.3941
  614MOL0     H81010  -0.436   9.217  10.019 -0.4500 -2.3748  2.8673
  614MOL0     H81011  -0.655   9.111  10.006  0.2216 -0.7342  1.5183
  614MOL0     H81012  -0.836   8.674   9.585 -1.9708 -2.2639  0.9027
  614MOL0     H81013  -1.069   8.616   9.493  0.6931  1.9933 -1.0155
  614MOL0     H81014  -1.274   8.551   9.489 -1.0001 -1.4240 -0.7721
  614MOL0     H81015  -1.268   8.662   9.342 -1.1387  2.0566  0.3470
  614MOL0     H81016  -1.499   8.711   9.346  2.0051 -1.5136 -3.5061
  614MOL0     H81017  -1.503   8.646   9.512  1.7800 -2.3712  0.4722
  614MOL0     H81018  -1.453   8.422   9.450  0.3543 -0.1624 -0.9715
  614MOL0     H81019  -1.430   8.466   9.279 -0.0844  1.7052 -1.2491
  614MOL0     H81020  -1.679   8.450   9.455  1.3905 -1.5215 -0.6414
  614MOL0     H81021  -1.686   8.561   9.316 -2.9933 -0.7346 -0.0642
  614MOL0     H81022  -1.664   8.258   9.301  2.8408  1.1024 -1.0073
  614MOL0     H81023  -1.615   8.361   9.168 -0.4679 -1.9951 -1.1789
  614MOL0     H81024  -1.863   8.419   9.162 -2.8278 -0.7054 -0.6270
  614MOL0     H81025  -1.890   8.369   9.331 -0.4782  0.2016  0.1189
  614MOL0     H81026  -1.833   8.190   9.094  0.5690  0.9931  0.2585
  614MOL0     H81027  -1.888   8.121   9.247 -2.7681 -0.7285 -2.1027
  614MOL0     H81028  -2.072   8.131   9.098  1.7340 -0.9874  1.2160
  614MOL0     H81029  -2.047   8.309   9.090  3.3163  0.7967  0.3908
  614MOL0     H81030  -1.226   8.986   9.612 -0.3196  0.7594 -0.1631
  614MOL0     H81031  -0.997   9.052   9.698 -1.4856  0.4716 -1.3113
  614MOL0     H81032  -0.524   8.907   9.639  1.1440  0.7879 -1.6572
  614MOL0     H81033  -0.310   9.012   9.664 -0.8223  2.0680 -1.5832
  614MOL0     H81034   0.814   9.699   9.150  0.6346  1.6541  1.0737
  614MOL0     H81035   1.036   9.800   9.182  1.1100 -2.7380  1.6727
  614MOL0     H81036   1.376   9.998   8.952  0.8822  1.6963  0.3284
  614MOL0     H81037   1.610  10.061   8.919 -1.7936 -0.7910 -1.7438
  614MOL0     H81038   1.932  10.072   9.270 -1.8957 -2.6176  2.4452
  614MOL0     H81039   1.776  10.106   9.332  1.4439  0.7970  0.7480
  614MOL0     H81040   1.797  10.331   9.187 -0.6422 -0.6924  0.3344
  614MOL0     H81041   1.911  10.318   9.323  2.0311  2.9856 -1.2871
  614MOL0     H81042   1.954  10.274   9.018  1.3655  0.2564 -0.8086
  614MOL0     H81043   2.063  10.196   9.135  0.3240  0.2837 -1.7542
  614MOL0     H81044   2.010  10.501   9.112  1.7907  2.0954  1.6503
  614MOL0     H81045   2.115  10.433   9.232 -2.0658  0.2341  0.7174
  614MOL0     H81046   2.314  10.384   8.854 -0.7269 -2.4212 -0.4501
  614MOL0     H81047   1.690   9.938   9.322  0.7625  1.1145 -1.7869
  614MOL0     H81048   1.493   9.797   9.308  0.9045  0.4381  0.6967
  615MOL0     O81049   8.185   3.885   2.432  0.0378  0.5554  0.4562
  615MOL0     C81050   8.245   3.784   2.463  0.2791  1.0123 -0.5356
  615MOL0     O81051   8.194   3.687   2.542 -0.3368 -0.4733 -0.0739
  615MOL0     C81052   8.073   3.691   2.599  0.5884 -1.2608  0.0907
  615MOL0     C81053   8.038   3.654   2.730 -0.5561  0.2839  0.4726
  615MOL0     C81054   7.906   3.654   2.780  0.3815  0.0009 -0.2189
  615MOL0     C81055   7.800   3.694   2.701  0.6648 -0.1758 -0.5496
  615MOL0     O81056   7.676   3.685   2.750  0.5856  0.0325  0.3998
  615MOL0     C81057   7.561   3.717   2.668  0.2905  0.2942 -0.4365
  615MOL0     C81058   7.427   3.702   2.737 -0.4198  0.1717 -0.4026
  615MOL0     C81059   7.309   3.741   2.642  0.0090 -0.4458 -0.6832
  615MOL0     C81060   7.176   3.758   2.721 -0.5752  0.3782 -0.6611
  615MOL0     C81061   7.069   3.838   2.641 -0.1592 -0.2703  0.9714
  615MOL0     C81062   7.067   3.800   2.484  0.4676 -0.3004 -1.0838
  615MOL0     C81063   7.019   3.655   2.464 -0.5554 -0.7744 -0.0842
  615MOL0     C81064   6.964   3.626   2.326 -0.3800  0.1943 -0.0410
  615MOL0     N81065   6.896   3.493   2.338 -0.8201 -0.7827 -0.1327
  615MOL0     C81066   6.765   3.461   2.324  0.4645 -0.5679 -0.5739
  615MOL0     C81067   6.759   3.331   2.354 -0.1718  0.6353  0.0582
  615MOL0     C81068   6.635   3.240   2.352  0.4786  0.2855  0.4277
  615MOL0     C81069   6.538   3.257   2.238  0.1721 -0.0154  0.2374
  615MOL0     C81070   6.434   3.144   2.237  0.0610  0.2876 -0.0904
  615MOL0     C81071   6.318   3.151   2.139 -0.2871 -0.0323 -0.4240
  615MOL0     O81072   6.245   3.280   2.145 -0.0890  0.2651  0.2632
  615MOL0     C81073   6.130   3.306   2.066 -0.4717  0.0667 -0.1667
  615MOL0     C81074   6.044   3.415   2.093 -0.6662 -0.3546 -0.4800
  615MOL0     C81075   5.938   3.442   2.010  0.5000  0.9821  0.2541
  615MOL0     C81076   5.919   3.372   1.893 -0.1783 -0.3099 -0.2504
  615MOL0     C81077   5.804   3.398   1.808  0.0969 -0.7002  0.8762
  615MOL0     O81078   5.738   3.523   1.815  0.4318 -0.2355  0.6381
  615MOL0     C81079   5.609   3.535   1.753 -0.7612  0.1772 -0.1661
  615MOL0     C81080   5.495   3.551   1.832  0.6338  0.7409  0.0478
  615MOL0     C81081   5.373   3.536   1.771 -0.0502  0.4239  0.5659
  615MOL0     C81082   5.353   3.517   1.634 -0.3075 -0.4118  0.8229
  615MOL0     O81083   5.224   3.524   1.586 -0.0802  0.0754  0.6855
  615MOL0     C81084   5.185   3.510   1.446 -0.3939  0.1237 -0.0807
  615MOL0     C81085   5.027   3.476   1.431  0.6997 -0.0542 -0.7172
  615MOL0     C81086   4.978   3.374   1.535  0.0748  1.0620 -0.3859
  615MOL0     C81087   4.835   3.321   1.486 -1.1995 -0.1588 -0.0234
  615MOL0     C81088   4.732   3.423   1.446 -0.2581  0.6479 -0.2737
  615MOL0     C81089   4.608   3.364   1.378 -1.0816  0.1345 -0.0038
  615MOL0     C81090   4.471   3.429   1.402 -0.6493  0.0310  0.6075
  615MOL0     C81091   4.455   3.561   1.341 -0.0426  1.1009  0.2219
  615MOL0    Cl81092   4.305   3.611   1.418  0.0872 -0.0141  0.3229
  615MOL0     C81093   5.467   3.499   1.557 -0.2264  1.0199 -0.9512
  615MOL0     C81094   5.596   3.512   1.616 -0.2010  0.7393 -0.3144
  615MOL0     O81095   5.778   3.313   1.722 -0.4964 -0.5256 -0.5556
  615MOL0     C81096   6.007   3.271   1.862 -0.2561  0.9387  0.3080
  615MOL0     C81097   6.115   3.240   1.944 -0.2500 -0.2028 -0.4774
  615MOL0     N81098   6.881   3.282   2.378 -0.2313 -1.0110  0.5457
  615MOL0     N81099   6.969   3.382   2.369 -0.0512  0.8509  0.1343
  615MOL0     C81100   7.827   3.737   2.575 -0.6144  1.0720 -0.5392
  615MOL0     C81101   7.959   3.729   2.520 -0.6430 -0.0767 -0.3265
  615MOL0     C81102   8.378   3.758   2.398  0.0599 -0.6445  0.0361
  615MOL0     C81103   8.433   3.623   2.374 -0.4915  0.4653  0.1398
  615MOL0     C81104   8.552   3.612   2.302  0.1887  0.1420 -0.1271
  615MOL0     C81105   8.613   3.722   2.246 -0.7849 -0.0123 -0.2625
  615MOL0     O81106   8.734   3.709   2.177  0.6953  0.5170  0.3881
  615MOL0     C81107   8.710   3.647   2.049  0.1864 -0.2716 -0.2042
  615MOL0     C81108   8.817   3.689   1.953 -0.1530 -0.4735  0.6008
  615MOL0     C81109   8.955   3.650   1.988  0.2140 -0.5264 -0.2877
  615MOL0     C81110   8.974   3.512   2.041  0.3265  0.3613  0.2418
  615MOL0     C81111   9.116   3.486   2.051 -0.0877  0.5504 -0.4984
  615MOL0     C81112   9.232   3.452   2.052  0.0099  0.2764 -0.3774
  615MOL0     C81113   8.564   3.854   2.271  0.5649  0.2277 -0.6295
  615MOL0     C81114   8.450   3.866   2.346 -0.3343 -0.3992 -0.1129
  615MOL0     H81115   8.119   3.619   2.793 -0.4897 -0.3216  0.0570
  615MOL0     H81116   7.881   3.616   2.878 -0.8413  0.8428 -0.1759
  615MOL0     H81117   7.554   3.668   2.570  1.4923 -2.7234  0.8728
  615MOL0     H81118   7.562   3.826   2.653 -0.7690  0.6540  1.7444
  615MOL0     H81119   7.413   3.764   2.827  1.5375 -2.8581  2.2368
  615MOL0     H81120   7.408   3.601   2.774 -1.5393  0.2377 -0.7879
  615MOL0     H81121   7.287   3.656   2.576 -3.5469 -0.1976  0.0202
  615MOL0     H81122   7.336   3.829   2.582  1.9803  1.1811  2.3407
  615MOL0     H81123   7.136   3.659   2.740  0.2444  0.1930  0.1664
  615MOL0     H81124   7.200   3.808   2.816  0.0981 -1.1650  0.0184
  615MOL0     H81125   7.100   3.943   2.648  2.3120 -0.7238 -1.5939
  615MOL0     H81126   6.972   3.822   2.689 -0.2048 -2.1358  0.3350
  615MOL0     H81127   7.164   3.822   2.440  2.3700 -1.4967  2.1794
  615MOL0     H81128   6.999   3.870   2.434 -0.2263 -1.0280 -1.1718
  615MOL0     H81129   7.106   3.591   2.481 -0.7141 -1.0592 -0.3467
  615MOL0     H81130   6.945   3.628   2.540 -0.4660 -2.9042 -0.6847
  615MOL0     H81131   7.040   3.627   2.247 -1.7177  1.9387 -1.3876
  615MOL0     H81132   6.892   3.699   2.288 -0.3900  0.6297  0.7998
  615MOL0     H81133   6.685   3.529   2.296  1.1968  0.2629 -0.6864
  615MOL0     H81134   6.586   3.256   2.449 -1.6320 -3.5086  0.1573
  615MOL0     H81135   6.661   3.134   2.343  1.8795  0.6448 -0.0686
  615MOL0     H81136   6.587   3.263   2.140  0.1023  0.3319  0.2225
  615MOL0     H81137   6.483   3.349   2.258 -3.1214 -0.8152 -3.8011
  615MOL0     H81138   6.484   3.055   2.201  1.1903  0.2319  1.4907
  615MOL0     H81139   6.398   3.116   2.337  2.2091  0.1117  0.6959
  615MOL0     H81140   6.251   3.067   2.159  2.0271 -2.2865 -1.6700
  615MOL0     H81141   6.371   3.135   2.044  2.4888 -0.0643  1.0415
  615MOL0     H81142   6.056   3.477   2.181 -1.4490 -1.9754  0.8098
  615MOL0     H81143   5.868   3.522   2.029 -2.3717 -1.1265 -0.8090
  615MOL0     H81144   5.507   3.556   1.939  3.6341  2.5843 -0.2571
  615MOL0     H81145   5.281   3.548   1.827 -0.2653 -1.1765  0.6110
  615MOL0     H81146   5.243   3.439   1.386 -0.9174  3.0422 -4.5132
  615MOL0     H81147   5.206   3.612   1.413  1.5470 -0.6231 -1.3243
  615MOL0     H81148   5.006   3.438   1.331 -2.3987  0.8242 -0.5014
  615MOL0     H81149   4.969   3.568   1.445  0.8177  0.0159 -0.6845
  615MOL0     H81150   4.968   3.419   1.634  1.3498 -1.1161  0.8180
  615MOL0     H81151   5.039   3.284   1.524  1.4011  2.0804 -1.8936
  615MOL0     H81152   4.846   3.244   1.409 -2.6517 -2.0179  1.5248
  615MOL0     H81153   4.805   3.260   1.573 -1.5039  0.2094  0.1333
  615MOL0     H81154   4.768   3.502   1.378  1.7214 -1.6452 -2.0778
  615MOL0     H81155   4.719   3.475   1.541  4.4746 -0.9011  1.5131
  615MOL0     H81156   4.589   3.263   1.416 -2.3318  0.3979  0.1343
  615MOL0     H81157   4.624   3.359   1.270 -2.8155 -1.2885 -0.2412
  615MOL0     H81158   4.388   3.364   1.371 -0.4430 -0.3604  0.8764
  615MOL0     H81159   4.468   3.452   1.509  1.2215  1.6691  0.3686
  615MOL0     H81160   4.438   3.548   1.234 -1.5608 -1.3724  0.6732
  615MOL0     H81161   4.544   3.623   1.330  2.1235 -2.1368 -2.5238
  615MOL0     H81162   5.457   3.483   1.450 -0.5054  2.1642 -1.1140
  615MOL0     H81163   5.682   3.488   1.555  0.2671  3.4328 -0.8538
  615MOL0     H81164   6.005   3.216   1.769  1.9741  2.9684 -1.0517
  615MOL0     H81165   6.177   3.156   1.913  1.3516  0.0681  1.7602
  615MOL0     H81166   7.760   3.786   2.505  1.8349  4.0191 -1.0652
  615MOL0     H81167   7.963   3.752   2.414 -2.5896 -2.0786 -0.9346
  615MOL0     H81168   8.396   3.538   2.430 -0.8894  1.7928  2.0250
  615MOL0     H81169   8.609   3.521   2.289 -0.7264 -0.4447 -0.1183
  615MOL0     H81170   8.608   3.667   2.014  0.1734  1.1715  0.5844
  615MOL0     H81171   8.711   3.540   2.070  0.5329  0.2638  2.9958
  615MOL0     H81172   8.792   3.629   1.865 -2.1976 -1.4774  1.7965
  615MOL0     H81173   8.811   3.795   1.928 -1.4425 -0.3385  1.3889
  615MOL0     H81174   8.985   3.719   2.067  2.0636 -2.5949  0.9277
  615MOL0     H81175   9.016   3.671   1.899 -0.5505 -1.2614 -1.0138
  615MOL0     H81176   8.933   3.514   2.142 -0.2877 -2.7604  0.1497
  615MOL0     H81177   8.925   3.433   1.983  0.4809 -0.3778  1.1005
  615MOL0     H81178   9.335   3.429   2.068  0.1580  1.8770  1.2542
  615MOL0     H81179   8.606   3.944   2.227 -0.4834  0.2633 -1.6245
  615MOL0     H81180   8.420   3.970   2.361 -1.3587 -0.8491  1.1000
  616MOL0     O81181  10.500  10.127   2.433  0.1483 -0.1144  0.0015
  616MOL0     C81182  10.538  10.246   2.422  0.1668  0.6439  0.3040
  616MOL0     O81183  10.454  10.354   2.433  0.2761  0.1577 -0.0043
  616MOL0     C81184  10.321  10.325   2.436  0.5320  1.0438 -0.6144
  616MOL0     C81185  10.239  10.326   2.326  0.5702 -0.0030 -0.5125
  616MOL0     C81186  10.094  10.307   2.350 -0.2269  1.0845  0.5817
  616MOL0     C81187  10.044  10.267   2.475 -0.4427 -0.5242  0.8093
  616MOL0     O81188   9.909  10.249   2.497 -0.1710  0.5410  0.8362
  616MOL0     C81189   9.820  10.333   2.423 -0.1241 -0.5661  0.6357
  616MOL0     C81190   9.669  10.327   2.469 -0.0455  0.7527  0.0841
  616MOL0     C81191   9.636  10.426   2.579 -0.5626  0.4155  0.2272
  616MOL0     C81192   9.694  10.390   2.723 -0.0605 -0.3527 -0.0588
  616MOL0     C81193   9.687  10.524   2.805 -0.1257 -0.4193  0.6740
  616MOL0     C81194   9.741  10.507   2.950 -1.0506 -0.0115  0.4026
  616MOL0     C81195   9.755  10.639   3.027 -0.7056  0.4507  0.0999
  616MOL0     C81196   9.875  10.737   2.990 -0.7828  0.2869 -0.8679
  616MOL0     N81197  10.002  10.661   2.996  0.3931 -0.1826  0.5492
  616MOL0     C81198  10.062  10.647   2.880 -0.3661  0.2883  0.3689
  616MOL0     C81199  10.191  10.636   2.903  0.2479 -0.3182  0.0127
  616MOL0     C81200  10.312  10.623   2.813  1.1478 -0.1732  0.1440
  616MOL0     C81201  10.426  10.718   2.844 -0.6511  0.2327  0.6168
  616MOL0     C81202  10.506  10.674   2.969 -0.3187 -0.5378 -0.8417
  616MOL0     C81203  10.642  10.743   2.974 -0.4385  0.4227  0.3972
  616MOL0     O81204  10.735  10.676   2.885 -0.0343  0.2896  0.2332
  616MOL0     C81205  10.863  10.704   2.900 -0.4001 -0.2158  0.1846
  616MOL0     C81206  10.953  10.611   2.841 -0.3881  0.9429 -0.2468
  616MOL0     C81207  11.092  10.621   2.852  0.3622  0.0323 -0.0900
  616MOL0     C81208  11.149  10.722   2.931  0.7702 -1.0875  0.1648
  616MOL0     C81209  11.292  10.745   2.954 -0.9640 -0.1163 -0.3202
  616MOL0     O81210  11.333  10.859   3.022  0.2138  0.1660  0.5879
  616MOL0     C81211  11.464  10.901   2.995  0.9031 -0.3136 -1.0782
  616MOL0     C81212  11.571  10.886   3.089  0.0893 -0.1775  0.1226
  616MOL0     C81213  11.698  10.920   3.054 -0.4447 -0.6301 -0.0080
  616MOL0     C81214  11.735  10.968   2.928  0.5637 -0.2920 -0.5513
  616MOL0     O81215  11.862  11.017   2.884 -0.1037  0.1407 -0.4169
  616MOL0     C81216  11.976  11.001   2.964 -0.1215 -0.3098 -0.0444
  616MOL0     C81217  12.098  11.069   2.902 -0.2641  0.8881 -0.5667
  616MOL0     C81218  12.232  11.049   2.977  0.1882  0.9725 -0.4919
  616MOL0     C81219  12.226  11.095   3.124 -0.3203  0.5637  1.0687
  616MOL0     C81220  12.363  11.097   3.190 -0.3338 -0.6824  0.2648
  616MOL0     C81221  12.358  11.173   3.318  0.3886 -0.0999 -0.7373
  616MOL0     C81222  12.499  11.161   3.392  0.3795  0.6228  0.4763
  616MOL0     C81223  12.512  11.275   3.489  0.4465 -0.1036  1.5287
  616MOL0    Cl81224  12.359  11.329   3.570  0.0778  1.0062 -0.2464
  616MOL0     C81225  11.631  10.987   2.840 -0.6038  0.9487  0.1620
  616MOL0     C81226  11.495  10.947   2.863  1.0781 -1.1610 -0.0047
  616MOL0     O81227  11.375  10.676   2.885  0.0382 -0.1172  0.3620
  616MOL0     C81228  11.063  10.811   2.990  0.4207  0.5279  0.0132
  616MOL0     C81229  10.927  10.806   2.975  0.3379 -0.8062 -1.3282
  616MOL0     N81230  10.204  10.634   3.037  0.0583 -0.6051 -0.4620
  616MOL0     N81231  10.091  10.654   3.094  0.1359 -1.1699 -0.2468
  616MOL0     C81232  10.131  10.261   2.577 -0.3085 -0.3482  0.2952
  616MOL0     C81233  10.260  10.294   2.561 -0.5996 -0.0138 -0.4072
  616MOL0     C81234  10.676  10.274   2.386 -0.3778 -0.5403 -0.9854
  616MOL0     C81235  10.767  10.179   2.341 -0.2425 -0.5826 -0.5575
  616MOL0     C81236  10.897  10.213   2.306 -0.3805 -0.6289 -1.2130
  616MOL0     C81237  10.946  10.338   2.335 -0.1207  0.1758 -0.5349
  616MOL0     O81238  11.071  10.373   2.318 -0.5672  0.1491 -0.8125
  616MOL0     C81239  11.145  10.304   2.209  0.1433 -0.5694 -0.3820
  616MOL0     C81240  11.275  10.361   2.165  0.1635  0.5040 -0.1475
  616MOL0     C81241  11.358  10.396   2.297  0.2037 -0.7594  0.1159
  616MOL0     C81242  11.499  10.447   2.277  0.9881 -0.6172 -0.6949
  616MOL0     C81243  11.512  10.558   2.182  0.1701 -0.0841  0.5975
  616MOL0     C81244  11.518  10.652   2.103  0.4546  0.9617 -0.4624
  616MOL0     C81245  10.865  10.434   2.381  0.0839  0.7487  0.2873
  616MOL0     C81246  10.727  10.407   2.406  0.1962 -0.5568  0.3858
  616MOL0     H81247  10.272  10.340   2.224  3.1852 -0.7552  0.1557
  616MOL0     H81248  10.040  10.318   2.257 -1.8427  2.0054  1.5759
  616MOL0     H81249   9.827  10.301   2.318 -3.2025 -1.5777  0.6389
  616MOL0     H81250   9.846  10.438   2.437  1.7317 -0.6562 -1.4681
  616MOL0     H81251   9.639  10.222   2.479 -2.2782  0.8417 -3.5359
  616MOL0     H81252   9.600  10.346   2.386 -1.1750 -0.8626  0.5947
  616MOL0     H81253   9.529  10.421   2.596 -0.4954  0.4528  0.6537
  616MOL0     H81254   9.669  10.524   2.542  1.1814 -0.3675 -0.4048
  616MOL0     H81255   9.623  10.313   2.756  1.1743 -2.0812 -1.2435
  616MOL0     H81256   9.792  10.342   2.721  1.1980  1.9991  1.3468
  616MOL0     H81257   9.584  10.560   2.805 -0.5484 -1.5809 -0.3798
  616MOL0     H81258   9.741  10.604   2.753 -1.2157  0.5208  0.9440
  616MOL0     H81259   9.838  10.456   2.946 -0.6756  0.7631 -0.8095
  616MOL0     H81260   9.670  10.442   3.002 -2.3575  1.1482  0.1180
  616MOL0     H81261   9.661  10.692   3.042 -1.4051 -0.4297 -0.9601
  616MOL0     H81262   9.776  10.605   3.129 -2.7745 -0.5214  0.2686
  616MOL0     H81263   9.876  10.814   3.068  1.4442  0.0801 -0.6222
  616MOL0     H81264   9.862  10.786   2.893  1.6844  3.1145  0.0957
  616MOL0     H81265  10.026  10.658   2.778  1.2660  2.1698 -0.0699
  616MOL0     H81266  10.289  10.639   2.707 -0.7626 -0.3964  0.4921
  616MOL0     H81267  10.354  10.523   2.827 -0.0099 -0.8063 -0.7000
  616MOL0     H81268  10.380  10.816   2.859  3.0849  2.2112  0.3484
  616MOL0     H81269  10.493  10.733   2.759 -0.6993 -1.2286  0.3050
  616MOL0     H81270  10.450  10.715   3.054 -0.4749  2.8718 -2.3936
  616MOL0     H81271  10.528  10.567   2.973  1.5030 -0.2852 -2.5441
  616MOL0     H81272  10.679  10.750   3.076  0.4857 -2.2104  0.3148
  616MOL0     H81273  10.623  10.839   2.925 -2.8937 -1.5563 -3.0206
  616MOL0     H81274  10.905  10.537   2.777 -0.3617  1.1902 -0.5533
  616MOL0     H81275  11.159  10.548   2.809  0.6824  0.5940 -0.5618
  616MOL0     H81276  11.559  10.857   3.193  0.0331  3.9354  1.4325
  616MOL0     H81277  11.776  10.913   3.130  2.1860 -0.9617 -2.5290
  616MOL0     H81278  12.004  10.896   2.979 -3.2017 -1.3297 -0.8896
  616MOL0     H81279  11.959  11.045   3.062  0.4443  0.2014 -0.1686
  616MOL0     H81280  12.087  11.177   2.888  0.0414  0.9957 -0.0036
  616MOL0     H81281  12.109  11.048   2.795  0.0280 -1.7069 -0.1104
  616MOL0     H81282  12.314  11.101   2.927 -0.9025  2.1250 -1.1374
  616MOL0     H81283  12.252  10.942   2.983  0.3903  0.9920 -0.7926
  616MOL0     H81284  12.194  11.200   3.120 -4.7830 -0.6196 -2.2004
  616MOL0     H81285  12.161  11.040   3.192  1.3086 -0.1772  2.1051
  616MOL0     H81286  12.441  11.142   3.128 -1.1936 -0.1623 -0.4581
  616MOL0     H81287  12.407  10.998   3.208 -1.0487 -1.1266 -0.3599
  616MOL0     H81288  12.283  11.128   3.384  0.7893 -0.8424 -0.7830
  616MOL0     H81289  12.325  11.277   3.306  2.1599  0.3343 -2.2685
  616MOL0     H81290  12.511  11.066   3.444  0.4647 -0.7915 -1.9397
  616MOL0     H81291  12.585  11.180   3.326  0.9696 -1.2406  0.6577
  616MOL0     H81292  12.535  11.365   3.431  1.6048  1.1368  3.7714
  616MOL0     H81293  12.601  11.263   3.551  2.8227  0.7833 -1.4496
  616MOL0     H81294  11.658  11.040   2.750  1.4794  2.8882  1.8079
  616MOL0     H81295  11.417  10.952   2.788  1.4542  2.0051 -0.3285
  616MOL0     H81296  11.096  10.888   3.058 -2.2316  2.4014 -0.6680
  616MOL0     H81297  10.865  10.871   3.037  1.2396 -0.3287 -0.9152
  616MOL0     H81298  10.105  10.224   2.676 -2.2894 -0.8837 -0.3861
  616MOL0     H81299  10.326  10.293   2.647 -0.3951 -1.9770 -0.5223
  616MOL0     H81300  10.726  10.084   2.309 -0.0925 -1.2579  1.1515
  616MOL0     H81301  10.966  10.133   2.281 -0.0004 -0.6882 -0.0278
  616MOL0     H81302  11.082  10.297   2.120  1.1094 -0.4696 -1.0914
  616MOL0     H81303  11.152  10.201   2.245 -3.3513 -0.8919 -0.2487
  616MOL0     H81304  11.332  10.282   2.114  0.8616  0.1853  1.0747
  616MOL0     H81305  11.269  10.445   2.097  1.3945  1.2850  0.6752
  616MOL0     H81306  11.350  10.322   2.377 -0.6014  1.3122  2.0831
  616MOL0     H81307  11.300  10.477   2.342  0.4488 -2.1529  3.2654
  616MOL0     H81308  11.534  10.476   2.376 -1.9667  1.2292 -0.0552
  616MOL0     H81309  11.564  10.365   2.246  0.3075 -2.1571  1.6007
  616MOL0     H81310  11.521  10.727   2.027  0.6521 -0.4283 -1.8762
  616MOL0     H81311  10.906  10.535   2.389  1.9145  0.1412 -0.7735
  616MOL0     H81312  10.660  10.485   2.443 -1.5492  0.0501 -3.5484
  617MOL0     O81313   7.317   3.714   2.183  0.0085  0.2849 -0.6635
  617MOL0     C81314   7.252   3.721   2.076  0.9051 -0.2679 -0.3384
  617MOL0     O81315   7.266   3.637   1.967 -0.5398 -0.1615 -0.3297
  617MOL0     C81316   7.328   3.522   1.999  0.3477  0.5218  0.1885
  617MOL0     C81317   7.447   3.492   1.932 -0.4729 -0.6174  0.1096
  617MOL0     C81318   7.510   3.372   1.953  0.5098 -0.7915  0.2421
  617MOL0     C81319   7.453   3.262   2.031 -0.0946  0.2400  1.0187
  617MOL0     O81320   7.520   3.151   2.057 -0.0132  0.5521 -0.0203
  617MOL0     C81321   7.664   3.172   2.059  0.2417 -0.7929  0.3626
  617MOL0     C81322   7.716   3.059   2.149 -0.6573 -0.0361 -0.6790
  617MOL0     C81323   7.870   3.075   2.149 -1.6237 -0.2326  0.0977
  617MOL0     C81324   7.931   3.110   2.289  0.7270 -0.1570  0.1983
  617MOL0     C81325   8.078   3.142   2.285  0.0160 -0.1022  0.2274
  617MOL0     C81326   8.153   3.013   2.302  0.3431  0.4913  0.5261
  617MOL0     C81327   8.311   3.046   2.290 -0.4984  0.0760 -0.1853
  617MOL0     C81328   8.373   2.913   2.261  0.5827  0.3627  0.4082
  617MOL0     N81329   8.508   2.938   2.201  0.5108  0.5023  0.3630
  617MOL0     C81330   8.605   3.016   2.255  0.1985  0.0555  0.2378
  617MOL0     C81331   8.692   3.043   2.158  0.3506  0.0826  0.7394
  617MOL0     C81332   8.797   3.143   2.154 -0.6794 -0.9792 -0.9073
  617MOL0     C81333   8.933   3.078   2.183  0.6318  1.2733  0.4797
  617MOL0     C81334   8.981   2.984   2.075  0.1935  0.1985  0.5271
  617MOL0     C81335   9.063   3.054   1.956 -0.6157 -0.9592  0.3558
  617MOL0     O81336   9.200   3.090   1.997 -0.0703 -0.1291  0.2124
  617MOL0     C81337   9.286   3.142   1.906  0.4831  0.2299 -0.2120
  617MOL0     C81338   9.405   3.162   1.964  0.3906  0.5610 -0.1320
  617MOL0     C81339   9.508   3.213   1.887 -0.3882 -0.7374  0.1551
  617MOL0     C81340   9.481   3.262   1.757 -0.0865  0.3213  0.8938
  617MOL0     C81341   9.588   3.309   1.671 -1.2484 -1.0915 -0.6553
  617MOL0     O81342   9.713   3.296   1.722 -0.4346  0.1698 -0.1149
  617MOL0     C81343   9.817   3.339   1.647 -0.5075  0.3961  0.3020
  617MOL0     C81344   9.855   3.269   1.526  0.0203  1.0770 -0.4299
  617MOL0     C81345   9.953   3.320   1.453 -0.1710  0.1083  0.9613
  617MOL0     C81346  10.038   3.416   1.497 -0.3580 -0.0350 -0.7647
  617MOL0     O81347  10.156   3.446   1.422 -0.1718  0.5180  1.2310
  617MOL0     C81348  10.236   3.331   1.392 -0.4171 -0.5175  0.6599
  617MOL0     C81349  10.372   3.382   1.344  0.0736 -0.2935  0.0934
  617MOL0     C81350  10.478   3.413   1.454  0.2821  0.2858  0.6105
  617MOL0     C81351  10.590   3.475   1.379  0.6831  0.5382 -0.1548
  617MOL0     C81352  10.725   3.470   1.453 -0.2530 -0.2531  0.9798
  617MOL0     C81353  10.851   3.500   1.364  0.1394 -0.3596  1.2383
  617MOL0     C81354  10.982   3.466   1.434  0.3088 -0.0706  0.2585
  617MOL0     C81355  11.111   3.514   1.353  0.5337  0.3368 -0.5952
  617MOL0    Cl81356  11.246   3.433   1.424 -0.1914 -0.2838  0.1527
  617MOL0     C81357  10.021   3.472   1.624 -0.1055  0.0677 -0.2298
  617MOL0     C81358   9.901   3.438   1.697  0.6986  1.1172  0.5009
  617MOL0     O81359   9.558   3.375   1.574  0.1003  1.0552 -0.4563
  617MOL0     C81360   9.359   3.241   1.706  0.3127 -0.0401 -0.5569
  617MOL0     C81361   9.253   3.186   1.779  0.7774 -0.4436 -0.1628
  617MOL0     N81362   8.642   2.981   2.050 -0.3700 -0.0079 -0.3555
  617MOL0     N81363   8.539   2.911   2.077  0.0538  0.2806 -0.5153
  617MOL0     C81364   7.327   3.292   2.090 -0.1779 -1.0970 -0.0156
  617MOL0     C81365   7.271   3.424   2.077  0.7533  1.1033 -0.1179
  617MOL0     C81366   7.163   3.833   2.064  0.3204  0.6128  0.2731
  617MOL0     C81367   7.173   3.946   2.149 -0.2477  0.4358  1.1584
  617MOL0     C81368   7.070   4.044   2.144  0.5632 -0.0242  0.3157
  617MOL0     C81369   6.956   4.031   2.063  0.8481 -0.3619 -0.7255
  617MOL0     O81370   6.839   4.110   2.061  0.2186  0.1643 -0.5216
  617MOL0     C81371   6.841   4.211   2.162  0.4487 -0.1429 -0.2466
  617MOL0     C81372   6.722   4.300   2.145 -0.2038  0.3650  0.1126
  617MOL0     C81373   6.586   4.225   2.178  0.1187 -0.6525 -0.7813
  617MOL0     C81374   6.465   4.329   2.158 -0.4312  0.1140  0.1296
  617MOL0     C81375   6.349   4.273   2.221 -0.6805  0.4788 -0.2335
  617MOL0     C81376   6.255   4.221   2.268  1.3015  0.1760 -0.1219
  617MOL0     C81377   6.956   3.922   1.972 -0.4615  0.3446  0.0410
  617MOL0     C81378   7.055   3.826   1.965 -0.6530 -0.7253 -0.1253
  617MOL0     H81379   7.500   3.570   1.878 -1.8613  0.4537  0.2479
  617MOL0     H81380   7.601   3.346   1.901 -1.1004 -0.2848 -3.1158
  617MOL0     H81381   7.687   3.264   2.113  2.8445 -1.8549  1.2952
  617MOL0     H81382   7.709   3.177   1.959  0.9146  2.1993  0.7293
  617MOL0     H81383   7.693   2.959   2.113  2.7587 -0.2056 -2.8282
  617MOL0     H81384   7.668   3.073   2.246 -4.1112 -3.3367 -1.6787
  617MOL0     H81385   7.909   3.146   2.076 -0.2433 -0.8194  0.2338
  617MOL0     H81386   7.917   2.979   2.126 -0.5016 -0.0137  1.3545
  617MOL0     H81387   7.881   3.202   2.321 -1.2565 -0.8154 -0.8919
  617MOL0     H81388   7.905   3.023   2.350 -1.1782 -0.1664 -0.5682
  617MOL0     H81389   8.097   3.209   2.369  2.6474 -0.1055 -0.2977
  617MOL0     H81390   8.111   3.205   2.202  0.1275  1.4257  1.3905
  617MOL0     H81391   8.125   2.942   2.223  0.6801  1.6099 -0.6207
  617MOL0     H81392   8.125   2.962   2.395  1.9916 -2.1612 -0.3296
  617MOL0     H81393   8.329   3.117   2.209  0.4398  0.5435  0.4129
  617MOL0     H81394   8.348   3.083   2.386 -2.0904  2.6483 -0.4847
  617MOL0     H81395   8.308   2.861   2.190 -0.9643  1.8186  0.7030
  617MOL0     H81396   8.382   2.859   2.356  1.7637 -0.4408 -0.1415
  617MOL0     H81397   8.605   3.054   2.357 -1.6289  1.8165 -0.3616
  617MOL0     H81398   8.788   3.221   2.230 -0.1522 -1.1022 -0.7091
  617MOL0     H81399   8.810   3.199   2.061  1.6601 -0.6051 -0.4370
  617MOL0     H81400   8.925   3.026   2.279 -1.7666  1.0659  0.2321
  617MOL0     H81401   9.002   3.161   2.200  1.3867  1.2292 -1.9828
  617MOL0     H81402   9.043   2.915   2.134 -0.1280 -3.2814 -2.8505
  617MOL0     H81403   8.898   2.932   2.028 -1.3584  1.8768  1.2780
  617MOL0     H81404   9.019   3.148   1.923  0.7650  0.0877  1.3574
  617MOL0     H81405   9.080   2.987   1.871 -0.1156  0.4510 -0.6942
  617MOL0     H81406   9.418   3.143   2.070  0.0675 -0.4456 -0.2578
  617MOL0     H81407   9.606   3.223   1.932 -0.1449 -0.0929 -0.4922
  617MOL0     H81408   9.794   3.189   1.485  2.2917 -1.4051  0.7401
  617MOL0     H81409   9.982   3.275   1.358  5.3210  1.4758  1.6922
  617MOL0     H81410  10.190   3.266   1.317  0.1699 -0.5447  0.3214
  617MOL0     H81411  10.254   3.277   1.486  2.5363  2.2859  1.8696
  617MOL0     H81412  10.358   3.467   1.277 -1.0624 -0.4935  0.0528
  617MOL0     H81413  10.417   3.302   1.285 -2.9263 -1.6361 -0.5293
  617MOL0     H81414  10.505   3.324   1.511 -1.5101  0.6604  2.1352
  617MOL0     H81415  10.442   3.486   1.526 -4.2222 -1.0698  0.0598
  617MOL0     H81416  10.608   3.432   1.280 -0.7175  1.9076 -1.0511
  617MOL0     H81417  10.566   3.579   1.356 -1.9573 -0.1172 -0.6528
  617MOL0     H81418  10.737   3.367   1.489 -0.1913 -0.9509 -0.9589
  617MOL0     H81419  10.733   3.538   1.539  4.2140 -2.4864  2.6312
  617MOL0     H81420  10.850   3.601   1.321  0.9846 -1.3269 -1.2222
  617MOL0     H81421  10.850   3.433   1.277 -1.8678 -0.5614  1.3703
  617MOL0     H81422  10.976   3.522   1.528  0.7442  0.4941 -0.0387
  617MOL0     H81423  10.993   3.358   1.446 -3.0740 -1.1367 -3.7083
  617MOL0     H81424  11.112   3.623   1.357  0.2041  0.3150  0.6941
  617MOL0     H81425  11.111   3.480   1.249  1.7687 -2.5356  0.2491
  617MOL0     H81426  10.085   3.545   1.672  0.3132 -0.8472  0.6147
  617MOL0     H81427   9.885   3.475   1.798  1.7096  0.4860  0.9067
  617MOL0     H81428   9.336   3.274   1.605  1.9206 -0.6140 -1.1414
  617MOL0     H81429   9.155   3.179   1.733  1.3289 -0.8047 -1.3237
  617MOL0     H81430   7.297   3.229   2.173  1.7443  0.1472  1.7525
  617MOL0     H81431   7.178   3.443   2.129  1.2688 -0.5382  1.5279
  617MOL0     H81432   7.259   3.950   2.214  1.2142 -3.0616 -0.3303
  617MOL0     H81433   7.092   4.127   2.211 -0.7857 -0.8675  1.8686
  617MOL0     H81434   6.930   4.275   2.158  0.1728  0.2963  0.5867
  617MOL0     H81435   6.842   4.156   2.256 -1.3330  0.2500  0.0321
  617MOL0     H81436   6.730   4.380   2.220  1.7711  1.3947 -1.1269
  617MOL0     H81437   6.723   4.342   2.044  1.9800  1.0992  0.3875
  617MOL0     H81438   6.578   4.204   2.285 -1.2850  0.1837 -0.6954
  617MOL0     H81439   6.570   4.135   2.118 -1.5882 -0.1824 -1.1038
  617MOL0     H81440   6.487   4.422   2.211  0.6248 -2.1026  3.9435
  617MOL0     H81441   6.443   4.349   2.053 -2.9591 -0.5389  0.4714
  617MOL0     H81442   6.170   4.181   2.320  1.3657 -0.0026 -0.1536
  617MOL0     H81443   6.881   3.903   1.896  1.8318 -1.4436 -1.9522
  617MOL0     H81444   7.035   3.743   1.899  0.7750 -0.0144 -1.5220
  618MOL0     O81445   3.329   1.727   5.416  0.0112 -0.0540 -0.1805
  618MOL0     C81446   3.354   1.840   5.380  0.2502 -0.4016 -0.3262
  618MOL0     O81447   3.271   1.929   5.323 -0.2231  1.1279 -0.0029
  618MOL0     C81448   3.144   1.882   5.284  0.6923 -0.5404 -0.3602
  618MOL0     C81449   3.053   1.984   5.263  0.2762 -0.2822  0.7115
  618MOL0     C81450   2.923   1.955   5.225 -0.1131  0.2257  0.4904
  618MOL0     C81451   2.887   1.829   5.189  0.1925 -0.2016  0.3469
  618MOL0     O81452   2.770   1.813   5.120 -0.9806  1.0443  0.0315
  618MOL0     C81453   2.681   1.716   5.178 -0.3707  0.2689 -0.8447
  618MOL0     C81454   2.564   1.786   5.248 -0.5996 -0.0520  0.6469
  618MOL0     C81455   2.496   1.880   5.144  0.8640 -0.1909 -0.4359
  618MOL0     C81456   2.380   1.958   5.210  0.0466  1.1500 -0.3438
  618MOL0     C81457   2.306   2.053   5.114 -0.4995  0.0836  0.5812
  618MOL0     C81458   2.220   1.973   5.022  0.5929  0.6767 -0.5108
  618MOL0     C81459   2.115   2.063   4.952  0.3680 -0.0508  0.1622
  618MOL0     C81460   2.012   2.134   5.043  0.5392 -0.0143  0.6175
  618MOL0     N81461   1.880   2.139   4.978  0.0537 -0.0582 -0.3366
  618MOL0     C81462   1.829   2.245   4.906 -0.8292 -1.0992  1.2015
  618MOL0     C81463   1.731   2.196   4.833  0.7235 -0.1075  0.1344
  618MOL0     C81464   1.636   2.268   4.744  0.7875 -0.3577  0.2206
  618MOL0     C81465   1.503   2.297   4.820  1.0361  0.2175  0.3216
  618MOL0     C81466   1.399   2.343   4.713 -0.3258 -0.4439  0.6418
  618MOL0     C81467   1.263   2.350   4.781  0.0747 -1.1585  0.3293
  618MOL0     O81468   1.170   2.417   4.689  0.4811 -0.3378  0.6874
  618MOL0     C81469   1.041   2.408   4.730  0.2290 -0.1021  0.4625
  618MOL0     C81470   0.938   2.434   4.639  0.0387 -0.6791 -0.1256
  618MOL0     C81471   0.806   2.435   4.679 -0.6084 -0.0816 -0.6608
  618MOL0     C81472   0.770   2.420   4.818 -0.5022  0.4861  0.8530
  618MOL0     C81473   0.630   2.410   4.858 -0.7195 -0.1164 -0.0190
  618MOL0     O81474   0.595   2.362   4.978  0.5566 -0.3321 -0.1602
  618MOL0     C81475   0.468   2.369   5.013  0.0696  0.5289  0.5914
  618MOL0     C81476   0.373   2.286   4.955  0.8922  0.9801  0.7353
  618MOL0     C81477   0.240   2.281   4.995  1.4369  0.6772  0.3663
  618MOL0     C81478   0.196   2.368   5.094 -0.2906 -0.9313 -0.3636
  618MOL0     O81479   0.077   2.370   5.156  1.3947 -0.9759 -0.0244
  618MOL0     C81480   0.010   2.248   5.171  0.4896  0.4518 -0.3386
  618MOL0     C81481  -0.110   2.271   5.266  0.1097 -0.0459 -0.6754
  618MOL0     C81482  -0.214   2.360   5.196  0.7914 -0.2203  0.4740
  618MOL0     C81483  -0.322   2.395   5.305 -0.3556 -0.1574  0.4964
  618MOL0     C81484  -0.438   2.484   5.245  0.7094 -0.7003  0.0952
  618MOL0     C81485  -0.574   2.474   5.307  0.0872  0.2559 -0.2898
  618MOL0     C81486  -0.672   2.571   5.251  1.0402  0.2947  0.1148
  618MOL0     C81487  -0.794   2.516   5.176 -0.3955 -0.1482 -0.5646
  618MOL0    Cl81488  -0.912   2.453   5.300 -0.1199 -0.3473 -0.1933
  618MOL0     C81489   0.284   2.458   5.148 -0.5869  0.9061 -0.1989
  618MOL0     C81490   0.417   2.459   5.107  0.8732 -0.3788  0.6028
  618MOL0     O81491   0.556   2.456   4.772 -0.1587  0.6157 -0.2594
  618MOL0     C81492   0.870   2.396   4.910 -0.4737  0.0545  0.3538
  618MOL0     C81493   1.001   2.384   4.863  0.6188 -0.0177  0.1518
  618MOL0     N81494   1.711   2.060   4.871 -0.7721  1.0630 -0.0940
  618MOL0     N81495   1.799   2.037   4.958 -0.3830 -0.3284  0.1131
  618MOL0     C81496   2.977   1.721   5.216  0.3363  0.2276  0.8550
  618MOL0     C81497   3.102   1.753   5.254 -0.0456 -0.7222  0.4577
  618MOL0     C81498   3.495   1.887   5.384 -0.2226  0.6379  0.2629
  618MOL0     C81499   3.588   1.818   5.461 -0.4417  0.3535 -0.1498
  618MOL0     C81500   3.723   1.871   5.452 -0.0526  0.6691 -0.8643
  618MOL0     C81501   3.756   1.990   5.396  0.0119 -0.8683 -0.2704
  618MOL0     O81502   3.882   2.034   5.399 -0.1905  0.6263  0.2211
  618MOL0     C81503   3.914   2.173   5.390  0.1705 -0.6971  0.6881
  618MOL0     C81504   4.042   2.198   5.460  0.2454 -0.0022 -0.0434
  618MOL0     C81505   4.152   2.130   5.382 -0.0801  0.3245  0.1951
  618MOL0     C81506   4.290   2.157   5.438 -0.2484 -0.3874  0.2356
  618MOL0     C81507   4.406   2.134   5.360  0.0869 -0.0317  0.3088
  618MOL0     C81508   4.488   2.113   5.276 -0.5651 -0.9681  0.2384
  618MOL0     C81509   3.656   2.059   5.321  0.1383 -0.0379  0.4855
  618MOL0     C81510   3.521   2.010   5.313 -0.9757  0.4625  0.4612
  618MOL0     H81511   3.081   2.089   5.266 -0.3766 -0.1224  1.8327
  618MOL0     H81512   2.851   2.036   5.216 -0.5043 -0.2083 -0.4091
  618MOL0     H81513   2.728   1.643   5.245 -0.2457  0.1421 -1.0674
  618MOL0     H81514   2.638   1.666   5.091 -2.6590  0.8677 -0.1039
  618MOL0     H81515   2.596   1.839   5.337 -2.1571  2.2824 -0.0930
  618MOL0     H81516   2.491   1.711   5.280  1.7612 -2.7007  0.2745
  618MOL0     H81517   2.463   1.823   5.056 -2.9485 -1.2270  1.4570
  618MOL0     H81518   2.565   1.958   5.111 -0.5205  1.2619  0.0287
  618MOL0     H81519   2.313   1.891   5.265 -1.7131  3.4501  0.4538
  618MOL0     H81520   2.434   2.016   5.286  0.9129  2.5180 -1.9295
  618MOL0     H81521   2.375   2.118   5.059 -0.7507  0.8749  1.1837
  618MOL0     H81522   2.245   2.111   5.185  3.5168  0.9262  3.7129
  618MOL0     H81523   2.173   1.887   5.071  1.1631  0.1661 -0.8524
  618MOL0     H81524   2.278   1.926   4.943  0.4981  0.8380 -0.6771
  618MOL0     H81525   2.158   2.129   4.877  1.4855  0.4165  1.1785
  618MOL0     H81526   2.057   1.990   4.894  0.1443  0.1326  0.1558
  618MOL0     H81527   2.033   2.237   5.074 -1.0788  0.1285  1.3382
  618MOL0     H81528   1.991   2.069   5.128  0.9432  0.3171  0.9740
  618MOL0     H81529   1.866   2.347   4.913  2.1868 -2.0957  1.2932
  618MOL0     H81530   1.629   2.216   4.648  1.4004 -1.7786  0.9251
  618MOL0     H81531   1.685   2.364   4.723  0.3282 -0.7291 -3.0767
  618MOL0     H81532   1.504   2.383   4.886 -3.9660  2.3794 -1.9252
  618MOL0     H81533   1.479   2.205   4.875  2.5354 -0.4313 -0.0597
  618MOL0     H81534   1.423   2.441   4.670 -0.1159 -2.4540 -4.5342
  618MOL0     H81535   1.398   2.270   4.632 -0.6876  1.1866 -0.8836
  618MOL0     H81536   1.272   2.411   4.871 -3.3727 -0.1493  0.1363
  618MOL0     H81537   1.231   2.253   4.818 -0.2440  0.2268  4.1866
  618MOL0     H81538   0.964   2.451   4.534 -0.3356 -0.5002 -0.1920
  618MOL0     H81539   0.735   2.463   4.603 -0.9034 -1.3498 -0.8778
  618MOL0     H81540   0.410   2.211   4.887 -3.4462 -3.5765  2.7776
  618MOL0     H81541   0.175   2.216   4.936  2.4041 -2.8724  2.8879
  618MOL0     H81542   0.080   2.172   5.205 -0.8117  0.0003  1.4373
  618MOL0     H81543  -0.030   2.210   5.076  2.3010 -1.3201 -0.4418
  618MOL0     H81544  -0.078   2.326   5.355 -1.8031 -1.5735  1.0519
  618MOL0     H81545  -0.155   2.182   5.311  0.0507  0.5500  0.4767
  618MOL0     H81546  -0.259   2.300   5.117  1.7740  0.5528 -0.7087
  618MOL0     H81547  -0.181   2.453   5.148 -1.2158  0.0782 -0.4473
  618MOL0     H81548  -0.367   2.305   5.347 -0.2142 -0.5680 -0.2032
  618MOL0     H81549  -0.285   2.459   5.385 -1.9763  1.6408 -0.1191
  618MOL0     H81550  -0.459   2.456   5.142 -0.2455  0.3962 -0.0250
  618MOL0     H81551  -0.406   2.589   5.248 -0.0596 -0.4225 -0.8475
  618MOL0     H81552  -0.570   2.486   5.416  0.2319 -0.4016 -0.2203
  618MOL0     H81553  -0.607   2.371   5.291  1.9959 -0.9430  2.5532
  618MOL0     H81554  -0.723   2.615   5.337  1.0880  0.3713  0.1037
  618MOL0     H81555  -0.618   2.645   5.190  0.8361 -0.7070 -1.3388
  618MOL0     H81556  -0.758   2.435   5.111 -0.9487 -0.4520 -0.5028
  618MOL0     H81557  -0.836   2.596   5.115  0.4995  2.1287  1.6642
  618MOL0     H81558   0.263   2.528   5.228 -0.3878 -0.5184  1.1272
  618MOL0     H81559   0.481   2.525   5.166  1.6539 -1.2200  0.7204
  618MOL0     H81560   0.854   2.378   5.015  0.7361 -0.0381  0.5451
  618MOL0     H81561   1.081   2.370   4.935  0.2579 -1.0366  0.3770
  618MOL0     H81562   2.968   1.615   5.192 -1.7440 -0.0246  2.5339
  618MOL0     H81563   3.179   1.678   5.242 -0.7143 -1.1353 -1.8195
  618MOL0     H81564   3.556   1.729   5.514  1.3762  0.2169  0.8173
  618MOL0     H81565   3.794   1.822   5.518 -2.6376 -1.5710  0.4942
  618MOL0     H81566   3.848   2.236   5.450  1.2990  2.7874 -1.4425
  618MOL0     H81567   3.917   2.220   5.291 -1.8198 -0.3358  0.7514
  618MOL0     H81568   4.056   2.302   5.488  2.7421 -0.0452 -0.9074
  618MOL0     H81569   4.041   2.154   5.560  2.4735  1.8283  0.8576
  618MOL0     H81570   4.146   2.161   5.278 -0.1625  2.5079  0.8114
  618MOL0     H81571   4.137   2.022   5.392  2.7482 -0.5110 -2.8812
  618MOL0     H81572   4.292   2.265   5.453  2.5985  0.6368 -5.0221
  618MOL0     H81573   4.303   2.106   5.535 -1.6546  0.7339  1.0467
  618MOL0     H81574   4.569   2.109   5.206  0.2663 -0.3107  1.1353
  618MOL0     H81575   3.680   2.153   5.271  0.5787  0.1969  1.1272
  618MOL0     H81576   3.446   2.056   5.250 -1.1288 -1.4790 -0.8588
  619MOL0     O81577   3.080   5.527   2.490  0.0446 -0.1231 -0.3827
  619MOL0     C81578   3.173   5.495   2.566 -0.1759  1.0291  0.4729
  619MOL0     O81579   3.171   5.486   2.705  0.5573  0.6271 -0.0843
  619MOL0     C81580   3.047   5.498   2.762 -0.7175  0.3826 -0.5028
  619MOL0     C81581   2.985   5.384   2.829  0.1067  0.3237  0.0057
  619MOL0     C81582   2.864   5.415   2.885 -0.3180  0.4823  0.7871
  619MOL0     C81583   2.805   5.545   2.891  0.1648  0.1202  0.5727
  619MOL0     O81584   2.680   5.581   2.935 -0.6718  0.7754 -0.3766
  619MOL0     C81585   2.609   5.490   3.022 -0.4324 -0.1568  0.1301
  619MOL0     C81586   2.466   5.523   2.987  0.5334  0.3702 -0.0462
  619MOL0     C81587   2.366   5.450   3.092 -0.3522  0.4378  0.1163
  619MOL0     C81588   2.376   5.512   3.230  0.4345 -0.4059 -0.0367
  619MOL0     C81589   2.249   5.478   3.318 -0.1678  0.6024 -0.0066
  619MOL0     C81590   2.125   5.551   3.279 -0.5395  0.2478  0.2815
  619MOL0     C81591   2.014   5.521   3.386  0.1994  0.3624  0.2135
  619MOL0     C81592   1.891   5.603   3.360 -0.2979 -0.0002 -0.0421
  619MOL0     N81593   1.818   5.562   3.246 -0.4896 -0.0161 -0.4388
  619MOL0     C81594   1.771   5.437   3.210  0.2042  0.3094 -0.2586
  619MOL0     C81595   1.684   5.461   3.102  0.1641  0.2044  0.2357
  619MOL0     C81596   1.588   5.365   3.042  0.6356  0.8956 -0.9827
  619MOL0     C81597   1.649   5.222   3.023 -1.0238 -1.4840 -0.5471
  619MOL0     C81598   1.550   5.131   2.947 -1.0550  1.0356  0.3821
  619MOL0     C81599   1.416   5.105   3.011  0.0477 -0.1871 -0.1936
  619MOL0     O81600   1.440   5.055   3.143 -0.1018 -0.1444  0.1384
  619MOL0     C81601   1.337   5.024   3.224  0.2336 -0.1016  0.1864
  619MOL0     C81602   1.202   5.048   3.193 -0.1395  0.4208  0.0635
  619MOL0     C81603   1.097   5.010   3.278 -0.1279  0.2928  0.2342
  619MOL0     C81604   1.116   4.953   3.402 -0.0287  0.4545 -0.6317
  619MOL0     C81605   1.008   4.935   3.499 -1.2381 -0.0374  0.2343
  619MOL0     O81606   0.881   4.979   3.469  0.0399  0.2070 -0.8642
  619MOL0     C81607   0.783   4.954   3.561  0.0463  0.5692 -0.1355
  619MOL0     C81608   0.710   4.831   3.547 -0.2652 -0.1540  0.2343
  619MOL0     C81609   0.627   4.792   3.640  0.6140  0.1670  0.6398
  619MOL0     C81610   0.582   4.878   3.736 -0.4188 -0.8465  0.4475
  619MOL0     O81611   0.491   4.819   3.828  0.7458 -0.8009  0.1372
  619MOL0     C81612   0.498   4.862   3.967  0.6587  0.3133 -0.2218
  619MOL0     C81613   0.376   4.795   4.039  0.3827  1.2176  0.3427
  619MOL0     C81614   0.373   4.641   4.039 -0.4133 -1.3937  0.8481
  619MOL0     C81615   0.261   4.587   4.119  0.9846  0.3351  0.6409
  619MOL0     C81616   0.291   4.446   4.161 -0.5631 -0.4163  0.3738
  619MOL0     C81617   0.172   4.378   4.231 -0.8950 -0.3440  0.0391
  619MOL0     C81618   0.171   4.428   4.375 -0.1261  0.6922  0.2310
  619MOL0     C81619   0.030   4.416   4.425 -0.3120  0.1577  0.2699
  619MOL0    Cl81620   0.022   4.411   4.604  0.3394  0.3172 -0.2060
  619MOL0     C81621   0.644   5.004   3.764  0.0981 -0.4076 -0.2428
  619MOL0     C81622   0.752   5.040   3.673  0.4438 -0.0220 -0.1095
  619MOL0     O81623   1.036   4.877   3.600 -0.1542 -0.1064  0.2247
  619MOL0     C81624   1.253   4.929   3.443  0.1835 -0.4706  1.5230
  619MOL0     C81625   1.359   4.961   3.352  0.5346  0.4007  0.3757
  619MOL0     N81626   1.681   5.598   3.073 -0.4738 -0.1286 -0.3411
  619MOL0     N81627   1.758   5.649   3.159  0.3405  0.0959 -0.0256
  619MOL0     C81628   2.887   5.646   2.850 -0.2542  0.0743  0.0280
  619MOL0     C81629   3.005   5.624   2.782 -0.7637  0.8328  0.0694
  619MOL0     C81630   3.298   5.444   2.488  0.4989  0.0233  0.0521
  619MOL0     C81631   3.417   5.487   2.536 -0.7812  0.1986 -0.0895
  619MOL0     C81632   3.540   5.446   2.486 -0.2227  0.8194  0.0317
  619MOL0     C81633   3.539   5.377   2.359  0.5375  0.3407 -0.1021
  619MOL0     O81634   3.663   5.345   2.316  0.2443 -0.1651  0.2606
  619MOL0     C81635   3.670   5.261   2.198  0.0725 -0.1650  0.1007
  619MOL0     C81636   3.813   5.225   2.173 -0.5554  0.7352  0.7591
  619MOL0     C81637   3.905   5.188   2.301  0.2923 -0.4112  0.2213
  619MOL0     C81638   4.048   5.167   2.248 -0.5060  1.0617 -0.0357
  619MOL0     C81639   4.122   5.122   2.361 -0.0499 -0.7426 -0.4235
  619MOL0     C81640   4.189   5.073   2.449  0.5383 -0.0758 -0.3582
  619MOL0     C81641   3.416   5.345   2.302 -0.1824 -0.3566  0.2682
  619MOL0     C81642   3.294   5.370   2.369  0.2507 -0.5538  0.2587
  619MOL0     H81643   3.022   5.284   2.806 -1.3376 -0.3252  0.3942
  619MOL0     H81644   2.799   5.331   2.910 -0.8647  1.3096  2.3103
  619MOL0     H81645   2.640   5.513   3.124  0.1403  0.3163 -0.1471
  619MOL0     H81646   2.625   5.382   3.014  1.0662 -0.2056  2.7487
  619MOL0     H81647   2.439   5.490   2.886 -0.8907 -1.2727  0.8292
  619MOL0     H81648   2.454   5.631   2.987  2.0787  0.5736  1.2481
  619MOL0     H81649   2.372   5.341   3.089 -0.5318  0.4495 -1.4556
  619MOL0     H81650   2.270   5.472   3.044 -0.8108 -0.5859  0.5315
  619MOL0     H81651   2.470   5.473   3.271 -0.7205 -2.5908  0.7242
  619MOL0     H81652   2.384   5.621   3.227  1.3494 -0.2862  3.0507
  619MOL0     H81653   2.264   5.506   3.423  3.2521 -0.0217 -0.2239
  619MOL0     H81654   2.237   5.369   3.325 -0.0899  0.5079 -1.1381
  619MOL0     H81655   2.080   5.528   3.182 -0.6481  1.9161 -0.1018
  619MOL0     H81656   2.146   5.659   3.277  1.0282 -0.0587 -1.1925
  619MOL0     H81657   1.995   5.413   3.391  2.6488 -0.0728  3.3471
  619MOL0     H81658   2.068   5.548   3.477  0.5171  3.0061 -0.6805
  619MOL0     H81659   1.904   5.711   3.352 -3.2370  0.4920  0.8404
  619MOL0     H81660   1.835   5.593   3.453 -0.7448 -2.3740 -0.5056
  619MOL0     H81661   1.794   5.342   3.256 -0.2726 -1.2701 -3.0776
  619MOL0     H81662   1.540   5.394   2.949  2.6385 -0.6705 -2.5901
  619MOL0     H81663   1.505   5.352   3.113  0.5157 -2.2388 -1.5248
  619MOL0     H81664   1.690   5.175   3.113  0.4219 -1.7520 -1.3239
  619MOL0     H81665   1.742   5.241   2.970 -0.9044  0.9253  0.3963
  619MOL0     H81666   1.537   5.180   2.850 -1.6163 -0.1057 -0.1376
  619MOL0     H81667   1.581   5.028   2.930 -2.4185  0.2583  2.2196
  619MOL0     H81668   1.368   5.028   2.950 -0.1401  0.1532 -0.4874
  619MOL0     H81669   1.364   5.201   3.002  1.3722  0.4159 -2.4067
  619MOL0     H81670   1.173   5.089   3.097 -0.5386  0.3751  0.1638
  619MOL0     H81671   1.004   5.064   3.263  0.4219  1.5258  1.0741
  619MOL0     H81672   0.726   4.766   3.462  0.9983 -0.3532  0.6104
  619MOL0     H81673   0.585   4.698   3.606  1.5143  0.5407 -1.7242
  619MOL0     H81674   0.500   4.971   3.965 -1.5275  0.4193 -2.2092
  619MOL0     H81675   0.590   4.819   4.008 -0.9678 -3.4913 -0.0994
  619MOL0     H81676   0.282   4.830   3.997  2.1127  0.9293 -4.3604
  619MOL0     H81677   0.377   4.830   4.143  1.6911  0.1259  0.7252
  619MOL0     H81678   0.461   4.608   4.096 -1.1783 -1.2032  2.1781
  619MOL0     H81679   0.379   4.603   3.937 -3.1709  1.5202 -0.5862
  619MOL0     H81680   0.247   4.653   4.206  1.7681 -0.1321  1.1344
  619MOL0     H81681   0.172   4.603   4.059  1.5041 -1.2733 -0.6344
  619MOL0     H81682   0.385   4.433   4.215  0.7271  3.1115 -0.7579
  619MOL0     H81683   0.296   4.397   4.063 -3.2825  1.0814 -0.6381
  619MOL0     H81684   0.193   4.271   4.240  3.7318  0.2863 -0.7057
  619MOL0     H81685   0.073   4.397   4.188 -1.3948  0.0335  1.3178
  619MOL0     H81686   0.229   4.363   4.441 -1.0862  2.9595  3.5542
  619MOL0     H81687   0.210   4.530   4.370  1.5822  0.0163 -1.2845
  619MOL0     H81688  -0.004   4.320   4.385 -0.3140  0.4869 -0.5505
  619MOL0     H81689  -0.044   4.491   4.394 -2.1559 -1.5953  0.2205
  619MOL0     H81690   0.638   5.062   3.856 -0.4079  0.1904 -0.6495
  619MOL0     H81691   0.810   5.129   3.694  0.5955 -0.1212 -0.1066
  619MOL0     H81692   1.262   4.900   3.547 -2.8626  0.6803  2.2220
  619MOL0     H81693   1.461   4.940   3.380  0.1282 -0.2932  1.4034
  619MOL0     H81694   2.852   5.749   2.855  2.1878  0.9279  1.6527
  619MOL0     H81695   3.056   5.712   2.744 -0.0350 -0.6138 -2.6003
  619MOL0     H81696   3.422   5.536   2.633  1.1231  1.9941 -1.0151
  619MOL0     H81697   3.632   5.439   2.543  0.3593 -0.3645 -1.0003
  619MOL0     H81698   3.634   5.321   2.114  2.5213  2.2521  0.6525
  619MOL0     H81699   3.615   5.169   2.220  1.0984 -0.5807  1.0430
  619MOL0     H81700   3.805   5.141   2.104  0.4690 -1.9861  3.7348
  619MOL0     H81701   3.861   5.314   2.131 -1.6008  0.4941 -1.0554
  619MOL0     H81702   3.859   5.097   2.341 -4.0549  1.5012  0.0888
  619MOL0     H81703   3.903   5.260   2.384 -0.5792 -0.5547  0.3301
  619MOL0     H81704   4.049   5.084   2.176 -1.0088 -0.2603  1.4310
  619MOL0     H81705   4.098   5.259   2.217  1.4911  0.9304  2.5016
  619MOL0     H81706   4.254   5.039   2.527  1.9660 -0.2812 -1.5965
  619MOL0     H81707   3.418   5.286   2.211  0.6078  0.4247 -0.2323
  619MOL0     H81708   3.194   5.344   2.338 -0.3181  0.0282  1.5330
  620MOL0     O81709   0.742   2.503   5.721 -0.1717  0.1826  0.2295
  620MOL0     C81710   0.763   2.406   5.642 -0.2133 -0.5038  0.4483
  620MOL0     O81711   0.809   2.414   5.519 -0.3010 -0.1127  0.6855
  620MOL0     C81712   0.801   2.539   5.456  0.6920 -0.1826 -0.6826
  620MOL0     C81713   0.679   2.589   5.401 -0.9829 -0.4648  0.3048
  620MOL0     C81714   0.679   2.715   5.330  0.0239  0.4205 -1.6902
  620MOL0     C81715   0.796   2.791   5.317  0.5715 -0.2865  0.0384
  620MOL0     O81716   0.777   2.911   5.253  0.1969 -0.3483  0.3064
  620MOL0     C81717   0.887   3.012   5.259 -0.2844  0.6742 -0.2693
  620MOL0     C81718   0.976   2.983   5.135 -0.8526 -0.2278 -0.5794
  620MOL0     C81719   1.119   3.047   5.127  0.0110  0.4134  0.6589
  620MOL0     C81720   1.202   2.986   5.246 -0.8693  0.3424  0.6534
  620MOL0     C81721   1.340   3.057   5.258 -0.0596 -0.0948 -0.1911
  620MOL0     C81722   1.456   3.037   5.153  0.3882 -0.8767  0.6202
  620MOL0     C81723   1.587   3.113   5.197 -0.6099 -0.8114 -0.1776
  620MOL0     C81724   1.709   3.068   5.109  0.5111 -0.1149  0.5139
  620MOL0     N81725   1.844   3.118   5.148  0.5550  0.1307  0.0509
  620MOL0     C81726   1.875   3.257   5.140 -0.8509  0.6709 -0.3962
  620MOL0     C81727   2.010   3.254   5.160 -0.6194 -0.2028 -0.4043
  620MOL0     C81728   2.094   3.373   5.183 -0.4285  0.2376  0.1647
  620MOL0     C81729   2.101   3.420   5.326  0.0584  0.2156 -0.0622
  620MOL0     C81730   1.979   3.514   5.358 -0.5510 -0.2819 -0.2909
  620MOL0     C81731   1.958   3.535   5.510  0.1491  0.3129 -0.3157
  620MOL0     O81732   1.868   3.444   5.566 -0.9922  0.3373 -0.0733
  620MOL0     C81733   1.742   3.429   5.522  0.3642  1.2101  0.1902
  620MOL0     C81734   1.659   3.530   5.472  0.6837 -0.1690 -0.4794
  620MOL0     C81735   1.521   3.511   5.447  0.1108 -0.8877  0.3806
  620MOL0     C81736   1.460   3.392   5.464  0.3507  0.6307 -0.1371
  620MOL0     C81737   1.311   3.392   5.459  0.3600  0.0547 -0.2844
  620MOL0     O81738   1.254   3.514   5.428 -0.7626  0.1375  0.2873
  620MOL0     C81739   1.119   3.526   5.395 -0.2331 -0.3310 -0.4135
  620MOL0     C81740   1.017   3.425   5.398 -0.2068 -0.2623 -0.0784
  620MOL0     C81741   0.886   3.447   5.349 -0.8210 -0.0582  0.5282
  620MOL0     C81742   0.854   3.572   5.298  0.2477  1.1355 -0.6315
  620MOL0     O81743   0.734   3.592   5.228 -0.2708 -0.2851 -0.1403
  620MOL0     C81744   0.612   3.606   5.301 -0.5255 -0.6691 -0.8074
  620MOL0     C81745   0.507   3.508   5.232 -0.8282  0.1442 -0.7452
  620MOL0     C81746   0.368   3.522   5.294  0.6915  0.2867 -0.2010
  620MOL0     C81747   0.250   3.447   5.219 -0.2092 -0.3716  0.2776
  620MOL0     C81748   0.133   3.409   5.321 -0.3641 -0.9338  0.7280
  620MOL0     C81749   0.004   3.358   5.244  0.7802  0.2912  0.2596
  620MOL0     C81750  -0.073   3.460   5.166 -0.2248  0.5571 -0.2784
  620MOL0     C81751  -0.197   3.394   5.105 -0.2892  1.1240 -0.1332
  620MOL0    Cl81752  -0.155   3.237   5.027  0.0962 -0.1806  0.0471
  620MOL0     C81753   0.950   3.674   5.315  0.3818 -0.4645 -0.2960
  620MOL0     C81754   1.077   3.650   5.365 -0.1906 -1.3919  0.3633
  620MOL0     O81755   1.246   3.292   5.495 -0.2837 -0.3704 -0.1585
  620MOL0     C81756   1.546   3.280   5.500  0.5010  0.1725 -0.1106
  620MOL0     C81757   1.681   3.300   5.528  0.5517 -0.8553  0.1837
  620MOL0     N81758   2.055   3.122   5.170 -0.0307  1.1944  0.9369
  620MOL0     N81759   1.951   3.040   5.160  0.2959  0.3682 -0.1510
  620MOL0     C81760   0.918   2.743   5.374 -0.1856  0.3318  0.1686
  620MOL0     C81761   0.920   2.612   5.431  0.6567 -0.1896 -0.0959
  620MOL0     C81762   0.746   2.274   5.698  0.3572 -0.0962  0.3969
  620MOL0     C81763   0.675   2.251   5.818  0.0533  0.6962 -0.0196
  620MOL0     C81764   0.653   2.123   5.864  1.0321 -0.9405 -0.2408
  620MOL0     C81765   0.702   2.011   5.805  0.7886 -0.1919 -0.7079
  620MOL0     O81766   0.677   1.889   5.863 -0.2334  0.1354 -0.6193
  620MOL0     C81767   0.768   1.793   5.825  0.3230 -0.4356 -0.0653
  620MOL0     C81768   0.745   1.663   5.911  0.2843 -0.6755 -0.2253
  620MOL0     C81769   0.628   1.582   5.859  0.8428  1.0252  0.3757
  620MOL0     C81770   0.600   1.455   5.941 -0.1996  0.0134  0.3127
  620MOL0     C81771   0.556   1.480   6.083 -0.6982  0.2614  0.3930
  620MOL0     C81772   0.513   1.522   6.190 -0.7218 -0.6112 -0.1714
  620MOL0     C81773   0.775   2.037   5.683 -0.0638  0.1706  0.4246
  620MOL0     C81774   0.786   2.171   5.624 -0.5661  1.4842 -0.0218
  620MOL0     H81775   0.580   2.547   5.416 -1.2503 -0.6441 -1.6603
  620MOL0     H81776   0.585   2.757   5.297 -1.6408 -1.6059  0.1634
  620MOL0     H81777   0.938   3.016   5.355 -1.9026 -3.4332  0.9652
  620MOL0     H81778   0.853   3.115   5.246  1.3102  1.0700 -1.6960
  620MOL0     H81779   0.916   2.999   5.045 -0.5820 -0.2156 -0.7600
  620MOL0     H81780   0.995   2.875   5.132 -1.0626 -0.3445  1.0901
  620MOL0     H81781   1.114   3.156   5.134  1.2472  0.5344 -0.1520
  620MOL0     H81782   1.156   3.018   5.029  1.6002 -1.3683  1.7168
  620MOL0     H81783   1.139   3.005   5.333 -0.7301  1.3005  0.5600
  620MOL0     H81784   1.221   2.879   5.235 -1.1157  0.1764  1.7973
  620MOL0     H81785   1.392   3.028   5.349  1.5967  0.1907 -1.0090
  620MOL0     H81786   1.323   3.165   5.258  0.4552  0.0415  2.3655
  620MOL0     H81787   1.417   3.073   5.057  1.4376 -1.3331  0.0052
  620MOL0     H81788   1.480   2.931   5.142  1.7437 -0.9664  3.5149
  620MOL0     H81789   1.581   3.222   5.207  1.9213 -0.7577  1.6352
  620MOL0     H81790   1.628   3.083   5.294  1.7874 -0.8198 -1.1218
  620MOL0     H81791   1.687   3.086   5.004  1.9615  0.9968  0.3772
  620MOL0     H81792   1.715   2.959   5.122 -0.3008  0.0828  3.0021
  620MOL0     H81793   1.802   3.338   5.147  1.2496  2.5626  0.8741
  620MOL0     H81794   2.057   3.456   5.123  0.2216  1.4916  1.4538
  620MOL0     H81795   2.196   3.356   5.147 -0.3562  1.4718 -0.2506
  620MOL0     H81796   2.192   3.479   5.336  0.8002 -0.7706 -0.8216
  620MOL0     H81797   2.096   3.338   5.398  0.9512  0.3168  0.1219
  620MOL0     H81798   2.000   3.613   5.315 -0.7078 -0.1942 -0.1635
  620MOL0     H81799   1.887   3.481   5.309 -2.0908  2.6024  0.4507
  620MOL0     H81800   1.927   3.639   5.523  1.1144  0.8099 -1.7224
  620MOL0     H81801   2.057   3.543   5.555 -0.6688  3.8290  1.1420
  620MOL0     H81802   1.696   3.632   5.474  1.7559 -0.4543 -2.6301
  620MOL0     H81803   1.466   3.592   5.401 -0.8895 -0.7472  1.7475
  620MOL0     H81804   1.025   3.323   5.432 -1.6496 -1.3260 -2.6695
  620MOL0     H81805   0.814   3.367   5.356 -1.1458  0.3483  2.4297
  620MOL0     H81806   0.569   3.707   5.307 -0.7124 -0.7678 -0.4865
  620MOL0     H81807   0.630   3.565   5.400 -1.5070 -1.5563 -0.9842
  620MOL0     H81808   0.554   3.409   5.230 -1.1239 -0.2668  3.6417
  620MOL0     H81809   0.501   3.546   5.129  4.3998 -0.0545 -1.4157
  620MOL0     H81810   0.338   3.626   5.287  0.1128  0.0118 -2.9682
  620MOL0     H81811   0.371   3.491   5.399  0.7603  1.3246  0.1060
  620MOL0     H81812   0.205   3.508   5.141  0.6757 -0.4318 -0.2918
  620MOL0     H81813   0.284   3.360   5.162 -3.5618 -0.2588 -2.1843
  620MOL0     H81814   0.109   3.505   5.367 -1.1419 -1.9187  2.4471
  620MOL0     H81815   0.165   3.337   5.396  2.5262 -1.8791 -1.2115
  620MOL0     H81816  -0.060   3.321   5.324 -0.0734  2.0062  0.4178
  620MOL0     H81817   0.038   3.276   5.180  3.4725  1.9646 -0.6265
  620MOL0     H81818  -0.105   3.533   5.241  0.6436  0.4567  0.1908
  620MOL0     H81819  -0.010   3.508   5.091  1.3884 -3.9811 -2.2120
  620MOL0     H81820  -0.258   3.455   5.038 -1.1541  0.8126  0.3564
  620MOL0     H81821  -0.261   3.366   5.189  0.4556  1.2879  0.4966
  620MOL0     H81822   0.918   3.767   5.270  1.9642 -1.0527 -2.8467
  620MOL0     H81823   1.151   3.729   5.355 -1.9110  0.2440 -0.0949
  620MOL0     H81824   1.505   3.181   5.512  1.2097  0.0065  1.0902
  620MOL0     H81825   1.740   3.218   5.567  2.1356  0.0109 -0.2813
  620MOL0     H81826   1.001   2.813   5.378 -0.4921  0.6403  1.5177
  620MOL0     H81827   1.016   2.570   5.460 -0.7673 -2.3114  1.8941
  620MOL0     H81828   0.643   2.320   5.896  0.7759 -0.3167  1.2194
  620MOL0     H81829   0.604   2.116   5.961  4.0954  1.2163  1.6391
  620MOL0     H81830   0.868   1.835   5.838  0.2512 -0.8120  2.0490
  620MOL0     H81831   0.736   1.770   5.723 -1.7066  2.7713 -0.3139
  620MOL0     H81832   0.831   1.598   5.893  0.4761 -0.7963  0.9978
  620MOL0     H81833   0.731   1.688   6.017  1.0847 -0.8704 -0.0621
  620MOL0     H81834   0.657   1.551   5.759  1.3129 -1.8216  1.2937
  620MOL0     H81835   0.541   1.648   5.848  2.1408  2.8872  0.7024
  620MOL0     H81836   0.525   1.390   5.895 -0.3094 -0.6882  1.4419
  620MOL0     H81837   0.694   1.398   5.944 -0.6059 -0.8718 -1.8568
  620MOL0     H81838   0.456   1.549   6.277  0.2947 -2.6654  1.2063
  620MOL0     H81839   0.825   1.960   5.626  1.6450  0.6587  1.1914
  620MOL0     H81840   0.836   2.176   5.528  2.1363  1.0754  1.2823
  621MOL0     O81841   7.684   0.548   9.276  1.0212  0.4388  0.0383
  621MOL0     C81842   7.729   0.506   9.384  0.0390 -0.5276 -0.1126
  621MOL0     O81843   7.657   0.476   9.494  0.5473  0.1500  0.0821
  621MOL0     C81844   7.520   0.445   9.480  0.0536  0.6977  0.3288
  621MOL0     C81845   7.438   0.460   9.591  0.1774 -0.0041  0.8210
  621MOL0     C81846   7.304   0.435   9.588  0.2020  0.3884 -1.0942
  621MOL0     C81847   7.236   0.382   9.473 -0.3288  0.8829  0.5261
  621MOL0     O81848   7.099   0.336   9.485  0.1080  0.1366 -1.1372
  621MOL0     C81849   7.043   0.262   9.366  0.4234  0.0615 -0.4305
  621MOL0     C81850   6.925   0.180   9.411  1.0084 -0.4301  0.6460
  621MOL0     C81851   6.808   0.273   9.450 -0.2900  1.3660  0.4197
  621MOL0     C81852   6.674   0.228   9.389 -0.4219 -0.2903 -0.4577
  621MOL0     C81853   6.563   0.287   9.465  0.5874  0.4780 -0.3071
  621MOL0     C81854   6.442   0.255   9.390  0.0966  0.0022 -0.1800
  621MOL0     C81855   6.306   0.313   9.455 -0.4844 -1.2566  0.2816
  621MOL0     C81856   6.304   0.464   9.501  0.5715  0.3935 -0.6818
  621MOL0     N81857   6.173   0.517   9.523  0.5495  0.1896 -0.2803
  621MOL0     C81858   6.084   0.466   9.616 -0.1215 -0.4772 -0.1383
  621MOL0     C81859   5.973   0.534   9.588  0.9569  1.0615  0.8107
  621MOL0     C81860   5.851   0.528   9.671  0.2792  1.1093 -0.2550
  621MOL0     C81861   5.757   0.411   9.624 -0.0950 -0.8940  0.5249
  621MOL0     C81862   5.631   0.404   9.713  0.8314 -0.7127  0.4974
  621MOL0     C81863   5.518   0.321   9.657  0.4207  0.2699  0.7306
  621MOL0     O81864   5.400   0.325   9.736 -0.5491  0.4415 -0.4076
  621MOL0     C81865   5.295   0.251   9.695 -0.1346 -0.1261 -0.0330
  621MOL0     C81866   5.224   0.202   9.801  0.3616  0.3052  0.7324
  621MOL0     C81867   5.121   0.094   9.771 -0.0350 -0.6743  0.1756
  621MOL0     C81868   5.086   0.067   9.641 -0.0452  0.1532  1.0507
  621MOL0     C81869   4.978  -0.021   9.617  1.0403 -0.7259  0.0312
  621MOL0     O81870   4.907  -0.064   9.720  0.1907  0.4709  0.5275
  621MOL0     C81871   4.808  -0.160   9.688 -0.4468 -0.0102  0.1136
  621MOL0     C81872   4.667  -0.128   9.688  0.3784  0.4839  0.7359
  621MOL0     C81873   4.566  -0.228   9.661  0.2154  0.1322  0.7048
  621MOL0     C81874   4.606  -0.359   9.647  0.1151 -0.3354 -0.3972
  621MOL0     O81875   4.506  -0.454   9.641  0.8415 -0.5570  0.3283
  621MOL0     C81876   4.534  -0.564   9.557  0.5943 -0.7432  0.4181
  621MOL0     C81877   4.565  -0.679   9.653 -0.3212  0.3471  0.3185
  621MOL0     C81878   4.654  -0.781   9.593 -0.7357  0.2460 -0.3258
  621MOL0     C81879   4.673  -0.899   9.694 -0.7150 -0.1091  0.4275
  621MOL0     C81880   4.751  -1.023   9.627  0.4082  0.0524  0.5805
  621MOL0     C81881   4.885  -0.984   9.567  0.1180 -1.1742 -0.3338
  621MOL0     C81882   4.985  -0.939   9.674 -0.6116  0.8427  0.1483
  621MOL0     C81883   5.126  -0.919   9.637  0.6320  0.1268 -0.2959
  621MOL0    Cl81884   5.231  -0.883   9.785 -0.1129 -0.3831 -0.2070
  621MOL0     C81885   4.738  -0.393   9.672 -0.6671 -0.1449  0.7895
  621MOL0     C81886   4.841  -0.293   9.679  0.1465  0.4932 -0.5121
  621MOL0     O81887   4.955  -0.046   9.503  0.1571 -0.4630 -0.2067
  621MOL0     C81888   5.163   0.130   9.539 -0.2944  0.3755 -0.8621
  621MOL0     C81889   5.271   0.215   9.566  0.0207  0.2759  0.6723
  621MOL0     N81890   5.998   0.623   9.483  0.8969  0.2209 -0.4851
  621MOL0     N81891   6.117   0.604   9.438  0.5559 -0.7217 -0.1822
  621MOL0     C81892   7.317   0.360   9.355 -0.0837 -0.9792  0.0000
  621MOL0     C81893   7.455   0.392   9.367  0.8436  0.2023  0.2352
  621MOL0     C81894   7.876   0.480   9.393 -0.5842  0.8071 -0.3439
  621MOL0     C81895   7.958   0.471   9.283 -0.0437 -0.1473 -0.9331
  621MOL0     C81896   8.087   0.447   9.293 -0.5887 -0.1512  0.0582
  621MOL0     C81897   8.159   0.451   9.411 -0.5653 -0.5491 -0.3526
  621MOL0     O81898   8.293   0.432   9.431 -0.3223 -0.8257  0.7107
  621MOL0     C81899   8.361   0.475   9.314 -0.0410  0.7635 -0.2606
  621MOL0     C81900   8.511   0.495   9.327 -0.5748  0.6109 -0.5497
  621MOL0     C81901   8.588   0.366   9.373  0.2659 -0.1002  0.0374
  621MOL0     C81902   8.740   0.375   9.359  0.4042 -0.8182  0.0552
  621MOL0     C81903   8.819   0.255   9.386 -0.2952 -0.4999 -0.3569
  621MOL0     C81904   8.894   0.169   9.406  0.7056  0.2578  0.3675
  621MOL0     C81905   8.077   0.461   9.528 -0.3434  0.0891  0.1841
  621MOL0     C81906   7.939   0.477   9.520  0.2924  0.4560  0.2985
  621MOL0     H81907   7.489   0.497   9.679  1.1125  0.0591  0.2716
  621MOL0     H81908   7.247   0.454   9.678  2.1238 -0.2232  0.3061
  621MOL0     H81909   7.118   0.194   9.325  1.0177 -0.4887  1.4574
  621MOL0     H81910   7.018   0.335   9.289 -1.5875 -0.1037  0.0154
  621MOL0     H81911   6.950   0.117   9.497  2.5200 -0.6081  0.0922
  621MOL0     H81912   6.910   0.118   9.322 -3.0087  0.4279  0.5208
  621MOL0     H81913   6.843   0.370   9.414  3.9127 -1.2802 -3.7291
  621MOL0     H81914   6.794   0.270   9.558 -1.6302 -0.0624  0.2480
  621MOL0     H81915   6.682   0.278   9.292  0.8712 -0.6013 -0.5254
  621MOL0     H81916   6.666   0.119   9.392  0.7934 -0.4720  4.9603
  621MOL0     H81917   6.574   0.396   9.470 -0.4480  0.5667  0.3747
  621MOL0     H81918   6.548   0.236   9.561 -3.1276  2.1637  0.1907
  621MOL0     H81919   6.436   0.147   9.375  1.0014 -0.2060  0.8289
  621MOL0     H81920   6.453   0.298   9.290 -0.2752  2.4454  0.7483
  621MOL0     H81921   6.227   0.308   9.380 -0.3814  0.1899  0.0490
  621MOL0     H81922   6.268   0.251   9.536  1.1858 -2.2722  0.3403
  621MOL0     H81923   6.345   0.526   9.421  0.3727  1.7275  0.2270
  621MOL0     H81924   6.367   0.491   9.586 -1.9265 -0.5104  1.5758
  621MOL0     H81925   6.097   0.400   9.701  3.4256  2.1828  1.6070
  621MOL0     H81926   5.798   0.623   9.658  0.4018  1.1138 -0.7547
  621MOL0     H81927   5.870   0.505   9.776  0.8218 -3.0782 -1.1054
  621MOL0     H81928   5.804   0.314   9.637  1.5105 -0.3074 -0.5734
  621MOL0     H81929   5.733   0.424   9.518  0.4666  0.8496  0.5802
  621MOL0     H81930   5.661   0.363   9.810 -0.1006 -2.6913 -0.0034
  621MOL0     H81931   5.589   0.505   9.710  0.9820 -0.6816 -1.3564
  621MOL0     H81932   5.549   0.220   9.628  1.7504  0.9538 -0.3188
  621MOL0     H81933   5.496   0.377   9.566  1.2255  0.5322  0.6943
  621MOL0     H81934   5.251   0.244   9.897 -0.9535  0.7679  0.9080
  621MOL0     H81935   5.080   0.031   9.849  1.1239 -2.7669 -0.8350
  621MOL0     H81936   4.645  -0.023   9.710  3.2254  1.3568 -0.1267
  621MOL0     H81937   4.463  -0.197   9.648  0.3250 -0.5632 -2.9268
  621MOL0     H81938   4.607  -0.556   9.476 -0.3238 -1.0995 -0.4649
  621MOL0     H81939   4.439  -0.589   9.509  0.3940 -0.5770  0.7256
  621MOL0     H81940   4.472  -0.733   9.675  1.0376 -2.1732  0.2539
  621MOL0     H81941   4.605  -0.650   9.750  3.9992  0.9054 -1.4018
  621MOL0     H81942   4.753  -0.737   9.577  0.7425 -3.2046 -1.5952
  621MOL0     H81943   4.625  -0.813   9.493  1.5091 -2.2067 -0.2910
  621MOL0     H81944   4.741  -0.875   9.776  0.0000 -2.4121  0.5913
  621MOL0     H81945   4.583  -0.939   9.742 -0.0851 -0.4620  1.3451
  621MOL0     H81946   4.690  -1.061   9.545  1.0709 -1.9149  0.9495
  621MOL0     H81947   4.778  -1.098   9.703  1.0073 -1.6736 -1.2476
  621MOL0     H81948   4.892  -0.906   9.490  2.1121 -2.5048 -1.5883
  621MOL0     H81949   4.918  -1.071   9.509  0.1833 -1.9764  0.8851
  621MOL0     H81950   4.938  -0.850   9.717 -4.4652 -1.6225  1.6298
  621MOL0     H81951   4.981  -0.996   9.767 -1.3431  1.8594  0.7602
  621MOL0     H81952   5.138  -0.852   9.552  0.6747 -0.8828 -1.1044
  621MOL0     H81953   5.155  -1.017   9.598  2.3596  0.6510 -0.4240
  621MOL0     H81954   4.761  -0.498   9.686  0.5925  0.4557  4.2675
  621MOL0     H81955   4.945  -0.323   9.689 -1.1525 -3.9252  3.3282
  621MOL0     H81956   5.130   0.118   9.436 -3.1029  4.3186 -0.6685
  621MOL0     H81957   5.312   0.260   9.476 -1.3181 -0.2167 -0.2179
  621MOL0     H81958   7.288   0.338   9.252  2.7438 -0.1719 -1.0674
  621MOL0     H81959   7.531   0.372   9.292  1.4712  2.2789  0.2647
  621MOL0     H81960   7.910   0.476   9.186 -2.8498  2.3308  0.4180
  621MOL0     H81961   8.137   0.433   9.197 -0.7171  1.6399 -0.3060
  621MOL0     H81962   8.331   0.570   9.268  0.8837  2.1890  1.9022
  621MOL0     H81963   8.352   0.395   9.240 -2.7148  0.5698  0.1864
  621MOL0     H81964   8.548   0.517   9.227  1.2471  1.2191  0.2247
  621MOL0     H81965   8.533   0.585   9.385  1.1245 -0.3590  0.3763
  621MOL0     H81966   8.557   0.280   9.313  0.5875  1.0755 -1.8772
  621MOL0     H81967   8.562   0.352   9.479  1.2735  2.9860  0.7803
  621MOL0     H81968   8.764   0.412   9.259  0.8250 -0.9483  0.1040
  621MOL0     H81969   8.776   0.449   9.430 -0.8825 -0.4891  0.3865
  621MOL0     H81970   8.963   0.087   9.422  2.9004  1.8594 -0.3427
  621MOL0     H81971   8.121   0.473   9.626  0.7167 -2.3358  0.0723
  621MOL0     H81972   7.881   0.493   9.610  0.8564 -0.8946  0.9343
  622MOL0     O81973   6.613  10.696   5.515  0.3340 -0.5193  0.0032
  622MOL0     C81974   6.639  10.666   5.395  0.0454  0.7119 -0.1248
  622MOL0     O81975   6.545  10.662   5.288 -0.0413 -0.6585 -0.2505
  622MOL0     C81976   6.414  10.684   5.323  0.4066  1.2218  0.6829
  622MOL0     C81977   6.332  10.585   5.380 -0.3283  0.4015 -0.1684
  622MOL0     C81978   6.204  10.611   5.420  0.5046 -0.2163 -0.5484
  622MOL0     C81979   6.141  10.734   5.402 -0.5618 -0.0670  0.1586
  622MOL0     O81980   6.010  10.769   5.435 -0.8019 -0.3007 -0.1618
  622MOL0     C81981   5.915  10.674   5.463  0.0207 -0.6423 -0.2928
  622MOL0     C81982   5.793  10.766   5.492 -0.4545  0.0695 -0.7270
  622MOL0     C81983   5.686  10.681   5.549 -0.7370  0.7344  0.0707
  622MOL0     C81984   5.570  10.780   5.573  0.2460 -0.7941 -0.3368
  622MOL0     C81985   5.450  10.700   5.629 -0.1139 -0.4336 -0.0520
  622MOL0     C81986   5.351  10.806   5.681 -0.1104  0.5622 -0.0761
  622MOL0     C81987   5.244  10.748   5.785  0.2017 -0.4649 -0.3953
  622MOL0     C81988   5.134  10.859   5.812  0.3805 -0.0807 -0.7091
  622MOL0     N81989   5.040  10.827   5.926 -0.2198 -0.0787  0.2284
  622MOL0     C81990   4.899  10.815   5.917 -0.6176 -0.3790 -0.5350
  622MOL0     C81991   4.854  10.825   6.044 -0.5599  0.2515 -0.9082
  622MOL0     C81992   4.714  10.820   6.092 -0.3072  0.2988  0.1146
  622MOL0     C81993   4.661  10.965   6.076 -0.5778  0.4760  0.9273
  622MOL0     C81994   4.658  11.029   5.932  0.1948  0.0183 -0.2561
  622MOL0     C81995   4.569  11.154   5.919  0.2812 -0.2790 -0.6141
  622MOL0     O81996   4.444  11.127   5.989 -0.2221 -0.1839  0.5562
  622MOL0     C81997   4.325  11.107   5.924 -0.1166  0.5240  0.3635
  622MOL0     C81998   4.251  10.999   5.948 -0.0570  0.1414 -0.3235
  622MOL0     C81999   4.134  10.971   5.887  0.2143  0.0789  0.2947
  622MOL0     C82000   4.068  11.063   5.800  0.4999  0.3745 -0.4571
  622MOL0     C82001   3.929  11.048   5.747 -0.0706  0.1532  0.4392
  622MOL0     O82002   3.877  11.164   5.689  0.0425  0.8608 -1.0772
  622MOL0     C82003   3.741  11.155   5.649 -0.2408 -0.3406  0.9385
  622MOL0     C82004   3.712  11.108   5.516  0.4283  1.0321 -0.2817
  622MOL0     C82005   3.577  11.123   5.470 -0.3733  0.6739 -0.1547
  622MOL0     C82006   3.479  11.168   5.559  0.6138  0.0893 -1.4507
  622MOL0     O82007   3.351  11.171   5.503 -0.0908 -0.5309 -1.0638
  622MOL0     C82008   3.241  11.151   5.590  1.0180  0.6219 -0.5491
  622MOL0     C82009   3.133  11.081   5.512 -0.0012  0.0339  0.2692
  622MOL0     C82010   3.003  11.090   5.590 -0.3176 -0.1222 -0.7512
  622MOL0     C82011   2.885  11.082   5.502 -0.3941  0.2227 -0.7159
  622MOL0     C82012   2.840  11.201   5.415 -0.4973 -0.0239  0.7645
  622MOL0     C82013   2.848  11.342   5.477 -0.0401  1.1614 -0.8504
  622MOL0     C82014   2.766  11.452   5.429  0.1445  0.5123 -0.7800
  622MOL0     C82015   2.622  11.441   5.477 -0.7613 -0.3247  0.8178
  622MOL0    Cl82016   2.511  11.567   5.414  0.4801  0.2834  0.0052
  622MOL0     C82017   3.513  11.222   5.690  0.6076 -0.2019  0.5464
  622MOL0     C82018   3.641  11.203   5.735 -0.1142 -0.5650  0.4792
  622MOL0     O82019   3.871  10.933   5.765 -0.3941 -0.1919  0.5778
  622MOL0     C82020   4.131  11.186   5.781 -0.6213  0.0287 -1.1485
  622MOL0     C82021   4.261  11.206   5.845  1.0837 -0.3620 -0.0454
  622MOL0     N82022   4.972  10.824   6.127 -0.1835 -0.3109 -0.1207
  622MOL0     N82023   5.077  10.847   6.057 -0.0459  0.1696 -0.0204
  622MOL0     C82024   6.228  10.832   5.345  0.7927  0.0536  0.4989
  622MOL0     C82025   6.359  10.813   5.308  0.7727  0.4107 -0.2433
  622MOL0     C82026   6.780  10.625   5.370 -0.1205  0.3238  0.2560
  622MOL0     C82027   6.812  10.576   5.245  0.3247 -0.4836 -0.0204
  622MOL0     C82028   6.951  10.541   5.223  0.2120 -0.2442 -0.1790
  622MOL0     C82029   7.050  10.558   5.318 -1.6807  0.4546 -0.3824
  622MOL0     O82030   7.176  10.508   5.270 -0.8541 -0.5712  0.3445
  622MOL0     C82031   7.281  10.477   5.366  0.3081  0.7617 -0.0333
  622MOL0     C82032   7.297  10.330   5.373  0.5192  0.2974 -0.0044
  622MOL0     C82033   7.430  10.274   5.435  0.4839  0.5842 -0.6279
  622MOL0     C82034   7.411  10.133   5.498  0.3771  0.3116  0.5025
  622MOL0     C82035   7.398  10.029   5.389 -0.8339 -0.2920 -0.8901
  622MOL0     C82036   7.368   9.946   5.307  0.8425  0.3349  0.2047
  622MOL0     C82037   7.015  10.599   5.451 -0.0955  0.2143  0.5725
  622MOL0     C82038   6.877  10.620   5.471  0.2908 -0.2799  0.6051
  622MOL0     H82039   6.382  10.491   5.405  1.8886  2.2396  3.1640
  622MOL0     H82040   6.147  10.527   5.457 -2.1982  1.6292 -0.2514
  622MOL0     H82041   5.945  10.621   5.554 -1.3657  1.1742  1.3049
  622MOL0     H82042   5.895  10.616   5.372 -0.4829 -0.7180 -0.1385
  622MOL0     H82043   5.758  10.817   5.401 -1.7730  0.2126 -0.1624
  622MOL0     H82044   5.820  10.837   5.571  0.7871 -1.8899  0.7027
  622MOL0     H82045   5.720  10.633   5.640 -0.4394  1.6437  0.4566
  622MOL0     H82046   5.663  10.598   5.481 -0.4927  1.2655 -0.6827
  622MOL0     H82047   5.594  10.846   5.657  0.6265 -0.3027 -0.8302
  622MOL0     H82048   5.534  10.840   5.489 -0.0336 -0.6973 -0.1520
  622MOL0     H82049   5.479  10.634   5.711 -1.2450 -0.7223  0.1329
  622MOL0     H82050   5.397  10.633   5.560 -1.0201 -3.6630  3.4712
  622MOL0     H82051   5.306  10.852   5.593 -1.2771  1.7651  1.1029
  622MOL0     H82052   5.408  10.872   5.747  0.0056  0.5605 -0.1763
  622MOL0     H82053   5.185  10.668   5.740  0.9442 -1.9518  1.1735
  622MOL0     H82054   5.296  10.709   5.873 -0.9229 -2.1423 -0.4241
  622MOL0     H82055   5.074  10.866   5.721  0.5967  1.8737 -0.7552
  622MOL0     H82056   5.186  10.954   5.831  0.1481 -0.2271  0.8232
  622MOL0     H82057   4.856  10.816   5.817 -1.5326  3.1538 -0.2413
  622MOL0     H82058   4.716  10.799   6.199  0.3414 -0.5076 -0.0381
  622MOL0     H82059   4.651  10.751   6.034 -0.0044  1.4751 -1.6829
  622MOL0     H82060   4.743  11.016   6.128  2.5449 -3.3711  0.2635
  622MOL0     H82061   4.569  10.977   6.134 -1.4390  0.1539 -0.3454
  622MOL0     H82062   4.753  11.067   5.894  0.1298 -0.8796 -1.3483
  622MOL0     H82063   4.629  10.951   5.862 -3.1174  1.2452 -0.4337
  622MOL0     H82064   4.549  11.177   5.814  0.2288  4.8808  0.2630
  622MOL0     H82065   4.611  11.240   5.970 -2.7945  1.4237 -0.6854
  622MOL0     H82066   4.286  10.927   6.021 -1.8402  0.7928  1.2502
  622MOL0     H82067   4.089  10.876   5.914 -0.6032  0.1085 -0.8839
  622MOL0     H82068   3.792  11.073   5.451  1.4597  0.8739  1.0345
  622MOL0     H82069   3.549  11.096   5.368  2.8165  0.1543 -1.0036
  622MOL0     H82070   3.207  11.248   5.626 -0.2127  0.0854 -0.2391
  622MOL0     H82071   3.278  11.090   5.673 -0.0300  1.4755  0.5739
  622MOL0     H82072   3.159  10.979   5.482 -4.1890 -0.5769 -2.2140
  622MOL0     H82073   3.119  11.136   5.418  1.8321  2.0629  1.0913
  622MOL0     H82074   2.989  11.179   5.651  0.4216  1.1243 -2.3229
  622MOL0     H82075   3.006  11.010   5.664  0.0394  0.9129  0.3775
  622MOL0     H82076   2.895  10.993   5.439  1.7572 -0.3442  0.3562
  622MOL0     H82077   2.799  11.062   5.567 -0.8042 -0.3920 -1.4175
  622MOL0     H82078   2.741  11.177   5.376  0.1912 -2.6891  0.4522
  622MOL0     H82079   2.901  11.201   5.324  1.0251 -0.8424  1.7548
  622MOL0     H82080   2.953  11.371   5.475  0.9720 -2.1353 -1.6922
  622MOL0     H82081   2.828  11.312   5.580  2.3596 -1.7331 -1.0823
  622MOL0     H82082   2.816  11.541   5.468  2.4233 -1.5384  1.3628
  622MOL0     H82083   2.781  11.445   5.321  1.2933 -1.7972 -0.5337
  622MOL0     H82084   2.618  11.449   5.586 -1.2934 -1.4539  0.8966
  622MOL0     H82085   2.583  11.343   5.448 -2.6971  1.0339 -1.4454
  622MOL0     H82086   3.428  11.246   5.753  1.7506 -2.2372  3.0375
  622MOL0     H82087   3.672  11.252   5.827 -2.0448 -0.0016  0.8701
  622MOL0     H82088   4.096  11.271   5.723  0.2590  1.6240  0.5681
  622MOL0     H82089   4.313  11.301   5.836  0.7400  0.3008  3.4397
  622MOL0     H82090   6.193  10.935   5.337 -0.0870 -0.2907 -0.3599
  622MOL0     H82091   6.419  10.893   5.268  0.4594  1.2049  0.8252
  622MOL0     H82092   6.737  10.557   5.168 -0.3555  1.1255  0.2072
  622MOL0     H82093   6.969  10.504   5.122 -1.3332  1.6595 -1.2206
  622MOL0     H82094   7.265  10.519   5.466 -0.0226  2.1460 -0.6516
  622MOL0     H82095   7.371  10.524   5.328 -0.3629  1.9806 -0.1650
  622MOL0     H82096   7.209  10.293   5.427  0.3881 -1.2128 -1.1706
  622MOL0     H82097   7.285  10.298   5.269 -3.4563  0.8417  0.1295
  622MOL0     H82098   7.465  10.340   5.515  1.4546  0.4399 -0.9206
  622MOL0     H82099   7.505  10.269   5.356  2.2323 -1.5345  1.0001
  622MOL0     H82100   7.489  10.095   5.566  0.0252  0.7885  1.1805
  622MOL0     H82101   7.309  10.132   5.537 -0.1447  0.6717 -0.8208
  622MOL0     H82102   7.326   9.872   5.242 -4.2768 -0.4469  3.7642
  622MOL0     H82103   7.092  10.610   5.526  2.5559 -1.1571 -1.7632
  622MOL0     H82104   6.845  10.635   5.574 -2.1427  1.5719 -0.3325
  623MOL0     O82105  10.057   2.385   0.158 -0.2491 -0.1059  0.0012
  623MOL0     C82106  10.072   2.473   0.243  0.3085  0.1284 -0.2641
  623MOL0     O82107   9.997   2.488   0.357 -0.0652  0.1744 -0.1119
  623MOL0     C82108   9.902   2.396   0.386  1.5932  0.4292  0.2121
  623MOL0     C82109   9.792   2.353   0.305  0.3693 -0.2823 -0.6778
  623MOL0     C82110   9.703   2.254   0.359 -0.3829  0.6870 -0.0223
  623MOL0     C82111   9.723   2.205   0.493 -0.3175  0.4148 -0.0805
  623MOL0     O82112   9.645   2.099   0.529 -0.3744  0.3207  0.0199
  623MOL0     C82113   9.650   2.057   0.665 -0.8261  1.0436  0.5521
  623MOL0     C82114   9.569   2.156   0.757  0.0581 -0.1798 -0.1667
  623MOL0     C82115   9.444   2.091   0.823  0.2136 -0.3001 -0.4846
  623MOL0     C82116   9.333   2.048   0.719  1.3132 -0.5463 -0.9988
  623MOL0     C82117   9.196   2.023   0.779  0.3208 -0.0678  0.3700
  623MOL0     C82118   9.080   2.068   0.694 -0.1556  0.8948  0.2436
  623MOL0     C82119   8.952   2.008   0.750 -0.0955 -0.7411  0.5988
  623MOL0     C82120   8.900   2.069   0.883 -0.3361  0.2614  0.4330
  623MOL0     N82121   8.866   1.970   0.991 -0.0176  0.4536  0.6505
  623MOL0     C82122   8.778   1.859   0.969 -0.4859 -0.5893  0.2584
  623MOL0     C82123   8.753   1.802   1.087  0.0474  0.0850 -0.2655
  623MOL0     C82124   8.681   1.681   1.125 -0.3667  0.1335  0.8687
  623MOL0     C82125   8.570   1.719   1.224  0.4595 -0.0058  0.4701
  623MOL0     C82126   8.492   1.589   1.278 -0.3020 -0.1342 -0.3556
  623MOL0     C82127   8.402   1.620   1.396  0.4202  0.2773  0.2418
  623MOL0     O82128   8.365   1.496   1.469  0.3856 -0.3723  0.2486
  623MOL0     C82129   8.241   1.513   1.518 -0.4505 -0.1520 -0.0829
  623MOL0     C82130   8.223   1.575   1.643 -0.5249 -0.0348 -0.8738
  623MOL0     C82131   8.093   1.606   1.692  0.5808  0.2308  0.9815
  623MOL0     C82132   7.979   1.580   1.607 -0.4581  0.6274  0.6258
  623MOL0     C82133   7.844   1.621   1.630 -0.2254 -0.9525 -0.7104
  623MOL0     O82134   7.744   1.559   1.568 -0.5106 -0.2669 -0.3226
  623MOL0     C82135   7.609   1.593   1.589 -0.0248  0.4616  0.1314
  623MOL0     C82136   7.534   1.472   1.636 -0.9073 -0.9351  0.0886
  623MOL0     C82137   7.401   1.496   1.678 -0.8598 -0.0249  0.4240
  623MOL0     C82138   7.342   1.623   1.670  0.4389  0.4472 -0.0857
  623MOL0     O82139   7.215   1.650   1.700 -0.0282  0.6721 -0.8543
  623MOL0     C82140   7.106   1.562   1.660 -0.0845 -0.4192  0.7462
  623MOL0     C82141   7.105   1.529   1.511  0.4944  0.6312 -0.0965
  623MOL0     C82142   7.099   1.647   1.408 -0.1985  0.4071 -0.5856
  623MOL0     C82143   6.976   1.739   1.425 -0.4764  0.2747  0.1440
  623MOL0     C82144   7.011   1.880   1.473  0.4746 -0.7134  0.4325
  623MOL0     C82145   6.902   1.984   1.506  0.7795  1.1617 -0.4978
  623MOL0     C82146   6.851   1.968   1.648  0.1358  0.1928 -0.5242
  623MOL0     C82147   6.726   2.048   1.661 -0.2384 -0.5033  0.1693
  623MOL0    Cl82148   6.690   2.056   1.840  0.5013  0.1733 -0.2236
  623MOL0     C82149   7.412   1.726   1.624 -0.4180  0.5680  0.2638
  623MOL0     C82150   7.547   1.714   1.590  0.3883 -1.1294 -0.0253
  623MOL0     O82151   7.835   1.709   1.716 -0.1856 -0.4985  0.2367
  623MOL0     C82152   7.998   1.510   1.481 -0.1480 -0.1604  0.7059
  623MOL0     C82153   8.127   1.479   1.434 -1.0616  0.0882 -1.5472
  623MOL0     N82154   8.830   1.872   1.184  0.4813 -0.4836 -1.1382
  623MOL0     N82155   8.881   1.979   1.124 -1.0037  0.0354 -0.2211
  623MOL0     C82156   9.812   2.268   0.579  0.4477 -0.0539 -0.3209
  623MOL0     C82157   9.901   2.359   0.520 -0.5181  0.7545 -0.5604
  623MOL0     C82158  10.189   2.556   0.236  0.6863  0.3107 -0.1487
  623MOL0     C82159  10.275   2.550   0.126 -0.4698 -0.1650  1.0738
  623MOL0     C82160  10.391   2.630   0.110  0.4116  0.4068  0.0410
  623MOL0     C82161  10.410   2.738   0.197  1.1031 -0.3160 -0.4941
  623MOL0     O82162  10.525   2.819   0.189  0.1135 -0.1434 -0.2351
  623MOL0     C82163  10.555   2.871   0.061  1.0430  0.3302  0.4046
  623MOL0     C82164  10.679   2.811   0.008 -0.5728 -0.2626  0.1163
  623MOL0     C82165  10.769   2.914  -0.077  0.8019  0.5063 -0.0248
  623MOL0     C82166  10.901   2.838  -0.114  0.7372  1.2277 -0.1557
  623MOL0     C82167  10.992   2.816   0.004 -0.5215 -0.0773  0.5721
  623MOL0     C82168  11.061   2.807   0.098  0.3559  0.0151 -0.3790
  623MOL0     C82169  10.318   2.751   0.309  0.1088  0.3150  0.1304
  623MOL0     C82170  10.211   2.655   0.330 -0.0693 -0.1880  0.9322
  623MOL0     H82171   9.762   2.397   0.210  1.6873 -2.1300 -2.0120
  623MOL0     H82172   9.613   2.221   0.307 -1.1016  2.0083  0.3236
  623MOL0     H82173   9.756   2.051   0.689 -0.4531  2.4290 -0.5635
  623MOL0     H82174   9.609   1.956   0.657 -2.2444  1.6754 -0.8687
  623MOL0     H82175   9.531   2.245   0.706  0.3859  0.3764  0.5492
  623MOL0     H82176   9.627   2.192   0.843 -2.2453 -1.1268  1.8977
  623MOL0     H82177   9.406   2.163   0.897  1.3109  0.7010 -0.8757
  623MOL0     H82178   9.471   2.006   0.887 -0.0540  0.3424  0.5131
  623MOL0     H82179   9.324   2.135   0.653 -1.3541 -0.0821 -0.1313
  623MOL0     H82180   9.360   1.959   0.662  0.8648 -1.4128  0.1052
  623MOL0     H82181   9.208   2.085   0.869  2.2681  1.0105 -0.5705
  623MOL0     H82182   9.175   1.916   0.789 -1.6345  0.4264  2.3155
  623MOL0     H82183   9.099   2.041   0.590  1.1536  2.3864  0.0568
  623MOL0     H82184   9.077   2.177   0.698  1.8215  0.9998  0.0081
  623MOL0     H82185   8.875   2.021   0.673  0.4695  0.7136  0.2515
  623MOL0     H82186   8.957   1.899   0.761  1.1749 -0.7992 -0.3519
  623MOL0     H82187   8.817   2.138   0.867 -1.8136 -1.5297  0.0308
  623MOL0     H82188   8.976   2.133   0.929 -1.6165  3.1966 -1.2691
  623MOL0     H82189   8.742   1.822   0.873  0.9879  1.6437 -1.2384
  623MOL0     H82190   8.750   1.601   1.153 -1.2711 -0.6707  0.8380
  623MOL0     H82191   8.626   1.647   1.037 -1.1144 -3.6137  2.5766
  623MOL0     H82192   8.499   1.771   1.160  1.5421 -1.7410 -2.3140
  623MOL0     H82193   8.615   1.778   1.304 -0.5735  0.1491  0.9554
  623MOL0     H82194   8.427   1.550   1.200 -0.9373  0.5906 -0.2041
  623MOL0     H82195   8.568   1.515   1.307 -0.8044 -0.2833  0.6452
  623MOL0     H82196   8.322   1.685   1.360  1.4178  1.8347  0.6984
  623MOL0     H82197   8.469   1.678   1.461  0.2788  0.1962  0.4634
  623MOL0     H82198   8.310   1.613   1.695 -1.2434  0.8305 -0.2788
  623MOL0     H82199   8.084   1.659   1.786  2.9661  1.4502  0.5850
  623MOL0     H82200   7.588   1.380   1.656  0.5434  0.0305  0.7940
  623MOL0     H82201   7.333   1.422   1.720  0.1061 -0.3189  1.5113
  623MOL0     H82202   7.017   1.624   1.671  1.2538  2.2855 -2.0453
  623MOL0     H82203   7.093   1.472   1.720 -0.1226 -1.5821 -0.9371
  623MOL0     H82204   7.029   1.451   1.504 -0.1213  1.1398  0.8109
  623MOL0     H82205   7.203   1.489   1.483  0.3391  1.6462 -2.3190
  623MOL0     H82206   7.104   1.617   1.304 -1.7765  0.1062 -0.6064
  623MOL0     H82207   7.194   1.700   1.420  2.7668 -3.6498 -3.6778
  623MOL0     H82208   6.925   1.742   1.328 -0.1837  1.5079  0.0062
  623MOL0     H82209   6.915   1.704   1.508 -2.0643  2.6185  0.0792
  623MOL0     H82210   7.070   1.932   1.398 -1.5960  3.5813  1.3944
  623MOL0     H82211   7.074   1.875   1.563 -1.2621  0.0401  1.7669
  623MOL0     H82212   6.820   1.965   1.437 -1.7743  2.9315  1.8470
  623MOL0     H82213   6.928   2.089   1.492  0.5528  1.3959  0.7292
  623MOL0     H82214   6.828   1.865   1.679  0.8959  0.3933  0.7896
  623MOL0     H82215   6.919   2.013   1.721  1.0998  0.5049 -1.5798
  623MOL0     H82216   6.649   1.993   1.606  0.7204 -2.1189  0.3799
  623MOL0     H82217   6.729   2.153   1.628  0.1740 -0.6548 -0.2743
  623MOL0     H82218   7.369   1.825   1.611  1.2972  1.4860  1.2652
  623MOL0     H82219   7.593   1.802   1.546 -2.1764 -0.7873 -2.2627
  623MOL0     H82220   7.916   1.498   1.411  1.0784 -1.6718 -0.5490
  623MOL0     H82221   8.160   1.434   1.341  1.1002 -2.1873  0.1762
  623MOL0     H82222   9.821   2.247   0.685 -2.7172  3.4407  0.8580
  623MOL0     H82223   9.974   2.408   0.584  0.9031 -1.8925 -0.0230
  623MOL0     H82224  10.248   2.484   0.044  1.4546 -0.8221  0.9164
  623MOL0     H82225  10.458   2.610   0.027 -1.2672  2.9782 -2.1085
  623MOL0     H82226  10.561   2.980   0.076  2.5756  0.7566 -2.5051
  623MOL0     H82227  10.474   2.850  -0.009  0.9975  1.0879  0.2150
  623MOL0     H82228  10.731   2.767   0.093  0.1573  0.6599  0.1646
  623MOL0     H82229  10.661   2.730  -0.063  1.9004  1.0048 -2.1760
  623MOL0     H82230  10.790   3.009  -0.027 -0.9314  1.1023 -0.3859
  623MOL0     H82231  10.717   2.948  -0.166 -2.0655  0.7934  1.6439
  623MOL0     H82232  10.869   2.746  -0.165  0.5207  1.6317 -0.7527
  623MOL0     H82233  10.962   2.893  -0.187  1.0470  1.6656  0.4259
  623MOL0     H82234  11.122   2.804   0.186 -0.6832  0.9763  0.4085
  623MOL0     H82235  10.337   2.836   0.375  0.6028 -0.4556  1.0123
  623MOL0     H82236  10.137   2.680   0.406 -2.5400  0.9565 -1.6184
  624MOL0     O82237   9.782   2.660   0.128  0.1830 -0.2958  0.1825
  624MOL0     C82238   9.771   2.737   0.225  0.5114  0.2541 -0.4712
  624MOL0     O82239   9.685   2.738   0.328 -0.2306 -0.0552  0.0283
  624MOL0     C82240   9.586   2.641   0.340  0.1770  0.4788  0.9175
  624MOL0     C82241   9.571   2.576   0.468  0.1016 -1.4741  0.4288
  624MOL0     C82242   9.478   2.481   0.496  1.0081 -0.2848  0.3314
  624MOL0     C82243   9.385   2.456   0.391 -0.6977  0.5065 -0.0724
  624MOL0     O82244   9.296   2.353   0.428  0.0730  0.0750 -0.1121
  624MOL0     C82245   9.199   2.303   0.331  0.2383 -0.4172  0.7658
  624MOL0     C82246   9.198   2.155   0.325 -0.9287  0.2244  0.4436
  624MOL0     C82247   9.329   2.090   0.279  0.2823 -0.2798  0.0093
  624MOL0     C82248   9.395   2.168   0.160 -0.5514  0.2833 -0.5484
  624MOL0     C82249   9.314   2.154   0.031 -0.0347  1.0223  0.0539
  624MOL0     C82250   9.374   2.244  -0.087  1.0568  0.3517  1.2823
  624MOL0     C82251   9.286   2.371  -0.114  0.2687 -0.2384 -1.1935
  624MOL0     C82252   9.168   2.351  -0.208  0.7637 -0.3219 -1.0735
  624MOL0     N82253   9.064   2.286  -0.133  0.6365  0.1781 -0.0941
  624MOL0     C82254   9.017   2.157  -0.142  0.2186 -0.7488  0.1381
  624MOL0     C82255   8.898   2.156  -0.084  0.3654  0.0409 -0.5510
  624MOL0     C82256   8.807   2.039  -0.063 -0.0377 -0.7311 -0.3567
  624MOL0     C82257   8.701   2.058   0.052 -1.1554 -0.2713 -0.0594
  624MOL0     C82258   8.652   1.924   0.105 -0.6942 -0.3142  0.7715
  624MOL0     C82259   8.533   1.879   0.015 -1.0300  0.2975  0.6715
  624MOL0     O82260   8.494   1.744   0.049  0.7841 -0.0941 -0.1397
  624MOL0     C82261   8.366   1.696   0.021  0.4014  0.1894 -0.1850
  624MOL0     C82262   8.255   1.772  -0.009 -1.0028  0.2542 -0.8104
  624MOL0     C82263   8.130   1.714  -0.042 -0.3468 -0.2988  0.0984
  624MOL0     C82264   8.110   1.577  -0.043 -0.1374  0.7130 -0.4010
  624MOL0     C82265   7.989   1.507  -0.089 -0.5665  0.6445 -0.3738
  624MOL0     O82266   7.991   1.371  -0.088 -0.3283 -0.7609  0.0308
  624MOL0     C82267   7.883   1.295  -0.129 -0.7362 -0.3022  1.2686
  624MOL0     C82268   7.891   1.175  -0.067  0.0699  0.1786 -0.6272
  624MOL0     C82269   7.791   1.084  -0.093 -0.3126 -0.0808  0.4197
  624MOL0     C82270   7.688   1.105  -0.185  0.3873 -0.6556  0.0624
  624MOL0     O82271   7.582   1.014  -0.182  0.2251 -1.1243  0.7563
  624MOL0     C82272   7.544   0.957  -0.312  0.2911  0.4656 -0.5121
  624MOL0     C82273   7.462   0.827  -0.271 -0.5282 -0.4112  0.0298
  624MOL0     C82274   7.551   0.716  -0.226  1.2693  0.5982  0.1184
  624MOL0     C82275   7.462   0.591  -0.192  0.1775 -0.7060 -0.9588
  624MOL0     C82276   7.552   0.479  -0.144 -0.0704 -0.3642 -0.0186
  624MOL0     C82277   7.472   0.349  -0.109 -0.5313 -0.6414  0.4589
  624MOL0     C82278   7.366   0.360   0.000  0.5426  0.1296 -0.3048
  624MOL0     C82279   7.283   0.231   0.016 -0.5921  0.5834  0.2096
  624MOL0    Cl82280   7.159   0.235  -0.098 -0.3566 -1.1117  0.1571
  624MOL0     C82281   7.686   1.227  -0.244 -0.2670  0.4472 -0.2650
  624MOL0     C82282   7.785   1.319  -0.223 -0.3646 -0.4800  0.1979
  624MOL0     O82283   7.895   1.575  -0.118 -0.2092  0.5456 -0.4674
  624MOL0     C82284   8.222   1.502  -0.010  0.1432  0.1804  1.1118
  624MOL0     C82285   8.346   1.560   0.002 -0.3446  0.5299 -0.0526
  624MOL0     N82286   8.872   2.281  -0.038  0.1727 -0.7520  0.0671
  624MOL0     N82287   8.977   2.356  -0.055  0.5282  0.2324  0.5768
  624MOL0     C82288   9.393   2.521   0.273 -0.2663  0.2274  0.7189
  624MOL0     C82289   9.496   2.611   0.240 -0.0559 -0.5603  0.3976
  624MOL0     C82290   9.858   2.860   0.221 -0.0215 -0.6206 -0.4611
  624MOL0     C82291   9.945   2.876   0.110 -0.1318 -0.3547 -0.3951
  624MOL0     C82292  10.043   2.973   0.113 -0.0812  0.8315  0.5346
  624MOL0     C82293  10.058   3.063   0.228 -0.0961  0.0008 -0.2955
  624MOL0     O82294  10.162   3.146   0.233 -0.0986  0.2970 -0.3367
  624MOL0     C82295  10.234   3.151   0.359  0.8237  0.3517 -0.2869
  624MOL0     C82296  10.378   3.139   0.329  0.2170  0.0805 -0.7965
  624MOL0     C82297  10.418   3.262   0.246  0.1880  0.3246  1.1719
  624MOL0     C82298  10.577   3.286   0.230 -0.2560 -0.5032 -0.4941
  624MOL0     C82299  10.645   3.309   0.357 -0.2165 -0.4167  1.1820
  624MOL0     C82300  10.682   3.328   0.467 -0.3255 -0.1937 -0.2749
  624MOL0     C82301   9.957   3.064   0.317 -0.2759 -0.4485  0.1921
  624MOL0     C82302   9.860   2.964   0.317  0.2421  0.6959  0.7001
  624MOL0     H82303   9.638   2.606   0.548  0.6793  1.5984 -1.0539
  624MOL0     H82304   9.485   2.430   0.591  0.5193 -1.6461 -0.3427
  624MOL0     H82305   9.206   2.347   0.232 -0.0076  1.7883  1.6752
  624MOL0     H82306   9.098   2.327   0.367  0.0775 -1.3619  0.9772
  624MOL0     H82307   9.108   2.131   0.267 -1.7847 -1.1154  2.2340
  624MOL0     H82308   9.181   2.113   0.425  0.0903  2.4343  1.6271
  624MOL0     H82309   9.304   1.987   0.252  0.4866  0.8143 -5.3967
  624MOL0     H82310   9.405   2.092   0.358  0.1928 -1.2931  0.1332
  624MOL0     H82311   9.418   2.272   0.185  1.8852 -0.2665 -0.3159
  624MOL0     H82312   9.494   2.126   0.143 -0.5035 -0.2932  0.9906
  624MOL0     H82313   9.210   2.180   0.053 -0.6805 -1.6312  0.4772
  624MOL0     H82314   9.319   2.049   0.004  0.4084  1.0113  0.1738
  624MOL0     H82315   9.384   2.184  -0.178 -0.1193  0.5158  1.0250
  624MOL0     H82316   9.473   2.284  -0.065  0.2897  2.9490  0.4157
  624MOL0     H82317   9.262   2.411  -0.015 -0.2946 -2.3831 -0.3965
  624MOL0     H82318   9.358   2.443  -0.154  1.6142 -1.6691 -1.4503
  624MOL0     H82319   9.200   2.296  -0.297  0.4491  0.0863 -1.4442
  624MOL0     H82320   9.141   2.446  -0.256  0.2242  0.6549  1.0718
  624MOL0     H82321   9.077   2.079  -0.188  1.3709 -2.5796  4.2989
  624MOL0     H82322   8.876   1.958  -0.039  2.0352  0.9221 -0.4583
  624MOL0     H82323   8.748   2.007  -0.150 -3.2210 -1.5912  1.9472
  624MOL0     H82324   8.618   2.123   0.024  1.0431  4.5090  3.2315
  624MOL0     H82325   8.745   2.116   0.134 -0.9509 -1.2788  0.5544
  624MOL0     H82326   8.735   1.853   0.104  0.0450  0.5301 -0.4707
  624MOL0     H82327   8.609   1.936   0.205  1.0844 -1.2722  1.6839
  624MOL0     H82328   8.565   1.877  -0.089 -3.0133  0.4091  0.0278
  624MOL0     H82329   8.452   1.952   0.023 -0.5602  0.6633  2.6958
  624MOL0     H82330   8.254   1.881  -0.006  3.6755  0.5158  1.2472
  624MOL0     H82331   8.045   1.777  -0.065 -0.0954  0.5253  1.2843
  624MOL0     H82332   7.965   1.149   0.008 -0.5117  1.6458  0.5178
  624MOL0     H82333   7.790   0.991  -0.036  1.3605 -0.0401  0.5924
  624MOL0     H82334   7.638   0.929  -0.360  0.4555  1.9761 -1.1211
  624MOL0     H82335   7.498   1.025  -0.384  1.0372 -1.2611 -2.7256
  624MOL0     H82336   7.398   0.799  -0.355  2.0680 -3.1840 -1.1786
  624MOL0     H82337   7.387   0.850  -0.194 -3.1239 -3.4566 -1.3964
  624MOL0     H82338   7.607   0.746  -0.137  3.6811 -0.5192 -0.9309
  624MOL0     H82339   7.609   0.678  -0.310 -1.7831 -3.5431 -0.4232
  624MOL0     H82340   7.388   0.611  -0.114  1.4118  0.6708 -0.0691
  624MOL0     H82341   7.400   0.554  -0.274 -0.7026 -0.1799 -0.5426
  624MOL0     H82342   7.624   0.508  -0.067  1.0668 -1.8652 -0.4661
  624MOL0     H82343   7.618   0.436  -0.219  1.1980 -2.0745  1.9712
  624MOL0     H82344   7.545   0.281  -0.064  1.8745  1.1727 -0.4800
  624MOL0     H82345   7.445   0.299  -0.202 -2.7293  2.5655 -0.7753
  624MOL0     H82346   7.428   0.383   0.087  1.0596 -2.8517  0.2398
  624MOL0     H82347   7.302   0.449  -0.000  1.8248  1.0652 -0.5583
  624MOL0     H82348   7.244   0.217   0.117 -1.3612  1.0455 -0.0166
  624MOL0     H82349   7.354   0.150  -0.006  1.2651  2.4436 -1.0672
  624MOL0     H82350   7.605   1.250  -0.312 -1.5575 -0.2932  0.9601
  624MOL0     H82351   7.790   1.419  -0.266  5.2838 -1.6207 -2.7469
  624MOL0     H82352   8.217   1.395  -0.024  1.1908  0.1901  0.5694
  624MOL0     H82353   8.433   1.499   0.023 -1.3127 -1.0294 -0.4367
  624MOL0     H82354   9.334   2.498   0.184  1.3224 -0.9838 -0.0709
  624MOL0     H82355   9.503   2.668   0.149  0.0469  2.0936  1.9596
  624MOL0     H82356   9.958   2.811   0.025  2.6202 -0.4037 -0.0405
  624MOL0     H82357  10.119   2.983   0.037 -0.1179  0.0700  0.3899
  624MOL0     H82358  10.208   3.064   0.421  0.5750  0.5762 -0.0761
  624MOL0     H82359  10.210   3.243   0.414 -1.4715  0.6861 -1.7108
  624MOL0     H82360  10.434   3.133   0.423  0.4842 -1.2029 -1.0060
  624MOL0     H82361  10.404   3.050   0.270 -2.7004 -0.2809 -1.7286
  624MOL0     H82362  10.373   3.352   0.287 -1.6227  0.0564 -0.1228
  624MOL0     H82363  10.374   3.256   0.146 -0.9265 -0.4689  1.7008
  624MOL0     H82364  10.621   3.198   0.183 -0.9957 -0.1496 -1.9070
  624MOL0     H82365  10.596   3.364   0.156 -0.1647  0.6480  0.7166
  624MOL0     H82366  10.711   3.347   0.568 -3.2898  1.6198  0.3711
  624MOL0     H82367   9.975   3.135   0.398  0.8867  0.1004 -0.5282
  624MOL0     H82368   9.789   2.937   0.395 -1.7505  1.1943 -0.8560
  625MOL0     O82369   6.087   3.949   8.423  0.1976 -0.0987  0.5063
  625MOL0     C82370   6.126   3.984   8.314 -0.7179  0.4865 -0.0577
  625MOL0     O82371   6.059   4.053   8.218 -0.4211  0.3991 -0.4180
  625MOL0     C82372   5.923   4.062   8.235  0.8758  0.0435  0.6197
  625MOL0     C82373   5.835   3.956   8.263 -0.0583  0.4412  0.4726
  625MOL0     C82374   5.698   3.977   8.248  0.2084  0.6062  0.5728
  625MOL0     C82375   5.652   4.100   8.225  0.0272 -0.8877 -0.3283
  625MOL0     O82376   5.513   4.122   8.219 -0.0662  0.3892 -0.1233
  625MOL0     C82377   5.473   4.231   8.310  0.5815  0.9149  0.0881
  625MOL0     C82378   5.328   4.202   8.340 -0.6606  0.5878  0.6703
  625MOL0     C82379   5.257   4.329   8.387  0.5569 -0.0420 -0.1723
  625MOL0     C82380   5.303   4.383   8.520 -0.4381 -0.5950 -0.3885
  625MOL0     C82381   5.285   4.282   8.631 -0.5801  0.3227  0.1936
  625MOL0     C82382   5.401   4.287   8.726 -0.8318 -0.2312  0.0865
  625MOL0     C82383   5.370   4.212   8.845  0.8408  0.6750 -1.0740
  625MOL0     C82384   5.484   4.151   8.903  0.2313  0.5327  0.4829
  625MOL0     N82385   5.463   4.019   8.979 -0.4656 -0.0287  0.6051
  625MOL0     C82386   5.448   3.904   8.919  0.0562 -0.0224 -1.2643
  625MOL0     C82387   5.433   3.810   9.013 -0.6171 -0.2782 -0.0595
  625MOL0     C82388   5.414   3.657   8.989  0.4193  0.1618 -0.1872
  625MOL0     C82389   5.546   3.585   8.973  0.0144 -0.3395  0.8132
  625MOL0     C82390   5.528   3.438   8.921  0.1075 -0.7575 -0.8519
  625MOL0     C82391   5.653   3.358   8.912 -0.1414  0.2871 -0.4167
  625MOL0     O82392   5.739   3.426   8.823  0.5620  0.4224  0.2921
  625MOL0     C82393   5.869   3.385   8.818  0.3729  0.5672 -0.0492
  625MOL0     C82394   5.924   3.258   8.846  0.3722 -1.0724  0.3024
  625MOL0     C82395   6.053   3.231   8.829  0.5448  0.1885 -1.2254
  625MOL0     C82396   6.144   3.328   8.788 -0.3878 -0.6360 -0.0888
  625MOL0     C82397   6.287   3.304   8.794 -0.2727  0.0709 -0.1806
  625MOL0     O82398   6.340   3.181   8.827  0.5628  0.5322  0.0679
  625MOL0     C82399   6.480   3.185   8.838 -0.2448  0.3586  0.6147
  625MOL0     C82400   6.544   3.059   8.811  0.2321 -0.1909 -0.2099
  625MOL0     C82401   6.688   3.042   8.813 -0.1202 -0.0985 -0.2178
  625MOL0     C82402   6.760   3.148   8.860  0.3322 -0.1233 -0.4263
  625MOL0     O82403   6.890   3.140   8.878  0.6806 -0.3343  0.4498
  625MOL0     C82404   6.933   3.058   8.982 -0.1278 -0.5353 -0.0825
  625MOL0     C82405   7.085   3.034   8.962  0.2823 -0.5455 -0.0821
  625MOL0     C82406   7.119   2.938   8.850 -0.3241 -0.1025  0.5221
  625MOL0     C82407   7.269   2.909   8.839 -0.4642  0.4304 -0.2925
  625MOL0     C82408   7.346   3.031   8.779 -0.1128 -0.4231 -0.8648
  625MOL0     C82409   7.488   3.010   8.734  0.5915 -0.1989 -0.5891
  625MOL0     C82410   7.591   2.995   8.853 -0.2317  0.7697 -0.1633
  625MOL0     C82411   7.739   3.033   8.809 -0.3147  0.6473  0.1110
  625MOL0    Cl82412   7.776   2.990   8.644 -0.4419  0.1942  0.3947
  625MOL0     C82413   6.700   3.271   8.887  0.3682  0.5554 -0.1505
  625MOL0     C82414   6.563   3.287   8.889 -0.4809  0.0631 -0.4582
  625MOL0     O82415   6.353   3.397   8.749  0.3623 -0.4219  0.0210
  625MOL0     C82416   6.091   3.455   8.760 -0.2760  0.1050 -0.1749
  625MOL0     C82417   5.954   3.479   8.769  0.1255 -0.7495  0.0862
  625MOL0     N82418   5.439   3.877   9.137  0.3693 -0.7326  0.0701
  625MOL0     N82419   5.459   4.004   9.113  0.1962  0.6480 -0.0000
  625MOL0     C82420   5.737   4.205   8.204  0.3131 -0.0985  0.3007
  625MOL0     C82421   5.874   4.180   8.194  0.8867 -0.3662 -0.3532
  625MOL0     C82422   6.265   3.935   8.279  1.1818  0.9895 -0.5571
  625MOL0     C82423   6.325   3.971   8.158 -0.9996 -0.3766  0.6154
  625MOL0     C82424   6.454   3.927   8.140 -0.0895  0.7545  0.3050
  625MOL0     C82425   6.520   3.841   8.237  0.8334  0.7339  0.6135
  625MOL0     O82426   6.647   3.797   8.200 -0.7367  0.5620 -0.1227
  625MOL0     C82427   6.709   3.717   8.292 -0.5483 -0.1758  0.1981
  625MOL0     C82428   6.864   3.742   8.272  0.0199  0.7602 -0.3661
  625MOL0     C82429   6.949   3.658   8.375  0.1028 -0.3072 -0.2179
  625MOL0     C82430   7.099   3.688   8.352 -0.1706 -0.3128 -0.5835
  625MOL0     C82431   7.191   3.636   8.453 -0.0412  0.1809  0.8143
  625MOL0     C82432   7.258   3.565   8.525  0.5059  0.3903  0.6019
  625MOL0     C82433   6.456   3.812   8.361  0.1413 -0.5588 -0.3112
  625MOL0     C82434   6.323   3.848   8.375  0.0468  0.2824 -0.8028
  625MOL0     H82435   5.863   3.853   8.280 -0.7688  0.2250  0.3704
  625MOL0     H82436   5.634   3.895   8.281 -0.3580  0.1604 -1.5349
  625MOL0     H82437   5.490   4.327   8.260  2.8520  0.6884  0.3095
  625MOL0     H82438   5.544   4.227   8.392  0.5075  0.2103  0.1275
  625MOL0     H82439   5.308   4.126   8.416 -3.3803  1.6519  1.1180
  625MOL0     H82440   5.276   4.159   8.253  0.2154 -2.5881  1.5794
  625MOL0     H82441   5.150   4.306   8.378  0.4223  0.9271 -1.3131
  625MOL0     H82442   5.276   4.416   8.324 -1.1995  0.6993  0.2657
  625MOL0     H82443   5.409   4.407   8.508 -0.7040  1.8007  1.1578
  625MOL0     H82444   5.263   4.482   8.545  2.1999  0.8672 -1.5060
  625MOL0     H82445   5.263   4.179   8.602 -1.9924  1.1542 -1.9712
  625MOL0     H82446   5.192   4.312   8.680 -0.8700  0.0645 -0.1915
  625MOL0     H82447   5.440   4.388   8.743  2.2716 -1.2088 -0.5882
  625MOL0     H82448   5.482   4.236   8.674  0.3302  1.3122  0.3094
  625MOL0     H82449   5.321   4.277   8.918  3.3833  1.6665 -0.1107
  625MOL0     H82450   5.302   4.129   8.825  1.1146  0.3896 -0.8250
  625MOL0     H82451   5.509   4.227   8.977  0.1923 -1.0795  2.2573
  625MOL0     H82452   5.560   4.137   8.825  0.5269 -0.7604  0.9710
  625MOL0     H82453   5.435   3.880   8.814 -0.0756 -1.8034 -0.8746
  625MOL0     H82454   5.347   3.660   8.903  1.1818  3.4486 -0.8418
  625MOL0     H82455   5.361   3.606   9.070  0.6321 -1.1900 -0.8810
  625MOL0     H82456   5.609   3.588   9.063  1.4681 -2.9120  0.0002
  625MOL0     H82457   5.586   3.644   8.890 -3.9031 -0.0606 -1.1017
  625MOL0     H82458   5.454   3.380   8.977 -2.3186  1.3291 -1.7581
  625MOL0     H82459   5.485   3.444   8.821  1.4730  0.7425 -1.3971
  625MOL0     H82460   5.615   3.265   8.870  0.2474  1.3156 -3.2347
  625MOL0     H82461   5.695   3.329   9.009 -0.4158 -0.4026 -0.4987
  625MOL0     H82462   5.858   3.178   8.879 -1.1294  0.1409  0.3697
  625MOL0     H82463   6.088   3.139   8.873 -3.4279 -1.1794 -0.5243
  625MOL0     H82464   6.465   2.991   8.781 -1.8486  0.6125  2.8950
  625MOL0     H82465   6.748   2.964   8.767 -0.2175 -0.9809  1.0786
  625MOL0     H82466   6.870   2.969   8.971  0.0561 -0.5950 -0.6701
  625MOL0     H82467   6.923   3.111   9.077 -1.0068 -0.1007 -0.4017
  625MOL0     H82468   7.118   2.983   9.054 -1.0338 -1.5539 -0.1298
  625MOL0     H82469   7.140   3.128   8.957 -5.4672  3.3057 -0.2947
  625MOL0     H82470   7.070   2.965   8.756 -0.0765 -2.1969 -0.2770
  625MOL0     H82471   7.074   2.841   8.875 -0.3860 -0.1770  0.1200
  625MOL0     H82472   7.300   2.871   8.937 -3.3260 -0.5548  0.3129
  625MOL0     H82473   7.282   2.822   8.774  0.6882 -0.2579  0.8054
  625MOL0     H82474   7.355   3.104   8.860  0.7429  0.2862 -1.5821
  625MOL0     H82475   7.290   3.071   8.694 -1.4089  2.4665  1.1777
  625MOL0     H82476   7.522   3.098   8.678  1.4827 -1.1387 -1.5911
  625MOL0     H82477   7.496   2.925   8.666  1.6419 -1.5501  1.1471
  625MOL0     H82478   7.558   3.052   8.941 -1.0371  1.8500 -1.1368
  625MOL0     H82479   7.595   2.889   8.882  0.2796  0.5518 -1.0051
  625MOL0     H82480   7.820   2.989   8.867  0.0579 -1.0966 -1.6377
  625MOL0     H82481   7.752   3.140   8.825  0.5345  0.5092  0.3577
  625MOL0     H82482   6.767   3.350   8.919  0.6444 -0.2345  1.3261
  625MOL0     H82483   6.518   3.384   8.909 -0.5008 -0.0535  0.0719
  625MOL0     H82484   6.151   3.540   8.730 -1.1724  1.7723  2.4400
  625MOL0     H82485   5.910   3.576   8.747  1.3581  0.1049  1.1979
  625MOL0     H82486   5.689   4.299   8.180  0.7817 -0.1374 -0.8755
  625MOL0     H82487   5.938   4.266   8.175 -3.4978  3.5578  0.6558
  625MOL0     H82488   6.277   4.027   8.079 -0.6737  0.5665  1.0735
  625MOL0     H82489   6.512   3.940   8.049 -1.0867 -1.9187 -0.8170
  625MOL0     H82490   6.700   3.610   8.271  2.4822 -0.1967 -1.5584
  625MOL0     H82491   6.681   3.733   8.397 -1.8178  1.8072 -0.4005
  625MOL0     H82492   6.885   3.713   8.168  2.0407 -2.3341  0.7650
  625MOL0     H82493   6.883   3.849   8.280 -2.1415  1.4320 -2.6566
  625MOL0     H82494   6.916   3.554   8.368 -0.4475 -0.0292 -3.4015
  625MOL0     H82495   6.926   3.693   8.476  3.7261  0.0874  0.6372
  625MOL0     H82496   7.125   3.647   8.254 -1.4043  0.1148 -1.1133
  625MOL0     H82497   7.106   3.797   8.344  0.8882 -0.3998 -0.9805
  625MOL0     H82498   7.282   3.503   8.609 -0.1562 -0.6374  0.0539
  625MOL0     H82499   6.505   3.748   8.433  3.0062  0.5207 -1.1645
  625MOL0     H82500   6.285   3.822   8.474 -2.1220  1.9227 -1.1173
  626MOL0     O82501   5.578   5.426   9.846  0.0606  0.1187  0.3478
  626MOL0     C82502   5.609   5.455   9.960  0.4040  0.3421  0.2348
  626MOL0     O82503   5.517   5.509  10.048 -0.3033 -0.7356 -0.4829
  626MOL0     C82504   5.392   5.548   9.997  0.2341  0.8049 -0.2021
  626MOL0     C82505   5.371   5.626   9.889  0.7399 -0.2555  0.3228
  626MOL0     C82506   5.243   5.683   9.861 -0.8527 -0.1488 -0.4930
  626MOL0     C82507   5.132   5.641   9.931  0.8151  0.0869 -1.5895
  626MOL0     O82508   5.001   5.682   9.905 -1.0485 -0.7954  0.3291
  626MOL0     C82509   4.897   5.581   9.908 -0.7611  0.4604  0.6042
  626MOL0     C82510   4.801   5.616  10.012 -0.5893 -0.0822 -0.1866
  626MOL0     C82511   4.662   5.561  10.003 -0.2808  0.9234 -0.2191
  626MOL0     C82512   4.540   5.656   9.999  0.1578 -0.3443 -0.3294
  626MOL0     C82513   4.407   5.591   9.995 -0.3836 -0.1655 -0.0260
  626MOL0     C82514   4.389   5.504   9.861  0.3994  0.2895 -0.2459
  626MOL0     C82515   4.245   5.453   9.859  1.1078  0.1450 -0.0199
  626MOL0     C82516   4.200   5.375   9.721 -0.0561 -0.1608 -0.2852
  626MOL0     N82517   4.057   5.383   9.689  0.0422  0.7380 -0.2300
  626MOL0     C82518   3.953   5.360   9.777 -0.2167  0.9318 -0.4105
  626MOL0     C82519   3.848   5.390   9.700  0.3414 -0.6265 -0.6486
  626MOL0     C82520   3.705   5.396   9.732  0.1614 -0.3068  0.6697
  626MOL0     C82521   3.652   5.257   9.765  0.3199 -0.1168  0.2015
  626MOL0     C82522   3.506   5.246   9.732 -0.3424  0.8390  0.4227
  626MOL0     C82523   3.437   5.114   9.774  0.5193  0.2810  0.0383
  626MOL0     O82524   3.440   5.102   9.920 -0.2406  0.3320 -0.2950
  626MOL0     C82525   3.370   5.187  10.002  0.1596  0.6798  0.2835
  626MOL0     C82526   3.257   5.249   9.950 -0.4671 -0.7770 -0.1461
  626MOL0     C82527   3.169   5.319  10.030 -1.3230  0.4472  0.0398
  626MOL0     C82528   3.190   5.319  10.169 -0.2196  0.0057  0.0382
  626MOL0     C82529   3.108   5.389  10.265  0.2236  0.2364  0.4207
  626MOL0     O82530   2.982   5.421  10.225 -0.0020  0.4660 -0.6980
  626MOL0     C82531   2.900   5.464  10.321  0.1464 -0.3401 -0.4068
  626MOL0     C82532   2.893   5.607  10.352 -0.0680  0.2254 -0.5967
  626MOL0     C82533   2.826   5.648  10.465 -0.5514 -0.1632 -0.1613
  626MOL0     C82534   2.763   5.552  10.553 -0.2443  0.4345  0.4625
  626MOL0     O82535   2.686   5.582  10.663  1.5842  0.5107 -0.1840
  626MOL0     C82536   2.596   5.698  10.640  0.2242  0.6257  0.1258
  626MOL0     C82537   2.482   5.708  10.758  0.4489  0.3908  0.2924
  626MOL0     C82538   2.397   5.580  10.770  0.1880 -0.2058 -0.5107
  626MOL0     C82539   2.293   5.593  10.886 -0.1316  0.4884  0.5617
  626MOL0     C82540   2.189   5.482  10.896  0.0745  0.2312  1.1733
  626MOL0     C82541   2.073   5.506  10.793 -0.9778 -0.2456 -0.1166
  626MOL0     C82542   1.979   5.615  10.838 -0.2560  0.4137  0.2642
  626MOL0     C82543   1.891   5.574  10.963  0.1747  0.7092  0.1502
  626MOL0    Cl82544   1.785   5.720  10.988  0.2257  0.0380  0.0558
  626MOL0     C82545   2.770   5.419  10.507 -0.1915 -0.4273  0.0175
  626MOL0     C82546   2.831   5.373  10.389 -0.1285  0.9252  0.4713
  626MOL0     O82547   3.147   5.411  10.379 -0.6070 -0.6519  0.3614
  626MOL0     C82548   3.310   5.261  10.218 -0.6804 -0.0852  0.1435
  626MOL0     C82549   3.403   5.199  10.133  0.4131  0.0429 -0.6006
  626MOL0     N82550   3.887   5.446   9.584  0.1506 -0.2449 -0.5455
  626MOL0     N82551   4.013   5.435   9.573  0.2437 -0.3198 -0.1371
  626MOL0     C82552   5.157   5.561  10.051  0.7511 -0.9063  0.7050
  626MOL0     C82553   5.287   5.521  10.083  1.2142 -0.0793 -0.3700
  626MOL0     C82554   5.750   5.416  10.002  0.6930 -0.1233 -0.0019
  626MOL0     C82555   5.847   5.368   9.910  0.2738 -0.3323  0.6528
  626MOL0     C82556   5.962   5.319   9.954 -1.0095 -0.0052 -0.6023
  626MOL0     C82557   6.003   5.327  10.087  0.3113 -0.3967 -0.1735
  626MOL0     O82558   6.123   5.291  10.142  0.2181 -0.9069  0.2146
  626MOL0     C82559   6.217   5.220  10.062  0.1761 -0.0516  0.4675
  626MOL0     C82560   6.345   5.200  10.152  0.9722 -0.3916 -0.4103
  626MOL0     C82561   6.466   5.144  10.070 -0.1238 -0.0458 -1.1933
  626MOL0     C82562   6.435   5.005  10.012  0.0419  0.0769 -0.5780
  626MOL0     C82563   6.536   4.980   9.914 -0.3518 -0.3305  1.0012
  626MOL0     C82564   6.627   4.969   9.830 -0.1501  0.1289  0.2590
  626MOL0     C82565   5.911   5.388  10.181 -0.7271  0.8047  0.0124
  626MOL0     C82566   5.779   5.431  10.135 -0.0532  1.1218  0.9287
  626MOL0     H82567   5.450   5.648   9.819  0.2556  1.9703  0.4033
  626MOL0     H82568   5.236   5.739   9.768  0.7334  0.0057 -0.5471
  626MOL0     H82569   4.939   5.487   9.943  0.4151  1.4437  1.9442
  626MOL0     H82570   4.850   5.575   9.809  0.0651 -2.1480  0.3042
  626MOL0     H82571   4.790   5.725  10.017 -1.0718 -0.1524  3.8726
  626MOL0     H82572   4.846   5.586  10.107 -0.3672 -1.2439 -0.6442
  626MOL0     H82573   4.641   5.500  10.091  0.7374 -2.3972 -2.1166
  626MOL0     H82574   4.646   5.503   9.911 -0.9989  2.1363 -0.8848
  626MOL0     H82575   4.549   5.716  10.090 -1.2489 -1.4769  0.5920
  626MOL0     H82576   4.555   5.722   9.912 -2.8624  0.5635 -0.2752
  626MOL0     H82577   4.326   5.663  10.005  0.4145  0.9844 -1.5456
  626MOL0     H82578   4.405   5.530  10.086  1.0268  1.6017  1.2686
  626MOL0     H82579   4.449   5.413   9.868  0.5201  0.2362 -1.6897
  626MOL0     H82580   4.407   5.574   9.779 -2.3822  0.9783 -0.3784
  626MOL0     H82581   4.236   5.383   9.942  0.2491  2.6221  2.1217
  626MOL0     H82582   4.176   5.536   9.874  0.3194 -0.3101 -1.0369
  626MOL0     H82583   4.232   5.272   9.741  2.4281  0.3902 -1.0840
  626MOL0     H82584   4.255   5.411   9.634 -1.2968  2.2336 -0.1341
  626MOL0     H82585   3.954   5.318   9.877 -1.3013  1.6579 -0.0751
  626MOL0     H82586   3.648   5.439   9.649 -1.3531  0.7299  2.1966
  626MOL0     H82587   3.679   5.458   9.818 -0.3934  1.7300 -0.8905
  626MOL0     H82588   3.670   5.227   9.869  0.3056  0.1711  0.2883
  626MOL0     H82589   3.695   5.189   9.692 -1.5765  1.0994 -2.2063
  626MOL0     H82590   3.451   5.333   9.768 -0.7091  2.0778 -2.7679
  626MOL0     H82591   3.502   5.256   9.623 -1.5603  0.1193  0.3901
  626MOL0     H82592   3.491   5.027   9.736 -1.7931 -0.3974 -1.9445
  626MOL0     H82593   3.334   5.113   9.737  0.9826  0.1763 -1.2918
  626MOL0     H82594   3.220   5.259   9.849  2.7254 -1.0307 -1.4368
  626MOL0     H82595   3.083   5.367   9.983 -0.4954  0.5130 -1.4396
  626MOL0     H82596   2.962   5.661  10.287  1.0869 -0.7905 -0.2602
  626MOL0     H82597   2.834   5.754  10.485  2.3761 -0.5339  1.1353
  626MOL0     H82598   2.548   5.687  10.542 -0.0565 -1.9064  0.5012
  626MOL0     H82599   2.646   5.796  10.640 -1.8667  1.7596 -0.1056
  626MOL0     H82600   2.411   5.791  10.744 -0.8541 -0.2463  2.5656
  626MOL0     H82601   2.544   5.733  10.844  1.6460  2.0374 -0.9817
  626MOL0     H82602   2.456   5.489  10.785 -0.3675 -0.6447 -0.9325
  626MOL0     H82603   2.345   5.565  10.675 -0.5065  0.4424 -0.2480
  626MOL0     H82604   2.347   5.588  10.981 -0.9286  3.6393  1.2916
  626MOL0     H82605   2.241   5.689  10.889 -0.0921  0.6928 -2.3281
  626MOL0     H82606   2.145   5.472  10.995 -3.4185  1.7714 -0.0812
  626MOL0     H82607   2.237   5.384  10.887  0.6874  0.1848  3.9300
  626MOL0     H82608   2.028   5.406  10.797  0.4135 -0.8553  2.7926
  626MOL0     H82609   2.114   5.523  10.693  0.4361 -1.0657  0.2903
  626MOL0     H82610   2.033   5.708  10.857 -1.1240  1.4355 -1.8721
  626MOL0     H82611   1.904   5.641  10.762 -3.0208  1.2229  3.0780
  626MOL0     H82612   1.955   5.547  11.048 -0.7546  1.3502  1.0745
  626MOL0     H82613   1.820   5.491  10.954  0.8906 -0.3861  3.3354
  626MOL0     H82614   2.716   5.343  10.562  1.6299 -2.6981 -1.1766
  626MOL0     H82615   2.837   5.266  10.372 -1.5213  0.7335  0.9992
  626MOL0     H82616   3.337   5.273  10.322 -0.0252  0.0158 -0.0355
  626MOL0     H82617   3.490   5.154  10.179  0.2951 -0.2755 -0.6926
  626MOL0     H82618   5.077   5.537  10.120  1.6498 -0.6228  1.8747
  626MOL0     H82619   5.291   5.478  10.183 -2.0247  1.9951  0.8245
  626MOL0     H82620   5.819   5.365   9.805 -1.6170 -2.1677  1.1399
  626MOL0     H82621   6.022   5.252   9.894  0.5446 -1.2436  2.1092
  626MOL0     H82622   6.252   5.282   9.979  2.5027 -2.1659 -0.2467
  626MOL0     H82623   6.171   5.130  10.022 -0.0835 -0.4976  1.7404
  626MOL0     H82624   6.378   5.301  10.178  3.8161 -0.7455 -2.1588
  626MOL0     H82625   6.337   5.141  10.244  3.5485 -1.4137 -0.7495
  626MOL0     H82626   6.548   5.136  10.142 -2.0075 -2.0128  0.9111
  626MOL0     H82627   6.483   5.216   9.989  1.8866  0.7236 -0.1531
  626MOL0     H82628   6.429   4.929  10.089 -1.1476 -0.4047 -1.1227
  626MOL0     H82629   6.340   4.990   9.959  0.1753 -1.3897 -0.4340
  626MOL0     H82630   6.702   4.982   9.755 -1.2102  0.4478 -0.7743
  626MOL0     H82631   5.943   5.386  10.285  1.7458 -1.2875 -0.6825
  626MOL0     H82632   5.692   5.445  10.198 -0.3411 -1.5570  1.2436
  627MOL0     O82633   8.335   9.615   1.853 -0.6673  0.0301  0.5463
  627MOL0     C82634   8.396   9.617   1.959 -0.1744  0.3152 -0.4895
  627MOL0     O82635   8.335   9.631   2.087 -0.2437  0.0192 -0.3205
  627MOL0     C82636   8.202   9.643   2.080 -0.0409  0.1373 -1.2418
  627MOL0     C82637   8.152   9.763   2.126  0.5355  0.3880 -0.7865
  627MOL0     C82638   8.013   9.788   2.130  0.4831  0.0622 -0.4535
  627MOL0     C82639   7.918   9.686   2.111  0.3298 -0.1156 -0.3106
  627MOL0     O82640   7.786   9.682   2.151 -0.2233 -0.5366 -0.0901
  627MOL0     C82641   7.708   9.798   2.142 -0.3208  0.2568  0.2701
  627MOL0     C82642   7.560   9.753   2.132 -0.2068  0.0258 -0.7088
  627MOL0     C82643   7.460   9.794   2.240 -1.0050 -0.1372 -0.8187
  627MOL0     C82644   7.324   9.818   2.170  0.3833 -0.4061 -0.5223
  627MOL0     C82645   7.204   9.849   2.264 -0.6520  0.2613 -1.0092
  627MOL0     C82646   7.204   9.992   2.300 -0.2927 -0.9709  0.2365
  627MOL0     C82647   7.083  10.042   2.371 -0.0241 -0.0249 -0.2258
  627MOL0     C82648   7.082  10.199   2.400 -0.6575  0.7846 -1.4449
  627MOL0     N82649   7.158  10.209   2.529 -0.3648  0.1319  1.0577
  627MOL0     C82650   7.295  10.222   2.536 -0.0346  0.1117 -0.5869
  627MOL0     C82651   7.319  10.207   2.666  0.4416 -0.3090 -0.2807
  627MOL0     C82652   7.457  10.184   2.722 -0.0228 -0.0094 -0.5996
  627MOL0     C82653   7.560  10.205   2.617 -1.0365 -0.5947 -0.1354
  627MOL0     C82654   7.701  10.161   2.658  0.0647  0.1764 -0.0814
  627MOL0     C82655   7.809  10.149   2.550  0.7229  0.1921  0.2261
  627MOL0     O82656   7.862  10.281   2.535 -0.1661 -0.5542  0.2458
  627MOL0     C82657   7.976  10.305   2.474  0.3569 -1.0620  1.4522
  627MOL0     C82658   8.013  10.439   2.501 -0.0590  0.6056  0.1809
  627MOL0     C82659   8.138  10.489   2.458 -0.1979  0.0696 -0.0788
  627MOL0     C82660   8.226  10.404   2.374  0.4749 -0.1729 -0.4915
  627MOL0     C82661   8.357  10.455   2.340  0.1536 -0.1467  0.5200
  627MOL0     O82662   8.418  10.415   2.221  0.1508  0.2379 -0.4829
  627MOL0     C82663   8.543  10.455   2.193 -0.4810  0.4824  0.7411
  627MOL0     C82664   8.587  10.589   2.178 -0.4311  0.1661  0.0558
  627MOL0     C82665   8.718  10.614   2.145 -0.3145 -0.0225  0.9789
  627MOL0     C82666   8.806  10.513   2.134  0.8311  0.3984  0.1870
  627MOL0     O82667   8.939  10.523   2.101  0.5757  0.0901  0.9952
  627MOL0     C82668   9.018  10.632   2.146  0.0328 -0.2307  0.7938
  627MOL0     C82669   9.162  10.592   2.156  0.1293  0.2382 -1.1660
  627MOL0     C82670   9.200  10.512   2.286 -0.0098 -0.8762 -0.5969
  627MOL0     C82671   9.115  10.403   2.346  0.2776  0.8270 -0.0236
  627MOL0     C82672   9.187  10.329   2.460  0.1637  0.2614  0.4096
  627MOL0     C82673   9.312  10.244   2.415 -0.5693 -0.0137 -0.2741
  627MOL0     C82674   9.266  10.116   2.350  0.6110 -0.3697 -0.5588
  627MOL0     C82675   9.341  10.089   2.221  0.3105  0.1088  0.2538
  627MOL0    Cl82676   9.526  10.075   2.252 -0.4007 -0.0019  0.1843
  627MOL0     C82677   8.768  10.375   2.153 -0.2378 -0.0932  0.5480
  627MOL0     C82678   8.632  10.346   2.184 -0.2789  0.3144 -0.3229
  627MOL0     O82679   8.410  10.523   2.421 -0.7241  0.1880 -0.2676
  627MOL0     C82680   8.174  10.279   2.333 -0.4478 -0.1597  0.3514
  627MOL0     C82681   8.051  10.235   2.390 -0.1528 -0.6191  0.7927
  627MOL0     N82682   7.203  10.192   2.741 -0.3058 -0.7534 -0.1705
  627MOL0     N82683   7.101  10.192   2.653 -0.2521 -0.3998  0.2592
  627MOL0     C82684   7.972   9.563   2.070 -0.9540  0.7081  0.3736
  627MOL0     C82685   8.111   9.541   2.049 -0.1393 -0.1156 -0.4844
  627MOL0     C82686   8.548   9.621   1.947  0.1161 -1.1332 -0.1644
  627MOL0     C82687   8.616   9.596   1.819 -0.2966  0.2671  0.1329
  627MOL0     C82688   8.752   9.595   1.806  0.7323  0.1898  0.5174
  627MOL0     C82689   8.834   9.627   1.916  0.1039 -0.4480  0.4124
  627MOL0     O82690   8.974   9.618   1.917  0.0711 -0.0184  0.7595
  627MOL0     C82691   9.040   9.556   1.802 -0.6574 -0.2995 -1.2374
  627MOL0     C82692   9.194   9.542   1.838 -0.0463  0.4871  0.6069
  627MOL0     C82693   9.256   9.682   1.844  0.2297 -0.0326 -0.2625
  627MOL0     C82694   9.413   9.683   1.844  0.4485  0.2397 -0.1649
  627MOL0     C82695   9.460   9.815   1.837 -0.1610 -0.3577  0.1763
  627MOL0     C82696   9.514   9.927   1.831  0.4273 -0.0759  0.1721
  627MOL0     C82697   8.767   9.647   2.037 -0.9069  0.8970  0.0133
  627MOL0     C82698   8.630   9.654   2.053  0.6331 -0.6893 -0.8424
  627MOL0     H82699   8.217   9.842   2.161 -0.4769 -0.1848  2.8208
  627MOL0     H82700   7.986   9.889   2.162  1.5444 -0.1090  1.0744
  627MOL0     H82701   7.733   9.864   2.058 -1.8904  3.7073  2.2532
  627MOL0     H82702   7.724   9.874   2.220 -0.1332  1.6529 -1.0803
  627MOL0     H82703   7.557   9.644   2.125  1.7752 -0.2520  1.5444
  627MOL0     H82704   7.521   9.791   2.037 -0.2780  1.1399 -0.2473
  627MOL0     H82705   7.501   9.886   2.282 -2.6181 -0.7412  2.3805
  627MOL0     H82706   7.448   9.714   2.313 -2.0482 -1.0236 -1.9070
  627MOL0     H82707   7.339   9.908   2.109 -1.4903  0.7424  0.6162
  627MOL0     H82708   7.291   9.736   2.104 -1.7438 -0.1431  0.1355
  627MOL0     H82709   7.212   9.774   2.344  0.6062 -1.3720 -2.5784
  627MOL0     H82710   7.106   9.824   2.222 -1.6844  1.4044  0.6092
  627MOL0     H82711   7.229  10.053   2.213  1.0566 -2.4102 -0.4330
  627MOL0     H82712   7.288  10.001   2.370 -1.5089 -0.2058  1.6439
  627MOL0     H82713   6.997  10.033   2.304 -0.2708  0.3663  0.0337
  627MOL0     H82714   7.064   9.980   2.460  0.7467  1.5053  1.0672
  627MOL0     H82715   6.984  10.249   2.408 -1.2035 -0.1293 -2.2518
  627MOL0     H82716   7.135  10.256   2.323 -0.1747  0.6550 -1.2072
  627MOL0     H82717   7.358  10.245   2.450  1.9197 -0.2494  0.6754
  627MOL0     H82718   7.459  10.080   2.758 -0.0359  0.3661  0.5462
  627MOL0     H82719   7.467  10.257   2.803 -0.8771 -0.3464 -0.1706
  627MOL0     H82720   7.571  10.311   2.592  1.1141 -1.0435 -1.3686
  627MOL0     H82721   7.543  10.148   2.526  3.5791 -0.4432 -1.3516
  627MOL0     H82722   7.729  10.232   2.736 -2.0576 -0.9364  1.8038
  627MOL0     H82723   7.692  10.061   2.701 -1.0021 -0.2675 -1.2462
  627MOL0     H82724   7.763  10.119   2.455 -1.8835  1.9943  0.8037
  627MOL0     H82725   7.890  10.080   2.575  0.8110  0.6736  1.3153
  627MOL0     H82726   7.948  10.499   2.562  0.0481  0.3126  0.5878
  627MOL0     H82727   8.160  10.587   2.499 -3.8510  0.7054  0.6305
  627MOL0     H82728   8.504  10.659   2.173 -2.2630 -1.9204 -1.9176
  627MOL0     H82729   8.758  10.714   2.134 -2.0676  0.5507 -0.8487
  627MOL0     H82730   8.990  10.651   2.251  0.3213 -4.0891  1.7116
  627MOL0     H82731   9.014  10.717   2.077 -0.5411  0.1398  1.2712
  627MOL0     H82732   9.225  10.679   2.134  1.9048 -0.7496 -0.2363
  627MOL0     H82733   9.172  10.518   2.076  1.6203  0.0598 -0.8556
  627MOL0     H82734   9.219  10.590   2.360 -1.8467  0.6303 -1.6009
  627MOL0     H82735   9.290  10.459   2.255  1.0816  1.4655 -1.7667
  627MOL0     H82736   9.025  10.450   2.387 -0.3456 -0.7569  0.5077
  627MOL0     H82737   9.080  10.336   2.267  4.1779 -0.5745 -0.7439
  627MOL0     H82738   9.114  10.263   2.508 -0.8819  2.0481  1.3839
  627MOL0     H82739   9.216  10.408   2.530  1.5186  0.2384 -0.0921
  627MOL0     H82740   9.381  10.214   2.494  0.1931  0.7222 -0.6431
  627MOL0     H82741   9.383  10.309   2.362  1.6592 -2.0747  0.0417
  627MOL0     H82742   9.271  10.042   2.430  2.8167  1.7288  1.4135
  627MOL0     H82743   9.160  10.123   2.325  0.3020  0.9178  0.9266
  627MOL0     H82744   9.320  10.178   2.162 -0.2479  0.7947  1.4401
  627MOL0     H82745   9.304  10.000   2.170 -4.1945  0.4431  2.4323
  627MOL0     H82746   8.827  10.285   2.143 -0.8355 -0.7769  2.6501
  627MOL0     H82747   8.603  10.244   2.204 -1.7972  0.9338  0.8684
  627MOL0     H82748   8.231  10.218   2.264  0.5519  0.3716  0.6893
  627MOL0     H82749   8.010  10.139   2.361 -2.6890  0.0161  1.9906
  627MOL0     H82750   7.903   9.484   2.040  0.1676  0.4545 -1.7352
  627MOL0     H82751   8.164   9.454   2.012  2.4369 -0.0255  2.5325
  627MOL0     H82752   8.567   9.566   1.727 -0.1954 -1.4953  0.6029
  627MOL0     H82753   8.804   9.567   1.715 -1.2594 -2.3592  0.0299
  627MOL0     H82754   9.028   9.621   1.715 -0.4911  0.0130 -1.0314
  627MOL0     H82755   8.991   9.462   1.777  0.6031 -1.4281  0.3036
  627MOL0     H82756   9.197   9.509   1.942  0.8241 -1.9124 -0.1130
  627MOL0     H82757   9.256   9.488   1.765  0.8832  1.2906  0.7773
  627MOL0     H82758   9.229   9.725   1.941  2.3774 -1.2826  0.9631
  627MOL0     H82759   9.216   9.746   1.765  0.5253 -0.8591 -1.0987
  627MOL0     H82760   9.445   9.635   1.937 -3.4176 -2.0477  0.1608
  627MOL0     H82761   9.447   9.623   1.760 -0.0762 -0.4300  0.0967
  627MOL0     H82762   9.570  10.018   1.819  3.0718 -1.4165  1.2785
  627MOL0     H82763   8.842   9.674   2.111  0.9452 -1.9026 -0.6966
  627MOL0     H82764   8.594   9.676   2.153 -1.2545  0.9780 -1.8264
  628MOL0     O82765   2.219   7.700   7.743 -0.2537 -0.3558  0.1065
  628MOL0     C82766   2.238   7.730   7.863  0.0039 -0.2480  0.4511
  628MOL0     O82767   2.141   7.729   7.952 -0.2245  1.0409 -0.4361
  628MOL0     C82768   2.012   7.692   7.939 -0.3417  0.8681  0.9871
  628MOL0     C82769   1.921   7.743   8.034 -0.7160  0.0102 -0.3749
  628MOL0     C82770   1.781   7.712   8.031 -0.6310 -0.1413  0.5575
  628MOL0     C82771   1.735   7.618   7.937  0.3670 -0.2099 -1.1165
  628MOL0     O82772   1.600   7.579   7.935  0.1887  0.4444 -0.1690
  628MOL0     C82773   1.494   7.655   7.998 -0.1474  0.7942  0.3270
  628MOL0     C82774   1.356   7.581   7.979 -0.5860 -0.4540  0.5247
  628MOL0     C82775   1.253   7.625   8.082  0.6886 -0.2783  0.6711
  628MOL0     C82776   1.269   7.533   8.208  0.1345 -0.1398  0.2088
  628MOL0     C82777   1.176   7.580   8.331  0.3599 -0.1692  0.4559
  628MOL0     C82778   1.032   7.531   8.316  0.8885  0.8835 -0.3078
  628MOL0     C82779   0.932   7.628   8.385 -0.2894 -0.8995 -0.1553
  628MOL0     C82780   0.803   7.550   8.414 -0.6577 -0.3729  0.0177
  628MOL0     N82781   0.714   7.657   8.467  1.5598  0.9567  0.4375
  628MOL0     C82782   0.655   7.759   8.395  0.2484  0.1015  0.7137
  628MOL0     C82783   0.598   7.839   8.485 -0.5817  0.2788 -0.4332
  628MOL0     C82784   0.522   7.973   8.465 -1.1198 -1.0458  0.7042
  628MOL0     C82785   0.368   7.977   8.463 -0.7613  0.8284  0.5299
  628MOL0     C82786   0.322   8.076   8.362  0.0583 -0.3281 -0.3056
  628MOL0     C82787   0.169   8.090   8.339  0.8385  1.0924 -0.1716
  628MOL0     O82788   0.107   7.987   8.259 -0.2199  0.2295  0.1955
  628MOL0     C82789  -0.030   7.979   8.258  0.4012  0.4202  0.4529
  628MOL0     C82790  -0.120   8.048   8.337  0.5552 -0.2781  0.4772
  628MOL0     C82791  -0.260   8.021   8.320 -0.2290 -0.7571  0.1101
  628MOL0     C82792  -0.305   7.920   8.234 -0.1456  0.1630 -0.1760
  628MOL0     C82793  -0.445   7.897   8.212 -0.2995 -0.1375  0.1506
  628MOL0     O82794  -0.521   7.974   8.298 -0.4249  0.5062 -0.1598
  628MOL0     C82795  -0.652   7.973   8.282  0.6023 -0.6299 -0.8102
  628MOL0     C82796  -0.702   8.046   8.169  0.6469 -0.2019  0.5747
  628MOL0     C82797  -0.841   8.055   8.167 -0.3489 -0.2200 -0.0527
  628MOL0     C82798  -0.927   8.000   8.262  0.1877 -0.1076  0.3663
  628MOL0     O82799  -1.063   8.017   8.233  0.2735  0.1557 -0.5401
  628MOL0     C82800  -1.150   7.926   8.305  0.0801 -0.4102 -0.6313
  628MOL0     C82801  -1.282   7.944   8.232  0.2276 -0.5293 -0.1596
  628MOL0     C82802  -1.372   8.064   8.285  1.1572  0.9592  0.4327
  628MOL0     C82803  -1.490   8.070   8.202  0.5924 -0.3978 -0.1405
  628MOL0     C82804  -1.581   8.180   8.249 -0.3627  0.1508 -0.0981
  628MOL0     C82805  -1.716   8.172   8.180 -0.1847 -0.6048 -0.2619
  628MOL0     C82806  -1.784   8.304   8.164  1.1198  0.0993  0.1870
  628MOL0     C82807  -1.837   8.354   8.304  0.4015 -0.2808 -0.2573
  628MOL0    Cl82808  -1.920   8.509   8.286  0.0919  0.2151  0.2387
  628MOL0     C82809  -0.875   7.930   8.375 -0.2657 -0.1321 -0.0072
  628MOL0     C82810  -0.729   7.923   8.382 -1.0432  0.2261 -0.9028
  628MOL0     O82811  -0.490   7.824   8.121 -0.8180  0.7705  0.4895
  628MOL0     C82812  -0.211   7.854   8.154 -0.2095 -0.2169 -0.9596
  628MOL0     C82813  -0.072   7.874   8.174  0.2942 -0.9218  0.4516
  628MOL0     N82814   0.592   7.772   8.604 -0.4062  0.3086  0.5027
  628MOL0     N82815   0.662   7.660   8.592 -0.4346 -1.1404  0.7054
  628MOL0     C82816   1.828   7.567   7.848 -0.1211 -0.2619  0.3178
  628MOL0     C82817   1.961   7.607   7.837  0.2997 -0.1197 -0.2262
  628MOL0     C82818   2.377   7.761   7.907  0.7682  0.5854  0.1491
  628MOL0     C82819   2.416   7.787   8.039  0.3863  0.5221  0.5793
  628MOL0     C82820   2.550   7.809   8.084  0.2252 -0.0663 -0.3848
  628MOL0     C82821   2.644   7.818   7.990  0.5041  0.0935  0.4945
  628MOL0     O82822   2.781   7.836   8.014  0.7027 -0.1466 -0.1782
  628MOL0     C82823   2.826   7.876   8.144 -0.1635 -0.8856  0.1401
  628MOL0     C82824   2.823   8.030   8.146 -0.1143 -0.4045  0.4561
  628MOL0     C82825   2.933   8.095   8.055 -0.5672  0.4892 -0.1433
  628MOL0     C82826   3.072   8.113   8.119 -0.6646  0.3564 -0.2329
  628MOL0     C82827   3.084   8.243   8.194  0.2802  0.1674 -0.7176
  628MOL0     C82828   3.100   8.345   8.259 -0.3409 -0.1733 -0.4318
  628MOL0     C82829   2.612   7.786   7.864  1.2674 -0.7186  0.6413
  628MOL0     C82830   2.485   7.760   7.815  0.4103  0.7170 -0.5701
  628MOL0     H82831   1.959   7.802   8.117 -3.0655  1.3657 -0.1811
  628MOL0     H82832   1.728   7.776   8.101 -2.0490  0.8432 -1.3114
  628MOL0     H82833   1.487   7.754   7.953  1.8935  1.1587  0.7249
  628MOL0     H82834   1.519   7.656   8.105 -0.1607 -0.3101  0.3529
  628MOL0     H82835   1.369   7.472   7.978  0.4643 -0.3414 -0.5270
  628MOL0     H82836   1.308   7.605   7.884 -2.7218  0.3107  1.7428
  628MOL0     H82837   1.153   7.603   8.044  1.2524  0.9577 -1.6972
  628MOL0     H82838   1.260   7.734   8.089 -0.3635 -0.2643  2.0295
  628MOL0     H82839   1.242   7.430   8.185 -3.2542  0.7719 -0.3875
  628MOL0     H82840   1.368   7.517   8.251  1.3185 -4.6772 -3.3889
  628MOL0     H82841   1.165   7.688   8.340  2.3535 -0.0546  2.1731
  628MOL0     H82842   1.210   7.543   8.428  2.1068  2.8046  1.0921
  628MOL0     H82843   1.030   7.432   8.361 -0.8487  0.6672 -0.7887
  628MOL0     H82844   1.004   7.521   8.211 -0.0921  0.2848  0.0047
  628MOL0     H82845   0.970   7.661   8.483  1.5016 -3.0911 -0.0297
  628MOL0     H82846   0.911   7.710   8.316 -0.5459  0.4252  1.4156
  628MOL0     H82847   0.821   7.473   8.490  0.1396 -1.2221 -1.0003
  628MOL0     H82848   0.759   7.494   8.331 -0.6607 -0.8083  0.3092
  628MOL0     H82849   0.683   7.792   8.295  3.1140  0.3139  1.4956
  628MOL0     H82850   0.572   8.023   8.382 -0.4591  1.6464  2.5789
  628MOL0     H82851   0.545   8.043   8.546 -1.8355  0.7645 -0.5988
  628MOL0     H82852   0.330   8.005   8.562  0.0082 -3.9078  2.4577
  628MOL0     H82853   0.322   7.881   8.434  0.4144  1.0472 -2.4276
  628MOL0     H82854   0.347   8.179   8.388 -0.4665  0.4150 -2.5356
  628MOL0     H82855   0.358   8.052   8.262  1.2577 -0.3803  0.1198
  628MOL0     H82856   0.162   8.182   8.281 -1.5372 -0.1292 -2.0153
  628MOL0     H82857   0.122   8.089   8.438 -2.0695 -0.1192 -1.4393
  628MOL0     H82858  -0.081   8.114   8.415  1.9240 -0.0757 -0.3370
  628MOL0     H82859  -0.328   8.076   8.385 -0.7471 -3.3350  1.9044
  628MOL0     H82860  -0.644   8.089   8.088  1.2915 -1.7577  0.1714
  628MOL0     H82861  -0.877   8.107   8.078  2.4553 -0.9745 -1.7565
  628MOL0     H82862  -1.158   7.955   8.410  0.4954  1.6587 -1.1172
  628MOL0     H82863  -1.111   7.825   8.287  1.0980  0.1944 -2.0188
  628MOL0     H82864  -1.343   7.855   8.251  2.0217 -1.0517  4.3269
  628MOL0     H82865  -1.268   7.953   8.124 -1.1847  1.7689 -0.2166
  628MOL0     H82866  -1.320   8.158   8.306  1.1603  0.7265  1.5416
  628MOL0     H82867  -1.404   8.023   8.382 -0.7521 -1.9348 -1.2726
  628MOL0     H82868  -1.455   8.087   8.100 -1.0021 -2.8525 -1.1673
  628MOL0     H82869  -1.540   7.974   8.187 -0.3559 -0.1112  1.0202
  628MOL0     H82870  -1.526   8.274   8.246 -0.6289  0.5662  3.5012
  628MOL0     H82871  -1.602   8.166   8.355  0.2728  1.0831  0.1667
  628MOL0     H82872  -1.775   8.104   8.242  2.6577 -1.8119  1.3274
  628MOL0     H82873  -1.699   8.136   8.078 -0.8885 -2.8446  0.3562
  628MOL0     H82874  -1.717   8.369   8.106 -0.7017  1.2470 -0.7071
  628MOL0     H82875  -1.874   8.290   8.103  1.7429 -1.1434 -0.4969
  628MOL0     H82876  -1.757   8.376   8.376 -0.9788  2.6387  0.5425
  628MOL0     H82877  -1.909   8.283   8.345 -0.3468  0.9848  0.6962
  628MOL0     H82878  -0.944   7.891   8.449  2.8007 -3.8112  1.3111
  628MOL0     H82879  -0.675   7.888   8.469  0.8708  1.4011 -1.5701
  628MOL0     H82880  -0.239   7.773   8.088  1.8328 -2.4139  0.6834
  628MOL0     H82881  -0.008   7.813   8.111  0.9976 -1.5121  1.6913
  628MOL0     H82882   1.802   7.509   7.760  2.3954  0.0443 -0.7126
  628MOL0     H82883   2.031   7.567   7.764  0.1928  4.8293 -3.4874
  628MOL0     H82884   2.344   7.780   8.120  0.2191 -1.4512  0.3018
  628MOL0     H82885   2.576   7.834   8.186  2.0201 -0.4717 -0.7089
  628MOL0     H82886   2.928   7.843   8.169 -0.3882  0.6024  3.4399
  628MOL0     H82887   2.762   7.839   8.224 -0.5116  0.0351  0.2938
  628MOL0     H82888   2.723   8.060   8.113 -0.2706 -2.5555 -1.2770
  628MOL0     H82889   2.822   8.066   8.249 -3.1101  0.4176  0.2363
  628MOL0     H82890   2.910   8.190   8.005 -0.4339  1.6031  1.8197
  628MOL0     H82891   2.953   8.025   7.973  1.9916  0.0772  0.7663
  628MOL0     H82892   3.078   8.022   8.179 -0.9609  0.7102  0.3462
  628MOL0     H82893   3.154   8.104   8.047 -1.0402  0.9746 -0.7468
  628MOL0     H82894   3.106   8.431   8.323  0.2165  1.1063 -2.1530
  628MOL0     H82895   2.687   7.785   7.786 -0.4547 -0.6838 -1.0813
  628MOL0     H82896   2.456   7.721   7.718  1.8275 -0.2641 -0.6376
  629MOL0     O82897   9.802   1.547   0.247  0.4186 -0.3333  0.5309
  629MOL0     C82898   9.774   1.466   0.332 -0.2773  0.4763 -0.7907
  629MOL0     O82899   9.647   1.436   0.373  0.1103  0.6735  0.5313
  629MOL0     C82900   9.541   1.514   0.344 -0.3404  0.3597 -0.0218
  629MOL0     C82901   9.415   1.450   0.338 -0.3941  0.0243 -0.5384
  629MOL0     C82902   9.296   1.522   0.318 -0.3184  0.5264  0.0634
  629MOL0     C82903   9.300   1.661   0.320 -0.3732 -0.3279 -0.6089
  629MOL0     O82904   9.188   1.731   0.289 -0.0955 -0.4594 -0.0973
  629MOL0     C82905   9.061   1.684   0.329  0.0514 -0.0353 -0.3708
  629MOL0     C82906   8.986   1.814   0.366 -0.0108 -0.4245 -0.1071
  629MOL0     C82907   8.836   1.796   0.393  0.4501 -0.0120 -0.2997
  629MOL0     C82908   8.800   1.699   0.507  0.3553 -0.9584  0.9897
  629MOL0     C82909   8.654   1.700   0.564  0.1067  0.0650  0.4000
  629MOL0     C82910   8.566   1.680   0.442 -0.3202  0.3822 -0.3305
  629MOL0     C82911   8.423   1.678   0.492  0.3250  0.2193 -0.7440
  629MOL0     C82912   8.322   1.652   0.373 -0.0794  1.2473 -0.4158
  629MOL0     N82913   8.183   1.621   0.401 -0.1052 -0.0367 -1.2055
  629MOL0     C82914   8.072   1.654   0.322  0.5753 -0.1407  0.1384
  629MOL0     C82915   7.967   1.576   0.358 -0.7462  1.1695  0.2441
  629MOL0     C82916   7.827   1.588   0.315  0.2794 -0.1157 -0.3615
  629MOL0     C82917   7.753   1.465   0.251  0.0798 -1.1163 -0.3061
  629MOL0     C82918   7.599   1.493   0.219 -0.0267  0.2891 -1.0721
  629MOL0     C82919   7.512   1.362   0.200 -0.3902  0.0945  0.2551
  629MOL0     O82920   7.387   1.401   0.148  0.6182 -0.0617 -0.4861
  629MOL0     C82921   7.301   1.305   0.094 -0.5620 -0.5545  0.5863
  629MOL0     C82922   7.180   1.348   0.040 -0.4297  0.0821 -0.1045
  629MOL0     C82923   7.090   1.257  -0.010 -0.3734 -0.1892 -1.4351
  629MOL0     C82924   7.111   1.123  -0.013 -0.7215  0.6394 -0.5436
  629MOL0     C82925   7.010   1.039  -0.077 -0.3223  0.7593 -0.4942
  629MOL0     O82926   7.052   0.909  -0.097 -0.8507 -0.0774 -0.3479
  629MOL0     C82927   6.975   0.810  -0.158 -1.0965  0.0433  0.1143
  629MOL0     C82928   7.049   0.699  -0.204 -0.0959 -0.4783  0.1735
  629MOL0     C82929   6.978   0.583  -0.250  0.1343 -0.3410 -0.8775
  629MOL0     C82930   6.839   0.574  -0.243  0.7781 -0.3566  0.7472
  629MOL0     O82931   6.765   0.462  -0.260  0.4507 -0.3789 -0.2802
  629MOL0     C82932   6.822   0.357  -0.340  0.0119  0.0740 -0.0444
  629MOL0     C82933   6.731   0.253  -0.399  0.1264  0.1183  0.6846
  629MOL0     C82934   6.626   0.219  -0.295 -0.6143 -0.7443  0.1829
  629MOL0     C82935   6.553   0.090  -0.339  0.0832 -0.2839  0.4664
  629MOL0     C82936   6.443   0.034  -0.246 -0.3729 -0.7406  0.2209
  629MOL0     C82937   6.491  -0.046  -0.128  0.5027 -0.0452 -0.3636
  629MOL0     C82938   6.384  -0.110  -0.048 -0.5799 -0.2054 -0.3350
  629MOL0     C82939   6.298  -0.008   0.026  0.7790 -0.2721 -0.0036
  629MOL0    Cl82940   6.202  -0.081   0.143 -0.3951 -0.1184  0.4954
  629MOL0     C82941   6.768   0.686  -0.191 -0.3937 -0.9865  0.6762
  629MOL0     C82942   6.836   0.803  -0.159 -0.5259 -0.3882  0.1181
  629MOL0     O82943   6.906   1.087  -0.116  0.7537 -0.0985 -0.0290
  629MOL0     C82944   7.240   1.084   0.034  0.8533 -0.0072  0.0122
  629MOL0     C82945   7.333   1.171   0.091  1.2204 -0.0236 -0.0956
  629MOL0     N82946   8.011   1.500   0.463  0.0130 -0.3243  0.4145
  629MOL0     N82947   8.132   1.528   0.500 -0.0129 -0.6701  0.7602
  629MOL0     C82948   9.428   1.725   0.333  0.8649 -0.1598 -0.5308
  629MOL0     C82949   9.544   1.649   0.353 -0.1945 -0.1706  0.0711
  629MOL0     C82950   9.893   1.402   0.396  0.6761  0.7477  0.2357
  629MOL0     C82951   9.878   1.317   0.511  0.1375 -0.2996 -0.1689
  629MOL0     C82952   9.993   1.277   0.574 -1.0546 -0.1818 -0.1458
  629MOL0     C82953  10.123   1.296   0.518  0.1320  0.2289 -0.2445
  629MOL0     O82954  10.234   1.237   0.569  0.1075  0.3915 -0.7945
  629MOL0     C82955  10.353   1.317   0.575  0.8926 -0.1253  0.2278
  629MOL0     C82956  10.450   1.252   0.666  0.0574 -0.0831  0.5397
  629MOL0     C82957  10.405   1.277   0.806  0.0800 -0.2869 -0.5737
  629MOL0     C82958  10.484   1.199   0.903 -0.8965 -0.3502  0.4051
  629MOL0     C82959  10.437   1.217   1.036 -0.5851 -0.2743 -0.3878
  629MOL0     C82960  10.396   1.211   1.149  1.2386 -0.0824 -0.2626
  629MOL0     C82961  10.135   1.362   0.394 -0.5952  0.7676  0.2216
  629MOL0     C82962  10.024   1.419   0.344 -0.3874 -0.0028 -0.4955
  629MOL0     H82963   9.400   1.342   0.340 -0.8968 -0.0380  4.1832
  629MOL0     H82964   9.206   1.463   0.308  1.2095 -1.8470 -0.5194
  629MOL0     H82965   9.059   1.623   0.420 -4.6337 -1.9717 -1.4828
  629MOL0     H82966   9.021   1.624   0.247  2.7413  0.0502 -1.8315
  629MOL0     H82967   9.002   1.881   0.281 -0.1181  0.7157  0.7428
  629MOL0     H82968   9.036   1.864   0.450 -0.5240  3.5918 -1.9292
  629MOL0     H82969   8.791   1.760   0.300  2.3983  0.1115 -1.3414
  629MOL0     H82970   8.791   1.892   0.421 -2.4636 -1.3198 -0.2212
  629MOL0     H82971   8.828   1.604   0.461 -1.0705 -0.1019 -1.8233
  629MOL0     H82972   8.870   1.724   0.588  1.4961  0.2013 -0.2907
  629MOL0     H82973   8.637   1.801   0.602  0.8420  1.4475 -2.6205
  629MOL0     H82974   8.622   1.631   0.642 -1.2312 -0.1735 -0.3182
  629MOL0     H82975   8.589   1.583   0.397 -0.4106 -0.2115  0.8628
  629MOL0     H82976   8.571   1.759   0.367 -1.8653 -0.1131 -0.9963
  629MOL0     H82977   8.407   1.604   0.570 -2.6316  0.8795 -0.5912
  629MOL0     H82978   8.405   1.778   0.534  1.1298  1.0481 -2.2520
  629MOL0     H82979   8.352   1.559   0.324 -0.1541 -0.3731  2.4282
  629MOL0     H82980   8.324   1.746   0.317 -0.0312  1.5386  0.0701
  629MOL0     H82981   8.072   1.727   0.242  1.3563 -0.8433 -0.5194
  629MOL0     H82982   7.821   1.665   0.237  2.6959 -1.3877 -1.9375
  629MOL0     H82983   7.779   1.615   0.409  1.5031  1.0673 -0.0379
  629MOL0     H82984   7.761   1.387   0.328 -0.7071 -1.4095 -0.5041
  629MOL0     H82985   7.801   1.441   0.156  1.0000  0.3379 -0.2299
  629MOL0     H82986   7.557   1.552   0.301  0.2358 -1.1892  0.1742
  629MOL0     H82987   7.600   1.564   0.136 -0.0999  2.8412  1.0022
  629MOL0     H82988   7.503   1.301   0.290  0.3407 -0.6228 -0.1542
  629MOL0     H82989   7.563   1.298   0.128 -0.0347  0.3145  0.3053
  629MOL0     H82990   7.150   1.453   0.037  1.5431  0.6687 -0.1832
  629MOL0     H82991   6.999   1.298  -0.052  0.3461  0.0277 -2.8358
  629MOL0     H82992   7.157   0.691  -0.214 -0.1540 -1.5393  0.2791
  629MOL0     H82993   7.034   0.499  -0.290  1.6775  0.2754 -0.1041
  629MOL0     H82994   6.893   0.323  -0.264  1.3426  0.6554 -0.9846
  629MOL0     H82995   6.885   0.385  -0.424 -0.9360  1.2282 -0.3997
  629MOL0     H82996   6.788   0.170  -0.442 -1.2602 -0.1865 -0.6334
  629MOL0     H82997   6.673   0.298  -0.481  1.1474 -0.0252 -0.1381
  629MOL0     H82998   6.549   0.296  -0.283  1.1244  1.4155 -1.6316
  629MOL0     H82999   6.679   0.191  -0.204  1.0959 -2.2706 -1.2045
  629MOL0     H83000   6.511   0.101  -0.439 -0.3740 -0.9424  0.5840
  629MOL0     H83001   6.625   0.008  -0.351  0.1298 -0.1511 -0.2329
  629MOL0     H83002   6.391  -0.033  -0.315 -1.5381  0.4444 -0.0822
  629MOL0     H83003   6.365   0.105  -0.220 -0.9019 -1.3835  0.3974
  629MOL0     H83004   6.545   0.025  -0.064  0.7961 -0.1033 -0.5445
  629MOL0     H83005   6.559  -0.123  -0.166  1.0868  0.5292 -0.5084
  629MOL0     H83006   6.322  -0.182  -0.102 -1.9924  0.0426  0.8806
  629MOL0     H83007   6.430  -0.172   0.029  1.9678 -1.3663 -2.6387
  629MOL0     H83008   6.232   0.051  -0.039 -0.6373 -2.0690 -0.2561
  629MOL0     H83009   6.363   0.062   0.081  0.9962 -0.3268 -0.1878
  629MOL0     H83010   6.661   0.673  -0.199 -0.4233 -0.2354 -0.3033
  629MOL0     H83011   6.784   0.895  -0.138 -0.5965  0.5180 -3.4888
  629MOL0     H83012   7.266   0.978   0.030  0.4655 -0.3332  3.1848
  629MOL0     H83013   7.425   1.121   0.118  1.4720 -0.5512 -1.7962
  629MOL0     H83014   9.454   1.830   0.338 -0.0116  0.0003  2.8538
  629MOL0     H83015   9.634   1.707   0.369  0.7380 -0.8821 -2.1797
  629MOL0     H83016   9.782   1.305   0.560 -0.4122  0.7071 -0.9468
  629MOL0     H83017   9.988   1.225   0.669  0.3450 -1.6828 -0.8435
  629MOL0     H83018  10.329   1.410   0.627  4.0251 -0.0205  1.7286
  629MOL0     H83019  10.401   1.346   0.481 -0.4989  1.2969 -0.0874
  629MOL0     H83020  10.453   1.147   0.638  1.8957 -0.5377  2.2244
  629MOL0     H83021  10.553   1.289   0.657  0.2631 -0.1586  2.2750
  629MOL0     H83022  10.302   1.245   0.825 -0.4675  0.5918 -1.8658
  629MOL0     H83023  10.401   1.383   0.836 -2.0297 -0.0209 -1.5983
  629MOL0     H83024  10.471   1.092   0.882  2.4455 -0.7035 -0.4506
  629MOL0     H83025  10.587   1.234   0.898 -1.4240  1.0736 -1.6028
  629MOL0     H83026  10.340   1.207   1.240 -2.7950 -1.5810 -2.5255
  629MOL0     H83027  10.230   1.379   0.344 -1.5294  0.6024 -1.6837
  629MOL0     H83028  10.038   1.469   0.249 -1.2380  0.3020 -0.4689
  630MOL0     O83029   9.753  10.100   0.517  0.4216  0.1053 -0.9304
  630MOL0     C83030   9.695  10.137   0.613 -0.3387 -0.2185 -0.2838
  630MOL0     O83031   9.559  10.143   0.634 -0.2177 -0.0153  0.6791
  630MOL0     C83032   9.479  10.088   0.530 -0.9196  0.8115 -0.0267
  630MOL0     C83033   9.379   9.995   0.574 -0.8469 -0.6927  0.2325
  630MOL0     C83034   9.313   9.927   0.467 -0.1265  0.1330 -0.3320
  630MOL0     C83035   9.328   9.968   0.328  0.0235  1.2957  0.6492
  630MOL0     O83036   9.281   9.895   0.219  0.3615 -0.6544 -0.1605
  630MOL0     C83037   9.151   9.837   0.243  0.3439  1.3406  0.3365
  630MOL0     C83038   9.038   9.945   0.267 -0.6000  0.1456  0.5667
  630MOL0     C83039   8.911   9.871   0.306 -0.0563 -0.2775 -0.0876
  630MOL0     C83040   8.806   9.984   0.332  0.1483  0.3748  0.8643
  630MOL0     C83041   8.671   9.914   0.351 -0.2387  0.3339  0.2455
  630MOL0     C83042   8.562  10.021   0.339  0.3743  0.5375 -0.8966
  630MOL0     C83043   8.419   9.992   0.391 -0.7930 -0.5246  0.4587
  630MOL0     C83044   8.354   9.854   0.352 -0.2257 -0.1084 -0.0674
  630MOL0     N83045   8.212   9.849   0.387 -0.0875  0.3966 -0.1272
  630MOL0     C83046   8.118   9.944   0.398  0.0467  0.8239 -0.1560
  630MOL0     C83047   8.023   9.879   0.462 -0.0683 -0.6724  0.1300
  630MOL0     C83048   7.890   9.938   0.496  0.4888  0.6973 -0.2211
  630MOL0     C83049   7.788   9.818   0.479 -0.0313  0.1654  0.3991
  630MOL0     C83050   7.651   9.882   0.485  0.2440  0.1858  0.0974
  630MOL0     C83051   7.549   9.784   0.456  0.8062  0.2327  0.3858
  630MOL0     O83052   7.436   9.861   0.459  0.9971 -0.5937  0.6790
  630MOL0     C83053   7.303   9.820   0.463  0.1932  0.5875  0.5464
  630MOL0     C83054   7.262   9.692   0.425 -0.5896  0.2570  1.1285
  630MOL0     C83055   7.121   9.665   0.420  1.1660  0.1359 -0.0453
  630MOL0     C83056   7.025   9.768   0.452  1.1438  0.4241  0.1420
  630MOL0     C83057   6.873   9.748   0.438  1.6135  0.5532  0.5670
  630MOL0     O83058   6.793   9.862   0.462  0.3462 -0.6329 -0.6032
  630MOL0     C83059   6.659   9.865   0.431  0.2013 -0.8480  0.1681
  630MOL0     C83060   6.616   9.884   0.301  0.4769 -0.0294  0.2343
  630MOL0     C83061   6.479   9.909   0.276 -0.1007  0.3786 -0.4839
  630MOL0     C83062   6.392   9.892   0.381 -0.2549 -0.6324  0.4522
  630MOL0     O83063   6.256   9.914   0.349 -0.0119 -0.5183  0.0931
  630MOL0     C83064   6.168   9.801   0.373  0.6083 -0.2964 -0.4215
  630MOL0     C83065   6.064   9.845   0.491 -0.7509  0.9526  0.4719
  630MOL0     C83066   5.987   9.715   0.528 -0.8390  1.0394 -0.1325
  630MOL0     C83067   5.890   9.755   0.645 -0.0228 -0.4555  0.4037
  630MOL0     C83068   5.782   9.643   0.661  0.5532  0.1729  0.3244
  630MOL0     C83069   5.719   9.663   0.803  0.1084  0.0104 -0.3487
  630MOL0     C83070   5.613   9.772   0.815 -0.3756 -0.4929 -0.5216
  630MOL0     C83071   5.473   9.746   0.756  0.1776  0.1776 -0.0778
  630MOL0    Cl83072   5.375   9.889   0.809 -0.1049 -0.3172 -0.4044
  630MOL0     C83073   6.429   9.857   0.510 -0.5855  0.0324  0.5054
  630MOL0     C83074   6.568   9.856   0.536 -0.4293  0.1575 -0.2107
  630MOL0     O83075   6.829   9.640   0.393  0.3241 -0.4768 -1.3305
  630MOL0     C83076   7.070   9.897   0.499 -0.4065 -0.5532  0.2665
  630MOL0     C83077   7.211   9.911   0.504  0.8211 -0.6366  0.0249
  630MOL0     N83078   8.056   9.751   0.492 -0.5577 -0.3614  0.9220
  630MOL0     N83079   8.178   9.730   0.445  0.3172  0.3319  0.7593
  630MOL0     C83080   9.407  10.074   0.299 -0.1807 -0.4752  0.1875
  630MOL0     C83081   9.490  10.133   0.396 -0.5685  0.5850  0.6083
  630MOL0     C83082   9.767  10.161   0.741 -0.7247  0.6161  0.3512
  630MOL0     C83083   9.715  10.152   0.870  0.6115  0.3165  0.3380
  630MOL0     C83084   9.799  10.174   0.973  0.3296  0.2147  0.1623
  630MOL0     C83085   9.931  10.214   0.967  0.3898  1.0838 -0.6265
  630MOL0     O83086  10.011  10.224   1.079 -0.5011 -0.1085  0.2402
  630MOL0     C83087  10.047  10.362   1.098  0.3319  0.4305  1.4947
  630MOL0     C83088  10.191  10.356   1.141 -0.3563 -0.7778  0.0118
  630MOL0     C83089  10.195  10.294   1.279 -0.1120 -1.0316 -0.8676
  630MOL0     C83090  10.339  10.285   1.333  1.2339  0.3481 -0.0385
  630MOL0     C83091  10.351  10.271   1.479 -0.1153 -1.1541  0.0002
  630MOL0     C83092  10.349  10.252   1.597  0.4020  0.7930  0.1624
  630MOL0     C83093   9.981  10.217   0.839  0.0720 -1.1883  0.7879
  630MOL0     C83094   9.903  10.200   0.724 -0.1477 -0.9314  0.6972
  630MOL0     H83095   9.388   9.976   0.681 -0.7612 -1.7871  0.0436
  630MOL0     H83096   9.254   9.841   0.498  0.1037 -0.3473 -1.2004
  630MOL0     H83097   9.154   9.765   0.325 -1.4401  1.4468  0.5396
  630MOL0     H83098   9.130   9.769   0.160 -0.3265 -0.8420  2.1889
  630MOL0     H83099   9.037  10.009   0.178 -1.6667  0.6915  0.9585
  630MOL0     H83100   9.066  10.008   0.352 -0.5874 -0.2131  0.8308
  630MOL0     H83101   8.922   9.811   0.396 -4.5924 -2.6258 -0.8034
  630MOL0     H83102   8.884   9.806   0.222 -0.2689 -1.4918  0.8917
  630MOL0     H83103   8.836  10.042   0.420 -0.6653  2.2794 -0.0772
  630MOL0     H83104   8.801  10.057   0.251 -0.6069  0.0735  0.6360
  630MOL0     H83105   8.668   9.852   0.441 -1.0734  0.2123  0.1469
  630MOL0     H83106   8.649   9.844   0.269 -0.9468 -1.6020  1.9981
  630MOL0     H83107   8.545  10.047   0.234 -0.8764 -0.1303 -0.8774
  630MOL0     H83108   8.598  10.107   0.397 -0.9322  1.8430 -1.9466
  630MOL0     H83109   8.411  10.005   0.499  1.4314  2.4787  0.3668
  630MOL0     H83110   8.357  10.070   0.346 -2.6073 -1.4665  1.2168
  630MOL0     H83111   8.414   9.782   0.408 -2.7568 -2.0234  0.3542
  630MOL0     H83112   8.372   9.821   0.249  1.1718 -2.6861  0.9298
  630MOL0     H83113   8.113  10.047   0.363  0.8874  0.9818  0.1782
  630MOL0     H83114   7.864  10.009   0.418 -2.3180 -3.1825 -3.2590
  630MOL0     H83115   7.877   9.961   0.602 -3.1722 -0.7345 -0.2165
  630MOL0     H83116   7.804   9.739   0.553  1.0397 -1.0474 -1.0468
  630MOL0     H83117   7.792   9.767   0.382 -2.9709 -1.1633  0.8654
  630MOL0     H83118   7.631   9.919   0.587 -1.0411  0.5057 -0.2558
  630MOL0     H83119   7.643   9.955   0.405  1.1180 -0.2149 -0.3626
  630MOL0     H83120   7.535   9.713   0.538 -1.3839 -0.1235 -0.2315
  630MOL0     H83121   7.545   9.734   0.359 -1.4336 -0.0587  0.5730
  630MOL0     H83122   7.329   9.607   0.422  0.4497  1.0877 -0.4794
  630MOL0     H83123   7.091   9.564   0.392 -1.8919  0.6560  0.9229
  630MOL0     H83124   6.696   9.893   0.228 -2.6451 -1.7316 -3.7760
  630MOL0     H83125   6.435   9.938   0.180 -1.0575 -1.9025 -0.7982
  630MOL0     H83126   6.219   9.708   0.403 -3.5913 -2.7085  0.0226
  630MOL0     H83127   6.114   9.773   0.282 -0.0788 -1.3619  0.2854
  630MOL0     H83128   5.988   9.915   0.457 -0.9148  0.2172 -0.7672
  630MOL0     H83129   6.120   9.891   0.572  1.0709 -0.2546 -0.0372
  630MOL0     H83130   6.059   9.637   0.553 -0.1729  1.4383 -0.7770
  630MOL0     H83131   5.932   9.680   0.441  3.6975  0.8664 -3.2471
  630MOL0     H83132   5.939   9.773   0.741 -0.7808  4.1841  0.1324
  630MOL0     H83133   5.846   9.854   0.630  1.6588  0.0477 -1.5009
  630MOL0     H83134   5.817   9.540   0.649 -0.5967 -0.3721  1.4025
  630MOL0     H83135   5.701   9.661   0.589  0.5722  2.5675  0.7995
  630MOL0     H83136   5.802   9.678   0.873  1.1929 -1.0834 -1.3313
  630MOL0     H83137   5.663   9.573   0.830 -2.1941  1.2404 -0.7749
  630MOL0     H83138   5.594   9.795   0.920  0.1940  2.3459 -0.9503
  630MOL0     H83139   5.653   9.867   0.777 -0.9571 -0.8980 -2.2273
  630MOL0     H83140   5.431   9.654   0.797 -1.2076  1.3176  1.2331
  630MOL0     H83141   5.481   9.745   0.647  2.5563 -0.1735  0.0413
  630MOL0     H83142   6.353   9.858   0.588 -1.2108  0.4413 -0.1011
  630MOL0     H83143   6.609   9.853   0.636 -1.8415 -1.1384  0.3776
  630MOL0     H83144   7.006   9.981   0.526 -0.3334 -0.2111 -0.5988
  630MOL0     H83145   7.257  10.002   0.541  0.3446 -0.0926 -0.7076
  630MOL0     H83146   9.409  10.097   0.194  0.6814 -2.6594 -0.3445
  630MOL0     H83147   9.566  10.197   0.353 -0.3944 -2.0701 -3.5824
  630MOL0     H83148   9.616  10.114   0.894  1.1962 -1.1022  0.6053
  630MOL0     H83149   9.765  10.159   1.075  0.1252  0.9821  0.2120
  630MOL0     H83150   9.983  10.401   1.177 -0.5635 -1.1611  1.6066
  630MOL0     H83151  10.054  10.420   1.005  1.7051 -1.5012  0.3195
  630MOL0     H83152  10.263  10.304   1.077  1.8438  2.1129 -0.0822
  630MOL0     H83153  10.231  10.458   1.145 -1.0959 -0.5064  3.7049
  630MOL0     H83154  10.150  10.194   1.286 -0.1605 -0.9808 -0.4222
  630MOL0     H83155  10.145  10.363   1.348  1.1849 -1.6839  0.8080
  630MOL0     H83156  10.385  10.206   1.274 -2.0902 -2.7568  1.1583
  630MOL0     H83157  10.396  10.375   1.308  0.6834  0.4631 -0.9246
  630MOL0     H83158  10.355  10.226   1.700 -1.7983  2.8361  0.9049
  630MOL0     H83159  10.085  10.246   0.826 -0.5405 -0.0291 -2.8777
  630MOL0     H83160   9.939  10.211   0.622  1.9560  0.8827  1.5725
  631MOL0     O83161   9.026   3.469  10.845 -0.3076 -0.1789 -0.7872
  631MOL0     C83162   9.089   3.389  10.922 -0.2252 -0.3366 -0.5075
  631MOL0     O83163   9.041   3.268  10.972  0.0024 -0.4139 -0.3792
  631MOL0     C83164   8.930   3.219  10.915  0.5411 -0.2412 -0.5181
  631MOL0     C83165   8.806   3.269  10.940  0.5613 -0.5079  0.1111
  631MOL0     C83166   8.691   3.200  10.892 -0.0553  0.5578 -0.1755
  631MOL0     C83167   8.702   3.075  10.838 -0.1214  0.0433 -0.5876
  631MOL0     O83168   8.586   3.009  10.804  0.2051 -0.7748  0.3177
  631MOL0     C83169   8.526   2.932  10.907 -0.9863  0.6165  0.4580
  631MOL0     C83170   8.389   2.870  10.871  0.7734 -0.0834  0.1237
  631MOL0     C83171   8.268   2.963  10.867  1.6704 -0.2968  0.0745
  631MOL0     C83172   8.141   2.884  10.823 -1.0680  0.3385  0.4157
  631MOL0     C83173   8.097   2.933  10.680  1.4628 -0.4008  0.8811
  631MOL0     C83174   7.949   2.898  10.650  0.9535 -0.3246  0.1772
  631MOL0     C83175   7.892   2.920  10.504  0.3303 -0.5338 -0.2600
  631MOL0     C83176   7.871   3.064  10.477 -0.5378 -0.3288  0.1832
  631MOL0     N83177   7.734   3.119  10.487 -0.2046 -0.3960 -0.5186
  631MOL0     C83178   7.674   3.170  10.597 -0.7677  0.5678 -0.4139
  631MOL0     C83179   7.547   3.180  10.565 -0.3031  0.0372 -0.8065
  631MOL0     C83180   7.437   3.229  10.666  0.4226  0.5366 -0.3614
  631MOL0     C83181   7.364   3.111  10.726  1.5725  0.5299  0.5703
  631MOL0     C83182   7.273   3.058  10.615 -0.9229  0.0747 -0.7148
  631MOL0     C83183   7.169   2.970  10.680  0.1748 -0.4951 -0.3637
  631MOL0     O83184   7.062   3.064  10.720  0.6474  0.5108  0.1346
  631MOL0     C83185   6.958   3.001  10.780 -0.7537  0.5614 -0.3441
  631MOL0     C83186   6.943   3.006  10.924 -0.5315  0.7547 -0.0280
  631MOL0     C83187   6.855   2.923  10.990  0.5008  0.2290 -0.7533
  631MOL0     C83188   6.769   2.843  10.918  0.3730  0.7816  1.0541
  631MOL0     C83189   6.674   2.746  10.976 -1.0775 -0.1244 -0.0449
  631MOL0     O83190   6.605   2.666  10.898  0.0577  0.5258  0.0327
  631MOL0     C83191   6.509   2.588  10.959 -0.4827  1.1417 -0.6814
  631MOL0     C83192   6.373   2.632  10.952 -0.0299  0.4085 -0.4754
  631MOL0     C83193   6.273   2.568  11.026  0.5502 -0.0642  0.1856
  631MOL0     C83194   6.303   2.455  11.097 -0.3236 -0.0814  0.1383
  631MOL0     O83195   6.195   2.385  11.156  0.5970 -0.0796 -0.7721
  631MOL0     C83196   6.203   2.231  11.143  0.4132  0.2914  0.7139
  631MOL0     C83197   6.083   2.160  11.196  0.1667 -0.6033  0.4011
  631MOL0     C83198   6.112   2.006  11.203 -0.7783 -0.3819  0.4529
  631MOL0     C83199   6.011   1.938  11.295  0.1354  0.1279  0.1450
  631MOL0     C83200   5.868   1.985  11.269 -0.5929  0.6083  0.2486
  631MOL0     C83201   5.783   1.890  11.345  0.1247 -0.7152 -0.4699
  631MOL0     C83202   5.649   1.947  11.368  0.9242 -0.3097 -0.2983
  631MOL0     C83203   5.554   1.954  11.240 -0.3809 -0.4855 -0.2776
  631MOL0    Cl83204   5.503   1.783  11.190  0.5956 -0.2378  0.2771
  631MOL0     C83205   6.434   2.402  11.097  0.3928 -0.5092 -0.7591
  631MOL0     C83206   6.531   2.464  11.028 -0.2839  0.2672  0.4297
  631MOL0     O83207   6.670   2.749  11.102  0.3660 -0.3762  0.0263
  631MOL0     C83208   6.767   2.841  10.776 -0.6910  1.3111 -0.4717
  631MOL0     C83209   6.868   2.919  10.707 -0.0422 -0.1076 -0.7389
  631MOL0     N83210   7.532   3.150  10.434 -0.5067 -0.1344  0.8074
  631MOL0     N83211   7.648   3.107  10.385 -0.0985 -0.4743  0.4086
  631MOL0     C83212   8.826   3.020  10.810 -0.0224 -0.3219 -0.0451
  631MOL0     C83213   8.938   3.097  10.848  0.2253 -0.4076  0.0024
  631MOL0     C83214   9.237   3.412  10.940  0.0481  0.1502 -0.5090
  631MOL0     C83215   9.292   3.529  10.899 -0.2181 -1.7309 -0.0657
  631MOL0     C83216   9.427   3.555  10.913  0.6346 -0.0459  0.3251
  631MOL0     C83217   9.506   3.456  10.968 -0.6461 -0.7101 -0.7226
  631MOL0     O83218   9.641   3.472  10.974  0.2302 -0.2415  0.1130
  631MOL0     C83219   9.680   3.533  11.092  0.1369  0.3154 -0.3411
  631MOL0     C83220   9.825   3.549  11.090  0.2882 -0.2560  0.0449
  631MOL0     C83221   9.882   3.648  10.984  0.4491  1.1892 -0.4639
  631MOL0     C83222  10.020   3.683  11.028  0.9558 -0.1466  0.6213
  631MOL0     C83223  10.084   3.760  10.923 -0.7767  0.2446  0.6919
  631MOL0     C83224  10.140   3.832  10.838  0.3006 -0.3516  0.3992
  631MOL0     C83225   9.459   3.330  10.992  1.1747  0.9149  0.6029
  631MOL0     C83226   9.325   3.306  10.985  0.4279 -1.1300 -0.6982
  631MOL0     H83227   8.804   3.358  11.001  0.0570  0.2686 -0.9961
  631MOL0     H83228   8.591   3.227  10.924  0.0268 -0.7086  1.2636
  631MOL0     H83229   8.516   3.002  10.990  2.2542 -0.3158  1.8129
  631MOL0     H83230   8.587   2.849  10.945  0.8225  1.8758  0.4478
  631MOL0     H83231   8.364   2.780  10.927  0.3690 -1.3766 -2.0164
  631MOL0     H83232   8.403   2.826  10.772  0.9947  1.0191 -0.3522
  631MOL0     H83233   8.295   3.041  10.795  3.0626 -1.6926 -0.9934
  631MOL0     H83234   8.241   3.011  10.962 -2.0858  0.3827 -1.1535
  631MOL0     H83235   8.160   2.776  10.826  1.4717  0.5619 -2.5669
  631MOL0     H83236   8.058   2.900  10.893 -1.6755 -1.2779  0.1090
  631MOL0     H83237   8.155   2.884  10.601  1.3195  2.6349 -1.3074
  631MOL0     H83238   8.109   3.042  10.673 -2.4313  0.0782 -0.8227
  631MOL0     H83239   7.886   2.952  10.721  1.3013 -1.7983  1.6864
  631MOL0     H83240   7.939   2.791  10.672 -1.8015 -0.7422 -2.3434
  631MOL0     H83241   7.972   2.885  10.438  0.2905 -0.6169 -0.2637
  631MOL0     H83242   7.800   2.861  10.492 -0.7038  0.8602  0.5458
  631MOL0     H83243   7.907   3.084  10.375 -1.7386 -2.1267 -0.6314
  631MOL0     H83244   7.941   3.118  10.541 -0.3167 -1.7839  1.2059
  631MOL0     H83245   7.715   3.198  10.694  2.3470 -1.8456 -0.8645
  631MOL0     H83246   7.364   3.296  10.619 -0.5729 -0.3933 -0.1583
  631MOL0     H83247   7.482   3.283  10.750 -0.9768 -2.0675  2.2347
  631MOL0     H83248   7.304   3.159  10.803 -0.4353  2.2916 -1.9463
  631MOL0     H83249   7.430   3.038  10.775  0.7688 -0.5233  0.1118
  631MOL0     H83250   7.235   3.137  10.550  0.6589  1.0673 -0.4839
  631MOL0     H83251   7.329   2.991  10.549  1.7252 -0.6740  2.0468
  631MOL0     H83252   7.191   2.913  10.771  0.6219  2.3477  1.4516
  631MOL0     H83253   7.132   2.902  10.603 -0.2862  0.0196 -0.6025
  631MOL0     H83254   6.998   3.090  10.966 -1.0943  1.6395 -1.0223
  631MOL0     H83255   6.853   2.920  11.099 -7.0016 -2.0130 -0.4106
  631MOL0     H83256   6.348   2.723  10.898 -3.5367 -0.3014 -0.3056
  631MOL0     H83257   6.169   2.593  11.009  0.3166 -1.2522 -0.2035
  631MOL0     H83258   6.289   2.184  11.193 -0.2677 -1.1279  0.5972
  631MOL0     H83259   6.218   2.208  11.038 -0.0160  2.1712  0.2072
  631MOL0     H83260   5.995   2.184  11.135 -0.3156 -1.4527  0.7378
  631MOL0     H83261   6.072   2.198  11.298  0.1134 -1.0861  0.5776
  631MOL0     H83262   6.214   1.976  11.230  0.8595  2.2575 -2.1982
  631MOL0     H83263   6.097   1.968  11.102 -2.2455  1.1882  0.0386
  631MOL0     H83264   6.024   1.829  11.287  0.0654  0.2567 -2.7984
  631MOL0     H83265   6.041   1.972  11.394 -0.2777  2.6467 -0.5346
  631MOL0     H83266   5.841   1.992  11.164  0.1659  1.8355  0.1167
  631MOL0     H83267   5.854   2.085  11.310 -0.0248  1.0134 -0.5203
  631MOL0     H83268   5.832   1.878  11.441  0.8368  2.0678 -0.4198
  631MOL0     H83269   5.758   1.796  11.293 -2.8255  0.1039 -0.7213
  631MOL0     H83270   5.586   1.894  11.440 -3.5886  0.5101 -3.1812
  631MOL0     H83271   5.654   2.051  11.400  2.1641 -0.0299 -1.3167
  631MOL0     H83272   5.608   1.995  11.155  0.4057  1.0108  0.8961
  631MOL0     H83273   5.470   2.019  11.265  0.0160 -0.9124  2.5343
  631MOL0     H83274   6.459   2.315  11.156 -0.8408 -0.2616  0.1541
  631MOL0     H83275   6.637   2.443  11.041 -0.2054  0.0975 -0.4443
  631MOL0     H83276   6.696   2.786  10.715 -0.1469 -0.3548  0.3247
  631MOL0     H83277   6.864   2.903  10.599 -1.3906  0.4809 -0.7884
  631MOL0     H83278   8.832   2.922  10.763 -1.4556  0.0100 -0.9765
  631MOL0     H83279   9.035   3.069  10.808  0.3358  0.6554 -0.4977
  631MOL0     H83280   9.233   3.608  10.854  0.9104 -1.3179 -0.8545
  631MOL0     H83281   9.463   3.648  10.870 -3.0845  0.7240 -1.5817
  631MOL0     H83282   9.664   3.470  11.180  3.3910 -1.2810 -0.7534
  631MOL0     H83283   9.631   3.631  11.087 -1.1121 -0.3519 -3.7831
  631MOL0     H83284   9.860   3.584  11.187 -2.2386  1.6490  0.3790
  631MOL0     H83285   9.867   3.450  11.071 -1.3126 -1.2692  1.4604
  631MOL0     H83286   9.830   3.744  10.970 -0.1728  1.0070  0.5045
  631MOL0     H83287   9.874   3.594  10.889 -0.4787 -1.7209  1.1584
  631MOL0     H83288  10.005   3.739  11.120  0.1606 -0.2179  0.5451
  631MOL0     H83289  10.066   3.587  11.055 -0.0784 -1.7407 -2.6774
  631MOL0     H83290  10.198   3.883  10.763 -1.7801 -0.0716 -1.1083
  631MOL0     H83291   9.517   3.241  11.018 -1.0160 -1.2282 -1.3334
  631MOL0     H83292   9.275   3.213  11.012 -1.8649  0.1910 -0.1721
  632MOL0     O83293   6.353   9.514   2.678  0.1257  0.9804  0.0264
  632MOL0     C83294   6.397   9.628   2.712  0.5535 -1.0434 -0.2646
  632MOL0     O83295   6.316   9.741   2.747 -0.1980  0.5685 -0.6304
  632MOL0     C83296   6.177   9.723   2.727 -0.5389  0.0516  0.7824
  632MOL0     C83297   6.113   9.660   2.613 -0.0260  0.6175 -0.4687
  632MOL0     C83298   5.968   9.657   2.612 -0.3667 -0.1536  0.1244
  632MOL0     C83299   5.889   9.718   2.706 -0.2918 -0.0663 -0.2513
  632MOL0     O83300   5.756   9.732   2.671 -0.3469 -0.1750 -0.0213
  632MOL0     C83301   5.661   9.746   2.774 -0.1243 -0.6408  0.8905
  632MOL0     C83302   5.527   9.682   2.736  0.2425  0.2457  0.6228
  632MOL0     C83303   5.519   9.552   2.806 -0.5688 -0.1126  0.4575
  632MOL0     C83304   5.377   9.484   2.795  0.3167  0.6222  0.2983
  632MOL0     C83305   5.375   9.337   2.845 -0.4692 -0.8018 -0.3039
  632MOL0     C83306   5.350   9.329   3.003 -0.7066  0.9349  0.3363
  632MOL0     C83307   5.204   9.348   3.050  0.6406 -0.3479 -0.3156
  632MOL0     C83308   5.118   9.231   3.013 -0.6955 -0.7238  0.9626
  632MOL0     N83309   4.990   9.253   3.071 -0.2525 -0.0165 -0.3298
  632MOL0     C83310   4.951   9.234   3.202  0.9660  0.5815 -0.0957
  632MOL0     C83311   4.813   9.236   3.204 -0.1072 -0.1385  0.1399
  632MOL0     C83312   4.730   9.199   3.314  0.0895  0.0452 -0.2827
  632MOL0     C83313   4.597   9.264   3.319  0.1604 -0.4982 -0.2015
  632MOL0     C83314   4.528   9.248   3.448 -0.5579  0.5403 -0.4598
  632MOL0     C83315   4.388   9.289   3.448 -1.0500  0.3668 -0.3992
  632MOL0     O83316   4.312   9.209   3.547 -0.0020 -0.7078  0.3839
  632MOL0     C83317   4.174   9.186   3.542  0.2122 -0.4434  1.2226
  632MOL0     C83318   4.119   9.093   3.619  0.0163 -0.2830  0.9964
  632MOL0     C83319   3.979   9.074   3.622  0.0382  0.1618  0.3674
  632MOL0     C83320   3.895   9.149   3.535 -0.1207  0.2540 -0.4908
  632MOL0     C83321   3.746   9.130   3.539  0.8504 -0.0124 -0.4713
  632MOL0     O83322   3.689   9.020   3.603 -0.6078 -0.0581 -0.0613
  632MOL0     C83323   3.556   9.017   3.620  0.4260 -0.8230  0.7889
  632MOL0     C83324   3.490   9.116   3.706 -0.1895  1.1054 -0.3976
  632MOL0     C83325   3.351   9.104   3.726 -0.0692  0.4609  0.2162
  632MOL0     C83326   3.275   9.011   3.661 -0.7005  1.0625  0.1417
  632MOL0     O83327   3.142   9.004   3.660  0.0715  0.1088  0.4006
  632MOL0     C83328   3.054   9.098   3.713  0.2255  1.0181 -1.0416
  632MOL0     C83329   2.905   9.054   3.686  0.5088  0.6807 -0.8642
  632MOL0     C83330   2.882   9.007   3.540  0.1828 -0.3838 -0.0751
  632MOL0     C83331   2.744   8.935   3.536  0.0719 -0.6736 -0.0049
  632MOL0     C83332   2.626   9.027   3.507 -0.2801  0.4577  0.9050
  632MOL0     C83333   2.630   9.074   3.355  0.0192  0.6171  0.7298
  632MOL0     C83334   2.515   9.155   3.312  0.4560 -0.2979  0.6878
  632MOL0     C83335   2.533   9.226   3.182 -0.1193  0.2294  0.2966
  632MOL0    Cl83336   2.385   9.315   3.168  0.5790  0.4275 -0.0166
  632MOL0     C83337   3.347   8.923   3.575  0.6190 -0.2986 -0.4075
  632MOL0     C83338   3.484   8.923   3.555 -0.1557  0.0398  0.3785
  632MOL0     O83339   3.681   9.219   3.483 -0.2319  0.5597 -0.4584
  632MOL0     C83340   3.953   9.254   3.458  0.7361 -0.1192  0.1199
  632MOL0     C83341   4.091   9.273   3.471 -0.5045 -0.3721 -1.1495
  632MOL0     N83342   4.772   9.256   3.070 -0.3968  0.0562 -0.0497
  632MOL0     N83343   4.879   9.264   2.992 -0.8272 -0.0132  0.4090
  632MOL0     C83344   5.950   9.780   2.814 -0.0814  0.4349 -0.3207
  632MOL0     C83345   6.089   9.785   2.815  0.0392  0.3860  0.6131
  632MOL0     C83346   6.543   9.654   2.704  0.0006 -0.1506 -0.0032
  632MOL0     C83347   6.629   9.550   2.713 -0.2944 -0.3705  0.1078
  632MOL0     C83348   6.763   9.571   2.705  0.3835 -0.8661  0.3468
  632MOL0     C83349   6.817   9.705   2.703 -0.0291  0.4972  0.4448
  632MOL0     O83350   6.951   9.712   2.731 -0.4178  0.1213 -0.3701
  632MOL0     C83351   7.001   9.848   2.756 -0.6359  0.0217 -0.6437
  632MOL0     C83352   7.151   9.840   2.784 -0.3951 -0.2098  0.4281
  632MOL0     C83353   7.221   9.766   2.677  0.0279  0.0794  0.9281
  632MOL0     C83354   7.365   9.796   2.643  0.1114  0.4009  0.0178
  632MOL0     C83355   7.469   9.817   2.746  0.4855 -0.0428  0.1657
  632MOL0     C83356   7.562   9.831   2.817 -0.3901 -0.3679  0.2318
  632MOL0     C83357   6.726   9.811   2.706 -0.9775 -0.1301 -0.4778
  632MOL0     C83358   6.593   9.787   2.698 -0.3236 -0.0243 -0.9349
  632MOL0     H83359   6.166   9.594   2.546  1.1359  0.8453  0.2038
  632MOL0     H83360   5.926   9.606   2.526 -0.5651  1.7737 -0.9652
  632MOL0     H83361   5.634   9.852   2.785  0.8833 -0.2476 -0.2058
  632MOL0     H83362   5.696   9.700   2.867 -0.3827  1.1235  1.8965
  632MOL0     H83363   5.518   9.671   2.628 -3.4951 -0.5915  0.8771
  632MOL0     H83364   5.444   9.746   2.767 -1.2491 -0.3216 -1.9555
  632MOL0     H83365   5.545   9.567   2.911  1.3129 -0.3686  0.0528
  632MOL0     H83366   5.588   9.479   2.764 -0.3539  0.7889 -0.8149
  632MOL0     H83367   5.313   9.546   2.860 -0.5470 -0.1239  0.1853
  632MOL0     H83368   5.330   9.474   2.697  1.4049  0.0014 -0.1745
  632MOL0     H83369   5.474   9.294   2.834  1.6294  3.0571  1.6173
  632MOL0     H83370   5.305   9.274   2.789 -1.9866 -1.6971  2.4028
  632MOL0     H83371   5.418   9.398   3.054 -2.6881 -0.3590  5.3942
  632MOL0     H83372   5.381   9.228   3.034  0.5859  1.9861  2.6931
  632MOL0     H83373   5.191   9.354   3.158 -6.1357 -1.5707 -0.5835
  632MOL0     H83374   5.155   9.436   3.006  1.0679  0.1330  0.1637
  632MOL0     H83375   5.168   9.144   3.057 -0.6091 -1.3808 -0.3814
  632MOL0     H83376   5.114   9.215   2.905 -0.7738 -0.8029  0.9773
  632MOL0     H83377   5.013   9.231   3.290 -1.1123 -3.3849  1.4739
  632MOL0     H83378   4.793   9.232   3.397 -0.3112 -1.0327  0.4783
  632MOL0     H83379   4.713   9.091   3.318 -0.0693  0.1024  2.0284
  632MOL0     H83380   4.539   9.222   3.237  0.7980 -0.4622 -0.6832
  632MOL0     H83381   4.602   9.366   3.281 -1.2402 -0.7233 -1.0526
  632MOL0     H83382   4.539   9.141   3.471  0.1888  0.3817 -1.4939
  632MOL0     H83383   4.572   9.313   3.524 -2.0987 -1.2806  2.1646
  632MOL0     H83384   4.359   9.256   3.347  5.8656  1.8665 -3.4756
  632MOL0     H83385   4.391   9.398   3.458  2.0008  0.2894  0.2939
  632MOL0     H83386   4.181   9.022   3.673  0.0091 -2.5723 -1.7977
  632MOL0     H83387   3.946   8.999   3.693 -0.4577 -1.6064 -1.6272
  632MOL0     H83388   3.544   9.198   3.752 -0.7698  0.8451  0.7841
  632MOL0     H83389   3.308   9.181   3.789  0.1043 -0.8020  1.9737
  632MOL0     H83390   3.083   9.194   3.668 -0.6074  0.6609 -2.3744
  632MOL0     H83391   3.068   9.110   3.821 -0.7645 -0.5317 -0.7187
  632MOL0     H83392   2.842   9.139   3.712  2.3619  1.5895  0.8637
  632MOL0     H83393   2.880   8.968   3.749 -0.6272  0.7884 -1.1372
  632MOL0     H83394   2.961   8.936   3.511 -0.6140 -1.5878  0.6065
  632MOL0     H83395   2.895   9.098   3.482  0.5334  0.1825  0.8687
  632MOL0     H83396   2.744   8.870   3.448 -2.2170 -0.5990 -0.1348
  632MOL0     H83397   2.735   8.874   3.627  2.0310  2.2992  2.3609
  632MOL0     H83398   2.636   9.113   3.574  3.6295  0.2219  0.8420
  632MOL0     H83399   2.528   8.977   3.512  1.1458 -2.4255  4.4129
  632MOL0     H83400   2.623   8.985   3.293 -0.6761 -0.5472  2.4133
  632MOL0     H83401   2.723   9.131   3.341 -0.2240  0.9801  0.5584
  632MOL0     H83402   2.435   9.082   3.295  1.1957 -1.8067  3.0756
  632MOL0     H83403   2.480   9.235   3.378 -1.4881  0.8192 -1.5703
  632MOL0     H83404   2.553   9.159   3.098  2.0659 -0.4344  1.2722
  632MOL0     H83405   2.612   9.301   3.186 -0.9774  1.0945  2.5462
  632MOL0     H83406   3.282   8.856   3.518 -0.1288  0.9425 -1.0546
  632MOL0     H83407   3.546   8.870   3.484  1.4370 -1.1072  2.4794
  632MOL0     H83408   3.891   9.324   3.405  0.2852 -0.0610  0.7106
  632MOL0     H83409   4.133   9.351   3.409  0.1754 -0.9182 -1.3942
  632MOL0     H83410   5.892   9.829   2.892  0.5343  0.2255  0.2692
  632MOL0     H83411   6.131   9.850   2.892 -0.8490  2.6994 -0.7620
  632MOL0     H83412   6.591   9.451   2.736 -1.0352 -0.0160  0.4000
  632MOL0     H83413   6.821   9.479   2.709 -1.1403 -1.8357  0.8031
  632MOL0     H83414   6.962   9.889   2.849  2.0135  0.6820  0.2672
  632MOL0     H83415   6.967   9.920   2.680 -1.0073  0.2981 -0.2153
  632MOL0     H83416   7.189   9.942   2.790  3.2555 -1.5074  2.3921
  632MOL0     H83417   7.162   9.783   2.876 -1.1131 -0.3767  0.4170
  632MOL0     H83418   7.167   9.781   2.583  3.2774 -3.4204 -1.7746
  632MOL0     H83419   7.221   9.657   2.677  2.2195  0.0110 -0.7490
  632MOL0     H83420   7.411   9.719   2.580 -2.4826 -0.5251 -0.8975
  632MOL0     H83421   7.358   9.888   2.584 -1.2457  0.7700  0.7297
  632MOL0     H83422   7.643   9.855   2.883 -1.2719  2.4500  0.4540
  632MOL0     H83423   6.762   9.913   2.709 -1.4639  0.0489 -0.6059
  632MOL0     H83424   6.524   9.869   2.714  0.0640 -0.1687  1.9192
  633MOL0     O83425   6.163   9.035   5.909 -0.5041 -0.0247  0.4313
  633MOL0     C83426   6.243   8.967   5.848  1.1792  0.4009  0.0328
  633MOL0     O83427   6.217   8.856   5.774  0.3133  0.3383 -0.3327
  633MOL0     C83428   6.098   8.776   5.797  0.4854 -0.6294  0.8125
  633MOL0     C83429   6.051   8.758   5.924 -0.1480 -0.6497  0.7092
  633MOL0     C83430   5.951   8.669   5.954  0.5969 -0.2544  0.1439
  633MOL0     C83431   5.895   8.583   5.853  0.2573 -1.3841  0.5679
  633MOL0     O83432   5.796   8.490   5.866  0.7237  0.4841  0.0677
  633MOL0     C83433   5.710   8.489   5.978  0.4461 -0.0526  0.7943
  633MOL0     C83434   5.598   8.587   5.940 -0.0441  0.6120  0.6923
  633MOL0     C83435   5.483   8.531   5.854  0.1977 -0.1394 -0.3951
  633MOL0     C83436   5.387   8.638   5.821  0.2592  0.3391  1.1559
  633MOL0     C83437   5.248   8.579   5.785 -0.5115 -0.2309  0.2313
  633MOL0     C83438   5.180   8.514   5.897 -0.4064 -0.2770  0.7172
  633MOL0     C83439   5.042   8.474   5.851 -0.0688  0.2983 -0.6281
  633MOL0     C83440   4.959   8.400   5.961  0.2868 -0.5888 -0.4075
  633MOL0     N83441   4.821   8.366   5.911 -1.0119  0.9919  1.5096
  633MOL0     C83442   4.786   8.294   5.796  0.1444 -0.2523  0.3818
  633MOL0     C83443   4.655   8.290   5.782 -0.0590  0.8088  0.4537
  633MOL0     C83444   4.564   8.230   5.678  0.7186 -0.5617  0.5484
  633MOL0     C83445   4.564   8.077   5.712 -0.1524 -0.6798  0.6840
  633MOL0     C83446   4.468   7.999   5.610 -0.7882 -0.4306 -0.1760
  633MOL0     C83447   4.440   7.862   5.661 -0.2735  0.0797 -0.0622
  633MOL0     O83448   4.379   7.867   5.792 -0.6417  1.1032 -0.5672
  633MOL0     C83449   4.329   7.753   5.854  0.8546 -0.1711 -0.2543
  633MOL0     C83450   4.263   7.763   5.979  0.0070 -0.3872 -0.7233
  633MOL0     C83451   4.220   7.654   6.050 -0.2115 -0.5099  0.1605
  633MOL0     C83452   4.218   7.527   5.995  0.7324  0.0773 -0.2067
  633MOL0     C83453   4.181   7.422   6.080  0.2753 -0.6399 -0.8024
  633MOL0     O83454   4.149   7.455   6.213  0.6596 -0.6490  0.1196
  633MOL0     C83455   4.095   7.354   6.297 -0.5903 -0.7046 -0.5296
  633MOL0     C83456   3.962   7.335   6.288  1.1381 -0.0412 -0.3534
  633MOL0     C83457   3.894   7.249   6.379 -0.2691 -0.2422  0.1804
  633MOL0     C83458   3.964   7.185   6.486  0.9433  0.9484 -0.0609
  633MOL0     O83459   3.906   7.100   6.576 -0.2916 -0.3702  0.3296
  633MOL0     C83460   3.781   7.138   6.626  0.6378  0.2006  0.4937
  633MOL0     C83461   3.776   7.283   6.680  0.2230 -0.2720 -0.5424
  633MOL0     C83462   3.867   7.290   6.809  0.0414 -0.0741  0.1468
  633MOL0     C83463   3.892   7.430   6.849  0.0301  0.4759  0.3900
  633MOL0     C83464   3.994   7.464   6.954 -0.1233  0.4145  0.1595
  633MOL0     C83465   4.129   7.411   6.908  0.3187  0.0786 -0.4495
  633MOL0     C83466   4.237   7.478   6.995  0.5636 -0.3679 -0.2115
  633MOL0     C83467   4.374   7.408   6.989 -0.5202 -0.0021 -1.0171
  633MOL0    Cl83468   4.487   7.489   7.093 -0.2566 -0.2143  0.2689
  633MOL0     C83469   4.104   7.204   6.482  0.1178 -0.1979  0.5720
  633MOL0     C83470   4.167   7.288   6.387  0.2796 -0.1313  0.3576
  633MOL0     O83471   4.165   7.316   6.020 -0.0214  0.0302 -0.3614
  633MOL0     C83472   4.279   7.508   5.875 -0.3742  0.6351  0.9414
  633MOL0     C83473   4.344   7.620   5.807 -0.2308  0.5797 -0.7647
  633MOL0     N83474   4.612   8.354   5.905  0.3254 -0.6747 -0.0417
  633MOL0     N83475   4.711   8.384   5.978 -0.4908  0.4841 -0.1437
  633MOL0     C83476   5.928   8.620   5.718 -0.1714 -0.1395 -0.1056
  633MOL0     C83477   6.030   8.710   5.692 -0.0746  0.5952 -0.1818
  633MOL0     C83478   6.392   9.004   5.860  0.1544 -0.0004  0.5601
  633MOL0     C83479   6.432   9.098   5.958 -0.0218 -0.4019  0.3456
  633MOL0     C83480   6.562   9.131   5.970  0.4346 -0.4357  0.3363
  633MOL0     C83481   6.652   9.088   5.879  0.1365  1.5701  1.2124
  633MOL0     O83482   6.777   9.134   5.894  0.0110  0.0599  0.3094
  633MOL0     C83483   6.869   9.129   5.787 -0.3849  0.7203 -0.0281
  633MOL0     C83484   6.820   9.218   5.672 -0.3223  0.4161  0.6146
  633MOL0     C83485   6.791   9.368   5.722  0.1599  0.7634 -0.7422
  633MOL0     C83486   6.704   9.441   5.623 -0.0228 -0.6880  0.3380
  633MOL0     C83487   6.779   9.442   5.501  0.8194  0.1784  0.2781
  633MOL0     C83488   6.847   9.429   5.399  0.7534 -0.9485  0.5343
  633MOL0     C83489   6.611   8.986   5.781 -0.3260 -0.1303 -0.5824
  633MOL0     C83490   6.482   8.952   5.768 -0.1209 -0.6666  0.0600
  633MOL0     H83491   6.103   8.807   6.005  2.6398 -0.1055 -1.2524
  633MOL0     H83492   5.927   8.647   6.058  4.4088  0.8322  1.4241
  633MOL0     H83493   5.746   8.523   6.075 -3.4122  2.4672  1.5409
  633MOL0     H83494   5.655   8.395   5.987 -2.9477  1.8111  1.1823
  633MOL0     H83495   5.650   8.673   5.895  2.8635 -0.2988  2.1161
  633MOL0     H83496   5.553   8.625   6.032  0.9970  1.1831  0.9836
  633MOL0     H83497   5.440   8.451   5.915  1.8364  1.2143  2.7728
  633MOL0     H83498   5.522   8.482   5.764 -0.6176 -0.1240 -0.7670
  633MOL0     H83499   5.373   8.708   5.904 -0.4791  1.7957 -0.1459
  633MOL0     H83500   5.425   8.682   5.729  2.5561 -1.0136  1.3999
  633MOL0     H83501   5.249   8.507   5.703  1.8110 -0.0968  0.0740
  633MOL0     H83502   5.181   8.663   5.768  0.1589  0.3891  0.6088
  633MOL0     H83503   5.183   8.589   5.977 -1.8056 -0.3632  0.8860
  633MOL0     H83504   5.234   8.428   5.937 -2.6885 -1.1550  2.1050
  633MOL0     H83505   4.983   8.562   5.825 -1.8833 -0.7506 -0.2361
  633MOL0     H83506   5.051   8.408   5.763 -0.3040 -1.0154  0.2938
  633MOL0     H83507   4.942   8.460   6.051 -1.4569 -1.4941 -0.0877
  633MOL0     H83508   5.006   8.305   5.987  0.8074 -0.3303 -0.3798
  633MOL0     H83509   4.867   8.256   5.734  0.4195  1.5635 -0.4404
  633MOL0     H83510   4.595   8.244   5.574 -1.7461  0.3251 -0.1262
  633MOL0     H83511   4.468   8.280   5.692  0.8973  0.1035 -0.4476
  633MOL0     H83512   4.525   8.062   5.813  0.1002 -2.8931  0.5014
  633MOL0     H83513   4.665   8.035   5.705  0.1737  0.1245  0.4091
  633MOL0     H83514   4.371   8.049   5.605 -0.9306 -0.7544 -0.6689
  633MOL0     H83515   4.521   7.995   5.515  0.2147  1.6539  0.2360
  633MOL0     H83516   4.536   7.809   5.664  0.1960  0.9360  0.1899
  633MOL0     H83517   4.367   7.811   5.597 -0.7381  0.5828  0.0618
  633MOL0     H83518   4.241   7.858   6.027  2.1330 -0.6880  1.0352
  633MOL0     H83519   4.188   7.674   6.152  2.6855 -0.8205  1.2137
  633MOL0     H83520   3.912   7.402   6.219  0.6587 -0.5661 -0.5262
  633MOL0     H83521   3.786   7.242   6.369 -0.1297 -1.5040 -0.6415
  633MOL0     H83522   3.756   7.074   6.711  0.5875  0.2819  0.5398
  633MOL0     H83523   3.710   7.135   6.543 -0.8628  0.8538  1.7033
  633MOL0     H83524   3.673   7.297   6.713  0.3802 -3.7026  1.9241
  633MOL0     H83525   3.807   7.349   6.598  0.8371 -0.1843 -0.2474
  633MOL0     H83526   3.959   7.235   6.788 -0.4361 -2.1981  3.0659
  633MOL0     H83527   3.811   7.242   6.889  1.4334 -0.1636  1.1158
  633MOL0     H83528   3.922   7.481   6.756 -1.3782 -0.2865 -0.5147
  633MOL0     H83529   3.793   7.462   6.882 -0.3004  0.3876 -0.4944
  633MOL0     H83530   3.963   7.417   7.048  0.9782  0.8373  0.7480
  633MOL0     H83531   4.000   7.571   6.977  1.9565 -0.4318  4.5011
  633MOL0     H83532   4.143   7.429   6.801  2.6905 -0.0030 -0.2230
  633MOL0     H83533   4.146   7.304   6.923  2.1558  0.3650 -0.2760
  633MOL0     H83534   4.244   7.584   6.967  1.4375 -0.4744 -0.4169
  633MOL0     H83535   4.209   7.469   7.100  2.0854 -1.0086  0.1594
  633MOL0     H83536   4.415   7.408   6.888  2.7832  1.6633  0.1572
  633MOL0     H83537   4.362   7.304   7.019 -1.3105  0.5382  0.6724
  633MOL0     H83538   4.169   7.173   6.563  3.5146 -1.3941 -2.3334
  633MOL0     H83539   4.273   7.309   6.391  0.1388  0.6392  0.0834
  633MOL0     H83540   4.314   7.420   5.821  1.4298  1.4736  0.6799
  633MOL0     H83541   4.398   7.589   5.717 -1.5991 -0.3093 -1.3127
  633MOL0     H83542   5.875   8.570   5.638  0.3480  1.2175 -1.3360
  633MOL0     H83543   6.055   8.729   5.588  1.6762  0.0695  0.1093
  633MOL0     H83544   6.366   9.151   6.025  0.8773  1.7364 -0.3823
  633MOL0     H83545   6.584   9.209   6.043  0.1887  0.1070 -0.1612
  633MOL0     H83546   6.892   9.025   5.760  0.3401 -0.0031  2.9716
  633MOL0     H83547   6.965   9.175   5.812  1.3367 -2.3041 -0.5433
  633MOL0     H83548   6.892   9.233   5.591 -1.6738 -0.6579 -0.8483
  633MOL0     H83549   6.729   9.178   5.626 -1.0402  1.8702  0.7156
  633MOL0     H83550   6.889   9.415   5.731  1.5339 -2.2718  4.3179
  633MOL0     H83551   6.735   9.369   5.816  2.0257 -0.6597  0.4580
  633MOL0     H83552   6.604   9.400   5.608 -0.3168  0.6125 -1.6484
  633MOL0     H83553   6.705   9.546   5.657  0.4253  0.2324 -2.3043
  633MOL0     H83554   6.919   9.426   5.320  0.0242 -1.6240 -0.1128
  633MOL0     H83555   6.689   8.927   5.735 -1.0319 -1.8451  0.3669
  633MOL0     H83556   6.440   8.897   5.684 -2.0701  3.7447 -2.2010
  634MOL0     O83557   8.605   0.850  10.886  0.8424 -0.7332  0.3694
  634MOL0     C83558   8.689   0.795  10.954 -0.1691 -0.6076  0.2510
  634MOL0     O83559   8.660   0.700  11.056 -0.8063  0.3863 -0.4239
  634MOL0     C83560   8.549   0.623  11.055  0.0872  0.0575 -0.0759
  634MOL0     C83561   8.511   0.552  11.171  0.2042  0.2908 -0.2743
  634MOL0     C83562   8.415   0.452  11.167  0.0409  0.0762  0.0502
  634MOL0     C83563   8.338   0.422  11.058 -0.1811 -0.2590 -0.1902
  634MOL0     O83564   8.250   0.318  11.072 -0.7124  0.7283  0.8597
  634MOL0     C83565   8.182   0.294  11.199 -1.2036 -0.0070  0.7492
  634MOL0     C83566   8.050   0.226  11.163  0.3286  0.9725 -0.4360
  634MOL0     C83567   8.055   0.076  11.122 -0.3565 -0.2808  0.3525
  634MOL0     C83568   8.102   0.027  10.983 -0.6277 -0.4826  0.2597
  634MOL0     C83569   8.090  -0.127  10.979 -0.0589 -0.2233 -0.5465
  634MOL0     C83570   7.947  -0.172  11.015 -0.6179 -1.1149  0.6331
  634MOL0     C83571   7.907  -0.311  10.973  0.0514 -0.7823 -0.2971
  634MOL0     C83572   7.753  -0.329  10.992 -0.0046  0.0965  0.1633
  634MOL0     N83573   7.685  -0.385  10.872 -0.1278 -0.2616 -0.3707
  634MOL0     C83574   7.603  -0.327  10.781  0.9564 -0.6398  1.0019
  634MOL0     C83575   7.537  -0.419  10.711 -0.1389  0.1772  0.5749
  634MOL0     C83576   7.425  -0.398  10.630 -0.3424  0.2402 -0.0339
  634MOL0     C83577   7.299  -0.373  10.718  0.8225  0.8258 -0.4855
  634MOL0     C83578   7.220  -0.505  10.731 -0.2252 -0.7239  0.5644
  634MOL0     C83579   7.100  -0.491  10.816 -0.8500 -0.5301  0.5353
  634MOL0     O83580   7.017  -0.608  10.799 -0.5702 -0.2403 -0.9555
  634MOL0     C83581   6.889  -0.606  10.847  0.6037  0.1566  0.2269
  634MOL0     C83582   6.841  -0.512  10.935  0.0791 -0.0854 -0.6827
  634MOL0     C83583   6.709  -0.509  10.978  0.3777  0.3673 -0.8154
  634MOL0     C83584   6.611  -0.600  10.928 -0.1809  0.0808  0.1753
  634MOL0     C83585   6.467  -0.592  10.944  1.5234 -0.0863  0.6744
  634MOL0     O83586   6.389  -0.678  10.868  0.2486  0.0325 -0.2157
  634MOL0     C83587   6.246  -0.668  10.865 -0.3161 -0.4018 -1.0417
  634MOL0     C83588   6.169  -0.669  10.982 -0.1968  0.2830  0.2634
  634MOL0     C83589   6.030  -0.636  10.978  0.3721  0.0601 -1.2227
  634MOL0     C83590   5.971  -0.603  10.856  0.4387 -0.9893 -1.0985
  634MOL0     O83591   5.834  -0.593  10.852  0.3213 -0.2925  0.0067
  634MOL0     C83592   5.764  -0.678  10.754  0.2251  0.4436 -0.2993
  634MOL0     C83593   5.627  -0.605  10.739  1.1721  0.6117  0.1171
  634MOL0     C83594   5.538  -0.694  10.645 -0.2312  0.6472 -0.4319
  634MOL0     C83595   5.397  -0.626  10.641  0.5464  0.2345  0.1015
  634MOL0     C83596   5.277  -0.695  10.700  0.1361 -0.4283 -0.9178
  634MOL0     C83597   5.144  -0.621  10.677  0.5964  0.8621 -0.3500
  634MOL0     C83598   5.022  -0.716  10.696  0.0040  0.1565 -0.4733
  634MOL0     C83599   4.898  -0.637  10.662  0.0864  0.1213 -0.3402
  634MOL0    Cl83600   4.752  -0.738  10.658 -0.3564 -0.1471  0.1935
  634MOL0     C83601   6.047  -0.581  10.746  0.7835  0.7358  0.2089
  634MOL0     C83602   6.188  -0.611  10.756  0.8061  0.4784  0.2382
  634MOL0     O83603   6.424  -0.493  10.996  0.9290 -0.4147 -0.4078
  634MOL0     C83604   6.666  -0.696  10.841 -0.3840  0.7575  0.2423
  634MOL0     C83605   6.798  -0.706  10.802  0.0236 -0.2163  0.1797
  634MOL0     N83606   7.577  -0.548  10.766  0.0591 -1.2276 -0.1345
  634MOL0     N83607   7.667  -0.519  10.861 -1.2742 -1.0988 -0.2103
  634MOL0     C83608   8.369   0.497  10.945 -0.1739 -0.3943 -0.9473
  634MOL0     C83609   8.471   0.597  10.940  0.3342  0.0952  0.2749
  634MOL0     C83610   8.828   0.844  10.952 -0.1662  0.3676  0.0526
  634MOL0     C83611   8.928   0.780  11.036 -0.5456 -0.6775 -1.0516
  634MOL0     C83612   9.046   0.846  11.049  0.2644  0.3963  0.7413
  634MOL0     C83613   9.080   0.957  10.972  0.0132 -0.1978 -0.6240
  634MOL0     O83614   9.206   1.015  10.980  0.1151 -0.0718  0.2494
  634MOL0     C83615   9.315   0.909  10.990 -0.7694 -0.0291  0.5453
  634MOL0     C83616   9.443   0.972  10.940 -0.5138  1.5887  0.2135
  634MOL0     C83617   9.522   1.051  11.041  0.1322 -0.9006 -0.8619
  634MOL0     C83618   9.445   1.153  11.124 -0.2957  0.3805 -0.3242
  634MOL0     C83619   9.541   1.216  11.222 -0.1027  0.5528  0.1181
  634MOL0     C83620   9.605   1.256  11.313 -0.9499  0.2086 -0.3439
  634MOL0     C83621   8.989   1.009  10.883 -0.3012 -1.0630  0.5358
  634MOL0     C83622   8.866   0.946  10.868  0.1670 -0.8677  0.2815
  634MOL0     H83623   8.575   0.561  11.258  2.4410 -1.4216 -1.6288
  634MOL0     H83624   8.395   0.408  11.265  0.3834  0.8359  0.4701
  634MOL0     H83625   8.151   0.389  11.243  0.7300  1.6331 -1.1615
  634MOL0     H83626   8.235   0.216  11.256  0.2945  1.1297  0.9688
  634MOL0     H83627   7.992   0.282  11.088 -1.7113  1.0566  1.1048
  634MOL0     H83628   7.982   0.234  11.249 -0.9859  1.5998 -1.4864
  634MOL0     H83629   7.949   0.048  11.126 -0.7266  1.0832  0.8036
  634MOL0     H83630   8.108   0.017  11.197 -1.9959 -0.1862  1.6390
  634MOL0     H83631   8.055   0.073  10.895 -2.6857 -2.5429  0.1983
  634MOL0     H83632   8.205   0.062  10.983 -0.8417  0.1797 -0.2725
  634MOL0     H83633   8.172  -0.178  11.032  0.0919  1.1038  0.5604
  634MOL0     H83634   8.108  -0.148  10.873 -3.3750  2.9915 -1.9728
  634MOL0     H83635   7.873  -0.104  10.972 -1.2094 -1.6823  0.7431
  634MOL0     H83636   7.929  -0.167  11.123 -0.4802 -0.5196  0.6289
  634MOL0     H83637   7.934  -0.331  10.869  0.3410 -2.8443  0.1221
  634MOL0     H83638   7.952  -0.389  11.036 -3.8261 -2.7334  0.3336
  634MOL0     H83639   7.710  -0.230  11.010 -1.4296 -0.2274 -1.2169
  634MOL0     H83640   7.739  -0.401  11.073  1.4757 -0.3696  0.0354
  634MOL0     H83641   7.580  -0.222  10.764  0.8835 -1.1246 -2.9327
  634MOL0     H83642   7.422  -0.489  10.569  0.6974  1.3698 -1.8648
  634MOL0     H83643   7.435  -0.318  10.556  0.3326  0.3045  0.1186
  634MOL0     H83644   7.234  -0.301  10.667 -0.1055  1.6967  1.7787
  634MOL0     H83645   7.334  -0.331  10.813  4.5429 -1.4935 -0.6318
  634MOL0     H83646   7.185  -0.541  10.634 -2.8795 -1.7200  1.7874
  634MOL0     H83647   7.289  -0.582  10.769 -0.4001 -0.4318  1.5071
  634MOL0     H83648   7.047  -0.403  10.778  1.4173 -0.1308 -2.0003
  634MOL0     H83649   7.121  -0.474  10.922 -1.6442 -1.0176  0.7802
  634MOL0     H83650   6.893  -0.425  10.973 -2.6948  0.0922  3.4651
  634MOL0     H83651   6.676  -0.422  11.036 -1.5804 -0.6458 -0.2960
  634MOL0     H83652   6.215  -0.705  11.074 -2.8273 -3.3949  0.3476
  634MOL0     H83653   5.970  -0.642  11.068  2.6644 -1.1633  0.3169
  634MOL0     H83654   5.736  -0.773  10.799  2.4077 -0.4371 -0.6691
  634MOL0     H83655   5.825  -0.709  10.668 -0.9620  2.6462 -2.0550
  634MOL0     H83656   5.649  -0.511  10.686 -2.1934  1.5097  0.0750
  634MOL0     H83657   5.581  -0.586  10.836  2.1510  1.3869  0.4433
  634MOL0     H83658   5.524  -0.794  10.686  0.3045  0.0353 -1.7121
  634MOL0     H83659   5.598  -0.702  10.554  1.5731 -0.1857  0.7620
  634MOL0     H83660   5.397  -0.529  10.691 -1.2448  0.5304 -0.3962
  634MOL0     H83661   5.377  -0.606  10.535  1.3496 -1.7587 -0.4586
  634MOL0     H83662   5.297  -0.717  10.805  2.6648  1.1510 -0.9813
  634MOL0     H83663   5.264  -0.786  10.641 -0.5143  0.0218 -1.4834
  634MOL0     H83664   5.137  -0.585  10.574  1.5266 -0.2474 -0.8173
  634MOL0     H83665   5.139  -0.535  10.744 -3.3793 -0.7153  1.7709
  634MOL0     H83666   5.030  -0.802  10.628 -2.2180 -2.3535  2.1927
  634MOL0     H83667   5.015  -0.751  10.800 -1.9038 -1.8615 -1.2142
  634MOL0     H83668   4.915  -0.606  10.558 -0.9504 -1.1007 -0.8986
  634MOL0     H83669   4.894  -0.562  10.741 -2.1963 -2.8721  2.6495
  634MOL0     H83670   6.006  -0.548  10.650  0.9516  0.4151  0.0265
  634MOL0     H83671   6.249  -0.571  10.675  0.1600  3.2909  1.0301
  634MOL0     H83672   6.598  -0.772  10.805  1.3542 -0.1585 -1.2532
  634MOL0     H83673   6.830  -0.791  10.742 -0.9402 -1.8567  1.8898
  634MOL0     H83674   8.308   0.485  10.857 -0.2954  0.1161 -0.9374
  634MOL0     H83675   8.498   0.648  10.848  1.1758  0.6405  0.8127
  634MOL0     H83676   8.905   0.700  11.106  0.6968 -0.4449 -0.3373
  634MOL0     H83677   9.116   0.803  11.120  2.6674  1.0664 -1.0705
  634MOL0     H83678   9.289   0.831  10.917 -1.3161  1.1477 -0.5583
  634MOL0     H83679   9.326   0.861  11.088  2.0178 -1.5479 -0.3887
  634MOL0     H83680   9.511   0.900  10.893 -0.9557  0.5611  1.1062
  634MOL0     H83681   9.409   1.044  10.865 -2.3829 -0.2856 -0.8486
  634MOL0     H83682   9.608   1.099  10.994 -0.2951 -1.9880 -2.8680
  634MOL0     H83683   9.571   0.982  11.110  0.1895  0.5152  0.5693
  634MOL0     H83684   9.385   1.233  11.081 -0.4042  0.4476 -0.0460
  634MOL0     H83685   9.374   1.098  11.187 -1.4698  3.7198  1.5003
  634MOL0     H83686   9.655   1.297  11.399 -3.8750  2.9554  0.2266
  634MOL0     H83687   9.014   1.105  10.839 -0.8276  1.4918  5.1969
  634MOL0     H83688   8.800   0.999  10.799  2.7260 -0.2784 -1.8690
  635MOL0     O83689   4.120   1.836   2.190  0.1275  0.7233  0.3975
  635MOL0     C83690   4.070   1.940   2.152 -0.2019 -0.4289  0.1841
  635MOL0     O83691   4.124   2.037   2.071  1.0373  0.1368 -0.7355
  635MOL0     C83692   4.246   2.022   2.011 -0.1458 -0.4208 -0.2728
  635MOL0     C83693   4.258   1.987   1.877 -0.0896 -0.8173  0.9602
  635MOL0     C83694   4.382   1.985   1.811 -0.3527  0.2289 -0.1342
  635MOL0     C83695   4.502   2.007   1.872  0.4265  0.7836  0.2967
  635MOL0     O83696   4.621   2.013   1.799  0.3282 -0.0929 -0.4797
  635MOL0     C83697   4.708   2.121   1.840 -0.1546 -0.3146  0.8771
  635MOL0     C83698   4.846   2.086   1.773  0.1301  0.3386  0.0665
  635MOL0     C83699   4.954   2.198   1.793 -0.5314 -0.4481  0.0160
  635MOL0     C83700   5.097   2.150   1.746 -0.1332  0.3801  0.1199
  635MOL0     C83701   5.206   2.240   1.785  0.7280 -0.3443 -0.5783
  635MOL0     C83702   5.343   2.187   1.738 -0.1946 -0.5691  0.4139
  635MOL0     C83703   5.452   2.289   1.781  0.9516  0.2770 -0.5500
  635MOL0     C83704   5.595   2.223   1.768  0.4029 -0.1033 -0.2726
  635MOL0     N83705   5.705   2.316   1.797 -0.0902  0.5276 -0.5963
  635MOL0     C83706   5.828   2.291   1.856 -0.4185  0.7634  0.8874
  635MOL0     C83707   5.908   2.389   1.815 -0.2759 -0.3616  0.0581
  635MOL0     C83708   6.049   2.381   1.840  0.0631 -0.3280  0.5522
  635MOL0     C83709   6.086   2.500   1.925  0.0985 -0.2660 -0.1016
  635MOL0     C83710   6.086   2.624   1.839 -0.1841 -0.3961  0.4776
  635MOL0     C83711   6.164   2.740   1.902 -0.1349  0.3237 -0.1219
  635MOL0     O83712   6.082   2.803   2.006  0.1075  0.4864  0.0923
  635MOL0     C83713   5.979   2.881   1.966 -0.1302  0.7252 -0.7752
  635MOL0     C83714   5.938   2.909   1.832 -0.7709 -0.6471 -0.2991
  635MOL0     C83715   5.823   2.985   1.813  0.1042 -0.1812  0.1510
  635MOL0     C83716   5.738   3.028   1.913 -0.2810 -0.0211 -0.5121
  635MOL0     C83717   5.602   3.085   1.892  0.5913 -0.2435 -0.6309
  635MOL0     O83718   5.546   3.038   1.773 -0.0854 -1.2147  0.4210
  635MOL0     C83719   5.406   3.051   1.756 -0.3813  0.1410  0.7056
  635MOL0     C83720   5.329   2.944   1.745 -0.5251  1.4888 -0.2639
  635MOL0     C83721   5.188   2.947   1.745 -0.6189  0.8663  0.0221
  635MOL0     C83722   5.129   3.067   1.759 -0.3730  0.4517  0.2075
  635MOL0     O83723   4.995   3.087   1.778  0.2187  0.2924  0.4728
  635MOL0     C83724   4.917   2.972   1.806 -0.7839  0.4225  0.2465
  635MOL0     C83725   4.776   2.997   1.868  0.2704  0.1933 -0.1478
  635MOL0     C83726   4.756   2.993   2.015 -0.1055  0.6206  0.3286
  635MOL0     C83727   4.620   3.045   2.057  0.5450  1.3293 -0.2230
  635MOL0     C83728   4.609   3.112   2.203  0.2663  0.6234 -0.5420
  635MOL0     C83729   4.462   3.145   2.249  0.0667  0.3523  0.9267
  635MOL0     C83730   4.410   3.269   2.173 -0.0531 -0.4674  0.1188
  635MOL0     C83731   4.277   3.324   2.212 -0.2493  0.0374 -0.8233
  635MOL0    Cl83732   4.151   3.199   2.242  0.2239 -0.2151  0.0419
  635MOL0     C83733   5.209   3.181   1.762  0.4794  0.7565 -0.5449
  635MOL0     C83734   5.342   3.179   1.772 -1.2733 -0.1437 -0.7584
  635MOL0     O83735   5.541   3.138   1.986  0.7351 -0.4133 -0.2661
  635MOL0     C83736   5.787   3.016   2.042 -0.0603 -0.4787 -0.1382
  635MOL0     C83737   5.903   2.943   2.067  0.2139  1.1321 -0.7337
  635MOL0     N83738   5.823   2.482   1.755 -0.6081  1.0184  0.3644
  635MOL0     N83739   5.708   2.435   1.744  0.3644 -0.2261 -0.0529
  635MOL0     C83740   4.491   2.022   2.016 -0.5806 -1.0388 -1.0890
  635MOL0     C83741   4.370   2.036   2.078  0.2792 -0.3379 -0.9613
  635MOL0     C83742   3.935   1.965   2.201 -0.0553 -1.1424  0.8516
  635MOL0     C83743   3.875   2.092   2.196 -0.2399 -0.5648 -0.2494
  635MOL0     C83744   3.743   2.116   2.240 -0.5802  0.0873 -0.3607
  635MOL0     C83745   3.673   2.008   2.290  0.1428  0.5995  0.1860
  635MOL0     O83746   3.538   2.016   2.333  0.0016  0.4064 -0.5283
  635MOL0     C83747   3.454   2.124   2.291  0.1391  0.5843 -0.7234
  635MOL0     C83748   3.317   2.122   2.349 -0.7482 -0.4313  0.8074
  635MOL0     C83749   3.246   1.992   2.343 -0.5048 -0.5608 -0.3644
  635MOL0     C83750   3.092   2.011   2.370  1.0341  0.7350 -0.6723
  635MOL0     C83751   3.052   2.064   2.499  0.0711  1.5253  0.6342
  635MOL0     C83752   3.004   2.091   2.608  0.0167 -0.6226  0.2263
  635MOL0     C83753   3.731   1.879   2.293  0.1776 -0.2241 -0.2325
  635MOL0     C83754   3.861   1.859   2.250 -1.1747  0.7647  1.2359
  635MOL0     H83755   4.174   1.975   1.810  1.6222 -1.5531 -1.1829
  635MOL0     H83756   4.383   1.952   1.708 -1.8963  0.9137 -0.3871
  635MOL0     H83757   4.725   2.140   1.947 -0.3381  1.2492  0.6608
  635MOL0     H83758   4.665   2.208   1.789  0.7242  0.6270  1.6972
  635MOL0     H83759   4.823   2.080   1.667  0.1302  1.1606  0.0155
  635MOL0     H83760   4.887   1.992   1.812 -0.2103 -0.5150 -1.5537
  635MOL0     H83761   4.982   2.213   1.898  0.3348 -0.7813 -0.1654
  635MOL0     H83762   4.925   2.298   1.758  0.1117 -0.1348  0.3469
  635MOL0     H83763   5.129   2.061   1.800  1.9399  1.2648  0.4323
  635MOL0     H83764   5.078   2.138   1.639 -1.5020 -0.5203  0.4370
  635MOL0     H83765   5.196   2.262   1.892  0.0248  2.1808 -1.0977
  635MOL0     H83766   5.191   2.332   1.728 -0.2952 -1.2722 -1.8673
  635MOL0     H83767   5.357   2.179   1.630 -1.9869  1.0825 -0.0037
  635MOL0     H83768   5.362   2.091   1.786  0.9529  0.5936  2.4485
  635MOL0     H83769   5.442   2.381   1.722  0.9618  0.4742 -0.2500
  635MOL0     H83770   5.432   2.323   1.883 -2.9204 -0.9559 -0.7389
  635MOL0     H83771   5.610   2.184   1.668 -0.9705  0.8377 -0.8796
  635MOL0     H83772   5.591   2.133   1.830 -2.6742 -1.1708 -1.8164
  635MOL0     H83773   5.858   2.207   1.917 -0.0417  1.5880  1.8622
  635MOL0     H83774   6.104   2.382   1.746  2.3216 -1.3284  1.7734
  635MOL0     H83775   6.080   2.288   1.889  2.9665 -0.3603 -1.1352
  635MOL0     H83776   6.188   2.484   1.962 -0.1155 -3.6501 -0.7335
  635MOL0     H83777   6.019   2.503   2.011 -1.5110  0.5246 -1.3357
  635MOL0     H83778   6.143   2.606   1.748  2.0720  2.1006  1.2613
  635MOL0     H83779   5.981   2.650   1.820  0.0822  0.6625  0.3692
  635MOL0     H83780   6.187   2.819   1.830 -1.1175  0.3467 -0.4290
  635MOL0     H83781   6.256   2.699   1.944  1.0257  2.4166 -0.4824
  635MOL0     H83782   5.997   2.873   1.748 -1.4821 -2.6842  0.0171
  635MOL0     H83783   5.790   2.997   1.710  0.8121 -0.1392 -0.0723
  635MOL0     H83784   5.379   2.847   1.746  0.1381  1.7800  2.1902
  635MOL0     H83785   5.129   2.858   1.731  0.1465  0.3769 -0.1815
  635MOL0     H83786   4.967   2.919   1.889  1.9376 -0.1856 -1.6458
  635MOL0     H83787   4.915   2.912   1.715  1.7589 -0.9580  0.9921
  635MOL0     H83788   4.719   2.916   1.821 -0.8355  0.9718 -0.1900
  635MOL0     H83789   4.733   3.088   1.825 -0.6123  0.3395  1.0136
  635MOL0     H83790   4.834   3.055   2.059  1.6432  0.0195 -1.7109
  635MOL0     H83791   4.769   2.888   2.043 -0.7456  0.7191  1.0040
  635MOL0     H83792   4.588   3.119   1.983 -2.2396  1.0426  0.5812
  635MOL0     H83793   4.546   2.965   2.050 -1.5021  3.2228 -1.1286
  635MOL0     H83794   4.674   3.198   2.216  1.3812 -0.2629 -0.1189
  635MOL0     H83795   4.646   3.040   2.277  3.6476  1.0786 -1.6498
  635MOL0     H83796   4.460   3.175   2.354  0.1279 -0.7848  1.2729
  635MOL0     H83797   4.388   3.065   2.255  2.0370 -1.5694  0.9896
  635MOL0     H83798   4.483   3.350   2.174  1.1630 -1.5009  2.0352
  635MOL0     H83799   4.394   3.234   2.071  2.3212  0.0160 -0.4770
  635MOL0     H83800   4.242   3.393   2.134 -1.5502  1.8454  1.2441
  635MOL0     H83801   4.280   3.379   2.306 -0.6770  0.2111 -0.9103
  635MOL0     H83802   5.144   3.269   1.757 -0.9430 -0.2192  0.0490
  635MOL0     H83803   5.400   3.269   1.788 -2.7726  0.9177 -1.1813
  635MOL0     H83804   5.742   3.056   2.132  0.6783  0.5379 -0.1971
  635MOL0     H83805   5.936   2.920   2.168 -0.3435  2.3271 -0.2640
  635MOL0     H83806   4.585   2.021   2.071 -1.3506  3.8205  0.8868
  635MOL0     H83807   4.370   2.043   2.186  4.7028  1.3869 -0.8634
  635MOL0     H83808   3.920   2.179   2.147 -2.4168 -1.0798 -3.4964
  635MOL0     H83809   3.696   2.210   2.213  3.1931  1.9850 -0.9722
  635MOL0     H83810   3.449   2.126   2.182  2.1947  0.1335 -0.8733
  635MOL0     H83811   3.492   2.219   2.330  0.7281  0.0954 -0.0690
  635MOL0     H83812   3.342   2.134   2.455 -1.0160  2.8475  0.5942
  635MOL0     H83813   3.254   2.205   2.317 -1.1628 -0.0081  2.5894
  635MOL0     H83814   3.273   1.927   2.427 -1.4233 -0.5104 -0.0169
  635MOL0     H83815   3.267   1.954   2.243  0.2919 -1.9820  0.3101
  635MOL0     H83816   3.049   2.078   2.295 -2.8573  1.8264  2.2196
  635MOL0     H83817   3.043   1.918   2.342 -3.2040  2.7647 -0.6962
  635MOL0     H83818   2.948   2.124   2.694 -0.2025  0.3395 -0.2656
  635MOL0     H83819   3.656   1.812   2.333  0.0726 -1.9537 -3.0434
  635MOL0     H83820   3.903   1.760   2.264 -0.7388  0.8764  0.7852
  636MOL0     O83821   9.753   9.155   1.304 -0.5115 -0.3262  0.1340
  636MOL0     C83822   9.788   9.236   1.221  0.2188  0.0481  0.5897
  636MOL0     O83823   9.715   9.289   1.113  0.1929 -0.2397 -0.4384
  636MOL0     C83824   9.581   9.252   1.090 -0.3292  0.3786  0.0203
  636MOL0     C83825   9.506   9.333   1.004  0.0220 -0.1313  0.1801
  636MOL0     C83826   9.373   9.304   0.965  0.4600 -0.1228 -0.2156
  636MOL0     C83827   9.313   9.188   1.023  0.6666 -0.3267  0.4565
  636MOL0     O83828   9.175   9.174   0.998  0.5582  0.4829  0.0521
  636MOL0     C83829   9.145   9.058   0.918  0.0362  0.2882 -0.2919
  636MOL0     C83830   8.997   9.026   0.938 -0.0585  0.1317 -0.0036
  636MOL0     C83831   8.965   9.028   1.086 -0.4209 -0.5690 -0.3191
  636MOL0     C83832   8.817   9.010   1.118  0.5470  0.8992  0.6786
  636MOL0     C83833   8.780   8.858   1.127  0.5195 -0.7117 -0.0762
  636MOL0     C83834   8.769   8.815   1.267 -0.0050  0.5184  0.2555
  636MOL0     C83835   8.751   8.668   1.282 -0.0729 -0.3989 -0.2557
  636MOL0     C83836   8.762   8.622   1.426  0.4340  0.7229 -0.9393
  636MOL0     N83837   8.634   8.636   1.504 -0.3831 -0.1755 -1.1085
  636MOL0     C83838   8.613   8.724   1.601  0.5271  0.4104  0.2961
  636MOL0     C83839   8.500   8.677   1.668  0.0966  0.2930  0.3559
  636MOL0     C83840   8.457   8.744   1.794 -0.4553  0.5962 -0.5267
  636MOL0     C83841   8.519   8.652   1.905  0.9066 -0.2633  0.2004
  636MOL0     C83842   8.489   8.693   2.047  0.4669 -0.2520 -0.5990
  636MOL0     C83843   8.344   8.662   2.093 -0.3137 -1.1997  0.0332
  636MOL0     O83844   8.259   8.770   2.060  0.4326  0.1251 -0.1743
  636MOL0     C83845   8.124   8.739   2.056 -0.2090 -0.1412  0.1694
  636MOL0     C83846   8.039   8.849   2.043 -0.1885  1.0245 -0.3465
  636MOL0     C83847   7.899   8.824   2.046 -0.2088  0.1479  0.9186
  636MOL0     C83848   7.846   8.697   2.047  0.1732  0.5320 -0.1230
  636MOL0     C83849   7.710   8.668   2.060  0.2682 -0.1702  0.3473
  636MOL0     O83850   7.631   8.766   2.015  0.2342 -0.7882 -0.2055
  636MOL0     C83851   7.495   8.783   2.057 -0.7555 -0.8944 -0.0951
  636MOL0     C83852   7.446   8.920   2.047  0.3626  1.0734  0.6467
  636MOL0     C83853   7.313   8.946   2.042  0.3813 -0.4460  0.1608
  636MOL0     C83854   7.220   8.846   2.059  0.4849 -0.6483 -1.1353
  636MOL0     O83855   7.089   8.902   2.049 -0.0059 -0.3119  0.6290
  636MOL0     C83856   6.978   8.816   2.082  0.2916  0.1269 -0.5540
  636MOL0     C83857   6.970   8.781   2.234  0.7133  0.1463  0.3462
  636MOL0     C83858   7.024   8.886   2.328  1.0577 -0.2180 -0.5154
  636MOL0     C83859   6.963   8.889   2.473 -0.3132  0.8260 -0.8240
  636MOL0     C83860   6.953   8.755   2.543  0.6133  0.5640 -0.4029
  636MOL0     C83861   6.866   8.782   2.662  0.0511 -0.0214  1.4203
  636MOL0     C83862   6.870   8.661   2.749  0.7080 -0.0234  0.2724
  636MOL0     C83863   6.802   8.676   2.888  0.0911  0.1994  0.0661
  636MOL0    Cl83864   6.848   8.532   2.972 -0.3491  0.3253  0.4208
  636MOL0     C83865   7.262   8.710   2.080  0.0637  0.0673  0.6245
  636MOL0     C83866   7.397   8.683   2.077 -0.0547  0.1337 -0.9718
  636MOL0     O83867   7.663   8.568   2.113  0.4358 -0.5129  0.0989
  636MOL0     C83868   7.934   8.590   2.065 -0.6947  0.1033  0.0301
  636MOL0     C83869   8.068   8.612   2.075 -0.4049  0.0615  0.0310
  636MOL0     N83870   8.446   8.571   1.587  0.6380  0.0105 -0.2268
  636MOL0     N83871   8.529   8.543   1.498 -0.0767  0.2785  0.1560
  636MOL0     C83872   9.382   9.103   1.119 -1.0514 -0.0238  0.7236
  636MOL0     C83873   9.521   9.130   1.141  1.5212  0.0217 -0.3482
  636MOL0     C83874   9.932   9.271   1.212 -0.1096 -0.0651 -0.3050
  636MOL0     C83875  10.019   9.241   1.326 -0.1200  0.1038 -0.5108
  636MOL0     C83876  10.154   9.269   1.317  0.6873 -0.7971 -0.5515
  636MOL0     C83877  10.207   9.333   1.204  0.0966  0.2221 -0.1033
  636MOL0     O83878  10.344   9.350   1.187 -0.6288 -0.0338 -0.0040
  636MOL0     C83879  10.435   9.326   1.296  0.3567  0.5186  0.0178
  636MOL0     C83880  10.575   9.370   1.274 -0.3910  0.2597  0.8459
  636MOL0     C83881  10.642   9.290   1.154 -0.2874  0.0236 -0.4207
  636MOL0     C83882  10.789   9.334   1.136 -0.3321  0.3186 -0.1871
  636MOL0     C83883  10.832   9.312   1.002  0.7733  0.2145  1.7525
  636MOL0     C83884  10.875   9.288   0.886 -0.9241 -0.9531 -0.8546
  636MOL0     C83885  10.128   9.375   1.104  0.4940  0.4118  0.3319
  636MOL0     C83886   9.992   9.342   1.105  0.3905  0.9110  0.0700
  636MOL0     H83887   9.537   9.422   0.952  0.4608 -0.8060 -0.7482
  636MOL0     H83888   9.312   9.367   0.900  0.9257  2.3082  1.5552
  636MOL0     H83889   9.210   8.975   0.946  0.4226 -0.1328 -2.3058
  636MOL0     H83890   9.156   9.072   0.810 -0.1795 -2.2163 -0.7000
  636MOL0     H83891   8.992   8.931   0.884  0.6833  0.5078 -0.7729
  636MOL0     H83892   8.933   9.101   0.890  1.3990  1.3401 -0.1285
  636MOL0     H83893   8.983   9.128   1.127 -1.8096 -0.2386 -0.4990
  636MOL0     H83894   9.024   8.952   1.138 -0.8617 -0.8792 -0.2693
  636MOL0     H83895   8.798   9.051   1.217 -0.0817 -2.7244  2.2255
  636MOL0     H83896   8.771   9.068   1.038  0.9743 -1.2144 -1.2157
  636MOL0     H83897   8.849   8.788   1.079 -1.3704 -3.4305  0.8622
  636MOL0     H83898   8.681   8.842   1.084  0.4170  2.2572 -1.1689
  636MOL0     H83899   8.680   8.864   1.306  0.5041  0.3173  1.7701
  636MOL0     H83900   8.855   8.850   1.325  1.0231 -0.2085 -0.7907
  636MOL0     H83901   8.655   8.635   1.242 -0.8574 -0.5382  1.6613
  636MOL0     H83902   8.834   8.619   1.230  2.0281  2.3063  0.2564
  636MOL0     H83903   8.852   8.665   1.470  0.2173  1.5306 -1.2616
  636MOL0     H83904   8.777   8.513   1.417 -2.7758 -0.3666  3.6138
  636MOL0     H83905   8.681   8.807   1.622 -0.0825  0.3499  2.9376
  636MOL0     H83906   8.349   8.762   1.800 -0.3881  1.5976 -1.8262
  636MOL0     H83907   8.492   8.848   1.794  2.1721 -0.1830 -2.6257
  636MOL0     H83908   8.627   8.651   1.883  0.5287 -1.1531 -1.9474
  636MOL0     H83909   8.498   8.545   1.894 -1.0029 -0.1089  1.8096
  636MOL0     H83910   8.555   8.635   2.111  0.9245 -0.5120 -1.2994
  636MOL0     H83911   8.509   8.799   2.068  0.0212 -0.0639 -1.0921
  636MOL0     H83912   8.347   8.645   2.201  2.7875  2.3398  0.7476
  636MOL0     H83913   8.317   8.571   2.039 -1.1783 -1.8137  1.4567
  636MOL0     H83914   8.080   8.949   2.029  0.2263  0.7107 -1.4314
  636MOL0     H83915   7.834   8.910   2.034 -0.1886 -0.1434 -1.9250
  636MOL0     H83916   7.512   9.006   2.041 -1.0105  2.1321  0.3349
  636MOL0     H83917   7.278   9.047   2.021  2.9467  1.3636  3.5041
  636MOL0     H83918   6.986   8.725   2.023  0.3168  0.0670 -0.4580
  636MOL0     H83919   6.885   8.855   2.040  0.8044 -0.6030 -2.5061
  636MOL0     H83920   7.020   8.687   2.261 -1.8379 -1.0988  1.0175
  636MOL0     H83921   6.863   8.768   2.248  0.4903  1.0064 -0.4901
  636MOL0     H83922   7.012   8.984   2.279  2.3745 -1.7913 -4.3360
  636MOL0     H83923   7.131   8.868   2.341  0.5805 -3.1764  0.0614
  636MOL0     H83924   7.018   8.949   2.546  2.8552 -1.4253 -1.1440
  636MOL0     H83925   6.864   8.932   2.456 -0.4247 -0.0545 -2.5993
  636MOL0     H83926   7.052   8.714   2.564  1.6251  2.5973 -0.9415
  636MOL0     H83927   6.887   8.687   2.488 -1.7103  0.2147  2.5352
  636MOL0     H83928   6.762   8.798   2.634 -0.5786 -1.9937  2.4913
  636MOL0     H83929   6.901   8.873   2.712  2.5607  1.3892 -2.3698
  636MOL0     H83930   6.816   8.580   2.699 -1.6961  1.1629  0.8051
  636MOL0     H83931   6.974   8.635   2.771 -0.2953 -3.8017  1.1419
  636MOL0     H83932   6.693   8.685   2.885 -0.2144 -1.1372  3.4997
  636MOL0     H83933   6.844   8.751   2.955 -0.0844  0.4741 -0.1297
  636MOL0     H83934   7.183   8.637   2.094  0.3676 -1.7308 -4.8326
  636MOL0     H83935   7.431   8.580   2.085 -0.5926  0.0699  0.7562
  636MOL0     H83936   7.895   8.489   2.056 -0.8368  0.2544 -1.2963
  636MOL0     H83937   8.119   8.517   2.091 -3.9399 -1.6879  1.9828
  636MOL0     H83938   9.337   9.015   1.165 -0.0735 -0.8666  0.0886
  636MOL0     H83939   9.576   9.063   1.206  4.5903  0.3240 -2.4244
  636MOL0     H83940   9.993   9.179   1.412  0.7728 -2.6835 -2.1275
  636MOL0     H83941  10.223   9.240   1.395 -0.1042  0.4949  0.6682
  636MOL0     H83942  10.426   9.222   1.326 -1.3448  1.3235  2.6770
  636MOL0     H83943  10.401   9.377   1.387  2.0423  0.8240  0.5153
  636MOL0     H83944  10.586   9.477   1.253  2.5786 -0.3540 -1.4244
  636MOL0     H83945  10.636   9.352   1.363 -0.1724  1.3783  0.9314
  636MOL0     H83946  10.577   9.297   1.067 -2.2520 -0.9672  0.8906
  636MOL0     H83947  10.645   9.184   1.180  0.5819 -0.2569 -1.5781
  636MOL0     H83948  10.812   9.440   1.149  2.3010 -0.1798 -0.2680
  636MOL0     H83949  10.855   9.281   1.206 -0.0288  1.8542  0.7265
  636MOL0     H83950  10.896   9.241   0.792  1.9997  0.7801 -1.2202
  636MOL0     H83951  10.176   9.435   1.027  2.9933 -2.7227 -0.7869
  636MOL0     H83952   9.922   9.380   1.030 -0.7991  3.1960  2.1791
  637MOL0     O83953   6.771   7.138   3.332 -0.0194 -1.3626 -0.2457
  637MOL0     C83954   6.790   7.256   3.375  0.3392 -0.2852 -0.4748
  637MOL0     O83955   6.707   7.325   3.469 -0.3153  0.2991  0.3516
  637MOL0     C83956   6.582   7.275   3.491  0.3562  0.4059  0.3479
  637MOL0     C83957   6.555   7.183   3.590 -0.5338  0.4347 -0.4289
  637MOL0     C83958   6.420   7.137   3.612 -0.6678  0.9768  0.4388
  637MOL0     C83959   6.321   7.169   3.517 -0.2069  0.1179 -0.3742
  637MOL0     O83960   6.192   7.112   3.536 -0.3575  0.6305 -0.1498
  637MOL0     C83961   6.108   7.130   3.425 -0.0304 -0.0019  0.7851
  637MOL0     C83962   5.979   7.058   3.445 -0.0887 -0.3494  0.3570
  637MOL0     C83963   5.899   7.106   3.560 -0.2998 -0.5002  0.9097
  637MOL0     C83964   5.753   7.055   3.553  0.8235 -0.0058 -0.4909
  637MOL0     C83965   5.700   7.015   3.698 -0.4582 -0.5541 -0.4939
  637MOL0     C83966   5.737   7.113   3.817  0.3211 -0.1180  0.3172
  637MOL0     C83967   5.669   7.255   3.807 -0.0012  0.3566  0.9366
  637MOL0     C83968   5.513   7.264   3.842 -0.4999  0.3168  0.6057
  637MOL0     N83969   5.481   7.193   3.969 -0.0758 -0.2602 -0.4627
  637MOL0     C83970   5.426   7.071   3.995  0.6242 -0.1529  0.4472
  637MOL0     C83971   5.421   7.054   4.130 -0.5408  0.1601 -0.0053
  637MOL0     C83972   5.385   6.932   4.212  0.3359  0.1625  0.3809
  637MOL0     C83973   5.257   6.958   4.294  0.4465  1.0507 -0.4576
  637MOL0     C83974   5.226   6.838   4.387  0.7566 -0.1232 -0.4236
  637MOL0     C83975   5.093   6.864   4.462 -0.0260 -1.2246 -0.7189
  637MOL0     O83976   5.027   6.757   4.529  0.0229  0.1542  0.9291
  637MOL0     C83977   4.901   6.762   4.588 -1.0184  0.1064  0.7215
  637MOL0     C83978   4.818   6.645   4.588  0.0011  0.2602 -0.5826
  637MOL0     C83979   4.690   6.654   4.646  0.3599 -0.5495 -0.2916
  637MOL0     C83980   4.647   6.772   4.706  0.1510  0.3448  0.3883
  637MOL0     C83981   4.519   6.778   4.775  0.2495  0.2428  0.1103
  637MOL0     O83982   4.448   6.663   4.795 -0.7525 -0.2795  0.1249
  637MOL0     C83983   4.319   6.675   4.834  0.0477  0.6221  0.5570
  637MOL0     C83984   4.221   6.674   4.734 -0.2023  0.1184 -0.6022
  637MOL0     C83985   4.088   6.669   4.778 -0.3042  0.0156  0.1325
  637MOL0     C83986   4.048   6.678   4.909  0.9189  0.8537  0.0563
  637MOL0     O83987   3.914   6.676   4.939 -0.4001 -0.6600 -0.1294
  637MOL0     C83988   3.864   6.720   5.061  0.7638  0.3289 -0.0846
  637MOL0     C83989   3.712   6.719   5.058 -0.2768 -0.2743 -0.6744
  637MOL0     C83990   3.653   6.774   5.195 -0.3443 -0.2031  0.2354
  637MOL0     C83991   3.504   6.787   5.181 -0.5667 -1.0012 -0.2073
  637MOL0     C83992   3.424   6.843   5.308 -0.3677  0.3038 -0.3845
  637MOL0     C83993   3.439   6.756   5.431 -0.1650 -0.1192  0.7494
  637MOL0     C83994   3.315   6.768   5.522  1.1566  0.9675  0.4395
  637MOL0     C83995   3.302   6.912   5.571  0.5704 -0.6282 -0.5743
  637MOL0    Cl83996   3.453   6.985   5.644 -0.3154 -0.0103 -0.2253
  637MOL0     C83997   4.145   6.696   5.001  0.2998  0.2961  0.1929
  637MOL0     C83998   4.278   6.699   4.969 -0.1469 -0.9019  0.1993
  637MOL0     O83999   4.482   6.893   4.804 -0.8628  0.0689 -0.3704
  637MOL0     C84000   4.731   6.881   4.713  0.2276  0.5214  0.8527
  637MOL0     C84001   4.855   6.877   4.647 -0.2887 -0.5042 -0.2949
  637MOL0     N84002   5.462   7.171   4.183 -0.7673  0.2007 -0.7367
  637MOL0     N84003   5.492   7.253   4.086  0.4635 -1.2362 -0.4434
  637MOL0     C84004   6.356   7.260   3.413 -0.1858 -0.5636 -0.0082
  637MOL0     C84005   6.486   7.314   3.398  0.1999  0.2878 -0.4298
  637MOL0     C84006   6.910   7.329   3.327  0.4588  0.4898 -0.5693
  637MOL0     C84007   6.907   7.466   3.325 -0.0749  0.2259  0.0550
  637MOL0     C84008   7.000   7.539   3.267 -0.5051 -1.0857 -0.8778
  637MOL0     C84009   7.107   7.476   3.206  0.1495 -0.2956 -0.6189
  637MOL0     O84010   7.188   7.559   3.134  0.2200 -0.2703 -0.5464
  637MOL0     C84011   7.303   7.503   3.056 -0.4333  0.2839  0.1078
  637MOL0     C84012   7.403   7.617   3.054  0.9717 -0.2119  0.1724
  637MOL0     C84013   7.524   7.579   2.958  0.6316  0.0691  0.4837
  637MOL0     C84014   7.654   7.664   2.989 -1.4453  0.3318  0.0764
  637MOL0     C84015   7.758   7.625   2.898 -0.1314  0.8078  0.0720
  637MOL0     C84016   7.844   7.595   2.815  0.2893 -0.4508 -0.5081
  637MOL0     C84017   7.118   7.334   3.203 -0.1736 -0.5633 -0.4299
  637MOL0     C84018   7.020   7.260   3.274  0.2060 -0.3361 -1.1147
  637MOL0     H84019   6.632   7.154   3.661 -0.0416  1.7868 -0.3918
  637MOL0     H84020   6.388   7.069   3.690  0.5078 -0.5008 -0.3178
  637MOL0     H84021   6.157   7.082   3.339 -1.1826  0.9166 -0.4219
  637MOL0     H84022   6.093   7.233   3.391 -3.4961 -0.3963  0.8007
  637MOL0     H84023   6.002   6.951   3.458 -0.6134 -0.5480 -0.3167
  637MOL0     H84024   5.917   7.065   3.355 -0.8352 -2.3449  0.6638
  637MOL0     H84025   5.899   7.215   3.556  1.9876 -0.5085 -1.3101
  637MOL0     H84026   5.957   7.078   3.648  3.3386  1.5736 -0.5982
  637MOL0     H84027   5.696   7.140   3.514 -0.1284 -0.3537  0.1045
  637MOL0     H84028   5.739   6.967   3.488  0.1736  1.5037 -2.5001
  637MOL0     H84029   5.741   6.916   3.720  2.8519  0.2243 -2.5138
  637MOL0     H84030   5.592   6.997   3.696 -0.3843 -2.5800  3.5578
  637MOL0     H84031   5.842   7.141   3.812  0.5717 -1.0763 -0.0306
  637MOL0     H84032   5.714   7.059   3.909 -0.2492  2.8172  1.9943
  637MOL0     H84033   5.723   7.322   3.874 -0.7502  0.9525  0.9534
  637MOL0     H84034   5.695   7.300   3.711 -2.1572 -0.8789 -0.3036
  637MOL0     H84035   5.449   7.221   3.765 -0.3723  2.7848 -0.9801
  637MOL0     H84036   5.502   7.373   3.840  0.2177  0.4943  3.0343
  637MOL0     H84037   5.408   6.995   3.920  2.0835 -2.1014  1.9521
  637MOL0     H84038   5.473   6.898   4.268  0.3590 -1.3929 -0.5412
  637MOL0     H84039   5.355   6.848   4.148  0.6274  1.4246 -1.4712
  637MOL0     H84040   5.171   6.987   4.234 -0.5873  0.3812  0.6603
  637MOL0     H84041   5.270   7.042   4.362 -2.9814  1.0006  0.4442
  637MOL0     H84042   5.209   6.743   4.335  2.3498 -0.0951 -1.0706
  637MOL0     H84043   5.309   6.819   4.455 -1.4859 -2.4484  1.8912
  637MOL0     H84044   5.022   6.901   4.387  0.6139 -0.0428 -0.7732
  637MOL0     H84045   5.106   6.942   4.537  1.7033 -2.8690  0.8027
  637MOL0     H84046   4.845   6.547   4.549 -0.2394  0.4478 -1.2291
  637MOL0     H84047   4.620   6.576   4.616 -1.5428  0.6490  0.8050
  637MOL0     H84048   4.258   6.658   4.633 -2.3788  0.4425 -1.5160
  637MOL0     H84049   4.006   6.654   4.708  0.2141 -0.2624 -0.4258
  637MOL0     H84050   3.878   6.827   5.080 -2.2546  0.7603  0.2203
  637MOL0     H84051   3.901   6.654   5.139  1.0601 -1.4176 -1.6251
  637MOL0     H84052   3.674   6.617   5.043 -0.7200 -0.3898  1.0808
  637MOL0     H84053   3.685   6.772   4.966  0.7565 -0.6711 -1.2260
  637MOL0     H84054   3.691   6.872   5.226  1.1543 -0.3104 -1.1266
  637MOL0     H84055   3.679   6.711   5.281  0.0306  0.8662  0.9249
  637MOL0     H84056   3.479   6.859   5.102 -0.5680 -2.8886 -2.0085
  637MOL0     H84057   3.462   6.692   5.145 -0.4485 -0.4657 -1.8693
  637MOL0     H84058   3.319   6.847   5.279 -0.3624  0.8332 -0.3394
  637MOL0     H84059   3.465   6.940   5.338  4.4273 -2.2370  2.5863
  637MOL0     H84060   3.523   6.793   5.489 -1.1083  4.1343 -0.3108
  637MOL0     H84061   3.457   6.652   5.402 -0.3170  0.6009 -2.2553
  637MOL0     H84062   3.217   6.766   5.474 -0.5718  3.9359  3.4265
  637MOL0     H84063   3.320   6.697   5.606 -1.0109 -1.1329 -1.0669
  637MOL0     H84064   3.228   6.904   5.652 -0.4098 -0.0765 -1.3927
  637MOL0     H84065   3.251   6.971   5.494 -1.2701  0.3386  1.2779
  637MOL0     H84066   4.114   6.712   5.104 -1.8424  0.4443 -0.4386
  637MOL0     H84067   4.351   6.708   5.049 -2.1310  1.1987  1.9169
  637MOL0     H84068   4.705   6.973   4.765  0.2022  1.5667 -0.9491
  637MOL0     H84069   4.906   6.970   4.669 -3.1633  0.9374  0.6634
  637MOL0     H84070   6.283   7.301   3.345  2.0976 -0.2658 -2.4185
  637MOL0     H84071   6.495   7.384   3.316  0.6797 -0.5637 -1.1196
  637MOL0     H84072   6.816   7.514   3.361 -0.7776 -1.6773  0.9320
  637MOL0     H84073   6.996   7.647   3.268  0.4912 -1.0374 -0.6950
  637MOL0     H84074   7.277   7.476   2.953  1.9229  0.1578 -0.5102
  637MOL0     H84075   7.344   7.415   3.107 -2.6284 -0.2495  1.0502
  637MOL0     H84076   7.357   7.706   3.012  0.6923 -0.5658 -0.2834
  637MOL0     H84077   7.442   7.641   3.154 -1.9782  1.3388  1.0750
  637MOL0     H84078   7.493   7.603   2.856  0.7780  4.3964  1.2611
  637MOL0     H84079   7.537   7.471   2.963 -1.8626 -0.4566 -1.8573
  637MOL0     H84080   7.636   7.771   2.972  0.6287  0.8530  0.8265
  637MOL0     H84081   7.684   7.648   3.093  2.1993 -0.1052 -0.8774
  637MOL0     H84082   7.912   7.557   2.742  0.3925  1.1166 -1.2762
  637MOL0     H84083   7.198   7.275   3.160 -0.9435 -1.4060 -0.7371
  637MOL0     H84084   7.024   7.151   3.273  2.4494 -0.3741 -3.7901
  638MOL0     O84085   9.759   0.714   1.689  0.1656 -0.1475 -0.8546
  638MOL0     C84086   9.762   0.786   1.792 -0.1346 -0.3246 -0.2371
  638MOL0     O84087   9.652   0.834   1.859 -0.4062  0.4714 -0.1671
  638MOL0     C84088   9.524   0.784   1.853 -0.3272 -0.6187 -0.1347
  638MOL0     C84089   9.404   0.863   1.837  0.3663  0.4653  0.0590
  638MOL0     C84090   9.279   0.803   1.825 -0.0711 -0.1158  0.2026
  638MOL0     C84091   9.269   0.662   1.824  0.7426  0.4253  0.5516
  638MOL0     O84092   9.154   0.597   1.806  0.1834  0.2446 -0.0765
  638MOL0     C84093   9.051   0.651   1.882 -0.1303  0.5509 -0.4845
  638MOL0     C84094   8.931   0.548   1.876 -0.2082 -0.3290 -0.1753
  638MOL0     C84095   8.795   0.611   1.911  0.1623 -0.2632 -1.3410
  638MOL0     C84096   8.701   0.503   1.888  0.1350  0.3046  0.0219
  638MOL0     C84097   8.561   0.532   1.947 -0.2896  1.0668  0.3004
  638MOL0     C84098   8.453   0.439   1.889 -0.3198 -0.7496  0.5990
  638MOL0     C84099   8.322   0.489   1.950 -0.1164  0.0515 -0.3202
  638MOL0     C84100   8.212   0.386   1.958 -0.4709 -0.4026  0.4041
  638MOL0     N84101   8.076   0.427   2.003 -1.2942 -0.1984  0.1114
  638MOL0     C84102   7.970   0.353   1.979  0.2777 -0.1341 -0.8279
  638MOL0     C84103   7.868   0.408   2.056 -0.7623 -0.2453  0.1440
  638MOL0     C84104   7.725   0.365   2.059 -0.0245 -0.0610  0.3756
  638MOL0     C84105   7.641   0.433   2.171 -1.0108  0.2500  0.7709
  638MOL0     C84106   7.496   0.388   2.168 -0.7167 -0.1002  0.8133
  638MOL0     C84107   7.407   0.471   2.262 -0.4106 -0.1295  1.1077
  638MOL0     O84108   7.465   0.466   2.385 -0.0684  0.1220 -0.7177
  638MOL0     C84109   7.399   0.519   2.494 -0.6896 -0.2145 -0.1749
  638MOL0     C84110   7.267   0.571   2.502 -0.2341 -0.4526 -0.0461
  638MOL0     C84111   7.218   0.615   2.627  0.4482 -0.0173  0.6730
  638MOL0     C84112   7.290   0.605   2.746  0.2543  0.0257 -0.3181
  638MOL0     C84113   7.227   0.632   2.877  1.1346  0.2584 -0.1640
  638MOL0     O84114   7.095   0.586   2.873  0.3785 -0.0345  0.5999
  638MOL0     C84115   7.014   0.607   2.980  0.5239  0.0836 -0.1203
  638MOL0     C84116   6.908   0.692   2.970 -1.1117  0.1204 -0.6015
  638MOL0     C84117   6.825   0.726   3.078  0.6773  0.6330 -0.1993
  638MOL0     C84118   6.843   0.666   3.203  0.2513 -0.7355  0.5669
  638MOL0     O84119   6.749   0.692   3.293  0.5612  0.3020 -0.1782
  638MOL0     C84120   6.750   0.627   3.420  0.9237  0.4075 -0.1965
  638MOL0     C84121   6.610   0.660   3.479 -0.0058  0.1580  0.0644
  638MOL0     C84122   6.574   0.813   3.483  0.0102 -0.2028 -0.4968
  638MOL0     C84123   6.674   0.896   3.570 -0.4796 -0.3198 -0.0802
  638MOL0     C84124   6.631   1.040   3.588 -0.5233 -0.1716  0.1226
  638MOL0     C84125   6.752   1.133   3.615 -0.3122  0.0485  0.1276
  638MOL0     C84126   6.832   1.102   3.743 -1.4229  0.0830 -0.3309
  638MOL0     C84127   6.849   1.227   3.835  0.1974 -0.4371  0.5722
  638MOL0    Cl84128   6.975   1.339   3.760  0.0889 -0.5087 -0.2473
  638MOL0     C84129   6.945   0.564   3.218 -0.8408 -0.6748 -0.2372
  638MOL0     C84130   7.030   0.539   3.108 -0.2219 -0.4610  0.2993
  638MOL0     O84131   7.293   0.664   2.975  0.8251 -0.0698 -0.0435
  638MOL0     C84132   7.424   0.556   2.739  0.5329  0.6067 -0.6728
  638MOL0     C84133   7.476   0.506   2.612 -0.8275 -0.8393 -1.0430
  638MOL0     N84134   7.933   0.514   2.126 -0.2236 -0.5746  0.1888
  638MOL0     N84135   8.054   0.528   2.088 -0.7823  0.5380  0.1443
  638MOL0     C84136   9.382   0.589   1.839  1.3607 -0.6379 -0.3018
  638MOL0     C84137   9.509   0.641   1.859 -0.5540 -1.0869  0.3113
  638MOL0     C84138   9.894   0.840   1.838 -1.1761  0.0003 -0.3582
  638MOL0     C84139   9.919   0.858   1.971 -0.3945 -1.2791  0.0104
  638MOL0     C84140  10.039   0.909   2.026 -0.3961  0.5932  0.0516
  638MOL0     C84141  10.150   0.923   1.943 -0.3306  0.0758 -0.1066
  638MOL0     O84142  10.274   0.962   1.991  0.4640 -0.0863  0.2338
  638MOL0     C84143  10.404   0.956   1.922 -0.3057  0.1769 -0.1809
  638MOL0     C84144  10.513   0.927   2.013  0.2915  0.0577 -0.1934
  638MOL0     C84145  10.654   0.931   1.957 -0.2855 -0.8350  0.1538
  638MOL0     C84146  10.704   1.078   1.953  0.6193  0.1653 -0.1422
  638MOL0     C84147  10.842   1.103   1.906  0.8229 -0.2156 -0.4440
  638MOL0     C84148  10.953   1.112   1.863 -0.8800 -0.0560 -0.7774
  638MOL0     C84149  10.129   0.892   1.808 -0.1624 -0.8402  0.3508
  638MOL0     C84150  10.004   0.848   1.755 -0.0077 -0.1372  0.5675
  638MOL0     H84151   9.422   0.970   1.838  0.6756  0.4160  1.3122
  638MOL0     H84152   9.190   0.865   1.833 -0.0677 -0.2347  1.4352
  638MOL0     H84153   9.018   0.749   1.846  3.4588  3.0760  2.3018
  638MOL0     H84154   9.092   0.670   1.982  2.8480  2.5690 -1.9510
  638MOL0     H84155   8.959   0.460   1.934  3.3925 -0.2802 -1.5856
  638MOL0     H84156   8.925   0.512   1.772  5.7417 -1.6272 -0.4566
  638MOL0     H84157   8.790   0.694   1.840 -2.0665 -0.0986 -1.0597
  638MOL0     H84158   8.785   0.647   2.013  1.1236 -1.4445 -0.8092
  638MOL0     H84159   8.705   0.476   1.782  3.3579  2.1232 -0.4320
  638MOL0     H84160   8.732   0.422   1.954 -2.0160  1.2093  2.3091
  638MOL0     H84161   8.533   0.634   1.920 -1.5497  0.4858 -0.7272
  638MOL0     H84162   8.566   0.514   2.054 -0.1889 -1.9681 -0.1227
  638MOL0     H84163   8.458   0.331   1.898 -2.6522 -1.5072 -4.1111
  638MOL0     H84164   8.455   0.460   1.782 -0.5004  1.8311  1.0313
  638MOL0     H84165   8.323   0.523   2.054 -2.8071 -0.5635 -0.0241
  638MOL0     H84166   8.286   0.574   1.890 -0.8968  0.9236  1.3128
  638MOL0     H84167   8.248   0.310   2.027  1.1815  1.1747  1.3828
  638MOL0     H84168   8.203   0.353   1.854 -0.6834 -0.6003  0.4844
  638MOL0     H84169   7.969   0.265   1.915  2.1035  0.4003 -1.6728
  638MOL0     H84170   7.718   0.258   2.076  1.1968 -0.2720 -0.2641
  638MOL0     H84171   7.689   0.392   1.959  0.3357  0.7892  0.4657
  638MOL0     H84172   7.642   0.541   2.159 -5.1822  0.6280  2.1435
  638MOL0     H84173   7.686   0.402   2.266 -0.5235  0.1266  0.5008
  638MOL0     H84174   7.466   0.399   2.063  1.3843  1.1090  0.2819
  638MOL0     H84175   7.492   0.282   2.195  0.0685  0.0536  1.5723
  638MOL0     H84176   7.305   0.436   2.278 -1.2067  2.5333  2.3776
  638MOL0     H84177   7.400   0.574   2.225 -0.7994 -0.9499 -1.2789
  638MOL0     H84178   7.207   0.573   2.412  2.7411 -1.9933 -2.2213
  638MOL0     H84179   7.112   0.636   2.621 -0.0612 -2.5095 -3.8656
  638MOL0     H84180   6.890   0.748   2.878  0.6719  0.0845 -1.0145
  638MOL0     H84181   6.747   0.801   3.067  0.4487  0.7572  1.9379
  638MOL0     H84182   6.818   0.680   3.487  0.9897 -0.0598  0.1037
  638MOL0     H84183   6.763   0.519   3.420 -0.6390  0.1738  1.5448
  638MOL0     H84184   6.610   0.620   3.580  1.9131 -0.4531 -0.1380
  638MOL0     H84185   6.542   0.606   3.412  0.1262 -1.1595  0.9529
  638MOL0     H84186   6.470   0.823   3.514  0.6829  0.3881  1.7048
  638MOL0     H84187   6.587   0.847   3.380 -0.7721 -0.0150 -0.5373
  638MOL0     H84188   6.679   0.853   3.671 -1.2869  1.5614  0.8228
  638MOL0     H84189   6.776   0.895   3.530 -0.7082  2.6014 -0.9802
  638MOL0     H84190   6.561   1.042   3.672 -1.8471 -0.3276 -0.9481
  638MOL0     H84191   6.584   1.078   3.497 -0.7719 -1.3895 -0.2725
  638MOL0     H84192   6.714   1.236   3.615 -1.8692 -0.4729 -1.3628
  638MOL0     H84193   6.817   1.128   3.527 -0.4847 -2.0533  0.0768
  638MOL0     H84194   6.773   1.025   3.793 -3.1395  2.1733  1.0554
  638MOL0     H84195   6.923   1.044   3.726 -3.2493 -2.7194 -1.2095
  638MOL0     H84196   6.886   1.202   3.935  1.9660  1.1911  0.3946
  638MOL0     H84197   6.754   1.279   3.852  0.7490  0.2266  1.7202
  638MOL0     H84198   6.949   0.509   3.312 -2.4863  3.6229  2.6425
  638MOL0     H84199   7.114   0.471   3.108  1.7006  1.7671 -0.5360
  638MOL0     H84200   7.478   0.550   2.833 -1.4326 -1.2661  0.4216
  638MOL0     H84201   7.573   0.457   2.606  1.0576  2.5624 -1.2525
  638MOL0     H84202   9.364   0.482   1.847 -0.3959 -0.2888  1.1630
  638MOL0     H84203   9.585   0.570   1.891 -0.9424 -1.1677  1.0952
  638MOL0     H84204   9.847   0.837   2.050 -2.5877  0.1302 -1.5120
  638MOL0     H84205  10.034   0.930   2.133 -4.0663  2.2318 -0.2805
  638MOL0     H84206  10.419   1.053   1.873  1.1376 -0.4086 -0.9508
  638MOL0     H84207  10.416   0.881   1.844 -1.9096 -0.8714  0.5236
  638MOL0     H84208  10.507   1.001   2.092 -1.5239 -0.2848  0.0158
  638MOL0     H84209  10.490   0.835   2.068  0.4258 -0.0454 -0.3063
  638MOL0     H84210  10.641   0.891   1.856 -0.8989  0.2987 -0.2405
  638MOL0     H84211  10.720   0.878   2.026  3.8176  0.1372 -2.6854
  638MOL0     H84212  10.635   1.138   1.893 -0.5945 -1.8920 -0.9036
  638MOL0     H84213  10.694   1.118   2.054 -1.6715  1.2107 -0.7326
  638MOL0     H84214  11.052   1.088   1.829 -0.8991 -2.1164  0.4821
  638MOL0     H84215  10.216   0.874   1.744  0.6901 -0.2903  1.3224
  638MOL0     H84216  10.002   0.814   1.652  2.5117 -0.3830  0.5308
  639MOL0     O84217   3.793   4.419   1.841 -0.3435  0.0452  0.5742
  639MOL0     C84218   3.807   4.471   1.728 -0.8628  0.7185 -0.1693
  639MOL0     O84219   3.709   4.494   1.642  0.3158 -0.3060  0.9220
  639MOL0     C84220   3.578   4.527   1.691 -0.7049  0.5471  0.0128
  639MOL0     C84221   3.482   4.529   1.598 -0.2740 -0.0765 -0.1216
  639MOL0     C84222   3.356   4.573   1.624  0.3466  0.1703 -0.5495
  639MOL0     C84223   3.322   4.623   1.751  0.0144  0.7466 -0.5445
  639MOL0     O84224   3.191   4.666   1.765  0.4600 -0.1987 -0.1487
  639MOL0     C84225   3.133   4.714   1.887 -0.6326 -1.2605  0.0318
  639MOL0     C84226   3.185   4.857   1.913 -0.3518 -0.6219  0.3167
  639MOL0     C84227   3.085   4.941   1.976 -0.4867  0.9699 -0.5639
  639MOL0     C84228   3.138   5.088   1.976  0.0887 -0.9094 -0.6152
  639MOL0     C84229   3.057   5.196   2.057  0.8210 -0.2985 -0.6462
  639MOL0     C84230   3.016   5.151   2.202  0.0967  0.1634 -0.1149
  639MOL0     C84231   2.939   5.267   2.269  0.1945  0.0143 -0.0471
  639MOL0     C84232   2.884   5.224   2.416 -0.7673 -0.3753  0.2569
  639MOL0     N84233   2.762   5.292   2.464 -0.1395 -0.1243 -0.2846
  639MOL0     C84234   2.773   5.410   2.537  0.1314  0.2852  0.1775
  639MOL0     C84235   2.643   5.452   2.551  0.2987  0.4318  0.2174
  639MOL0     C84236   2.590   5.579   2.600 -0.7544 -0.1394  0.7224
  639MOL0     C84237   2.471   5.634   2.531  0.6302 -0.6120  0.3037
  639MOL0     C84238   2.335   5.614   2.589 -0.4219  0.4645 -0.7471
  639MOL0     C84239   2.212   5.662   2.508 -0.6740  0.2204  0.7938
  639MOL0     O84240   2.092   5.651   2.584 -0.6016  0.9381 -0.5146
  639MOL0     C84241   2.058   5.522   2.609 -1.0714 -0.6059  0.3918
  639MOL0     C84242   1.996   5.505   2.734  0.4659 -0.8107  0.1492
  639MOL0     C84243   1.959   5.374   2.774  0.2985  0.2229  0.4796
  639MOL0     C84244   1.987   5.259   2.693 -0.3909 -0.3544  0.2186
  639MOL0     C84245   1.941   5.117   2.714  0.6111 -0.2294 -0.2428
  639MOL0     O84246   1.919   5.034   2.607 -0.2260 -0.2314  0.1037
  639MOL0     C84247   1.828   4.931   2.599 -0.0275  0.4170 -0.4430
  639MOL0     C84248   1.713   4.930   2.675  0.0476 -0.6207  0.0141
  639MOL0     C84249   1.617   4.824   2.661 -0.5342 -0.4964  0.7156
  639MOL0     C84250   1.649   4.716   2.569  0.0455 -0.3844 -0.1010
  639MOL0     O84251   1.551   4.619   2.554 -0.4280 -0.4445 -0.8897
  639MOL0     C84252   1.464   4.621   2.444  0.0061 -0.4703 -0.3257
  639MOL0     C84253   1.363   4.515   2.455  0.2742  0.2000  0.2942
  639MOL0     C84254   1.253   4.537   2.559  0.0777 -0.5897 -0.1200
  639MOL0     C84255   1.128   4.451   2.533  0.1931  0.2503 -1.0595
  639MOL0     C84256   1.020   4.437   2.652 -0.2675  0.8025  0.5247
  639MOL0     C84257   0.955   4.568   2.668 -0.1766  0.5876  0.3666
  639MOL0     C84258   0.840   4.555   2.774  0.3942  0.6539 -0.0400
  639MOL0     C84259   0.713   4.495   2.697 -0.5877 -0.7756 -0.5016
  639MOL0    Cl84260   0.572   4.549   2.787  0.0031 -0.2711 -0.0658
  639MOL0     C84261   1.766   4.708   2.504 -0.5702  0.2042  0.4343
  639MOL0     C84262   1.860   4.822   2.514  0.7921  0.5734  1.0962
  639MOL0     O84263   1.913   5.088   2.826 -0.1037  0.3706 -0.1644
  639MOL0     C84264   2.051   5.285   2.577 -1.0493  0.0258  0.0655
  639MOL0     C84265   2.085   5.409   2.534  0.2208 -1.0224 -0.0827
  639MOL0     N84266   2.561   5.343   2.517  1.1111  0.0531 -0.1610
  639MOL0     N84267   2.634   5.249   2.461 -0.4378 -0.4634 -0.1178
  639MOL0     C84268   3.419   4.616   1.849  0.2344 -0.3600 -0.2591
  639MOL0     C84269   3.545   4.569   1.821 -0.0998  0.6968 -0.0659
  639MOL0     C84270   3.946   4.469   1.674 -0.7223 -1.0121 -0.4218
  639MOL0     C84271   4.052   4.473   1.763 -0.9630  0.2046  0.0415
  639MOL0     C84272   4.190   4.471   1.729 -0.0840 -1.8501 -0.2981
  639MOL0     C84273   4.227   4.495   1.594  0.3025  0.3329 -0.3837
  639MOL0     O84274   4.361   4.513   1.543  0.6920  0.0406 -0.5211
  639MOL0     C84275   4.467   4.502   1.636  0.5156  0.0823  0.7414
  639MOL0     C84276   4.592   4.538   1.553 -0.6876 -0.2157 -0.4159
  639MOL0     C84277   4.702   4.602   1.642  0.3900 -0.8819 -0.0929
  639MOL0     C84278   4.763   4.512   1.745 -0.3895 -0.5348  0.4829
  639MOL0     C84279   4.877   4.421   1.705  0.0991 -0.5225  0.7718
  639MOL0     C84280   4.984   4.358   1.678  0.3841 -0.1048  0.2667
  639MOL0     C84281   4.119   4.483   1.500  0.4265  0.0693  0.2155
  639MOL0     C84282   3.985   4.471   1.537  0.1151  0.5065  0.6799
  639MOL0     H84283   3.508   4.514   1.494 -3.0319  0.2968 -0.9432
  639MOL0     H84284   3.290   4.576   1.538  0.3960 -1.4381 -0.6665
  639MOL0     H84285   3.155   4.651   1.974  2.1026  0.2808  0.5946
  639MOL0     H84286   3.025   4.714   1.870 -0.3384  0.6290 -2.3271
  639MOL0     H84287   3.216   4.913   1.824 -0.6157  1.9096  1.7103
  639MOL0     H84288   3.272   4.851   1.980  0.5578 -1.9306 -0.9257
  639MOL0     H84289   3.078   4.903   2.079  1.5934  0.0097 -0.7320
  639MOL0     H84290   2.985   4.922   1.936 -0.9284 -0.9488  1.2617
  639MOL0     H84291   3.234   5.082   2.028 -0.5340 -1.1060  0.5616
  639MOL0     H84292   3.156   5.127   1.876 -1.1366  1.3094 -0.0354
  639MOL0     H84293   2.965   5.219   2.003  0.2635 -0.0867  0.3724
  639MOL0     H84294   3.113   5.290   2.064  1.3013 -0.6149 -0.1824
  639MOL0     H84295   3.105   5.123   2.260  0.4262  0.4756 -0.4589
  639MOL0     H84296   2.945   5.068   2.202 -0.1268  0.3552 -0.0957
  639MOL0     H84297   2.996   5.359   2.281 -2.5763  1.5982  1.9170
  639MOL0     H84298   2.855   5.288   2.202 -1.8677  1.2225  2.7055
  639MOL0     H84299   2.967   5.225   2.487 -2.4530 -1.5777  2.3466
  639MOL0     H84300   2.844   5.122   2.416 -1.0674 -0.2610 -0.0871
  639MOL0     H84301   2.861   5.461   2.574  0.7484  0.5298 -1.5556
  639MOL0     H84302   2.674   5.647   2.586  0.3285 -1.8430 -1.6797
  639MOL0     H84303   2.553   5.569   2.702  0.0326 -2.1705  0.8554
  639MOL0     H84304   2.458   5.593   2.430  0.4102  2.0188 -0.8115
  639MOL0     H84305   2.482   5.739   2.503 -0.1309 -0.6657 -0.2068
  639MOL0     H84306   2.319   5.507   2.603 -0.1227  0.5988  0.7592
  639MOL0     H84307   2.320   5.662   2.685 -1.8506  0.7418 -1.0877
  639MOL0     H84308   2.210   5.605   2.415  5.2379 -1.9650  1.5309
  639MOL0     H84309   2.231   5.762   2.468  0.6518 -0.3416 -0.0670
  639MOL0     H84310   1.975   5.596   2.789 -0.3209 -2.2249  2.2970
  639MOL0     H84311   1.902   5.349   2.863 -3.0134  1.9550 -1.0011
  639MOL0     H84312   1.698   5.024   2.725  2.0790 -0.8516  1.1812
  639MOL0     H84313   1.527   4.806   2.719 -0.9864 -1.7376 -0.3298
  639MOL0     H84314   1.534   4.604   2.362 -0.3893  0.4527 -0.8685
  639MOL0     H84315   1.407   4.715   2.444 -3.9851 -2.6785  1.1398
  639MOL0     H84316   1.410   4.416   2.462  0.8576  0.5445  1.5013
  639MOL0     H84317   1.306   4.528   2.363 -1.2737  0.4380  1.2571
  639MOL0     H84318   1.235   4.645   2.560  0.8465 -0.4590  0.9972
  639MOL0     H84319   1.299   4.515   2.656  2.8451  1.6090 -0.8123
  639MOL0     H84320   1.087   4.478   2.435 -0.2483  2.0271 -0.4171
  639MOL0     H84321   1.169   4.350   2.530 -2.5401 -1.1931  2.7550
  639MOL0     H84322   1.061   4.411   2.750 -0.2326 -1.8832 -0.1370
  639MOL0     H84323   0.952   4.355   2.627  0.5250  1.0308 -2.8097
  639MOL0     H84324   0.915   4.599   2.572 -1.7255 -0.5273  0.6167
  639MOL0     H84325   1.034   4.634   2.706  0.6988  0.6793 -1.4980
  639MOL0     H84326   0.878   4.487   2.850  1.2767 -1.7374 -2.4695
  639MOL0     H84327   0.819   4.652   2.820  1.5380  0.5604  0.7077
  639MOL0     H84328   0.723   4.390   2.670 -0.6041 -0.1799 -3.1016
  639MOL0     H84329   0.708   4.542   2.598 -0.1060  0.0011 -0.1674
  639MOL0     H84330   1.774   4.619   2.443 -1.0759 -0.7433  1.7046
  639MOL0     H84331   1.952   4.821   2.456  0.3597 -3.3755  0.1569
  639MOL0     H84332   2.075   5.200   2.514  1.7722  0.7342  0.0567
  639MOL0     H84333   2.138   5.423   2.441 -0.2777  0.2862 -0.1940
  639MOL0     H84334   3.403   4.660   1.947 -1.4715  2.6448 -1.7307
  639MOL0     H84335   3.625   4.575   1.893  0.8529 -0.2070 -0.9983
  639MOL0     H84336   4.032   4.460   1.868 -0.1872  0.8688  0.2867
  639MOL0     H84337   4.270   4.476   1.802 -0.9917  3.1249  0.7125
  639MOL0     H84338   4.473   4.402   1.680 -0.5826 -1.3424 -2.0685
  639MOL0     H84339   4.446   4.571   1.718 -1.8812 -0.7827  0.9489
  639MOL0     H84340   4.640   4.451   1.508  0.3383 -0.0696  0.3524
  639MOL0     H84341   4.553   4.610   1.480 -1.9531  0.4449  0.8354
  639MOL0     H84342   4.654   4.677   1.705 -0.2580 -0.9215 -0.5323
  639MOL0     H84343   4.778   4.653   1.582 -1.9438  0.5474 -2.0190
  639MOL0     H84344   4.805   4.580   1.820 -1.7972  0.9523 -0.0097
  639MOL0     H84345   4.691   4.447   1.796 -0.3604  1.9057  3.9807
  639MOL0     H84346   5.068   4.301   1.642  1.0304  2.7063 -3.3147
  639MOL0     H84347   4.154   4.492   1.397  0.9791  1.6175  0.5212
  639MOL0     H84348   3.906   4.448   1.466 -0.5880  1.2482  1.2056
  640MOL0     O84349   3.696   7.758   1.392  0.1064  0.5840 -0.5712
  640MOL0     C84350   3.791   7.691   1.351  0.5342  0.0357  0.0851
  640MOL0     O84351   3.817   7.558   1.389 -0.0078 -0.3395 -0.4444
  640MOL0     C84352   3.711   7.488   1.446 -0.0025 -0.1093 -0.2605
  640MOL0     C84353   3.734   7.408   1.555  0.3153 -0.5104  0.1320
  640MOL0     C84354   3.640   7.317   1.610  0.7363 -0.2215 -0.5094
  640MOL0     C84355   3.517   7.327   1.566  0.6799 -0.6772 -0.5663
  640MOL0     O84356   3.413   7.247   1.617 -0.5513 -0.3540  0.0780
  640MOL0     C84357   3.430   7.183   1.745 -0.2054  0.7119  0.0057
  640MOL0     C84358   3.304   7.097   1.781  0.2660  0.3322 -0.1643
  640MOL0     C84359   3.185   7.186   1.826 -0.5734 -0.6586  0.0809
  640MOL0     C84360   3.053   7.102   1.833 -0.3779  0.5207 -0.1181
  640MOL0     C84361   2.922   7.172   1.826  0.6700  0.2882 -0.1883
  640MOL0     C84362   2.807   7.062   1.837  0.0099 -0.8777  0.0635
  640MOL0     C84363   2.685   7.152   1.853  0.6598 -0.7870  0.8283
  640MOL0     C84364   2.563   7.062   1.878 -0.5666  0.8663 -0.4429
  640MOL0     N84365   2.442   7.139   1.881 -1.2628  0.0023  0.4367
  640MOL0     C84366   2.398   7.227   1.979 -1.0407 -0.4381  0.1561
  640MOL0     C84367   2.276   7.271   1.936  0.8254 -1.0162  0.0132
  640MOL0     C84368   2.183   7.364   2.005  0.6786 -1.1908  0.7091
  640MOL0     C84369   2.045   7.378   1.936  0.0963  0.1683 -0.8222
  640MOL0     C84370   1.951   7.252   1.947  0.3586  0.0082  0.2479
  640MOL0     C84371   1.945   7.174   2.074  0.9751 -0.1562  0.0561
  640MOL0     O84372   1.868   7.254   2.168  0.4041 -0.3502 -0.8067
  640MOL0     C84373   1.728   7.245   2.173  1.1878 -0.4618  0.1215
  640MOL0     C84374   1.669   7.296   2.290 -0.5218  0.2891 -0.1393
  640MOL0     C84375   1.532   7.298   2.301  0.7444  0.3682 -0.0869
  640MOL0     C84376   1.451   7.227   2.211  1.0863  0.8760  0.4529
  640MOL0     C84377   1.304   7.215   2.236 -0.9584 -0.4678 -0.8895
  640MOL0     O84378   1.258   7.290   2.344 -0.4348 -0.1609  0.2854
  640MOL0     C84379   1.130   7.278   2.387 -0.5323  0.1176  0.8088
  640MOL0     C84380   1.065   7.400   2.407 -0.9895  0.4698  0.5536
  640MOL0     C84381   0.924   7.402   2.431 -0.1470 -0.3028 -0.7440
  640MOL0     C84382   0.845   7.291   2.439  0.3571  0.6912 -0.5749
  640MOL0     O84383   0.717   7.298   2.490  0.4019 -0.6447 -0.1880
  640MOL0     C84384   0.660   7.183   2.567  0.6002  0.5383 -0.5961
  640MOL0     C84385   0.530   7.246   2.619 -0.5578  0.0907 -0.1762
  640MOL0     C84386   0.419   7.254   2.509  0.6886 -0.4850 -0.6426
  640MOL0     C84387   0.284   7.293   2.565 -0.9914 -0.1263  0.5635
  640MOL0     C84388   0.176   7.303   2.463  0.7262 -0.0547  0.2945
  640MOL0     C84389   0.042   7.335   2.535  0.7734 -0.2136  0.0369
  640MOL0     C84390  -0.079   7.370   2.441  0.5241 -0.2717  0.1666
  640MOL0     C84391  -0.211   7.298   2.478  0.5705  0.3253 -0.8833
  640MOL0    Cl84392  -0.189   7.122   2.460  0.3306 -0.1450 -0.2611
  640MOL0     C84393   0.913   7.168   2.407  0.2515 -1.0210 -0.1956
  640MOL0     C84394   1.050   7.158   2.387  0.8581 -0.1082 -0.2241
  640MOL0     O84395   1.232   7.159   2.153  0.0435  0.0239 -0.5440
  640MOL0     C84396   1.505   7.159   2.097 -0.6808 -0.3185 -0.5043
  640MOL0     C84397   1.645   7.173   2.079 -0.6727  0.1828 -0.2119
  640MOL0     N84398   2.251   7.207   1.817 -0.3717 -0.2622 -0.1776
  640MOL0     N84399   2.350   7.131   1.789  0.6095 -0.1504 -0.4576
  640MOL0     C84400   3.472   7.420   1.465 -1.4309 -0.3784 -0.2657
  640MOL0     C84401   3.581   7.489   1.395  0.0833  0.7822  0.4799
  640MOL0     C84402   3.897   7.753   1.286 -0.7157 -0.4158  1.1700
  640MOL0     C84403   4.034   7.720   1.315 -0.5826  0.1179 -0.0569
  640MOL0     C84404   4.137   7.789   1.253  0.3554 -0.2823  0.3912
  640MOL0     C84405   4.115   7.884   1.150  0.2632  0.3555 -0.6711
  640MOL0     O84406   4.226   7.941   1.082  0.1482  0.0787 -0.1228
  640MOL0     C84407   4.207   8.020   0.967 -0.1546 -0.0790 -0.8978
  640MOL0     C84408   4.342   8.080   0.920 -0.5774 -0.7782 -0.6220
  640MOL0     C84409   4.418   8.155   1.036 -0.2466  0.0746 -0.3698
  640MOL0     C84410   4.347   8.260   1.117  0.0658  0.3499 -0.2003
  640MOL0     C84411   4.445   8.368   1.130 -0.2177  0.1130  0.7294
  640MOL0     C84412   4.521   8.464   1.132  0.2398 -0.1079  0.1973
  640MOL0     C84413   3.979   7.924   1.136 -0.1352  0.7960  0.1874
  640MOL0     C84414   3.874   7.864   1.201  0.1242  0.1015  1.5634
  640MOL0     H84415   3.830   7.405   1.605 -0.3697 -1.9345  1.4434
  640MOL0     H84416   3.669   7.257   1.696 -1.9080 -0.5827  0.1928
  640MOL0     H84417   3.461   7.250   1.825  2.1853 -0.8107  0.4506
  640MOL0     H84418   3.511   7.109   1.748  1.7401  2.7634  0.5872
  640MOL0     H84419   3.340   7.041   1.868  1.3291 -0.6278 -1.1977
  640MOL0     H84420   3.277   7.024   1.705 -3.8097  1.0307  0.4055
  640MOL0     H84421   3.166   7.267   1.754 -2.3598 -1.7656 -0.7550
  640MOL0     H84422   3.196   7.224   1.928 -4.3671 -3.7673  1.8983
  640MOL0     H84423   3.058   7.031   1.750  1.5347  0.3406  0.1079
  640MOL0     H84424   3.058   7.060   1.934 -1.1094  1.9127  0.5325
  640MOL0     H84425   2.905   7.232   1.735 -1.1604  3.1793  1.8651
  640MOL0     H84426   2.912   7.254   1.898  2.2305  3.9882 -3.7266
  640MOL0     H84427   2.824   6.997   1.923  0.9321  2.8883  2.9968
  640MOL0     H84428   2.786   7.015   1.741 -1.4257  1.9488 -1.1209
  640MOL0     H84429   2.694   7.215   1.942  0.6704  1.8118 -0.9466
  640MOL0     H84430   2.671   7.211   1.762  0.5076 -2.1003 -0.0334
  640MOL0     H84431   2.588   7.025   1.977  1.3596  0.3570 -1.0862
  640MOL0     H84432   2.566   6.983   1.802  0.9934  1.0271 -0.5690
  640MOL0     H84433   2.458   7.244   2.067  1.0826  0.5021 -1.3823
  640MOL0     H84434   2.225   7.464   1.996  2.1413 -1.5430  2.9564
  640MOL0     H84435   2.165   7.344   2.111  0.1185  1.4924  1.1893
  640MOL0     H84436   2.057   7.399   1.829  0.9614 -2.1257 -1.2295
  640MOL0     H84437   1.988   7.455   1.988 -1.0297  0.2511 -2.1093
  640MOL0     H84438   1.847   7.280   1.925  0.7430 -0.5571 -2.8019
  640MOL0     H84439   1.980   7.176   1.874 -0.8663 -1.6673  1.4513
  640MOL0     H84440   2.044   7.148   2.111 -0.1465 -2.6905  1.5383
  640MOL0     H84441   1.904   7.074   2.054  0.7699  0.2228 -1.6016
  640MOL0     H84442   1.727   7.343   2.368 -1.1483  2.4321 -0.8934
  640MOL0     H84443   1.484   7.345   2.386 -0.0444 -1.0644  0.2944
  640MOL0     H84444   1.125   7.489   2.392 -0.3267  0.4000  2.5278
  640MOL0     H84445   0.871   7.497   2.438 -1.1898 -0.5925 -3.6054
  640MOL0     H84446   0.717   7.160   2.658 -1.4874 -0.3123  0.5565
  640MOL0     H84447   0.650   7.090   2.510  0.0826 -0.1741  0.6193
  640MOL0     H84448   0.555   7.342   2.664  1.2833 -0.7176  0.6439
  640MOL0     H84449   0.506   7.184   2.706  2.9323  3.0893  3.2903
  640MOL0     H84450   0.415   7.155   2.463 -0.5207 -2.2954  2.9321
  640MOL0     H84451   0.449   7.315   2.424 -2.7615 -0.0037 -1.6882
  640MOL0     H84452   0.269   7.212   2.638  1.0051 -0.9934  0.0842
  640MOL0     H84453   0.297   7.382   2.627  0.0892  1.1786 -1.4523
  640MOL0     H84454   0.165   7.213   2.402  2.0324  0.4559 -0.7546
  640MOL0     H84455   0.191   7.393   2.402  2.4492 -0.1430  0.5387
  640MOL0     H84456   0.057   7.425   2.594 -1.0095 -1.2107  2.1614
  640MOL0     H84457   0.017   7.246   2.594 -2.1734  0.8823  0.6397
  640MOL0     H84458  -0.100   7.477   2.438  1.5803 -0.0535  0.2491
  640MOL0     H84459  -0.067   7.333   2.339  0.7674  0.1404  0.0455
  640MOL0     H84460  -0.289   7.328   2.408  1.2365 -1.0266 -2.2455
  640MOL0     H84461  -0.245   7.324   2.579 -0.7954 -2.4179 -0.5512
  640MOL0     H84462   0.870   7.068   2.407  2.8853 -2.2304  1.0129
  640MOL0     H84463   1.098   7.070   2.344  3.2056  0.5852  0.7939
  640MOL0     H84464   1.455   7.103   2.019  2.1830 -2.6629 -0.8363
  640MOL0     H84465   1.697   7.116   2.002  0.8099 -0.6923  1.3626
  640MOL0     H84466   3.371   7.423   1.426 -0.5537  0.7048 -2.6457
  640MOL0     H84467   3.538   7.542   1.310  0.0906 -3.1619 -2.2844
  640MOL0     H84468   4.064   7.639   1.381  2.6539 -3.2010 -4.9257
  640MOL0     H84469   4.242   7.770   1.273  0.0644  0.7404  3.3561
  640MOL0     H84470   4.143   8.107   0.981 -1.2367 -1.1781  1.3838
  640MOL0     H84471   4.160   7.951   0.897 -2.3980 -0.9576  1.3320
  640MOL0     H84472   4.406   7.999   0.884  0.8732 -0.1189  0.3535
  640MOL0     H84473   4.334   8.147   0.834  0.1257 -0.0628 -0.1470
  640MOL0     H84474   4.509   8.193   0.989  0.5207 -2.0507 -0.7179
  640MOL0     H84475   4.455   8.075   1.101 -0.7080 -0.5509 -0.8567
  640MOL0     H84476   4.261   8.296   1.060  0.5757 -2.2574 -2.8284
  640MOL0     H84477   4.315   8.227   1.216  1.5530  0.0207  0.1854
  640MOL0     H84478   4.595   8.542   1.138 -0.2204  0.2703  1.0969
  640MOL0     H84479   3.956   8.007   1.070 -3.0294  0.6968  0.9286
  640MOL0     H84480   3.767   7.871   1.179  0.1603 -0.3740  1.2161
  641MOL0     O84481   6.427   8.147  10.633 -0.5653  0.1561 -0.0573
  641MOL0     C84482   6.367   8.087  10.716  0.3673  0.5244 -0.3271
  641MOL0     O84483   6.293   8.142  10.812  0.0400  0.2265  0.2382
  641MOL0     C84484   6.269   8.276  10.810 -0.7823  0.1321 -0.0381
  641MOL0     C84485   6.369   8.363  10.850  0.3898  0.3043  0.2986
  641MOL0     C84486   6.334   8.498  10.863 -0.2642 -0.0133  0.1832
  641MOL0     C84487   6.205   8.549  10.837  0.9758  0.9236  0.4299
  641MOL0     O84488   6.158   8.676  10.868 -0.6235 -0.0012  0.5481
  641MOL0     C84489   6.258   8.777  10.891  0.4037  0.0795  0.3037
  641MOL0     C84490   6.322   8.817  10.750 -0.4352  0.1946  0.0875
  641MOL0     C84491   6.216   8.878  10.643 -0.5312 -0.1153 -1.1718
  641MOL0     C84492   6.296   8.879  10.516  0.1388  0.5371  0.3435
  641MOL0     C84493   6.212   8.931  10.399 -0.0813  0.3510 -0.4352
  641MOL0     C84494   6.302   8.966  10.279 -0.4741 -0.0722 -1.1726
  641MOL0     C84495   6.215   8.988  10.156 -0.0162 -0.0361 -0.0580
  641MOL0     C84496   6.182   8.859  10.074  0.4039  0.3940  0.5685
  641MOL0     N84497   6.302   8.804  10.004 -0.5009 -0.8403 -0.6677
  641MOL0     C84498   6.356   8.844   9.877  0.3740  0.2687 -0.6877
  641MOL0     C84499   6.454   8.758   9.859 -0.8258  0.2157 -0.7674
  641MOL0     C84500   6.547   8.749   9.749  0.1209 -0.1059 -0.0873
  641MOL0     C84501   6.490   8.791   9.616 -0.4391 -0.3780  0.1945
  641MOL0     C84502   6.365   8.714   9.571  0.7537 -0.0024  0.4176
  641MOL0     C84503   6.325   8.752   9.432  0.2384 -0.2122 -0.1869
  641MOL0     O84504   6.224   8.854   9.446 -0.5429 -0.3434 -0.2909
  641MOL0     C84505   6.157   8.899   9.335 -0.1445 -0.1710 -0.9052
  641MOL0     C84506   6.066   9.006   9.364 -0.5018  0.9577  1.3149
  641MOL0     C84507   5.990   9.061   9.264  0.5125  0.0092  0.6210
  641MOL0     C84508   5.991   9.005   9.133 -1.0931  0.3511  0.3937
  641MOL0     C84509   5.898   9.054   9.035  0.4231 -0.2141  0.2047
  641MOL0     O84510   5.846   9.176   9.057 -0.6674 -0.1606 -0.2620
  641MOL0     C84511   5.725   9.221   9.012  0.1221  0.4408  0.2505
  641MOL0     C84512   5.703   9.360   8.990 -0.8056 -0.4812  0.1555
  641MOL0     C84513   5.584   9.406   8.957 -0.1221  0.5919  0.1841
  641MOL0     C84514   5.480   9.315   8.928 -1.4222 -0.3739 -1.3761
  641MOL0     O84515   5.361   9.371   8.889  0.1901  0.2796  0.7461
  641MOL0     C84516   5.248   9.293   8.847  0.3370 -0.4777  0.5993
  641MOL0     C84517   5.146   9.382   8.782  0.6122  0.6432 -0.0445
  641MOL0     C84518   5.005   9.309   8.771 -0.6553 -0.3082 -0.1400
  641MOL0     C84519   4.926   9.312   8.905  0.0860  0.7795 -0.6054
  641MOL0     C84520   4.797   9.234   8.880 -0.0033 -0.2499 -0.6904
  641MOL0     C84521   4.698   9.228   8.995 -0.5286 -0.5935  0.2443
  641MOL0     C84522   4.739   9.152   9.114  0.8588  0.5459 -0.2378
  641MOL0     C84523   4.620   9.075   9.175  0.0275 -0.3388  0.4574
  641MOL0    Cl84524   4.682   9.028   9.332 -0.4007 -0.3737 -0.1934
  641MOL0     C84525   5.497   9.175   8.950  0.0489  0.3617 -0.4087
  641MOL0     C84526   5.625   9.124   8.990  0.4054 -1.2337  0.4022
  641MOL0     O84527   5.872   8.988   8.938 -0.1172 -0.3424  0.0593
  641MOL0     C84528   6.084   8.894   9.109 -0.1196  0.7118  0.0011
  641MOL0     C84529   6.174   8.859   9.207 -0.3715  0.6355 -0.4300
  641MOL0     N84530   6.464   8.669   9.966 -0.0211  0.0010 -0.2105
  641MOL0     N84531   6.372   8.698  10.052  0.3677  1.1428  0.5619
  641MOL0     C84532   6.104   8.456  10.807 -0.3284 -0.4138 -0.6992
  641MOL0     C84533   6.136   8.322  10.796  0.4537 -0.0675 -0.7048
  641MOL0     C84534   6.400   7.944  10.711 -0.0882  0.1577 -0.1535
  641MOL0     C84535   6.359   7.870  10.817 -0.0077  0.4447 -1.0241
  641MOL0     C84536   6.404   7.739  10.829  0.7769 -0.6745 -0.4178
  641MOL0     C84537   6.488   7.676  10.728 -0.1090  0.1594 -0.8646
  641MOL0     O84538   6.533   7.551  10.755  0.0005  0.5918 -0.1917
  641MOL0     C84539   6.598   7.468  10.657  0.3937 -0.6784 -0.1358
  641MOL0     C84540   6.501   7.397  10.570  0.2774 -0.0993  0.4045
  641MOL0     C84541   6.390   7.321  10.648 -0.4160 -0.3426  0.5321
  641MOL0     C84542   6.442   7.214  10.750  0.3706 -0.3991  0.0452
  641MOL0     C84543   6.506   7.105  10.676  0.3751  0.4533  0.7901
  641MOL0     C84544   6.561   7.011  10.620 -0.6934  0.4702  0.6800
  641MOL0     C84545   6.520   7.756  10.621  0.5204 -0.0794 -0.5315
  641MOL0     C84546   6.475   7.892  10.606  0.3768  0.7861  0.9015
  641MOL0     H84547   6.466   8.318  10.869 -1.0470 -4.4377 -2.1732
  641MOL0     H84548   6.418   8.564  10.884  0.7322 -0.5208 -1.8981
  641MOL0     H84549   6.329   8.745  10.969 -0.1287 -1.2259  0.2787
  641MOL0     H84550   6.214   8.869  10.929  0.8087 -0.1480  1.3754
  641MOL0     H84551   6.381   8.734  10.710  0.5360  0.4966  0.8685
  641MOL0     H84552   6.394   8.898  10.767  1.0214 -0.0222 -3.9159
  641MOL0     H84553   6.183   8.978  10.670  2.2137  1.5644 -3.4853
  641MOL0     H84554   6.124   8.819  10.634 -0.3635 -0.4573 -0.7107
  641MOL0     H84555   6.380   8.948  10.531 -0.3041  1.1543  0.0461
  641MOL0     H84556   6.330   8.777  10.493  3.0844  1.8904 -2.1668
  641MOL0     H84557   6.163   9.024  10.431 -0.2272 -0.6902  2.6515
  641MOL0     H84558   6.131   8.861  10.374  0.5172  0.1554 -1.9461
  641MOL0     H84559   6.366   8.881  10.256  1.8417  1.5797 -1.1957
  641MOL0     H84560   6.369   9.050  10.300  2.6637 -2.6311 -0.1687
  641MOL0     H84561   6.123   9.034  10.195  1.7563 -0.0402  4.8673
  641MOL0     H84562   6.261   9.063  10.091 -1.9990  2.4306  1.1774
  641MOL0     H84563   6.100   8.873  10.003  0.1128 -2.2668  0.2876
  641MOL0     H84564   6.150   8.781  10.143  3.2915  0.2038  1.8530
  641MOL0     H84565   6.323   8.921   9.808  1.1562  0.3262 -1.0137
  641MOL0     H84566   6.590   8.650   9.735  3.5461  0.9420  1.7908
  641MOL0     H84567   6.639   8.804   9.769  0.1214  0.3708 -1.2967
  641MOL0     H84568   6.565   8.781   9.536 -1.6330 -2.2825 -0.7686
  641MOL0     H84569   6.457   8.895   9.611  1.2659  0.4232  3.1328
  641MOL0     H84570   6.399   8.611   9.568  0.0784 -0.2196 -0.0862
  641MOL0     H84571   6.282   8.729   9.641 -0.4510  0.5648 -1.0455
  641MOL0     H84572   6.279   8.662   9.389 -0.7524  0.3873 -0.4036
  641MOL0     H84573   6.410   8.779   9.368 -0.5804  0.4790 -1.0109
  641MOL0     H84574   6.066   9.038   9.468 -1.5817 -0.5079  1.8098
  641MOL0     H84575   5.922   9.144   9.283 -0.7555 -1.3899  2.5890
  641MOL0     H84576   5.775   9.439   9.008  0.4623 -0.3317 -4.3262
  641MOL0     H84577   5.553   9.509   8.943 -1.2153  0.1273 -1.0443
  641MOL0     H84578   5.200   9.236   8.927 -1.4838  2.7520  2.0064
  641MOL0     H84579   5.264   9.222   8.765 -1.7012 -1.0769  0.6490
  641MOL0     H84580   5.178   9.422   8.686 -0.4377  1.3135 -0.1272
  641MOL0     H84581   5.135   9.473   8.842  4.1388 -0.7915  3.2651
  641MOL0     H84582   5.020   9.209   8.729  0.0655  0.6027 -2.2014
  641MOL0     H84583   4.938   9.364   8.705 -0.5013  2.5486  1.8595
  641MOL0     H84584   4.986   9.271   8.987 -3.2243  0.2667  1.7556
  641MOL0     H84585   4.900   9.415   8.930  0.7527  2.0222 -4.3257
  641MOL0     H84586   4.821   9.130   8.855 -1.9231 -0.9376  0.1341
  641MOL0     H84587   4.752   9.282   8.793 -0.6076 -0.3989 -0.4640
  641MOL0     H84588   4.609   9.176   8.957 -0.1271 -1.5133  0.5147
  641MOL0     H84589   4.665   9.329   9.021 -0.0458  0.3939 -2.6309
  641MOL0     H84590   4.813   9.078   9.080  0.5948  0.9170 -1.6886
  641MOL0     H84591   4.786   9.227   9.179 -0.7099  2.0547 -0.7783
  641MOL0     H84592   4.574   8.995   9.116  0.7085  0.3802 -1.0964
  641MOL0     H84593   4.536   9.141   9.195  1.7583  1.6042  1.7215
  641MOL0     H84594   5.407   9.114   8.946 -0.7478  1.4754 -3.8770
  641MOL0     H84595   5.627   9.017   9.005 -1.3087 -1.4178 -0.3995
  641MOL0     H84596   6.085   8.843   9.013 -2.0145  0.6400 -0.0105
  641MOL0     H84597   6.251   8.785   9.190  0.3712  0.3476  3.3296
  641MOL0     H84598   6.004   8.496  10.793  0.4193  2.2183  0.7447
  641MOL0     H84599   6.054   8.252  10.782  1.0731 -1.1913  0.9861
  641MOL0     H84600   6.301   7.915  10.896  2.3288  4.0224 -1.1328
  641MOL0     H84601   6.385   7.679  10.918  2.0362 -1.4331 -0.6400
  641MOL0     H84602   6.663   7.402  10.715  2.6006  2.6499  1.5250
  641MOL0     H84603   6.671   7.525  10.599 -0.7167  1.3546  0.3569
  641MOL0     H84604   6.460   7.477  10.507  3.8701  1.6644  0.0843
  641MOL0     H84605   6.548   7.331  10.496 -2.5362 -0.0663 -1.5710
  641MOL0     H84606   6.328   7.268  10.575 -0.0527  2.1519 -1.7907
  641MOL0     H84607   6.329   7.395  10.699  0.3607  0.3571  0.4765
  641MOL0     H84608   6.506   7.262  10.824  0.8323  1.0294 -1.2218
  641MOL0     H84609   6.355   7.175  10.804 -0.1848  0.1929 -0.3909
  641MOL0     H84610   6.620   6.936  10.572 -0.9754 -0.3409  1.5783
  641MOL0     H84611   6.568   7.714  10.533  0.1645  1.8872 -1.7143
  641MOL0     H84612   6.491   7.950  10.516  1.9724 -3.0003 -1.5233
  642MOL0     O84613   9.658   5.114   3.348 -0.2456 -0.1570 -0.8903
  642MOL0     C84614   9.631   5.066   3.456  0.9875  0.0336  0.5574
  642MOL0     O84615   9.504   5.039   3.503  0.5536 -0.2430  0.1547
  642MOL0     C84616   9.400   5.067   3.420 -1.1745 -0.7912 -0.4969
  642MOL0     C84617   9.323   4.967   3.361 -1.0967 -0.4079 -0.0903
  642MOL0     C84618   9.197   5.006   3.311 -0.2864 -0.2626  0.0060
  642MOL0     C84619   9.162   5.136   3.307 -0.6586  0.8903 -0.3354
  642MOL0     O84620   9.045   5.184   3.268  0.3045  0.6431 -0.3721
  642MOL0     C84621   8.950   5.092   3.197  0.5547 -1.1039 -0.4474
  642MOL0     C84622   8.808   5.150   3.216  0.0862  0.3094  0.0812
  642MOL0     C84623   8.745   5.109   3.347  0.1316 -0.4355 -0.4722
  642MOL0     C84624   8.612   5.158   3.378 -0.2669 -0.0009  0.3012
  642MOL0     C84625   8.606   5.307   3.421 -0.4725  0.6092  0.7641
  642MOL0     C84626   8.465   5.343   3.483 -0.5351 -0.3288 -0.2463
  642MOL0     C84627   8.446   5.496   3.474 -0.6172 -0.8060  0.7441
  642MOL0     C84628   8.427   5.541   3.323 -0.6017  0.6494  0.2527
  642MOL0     N84629   8.302   5.492   3.269 -0.4487 -0.0509  0.8478
  642MOL0     C84630   8.303   5.434   3.143  0.0709  1.0439  0.6500
  642MOL0     C84631   8.169   5.426   3.115 -0.2966  0.4160  0.4269
  642MOL0     C84632   8.117   5.361   2.990 -0.0504  0.7761 -0.2937
  642MOL0     C84633   8.003   5.425   2.918  0.9954 -0.3518  0.4645
  642MOL0     C84634   8.041   5.562   2.878 -0.3953  0.0158 -0.1515
  642MOL0     C84635   7.938   5.631   2.797 -0.2862 -0.4086 -0.4171
  642MOL0     O84636   7.923   5.570   2.669  0.0544 -0.3838 -0.6072
  642MOL0     C84637   7.830   5.636   2.592  1.1145 -0.4189 -0.4281
  642MOL0     C84638   7.823   5.587   2.459  0.2637 -0.1598 -0.0408
  642MOL0     C84639   7.740   5.640   2.353  0.9073  0.0657 -1.1928
  642MOL0     C84640   7.641   5.741   2.389  0.0174  0.1119  0.2405
  642MOL0     C84641   7.538   5.779   2.288  0.7896  0.0842  0.1863
  642MOL0     O84642   7.446   5.878   2.319  0.4419  0.2238  0.3482
  642MOL0     C84643   7.347   5.919   2.237  0.3815 -0.1942  0.6150
  642MOL0     C84644   7.326   5.881   2.097 -0.5225  0.5057 -0.2289
  642MOL0     C84645   7.220   5.925   2.020  0.6364 -0.1522 -0.8677
  642MOL0     C84646   7.126   6.008   2.082  0.3175  0.5395  0.7277
  642MOL0     O84647   7.022   6.048   2.002 -0.4999  0.8906 -0.6326
  642MOL0     C84648   6.956   5.950   1.916 -0.7467 -0.3209 -0.9485
  642MOL0     C84649   6.803   5.935   1.946  0.5069 -0.4946  0.3379
  642MOL0     C84650   6.721   6.070   1.932 -0.2340 -0.5846  0.5781
  642MOL0     C84651   6.573   6.067   1.974  0.6186 -0.4252 -0.1130
  642MOL0     C84652   6.482   6.136   1.882 -0.4189 -0.2411 -0.6702
  642MOL0     C84653   6.351   6.121   1.942  0.5612  0.9437  0.4983
  642MOL0     C84654   6.249   6.155   1.838  0.3471 -0.4096 -0.1700
  642MOL0     C84655   6.108   6.183   1.899 -0.5401  0.1961 -0.2496
  642MOL0    Cl84656   6.127   6.292   2.033 -0.0036 -0.4435  0.6033
  642MOL0     C84657   7.140   6.048   2.217  0.1530 -0.7385 -0.2674
  642MOL0     C84658   7.249   6.004   2.292 -0.0437 -0.6401 -0.0976
  642MOL0     O84659   7.538   5.702   2.189  0.2001  0.7519  0.0211
  642MOL0     C84660   7.648   5.787   2.522  0.1640  0.4153  0.7195
  642MOL0     C84661   7.743   5.747   2.617 -0.6805 -0.1172  0.1614
  642MOL0     N84662   8.091   5.485   3.211 -0.1182  0.5405 -0.1973
  642MOL0     N84663   8.175   5.515   3.306  0.5239 -0.3324 -0.1148
  642MOL0     C84664   9.245   5.239   3.358 -0.2167  0.2729 -0.2933
  642MOL0     C84665   9.363   5.200   3.422 -0.4382 -0.7030  0.1372
  642MOL0     C84666   9.738   5.078   3.558 -0.6301  0.4336  0.2271
  642MOL0     C84667   9.717   5.066   3.699  0.6367  0.4327  0.3485
  642MOL0     C84668   9.824   5.093   3.789  0.0304  0.9296 -0.6457
  642MOL0     C84669   9.951   5.129   3.744 -0.1472  0.6068  0.7094
  642MOL0     O84670  10.054   5.159   3.834  0.2797 -0.6160  0.3683
  642MOL0     C84671  10.190   5.170   3.784  0.5410  0.4826 -0.2799
  642MOL0     C84672  10.279   5.203   3.918 -0.0005  0.5382 -0.0518
  642MOL0     C84673  10.430   5.206   3.887  0.3808  0.2290 -0.5984
  642MOL0     C84674  10.470   5.061   3.850  0.0985 -0.3927  0.2694
  642MOL0     C84675  10.616   5.047   3.817  0.7446  0.0120 -0.6973
  642MOL0     C84676  10.732   5.030   3.787  0.0381  0.3141  0.4112
  642MOL0     C84677   9.975   5.131   3.602  0.1842  0.4049  0.3419
  642MOL0     C84678   9.868   5.110   3.514  0.5935 -0.7024  0.1971
  642MOL0     H84679   9.351   4.864   3.376 -0.2300 -0.2559 -0.5708
  642MOL0     H84680   9.149   4.915   3.276  0.9627 -0.7279 -0.5832
  642MOL0     H84681   8.946   4.991   3.240  0.5753 -1.1077 -0.4541
  642MOL0     H84682   8.975   5.090   3.091 -1.7826  0.9007 -1.1158
  642MOL0     H84683   8.750   5.117   3.129  1.1846 -0.2763 -0.4414
  642MOL0     H84684   8.821   5.259   3.215 -1.1265  0.4663 -0.4824
  642MOL0     H84685   8.815   5.127   3.429 -0.1120 -0.2865 -0.2947
  642MOL0     H84686   8.730   5.001   3.345 -1.7117 -0.2505  0.6741
  642MOL0     H84687   8.547   5.142   3.292 -0.3700  0.6870  0.2463
  642MOL0     H84688   8.567   5.099   3.459 -0.0686 -0.7199 -0.1039
  642MOL0     H84689   8.633   5.367   3.334 -3.8113  2.0991  0.6347
  642MOL0     H84690   8.682   5.328   3.497 -0.0377  1.3676  0.1305
  642MOL0     H84691   8.461   5.305   3.585 -0.4443  0.9098  0.2344
  642MOL0     H84692   8.389   5.288   3.426  1.1208  0.0982 -3.0514
  642MOL0     H84693   8.363   5.538   3.531 -2.0004 -0.7124 -1.2121
  642MOL0     H84694   8.535   5.539   3.522 -1.2673 -0.7559  1.9401
  642MOL0     H84695   8.518   5.529   3.264  1.8622  1.3244  3.6267
  642MOL0     H84696   8.405   5.648   3.315 -2.3853  0.2148 -1.4371
  642MOL0     H84697   8.391   5.404   3.087 -0.2596  1.4362 -0.0915
  642MOL0     H84698   8.094   5.258   3.018 -0.6337  1.1575  0.6675
  642MOL0     H84699   8.200   5.358   2.919  0.3485 -4.9158 -0.0490
  642MOL0     H84700   7.912   5.423   2.979  0.9283 -0.5112  0.3605
  642MOL0     H84701   7.973   5.378   2.824  0.2991 -0.2125  0.6185
  642MOL0     H84702   8.065   5.626   2.963  0.1930  0.1330 -0.3967
  642MOL0     H84703   8.138   5.566   2.826 -0.8653 -0.8463 -1.1349
  642MOL0     H84704   7.966   5.736   2.782 -1.3600 -0.4209 -3.0347
  642MOL0     H84705   7.849   5.642   2.859 -1.2432  1.1850 -1.9596
  642MOL0     H84706   7.899   5.515   2.431  1.3247 -0.4026  3.0282
  642MOL0     H84707   7.739   5.578   2.264 -2.3761  1.1741 -2.0474
  642MOL0     H84708   7.400   5.824   2.042 -0.6789  0.9510 -0.9029
  642MOL0     H84709   7.223   5.900   1.914 -0.0807 -1.0402 -0.6868
  642MOL0     H84710   6.998   5.851   1.935  0.3818  0.0606 -1.3768
  642MOL0     H84711   6.971   5.977   1.811 -0.7412 -1.6622 -1.3093
  642MOL0     H84712   6.791   5.876   2.038 -1.2861 -2.4899 -1.0857
  642MOL0     H84713   6.760   5.871   1.869 -0.4863  0.5958 -0.0340
  642MOL0     H84714   6.723   6.092   1.825 -1.1746  0.8420  0.8372
  642MOL0     H84715   6.767   6.148   1.994 -0.3102  0.4585 -0.6536
  642MOL0     H84716   6.552   5.960   1.970  1.4887 -0.5881 -0.7620
  642MOL0     H84717   6.565   6.116   2.072  3.7821  0.1691 -0.0391
  642MOL0     H84718   6.492   6.078   1.790 -1.9618  0.7339 -1.4957
  642MOL0     H84719   6.509   6.240   1.865 -0.2656 -0.2580 -0.5338
  642MOL0     H84720   6.348   6.178   2.035 -0.6390 -0.9853  1.7200
  642MOL0     H84721   6.341   6.021   1.985  2.1160  0.5644  0.0512
  642MOL0     H84722   6.283   6.238   1.774 -0.1058 -1.3486 -1.6670
  642MOL0     H84723   6.239   6.074   1.766  1.0937  0.5081 -1.3506
  642MOL0     H84724   6.064   6.088   1.931 -2.5089 -0.5570 -4.4328
  642MOL0     H84725   6.049   6.231   1.820 -1.3637  2.1311  1.4553
  642MOL0     H84726   7.051   6.093   2.260 -1.0635 -0.5632 -2.7913
  642MOL0     H84727   7.250   6.026   2.398  3.2844 -2.4866  0.3855
  642MOL0     H84728   7.564   5.847   2.556 -0.1763  1.0052 -1.0824
  642MOL0     H84729   7.729   5.790   2.716 -2.8306  3.5159 -1.5027
  642MOL0     H84730   9.221   5.345   3.357 -0.1558  0.3673  2.1977
  642MOL0     H84731   9.416   5.282   3.469  2.4479 -2.6042  0.4115
  642MOL0     H84732   9.619   5.035   3.733  0.0085  1.1164 -0.7702
  642MOL0     H84733   9.801   5.069   3.893 -0.4100  1.6615 -0.5692
  642MOL0     H84734  10.194   5.247   3.707 -0.3015 -0.8969 -1.7727
  642MOL0     H84735  10.210   5.067   3.752 -0.1453 -0.6797  2.6557
  642MOL0     H84736  10.264   5.305   3.956  1.5245  0.4002  0.9661
  642MOL0     H84737  10.238   5.135   3.993 -0.9842 -0.1666 -1.1937
  642MOL0     H84738  10.474   5.236   3.983 -1.1437 -0.1236  0.2434
  642MOL0     H84739  10.464   5.273   3.807  2.2873  0.6074  0.4747
  642MOL0     H84740  10.455   4.997   3.938 -2.0435 -0.7915 -0.3407
  642MOL0     H84741  10.404   5.017   3.775  2.4396  0.1835 -2.2919
  642MOL0     H84742  10.828   4.998   3.752  0.5820  1.9950  0.3023
  642MOL0     H84743  10.073   5.140   3.557  0.3172  0.9155  0.7321
  642MOL0     H84744   9.890   5.118   3.408  0.5199  1.5168  0.2953
  643MOL0     O84745   8.751   7.608   2.259  1.0780 -0.2952  0.2485
  643MOL0     C84746   8.777   7.683   2.351  0.0530  0.8598 -0.4088
  643MOL0     O84747   8.750   7.812   2.360 -0.3386  0.7233 -0.3428
  643MOL0     C84748   8.674   7.861   2.268  0.2955  0.2838  0.4758
  643MOL0     C84749   8.537   7.833   2.269  0.6677  0.5848  0.8290
  643MOL0     C84750   8.446   7.894   2.178 -0.8823  0.6132 -0.1155
  643MOL0     C84751   8.483   7.990   2.088  0.2187 -1.9538  0.3031
  643MOL0     O84752   8.400   8.062   2.006 -0.0096 -0.7659  0.0898
  643MOL0     C84753   8.259   8.048   2.034  0.4784 -0.2851 -0.1166
  643MOL0     C84754   8.199   8.159   1.948  0.1283  0.0141 -0.4963
  643MOL0     C84755   8.044   8.145   1.957 -0.0303 -0.5028 -0.1446
  643MOL0     C84756   7.977   8.262   1.890 -0.8015 -0.9110 -0.5973
  643MOL0     C84757   7.821   8.271   1.902  0.5418 -0.0313 -0.0298
  643MOL0     C84758   7.755   8.147   1.856  0.5822  1.3991  0.2629
  643MOL0     C84759   7.601   8.170   1.859 -0.0885  0.1536 -0.2726
  643MOL0     C84760   7.529   8.180   1.998 -0.5325  0.4074  0.6535
  643MOL0     N84761   7.384   8.225   1.993 -0.0236  0.1370 -0.5048
  643MOL0     C84762   7.287   8.161   2.052  1.2952  0.8968 -0.3202
  643MOL0     C84763   7.179   8.233   2.018  0.0537  0.5054  0.3557
  643MOL0     C84764   7.036   8.208   2.044  0.5923  0.3737  0.2700
  643MOL0     C84765   6.990   8.093   1.957 -0.5837 -0.3549  0.6629
  643MOL0     C84766   6.845   8.069   2.009  0.3196 -0.2499 -0.1101
  643MOL0     C84767   6.777   7.946   1.957  0.2702  0.7871  0.6001
  643MOL0     O84768   6.680   7.895   2.055 -0.2525  0.9187  0.2641
  643MOL0     C84769   6.549   7.932   2.055  0.4498 -0.3515 -0.2167
  643MOL0     C84770   6.508   8.051   1.993  0.4856  0.5642 -0.1811
  643MOL0     C84771   6.375   8.088   1.977  0.3912 -0.7063 -0.1017
  643MOL0     C84772   6.273   8.007   2.038 -0.8862 -0.2010 -0.1440
  643MOL0     C84773   6.133   8.052   2.034  0.1923  0.9190 -0.4278
  643MOL0     O84774   6.061   8.026   2.152 -0.0977 -0.0875 -0.1434
  643MOL0     C84775   5.929   8.076   2.156 -0.4675  0.8767 -0.7608
  643MOL0     C84776   5.895   8.208   2.106 -0.3452 -0.3520 -0.0359
  643MOL0     C84777   5.766   8.257   2.121 -0.5236 -0.1436  0.2383
  643MOL0     C84778   5.668   8.192   2.185  0.4590  0.2036  0.7568
  643MOL0     O84779   5.541   8.235   2.210 -0.4031 -0.6054  0.8152
  643MOL0     C84780   5.513   8.380   2.203 -0.0643  0.1508 -0.4408
  643MOL0     C84781   5.362   8.406   2.232  0.2593 -0.2432  0.0039
  643MOL0     C84782   5.282   8.369   2.113  1.2205  0.1220 -0.1888
  643MOL0     C84783   5.127   8.398   2.136  0.5141  0.6453  0.1127
  643MOL0     C84784   5.059   8.280   2.205 -0.2458 -0.1281 -0.1536
  643MOL0     C84785   5.048   8.159   2.099  0.1474 -0.0907  0.6319
  643MOL0     C84786   4.960   8.047   2.150 -0.1274  0.2436 -0.4227
  643MOL0     C84787   4.824   8.080   2.219  0.6268  0.1898  1.0316
  643MOL0    Cl84788   4.725   7.937   2.244  0.3863 -0.2345  0.3142
  643MOL0     C84789   5.698   8.066   2.240 -0.0315 -0.0773 -0.4290
  643MOL0     C84790   5.833   8.009   2.244  0.7508 -0.2590 -1.1723
  643MOL0     O84791   6.098   8.129   1.940 -0.1382  0.0426 -0.5700
  643MOL0     C84792   6.311   7.893   2.109 -0.3932 -0.5228 -0.5598
  643MOL0     C84793   6.449   7.860   2.126  0.4037 -0.0478 -0.5128
  643MOL0     N84794   7.214   8.351   1.958  0.2072 -0.0228 -0.3186
  643MOL0     N84795   7.341   8.345   1.936  0.6546  0.2903  0.2432
  643MOL0     C84796   8.619   8.023   2.091  0.6015 -0.6150 -0.1534
  643MOL0     C84797   8.712   7.963   2.180  0.3016 -0.1036 -0.7459
  643MOL0     C84798   8.856   7.627   2.463  0.4211  0.0213 -0.2585
  643MOL0     C84799   8.877   7.488   2.467  0.0201 -0.6261  0.4108
  643MOL0     C84800   8.959   7.438   2.571 -1.0475  0.0689 -0.4812
  643MOL0     C84801   9.021   7.521   2.664 -0.8179  0.5254  0.2687
  643MOL0     O84802   9.106   7.456   2.749  0.4211 -0.8788 -0.1164
  643MOL0     C84803   9.180   7.530   2.847 -0.3140  0.5795 -0.1690
  643MOL0     C84804   9.111   7.550   2.987 -0.4432 -0.3912  0.5599
  643MOL0     C84805   9.029   7.441   3.055  0.2916 -0.1738  0.1595
  643MOL0     C84806   9.122   7.337   3.098  0.0138 -0.0845 -0.4334
  643MOL0     C84807   9.210   7.380   3.202  0.1502  0.0036 -0.7776
  643MOL0     C84808   9.281   7.395   3.298  0.0329 -0.6901  0.2599
  643MOL0     C84809   8.996   7.661   2.651  0.3303 -0.6557  0.1736
  643MOL0     C84810   8.914   7.712   2.553  0.2201 -0.4924  0.2426
  643MOL0     H84811   8.501   7.746   2.324  1.7407 -0.2778  0.2003
  643MOL0     H84812   8.340   7.872   2.181 -0.3637 -2.0961  2.3120
  643MOL0     H84813   8.233   8.055   2.140  3.1287  0.0925  0.5843
  643MOL0     H84814   8.222   7.958   1.983 -1.1562  1.1013 -1.5130
  643MOL0     H84815   8.231   8.157   1.844  2.0455  2.8762 -0.0784
  643MOL0     H84816   8.227   8.258   1.986 -1.3798  0.3365 -0.1486
  643MOL0     H84817   8.027   8.158   2.064  0.8891 -0.8132  0.0517
  643MOL0     H84818   8.004   8.049   1.924 -1.9697  0.2128  0.0303
  643MOL0     H84819   8.017   8.360   1.917 -2.0152 -0.4265 -0.4932
  643MOL0     H84820   8.007   8.248   1.786  5.1722  0.4197  0.5580
  643MOL0     H84821   7.790   8.362   1.848  1.2094  0.4721  0.4176
  643MOL0     H84822   7.793   8.288   2.007 -2.0509  0.4235 -0.7165
  643MOL0     H84823   7.778   8.071   1.930 -0.2907  0.3809 -0.4822
  643MOL0     H84824   7.792   8.111   1.759  1.0488  0.0086  0.9376
  643MOL0     H84825   7.587   8.267   1.809 -2.1629 -0.9990 -2.1575
  643MOL0     H84826   7.554   8.102   1.788  0.5974  1.2664 -1.8603
  643MOL0     H84827   7.579   8.251   2.065 -0.4279  0.0287  0.9841
  643MOL0     H84828   7.536   8.077   2.033 -0.0807  0.1254 -0.2365
  643MOL0     H84829   7.282   8.067   2.106  0.1501  1.7636  1.1699
  643MOL0     H84830   6.981   8.300   2.023  0.0739  0.7742  3.0425
  643MOL0     H84831   7.022   8.176   2.148 -1.8878 -2.1645 -0.7020
  643MOL0     H84832   7.056   8.009   1.979  0.2196 -0.5464 -2.1272
  643MOL0     H84833   6.981   8.121   1.851 -2.7134 -0.5911  0.7338
  643MOL0     H84834   6.851   8.060   2.118  0.9599  1.2246  0.0025
  643MOL0     H84835   6.782   8.155   1.983 -1.6954 -0.7619  2.5888
  643MOL0     H84836   6.845   7.860   1.957 -0.0599  0.3121 -3.7014
  643MOL0     H84837   6.733   7.963   1.859  1.2797 -1.6453 -0.3451
  643MOL0     H84838   6.582   8.109   1.939 -0.1782 -0.2642 -2.0656
  643MOL0     H84839   6.357   8.190   1.944  1.3189 -0.6067 -0.3469
  643MOL0     H84840   5.971   8.276   2.069  0.3344 -0.0433  1.8345
  643MOL0     H84841   5.750   8.358   2.085  0.1782  0.0810  0.5388
  643MOL0     H84842   5.534   8.426   2.107 -1.3933 -1.6464 -1.6494
  643MOL0     H84843   5.570   8.427   2.284 -1.9924 -1.3277  1.9381
  643MOL0     H84844   5.341   8.513   2.246  0.2899 -0.6229  3.7455
  643MOL0     H84845   5.334   8.355   2.324  0.6024  1.8855  1.3639
  643MOL0     H84846   5.301   8.264   2.088 -0.9679 -0.6499  1.1433
  643MOL0     H84847   5.328   8.427   2.032 -0.0606  0.7384 -0.5012
  643MOL0     H84848   5.108   8.497   2.180  0.0497  0.0393  1.3408
  643MOL0     H84849   5.087   8.414   2.036  1.8468  0.1325 -0.5242
  643MOL0     H84850   4.956   8.309   2.227 -0.4910  0.1207 -1.5327
  643MOL0     H84851   5.113   8.241   2.292 -1.7312 -0.0720  0.8327
  643MOL0     H84852   5.149   8.119   2.086 -0.5352 -1.3361 -1.1841
  643MOL0     H84853   5.012   8.191   2.000 -1.1911  0.2123  1.2076
  643MOL0     H84854   4.951   7.980   2.064  2.0241 -1.0675  0.2888
  643MOL0     H84855   5.017   7.993   2.227 -0.3408 -0.9334 -1.0751
  643MOL0     H84856   4.776   8.153   2.153  2.6783 -1.3528 -2.4021
  643MOL0     H84857   4.843   8.123   2.318  1.3632  2.2908  0.0261
  643MOL0     H84858   5.631   8.014   2.306 -0.7318  1.4019  0.0715
  643MOL0     H84859   5.855   7.914   2.290  1.4948  0.3251 -0.2922
  643MOL0     H84860   6.231   7.845   2.165 -2.4193  2.6452 -0.4857
  643MOL0     H84861   6.474   7.777   2.192 -0.2887 -0.3329 -0.5944
  643MOL0     H84862   8.650   8.103   2.025 -2.5654  1.2370  0.3925
  643MOL0     H84863   8.812   8.003   2.184 -0.3169  1.5890  3.7152
  643MOL0     H84864   8.828   7.428   2.391 -0.7679  1.4405 -0.7656
  643MOL0     H84865   8.976   7.331   2.566 -2.2484 -0.4079  2.8859
  643MOL0     H84866   9.194   7.631   2.807 -0.5255 -0.0385 -1.8685
  643MOL0     H84867   9.277   7.480   2.856 -2.3079 -3.5188  1.1965
  643MOL0     H84868   9.189   7.594   3.049 -0.6549 -0.1911  0.6839
  643MOL0     H84869   9.036   7.628   2.977  1.4949  1.4241 -0.6653
  643MOL0     H84870   8.940   7.407   3.001  0.6342 -0.0310 -0.5065
  643MOL0     H84871   8.985   7.488   3.143 -0.4274 -0.8542  0.1797
  643MOL0     H84872   9.066   7.251   3.135 -1.8963  1.5887  0.8054
  643MOL0     H84873   9.181   7.305   3.012 -0.2031  1.4530 -1.1936
  643MOL0     H84874   9.344   7.414   3.382 -0.0056  1.1306 -0.0902
  643MOL0     H84875   9.045   7.736   2.712 -3.0981 -0.6622  3.2875
  643MOL0     H84876   8.909   7.820   2.547 -1.0704 -0.5613 -0.1688
  644MOL0     O84877   3.954   8.154   5.438  0.1458  0.3218 -0.4932
  644MOL0     C84878   3.963   8.246   5.518  0.1013 -0.1935 -0.5509
  644MOL0     O84879   4.062   8.337   5.524  0.0115 -0.3254 -0.2430
  644MOL0     C84880   4.183   8.333   5.462  0.0361  0.6960 -0.2474
  644MOL0     C84881   4.242   8.216   5.430  0.1058 -0.3409  0.3162
  644MOL0     C84882   4.373   8.218   5.387  0.4211  0.1836 -0.4569
  644MOL0     C84883   4.446   8.328   5.363 -0.6080  0.1986  0.5846
  644MOL0     O84884   4.575   8.343   5.319  0.2674  0.0984  0.2671
  644MOL0     C84885   4.658   8.231   5.288  0.2285 -0.7149  0.7304
  644MOL0     C84886   4.758   8.265   5.178 -0.9872 -0.2335 -0.8437
  644MOL0     C84887   4.837   8.396   5.183  0.2245 -1.3742 -0.3921
  644MOL0     C84888   4.922   8.410   5.056 -0.1836 -0.6261  0.3075
  644MOL0     C84889   4.992   8.548   5.062 -0.8412  0.9679  0.2331
  644MOL0     C84890   5.066   8.578   4.934 -0.2233 -0.7294  0.0369
  644MOL0     C84891   5.167   8.682   4.970 -0.3895  0.7282  0.2650
  644MOL0     C84892   5.204   8.782   4.858  0.9952 -0.4815 -1.0298
  644MOL0     N84893   5.337   8.835   4.873 -0.4418  0.4655 -0.0527
  644MOL0     C84894   5.442   8.790   4.789 -0.0507 -0.5010 -0.0162
  644MOL0     C84895   5.553   8.860   4.831  0.2237 -0.6378  0.2703
  644MOL0     C84896   5.704   8.852   4.793  0.6927  0.8650  0.1497
  644MOL0     C84897   5.744   8.729   4.705 -0.7167  0.2972  0.3291
  644MOL0     C84898   5.763   8.595   4.792  0.2073 -0.6911  0.2320
  644MOL0     C84899   5.632   8.529   4.832 -0.2257  0.1387 -1.0393
  644MOL0     O84900   5.661   8.402   4.901 -0.0484 -0.1758  0.4075
  644MOL0     C84901   5.560   8.357   4.992 -0.7880  0.7269  0.1212
  644MOL0     C84902   5.469   8.427   5.076 -0.7133 -0.1375  0.0388
  644MOL0     C84903   5.385   8.362   5.170 -0.4682  0.0651  0.1184
  644MOL0     C84904   5.391   8.229   5.184 -0.1346 -0.0038 -0.2500
  644MOL0     C84905   5.294   8.161   5.275  0.2155  0.5134  0.0391
  644MOL0     O84906   5.246   8.240   5.381  0.3878 -0.1186  0.9569
  644MOL0     C84907   5.154   8.186   5.475  0.7208  0.7234  0.5431
  644MOL0     C84908   5.190   8.164   5.602  0.7701  0.9722 -0.6875
  644MOL0     C84909   5.094   8.097   5.690 -0.1988  0.8714 -0.4926
  644MOL0     C84910   4.979   8.036   5.631  0.1562  0.6001 -0.3033
  644MOL0     O84911   4.892   7.953   5.697  0.5960  0.1116 -0.5612
  644MOL0     C84912   4.899   7.965   5.844  0.5516 -0.3176  1.0069
  644MOL0     C84913   4.812   7.850   5.890  1.0190  0.2972 -0.4109
  644MOL0     C84914   4.782   7.861   6.046 -0.1245 -0.2081 -0.1835
  644MOL0     C84915   4.681   7.753   6.091 -0.7260  0.6351 -0.1555
  644MOL0     C84916   4.653   7.771   6.241  1.0644 -0.6360 -0.6155
  644MOL0     C84917   4.529   7.684   6.266  0.4761  0.3313  0.2472
  644MOL0     C84918   4.490   7.707   6.413  0.4412 -0.4378  0.1246
  644MOL0     C84919   4.372   7.625   6.453  0.2205 -0.0508  1.2368
  644MOL0    Cl84920   4.362   7.610   6.630 -0.2175 -0.3932 -0.2800
  644MOL0     C84921   4.951   8.057   5.498  0.8196 -0.4949 -0.4506
  644MOL0     C84922   5.036   8.130   5.423  0.6690 -0.6554  0.4901
  644MOL0     O84923   5.264   8.044   5.265  0.2053  0.0709 -0.9658
  644MOL0     C84924   5.483   8.162   5.101  0.0250 -0.2997 -0.0414
  644MOL0     C84925   5.578   8.220   5.010 -0.0274  0.1762  0.5526
  644MOL0     N84926   5.513   8.937   4.944 -1.0031  0.3888  0.0926
  644MOL0     N84927   5.391   8.922   4.962 -0.1355  0.6179 -0.7603
  644MOL0     C84928   4.382   8.450   5.402 -0.2902  0.2453  0.2889
  644MOL0     C84929   4.256   8.452   5.454  0.6123 -0.4435 -0.6573
  644MOL0     C84930   3.850   8.254   5.616  0.8589  0.3327  0.2888
  644MOL0     C84931   3.846   8.350   5.718  0.6089  0.8603 -0.4394
  644MOL0     C84932   3.741   8.335   5.804 -0.4186 -0.3656 -0.3009
  644MOL0     C84933   3.642   8.242   5.810  0.1725  0.4978  0.4518
  644MOL0     O84934   3.547   8.262   5.907 -0.0564  0.1441 -0.1921
  644MOL0     C84935   3.432   8.176   5.909  0.7083  0.0433 -0.0156
  644MOL0     C84936   3.349   8.202   6.035  0.2364 -1.0021 -0.1365
  644MOL0     C84937   3.261   8.323   6.016 -0.1312 -0.0216 -1.3671
  644MOL0     C84938   3.205   8.389   6.144 -0.2238 -0.0050 -0.7660
  644MOL0     C84939   3.096   8.300   6.195 -0.7085 -0.5152  0.0994
  644MOL0     C84940   3.012   8.229   6.239  0.1364  0.1187  0.2320
  644MOL0     C84941   3.638   8.157   5.699  0.2317 -0.6544 -0.1786
  644MOL0     C84942   3.738   8.165   5.605  0.4977  0.0689  0.7565
  644MOL0     H84943   4.183   8.125   5.428 -2.8188  1.4431  0.3626
  644MOL0     H84944   4.415   8.122   5.359 -0.9913 -0.3965 -0.6450
  644MOL0     H84945   4.592   8.157   5.240 -1.7776  0.3129  1.7764
  644MOL0     H84946   4.708   8.192   5.377 -2.7983 -5.0894  0.8292
  644MOL0     H84947   4.709   8.259   5.081  3.3630 -0.5821 -3.2693
  644MOL0     H84948   4.835   8.188   5.168  2.5415  2.5446  2.0868
  644MOL0     H84949   4.904   8.398   5.270  1.5672 -0.6751 -1.4162
  644MOL0     H84950   4.769   8.480   5.200  0.7781 -1.0863  0.4817
  644MOL0     H84951   5.005   8.340   5.051  0.5958  0.2536  0.5563
  644MOL0     H84952   4.858   8.401   4.968  0.3357  1.1316 -0.2848
  644MOL0     H84953   5.048   8.549   5.155  0.5428  0.0165 -0.5440
  644MOL0     H84954   4.915   8.626   5.066 -0.0133  1.7452  2.7104
  644MOL0     H84955   4.998   8.624   4.861  1.2954  1.4994 -0.0521
  644MOL0     H84956   5.119   8.492   4.892  3.5027  1.4190 -0.0389
  644MOL0     H84957   5.134   8.739   5.058 -1.6852 -0.4422  0.5541
  644MOL0     H84958   5.256   8.631   5.008  1.6301  0.6930 -3.9624
  644MOL0     H84959   5.132   8.863   4.871 -1.1065 -2.6003  1.7078
  644MOL0     H84960   5.178   8.746   4.758 -1.2163  0.0469 -0.6959
  644MOL0     H84961   5.440   8.716   4.710  1.5618  0.4194 -0.9806
  644MOL0     H84962   5.767   8.849   4.883  0.5513  2.1345  0.3103
  644MOL0     H84963   5.736   8.946   4.747  2.7859  0.1564  0.0191
  644MOL0     H84964   5.843   8.742   4.662 -0.6512  0.7884  0.6187
  644MOL0     H84965   5.677   8.714   4.620 -0.1999  1.2343 -0.2583
  644MOL0     H84966   5.815   8.527   4.724  3.6957  0.8016  1.1931
  644MOL0     H84967   5.826   8.605   4.881  0.6893  1.5147 -0.2760
  644MOL0     H84968   5.554   8.519   4.755 -1.2929 -0.7971  0.1282
  644MOL0     H84969   5.581   8.600   4.897 -0.3107  1.0500 -2.0569
  644MOL0     H84970   5.461   8.535   5.073  0.9458 -0.0112 -1.6902
  644MOL0     H84971   5.319   8.420   5.233 -1.7305 -1.8280  0.6268
  644MOL0     H84972   5.287   8.196   5.638  0.3173  0.2616  1.2432
  644MOL0     H84973   5.130   8.088   5.792 -1.6862 -2.7720 -0.1506
  644MOL0     H84974   4.848   8.060   5.865  2.8053  1.0271  0.8373
  644MOL0     H84975   4.998   7.953   5.889  1.0439 -0.5265 -0.0999
  644MOL0     H84976   4.856   7.750   5.881  1.8283  0.5555  0.4559
  644MOL0     H84977   4.715   7.849   5.839  0.6806 -0.9503  0.2088
  644MOL0     H84978   4.731   7.957   6.059  0.4739  0.1763 -0.6222
  644MOL0     H84979   4.881   7.857   6.093 -0.7597 -4.5237  1.2899
  644MOL0     H84980   4.593   7.770   6.028  1.5053 -0.4954 -3.8988
  644MOL0     H84981   4.727   7.655   6.079  0.3093  0.8553  1.6060
  644MOL0     H84982   4.623   7.875   6.255  1.0575 -0.4505 -1.9325
  644MOL0     H84983   4.745   7.749   6.296  1.0945 -0.9113 -0.7770
  644MOL0     H84984   4.558   7.579   6.255  0.6405  0.4378 -0.3465
  644MOL0     H84985   4.454   7.702   6.189  2.7077 -0.4698 -2.2884
  644MOL0     H84986   4.573   7.686   6.480  1.0201 -1.3733 -0.8480
  644MOL0     H84987   4.463   7.813   6.420 -0.6677 -0.6471 -0.6708
  644MOL0     H84988   4.379   7.525   6.411 -1.2722  0.8909 -1.4326
  644MOL0     H84989   4.279   7.673   6.420  0.5609 -0.4140 -0.3066
  644MOL0     H84990   4.854   8.031   5.456  0.2002 -1.4134  1.4401
  644MOL0     H84991   4.997   8.150   5.323 -3.7108  2.3556  2.4907
  644MOL0     H84992   5.488   8.053   5.100 -1.4813 -0.3897 -0.7158
  644MOL0     H84993   5.648   8.154   4.959 -0.2669 -0.3359  0.8707
  644MOL0     H84994   4.436   8.543   5.387 -1.5117  0.6775 -1.7487
  644MOL0     H84995   4.206   8.542   5.489  2.0965  0.0123  0.3680
  644MOL0     H84996   3.924   8.422   5.742  0.4407  0.4227  1.6104
  644MOL0     H84997   3.739   8.412   5.880  0.4523  0.1942 -0.8268
  644MOL0     H84998   3.456   8.069   5.917  2.9930  0.6260  2.7414
  644MOL0     H84999   3.369   8.180   5.820 -1.6321 -2.3664  1.3553
  644MOL0     H85000   3.279   8.119   6.046 -0.7795 -0.1393  0.1537
  644MOL0     H85001   3.419   8.218   6.117 -2.3928  1.1526  1.9139
  644MOL0     H85002   3.184   8.284   5.948 -0.2653  1.8721 -2.3546
  644MOL0     H85003   3.307   8.403   5.959 -1.6112  1.9346  0.0444
  644MOL0     H85004   3.280   8.394   6.222 -2.4887 -0.0020  1.5369
  644MOL0     H85005   3.158   8.486   6.124 -5.6857 -1.8561  1.0958
  644MOL0     H85006   2.931   8.175   6.284 -0.2447  0.1690 -0.3801
  644MOL0     H85007   3.552   8.091   5.694 -0.1702 -0.1145 -0.6390
  644MOL0     H85008   3.734   8.097   5.521  0.1389  2.6666 -1.4870
  645MOL0     O85009   4.849   4.348   9.148  0.0747  0.3341  0.1339
  645MOL0     C85010   4.952   4.287   9.119 -0.8271 -0.4887  0.5866
  645MOL0     O85011   5.000   4.257   8.995  0.8004  0.3186 -0.1827
  645MOL0     C85012   4.933   4.277   8.873  0.2791 -0.2651 -0.8102
  645MOL0     C85013   4.967   4.187   8.768  0.2439 -0.1009  0.0469
  645MOL0     C85014   4.914   4.217   8.634 -0.4559 -0.1274  0.0181
  645MOL0     C85015   4.821   4.319   8.612  0.1248  0.4871  0.8629
  645MOL0     O85016   4.766   4.344   8.493  0.0914  0.4345  0.9456
  645MOL0     C85017   4.752   4.229   8.397  0.2528  0.0514 -0.4995
  645MOL0     C85018   4.623   4.146   8.426 -0.7223  0.4145 -0.1483
  645MOL0     C85019   4.569   4.051   8.318 -0.1544 -0.3980  0.2430
  645MOL0     C85020   4.452   3.973   8.359 -0.8480 -0.6490  0.9801
  645MOL0     C85021   4.426   3.861   8.261  0.8966 -0.1866  0.3171
  645MOL0     C85022   4.314   3.762   8.297 -0.0914  0.3435  0.0070
  645MOL0     C85023   4.313   3.635   8.211  0.4939  0.2229 -0.1255
  645MOL0     C85024   4.380   3.517   8.282  0.1172  0.3965  0.1136
  645MOL0     N85025   4.526   3.531   8.276  0.4606 -0.2243  1.0116
  645MOL0     C85026   4.586   3.562   8.147 -0.5387  0.1779 -0.7164
  645MOL0     C85027   4.715   3.543   8.187 -0.6982  0.3246 -0.6221
  645MOL0     C85028   4.846   3.539   8.109 -0.4286 -0.2265 -0.5552
  645MOL0     C85029   4.856   3.433   8.001  0.5090 -0.2873  0.7216
  645MOL0     C85030   4.777   3.293   8.025 -0.6247  1.1174  0.6844
  645MOL0     C85031   4.828   3.182   7.939  0.1676 -0.2199  0.2158
  645MOL0     O85032   4.784   3.200   7.800  0.1244 -0.0310 -0.3715
  645MOL0     C85033   4.822   3.103   7.712  0.4482  0.4173 -0.3268
  645MOL0     C85034   4.727   3.047   7.622  0.4292  0.7284  1.0494
  645MOL0     C85035   4.761   2.937   7.535 -0.0399 -0.8788  0.2894
  645MOL0     C85036   4.895   2.887   7.521  0.3615  0.0269  0.3298
  645MOL0     C85037   4.937   2.771   7.426  0.2166 -0.4101  1.0623
  645MOL0     O85038   5.061   2.727   7.443  0.9680  0.5498 -0.5055
  645MOL0     C85039   5.090   2.602   7.386 -0.2870  0.0649  0.6889
  645MOL0     C85040   5.006   2.492   7.360  0.0186  0.1772 -0.3790
  645MOL0     C85041   5.053   2.378   7.302  0.0892  0.3415  0.0855
  645MOL0     C85042   5.188   2.380   7.254 -0.6871 -0.3963  0.4021
  645MOL0     O85043   5.220   2.268   7.186 -0.5286  0.5308 -1.1081
  645MOL0     C85044   5.357   2.255   7.139  0.7704 -0.0116  0.2988
  645MOL0     C85045   5.360   2.103   7.103  0.0865  0.0409  0.6550
  645MOL0     C85046   5.474   2.069   6.996 -0.5983  0.2696 -0.2052
  645MOL0     C85047   5.611   2.124   7.036 -1.3353  0.3788 -0.2053
  645MOL0     C85048   5.724   2.059   6.949  0.1133  0.6835  0.5287
  645MOL0     C85049   5.853   2.138   6.963 -0.6604 -0.4370 -0.4448
  645MOL0     C85050   5.943   2.102   6.844 -0.8071 -0.9562  0.5329
  645MOL0     C85051   5.897   2.167   6.710  0.1748  0.6408 -0.5232
  645MOL0    Cl85052   6.013   2.136   6.584  0.2546  0.4512  0.4073
  645MOL0     C85053   5.275   2.488   7.290 -0.5059  0.0502  0.4078
  645MOL0     C85054   5.223   2.598   7.357 -0.4773 -0.3507  0.1969
  645MOL0     O85055   4.854   2.729   7.349  0.1893  0.2723  0.5151
  645MOL0     C85056   4.986   2.944   7.611 -0.5084 -0.1012  0.3612
  645MOL0     C85057   4.950   3.044   7.707  0.2229 -0.1259  0.6973
  645MOL0     N85058   4.724   3.516   8.325 -0.1749 -0.6486  0.9881
  645MOL0     N85059   4.613   3.535   8.382  0.1782  0.3725 -0.1269
  645MOL0     C85060   4.765   4.389   8.718 -0.1744  0.7838  0.0763
  645MOL0     C85061   4.826   4.368   8.848 -0.0857  0.7976  0.6076
  645MOL0     C85062   5.033   4.255   9.238 -0.0436 -0.2236  0.4043
  645MOL0     C85063   4.993   4.264   9.374 -0.2401 -0.0164 -0.3911
  645MOL0     C85064   5.077   4.232   9.482 -0.0790 -0.3078  0.6637
  645MOL0     C85065   5.207   4.201   9.455  0.2301  0.5011  0.3039
  645MOL0     O85066   5.288   4.156   9.553 -0.3299 -1.1072 -0.6284
  645MOL0     C85067   5.265   4.020   9.593 -0.3032  0.0811 -0.7406
  645MOL0     C85068   5.392   3.971   9.660 -0.5778  0.0383  0.6289
  645MOL0     C85069   5.411   4.041   9.793 -0.7933  0.0749 -0.8361
  645MOL0     C85070   5.477   4.184   9.797  0.3614 -0.3799  0.2627
  645MOL0     C85071   5.619   4.188   9.754 -0.0031 -0.2371 -0.0468
  645MOL0     C85072   5.735   4.169   9.720  0.6688 -0.0301  0.0898
  645MOL0     C85073   5.250   4.178   9.319  0.3892 -0.5205  0.3246
  645MOL0     C85074   5.166   4.204   9.214  0.1050  0.1985  0.5991
  645MOL0     H85075   5.040   4.107   8.770 -0.1472 -0.4511  0.3408
  645MOL0     H85076   4.962   4.162   8.554  1.9155  1.0908  0.5057
  645MOL0     H85077   4.825   4.147   8.394  1.5555  1.1676 -0.5356
  645MOL0     H85078   4.754   4.266   8.294 -1.5550 -0.5239 -0.7771
  645MOL0     H85079   4.550   4.225   8.447  0.8744  1.3894  2.1136
  645MOL0     H85080   4.632   4.080   8.512  0.5036  0.9316  0.1388
  645MOL0     H85081   4.640   3.970   8.298 -0.4450  0.0595 -3.1554
  645MOL0     H85082   4.558   4.114   8.230  4.9362  2.6011  1.3563
  645MOL0     H85083   4.452   3.918   8.454 -3.5358 -3.8429 -0.6706
  645MOL0     H85084   4.369   4.045   8.358 -0.2381  0.0799 -1.1606
  645MOL0     H85085   4.511   3.794   8.245 -1.5853 -3.6790  0.6034
  645MOL0     H85086   4.404   3.904   8.163 -0.5313 -0.3047  0.5635
  645MOL0     H85087   4.216   3.811   8.303  1.2183  3.0689  1.2802
  645MOL0     H85088   4.339   3.721   8.395  2.5640 -2.9897 -1.8551
  645MOL0     H85089   4.210   3.608   8.184 -0.1795  0.2463  2.2196
  645MOL0     H85090   4.366   3.664   8.120  1.8716  0.3144  0.6768
  645MOL0     H85091   4.357   3.419   8.239  2.4565 -0.5053  0.7845
  645MOL0     H85092   4.356   3.507   8.388  1.8509  1.6381  0.6704
  645MOL0     H85093   4.550   3.576   8.045 -0.3286  0.2233 -0.7833
  645MOL0     H85094   4.938   3.530   8.167  1.9495 -0.9090 -4.1095
  645MOL0     H85095   4.872   3.633   8.060  0.1902 -0.1291 -0.0492
  645MOL0     H85096   4.962   3.407   7.990  0.2168 -0.9812 -0.7686
  645MOL0     H85097   4.813   3.474   7.909 -0.1468  0.6619  1.4375
  645MOL0     H85098   4.802   3.267   8.129 -5.1779  0.8013  1.9268
  645MOL0     H85099   4.668   3.290   8.014 -0.5232  2.2097 -0.8820
  645MOL0     H85100   4.774   3.094   7.977 -1.7794  1.2982  1.1141
  645MOL0     H85101   4.936   3.165   7.951 -0.1153 -0.1651  4.1993
  645MOL0     H85102   4.629   3.092   7.617 -0.9892 -1.9515  2.4220
  645MOL0     H85103   4.687   2.901   7.463 -1.0273 -0.8348  1.2615
  645MOL0     H85104   4.903   2.503   7.393  0.0046 -0.0891 -0.3326
  645MOL0     H85105   4.993   2.289   7.284  2.0073 -1.2485  1.1400
  645MOL0     H85106   5.445   2.277   7.199  1.5875  0.0256 -0.8649
  645MOL0     H85107   5.368   2.313   7.047 -1.2718 -1.5023 -0.9795
  645MOL0     H85108   5.264   2.070   7.062  0.3900 -0.1154  0.0542
  645MOL0     H85109   5.365   2.051   7.199 -1.0111 -0.0415  0.6795
  645MOL0     H85110   5.448   2.120   6.903 -1.4740 -0.8635 -0.6033
  645MOL0     H85111   5.477   1.960   6.986  0.7982  0.4247 -1.8965
  645MOL0     H85112   5.612   2.232   7.026  2.6090  0.4103 -0.9068
  645MOL0     H85113   5.619   2.111   7.144  0.5175  2.6678  0.0035
  645MOL0     H85114   5.682   2.061   6.848 -1.3399  0.0317  1.0908
  645MOL0     H85115   5.733   1.953   6.977 -2.5164 -0.2058 -1.5095
  645MOL0     H85116   5.896   2.110   7.059 -0.6372  1.0387 -0.0098
  645MOL0     H85117   5.847   2.247   6.964  0.0371 -0.3559  2.3424
  645MOL0     H85118   6.042   2.149   6.854 -0.2573 -1.4416 -1.9304
  645MOL0     H85119   5.961   1.994   6.841  1.0781 -0.9177  4.3675
  645MOL0     H85120   5.891   2.276   6.721 -0.0729  1.0081 -3.4012
  645MOL0     H85121   5.806   2.123   6.669  0.3166  1.1556 -1.4305
  645MOL0     H85122   5.379   2.488   7.259 -0.2728  0.9493  1.1609
  645MOL0     H85123   5.288   2.685   7.360 -1.2731  0.2340  1.1076
  645MOL0     H85124   5.090   2.913   7.600 -0.4346 -0.0941  1.0277
  645MOL0     H85125   5.026   3.084   7.775  1.3206 -2.4609  0.9277
  645MOL0     H85126   4.693   4.467   8.698  2.2020  2.7868 -1.2869
  645MOL0     H85127   4.776   4.429   8.922 -3.4185  2.3376 -2.5804
  645MOL0     H85128   4.889   4.291   9.389 -0.2121  0.8138 -1.5288
  645MOL0     H85129   5.047   4.258   9.583  1.3404  0.2315  0.9730
  645MOL0     H85130   5.263   3.952   9.508  1.0668 -0.8754 -0.0521
  645MOL0     H85131   5.179   3.996   9.657  1.4079 -3.8023  0.3911
  645MOL0     H85132   5.399   3.863   9.676  2.0987  0.2101  1.0744
  645MOL0     H85133   5.478   3.993   9.597 -0.8977 -1.6317 -0.4476
  645MOL0     H85134   5.464   3.975   9.862  0.1884  1.2696 -0.4117
  645MOL0     H85135   5.311   4.052   9.836 -0.5381 -0.4781 -0.0787
  645MOL0     H85136   5.410   4.256   9.750 -0.3565  0.0473  1.8857
  645MOL0     H85137   5.471   4.219   9.901 -2.7937 -0.2938  0.1386
  645MOL0     H85138   5.837   4.183   9.690  0.3324  0.2160 -1.0048
  645MOL0     H85139   5.351   4.142   9.305  0.4208 -0.4046  0.2481
  645MOL0     H85140   5.209   4.172   9.120  0.0740 -0.3234  0.7639
  646MOL0     O85141   0.483   5.139   0.312  0.1178  0.1697 -0.0767
  646MOL0     C85142   0.421   5.114   0.210 -0.4135 -0.9487  0.5430
  646MOL0     O85143   0.478   5.085   0.097 -0.2051 -0.0982  0.3853
  646MOL0     C85144   0.613   5.065   0.087  0.3352 -0.1938  0.1100
  646MOL0     C85145   0.685   5.174   0.031 -0.4804  0.2074  0.3205
  646MOL0     C85146   0.821   5.163   0.027 -0.1382 -0.3104 -0.1104
  646MOL0     C85147   0.889   5.064   0.079 -0.5935 -0.0348  0.0153
  646MOL0     O85148   1.027   5.075   0.087  0.3690 -0.4317 -0.1981
  646MOL0     C85149   1.102   4.957   0.074 -0.6727 -0.1815 -0.6168
  646MOL0     C85150   1.221   4.984  -0.023  0.6322 -0.3071  0.2519
  646MOL0     C85151   1.332   4.886  -0.003 -0.8374  0.5852  0.3944
  646MOL0     C85152   1.434   4.884  -0.118 -0.5685  0.0366 -0.4206
  646MOL0     C85153   1.564   4.814  -0.062  0.2295  0.1973 -0.3000
  646MOL0     C85154   1.671   4.772  -0.157 -0.5841  1.2299 -0.5395
  646MOL0     C85155   1.734   4.892  -0.219 -0.0049  0.6740 -0.3813
  646MOL0     C85156   1.852   4.863  -0.312 -0.5796  0.0637  0.4699
  646MOL0     N85157   1.942   4.759  -0.248  0.0726 -0.2311  0.5968
  646MOL0     C85158   1.943   4.624  -0.279  0.5071  0.4908 -0.2499
  646MOL0     C85159   2.069   4.575  -0.249 -0.9342 -0.1561 -0.5661
  646MOL0     C85160   2.119   4.435  -0.265 -0.3473  0.8751 -0.1389
  646MOL0     C85161   2.110   4.399  -0.410 -0.8362 -0.5949  0.3462
  646MOL0     C85162   2.118   4.260  -0.438 -0.7232  0.4664 -0.5616
  646MOL0     C85163   2.108   4.218  -0.581 -0.4618 -0.3780 -0.2372
  646MOL0     O85164   1.972   4.235  -0.625 -0.0437  0.6653 -0.4360
  646MOL0     C85165   1.941   4.219  -0.758 -0.3418 -0.0836 -0.0022
  646MOL0     C85166   2.031   4.201  -0.862 -0.4905  0.1220 -0.2096
  646MOL0     C85167   1.992   4.182  -0.998  0.1669  0.2708 -0.6191
  646MOL0     C85168   1.855   4.193  -1.033 -1.0973  0.5317  0.7450
  646MOL0     C85169   1.826   4.195  -1.181 -0.1056 -0.3755 -0.5766
  646MOL0     O85170   1.689   4.203  -1.212 -1.2937 -0.2921 -0.2325
  646MOL0     C85171   1.655   4.215  -1.345 -0.4337  0.3136 -0.8291
  646MOL0     C85172   1.706   4.311  -1.432 -0.4541  1.1154  0.1519
  646MOL0     C85173   1.645   4.331  -1.558 -0.8532  0.3461 -0.3543
  646MOL0     C85174   1.543   4.243  -1.601  0.1869  0.2392 -0.0811
  646MOL0     O85175   1.488   4.274  -1.721  0.7772 -0.2635 -0.0972
  646MOL0     C85176   1.423   4.175  -1.801 -0.0661  0.6837  0.5499
  646MOL0     C85177   1.414   4.228  -1.944 -0.2696  0.5775 -0.5718
  646MOL0     C85178   1.319   4.127  -2.021 -0.5421 -1.3568  0.0371
  646MOL0     C85179   1.284   4.175  -2.169  0.1303 -0.9306 -0.7887
  646MOL0     C85180   1.407   4.175  -2.254 -0.1415  0.5744 -0.0911
  646MOL0     C85181   1.380   4.229  -2.391 -0.0445  0.1988  0.1860
  646MOL0     C85182   1.502   4.215  -2.481 -0.6153 -0.7042 -0.4599
  646MOL0     C85183   1.479   4.252  -2.625  0.3849  0.3363  0.4355
  646MOL0    Cl85184   1.626   4.222  -2.730 -0.0425 -0.1195 -0.2183
  646MOL0     C85185   1.495   4.144  -1.520 -0.5783 -0.9345  0.3421
  646MOL0     C85186   1.550   4.129  -1.389  0.6077 -0.1793 -0.3015
  646MOL0     O85187   1.922   4.182  -1.260 -0.4364  0.4333 -0.5408
  646MOL0     C85188   1.763   4.210  -0.929 -0.2330  0.3207  0.4125
  646MOL0     C85189   1.807   4.227  -0.793 -0.0243 -0.2994  0.1691
  646MOL0     N85190   2.142   4.678  -0.184 -0.3664 -0.6794 -0.5529
  646MOL0     N85191   2.065   4.786  -0.184  0.0456  0.6689  0.7008
  646MOL0     C85192   0.816   4.962   0.141 -0.2144  0.1516  0.1378
  646MOL0     C85193   0.675   4.956   0.137 -0.2732  1.0277 -0.2809
  646MOL0     C85194   0.273   5.124   0.218 -0.3635  0.1774  0.0708
  646MOL0     C85195   0.197   5.117   0.101  0.4023 -0.2277  0.7898
  646MOL0     C85196   0.050   5.108   0.103  0.9816 -0.1793  0.1809
  646MOL0     C85197  -0.008   5.119   0.231 -0.4282 -0.3210 -0.0371
  646MOL0     O85198  -0.146   5.108   0.233  0.2293  0.3550  0.5459
  646MOL0     C85199  -0.211   5.137   0.356 -0.1620 -0.1001 -0.4894
  646MOL0     C85200  -0.356   5.189   0.323  0.8258 -0.4321 -0.8910
  646MOL0     C85201  -0.450   5.189   0.445 -0.2678  0.0647 -0.1245
  646MOL0     C85202  -0.601   5.203   0.398 -0.6114 -0.3758 -0.0544
  646MOL0     C85203  -0.666   5.075   0.358 -0.9622 -0.1968  0.7061
  646MOL0     C85204  -0.707   4.979   0.300  0.3942  0.8797 -0.0705
  646MOL0     C85205   0.067   5.134   0.346 -0.6588 -0.0073 -0.2441
  646MOL0     C85206   0.205   5.136   0.339 -0.2648  0.5279  0.1110
  646MOL0     H85207   0.628   5.254  -0.015  1.0174 -0.2371 -2.4604
  646MOL0     H85208   0.878   5.242  -0.021  0.2824 -0.8229 -0.4711
  646MOL0     H85209   1.038   4.872   0.048 -1.0423  1.0848 -4.3801
  646MOL0     H85210   1.135   4.943   0.178 -3.1709 -0.0138  0.2658
  646MOL0     H85211   1.269   5.082  -0.013  0.5841 -0.2844  0.2608
  646MOL0     H85212   1.181   4.973  -0.124 -0.9452 -0.2805  0.8487
  646MOL0     H85213   1.286   4.787   0.005  0.1720 -0.0679 -1.2888
  646MOL0     H85214   1.390   4.907   0.087  1.1629  1.5160 -1.0334
  646MOL0     H85215   1.393   4.822  -0.198  0.5530  0.6087 -1.4682
  646MOL0     H85216   1.460   4.985  -0.150  0.6137 -0.0386  0.2363
  646MOL0     H85217   1.533   4.719  -0.016  0.6756  0.6594  1.0086
  646MOL0     H85218   1.608   4.872   0.020 -0.5726 -2.6722  2.3963
  646MOL0     H85219   1.635   4.713  -0.242  1.0700  0.4236 -0.7089
  646MOL0     H85220   1.745   4.711  -0.106 -0.1830  1.8749 -0.3393
  646MOL0     H85221   1.659   4.932  -0.288  1.5559 -0.5807 -2.9513
  646MOL0     H85222   1.763   4.955  -0.134  2.0629 -1.2355  0.4255
  646MOL0     H85223   1.907   4.956  -0.329 -0.0328 -0.6698 -2.1200
  646MOL0     H85224   1.815   4.834  -0.411  2.1207  0.7663 -0.8271
  646MOL0     H85225   1.867   4.569  -0.333  1.9389 -1.2327 -0.5958
  646MOL0     H85226   2.065   4.366  -0.200  0.1490  0.3673 -0.2565
  646MOL0     H85227   2.226   4.422  -0.246 -0.8638 -2.0519  1.3689
  646MOL0     H85228   2.188   4.461  -0.455 -1.2145  0.8349  1.5480
  646MOL0     H85229   2.010   4.434  -0.439  0.2792  0.9783 -1.8682
  646MOL0     H85230   2.211   4.229  -0.389 -1.5098 -0.3531  0.4745
  646MOL0     H85231   2.056   4.193  -0.378  1.4660 -3.8543 -2.6325
  646MOL0     H85232   2.130   4.110  -0.580 -1.3525 -0.5822  1.4898
  646MOL0     H85233   2.186   4.278  -0.627 -1.1439  0.0060 -0.9082
  646MOL0     H85234   2.136   4.211  -0.840 -1.3426  3.1586  3.6110
  646MOL0     H85235   2.077   4.170  -1.064  1.4847  2.3214  0.5966
  646MOL0     H85236   1.787   4.378  -1.403 -0.5140  0.0260  3.1363
  646MOL0     H85237   1.689   4.412  -1.615  4.2450 -1.0530  1.0027
  646MOL0     H85238   1.325   4.150  -1.757 -1.3206 -1.4535 -3.0449
  646MOL0     H85239   1.483   4.084  -1.801 -1.9948 -0.7311 -2.4976
  646MOL0     H85240   1.509   4.227  -1.997  1.7464  1.0472  2.7500
  646MOL0     H85241   1.378   4.332  -1.946  2.0034  1.7025  3.7933
  646MOL0     H85242   1.223   4.120  -1.968 -0.2359 -0.9424  0.6638
  646MOL0     H85243   1.363   4.028  -2.030  1.4141 -0.7679  2.2876
  646MOL0     H85244   1.205   4.118  -2.218  0.9786 -1.0943 -2.0113
  646MOL0     H85245   1.263   4.282  -2.166  2.0665 -0.5438 -0.2962
  646MOL0     H85246   1.437   4.070  -2.255 -0.2437  0.5362 -1.7291
  646MOL0     H85247   1.494   4.233  -2.220 -0.0013  1.1583 -1.3881
  646MOL0     H85248   1.323   4.323  -2.387 -0.3883 -0.0320  0.8936
  646MOL0     H85249   1.302   4.163  -2.430 -0.9002 -0.0052  2.1308
  646MOL0     H85250   1.577   4.281  -2.437  1.0857 -1.7176 -1.7367
  646MOL0     H85251   1.549   4.117  -2.474  2.1799  0.6761  3.1916
  646MOL0     H85252   1.444   4.354  -2.638 -0.9708 -0.2365 -0.6441
  646MOL0     H85253   1.407   4.182  -2.668  1.8513 -0.9214 -0.0618
  646MOL0     H85254   1.407   4.087  -1.548 -0.1835 -0.9742 -0.8718
  646MOL0     H85255   1.507   4.059  -1.318  0.7247  1.2641  1.2522
  646MOL0     H85256   1.660   4.233  -0.957 -0.1649 -1.2638 -1.3438
  646MOL0     H85257   1.737   4.270  -0.722 -1.8954 -2.5380 -0.2071
  646MOL0     H85258   0.863   4.877   0.189 -1.9968 -1.7712 -1.3728
  646MOL0     H85259   0.622   4.872   0.181  1.7229  0.8497  2.0053
  646MOL0     H85260   0.248   5.111   0.005  1.9880  1.6933  1.4609
  646MOL0     H85261  -0.010   5.092   0.014  1.0100 -1.1794  0.3393
  646MOL0     H85262  -0.169   5.211   0.425 -6.7547  1.6260  2.4089
  646MOL0     H85263  -0.213   5.043   0.411 -3.4408  1.2783  2.0959
  646MOL0     H85264  -0.359   5.295   0.295 -1.9327 -0.7025 -1.9171
  646MOL0     H85265  -0.404   5.141   0.238  1.5455 -1.0973 -0.9297
  646MOL0     H85266  -0.428   5.283   0.496  1.7501  0.7088 -2.0254
  646MOL0     H85267  -0.422   5.108   0.512  1.7176  1.8423  1.3140
  646MOL0     H85268  -0.658   5.231   0.487  3.4328  1.9124  2.0958
  646MOL0     H85269  -0.604   5.269   0.311 -0.6967  0.9838  0.9532
  646MOL0     H85270  -0.731   4.898   0.234 -0.0890  1.6846 -0.9108
  646MOL0     H85271   0.026   5.146   0.446  1.2846 -0.1300  0.6212
  646MOL0     H85272   0.267   5.148   0.427 -0.7542 -0.6088  0.6313
  647MOL0     O85273   9.664  10.506   5.197 -0.4578  0.6695  0.6642
  647MOL0     C85274   9.611  10.468   5.293 -0.1185  0.1905 -0.7717
  647MOL0     O85275   9.672  10.458   5.420  0.9626  0.2999  0.7761
  647MOL0     C85276   9.801  10.479   5.436  0.0646 -0.1042 -0.3264
  647MOL0     C85277   9.898  10.435   5.345 -0.2742 -0.6130  0.3500
  647MOL0     C85278  10.030  10.439   5.380 -0.2499  0.4532  0.4800
  647MOL0     C85279  10.074  10.508   5.486  0.5090  0.0130 -0.4995
  647MOL0     O85280  10.207  10.518   5.505 -0.2747  0.0900 -0.0264
  647MOL0     C85281  10.261  10.598   5.612  0.4557  0.4364  0.5922
  647MOL0     C85282  10.406  10.640   5.566  0.5493  0.0004  0.1760
  647MOL0     C85283  10.480  10.727   5.661 -1.0236  0.9120  0.6109
  647MOL0     C85284  10.637  10.727   5.654 -0.1525 -0.3501 -0.7771
  647MOL0     C85285  10.704  10.848   5.728 -0.0419  0.6581  0.9770
  647MOL0     C85286  10.859  10.837   5.709  0.0764 -0.2714  0.5329
  647MOL0     C85287  10.920  10.981   5.731 -0.0302 -0.0870  1.1060
  647MOL0     C85288  11.073  10.980   5.767  0.0420  0.7061 -0.7241
  647MOL0     N85289  11.104  10.885   5.865 -0.1643 -0.6334 -0.0410
  647MOL0     C85290  11.088  10.900   6.002 -0.8602  0.4531  0.4613
  647MOL0     C85291  11.138  10.786   6.059  0.5667 -0.0009 -0.1589
  647MOL0     C85292  11.129  10.742   6.200  0.3415 -0.4298 -0.8075
  647MOL0     C85293  10.990  10.741   6.248  0.1145  0.0497 -0.0553
  647MOL0     C85294  10.913  10.631   6.181 -0.4231 -0.0639 -0.1855
  647MOL0     C85295  10.765  10.637   6.223  0.9127 -0.3094 -1.3508
  647MOL0     O85296  10.704  10.766   6.191  0.5494 -0.2877  0.5147
  647MOL0     C85297  10.577  10.775   6.132 -0.2522 -0.2754  0.0593
  647MOL0     C85298  10.476  10.690   6.164  0.2437  1.0017  0.5880
  647MOL0     C85299  10.346  10.706   6.094 -0.0578 -0.0981 -0.0965
  647MOL0     C85300  10.331  10.797   5.998  0.4631 -0.0121  0.0079
  647MOL0     C85301  10.194  10.812   5.924  0.0463 -0.2389  0.3477
  647MOL0     O85302  10.181  10.932   5.856 -0.0510 -0.1059  0.5516
  647MOL0     C85303  10.078  10.953   5.759 -0.3343  1.4620 -0.1369
  647MOL0     C85304   9.940  10.908   5.772 -0.4316 -0.1435 -0.5337
  647MOL0     C85305   9.848  10.920   5.669  0.2693 -0.4577  0.2857
  647MOL0     C85306   9.889  10.978   5.546 -0.0841  0.0941 -0.4421
  647MOL0     O85307   9.803  10.986   5.434 -0.8186  0.5612 -0.0967
  647MOL0     C85308   9.709  10.883   5.428 -0.6885  0.1200  0.0766
  647MOL0     C85309   9.618  10.885   5.303  0.2127 -0.5815 -0.9040
  647MOL0     C85310   9.691  10.847   5.179 -0.4494 -0.1343 -0.4282
  647MOL0     C85311   9.586  10.843   5.073  0.6875  0.0051 -0.1757
  647MOL0     C85312   9.639  10.869   4.933 -0.7132 -0.3714 -0.5208
  647MOL0     C85313   9.533  10.923   4.850  0.7742 -0.3064  0.5163
  647MOL0     C85314   9.588  10.957   4.709 -0.0563 -0.2562  1.2121
  647MOL0     C85315   9.468  10.966   4.601  0.5413  0.3442 -0.1673
  647MOL0    Cl85316   9.344  11.094   4.652  0.0598  0.1025  0.0029
  647MOL0     C85317  10.015  11.033   5.538 -0.4571  0.3783  0.4988
  647MOL0     C85318  10.107  11.018   5.637 -0.1433 -0.1512  0.4258
  647MOL0     O85319  10.113  10.714   5.916  0.1188  0.3824  0.2855
  647MOL0     C85320  10.425  10.905   5.992 -0.4532  0.0494 -0.0112
  647MOL0     C85321  10.559  10.885   6.052 -0.0863 -0.0561 -0.2323
  647MOL0     N85322  11.206  10.721   5.962  0.6065  0.1885  0.6609
  647MOL0     N85323  11.183  10.780   5.843 -0.4410  0.2737  0.5239
  647MOL0     C85324   9.977  10.550   5.587  0.4440  0.7914  0.5504
  647MOL0     C85325   9.843  10.533   5.562  0.5440 -0.3467  0.3774
  647MOL0     C85326   9.461  10.428   5.278  0.1922 -0.5853  0.1424
  647MOL0     C85327   9.391  10.439   5.153 -0.2422 -0.4348 -0.6271
  647MOL0     C85328   9.252  10.416   5.149 -0.1466  0.6776 -0.3065
  647MOL0     C85329   9.178  10.395   5.267 -0.1036  1.1964 -0.1922
  647MOL0     O85330   9.042  10.388   5.263  0.1569  0.2224  0.0160
  647MOL0     C85331   8.972  10.420   5.389  0.1936 -0.5749  0.2555
  647MOL0     C85332   8.822  10.438   5.387  0.0354 -0.5881 -0.7184
  647MOL0     C85333   8.754  10.306   5.355  0.3916 -0.5218 -0.7784
  647MOL0     C85334   8.613  10.326   5.313 -0.5668 -1.3017 -1.0232
  647MOL0     C85335   8.536  10.330   5.438  0.2531  0.6318  0.3393
  647MOL0     C85336   8.465  10.335   5.534  0.9041  0.6055  0.2086
  647MOL0     C85337   9.255  10.365   5.381  0.7439 -0.8793 -0.1643
  647MOL0     C85338   9.387  10.384   5.389  0.1101  0.2242  0.9036
  647MOL0     H85339   9.874  10.372   5.261 -0.5709 -2.5429  1.8092
  647MOL0     H85340  10.101  10.388   5.316 -3.7654  0.4072 -3.9116
  647MOL0     H85341  10.265  10.532   5.700 -0.0317  0.7955  0.8883
  647MOL0     H85342  10.185  10.672   5.638 -1.4846 -1.7726  1.6522
  647MOL0     H85343  10.388  10.697   5.474 -0.6153  0.6099  0.7608
  647MOL0     H85344  10.455  10.549   5.530  0.8737  0.4443 -0.5427
  647MOL0     H85345  10.464  10.679   5.759  4.7411 -1.5068  0.7741
  647MOL0     H85346  10.448  10.831   5.658  4.7670  3.0930  1.9128
  647MOL0     H85347  10.683  10.633   5.686  3.4817  1.0561 -1.4321
  647MOL0     H85348  10.666  10.729   5.548  0.3196 -0.3274 -0.6509
  647MOL0     H85349  10.679  10.853   5.834  0.0765  0.1328  1.0366
  647MOL0     H85350  10.667  10.941   5.684 -1.1736  0.3541  1.2516
  647MOL0     H85351  10.886  10.805   5.608  1.3639  1.1960  0.3861
  647MOL0     H85352  10.902  10.762   5.776  0.3518  0.9634  1.7749
  647MOL0     H85353  10.920  11.027   5.631 -1.5349  2.0272  1.9949
  647MOL0     H85354  10.871  11.045   5.804 -1.6767  0.3336 -0.3003
  647MOL0     H85355  11.102  11.077   5.810 -2.3690  1.5422 -0.8013
  647MOL0     H85356  11.124  10.973   5.671 -0.4408  1.1234 -1.0135
  647MOL0     H85357  11.035  10.982   6.050 -0.6136  3.5923 -4.0574
  647MOL0     H85358  11.194  10.803   6.262  0.6533 -1.1455 -0.4187
  647MOL0     H85359  11.170  10.641   6.206  0.0342 -1.0459 -5.2052
  647MOL0     H85360  10.941  10.837   6.228 -0.8110 -0.6121 -1.0824
  647MOL0     H85361  10.998  10.719   6.355  1.7331  3.3377  0.6141
  647MOL0     H85362  10.915  10.633   6.072 -2.5942 -0.2096 -0.2766
  647MOL0     H85363  10.950  10.532   6.210  0.0116  0.4049  0.9202
  647MOL0     H85364  10.746  10.627   6.331  0.5792 -0.2159 -1.3985
  647MOL0     H85365  10.710  10.558   6.172 -0.6400 -0.5773  0.6072
  647MOL0     H85366  10.486  10.610   6.237  2.6849  3.4645  3.1846
  647MOL0     H85367  10.261  10.645   6.123  1.3692 -1.6260  1.0717
  647MOL0     H85368   9.907  10.863   5.865 -0.5423 -3.3240 -1.9921
  647MOL0     H85369   9.746  10.886   5.675 -0.2322  0.9119 -0.1794
  647MOL0     H85370   9.646  10.884   5.518  0.9614 -2.0690  1.3548
  647MOL0     H85371   9.765  10.790   5.437 -2.2436 -0.7547  1.2795
  647MOL0     H85372   9.583  10.989   5.307  2.9154  0.3756  1.2283
  647MOL0     H85373   9.533  10.819   5.322 -0.3757  1.0790  3.4256
  647MOL0     H85374   9.739  10.751   5.196  0.8992  0.5155 -0.4323
  647MOL0     H85375   9.764  10.927   5.161 -2.3909  2.3219  1.8186
  647MOL0     H85376   9.523  10.754   5.081 -0.1458  0.1996 -3.2700
  647MOL0     H85377   9.509  10.917   5.098 -0.2205 -0.8746 -0.2748
  647MOL0     H85378   9.680  10.778   4.889 -2.5024 -0.8674 -1.2466
  647MOL0     H85379   9.721  10.942   4.926  1.1981 -2.4425 -0.6665
  647MOL0     H85380   9.492  11.017   4.886  1.0150  0.0126 -0.0302
  647MOL0     H85381   9.452  10.849   4.851 -0.5529  1.0691 -0.3749
  647MOL0     H85382   9.618  11.062   4.712  0.1065 -0.2600 -0.0170
  647MOL0     H85383   9.666  10.888   4.676 -0.8002 -1.2111  1.4022
  647MOL0     H85384   9.409  10.874   4.602  0.1668  0.5555 -1.2154
  647MOL0     H85385   9.501  10.992   4.500 -0.5419 -0.7013 -0.8181
  647MOL0     H85386  10.042  11.078   5.443  1.6524 -0.9650  0.3892
  647MOL0     H85387  10.210  11.043   5.611 -1.2689  2.3448 -2.0239
  647MOL0     H85388  10.410  10.994   5.932  1.3476  1.3104  1.3009
  647MOL0     H85389  10.640  10.950   6.021 -0.9641  0.5776 -1.3196
  647MOL0     H85390  10.006  10.583   5.686  1.0123  1.0265  0.3045
  647MOL0     H85391   9.773  10.559   5.641 -0.1178  3.4600 -1.1974
  647MOL0     H85392   9.441  10.464   5.060 -0.6700 -0.3414 -0.8363
  647MOL0     H85393   9.196  10.436   5.058 -0.1441 -1.1267 -0.7440
  647MOL0     H85394   9.021  10.503   5.441  1.6214 -1.1541 -0.1234
  647MOL0     H85395   8.983  10.333   5.455 -0.7695 -3.5627 -3.1638
  647MOL0     H85396   8.789  10.482   5.482 -2.4064 -2.8778 -0.3863
  647MOL0     H85397   8.799  10.514   5.312  0.8700  1.0465  0.6031
  647MOL0     H85398   8.765  10.232   5.435 -1.2461 -0.4818 -0.4844
  647MOL0     H85399   8.806  10.263   5.269  1.6389 -0.6688  0.0337
  647MOL0     H85400   8.609  10.425   5.266 -1.5384 -0.7563  0.1649
  647MOL0     H85401   8.589  10.251   5.237 -0.7050 -2.4555  0.1079
  647MOL0     H85402   8.403  10.346   5.621  0.1703  0.7875 -0.3248
  647MOL0     H85403   9.211  10.309   5.462  0.8848  2.1098  2.1619
  647MOL0     H85404   9.435  10.362   5.484  1.5171  4.8974  1.5084
  648MOL0     O85405   9.767   3.739   7.489  0.3236 -0.7308  0.4359
  648MOL0     C85406   9.772   3.792   7.600 -0.7077  0.1919  0.4745
  648MOL0     O85407   9.668   3.845   7.672  1.5629  0.4014 -0.5420
  648MOL0     C85408   9.538   3.829   7.627 -0.6943  0.0810  0.5767
  648MOL0     C85409   9.485   3.700   7.599  0.4368 -0.3318 -0.1564
  648MOL0     C85410   9.347   3.695   7.566  0.4166 -0.2422  0.3250
  648MOL0     C85411   9.267   3.812   7.563 -0.4981 -0.4219  0.5466
  648MOL0     O85412   9.139   3.791   7.543 -0.1956  0.2356  0.7648
  648MOL0     C85413   9.041   3.891   7.495 -1.1511  0.0038 -0.7054
  648MOL0     C85414   8.901   3.840   7.467  0.9304  0.3149 -0.0231
  648MOL0     C85415   8.793   3.948   7.445 -0.3553 -0.3922  0.0213
  648MOL0     C85416   8.650   3.893   7.407 -0.7282  0.8012 -0.5119
  648MOL0     C85417   8.543   3.994   7.463 -0.2935 -0.7169  0.0332
  648MOL0     C85418   8.404   3.939   7.442  0.9956 -0.9765  0.3553
  648MOL0     C85419   8.366   3.943   7.294  0.0272  0.7449  0.2691
  648MOL0     C85420   8.224   3.875   7.271 -0.2097  0.0213 -0.5122
  648MOL0     N85421   8.109   3.948   7.332 -0.6676  0.1738 -0.0186
  648MOL0     C85422   8.085   4.083   7.299  0.4827  0.7263 -0.1155
  648MOL0     C85423   7.973   4.118   7.364 -0.1485 -0.0617 -0.3182
  648MOL0     C85424   7.912   4.257   7.373  0.6908  0.3423 -0.0553
  648MOL0     C85425   7.874   4.311   7.236  0.2135  0.3593 -1.7825
  648MOL0     C85426   7.792   4.219   7.146  0.8526 -0.3413  0.0822
  648MOL0     C85427   7.663   4.178   7.211 -0.5355 -0.6663  0.2847
  648MOL0     O85428   7.567   4.287   7.214 -0.5131 -0.0010  0.4266
  648MOL0     C85429   7.440   4.266   7.251 -0.1550  0.1886  0.2605
  648MOL0     C85430   7.354   4.382   7.264 -0.0638  0.3659 -0.8745
  648MOL0     C85431   7.218   4.356   7.300  0.9319 -0.5216  0.2462
  648MOL0     C85432   7.166   4.228   7.316 -0.4685 -0.3654 -0.3899
  648MOL0     C85433   7.030   4.195   7.366  1.3484 -0.5697 -0.1725
  648MOL0     O85434   6.938   4.291   7.337  0.4664 -0.6827  1.1178
  648MOL0     C85435   6.800   4.288   7.352 -0.6261  0.8702 -0.7976
  648MOL0     C85436   6.729   4.172   7.388  0.4731  0.3869  0.2769
  648MOL0     C85437   6.589   4.178   7.412 -0.5853  0.1852 -0.4281
  648MOL0     C85438   6.527   4.301   7.419  0.4293 -0.5193  0.2341
  648MOL0     O85439   6.393   4.312   7.458 -0.1533 -0.1036 -0.2741
  648MOL0     C85440   6.295   4.295   7.351 -0.5671 -0.7246  0.5255
  648MOL0     C85441   6.158   4.263   7.407 -0.4381 -0.2521 -0.6426
  648MOL0     C85442   6.094   4.369   7.503 -0.5772  0.5875 -0.4311
  648MOL0     C85443   6.049   4.499   7.429 -0.2467 -0.8431 -1.1391
  648MOL0     C85444   5.940   4.585   7.505  0.7722  0.0708  0.0706
  648MOL0     C85445   5.804   4.514   7.533 -0.0026  0.0971  0.1797
  648MOL0     C85446   5.721   4.467   7.407  0.0227  0.5763  0.3932
  648MOL0     C85447   5.577   4.441   7.435 -0.2527 -0.9401 -0.4244
  648MOL0    Cl85448   5.489   4.442   7.283 -0.0709 -0.6640 -0.1756
  648MOL0     C85449   6.596   4.414   7.371 -0.0421 -1.0821 -0.5458
  648MOL0     C85450   6.741   4.415   7.354  0.9411 -0.0415  0.5950
  648MOL0     O85451   7.002   4.089   7.422 -0.4733  0.1175 -0.1234
  648MOL0     C85452   7.259   4.124   7.313  0.0894  0.2335 -0.1970
  648MOL0     C85453   7.386   4.148   7.280 -0.0101 -0.4644  0.0757
  648MOL0     N85454   7.927   4.004   7.437  0.1475  0.0315 -0.0435
  648MOL0     N85455   7.999   3.904   7.410 -0.3592  0.5313  0.2537
  648MOL0     C85456   9.319   3.930   7.601 -0.5995 -0.1878  0.7791
  648MOL0     C85457   9.457   3.939   7.637 -0.3151  0.4079  0.1947
  648MOL0     C85458   9.908   3.801   7.664  0.4235  0.1679 -0.4823
  648MOL0     C85459  10.020   3.741   7.613  0.0855  0.0396  0.0890
  648MOL0     C85460  10.147   3.769   7.664  0.2578 -0.6053 -0.1371
  648MOL0     C85461  10.163   3.849   7.785 -0.5828  1.0003  0.1891
  648MOL0     O85462  10.276   3.863   7.857 -1.0163  0.8977  0.4879
  648MOL0     C85463  10.398   3.794   7.819  0.4862 -0.3460 -0.6734
  648MOL0     C85464  10.509   3.829   7.905 -0.8635 -0.1875  0.0295
  648MOL0     C85465  10.627   3.734   7.870  0.6124  0.1646 -0.3313
  648MOL0     C85466  10.733   3.783   7.765  0.4785 -0.0816 -0.5180
  648MOL0     C85467  10.679   3.845   7.644 -0.3339 -0.1627 -0.3199
  648MOL0     C85468  10.640   3.906   7.546 -1.5281  0.4179 -0.0585
  648MOL0     C85469  10.045   3.896   7.836 -0.3506 -0.0626 -0.3575
  648MOL0     C85470   9.929   3.895   7.768 -0.4866  0.3885  0.1225
  648MOL0     H85471   9.542   3.608   7.605 -1.2748 -1.4836 -0.7571
  648MOL0     H85472   9.305   3.603   7.525  0.0185 -0.4338  1.1369
  648MOL0     H85473   9.086   3.925   7.401 -0.5824 -1.9900 -1.2118
  648MOL0     H85474   9.031   3.972   7.567 -0.2964 -1.6960  1.4318
  648MOL0     H85475   8.874   3.762   7.539 -2.1727  0.1401 -1.2463
  648MOL0     H85476   8.907   3.785   7.373 -1.9187 -1.4093  0.7000
  648MOL0     H85477   8.823   4.025   7.373 -1.2540 -1.2954 -1.3552
  648MOL0     H85478   8.782   3.998   7.542  0.2180 -0.5042  0.1493
  648MOL0     H85479   8.651   3.885   7.298  2.9436  1.6891 -0.6817
  648MOL0     H85480   8.640   3.791   7.445  1.8525 -0.8490 -3.6634
  648MOL0     H85481   8.546   4.097   7.425  0.0644  0.9789  4.1030
  648MOL0     H85482   8.563   4.007   7.570  0.1820  0.2610 -0.1595
  648MOL0     H85483   8.340   4.003   7.503  0.3729  0.3755 -1.6382
  648MOL0     H85484   8.394   3.844   7.495 -3.9908 -0.9524 -0.1348
  648MOL0     H85485   8.370   4.045   7.254 -0.0514  1.5479  2.1972
  648MOL0     H85486   8.437   3.885   7.234  1.6741  0.9050  1.9843
  648MOL0     H85487   8.216   3.777   7.321 -0.6838  0.1201 -0.3898
  648MOL0     H85488   8.209   3.855   7.165 -3.8830 -3.6359  0.4395
  648MOL0     H85489   8.140   4.146   7.230 -2.8748  1.9673 -1.8769
  648MOL0     H85490   7.988   4.323   7.416  1.8092 -1.2100  0.4080
  648MOL0     H85491   7.822   4.262   7.435  0.9690 -0.6328  0.4330
  648MOL0     H85492   7.967   4.335   7.183  0.6190 -2.8170 -2.6895
  648MOL0     H85493   7.814   4.397   7.265 -1.6765 -2.0693  2.3606
  648MOL0     H85494   7.761   4.268   7.053  0.3536 -1.0575 -0.1317
  648MOL0     H85495   7.850   4.129   7.124 -0.0924 -0.4565 -2.2006
  648MOL0     H85496   7.684   4.148   7.315  0.1536 -0.8752  0.0932
  648MOL0     H85497   7.623   4.094   7.153 -1.4383  2.0363 -3.3102
  648MOL0     H85498   7.403   4.478   7.252  1.3734  0.1847  2.3547
  648MOL0     H85499   7.158   4.441   7.330  1.8285  0.3489 -0.3953
  648MOL0     H85500   6.769   4.071   7.383 -2.4231 -0.9218  1.1233
  648MOL0     H85501   6.541   4.086   7.442 -0.3744  0.4952  0.9459
  648MOL0     H85502   6.334   4.213   7.290  2.2989  1.4778 -0.8385
  648MOL0     H85503   6.290   4.389   7.295 -3.5780  0.2181  2.1597
  648MOL0     H85504   6.154   4.171   7.466  1.2842  0.0937  0.0692
  648MOL0     H85505   6.097   4.246   7.318  2.8786  1.7350 -3.5412
  648MOL0     H85506   6.161   4.385   7.588 -0.5558 -0.3100 -0.2713
  648MOL0     H85507   6.011   4.308   7.539  0.1916 -2.8555 -3.9005
  648MOL0     H85508   6.134   4.565   7.411 -1.6540  1.0231 -1.1419
  648MOL0     H85509   6.004   4.474   7.332  1.0315  0.6340 -2.1481
  648MOL0     H85510   5.920   4.680   7.454 -0.1396 -0.4390 -0.5413
  648MOL0     H85511   5.974   4.620   7.603  2.1488 -2.5352  0.5992
  648MOL0     H85512   5.746   4.588   7.589 -1.7536 -0.9427 -0.1794
  648MOL0     H85513   5.819   4.433   7.606  1.4537 -1.2360 -1.5116
  648MOL0     H85514   5.723   4.548   7.334  0.8699 -0.8773 -1.2707
  648MOL0     H85515   5.768   4.378   7.363  0.3345  2.7476 -4.2420
  648MOL0     H85516   5.528   4.512   7.502 -0.6460 -1.4162 -0.1998
  648MOL0     H85517   5.559   4.346   7.486 -2.4904 -0.0958  0.5022
  648MOL0     H85518   6.542   4.508   7.370  0.2493 -0.8844  0.4426
  648MOL0     H85519   6.793   4.507   7.330  0.7078  0.8479  3.1294
  648MOL0     H85520   7.223   4.024   7.333  0.9710 -0.5070 -2.0431
  648MOL0     H85521   7.454   4.063   7.278  2.7169  1.4589  2.1728
  648MOL0     H85522   9.275   4.030   7.599 -0.7107 -0.1996  1.8556
  648MOL0     H85523   9.493   4.038   7.662 -0.5270  0.2138  1.3148
  648MOL0     H85524  10.015   3.661   7.539  1.5643 -0.4432  0.4876
  648MOL0     H85525  10.239   3.720   7.634 -0.0846 -1.5342  0.2670
  648MOL0     H85526  10.424   3.812   7.714 -0.7159  1.3994 -0.7122
  648MOL0     H85527  10.371   3.690   7.838 -1.0742  0.0338 -0.6612
  648MOL0     H85528  10.546   3.931   7.893 -1.6668  0.0881 -0.1422
  648MOL0     H85529  10.476   3.802   8.006 -1.0080 -0.9596 -0.2161
  648MOL0     H85530  10.587   3.643   7.824  0.3150  0.7525 -1.2807
  648MOL0     H85531  10.683   3.718   7.962  0.5080  2.2314  0.1413
  648MOL0     H85532  10.797   3.861   7.809 -0.2887  1.4935 -2.0795
  648MOL0     H85533  10.791   3.702   7.720 -2.9221 -2.3907 -1.1273
  648MOL0     H85534  10.600   3.946   7.455  1.2249 -0.1293 -1.6068
  648MOL0     H85535  10.057   3.936   7.936  1.2997  1.4676 -1.1174
  648MOL0     H85536   9.839   3.944   7.805 -0.7138 -0.6488  1.0038
  649MOL0     O85537   9.371   1.874   5.435 -0.2678  0.4105 -0.0762
  649MOL0     C85538   9.472   1.809   5.417  0.9072 -0.2834 -0.1015
  649MOL0     O85539   9.477   1.675   5.418  0.3058 -0.2206 -0.3546
  649MOL0     C85540   9.374   1.606   5.473  0.4965 -0.2245 -0.1832
  649MOL0     C85541   9.327   1.489   5.403 -0.2314  0.3078  0.1582
  649MOL0     C85542   9.225   1.410   5.444  0.4775  0.2188 -0.2190
  649MOL0     C85543   9.146   1.444   5.555 -0.9804 -0.6989  0.3411
  649MOL0     O85544   9.027   1.392   5.602 -0.0191  0.3160 -0.1121
  649MOL0     C85545   8.949   1.290   5.531  0.2842 -0.0777 -0.2735
  649MOL0     C85546   8.834   1.260   5.627  0.3366 -0.4186  0.0503
  649MOL0     C85547   8.724   1.166   5.563 -0.4077 -0.5820  0.8469
  649MOL0     C85548   8.619   1.242   5.476 -0.2632  0.4280 -0.0192
  649MOL0     C85549   8.523   1.143   5.398  0.0813  0.1832  0.1107
  649MOL0     C85550   8.432   1.227   5.299  0.4897 -0.2595 -0.4503
  649MOL0     C85551   8.337   1.122   5.223  0.0678  0.7908 -0.8381
  649MOL0     C85552   8.240   1.054   5.327 -0.2816  0.1587 -0.4152
  649MOL0     N85553   8.134   0.980   5.264  0.2131  0.5479 -0.3389
  649MOL0     C85554   8.043   1.040   5.178 -0.3691 -0.8418 -0.2980
  649MOL0     C85555   7.960   0.936   5.148  0.7932  0.5821 -0.5910
  649MOL0     C85556   7.841   0.942   5.059 -0.2104  0.5798  1.0612
  649MOL0     C85557   7.853   0.841   4.941  0.4513 -0.4313 -0.9394
  649MOL0     C85558   7.721   0.853   4.866 -0.4821 -0.2148  0.5659
  649MOL0     C85559   7.719   0.978   4.781 -0.2028 -0.5435  0.0551
  649MOL0     O85560   7.615   0.972   4.680 -0.4119 -0.3266 -0.0223
  649MOL0     C85561   7.508   1.054   4.699  0.5633 -1.0210  0.0741
  649MOL0     C85562   7.454   1.094   4.821 -0.1555  0.0948  0.6902
  649MOL0     C85563   7.353   1.194   4.825 -0.5654 -0.0063 -0.1454
  649MOL0     C85564   7.294   1.243   4.713  0.4652  0.5576  0.3163
  649MOL0     C85565   7.186   1.338   4.723  0.3443 -0.2727  0.4613
  649MOL0     O85566   7.168   1.419   4.608  0.3889  0.4219  0.2942
  649MOL0     C85567   7.044   1.485   4.609 -0.1923 -1.3554  0.3566
  649MOL0     C85568   6.916   1.428   4.633  0.5710 -0.2398  0.3644
  649MOL0     C85569   6.798   1.502   4.622 -0.4022  1.4154  0.7176
  649MOL0     C85570   6.803   1.634   4.566 -0.2847 -0.6298  0.2707
  649MOL0     O85571   6.690   1.696   4.530  0.2530 -0.4091  0.0454
  649MOL0     C85572   6.648   1.799   4.628  0.4751 -0.4565  1.2145
  649MOL0     C85573   6.488   1.805   4.620  0.3278 -0.1045  0.0866
  649MOL0     C85574   6.433   1.927   4.686 -0.1650  1.0175  0.2063
  649MOL0     C85575   6.288   1.948   4.643  0.1169 -0.8510 -0.2537
  649MOL0     C85576   6.233   2.062   4.738  0.3109  0.5141  0.3205
  649MOL0     C85577   6.091   2.098   4.674 -1.5973  0.4961  0.3060
  649MOL0     C85578   6.028   2.211   4.747 -0.1014  0.5728 -0.6537
  649MOL0     C85579   5.874   2.217   4.736 -0.9069  0.0280 -0.1407
  649MOL0    Cl85580   5.843   2.244   4.559  0.2560  0.0327 -0.1844
  649MOL0     C85581   6.926   1.697   4.538  0.1211 -0.5178 -0.5510
  649MOL0     C85582   7.046   1.621   4.565 -0.3830  0.1548  0.3490
  649MOL0     O85583   7.124   1.349   4.827 -0.1052  0.1719 -0.1137
  649MOL0     C85584   7.350   1.196   4.593  0.4994 -0.3823 -0.7164
  649MOL0     C85585   7.455   1.107   4.585  0.7888 -0.5126 -0.3471
  649MOL0     N85586   8.008   0.820   5.201 -0.2621 -0.0241 -0.5236
  649MOL0     N85587   8.104   0.846   5.282 -0.0234 -0.7353 -0.0315
  649MOL0     C85588   9.196   1.547   5.631  0.3091 -0.1058  0.1502
  649MOL0     C85589   9.304   1.628   5.588  0.1702 -0.4650 -0.3812
  649MOL0     C85590   9.590   1.879   5.371 -0.4186  0.1648 -0.9899
  649MOL0     C85591   9.597   2.015   5.351  0.6245 -0.9066 -0.4962
  649MOL0     C85592   9.712   2.071   5.313  0.4655  0.3028  0.5754
  649MOL0     C85593   9.828   2.002   5.287  0.6505  0.2932  0.7028
  649MOL0     O85594   9.938   2.071   5.259  0.5435  0.5460  0.0181
  649MOL0     C85595  10.066   2.027   5.321 -0.8007 -0.7209 -0.6186
  649MOL0     C85596  10.164   2.144   5.305  0.5439 -0.3406  0.6120
  649MOL0     C85597  10.303   2.113   5.370 -0.4196 -0.8769 -0.3986
  649MOL0     C85598  10.394   2.023   5.285  0.4427 -0.5148  0.1571
  649MOL0     C85599  10.532   2.060   5.303  0.5700 -0.8556  0.1727
  649MOL0     C85600  10.650   2.077   5.322 -0.3634  0.1173 -0.3859
  649MOL0     C85601   9.829   1.861   5.310 -0.3275  0.1763 -0.4961
  649MOL0     C85602   9.711   1.805   5.354  0.7580  0.1187 -0.8015
  649MOL0     H85603   9.384   1.461   5.315  0.1528  2.0984 -0.2197
  649MOL0     H85604   9.190   1.320   5.394 -1.5876  0.2440  1.0805
  649MOL0     H85605   8.995   1.195   5.502 -1.7475 -0.9931 -0.6624
  649MOL0     H85606   8.907   1.336   5.441 -0.7238  3.1480  1.6964
  649MOL0     H85607   8.773   1.347   5.649 -1.8062 -1.8496  0.0857
  649MOL0     H85608   8.873   1.223   5.722  2.1650  1.6820  0.1995
  649MOL0     H85609   8.673   1.116   5.647 -1.3363 -1.7308 -0.3568
  649MOL0     H85610   8.771   1.095   5.494 -0.9324  1.6058 -1.9514
  649MOL0     H85611   8.560   1.306   5.542 -1.1342 -0.9476  0.5823
  649MOL0     H85612   8.675   1.309   5.410  1.5737 -1.6127 -0.6577
  649MOL0     H85613   8.463   1.084   5.468  3.3646 -1.9923  1.3511
  649MOL0     H85614   8.590   1.075   5.343 -1.0489 -2.4309  1.7520
  649MOL0     H85615   8.485   1.285   5.223 -0.7233  0.2033 -0.9656
  649MOL0     H85616   8.368   1.304   5.343  1.3215  0.0341  0.2644
  649MOL0     H85617   8.282   1.188   5.154  0.5522  2.6201  0.4604
  649MOL0     H85618   8.397   1.050   5.167  1.5229 -0.5920  2.2833
  649MOL0     H85619   8.199   1.140   5.381 -5.4988 -0.5557 -2.6970
  649MOL0     H85620   8.292   0.986   5.396  0.4628 -1.0844 -2.1414
  649MOL0     H85621   8.046   1.145   5.148  1.7699 -0.3114  1.5512
  649MOL0     H85622   7.811   1.044   5.033 -0.3559  0.1556 -0.5261
  649MOL0     H85623   7.752   0.903   5.110 -0.5614  0.4458  0.3464
  649MOL0     H85624   7.858   0.744   4.990  2.4028  1.8915  4.2021
  649MOL0     H85625   7.941   0.856   4.877  2.2751 -0.7716  1.3638
  649MOL0     H85626   7.711   0.764   4.803  1.2636 -1.2206  1.6247
  649MOL0     H85627   7.631   0.862   4.927 -2.3965  3.4741 -2.3075
  649MOL0     H85628   7.817   0.982   4.731  1.1814 -2.1437  2.4152
  649MOL0     H85629   7.707   1.066   4.845 -1.9419 -0.4681 -0.3462
  649MOL0     H85630   7.482   1.041   4.911 -2.4868  0.2668  1.5768
  649MOL0     H85631   7.323   1.226   4.925  0.4039  2.9169 -0.6970
  649MOL0     H85632   6.920   1.320   4.646 -1.5914 -1.0130 -3.5953
  649MOL0     H85633   6.701   1.453   4.623  0.3194 -0.1358 -0.2394
  649MOL0     H85634   6.676   1.895   4.585 -1.1981 -0.4518  0.0263
  649MOL0     H85635   6.697   1.789   4.725  1.3819 -0.7432  0.7372
  649MOL0     H85636   6.447   1.709   4.650 -1.6271  0.4283 -0.6977
  649MOL0     H85637   6.456   1.822   4.517 -0.8566 -1.3268  0.2358
  649MOL0     H85638   6.499   2.014   4.674  1.1781 -0.1491 -1.2580
  649MOL0     H85639   6.419   1.900   4.791 -3.0825  0.5851 -0.2132
  649MOL0     H85640   6.289   1.988   4.541  3.4770  1.4319  0.5054
  649MOL0     H85641   6.220   1.862   4.644 -1.2805  0.1536  2.9757
  649MOL0     H85642   6.296   2.151   4.732 -2.0048  2.1279 -2.7543
  649MOL0     H85643   6.213   2.033   4.841 -2.1160  0.9874  0.0338
  649MOL0     H85644   6.028   2.010   4.665  0.6673 -0.9675 -3.0779
  649MOL0     H85645   6.124   2.135   4.577  2.7707  0.1414  1.4390
  649MOL0     H85646   6.063   2.213   4.851 -1.8120  1.8360 -0.0391
  649MOL0     H85647   6.066   2.309   4.715  0.1287  0.1970 -1.5305
  649MOL0     H85648   5.840   2.301   4.798 -0.5000 -1.1976  1.8631
  649MOL0     H85649   5.834   2.122   4.771  1.6227 -1.1769 -0.2657
  649MOL0     H85650   6.924   1.801   4.504  1.1035 -0.9308 -1.9547
  649MOL0     H85651   7.138   1.679   4.562 -0.4646  0.3604  1.5941
  649MOL0     H85652   7.286   1.224   4.510 -1.5163  3.1796  1.7999
  649MOL0     H85653   7.490   1.078   4.487  0.4620 -1.3626 -0.2242
  649MOL0     H85654   9.145   1.568   5.725 -1.3965  0.1286 -0.7792
  649MOL0     H85655   9.324   1.715   5.651 -2.6360 -0.2891  0.3895
  649MOL0     H85656   9.510   2.079   5.362  1.0871  0.7965 -4.5856
  649MOL0     H85657   9.704   2.179   5.300 -1.5264  0.1181  0.0205
  649MOL0     H85658  10.115   1.940   5.276  3.9822  1.2410  0.2190
  649MOL0     H85659  10.053   2.002   5.427  1.6069 -0.2560 -0.1713
  649MOL0     H85660  10.190   2.169   5.202  0.5160  1.7303  1.0805
  649MOL0     H85661  10.123   2.229   5.359  0.7157 -0.9053  1.6668
  649MOL0     H85662  10.286   2.066   5.468 -0.4579 -3.3176 -1.5057
  649MOL0     H85663  10.351   2.211   5.380 -3.3962  0.6770 -0.2116
  649MOL0     H85664  10.365   1.922   5.313 -1.5697  0.2852  1.1228
  649MOL0     H85665  10.377   2.043   5.179  0.5437 -0.0540  0.2268
  649MOL0     H85666  10.754   2.087   5.347 -0.1472  2.9673 -1.9938
  649MOL0     H85667   9.914   1.796   5.294 -0.6027 -0.2312 -0.3214
  649MOL0     H85668   9.714   1.698   5.371 -0.9052  0.5828  4.0151
  650MOL0     O85669   2.974   6.677   2.430 -0.3999 -0.3664  0.1849
  650MOL0     C85670   2.975   6.558   2.398 -0.6771 -0.0584  0.1596
  650MOL0     O85671   2.872   6.466   2.396  0.3642 -0.0081  0.8161
  650MOL0     C85672   2.743   6.479   2.438 -0.4734 -0.8030 -0.4720
  650MOL0     C85673   2.661   6.368   2.457 -0.3570 -0.3464  0.0953
  650MOL0     C85674   2.527   6.389   2.495  0.7701 -0.3875  0.8304
  650MOL0     C85675   2.475   6.520   2.506 -0.5138  0.5290  0.6367
  650MOL0     O85676   2.353   6.551   2.558  0.4864 -0.4816  0.3983
  650MOL0     C85677   2.249   6.457   2.578 -1.0086  0.8962 -0.5824
  650MOL0     C85678   2.113   6.521   2.591  0.1660 -0.7035 -0.5983
  650MOL0     C85679   2.008   6.410   2.609  0.6706  0.3508 -0.6490
  650MOL0     C85680   1.874   6.475   2.641 -0.3381 -0.3556  0.7024
  650MOL0     C85681   1.764   6.377   2.678  0.1985 -0.4719 -0.9252
  650MOL0     C85682   1.628   6.446   2.724  0.4348  1.6090  0.6600
  650MOL0     C85683   1.644   6.535   2.844 -0.5419 -0.1555 -0.3912
  650MOL0     C85684   1.536   6.633   2.890 -0.3728  0.0651  0.5759
  650MOL0     N85685   1.408   6.563   2.918  0.5760 -0.3645 -0.3298
  650MOL0     C85686   1.381   6.502   3.038 -0.2903  0.0698  0.3542
  650MOL0     C85687   1.252   6.460   3.026 -0.7665 -0.2425 -0.7554
  650MOL0     C85688   1.162   6.404   3.130 -0.4879  0.2568 -0.4198
  650MOL0     C85689   1.064   6.498   3.202  0.1821  0.0032 -0.0742
  650MOL0     C85690   0.962   6.407   3.274  0.2593  0.2387  1.3447
  650MOL0     C85691   0.872   6.470   3.376  0.0760 -1.2400 -1.6706
  650MOL0     O85692   0.744   6.519   3.327  0.3162 -0.3544 -0.3508
  650MOL0     C85693   0.658   6.570   3.426  1.3893  0.2345  0.8382
  650MOL0     C85694   0.676   6.570   3.573 -0.5228  0.5241  1.2603
  650MOL0     C85695   0.575   6.620   3.660 -0.4655  0.7401 -0.3412
  650MOL0     C85696   0.453   6.671   3.609  0.1215 -0.4141  0.5949
  650MOL0     C85697   0.344   6.725   3.692  0.4601 -0.9728  0.1873
  650MOL0     O85698   0.229   6.775   3.634 -0.1992  0.2945 -0.7237
  650MOL0     C85699   0.143   6.842   3.712  0.6389  1.3568 -0.8707
  650MOL0     C85700   0.182   6.941   3.797  0.4443 -0.2873 -0.4355
  650MOL0     C85701   0.095   7.012   3.877  0.1208  0.1021 -0.1608
  650MOL0     C85702  -0.043   6.979   3.861 -0.0869 -0.4621  0.5758
  650MOL0     O85703  -0.144   7.044   3.928 -0.1621 -0.5963 -0.4144
  650MOL0     C85704  -0.125   7.178   3.988 -0.6153 -0.1411  0.4834
  650MOL0     C85705  -0.124   7.300   3.893  0.4941  0.8651 -1.2406
  650MOL0     C85706  -0.260   7.318   3.823 -0.0108  0.0795  0.0079
  650MOL0     C85707  -0.341   7.432   3.888 -0.3988  0.2692 -0.5485
  650MOL0     C85708  -0.454   7.474   3.804  0.3131 -0.0496 -0.9102
  650MOL0     C85709  -0.569   7.373   3.807 -0.1705 -0.3202 -0.5777
  650MOL0     C85710  -0.668   7.348   3.926 -0.0359  0.3733 -1.2695
  650MOL0     C85711  -0.751   7.464   3.961 -0.5445  1.4095 -0.1207
  650MOL0    Cl85712  -0.839   7.421   4.112  0.1428  0.2650 -0.1220
  650MOL0     C85713  -0.077   6.875   3.785  0.4522 -0.0317  0.7624
  650MOL0     C85714   0.006   6.804   3.703  0.3115  0.5001  0.2085
  650MOL0     O85715   0.372   6.723   3.815  0.9040  0.7103  0.3721
  650MOL0     C85716   0.440   6.676   3.466 -1.0756  0.2613 -0.4748
  650MOL0     C85717   0.542   6.637   3.383  0.0964  0.6434 -0.0262
  650MOL0     N85718   1.210   6.493   2.896  0.2710  0.7673 -0.2850
  650MOL0     N85719   1.301   6.550   2.827 -1.1377 -1.4990 -0.8891
  650MOL0     C85720   2.554   6.627   2.472  0.2786  0.3805  0.8528
  650MOL0     C85721   2.686   6.606   2.438 -0.2444 -0.1809 -0.8051
  650MOL0     C85722   3.115   6.505   2.385  0.3971  0.0040  1.5084
  650MOL0     C85723   3.226   6.595   2.402  0.6003  0.0730 -0.2203
  650MOL0     C85724   3.355   6.550   2.382  0.0952  0.0912  0.0999
  650MOL0     C85725   3.376   6.413   2.392  0.2610  1.0513  0.1998
  650MOL0     O85726   3.505   6.372   2.421  0.0793 -0.0428  0.4299
  650MOL0     C85727   3.556   6.234   2.405 -0.9156  0.3475 -0.9950
  650MOL0     C85728   3.689   6.233   2.327 -0.7769 -0.6158 -0.3597
  650MOL0     C85729   3.802   6.323   2.395  0.2580  0.4341  0.0971
  650MOL0     C85730   3.935   6.323   2.321  0.5205 -0.6414  0.0707
  650MOL0     C85731   4.026   6.220   2.371  0.4943  0.8913 -0.0007
  650MOL0     C85732   4.096   6.127   2.419 -0.0959  0.5535  0.1812
  650MOL0     C85733   3.267   6.325   2.390 -1.1430 -0.7385 -0.3844
  650MOL0     C85734   3.141   6.369   2.374 -0.0623 -0.3534 -0.5373
  650MOL0     H85735   2.699   6.266   2.451 -0.9814 -0.5748 -0.0904
  650MOL0     H85736   2.468   6.307   2.534  1.1835  0.2830  3.0323
  650MOL0     H85737   2.254   6.397   2.669 -2.7865  2.2678  0.4855
  650MOL0     H85738   2.249   6.395   2.487  0.5671  2.0921 -1.4529
  650MOL0     H85739   2.092   6.572   2.497 -0.1299  1.4251  0.5618
  650MOL0     H85740   2.100   6.600   2.666 -3.2696  0.0759 -1.8374
  650MOL0     H85741   2.027   6.358   2.703 -4.1128 -2.0521 -0.7103
  650MOL0     H85742   1.999   6.336   2.530  3.0916 -0.4473 -0.2513
  650MOL0     H85743   1.889   6.545   2.724  1.4689 -1.0959  1.0508
  650MOL0     H85744   1.832   6.527   2.555  1.4422  0.3725  0.2133
  650MOL0     H85745   1.785   6.309   2.761 -1.1978  0.9340  0.6376
  650MOL0     H85746   1.744   6.314   2.590 -1.7320  1.6451 -2.1280
  650MOL0     H85747   1.557   6.364   2.742 -0.4944  2.0525 -0.8083
  650MOL0     H85748   1.587   6.502   2.639 -0.1284  0.0889 -0.1215
  650MOL0     H85749   1.656   6.463   2.926  3.2074  1.1280  0.3870
  650MOL0     H85750   1.735   6.594   2.832  0.5370 -1.7648 -0.3210
  650MOL0     H85751   1.524   6.709   2.812  0.8659  1.1221  1.3844
  650MOL0     H85752   1.557   6.690   2.981 -3.4704  1.2613  0.6676
  650MOL0     H85753   1.445   6.495   3.126 -0.3386  3.0658  0.7246
  650MOL0     H85754   1.229   6.350   3.198  1.1745 -2.2670 -3.7261
  650MOL0     H85755   1.097   6.329   3.084  0.4233 -2.5466  2.4944
  650MOL0     H85756   1.007   6.558   3.130 -1.4977 -2.1920 -0.6790
  650MOL0     H85757   1.121   6.563   3.269 -1.1040  1.6222 -0.4692
  650MOL0     H85758   0.899   6.357   3.201 -2.0523  1.6932  2.2373
  650MOL0     H85759   1.011   6.331   3.336  1.5880  1.4098  1.7870
  650MOL0     H85760   0.926   6.554   3.420  0.0842 -0.6290 -2.8329
  650MOL0     H85761   0.868   6.396   3.457 -1.2626 -0.6061 -1.1170
  650MOL0     H85762   0.766   6.540   3.625 -0.4136  2.8013  2.5488
  650MOL0     H85763   0.576   6.606   3.768  1.5391 -0.5781 -0.4749
  650MOL0     H85764   0.288   6.960   3.805 -0.0239  2.4683  0.5076
  650MOL0     H85765   0.128   7.101   3.929  0.2209  0.7983 -1.3631
  650MOL0     H85766  -0.034   7.168   4.047 -1.5101 -1.8666  1.6696
  650MOL0     H85767  -0.205   7.190   4.062 -2.0248 -3.6203 -0.2831
  650MOL0     H85768  -0.051   7.282   3.814  0.0809 -3.3108 -0.8874
  650MOL0     H85769  -0.097   7.381   3.961  1.1517 -1.0783  0.9224
  650MOL0     H85770  -0.312   7.222   3.819  0.7477 -0.3211 -0.4596
  650MOL0     H85771  -0.227   7.351   3.724  3.7098 -1.9158  0.3875
  650MOL0     H85772  -0.384   7.382   3.975 -0.1381 -0.9280 -1.0982
  650MOL0     H85773  -0.278   7.516   3.918  3.1584 -2.1987 -0.5465
  650MOL0     H85774  -0.422   7.502   3.703 -1.5238  3.5082 -0.6910
  650MOL0     H85775  -0.498   7.568   3.839  0.5244 -0.4878  0.6086
  650MOL0     H85776  -0.520   7.278   3.784 -0.4184  0.0520 -3.0003
  650MOL0     H85777  -0.620   7.395   3.712  1.7101 -0.1131 -1.5934
  650MOL0     H85778  -0.733   7.263   3.905  0.7886 -0.2544 -1.3511
  650MOL0     H85779  -0.609   7.322   4.015 -1.2895 -0.2521 -0.5969
  650MOL0     H85780  -0.819   7.504   3.885 -2.4452 -0.8703  0.2809
  650MOL0     H85781  -0.685   7.546   3.991  0.5443  0.7490 -0.6182
  650MOL0     H85782  -0.180   6.841   3.789 -0.2383  1.4885 -1.7626
  650MOL0     H85783  -0.024   6.715   3.649 -1.3424  1.5435 -0.6445
  650MOL0     H85784   0.355   6.714   3.411 -1.4174 -1.9256 -1.5681
  650MOL0     H85785   0.542   6.644   3.274  1.3095  0.9607 -0.0226
  650MOL0     H85786   2.509   6.726   2.478 -1.6149 -0.1294 -2.4516
  650MOL0     H85787   2.744   6.692   2.406  1.0087 -1.0869 -1.0053
  650MOL0     H85788   3.207   6.702   2.403  0.1308 -0.0048 -0.6028
  650MOL0     H85789   3.442   6.614   2.396  0.1678 -0.3824  2.0773
  650MOL0     H85790   3.489   6.174   2.344 -0.9710  3.0352 -3.8485
  650MOL0     H85791   3.585   6.184   2.498  0.9815  1.3294 -0.9938
  650MOL0     H85792   3.715   6.128   2.311  0.8550 -0.4825  1.1290
  650MOL0     H85793   3.659   6.270   2.229 -0.0001  0.8297 -0.0700
  650MOL0     H85794   3.822   6.290   2.497  2.4923  0.1242 -0.3996
  650MOL0     H85795   3.762   6.424   2.412  2.4920  1.4180 -0.2390
  650MOL0     H85796   3.929   6.313   2.212 -2.1207  2.6229 -0.2520
  650MOL0     H85797   3.977   6.423   2.337 -1.2472  0.1834 -0.1881
  650MOL0     H85798   4.152   6.041   2.448 -0.1561 -0.2376 -1.9366
  650MOL0     H85799   3.290   6.221   2.412 -0.6385 -0.2194  1.6966
  650MOL0     H85800   3.061   6.298   2.357 -0.4192 -0.2952  0.8308
  651MOL0     O85801   7.037  11.107  10.996  0.4471  0.1785 -0.7368
  651MOL0     C85802   7.124  11.088  11.086  0.3850 -0.4366 -0.0185
  651MOL0     O85803   7.123  11.002  11.199  0.5968 -0.0398  0.3621
  651MOL0     C85804   7.004  10.944  11.241  0.3953  0.4248  0.2413
  651MOL0     C85805   6.885  11.016  11.240  0.0429 -0.3040 -0.1940
  651MOL0     C85806   6.764  10.948  11.263  0.2897  0.4199 -1.8267
  651MOL0     C85807   6.768  10.812  11.310  0.1639  0.1738  0.7717
  651MOL0     O85808   6.660  10.739  11.347  0.5145  0.3280 -0.1238
  651MOL0     C85809   6.530  10.800  11.338 -0.2694 -0.2791 -0.4368
  651MOL0     C85810   6.417  10.708  11.394  0.6838  0.8149 -0.9134
  651MOL0     C85811   6.283  10.742  11.337  0.3871  0.1497 -0.1099
  651MOL0     C85812   6.168  10.667  11.405  0.2245 -0.7366 -0.8102
  651MOL0     C85813   6.040  10.735  11.356 -0.0435  0.2170 -0.8544
  651MOL0     C85814   5.974  10.825  11.464  0.5018 -0.0563 -0.1416
  651MOL0     C85815   5.845  10.903  11.439 -0.4402  0.2744  0.2698
  651MOL0     C85816   5.764  10.838  11.327 -0.1403 -0.3374  0.9576
  651MOL0     N85817   5.623  10.780  11.359  0.1511  0.6502  1.2287
  651MOL0     C85818   5.592  10.644  11.349  0.7374 -1.5592  0.0248
  651MOL0     C85819   5.466  10.643  11.392 -0.5716 -0.1877 -0.2354
  651MOL0     C85820   5.371  10.530  11.396  0.2768  0.0372  0.4673
  651MOL0     C85821   5.363  10.482  11.535  0.5992  0.8807 -1.3572
  651MOL0     C85822   5.301  10.347  11.550 -0.5257  0.9169 -0.2074
  651MOL0     C85823   5.161  10.324  11.505 -0.2073  0.2567  0.3411
  651MOL0     O85824   5.080  10.390  11.601 -0.0813  0.2265  0.2909
  651MOL0     C85825   4.943  10.375  11.591 -1.2981  0.9686  0.1617
  651MOL0     C85826   4.884  10.264  11.527 -1.1160  0.9165 -0.2630
  651MOL0     C85827   4.753  10.236  11.539  0.2380  0.2037  0.2852
  651MOL0     C85828   4.667  10.318  11.598  0.4196  0.2667  0.2208
  651MOL0     C85829   4.520  10.297  11.590  0.0599 -0.7418 -0.9486
  651MOL0     O85830   4.445  10.416  11.587 -0.0527  0.2435  0.4133
  651MOL0     C85831   4.308  10.433  11.609 -0.1773 -0.9374  0.1718
  651MOL0     C85832   4.250  10.545  11.561  0.5961  0.5338  0.3340
  651MOL0     C85833   4.116  10.577  11.575 -0.7322 -0.0269 -0.2959
  651MOL0     C85834   4.034  10.487  11.650 -0.8055  0.2867  1.0386
  651MOL0     O85835   3.903  10.519  11.643 -0.3573 -0.9772 -1.1268
  651MOL0     C85836   3.809  10.408  11.635  0.1195 -0.4345 -1.0237
  651MOL0     C85837   3.756  10.369  11.775  0.5910 -0.1213  0.1174
  651MOL0     C85838   3.680  10.480  11.845 -0.0561 -0.9180 -0.8849
  651MOL0     C85839   3.528  10.459  11.867 -0.5530 -0.4989 -0.2417
  651MOL0     C85840   3.467  10.588  11.913  0.4912  0.2004  0.7538
  651MOL0     C85841   3.319  10.552  11.942  0.4119  0.3137 -1.2002
  651MOL0     C85842   3.249  10.673  12.000 -0.1332 -0.3203  0.0926
  651MOL0     C85843   3.105  10.687  11.967  0.3383 -0.5343 -0.6180
  651MOL0    Cl85844   3.098  10.736  11.787 -0.4685  0.5625  0.3357
  651MOL0     C85845   4.089  10.373  11.715  0.3244 -0.5971  0.5453
  651MOL0     C85846   4.231  10.354  11.696  0.1740  0.3489  0.1006
  651MOL0     O85847   4.475  10.186  11.577  0.5358  0.1432 -0.1057
  651MOL0     C85848   4.713  10.436  11.657  1.2812 -0.0328 -0.8318
  651MOL0     C85849   4.850  10.456  11.654  0.2662 -0.4260  0.2877
  651MOL0     N85850   5.417  10.773  11.403  0.4862 -0.5924 -0.1759
  651MOL0     N85851   5.515  10.857  11.395 -0.6727  1.7586 -0.1581
  651MOL0     C85852   6.893  10.743  11.317  0.9781 -0.6120  0.1420
  651MOL0     C85853   7.005  10.813  11.287 -0.5611  0.7637  0.5202
  651MOL0     C85854   7.262  11.142  11.049  0.6661  0.5584  0.4287
  651MOL0     C85855   7.376  11.114  11.121 -0.5781  0.3287 -0.1604
  651MOL0     C85856   7.496  11.177  11.096 -0.3555  0.6168 -0.1270
  651MOL0     C85857   7.508  11.277  10.989 -0.1438  1.0203 -0.0260
  651MOL0     O85858   7.634  11.342  10.979  0.4532  0.5734  1.0013
  651MOL0     C85859   7.656  11.436  10.870  0.2113 -0.0705  0.7904
  651MOL0     C85860   7.648  11.380  10.725 -1.3436 -0.0600 -0.4401
  651MOL0     C85861   7.744  11.434  10.627 -0.5537 -0.4924 -0.2143
  651MOL0     C85862   7.725  11.365  10.494 -0.6456  0.5642  0.1190
  651MOL0     C85863   7.605  11.414  10.417 -1.1858 -0.6703  0.2059
  651MOL0     C85864   7.509  11.462  10.359 -1.8533 -0.2353 -0.1260
  651MOL0     C85865   7.388  11.309  10.923  0.2742 -0.7597 -0.3840
  651MOL0     C85866   7.269  11.241  10.949 -0.1643  0.4943  0.4084
  651MOL0     H85867   6.893  11.120  11.211  3.5867  0.1274  1.7783
  651MOL0     H85868   6.667  10.996  11.262  1.3774  2.7618 -1.6116
  651MOL0     H85869   6.506  10.834  11.237 -0.7003 -0.1195 -0.2842
  651MOL0     H85870   6.533  10.888  11.403 -1.4465  0.5876 -1.4916
  651MOL0     H85871   6.413  10.727  11.502 -0.6132  1.8992 -1.1296
  651MOL0     H85872   6.433  10.602  11.376  3.6254  0.7579  1.2606
  651MOL0     H85873   6.288  10.710  11.233  0.1746  1.3637 -0.5089
  651MOL0     H85874   6.265  10.850  11.335 -1.4894 -0.1368 -2.0257
  651MOL0     H85875   6.165  10.561  11.378 -1.3363 -0.8972 -0.0880
  651MOL0     H85876   6.173  10.677  11.514  2.2914 -2.7371 -0.6388
  651MOL0     H85877   5.964  10.659  11.338 -3.1240  3.0504 -0.7113
  651MOL0     H85878   6.053  10.793  11.263  0.7705  2.3221  0.4955
  651MOL0     H85879   6.054  10.898  11.481  0.7118  0.0672 -1.5283
  651MOL0     H85880   5.955  10.767  11.554 -2.8928  1.3997  0.2427
  651MOL0     H85881   5.781  10.896  11.528 -3.7885  0.9241 -1.9065
  651MOL0     H85882   5.871  11.006  11.413  1.3744 -0.1055  0.4190
  651MOL0     H85883   5.822  10.772  11.262  0.9660  0.9932  0.5262
  651MOL0     H85884   5.738  10.926  11.267  1.2918  0.4654  1.4500
  651MOL0     H85885   5.652  10.564  11.306  1.0621 -1.4406  0.2484
  651MOL0     H85886   5.408  10.451  11.330  0.8927  0.6352  0.0843
  651MOL0     H85887   5.271  10.565  11.368  0.6232 -0.5579 -1.7392
  651MOL0     H85888   5.311  10.552  11.601  2.0350  0.1338  0.6803
  651MOL0     H85889   5.469  10.482  11.563  0.3861  3.9590 -0.1987
  651MOL0     H85890   5.354  10.278  11.483 -0.8780  0.2283  0.2037
  651MOL0     H85891   5.311  10.311  11.653 -1.1663  2.2942  0.3536
  651MOL0     H85892   5.141  10.216  11.505 -0.8193  0.3591  1.0648
  651MOL0     H85893   5.140  10.367  11.407  1.8422  2.4830  0.7965
  651MOL0     H85894   4.937  10.207  11.451  2.8000  3.4158  0.3482
  651MOL0     H85895   4.708  10.156  11.481  0.0014  1.6720 -1.6533
  651MOL0     H85896   4.316  10.614  11.510 -1.2437  2.4335  0.3974
  651MOL0     H85897   4.073  10.662  11.523  1.0999  1.1604  0.0343
  651MOL0     H85898   3.849  10.320  11.585 -0.6304 -0.8927 -0.8315
  651MOL0     H85899   3.719  10.438  11.580 -0.3815  1.4737  0.7026
  651MOL0     H85900   3.843  10.339  11.833  1.3977  1.1987 -0.3702
  651MOL0     H85901   3.695  10.278  11.768  0.9300 -0.2647 -1.4802
  651MOL0     H85902   3.700  10.573  11.791 -0.8928 -0.2843 -0.1323
  651MOL0     H85903   3.721  10.489  11.946  2.1211  1.7389 -1.8637
  651MOL0     H85904   3.475  10.429  11.776 -3.1523  0.1967  0.9523
  651MOL0     H85905   3.506  10.378  11.938  0.4895  0.8607  1.7326
  651MOL0     H85906   3.486  10.664  11.837  1.2419 -0.1015  0.6319
  651MOL0     H85907   3.523  10.633  11.995 -0.0288  1.6428  0.3465
  651MOL0     H85908   3.322  10.463  12.006  1.0037 -0.1740 -1.8859
  651MOL0     H85909   3.262  10.528  11.852 -1.5240  2.3512 -0.6031
  651MOL0     H85910   3.273  10.674  12.107  2.3884 -2.1315 -0.3572
  651MOL0     H85911   3.305  10.756  11.957  3.8788 -1.9276  1.7391
  651MOL0     H85912   3.062  10.773  12.019  2.2269  0.5361 -0.7464
  651MOL0     H85913   3.060  10.592  11.999  2.6137 -0.9980  1.5491
  651MOL0     H85914   4.029  10.319  11.788  0.4255 -2.2090 -0.5231
  651MOL0     H85915   4.271  10.283  11.767 -2.0970 -0.9688  0.1564
  651MOL0     H85916   4.638  10.494  11.710 -1.9128  0.0340 -4.9621
  651MOL0     H85917   4.887  10.540  11.712 -1.9636 -0.3037  1.6612
  651MOL0     H85918   6.890  10.640  11.351 -1.8912 -0.4633  0.5853
  651MOL0     H85919   7.100  10.762  11.288  1.4425  4.1926 -0.2048
  651MOL0     H85920   7.368  11.043  11.203 -3.0487 -2.7511 -2.8100
  651MOL0     H85921   7.575  11.149  11.165  0.8411  4.1239  0.1027
  651MOL0     H85922   7.762  11.463  10.872  0.6250 -1.6374  1.5336
  651MOL0     H85923   7.606  11.533  10.881  0.0277 -0.0090 -0.3983
  651MOL0     H85924   7.674  11.274  10.737  1.6217  0.6902  0.6445
  651MOL0     H85925   7.548  11.400  10.686 -1.3015 -0.1972 -0.6180
  651MOL0     H85926   7.845  11.396  10.645 -1.3539 -2.8100 -0.3011
  651MOL0     H85927   7.736  11.543  10.622  3.4431 -0.0642 -0.1429
  651MOL0     H85928   7.814  11.387  10.435  0.3460 -0.2626  1.2723
  651MOL0     H85929   7.701  11.260  10.510  0.1375  0.5596  1.4294
  651MOL0     H85930   7.417  11.484  10.310 -2.5013 -3.6657 -0.6945
  651MOL0     H85931   7.390  11.397  10.859 -1.8976  2.1327  3.1658
  651MOL0     H85932   7.179  11.274  10.899 -0.8492 -0.4247  0.9999
  652MOL0     O85933   2.369  10.101   8.931  0.1245 -0.1394 -0.0876
  652MOL0     C85934   2.366  10.012   8.848  0.8137  0.3895  0.0711
  652MOL0     O85935   2.467   9.977   8.761  0.3187  0.5299  0.0002
  652MOL0     C85936   2.577  10.059   8.760 -0.1540 -0.3709  0.0654
  652MOL0     C85937   2.571  10.202   8.761 -0.9099  0.2715 -1.3810
  652MOL0     C85938   2.681  10.290   8.780  0.6646  0.4713 -0.2539
  652MOL0     C85939   2.807  10.222   8.791 -0.2893  0.1647  1.0379
  652MOL0     O85940   2.915  10.303   8.826  0.2188 -1.2818  0.8507
  652MOL0     C85941   3.013  10.246   8.917  0.1229  0.1083  0.4458
  652MOL0     C85942   3.093  10.364   8.984 -0.8319  0.9905 -0.0455
  652MOL0     C85943   3.018  10.485   9.031 -1.0273 -0.2675  0.5036
  652MOL0     C85944   2.982  10.574   8.908  0.3309  0.1350  0.8894
  652MOL0     C85945   2.954  10.717   8.951  0.2816  0.9863 -0.2537
  652MOL0     C85946   3.076  10.791   8.993  0.4955  0.0812 -0.4107
  652MOL0     C85947   3.081  10.943   8.974 -0.0844 -0.0060  0.4088
  652MOL0     C85948   2.989  11.025   9.061  0.4614  0.3220  0.5215
  652MOL0     N85949   2.852  11.014   9.021 -0.4067 -0.5875 -0.0339
  652MOL0     C85950   2.779  11.079   8.924  0.1859 -0.2642 -1.0839
  652MOL0     C85951   2.649  11.058   8.959  1.1462  1.1121  0.3390
  652MOL0     C85952   2.524  11.097   8.894  0.2778  0.4843  0.4142
  652MOL0     C85953   2.499  11.014   8.773 -0.6110 -0.5333  0.3871
  652MOL0     C85954   2.553  10.866   8.768  0.8686  0.0112 -0.0003
  652MOL0     C85955   2.534  10.798   8.629 -0.0914  0.3904 -0.0657
  652MOL0     O85956   2.390  10.765   8.621  0.1176  0.1069  0.0660
  652MOL0     C85957   2.345  10.717   8.496  0.4043 -0.6215 -0.3832
  652MOL0     C85958   2.208  10.668   8.500  0.4049  0.2080  0.2983
  652MOL0     C85959   2.148  10.611   8.387  0.6688 -0.5149 -0.4077
  652MOL0     C85960   2.225  10.607   8.261  0.0412  0.9331 -0.1353
  652MOL0     C85961   2.166  10.548   8.135 -0.1091  0.1855  0.2278
  652MOL0     O85962   2.030  10.514   8.133 -0.2319 -0.0471 -0.3543
  652MOL0     C85963   1.963  10.465   8.022 -0.1912 -0.7705  0.1771
  652MOL0     C85964   1.847  10.388   8.038 -0.4221  0.5789 -0.6957
  652MOL0     C85965   1.767  10.351   7.927  0.5108 -0.1949 -0.1500
  652MOL0     C85966   1.807  10.387   7.795  0.6385 -0.0371 -0.2506
  652MOL0     O85967   1.725  10.337   7.702  0.0664 -0.4944  0.6427
  652MOL0     C85968   1.739  10.395   7.572 -0.5132  0.3056 -0.2722
  652MOL0     C85969   1.636  10.319   7.477 -0.4362 -0.5425 -0.3650
  652MOL0     C85970   1.625  10.380   7.335  0.3710 -0.1797 -0.3787
  652MOL0     C85971   1.538  10.509   7.320  0.0287 -0.2684 -0.4933
  652MOL0     C85972   1.496  10.524   7.173  0.7795 -0.8183 -0.1497
  652MOL0     C85973   1.375  10.632   7.160 -0.6335  0.1549  0.1334
  652MOL0     C85974   1.318  10.632   7.013 -0.0277  0.6206  0.4782
  652MOL0     C85975   1.182  10.669   7.018  0.5518  0.0957 -0.6040
  652MOL0    Cl85976   1.089  10.632   6.873 -0.4624  0.1176 -0.3156
  652MOL0     C85977   1.919  10.475   7.784 -1.1216  0.4023 -0.4989
  652MOL0     C85978   1.995  10.516   7.894  0.5511 -0.1092 -0.0061
  652MOL0     O85979   2.246  10.530   8.047 -0.6699  0.2192  0.2652
  652MOL0     C85980   2.353  10.667   8.263  0.2508 -0.5956  0.0264
  652MOL0     C85981   2.415  10.723   8.374  0.3617 -0.1881  0.1069
  652MOL0     N85982   2.642  10.987   9.070  0.1547  0.0643 -0.1440
  652MOL0     N85983   2.768  10.955   9.102  0.8888 -0.0831 -0.8354
  652MOL0     C85984   2.818  10.079   8.778  0.6686 -0.1560 -0.4313
  652MOL0     C85985   2.703  10.000   8.774 -1.4034 -0.2002  0.9738
  652MOL0     C85986   2.233   9.942   8.855  0.2367 -0.1036 -0.0130
  652MOL0     C85987   2.219   9.822   8.782  0.0243 -0.1917 -0.1354
  652MOL0     C85988   2.098   9.750   8.771 -0.1003 -0.0371  0.0167
  652MOL0     C85989   1.986   9.789   8.843 -0.2574 -0.2926  0.2754
  652MOL0     O85990   1.878   9.710   8.829  0.2749  0.2723  0.6631
  652MOL0     C85991   1.772   9.728   8.925 -0.7666 -0.3090  0.0053
  652MOL0     C85992   1.709   9.598   8.958 -0.4814  0.1828  0.1129
  652MOL0     C85993   1.650   9.531   8.834  0.3167  0.1878 -0.5149
  652MOL0     C85994   1.516   9.602   8.790  0.0578  0.1568 -0.2716
  652MOL0     C85995   1.453   9.521   8.685  0.1056 -0.2888 -0.0564
  652MOL0     C85996   1.403   9.450   8.609  0.1637  0.2933  0.9094
  652MOL0     C85997   1.999   9.908   8.918 -0.2201 -0.4735 -0.5934
  652MOL0     C85998   2.122   9.974   8.930  0.3353 -0.0137  0.0147
  652MOL0     H85999   2.477  10.254   8.749 -1.2773  0.5223  1.8995
  652MOL0     H86000   2.658  10.394   8.801  2.6636  0.5542  1.9800
  652MOL0     H86001   3.078  10.175   8.866  1.8709  1.7867  0.2462
  652MOL0     H86002   2.963  10.192   8.998 -0.0140  0.5772  0.6788
  652MOL0     H86003   3.181  10.390   8.925 -1.5436 -0.0555 -1.6100
  652MOL0     H86004   3.144  10.306   9.061  2.2923 -0.4172 -2.9404
  652MOL0     H86005   3.087  10.541   9.096  1.4108  0.1472 -2.1840
  652MOL0     H86006   2.931  10.447   9.084  0.7882 -2.3360  2.2171
  652MOL0     H86007   3.069  10.569   8.842 -1.4649 -0.6159 -1.5744
  652MOL0     H86008   2.891  10.539   8.859  0.1813 -0.1830  1.3824
  652MOL0     H86009   2.878  10.701   9.028  0.6576 -4.9741 -0.6131
  652MOL0     H86010   2.914  10.766   8.862  0.0723 -0.1886 -0.8292
  652MOL0     H86011   3.168  10.756   8.947  1.0187 -1.6608  1.8010
  652MOL0     H86012   3.099  10.770   9.098 -0.5386 -1.0175 -0.3784
  652MOL0     H86013   3.185  10.970   8.996  0.1473  1.4935 -2.1019
  652MOL0     H86014   3.079  10.979   8.871  1.3132  0.2821  0.4665
  652MOL0     H86015   3.030  11.126   9.047 -0.2172  0.7486  1.5671
  652MOL0     H86016   3.007  11.015   9.168  1.6898  2.2934  0.5580
  652MOL0     H86017   2.806  11.135   8.835  0.3704 -2.0579 -2.1936
  652MOL0     H86018   2.521  11.203   8.869 -0.3831  0.9625  2.3252
  652MOL0     H86019   2.446  11.076   8.968  1.0472  0.8505  1.3549
  652MOL0     H86020   2.551  11.072   8.696 -0.3232  0.9840  1.6715
  652MOL0     H86021   2.391  11.012   8.758 -0.7042 -0.5549  1.0265
  652MOL0     H86022   2.659  10.861   8.795  0.8369 -2.7399 -0.0988
  652MOL0     H86023   2.504  10.799   8.840 -0.6392  0.6367 -0.4030
  652MOL0     H86024   2.597  10.709   8.631  0.7741  0.9592 -1.1202
  652MOL0     H86025   2.566  10.864   8.548  0.6075  2.6234  1.9131
  652MOL0     H86026   2.170  10.666   8.602  1.5547 -4.4521  0.8648
  652MOL0     H86027   2.047  10.569   8.386  1.8656 -3.6735 -0.2594
  652MOL0     H86028   1.826  10.355   8.140  2.0883  1.4818  0.1827
  652MOL0     H86029   1.689  10.283   7.960  1.2418 -0.2073  1.6809
  652MOL0     H86030   1.840  10.384   7.532 -1.3293 -3.1204 -1.7755
  652MOL0     H86031   1.705  10.498   7.583  1.4237  1.4491 -3.5887
  652MOL0     H86032   1.537  10.319   7.524 -0.6159 -3.3010 -0.5940
  652MOL0     H86033   1.682  10.220   7.475 -0.4509 -0.5446 -2.2163
  652MOL0     H86034   1.585  10.296   7.278 -0.8844 -0.1113  0.3614
  652MOL0     H86035   1.733  10.395   7.322  0.7379  1.6015  3.3981
  652MOL0     H86036   1.447  10.481   7.374  0.3698  0.6421  0.6054
  652MOL0     H86037   1.562  10.609   7.356 -2.7797  0.7848 -1.3641
  652MOL0     H86038   1.465  10.425   7.138 -0.1683 -0.3361 -0.7150
  652MOL0     H86039   1.574  10.564   7.109 -1.2115  3.3684 -0.2979
  652MOL0     H86040   1.406  10.737   7.173  1.4524 -0.0392 -2.4022
  652MOL0     H86041   1.293  10.618   7.231  2.1567 -2.3530  3.1346
  652MOL0     H86042   1.376  10.701   6.951  0.1939  1.0228  1.1186
  652MOL0     H86043   1.326  10.531   6.974  0.0389  1.0734 -0.7133
  652MOL0     H86044   1.173  10.776   7.039 -2.7534  0.2448 -2.1551
  652MOL0     H86045   1.135  10.623   7.106 -0.9066  1.9382 -0.3377
  652MOL0     H86046   1.950  10.503   7.684  1.2763 -2.3202 -0.6468
  652MOL0     H86047   2.082  10.581   7.892  1.7590 -1.4190  3.2168
  652MOL0     H86048   2.404  10.674   8.167 -0.7582  1.0902 -0.4228
  652MOL0     H86049   2.519  10.755   8.366  0.9161 -2.1743 -1.1738
  652MOL0     H86050   2.910  10.024   8.795  1.1929  0.8819  0.2287
  652MOL0     H86051   2.719   9.893   8.773 -0.6100 -0.1414 -1.8443
  652MOL0     H86052   2.294   9.782   8.714  1.2947  2.3052 -0.2943
  652MOL0     H86053   2.097   9.659   8.713  2.4408 -0.3502  0.3431
  652MOL0     H86054   1.702   9.805   8.893 -0.4003 -0.7148 -1.9223
  652MOL0     H86055   1.816   9.760   9.019 -1.8810 -1.0795  0.8255
  652MOL0     H86056   1.785   9.527   8.992 -1.5525 -1.8707 -1.5579
  652MOL0     H86057   1.639   9.616   9.040 -1.7503 -1.5507 -0.5341
  652MOL0     H86058   1.621   9.428   8.857  0.7891  0.3019  0.6544
  652MOL0     H86059   1.721   9.520   8.752  3.3164 -0.3368  1.9475
  652MOL0     H86060   1.444   9.636   8.865 -0.4307  0.8148 -1.0258
  652MOL0     H86061   1.542   9.689   8.728  0.6310 -1.2068 -2.0232
  652MOL0     H86062   1.343   9.396   8.539 -1.5444  1.0766  1.7079
  652MOL0     H86063   1.909   9.954   8.956  0.1577  0.9171 -1.2974
  652MOL0     H86064   2.107  10.072   8.974 -2.3708 -0.8562  1.1957
  653MOL0     O86065   3.725   5.343   8.325  0.4244  0.0541  0.0867
  653MOL0     C86066   3.815   5.300   8.387 -0.8327 -0.6936  0.4985
  653MOL0     O86067   3.803   5.208   8.489 -0.1364  0.0728  0.8158
  653MOL0     C86068   3.684   5.208   8.548 -0.3576  0.3661  0.0961
  653MOL0     C86069   3.649   5.083   8.592  0.0384 -0.8061 -0.4324
  653MOL0     C86070   3.535   5.064   8.667 -0.3024 -1.1988 -0.3676
  653MOL0     C86071   3.452   5.171   8.704 -0.0300 -0.0154 -0.8500
  653MOL0     O86072   3.341   5.138   8.779  0.2504  0.0069 -0.1099
  653MOL0     C86073   3.317   5.220   8.892  1.1042  0.1181  0.0201
  653MOL0     C86074   3.263   5.141   9.015 -0.3266  0.0819  0.0778
  653MOL0     C86075   3.143   5.209   9.085 -0.6142 -0.4434  0.3200
  653MOL0     C86076   3.197   5.315   9.192  0.0298  0.1204 -0.0094
  653MOL0     C86077   3.096   5.404   9.254 -0.1860 -0.4729 -0.2441
  653MOL0     C86078   2.985   5.318   9.319 -0.0658 -1.2139  0.4210
  653MOL0     C86079   2.944   5.387   9.453  0.3748 -0.5467 -0.7707
  653MOL0     C86080   2.853   5.284   9.533  0.1144 -0.3385  0.0857
  653MOL0     N86081   2.819   5.333   9.672 -0.3029  1.0681  0.1748
  653MOL0     C86082   2.738   5.438   9.700  0.3578 -0.3833  0.0731
  653MOL0     C86083   2.735   5.442   9.836 -0.2547 -0.5066  0.8097
  653MOL0     C86084   2.669   5.544   9.928 -0.1875 -0.2244 -0.2937
  653MOL0     C86085   2.761   5.674   9.923 -0.1082  0.4639  0.7388
  653MOL0     C86086   2.705   5.797  10.007  0.8275  0.4556 -0.6368
  653MOL0     C86087   2.560   5.837   9.978  0.2986  0.7704  0.1578
  653MOL0     O86088   2.531   5.952  10.061  0.5388  0.1882 -0.1556
  653MOL0     C86089   2.397   5.969  10.076 -0.2428  0.1074  0.8556
  653MOL0     C86090   2.338   5.928  10.192 -0.2024  0.1291 -0.3480
  653MOL0     C86091   2.200   5.931  10.197  0.4610  0.1174 -0.2228
  653MOL0     C86092   2.121   5.980  10.094 -0.7731  0.2824 -0.2720
  653MOL0     C86093   1.973   5.989  10.117  0.2122  0.3547  0.5924
  653MOL0     O86094   1.900   6.053  10.019  0.5663 -0.7056  0.1510
  653MOL0     C86095   1.763   6.080  10.044 -0.2354  0.0707  0.7167
  653MOL0     C86096   1.720   6.205  10.003 -1.1513 -0.3524  0.1006
  653MOL0     C86097   1.589   6.246  10.019 -0.8227  0.2903 -0.5480
  653MOL0     C86098   1.496   6.174  10.087  0.6967  0.2899  0.4240
  653MOL0     O86099   1.361   6.201  10.086 -0.2400  0.0996  0.7471
  653MOL0     C86100   1.299   6.317  10.017 -0.4561  0.8742 -0.6170
  653MOL0     C86101   1.164   6.333  10.086 -0.1545 -0.6411  0.8207
  653MOL0     C86102   1.202   6.355  10.239 -0.0598  0.2093  0.9129
  653MOL0     C86103   1.080   6.399  10.316 -0.1973 -0.5713 -0.3721
  653MOL0     C86104   0.980   6.285  10.328 -0.6283 -0.5263  0.1294
  653MOL0     C86105   0.862   6.314  10.428 -0.4678 -0.5987  0.2091
  653MOL0     C86106   0.761   6.409  10.361 -0.2763 -0.4061 -0.5936
  653MOL0     C86107   0.666   6.469  10.458  0.3777  0.6839 -0.5347
  653MOL0    Cl86108   0.567   6.351  10.536  0.0268 -0.0147  0.4276
  653MOL0     C86109   1.538   6.055  10.141 -0.1194  0.6852 -0.1570
  653MOL0     C86110   1.664   6.005  10.117 -1.0164  0.2697  0.0426
  653MOL0     O86111   1.926   5.954  10.226 -0.1273  0.8083  0.4983
  653MOL0     C86112   2.189   6.033   9.975 -1.0081  0.2281  0.5406
  653MOL0     C86113   2.324   6.025   9.978  0.6607 -0.2966 -0.4200
  653MOL0     N86114   2.806   5.334   9.881 -0.6486 -0.4060 -0.3261
  653MOL0     N86115   2.861   5.270   9.783 -0.4690 -0.1687 -0.0140
  653MOL0     C86116   3.490   5.300   8.659 -0.0603 -0.2906 -0.4480
  653MOL0     C86117   3.599   5.320   8.575 -0.0133 -0.1061 -0.1546
  653MOL0     C86118   3.948   5.330   8.331 -0.1649 -0.7925 -0.0694
  653MOL0     C86119   4.061   5.310   8.416 -0.4912  0.2552 -0.0353
  653MOL0     C86120   4.194   5.324   8.371  0.4388 -0.3878 -0.8523
  653MOL0     C86121   4.227   5.376   8.243  0.0430  0.2021 -0.0509
  653MOL0     O86122   4.351   5.416   8.198  0.2424  0.2878 -0.7057
  653MOL0     C86123   4.456   5.417   8.301 -0.0209 -0.1056  0.9624
  653MOL0     C86124   4.584   5.481   8.246  0.9746  1.0041 -0.1656
  653MOL0     C86125   4.654   5.367   8.170  1.0375  0.4606 -0.2476
  653MOL0     C86126   4.775   5.388   8.085 -0.2411 -0.8036 -0.8037
  653MOL0     C86127   4.746   5.482   7.980 -0.3463  1.5526 -0.6820
  653MOL0     C86128   4.726   5.576   7.914  0.9716 -0.0417 -0.7540
  653MOL0     C86129   4.111   5.430   8.172 -0.0683  0.0266  0.3926
  653MOL0     C86130   3.979   5.392   8.211 -0.2424 -0.3906 -0.6054
  653MOL0     H86131   3.699   4.993   8.558 -0.4244 -1.1353 -0.2557
  653MOL0     H86132   3.498   4.965   8.692 -3.7334 -0.0053 -0.2899
  653MOL0     H86133   3.247   5.301   8.870  2.1779  1.2339  0.6105
  653MOL0     H86134   3.403   5.274   8.931 -0.4353  1.6915  1.4154
  653MOL0     H86135   3.342   5.121   9.088 -0.6584  1.1082  0.7512
  653MOL0     H86136   3.228   5.043   8.982 -2.6438  0.5251  1.0079
  653MOL0     H86137   3.091   5.127   9.134 -1.5785 -0.7452 -1.1532
  653MOL0     H86138   3.074   5.242   9.007  0.1336 -0.0532 -0.1857
  653MOL0     H86139   3.257   5.265   9.268 -0.4617  0.5435  0.6693
  653MOL0     H86140   3.273   5.384   9.153  0.2720  0.5332  1.1716
  653MOL0     H86141   3.060   5.485   9.189  2.1028  1.1095  0.3489
  653MOL0     H86142   3.155   5.454   9.332  1.1695 -2.8523  0.3501
  653MOL0     H86143   3.031   5.221   9.341  2.6249  0.2158  1.4229
  653MOL0     H86144   2.899   5.313   9.251 -0.2991  0.3117  0.5674
  653MOL0     H86145   3.031   5.407   9.516  0.0655 -0.8470 -0.2451
  653MOL0     H86146   2.895   5.480   9.423  0.2780 -0.6155 -0.8243
  653MOL0     H86147   2.905   5.189   9.540  1.9453  0.7616  3.5855
  653MOL0     H86148   2.760   5.268   9.477  1.1847  1.6063 -2.4742
  653MOL0     H86149   2.678   5.507   9.640 -0.8723  0.6097  2.3230
  653MOL0     H86150   2.651   5.495  10.024  1.2820 -1.5200 -0.6474
  653MOL0     H86151   2.575   5.577   9.883 -1.2744 -3.1495 -0.3264
  653MOL0     H86152   2.769   5.702   9.818 -0.8615  1.5466  0.9531
  653MOL0     H86153   2.863   5.648   9.952  1.0737  1.5340 -2.0797
  653MOL0     H86154   2.718   5.775  10.113 -1.0034  1.2604 -0.2099
  653MOL0     H86155   2.770   5.881   9.979 -0.3767  1.7040  0.2313
  653MOL0     H86156   2.480   5.763   9.983 -2.3386  3.2316 -1.9807
  653MOL0     H86157   2.546   5.881   9.879  0.5834  0.8938  0.1706
  653MOL0     H86158   2.401   5.887  10.271  2.2868  3.1870 -0.5765
  653MOL0     H86159   2.150   5.897  10.287 -2.8084  0.1742 -1.8390
  653MOL0     H86160   1.797   6.265   9.955 -0.9446 -1.8480 -1.5691
  653MOL0     H86161   1.542   6.337   9.982 -0.9705  1.5533  2.5011
  653MOL0     H86162   1.292   6.304   9.908 -1.8770  0.0750 -0.4445
  653MOL0     H86163   1.345   6.415  10.030  0.5659  0.4901 -1.1631
  653MOL0     H86164   1.109   6.239  10.079 -0.5017 -0.5445  1.9686
  653MOL0     H86165   1.103   6.420  10.056 -0.6595 -0.8995  1.0740
  653MOL0     H86166   1.279   6.432  10.245 -0.7785  0.8398  2.5005
  653MOL0     H86167   1.243   6.262  10.280 -0.1042  0.3747  1.3381
  653MOL0     H86168   1.120   6.427  10.414 -2.5975 -1.2486  0.8664
  653MOL0     H86169   1.040   6.486  10.263 -1.3912 -1.2274 -0.5837
  653MOL0     H86170   1.020   6.186  10.352 -0.5028 -0.5317 -0.1059
  653MOL0     H86171   0.934   6.258  10.233 -0.5051  1.8305 -0.6686
  653MOL0     H86172   0.891   6.349  10.528 -1.3773 -0.1819  0.3427
  653MOL0     H86173   0.812   6.218  10.443  0.7459 -1.3528 -0.4144
  653MOL0     H86174   0.815   6.490  10.310 -1.6824 -0.5321 -2.3641
  653MOL0     H86175   0.710   6.359  10.278  1.5419 -1.4682 -1.1401
  653MOL0     H86176   0.617   6.548  10.401 -0.0940  0.1635 -0.8537
  653MOL0     H86177   0.729   6.517  10.534  2.6318  2.9751 -3.5373
  653MOL0     H86178   1.468   6.006  10.209  1.3553 -2.4423 -0.7103
  653MOL0     H86179   1.692   5.903  10.140  1.6397  0.9285  0.0033
  653MOL0     H86180   2.134   6.084   9.897 -0.2254  2.2049  1.2318
  653MOL0     H86181   2.374   6.073   9.894  1.4751 -0.7030 -0.1740
  653MOL0     H86182   3.430   5.378   8.704 -1.8732 -2.7899  1.8403
  653MOL0     H86183   3.614   5.419   8.533 -0.9976  1.7424  3.4799
  653MOL0     H86184   4.037   5.271   8.514  1.3379 -2.3570 -0.5331
  653MOL0     H86185   4.263   5.297   8.451 -1.4115 -1.6805  0.4060
  653MOL0     H86186   4.474   5.313   8.329 -0.7235 -0.5862 -0.2604
  653MOL0     H86187   4.428   5.475   8.389 -1.3627  0.1996  0.3650
  653MOL0     H86188   4.545   5.554   8.175 -2.1086 -0.5734 -0.2474
  653MOL0     H86189   4.652   5.524   8.320  0.7496 -1.5921  1.6926
  653MOL0     H86190   4.590   5.301   8.111  0.2102 -1.5921  2.7269
  653MOL0     H86191   4.685   5.294   8.245 -4.1748 -0.0977  1.7999
  653MOL0     H86192   4.854   5.432   8.147 -3.1830  2.8548  0.7146
  653MOL0     H86193   4.805   5.295   8.036  0.3505  0.2188 -2.4609
  653MOL0     H86194   4.695   5.661   7.857  0.2355 -1.0607 -1.9085
  653MOL0     H86195   4.129   5.469   8.073  0.9134 -0.7181  0.2566
  653MOL0     H86196   3.911   5.422   8.131 -0.5603 -2.7255 -1.2867
  654MOL0     O86197   3.340   2.571   8.422 -0.0481  0.7183 -0.5367
  654MOL0     C86198   3.361   2.532   8.539  0.1415  0.2043  0.8127
  654MOL0     O86199   3.283   2.565   8.644  0.2540  0.0358  0.1184
  654MOL0     C86200   3.162   2.620   8.637 -1.1533 -0.0885  0.0832
  654MOL0     C86201   3.094   2.611   8.764  0.2375  0.4691  0.4595
  654MOL0     C86202   2.965   2.666   8.765 -0.6082 -0.2051 -0.2624
  654MOL0     C86203   2.900   2.706   8.651  0.3330  0.1093 -0.0628
  654MOL0     O86204   2.780   2.757   8.671 -0.1984  0.1344  0.4682
  654MOL0     C86205   2.705   2.824   8.558  0.2822  0.1843 -0.6997
  654MOL0     C86206   2.559   2.848   8.612  0.7281 -0.5870  0.2406
  654MOL0     C86207   2.490   2.715   8.655  0.4245 -0.0898  0.0562
  654MOL0     C86208   2.343   2.716   8.630  0.0223  0.0694  0.6140
  654MOL0     C86209   2.260   2.779   8.739  0.4135 -0.2465 -0.2688
  654MOL0     C86210   2.277   2.727   8.875  0.4735 -0.6084 -0.7750
  654MOL0     C86211   2.223   2.813   8.993  0.5186 -0.3312 -0.2772
  654MOL0     C86212   2.260   2.757   9.125 -0.6022  0.3782  0.3379
  654MOL0     N86213   2.402   2.768   9.155  0.2396  0.4774  0.1630
  654MOL0     C86214   2.477   2.884   9.145 -0.4279  0.9250 -0.7001
  654MOL0     C86215   2.592   2.866   9.217 -0.3233 -0.5198 -0.4312
  654MOL0     C86216   2.706   2.962   9.204  0.4014  0.4985 -0.2154
  654MOL0     C86217   2.841   2.902   9.240  0.4157 -0.2444  0.1452
  654MOL0     C86218   2.959   2.960   9.167 -0.3854 -0.3774 -0.1543
  654MOL0     C86219   3.096   2.920   9.223 -0.8669  0.6856  0.2551
  654MOL0     O86220   3.191   2.931   9.120 -0.1111  0.4295  0.1488
  654MOL0     C86221   3.309   2.868   9.131 -0.1170 -0.4747  0.2526
  654MOL0     C86222   3.352   2.777   9.035  0.2352  0.0601  0.1445
  654MOL0     C86223   3.469   2.710   9.042 -0.7613  1.0651 -1.0633
  654MOL0     C86224   3.560   2.725   9.155  0.8522 -0.3068  0.0625
  654MOL0     C86225   3.686   2.659   9.156 -0.5265 -0.0897  0.8949
  654MOL0     O86226   3.776   2.683   9.260  0.8721 -0.4507  0.3304
  654MOL0     C86227   3.895   2.622   9.275  0.6204 -0.4910  0.7270
  654MOL0     C86228   3.938   2.505   9.219 -0.4559  0.1205  0.4948
  654MOL0     C86229   4.066   2.459   9.246  0.3731 -0.4266 -0.0280
  654MOL0     C86230   4.155   2.527   9.325  0.1408 -0.9076 -0.6792
  654MOL0     O86231   4.274   2.463   9.361 -0.4712  0.0408 -0.6589
  654MOL0     C86232   4.314   2.465   9.493  0.2985 -0.2619  0.5300
  654MOL0     C86233   4.405   2.351   9.531 -0.2358  0.0583 -0.8525
  654MOL0     C86234   4.544   2.362   9.476  0.3229  0.5334  0.3460
  654MOL0     C86235   4.645   2.269   9.534  0.1734  0.6950 -0.2585
  654MOL0     C86236   4.794   2.299   9.518 -0.6096  0.6962 -0.5828
  654MOL0     C86237   4.846   2.313   9.365 -0.7070  0.5144 -0.7366
  654MOL0     C86238   4.872   2.186   9.291 -0.5383 -0.6186  0.5348
  654MOL0     C86239   4.926   2.228   9.154 -0.4329 -0.2423  0.1894
  654MOL0    Cl86240   4.795   2.267   9.035  0.0789 -0.2450  0.1478
  654MOL0     C86241   4.113   2.645   9.380  0.4513  0.0085  1.5488
  654MOL0     C86242   3.987   2.699   9.349  0.4289  0.8046 -0.6899
  654MOL0     O86243   3.713   2.604   9.055  0.5347  0.1226  0.1714
  654MOL0     C86244   3.510   2.808   9.253 -0.6981 -0.6377 -0.8068
  654MOL0     C86245   3.391   2.881   9.242  0.0251  0.1670  0.1015
  654MOL0     N86246   2.580   2.742   9.279 -0.0188 -0.4901 -0.2727
  654MOL0     N86247   2.472   2.680   9.235 -0.3368 -0.1454  0.0560
  654MOL0     C86248   2.961   2.695   8.528 -0.5771 -0.3311 -0.1020
  654MOL0     C86249   3.092   2.656   8.526  0.9049 -0.1748  0.0727
  654MOL0     C86250   3.479   2.440   8.572 -0.5386  0.6906 -0.4092
  654MOL0     C86251   3.523   2.411   8.705 -0.2929  0.6397  0.4653
  654MOL0     C86252   3.643   2.348   8.729  0.3220  0.0776 -0.1198
  654MOL0     C86253   3.725   2.310   8.622  0.8423  0.2983 -0.3481
  654MOL0     O86254   3.855   2.277   8.643  0.2622 -0.0605 -0.5438
  654MOL0     C86255   3.902   2.239   8.775 -0.0206  0.1735 -0.2130
  654MOL0     C86256   3.971   2.351   8.849  0.4995  0.7012  0.4052
  654MOL0     C86257   4.100   2.414   8.781 -0.2778 -0.0375  0.3005
  654MOL0     C86258   4.167   2.512   8.865 -0.1424  0.3354  0.6276
  654MOL0     C86259   4.077   2.628   8.895  0.0635 -0.2386  0.5356
  654MOL0     C86260   4.007   2.708   8.956 -0.1561  0.0930 -0.6339
  654MOL0     C86261   3.680   2.323   8.488 -0.6086 -0.5855 -1.0869
  654MOL0     C86262   3.553   2.385   8.462  1.2397 -0.2275 -0.3112
  654MOL0     H86263   3.140   2.578   8.856  0.3736  1.8090  0.8904
  654MOL0     H86264   2.921   2.677   8.864  3.0379  0.9498  1.4059
  654MOL0     H86265   2.689   2.760   8.470  1.5899  1.7139 -2.1097
  654MOL0     H86266   2.746   2.920   8.524 -2.6009  1.1000 -1.9523
  654MOL0     H86267   2.504   2.908   8.539  0.7821  0.1892  0.8144
  654MOL0     H86268   2.559   2.920   8.695  2.3977  0.6284 -0.7514
  654MOL0     H86269   2.524   2.683   8.754  0.2437 -0.4630  0.0023
  654MOL0     H86270   2.541   2.639   8.594  0.8282 -1.9152  2.5213
  654MOL0     H86271   2.322   2.768   8.536  0.7355 -2.2791 -0.9273
  654MOL0     H86272   2.315   2.610   8.630  3.7444 -1.0902  1.8320
  654MOL0     H86273   2.155   2.771   8.711 -0.4006 -0.6071  2.5326
  654MOL0     H86274   2.291   2.883   8.736 -3.3888  1.0128 -1.4325
  654MOL0     H86275   2.379   2.706   8.908  0.5929  1.9151  0.7300
  654MOL0     H86276   2.232   2.629   8.889 -1.1833  0.5497  4.5507
  654MOL0     H86277   2.273   2.910   8.983 -0.3066 -0.0881 -3.1323
  654MOL0     H86278   2.115   2.831   8.980  0.5751  0.7441  0.5974
  654MOL0     H86279   2.227   2.653   9.133 -0.9493  0.5769  1.8789
  654MOL0     H86280   2.216   2.818   9.205 -2.7479  0.3003 -0.7286
  654MOL0     H86281   2.452   2.963   9.075 -0.4192  1.8522  0.3323
  654MOL0     H86282   2.694   3.044   9.276  0.8842 -1.1710  1.8660
  654MOL0     H86283   2.711   3.008   9.105  1.7563 -0.2347 -0.5139
  654MOL0     H86284   2.837   2.801   9.198 -2.0551  1.1155 -3.2831
  654MOL0     H86285   2.851   2.899   9.349  0.6583  2.6447  0.2776
  654MOL0     H86286   2.954   2.919   9.066  2.0948 -1.2885  0.0473
  654MOL0     H86287   2.953   3.070   9.170 -0.6838 -0.3825 -0.5919
  654MOL0     H86288   3.092   2.816   9.257 -0.1384  1.4678  2.9409
  654MOL0     H86289   3.129   2.971   9.314 -1.7549  0.2720  0.8260
  654MOL0     H86290   3.293   2.754   8.946  0.6829 -2.3495  0.4174
  654MOL0     H86291   3.493   2.654   8.952  1.6959 -1.0232  0.7258
  654MOL0     H86292   3.860   2.439   9.181 -0.3120 -0.3818  1.0666
  654MOL0     H86293   4.103   2.367   9.203  0.3691  0.7464 -2.7375
  654MOL0     H86294   4.226   2.460   9.558  1.7721 -0.1524  2.6378
  654MOL0     H86295   4.348   2.564   9.527  0.3418 -0.5136  1.2301
  654MOL0     H86296   4.358   2.257   9.502  1.1065 -1.1542  0.6702
  654MOL0     H86297   4.414   2.346   9.640  0.2365  0.3339 -0.8742
  654MOL0     H86298   4.561   2.470   9.474 -0.6725  0.7016 -1.8846
  654MOL0     H86299   4.526   2.355   9.368 -3.0202  2.6741  0.6341
  654MOL0     H86300   4.625   2.260   9.641  2.7531  3.4398  0.5905
  654MOL0     H86301   4.618   2.181   9.476 -3.8324  1.6108 -0.0696
  654MOL0     H86302   4.846   2.224   9.578  0.8175  2.0462 -0.0553
  654MOL0     H86303   4.817   2.402   9.548  1.9969  0.0224 -0.0146
  654MOL0     H86304   4.933   2.380   9.357  2.0447 -3.0018 -4.6569
  654MOL0     H86305   4.764   2.366   9.316 -3.6325 -0.4854  2.6958
  654MOL0     H86306   4.951   2.129   9.341 -1.3963 -0.9835  1.5368
  654MOL0     H86307   4.786   2.118   9.291 -0.4427 -0.7430  0.6933
  654MOL0     H86308   4.973   2.140   9.110 -0.0164  0.4352 -0.7289
  654MOL0     H86309   4.995   2.311   9.168  3.2617 -3.0275 -0.0831
  654MOL0     H86310   4.174   2.717   9.433  0.4828  0.7389  0.5309
  654MOL0     H86311   3.942   2.789   9.390 -2.9498 -1.0947  0.1397
  654MOL0     H86312   3.571   2.821   9.342 -0.7246 -2.7600 -0.4230
  654MOL0     H86313   3.362   2.940   9.328 -4.5110 -1.9402  0.2834
  654MOL0     H86314   2.924   2.717   8.428  3.3809  1.8447 -1.3006
  654MOL0     H86315   3.132   2.664   8.426 -0.7396  2.3401 -0.4791
  654MOL0     H86316   3.463   2.434   8.793 -0.3502  0.6118  0.4328
  654MOL0     H86317   3.676   2.341   8.832  0.7098 -0.8038 -0.2939
  654MOL0     H86318   3.980   2.172   8.739 -1.0954  0.4140 -3.2752
  654MOL0     H86319   3.840   2.185   8.846  0.0874  1.8060  1.1967
  654MOL0     H86320   3.892   2.427   8.855 -2.9549 -2.4444 -1.0139
  654MOL0     H86321   3.995   2.316   8.949 -0.6556  2.1317  1.2221
  654MOL0     H86322   4.064   2.461   8.689 -0.4951  0.1703  0.4904
  654MOL0     H86323   4.163   2.326   8.768 -1.5125 -1.6254  3.8983
  654MOL0     H86324   4.201   2.462   8.956 -1.6098  0.1688  1.1043
  654MOL0     H86325   4.256   2.552   8.815 -0.4554 -1.8168 -1.8958
  654MOL0     H86326   3.955   2.786   9.007 -2.0863 -0.5655 -1.5031
  654MOL0     H86327   3.743   2.282   8.409  2.8417 -0.2106  1.2705
  654MOL0     H86328   3.523   2.399   8.358  1.6531 -0.0592 -0.4085
  655MOL0     O86329   0.833  10.087   9.951 -0.4389  0.0003 -0.3409
  655MOL0     C86330   0.787  10.073   9.839  0.6698 -0.1242  0.0919
  655MOL0     O86331   0.664  10.035   9.802  0.3403  0.5365  0.1148
  655MOL0     C86332   0.591   9.946   9.882 -0.6184  0.5263  0.7024
  655MOL0     C86333   0.459   9.980   9.879  0.2445  0.1209 -0.7174
  655MOL0     C86334   0.367   9.913   9.966 -0.0677 -0.3379 -1.3570
  655MOL0     C86335   0.411   9.813  10.060 -0.1539  0.2773 -0.0743
  655MOL0     O86336   0.337   9.759  10.161 -0.3162 -0.2736  0.8440
  655MOL0     C86337   0.338   9.621  10.178  0.3151  0.1770 -1.4008
  655MOL0     C86338   0.214   9.571  10.251  0.3130  0.3775 -0.5990
  655MOL0     C86339   0.083   9.607  10.184 -0.0421 -0.1091  0.3429
  655MOL0     C86340  -0.045   9.595  10.269 -1.1535  0.0860 -0.2713
  655MOL0     C86341  -0.173   9.632  10.184 -0.5438 -0.2506  0.0498
  655MOL0     C86342  -0.298   9.634  10.279 -0.1134  0.8777  0.3991
  655MOL0     C86343  -0.436   9.663  10.218  0.4060 -0.9719  0.6676
  655MOL0     C86344  -0.546   9.686  10.324 -0.1502  0.0408 -0.1716
  655MOL0     N86345  -0.676   9.674  10.256 -0.1457 -0.7705  0.0926
  655MOL0     C86346  -0.777   9.589  10.291  0.3970  0.2810 -1.2027
  655MOL0     C86347  -0.892   9.622  10.224  0.0973  0.1597 -0.6028
  655MOL0     C86348  -1.023   9.548  10.216 -1.4837 -0.3395 -0.5024
  655MOL0     C86349  -1.105   9.567  10.350 -0.6783  0.2293 -0.1861
  655MOL0     C86350  -1.223   9.477  10.345 -0.7749 -0.3273  0.2907
  655MOL0     C86351  -1.356   9.545  10.324  0.1577  0.3963 -0.1292
  655MOL0     O86352  -1.472   9.456  10.344 -0.1899  0.8120  0.2643
  655MOL0     C86353  -1.580   9.452  10.260  1.1320 -0.0123 -1.4115
  655MOL0     C86354  -1.605   9.544  10.159  0.6233 -0.2498 -0.1731
  655MOL0     C86355  -1.726   9.539  10.076  0.2565  0.1959  0.1196
  655MOL0     C86356  -1.826   9.449  10.110 -0.0615 -0.3500 -0.3933
  655MOL0     C86357  -1.956   9.448  10.051  1.0541  0.5365 -0.1713
  655MOL0     O86358  -2.052   9.383  10.118  0.1100 -0.5366  0.3581
  655MOL0     C86359  -2.177   9.346  10.067 -0.3368 -0.2807  0.5579
  655MOL0     C86360  -2.194   9.310   9.937  0.8263 -0.6561 -0.1719
  655MOL0     C86361  -2.319   9.262   9.891 -0.3091 -0.4432  0.3534
  655MOL0     C86362  -2.430   9.254   9.969 -0.2917  0.5818  0.1871
  655MOL0     O86363  -2.551   9.221   9.909 -0.4807 -0.3954 -0.2970
  655MOL0     C86364  -2.665   9.248   9.989  0.7236 -0.5767 -0.9783
  655MOL0     C86365  -2.790   9.248   9.888  0.6284 -0.0486 -0.2837
  655MOL0     C86366  -2.920   9.304   9.943  0.1474  0.4527  0.2128
  655MOL0     C86367  -3.031   9.289   9.843  0.3411  0.6142 -0.5398
  655MOL0     C86368  -3.152   9.369   9.891  0.2813 -0.3165  0.0593
  655MOL0     C86369  -3.283   9.341   9.802  0.4394  0.0061 -0.3511
  655MOL0     C86370  -3.400   9.407   9.858  0.6059 -0.0370  0.1965
  655MOL0     C86371  -3.510   9.406   9.763  0.5606 -0.0895 -0.2851
  655MOL0    Cl86372  -3.661   9.489   9.823 -0.3359  0.1588 -0.1313
  655MOL0     C86373  -2.404   9.279  10.105  0.0986 -0.6098 -0.5370
  655MOL0     C86374  -2.282   9.330  10.155  0.1069  0.4549  0.8936
  655MOL0     O86375  -1.975   9.521   9.949  0.3995  0.1372  0.0687
  655MOL0     C86376  -1.796   9.354  10.209  0.5334  0.8784  0.3237
  655MOL0     C86377  -1.679   9.356  10.289  0.6788  0.1998 -0.1026
  655MOL0     N86378  -0.859   9.734  10.149 -0.2471 -0.2904  0.0614
  655MOL0     N86379  -0.736   9.761  10.168  0.0887 -0.8321  0.4441
  655MOL0     C86380   0.539   9.772  10.045 -0.3562  0.1403 -0.5369
  655MOL0     C86381   0.637   9.835   9.962 -0.0716  0.6838  0.1029
  655MOL0     C86382   0.892  10.072   9.731 -0.2306 -0.0600 -0.6504
  655MOL0     C86383   0.856  10.065   9.590 -0.0501  1.4914  0.3513
  655MOL0     C86384   0.950  10.085   9.490 -0.3791 -0.1252  0.5620
  655MOL0     C86385   1.081  10.122   9.515 -0.2036 -0.5063  0.5838
  655MOL0     O86386   1.168  10.158   9.422 -0.2033  0.1148  0.6993
  655MOL0     C86387   1.291  10.092   9.405 -0.0540  0.0661  0.3016
  655MOL0     C86388   1.397  10.205   9.424 -0.0444  0.0653 -0.3730
  655MOL0     C86389   1.434  10.265   9.287  0.0150  0.9013 -0.3201
  655MOL0     C86390   1.535  10.384   9.299  0.1135 -0.0729 -0.4408
  655MOL0     C86391   1.559  10.436   9.164  0.1674 -0.3216  0.1499
  655MOL0     C86392   1.564  10.494   9.052 -0.6056  0.2393 -0.5673
  655MOL0     C86393   1.122  10.119   9.651 -0.4816 -0.1179  0.2949
  655MOL0     C86394   1.028  10.093   9.756 -0.3096 -0.9551  0.0741
  655MOL0     H86395   0.431  10.070   9.824  1.7267  0.9043 -0.2249
  655MOL0     H86396   0.267   9.947   9.991  1.4427  2.5432  1.4537
  655MOL0     H86397   0.423   9.602  10.244 -0.8753  3.4171  1.3292
  655MOL0     H86398   0.368   9.568  10.087  1.5697 -1.1352 -0.2913
  655MOL0     H86399   0.206   9.595  10.357 -0.7187 -2.0935 -0.0623
  655MOL0     H86400   0.225   9.463  10.254  0.0501  0.3091 -1.7385
  655MOL0     H86401   0.078   9.545  10.095 -0.6605 -1.1682  1.0912
  655MOL0     H86402   0.099   9.706  10.142  1.6881 -1.7158 -3.1890
  655MOL0     H86403  -0.062   9.502  10.324 -0.3639  0.1882  0.1552
  655MOL0     H86404  -0.027   9.663  10.353 -0.9360 -1.6694  1.1422
  655MOL0     H86405  -0.178   9.559  10.103 -0.8479 -2.1946  1.7493
  655MOL0     H86406  -0.166   9.734  10.145  0.4489 -0.1814  0.3738
  655MOL0     H86407  -0.273   9.721  10.341  3.1616 -2.0695  3.7308
  655MOL0     H86408  -0.310   9.551  10.349 -0.5136  0.0948 -0.5730
  655MOL0     H86409  -0.433   9.749  10.150  0.5077  0.6219  2.6125
  655MOL0     H86410  -0.471   9.586  10.148 -1.0923  1.4032 -1.3564
  655MOL0     H86411  -0.532   9.787  10.365 -0.5265 -1.0552  2.9862
  655MOL0     H86412  -0.536   9.616  10.408  2.3518 -1.2445 -1.4307
  655MOL0     H86413  -0.758   9.508  10.360  0.7782  1.8704  0.6431
  655MOL0     H86414  -0.993   9.451  10.175 -1.2582 -0.6908  0.4763
  655MOL0     H86415  -1.083   9.598  10.139  0.5809 -0.6456 -2.4476
  655MOL0     H86416  -1.137   9.671  10.361 -0.1279  0.3718  0.1650
  655MOL0     H86417  -1.047   9.549  10.441 -1.5833 -3.2742 -0.1518
  655MOL0     H86418  -1.209   9.395  10.273  0.6504 -1.2659  1.5764
  655MOL0     H86419  -1.214   9.420  10.438 -0.4929  0.9099  1.0393
  655MOL0     H86420  -1.357   9.595  10.226  0.4859  1.5471  0.4263
  655MOL0     H86421  -1.369   9.623  10.400  2.0381  1.9504 -1.2861
  655MOL0     H86422  -1.537   9.624  10.133 -0.2633  1.3393  2.0550
  655MOL0     H86423  -1.724   9.605   9.990  3.4371  1.0015  0.6743
  655MOL0     H86424  -2.113   9.334   9.869 -0.2965 -1.4280 -1.8575
  655MOL0     H86425  -2.330   9.251   9.784  2.7667  0.5791 -0.1633
  655MOL0     H86426  -2.663   9.344  10.041 -1.8689 -1.0921  0.2309
  655MOL0     H86427  -2.685   9.167  10.060 -3.1819 -1.2817 -2.5902
  655MOL0     H86428  -2.803   9.140   9.884  2.1700 -0.4262  2.4556
  655MOL0     H86429  -2.763   9.296   9.794  2.7118 -2.2547 -0.8879
  655MOL0     H86430  -2.907   9.411   9.965 -1.1590  0.3747  1.5233
  655MOL0     H86431  -2.937   9.256  10.040  0.8380  1.2103  0.7276
  655MOL0     H86432  -2.993   9.323   9.746 -0.2113 -1.5136 -1.5492
  655MOL0     H86433  -3.057   9.183   9.836  2.4286 -0.0720  1.1160
  655MOL0     H86434  -3.122   9.474   9.891 -2.2462  0.4962  0.9697
  655MOL0     H86435  -3.189   9.356   9.993  1.3883  1.3080  0.7008
  655MOL0     H86436  -3.301   9.235   9.784 -1.0065  0.0831  0.5038
  655MOL0     H86437  -3.250   9.385   9.707 -2.7922  0.7027 -1.2662
  655MOL0     H86438  -3.424   9.355   9.951 -1.1956  1.4632  0.6266
  655MOL0     H86439  -3.378   9.511   9.882 -0.3461 -0.0483  1.1982
  655MOL0     H86440  -3.536   9.304   9.730  3.5036 -1.2751  0.7691
  655MOL0     H86441  -3.480   9.456   9.671 -0.1516  2.0091  0.5754
  655MOL0     H86442  -2.485   9.258  10.175 -1.4377 -0.5929 -2.2270
  655MOL0     H86443  -2.262   9.354  10.259  0.4459 -0.1608  0.9770
  655MOL0     H86444  -1.866   9.275  10.233  0.7944  0.3640 -0.5783
  655MOL0     H86445  -1.653   9.289  10.370  0.4233 -0.5679 -0.6451
  655MOL0     H86446   0.582   9.706  10.119 -0.3798  0.9125  0.1744
  655MOL0     H86447   0.740   9.802   9.967 -1.1108 -3.0186 -0.3783
  655MOL0     H86448   0.753  10.051   9.559  0.5440 -0.8197 -0.7604
  655MOL0     H86449   0.921  10.094   9.386  2.0928  1.8020 -0.0544
  655MOL0     H86450   1.287  10.046   9.306  0.8722 -1.0618  0.7624
  655MOL0     H86451   1.303  10.020   9.487  0.6531 -1.0991 -0.8020
  655MOL0     H86452   1.369  10.286   9.492  2.5090  2.7957 -2.2714
  655MOL0     H86453   1.491  10.166   9.464  0.0266  0.3096 -0.2982
  655MOL0     H86454   1.338  10.298   9.246 -1.9874 -2.0879  1.5381
  655MOL0     H86455   1.476  10.180   9.234 -2.5852 -1.7394  1.4915
  655MOL0     H86456   1.503  10.467   9.363  1.0016 -0.7725  0.9595
  655MOL0     H86457   1.634  10.356   9.338  1.3347  0.8495 -2.6745
  655MOL0     H86458   1.576  10.535   8.954  0.7465  2.2469  0.3603
  655MOL0     H86459   1.223  10.151   9.673 -0.1539 -1.9957  1.7421
  655MOL0     H86460   1.071  10.102   9.856  0.4020 -2.1175 -0.1121
  656MOL0     O86461   8.311   1.923   9.443  0.2161 -0.1461 -0.3578
  656MOL0     C86462   8.357   1.876   9.338 -0.3817  1.9654 -0.2850
  656MOL0     O86463   8.288   1.826   9.229  0.1599 -0.2801 -0.7286
  656MOL0     C86464   8.151   1.830   9.220  0.3438 -0.5677 -0.0807
  656MOL0     C86465   8.060   1.902   9.307 -0.3027 -0.1197 -0.5748
  656MOL0     C86466   7.916   1.889   9.297  0.2421  0.0947 -0.1154
  656MOL0     C86467   7.872   1.805   9.187  0.1953 -0.6267  0.2679
  656MOL0     O86468   7.743   1.779   9.164  0.4007 -0.3333  0.2174
  656MOL0     C86469   7.644   1.865   9.228  0.6169 -0.3024 -0.0984
  656MOL0     C86470   7.513   1.812   9.180  1.2242  0.0284  0.0860
  656MOL0     C86471   7.397   1.874   9.266 -0.0811  0.2078  0.6301
  656MOL0     C86472   7.259   1.815   9.233 -0.4786  0.0105  0.2156
  656MOL0     C86473   7.147   1.868   9.319  0.3787  0.2625 -0.3879
  656MOL0     C86474   7.023   1.895   9.248  0.3668  0.3336  0.1086
  656MOL0     C86475   6.970   1.767   9.190  0.7824  0.7404  0.4353
  656MOL0     C86476   6.818   1.780   9.173 -0.1745  0.5522 -0.4481
  656MOL0     N86477   6.745   1.800   9.307 -0.2630 -0.0847  0.7636
  656MOL0     C86478   6.756   1.710   9.414 -0.6790 -0.4676  0.1568
  656MOL0     C86479   6.697   1.763   9.518 -0.5035  0.2237  0.7848
  656MOL0     C86480   6.703   1.701   9.650  0.2426  0.2371  1.0553
  656MOL0     C86481   6.570   1.666   9.724 -0.1782  0.0653  0.2637
  656MOL0     C86482   6.496   1.558   9.654 -0.4920  0.3895 -0.0061
  656MOL0     C86483   6.362   1.522   9.724 -0.9086 -0.2449  0.0222
  656MOL0     O86484   6.255   1.616   9.702  0.0834  0.2618 -0.8427
  656MOL0     C86485   6.127   1.572   9.720 -0.5194  0.3766 -0.0658
  656MOL0     C86486   6.023   1.650   9.683 -0.0829 -0.0474 -0.1907
  656MOL0     C86487   5.889   1.617   9.699 -0.5619  0.2455 -0.1929
  656MOL0     C86488   5.864   1.498   9.766  0.6269  1.1882 -0.7127
  656MOL0     C86489   5.728   1.446   9.778 -0.1888 -0.5846 -0.4695
  656MOL0     O86490   5.708   1.325   9.829  0.0404 -0.1568  0.0530
  656MOL0     C86491   5.581   1.281   9.859  0.3191 -0.2539 -0.0467
  656MOL0     C86492   5.481   1.260   9.757 -0.5266  0.1015  0.6567
  656MOL0     C86493   5.363   1.207   9.802 -0.1112  0.2064 -0.3852
  656MOL0     C86494   5.340   1.165   9.935 -0.4820 -0.0257  0.5129
  656MOL0     O86495   5.222   1.105   9.962 -0.2479  0.2061  1.0381
  656MOL0     C86496   5.168   1.129  10.086  0.2701  0.4756  0.3014
  656MOL0     C86497   5.190   0.999  10.168  0.1452 -0.6364 -0.9327
  656MOL0     C86498   5.135   1.018  10.314 -0.5608  0.5988  0.5378
  656MOL0     C86499   5.123   0.893  10.408 -0.0532  0.8106 -0.1818
  656MOL0     C86500   5.107   0.942  10.560  0.0880 -0.1235 -1.3500
  656MOL0     C86501   5.087   0.829  10.661 -0.5215 -0.2157 -0.0834
  656MOL0     C86502   5.066   0.878  10.803  0.9348  0.6660  1.1381
  656MOL0     C86503   4.932   0.942  10.824  0.5151 -0.4519 -0.2026
  656MOL0    Cl86504   4.794   0.817  10.808 -0.4024  0.2408  0.3068
  656MOL0     C86505   5.437   1.190  10.029  0.4442 -0.9909  0.7797
  656MOL0     C86506   5.557   1.250   9.995 -0.0414  0.4859  0.3866
  656MOL0     O86507   5.646   1.534   9.752 -1.8346  0.0351 -0.5956
  656MOL0     C86508   5.961   1.417   9.821 -1.0512  0.2602  0.0776
  656MOL0     C86509   6.096   1.457   9.794 -0.3538  0.6862  0.7048
  656MOL0     N86510   6.643   1.878   9.471  1.0722 -0.6972 -0.6617
  656MOL0     N86511   6.665   1.899   9.348 -0.0315  0.8237  0.0288
  656MOL0     C86512   7.964   1.751   9.096 -1.1305  0.9857 -0.1000
  656MOL0     C86513   8.101   1.749   9.119 -0.9615 -0.3188  0.3506
  656MOL0     C86514   8.509   1.893   9.331  0.3797 -0.1837  0.6093
  656MOL0     C86515   8.586   1.941   9.445  0.0140  0.4066 -1.0447
  656MOL0     C86516   8.720   1.960   9.454 -0.1258 -1.0877  0.3188
  656MOL0     C86517   8.797   1.923   9.341  0.7908  1.0340  0.6850
  656MOL0     O86518   8.932   1.931   9.357  0.4210  0.0891 -0.3803
  656MOL0     C86519   9.020   1.888   9.253  0.6620 -0.2454 -0.0381
  656MOL0     C86520   9.154   1.855   9.305 -0.4858  1.2478  0.0379
  656MOL0     C86521   9.206   1.957   9.400 -0.1786 -0.7697 -0.1656
  656MOL0     C86522   9.363   1.975   9.409  0.7221  0.1713 -0.3008
  656MOL0     C86523   9.401   2.088   9.494  0.1254 -0.3969  0.1415
  656MOL0     C86524   9.429   2.172   9.575 -0.4407 -0.0645  0.3118
  656MOL0     C86525   8.723   1.891   9.215 -0.3531 -0.2142 -0.3543
  656MOL0     C86526   8.585   1.877   9.211  0.7839  0.2268  0.1176
  656MOL0     H86527   8.084   1.966   9.392 -0.5199  0.7673 -1.1701
  656MOL0     H86528   7.846   1.927   9.370  2.0534 -1.5675  2.6781
  656MOL0     H86529   7.661   1.968   9.197 -0.7623 -0.3187 -0.9480
  656MOL0     H86530   7.664   1.863   9.336  0.0340 -2.4754  0.0188
  656MOL0     H86531   7.512   1.703   9.184 -0.4135 -0.0491 -1.1605
  656MOL0     H86532   7.506   1.842   9.075 -0.1680  1.1330  0.4502
  656MOL0     H86533   7.401   1.983   9.256  3.7825  0.3503  1.9439
  656MOL0     H86534   7.417   1.844   9.369 -0.9739 -1.3199  0.3837
  656MOL0     H86535   7.235   1.832   9.128 -1.2744  0.2915  0.4391
  656MOL0     H86536   7.262   1.706   9.242  3.1762 -0.1109 -0.6273
  656MOL0     H86537   7.192   1.962   9.352 -0.1038 -0.2159  1.7753
  656MOL0     H86538   7.133   1.812   9.412  1.6023  1.7768  0.7642
  656MOL0     H86539   7.042   1.968   9.170  1.2282  1.3756  1.2635
  656MOL0     H86540   6.953   1.933   9.324 -0.8245 -0.0517 -0.7635
  656MOL0     H86541   7.015   1.755   9.092 -1.5336  0.1224 -0.6107
  656MOL0     H86542   6.983   1.684   9.260  1.0277  0.7656  0.4218
  656MOL0     H86543   6.773   1.692   9.126 -2.1878  1.9383 -1.2667
  656MOL0     H86544   6.785   1.867   9.116 -2.9515 -0.1369 -0.0596
  656MOL0     H86545   6.808   1.615   9.422  1.1860  0.6618  3.2647
  656MOL0     H86546   6.761   1.776   9.704  2.3680 -1.3905  1.1301
  656MOL0     H86547   6.764   1.611   9.646  1.0066  0.7643 -2.2444
  656MOL0     H86548   6.509   1.757   9.717 -1.2493 -0.0465  5.0656
  656MOL0     H86549   6.588   1.638   9.828 -1.2565 -1.8533 -0.0249
  656MOL0     H86550   6.477   1.591   9.551 -0.3173  0.1361 -0.1228
  656MOL0     H86551   6.554   1.465   9.650 -1.7372 -0.4148  0.1544
  656MOL0     H86552   6.373   1.514   9.832  0.4234  1.7506  0.1045
  656MOL0     H86553   6.340   1.419   9.694  1.3237 -1.6795  2.8701
  656MOL0     H86554   6.030   1.748   9.637 -2.5208  0.6793  0.8577
  656MOL0     H86555   5.814   1.686   9.664 -1.9650 -0.5625  1.1299
  656MOL0     H86556   5.504   1.278   9.652  0.2650 -1.6786  0.4798
  656MOL0     H86557   5.291   1.187   9.724 -0.1434  1.5917 -0.7379
  656MOL0     H86558   5.060   1.131  10.070  0.1299 -1.3992  0.7449
  656MOL0     H86559   5.191   1.222  10.139 -2.7364  0.9720  0.8768
  656MOL0     H86560   5.295   0.971  10.166  0.8065  1.6254 -1.1844
  656MOL0     H86561   5.140   0.919  10.114  2.3436 -1.0331 -2.5171
  656MOL0     H86562   5.037   1.068  10.310 -0.7881  0.3058  1.9762
  656MOL0     H86563   5.209   1.081  10.363  4.0380 -2.6076 -1.6165
  656MOL0     H86564   5.041   0.827  10.377  0.8787 -0.2992 -0.3941
  656MOL0     H86565   5.208   0.824  10.394  0.2890  0.5587  2.6634
  656MOL0     H86566   5.024   1.013  10.553  0.8205  0.7594 -1.4012
  656MOL0     H86567   5.201   0.992  10.587  0.7396 -2.7697  1.9050
  656MOL0     H86568   5.181   0.775  10.673 -0.8235 -0.1539  3.7141
  656MOL0     H86569   5.004   0.765  10.630 -1.1989 -0.7758  2.6359
  656MOL0     H86570   5.071   0.793  10.871  0.1713  0.4765  0.9598
  656MOL0     H86571   5.144   0.950  10.831  1.5553  1.1898 -1.6142
  656MOL0     H86572   4.913   1.027  10.758 -4.1843 -0.1020  1.2380
  656MOL0     H86573   4.928   0.972  10.929 -2.2910 -3.9308  0.8947
  656MOL0     H86574   5.430   1.159  10.133 -0.3275 -2.4672  0.3192
  656MOL0     H86575   5.636   1.248  10.069  1.2208  1.1654 -0.8861
  656MOL0     H86576   5.955   1.323   9.876  1.1486  0.1522  0.2336
  656MOL0     H86577   6.182   1.401   9.829  0.3616  1.6091  0.4277
  656MOL0     H86578   7.935   1.694   9.008  0.7560  2.4848 -1.7924
  656MOL0     H86579   8.173   1.710   9.048 -0.3255 -0.3562  0.9973
  656MOL0     H86580   8.538   1.960   9.540  0.9262  0.1071 -0.5190
  656MOL0     H86581   8.783   1.990   9.537  4.2619  1.0197 -3.3076
  656MOL0     H86582   9.020   1.982   9.197 -2.2118 -0.7112 -0.9738
  656MOL0     H86583   8.983   1.806   9.192  1.1370  0.0005 -0.6637
  656MOL0     H86584   9.154   1.762   9.362 -1.5827 -0.4458 -2.5451
  656MOL0     H86585   9.216   1.839   9.216  0.8003 -2.6364  1.4478
  656MOL0     H86586   9.175   1.929   9.501 -0.2070  2.2398  0.7599
  656MOL0     H86587   9.164   2.054   9.370  2.1229  0.7727  1.2040
  656MOL0     H86588   9.407   1.883   9.449 -1.1176 -0.2082  1.0136
  656MOL0     H86589   9.411   1.978   9.311  1.0223 -0.7480 -0.1894
  656MOL0     H86590   9.441   2.233   9.663 -1.1179 -0.8144  0.9433
  656MOL0     H86591   8.778   1.877   9.123  0.2881 -0.7598  0.1118
  656MOL0     H86592   8.525   1.855   9.123  0.6425 -1.1520  0.5386
  657MOL0     O86593   5.741  10.114   4.820  0.4292  0.2129 -1.2003
  657MOL0     C86594   5.795  10.011   4.860 -0.0347 -0.1515  0.7022
  657MOL0     O86595   5.726   9.893   4.892  0.9557 -0.4167  0.3960
  657MOL0     C86596   5.589   9.883   4.918 -0.7397  0.4319  0.2007
  657MOL0     C86597   5.546   9.752   4.935 -0.5099  0.7691 -0.6024
  657MOL0     C86598   5.405   9.719   4.948 -0.5392  0.1107 -0.3907
  657MOL0     C86599   5.311   9.825   4.957  0.4758  0.1058  0.4498
  657MOL0     O86600   5.174   9.801   4.983  0.0857 -0.8214 -0.0459
  657MOL0     C86601   5.125   9.665   4.983  0.0051 -0.0743 -0.1666
  657MOL0     C86602   4.982   9.670   5.052 -0.6884  0.5908  0.2121
  657MOL0     C86603   4.878   9.772   5.006 -0.1627  0.2304  0.1934
  657MOL0     C86604   4.818   9.740   4.872 -0.8107  0.1016  0.1906
  657MOL0     C86605   4.707   9.848   4.854 -1.0367 -0.4108 -0.5813
  657MOL0     C86606   4.625   9.814   4.735 -0.6339 -0.5856 -0.3002
  657MOL0     C86607   4.503   9.903   4.717 -0.2861  0.1526 -0.2013
  657MOL0     C86608   4.396   9.842   4.624  0.4379 -0.2271  0.1170
  657MOL0     N86609   4.459   9.844   4.496 -0.2573  0.6085  0.5755
  657MOL0     C86610   4.537   9.748   4.434 -0.5678 -0.4583  0.0340
  657MOL0     C86611   4.548   9.803   4.306  0.4028  0.9658  0.0681
  657MOL0     C86612   4.616   9.745   4.193 -0.7867 -0.8395 -0.0945
  657MOL0     C86613   4.524   9.648   4.111 -0.0191  0.1761  0.2913
  657MOL0     C86614   4.398   9.720   4.056 -0.1693  0.2746 -0.9740
  657MOL0     C86615   4.277   9.700   4.151  0.1973 -0.3171  0.5591
  657MOL0     O86616   4.160   9.761   4.082  0.0746  0.8339  0.0677
  657MOL0     C86617   4.033   9.719   4.094 -0.5329 -0.3999 -1.3105
  657MOL0     C86618   3.934   9.764   4.001  0.8444 -0.0003  0.3154
  657MOL0     C86619   3.801   9.722   4.017 -0.5143  0.2956  0.8645
  657MOL0     C86620   3.760   9.645   4.121  0.0869  0.2469 -0.5236
  657MOL0     C86621   3.616   9.605   4.132 -1.1985 -0.3093  0.9056
  657MOL0     O86622   3.563   9.592   4.258  0.9056  0.6033  0.3838
  657MOL0     C86623   3.424   9.563   4.262 -0.7891  0.2216 -0.7940
  657MOL0     C86624   3.381   9.428   4.263  0.4751  0.5042  0.3789
  657MOL0     C86625   3.244   9.403   4.272 -0.7463 -0.1009  0.9456
  657MOL0     C86626   3.155   9.513   4.279  0.3120  0.2100 -0.3203
  657MOL0     O86627   3.024   9.478   4.299  0.4889 -0.5707  0.0225
  657MOL0     C86628   2.927   9.581   4.340  0.9200  0.3912  0.4717
  657MOL0     C86629   2.787   9.516   4.351  0.1682  0.2371  0.4336
  657MOL0     C86630   2.675   9.613   4.349 -0.2449  0.1610 -0.6668
  657MOL0     C86631   2.553   9.563   4.425  0.4752  0.1730 -0.4676
  657MOL0     C86632   2.427   9.649   4.410  0.6333 -0.0617 -0.7092
  657MOL0     C86633   2.314   9.585   4.490  0.3171  1.0573 -0.1713
  657MOL0     C86634   2.187   9.663   4.489 -0.4471 -0.5155 -0.0407
  657MOL0     C86635   2.088   9.599   4.591 -0.2468 -0.0255  0.3560
  657MOL0    Cl86636   2.134   9.629   4.763  0.1752 -0.2428 -0.2709
  657MOL0     C86637   3.207   9.637   4.287 -0.3313  0.5153 -0.2083
  657MOL0     C86638   3.336   9.668   4.278  0.7326  0.0456  0.7549
  657MOL0     O86639   3.549   9.609   4.026  0.5378  0.5111 -0.9243
  657MOL0     C86640   3.858   9.590   4.206  0.0338 -0.5459 -0.3923
  657MOL0     C86641   3.991   9.639   4.194 -0.3182  0.1099 -0.3330
  657MOL0     N86642   4.479   9.925   4.304 -0.1324  0.0684  0.0075
  657MOL0     N86643   4.423   9.941   4.409  0.1941  0.5882  0.3789
  657MOL0     C86644   5.361   9.951   4.947  0.4770 -0.9959 -0.5372
  657MOL0     C86645   5.493   9.985   4.926 -0.1446 -0.4873 -1.0189
  657MOL0     C86646   5.945  10.011   4.863 -0.1916  0.4669 -0.2590
  657MOL0     C86647   6.017   9.895   4.898 -0.5627  0.3733  1.0159
  657MOL0     C86648   6.162   9.899   4.897  0.5266  0.0940 -0.6937
  657MOL0     C86649   6.231  10.007   4.862 -0.2038 -1.0402 -0.1653
  657MOL0     O86650   6.369  10.003   4.853  0.0914  0.1714  0.1031
  657MOL0     C86651   6.415   9.969   4.717  0.0944  0.0005  0.0887
  657MOL0     C86652   6.462   9.823   4.737  0.6060  0.4261  0.0724
  657MOL0     C86653   6.566   9.798   4.834  0.9614 -0.2035  1.4140
  657MOL0     C86654   6.664   9.910   4.875  0.3777  0.5006 -0.6378
  657MOL0     C86655   6.768   9.945   4.783  0.5309 -0.2236 -0.4962
  657MOL0     C86656   6.855   9.976   4.696  0.0256  0.3325  0.0982
  657MOL0     C86657   6.158  10.125   4.823 -0.3015 -0.7074 -1.3121
  657MOL0     C86658   6.016  10.120   4.821 -0.0145 -0.0058 -0.1197
  657MOL0     H86659   5.617   9.671   4.935 -1.9816 -0.6160  1.1483
  657MOL0     H86660   5.380   9.614   4.953  1.2454 -0.3243  3.4611
  657MOL0     H86661   5.186   9.596   5.040 -0.7623 -1.7882 -1.3369
  657MOL0     H86662   5.110   9.628   4.881  0.4463  2.5193 -1.2707
  657MOL0     H86663   5.011   9.671   5.158  2.5483 -2.2032 -0.4471
  657MOL0     H86664   4.934   9.572   5.042  1.0982 -0.1564 -1.7614
  657MOL0     H86665   4.926   9.870   4.995  1.5582 -0.6053 -0.0846
  657MOL0     H86666   4.801   9.771   5.083  0.0215 -2.3532  0.4310
  657MOL0     H86667   4.883   9.746   4.784 -2.1067 -1.7800 -0.9677
  657MOL0     H86668   4.786   9.636   4.884  0.2707 -0.0679  2.0036
  657MOL0     H86669   4.762   9.942   4.841 -0.9841 -0.3541  0.0318
  657MOL0     H86670   4.649   9.858   4.946  1.2363  3.0741  0.6809
  657MOL0     H86671   4.604   9.707   4.736 -0.7889 -0.6237 -2.2572
  657MOL0     H86672   4.690   9.854   4.656 -2.2267  2.1551 -0.3453
  657MOL0     H86673   4.462   9.904   4.818  0.3305  1.1511  0.0615
  657MOL0     H86674   4.521  10.008   4.690 -0.4959  0.3313  0.3350
  657MOL0     H86675   4.309   9.908   4.632 -0.5855 -1.6615  1.1085
  657MOL0     H86676   4.368   9.743   4.661  1.5639 -0.2499  0.9928
  657MOL0     H86677   4.585   9.656   4.465  3.3233  0.1583 -3.2358
  657MOL0     H86678   4.707   9.695   4.229  1.0466  3.7181  2.5876
  657MOL0     H86679   4.642   9.824   4.122 -1.7078 -0.6739 -0.2528
  657MOL0     H86680   4.501   9.554   4.163  0.1592 -0.0422 -0.0258
  657MOL0     H86681   4.595   9.617   4.034 -1.1690 -0.7502 -0.4218
  657MOL0     H86682   4.419   9.826   4.035  1.3327  0.5070  1.4159
  657MOL0     H86683   4.367   9.673   3.962 -0.5423  1.3978 -1.4424
  657MOL0     H86684   4.282   9.756   4.244  0.0288 -1.5997  1.3634
  657MOL0     H86685   4.259   9.592   4.159 -1.8085  0.1067  3.2182
  657MOL0     H86686   3.973   9.824   3.919 -1.1177  2.7566  1.2410
  657MOL0     H86687   3.734   9.765   3.943  0.2772  1.4418  0.7804
  657MOL0     H86688   3.450   9.347   4.239  1.0976  1.2624 -0.4429
  657MOL0     H86689   3.207   9.302   4.286 -2.0498  0.2777  0.3799
  657MOL0     H86690   2.920   9.647   4.253 -0.3453 -0.8025 -0.3724
  657MOL0     H86691   2.948   9.651   4.422  0.0558 -0.1934  1.2176
  657MOL0     H86692   2.787   9.460   4.444  2.5932 -1.6610 -0.5943
  657MOL0     H86693   2.772   9.440   4.273 -0.6489 -0.8652  1.6311
  657MOL0     H86694   2.646   9.623   4.244  3.4753  1.4532 -1.7344
  657MOL0     H86695   2.704   9.714   4.378  1.4667  0.0533 -1.8655
  657MOL0     H86696   2.531   9.461   4.393 -3.0112  0.8451 -0.6033
  657MOL0     H86697   2.587   9.564   4.529  1.2887 -0.8870 -0.7061
  657MOL0     H86698   2.394   9.638   4.306  0.3683 -0.1832 -0.6136
  657MOL0     H86699   2.457   9.748   4.443  3.5161 -1.1238  0.1019
  657MOL0     H86700   2.340   9.571   4.595 -2.4888 -2.2153  0.2963
  657MOL0     H86701   2.298   9.479   4.466  0.7890  0.6093  1.3667
  657MOL0     H86702   2.204   9.761   4.535 -1.0518 -1.6362  2.7842
  657MOL0     H86703   2.151   9.682   4.387 -1.5349 -0.0543  0.4089
  657MOL0     H86704   2.075   9.492   4.571 -2.2358  0.1712  0.3440
  657MOL0     H86705   1.992   9.651   4.577  0.7133  1.4469 -1.3357
  657MOL0     H86706   3.129   9.711   4.293 -1.2222 -0.5205  2.2204
  657MOL0     H86707   3.362   9.773   4.272 -1.2059  0.5083 -0.4398
  657MOL0     H86708   3.820   9.526   4.284  2.5299 -3.2066 -1.1934
  657MOL0     H86709   4.062   9.597   4.265 -1.3930 -1.8851 -0.3746
  657MOL0     H86710   5.282  10.025   4.944  0.3666 -1.0275  1.1010
  657MOL0     H86711   5.524  10.089   4.917  0.5896 -0.3228  2.2713
  657MOL0     H86712   5.969   9.802   4.926  0.9639 -0.6622  0.3066
  657MOL0     H86713   6.207   9.807   4.934 -1.7322 -0.2223  1.5526
  657MOL0     H86714   6.500  10.032   4.689 -0.6522  0.5468 -1.0010
  657MOL0     H86715   6.339   9.985   4.640 -1.4010 -4.6108  0.3195
  657MOL0     H86716   6.385   9.748   4.753  1.9727 -1.0723 -0.1389
  657MOL0     H86717   6.505   9.788   4.643 -0.8450 -1.9721  0.2219
  657MOL0     H86718   6.629   9.718   4.793  1.2761  2.1854 -3.5466
  657MOL0     H86719   6.513   9.764   4.923  2.3466 -2.8502  1.3464
  657MOL0     H86720   6.605   9.998   4.903 -2.0990  0.0500 -3.8596
  657MOL0     H86721   6.713   9.874   4.967  2.7208  0.5815 -1.7756
  657MOL0     H86722   6.932   9.994   4.623  1.1598 -4.1051 -0.0565
  657MOL0     H86723   6.223  10.205   4.787 -2.3983  2.0744  0.6431
  657MOL0     H86724   5.962  10.204   4.779 -1.0364 -0.5031  0.1784
  658MOL0     O86725   8.785   8.327   7.487  0.1909  0.1976 -0.7618
  658MOL0     C86726   8.842   8.222   7.456  0.4979 -0.8400  0.1558
  658MOL0     O86727   8.795   8.116   7.376 -0.0759 -0.1700 -0.8949
  658MOL0     C86728   8.664   8.103   7.354  0.3110  0.4109 -0.1401
  658MOL0     C86729   8.633   8.037   7.232 -0.0892  0.1102  0.5079
  658MOL0     C86730   8.493   8.022   7.193  0.3799 -0.4063 -0.7878
  658MOL0     C86731   8.392   8.074   7.269  0.2212 -0.1719  0.8251
  658MOL0     O86732   8.257   8.060   7.231  0.1925 -0.2503  0.2998
  658MOL0     C86733   8.211   8.170   7.142  0.9209 -0.8490 -0.0549
  658MOL0     C86734   8.085   8.136   7.064 -0.0745  0.3006  0.4426
  658MOL0     C86735   7.960   8.120   7.157 -0.3608  0.6568  0.1749
  658MOL0     C86736   7.843   8.072   7.069 -0.4307  0.5230 -0.2828
  658MOL0     C86737   7.705   8.065   7.146 -0.1189 -0.9549  0.2719
  658MOL0     C86738   7.605   7.984   7.061  0.4249  0.3182  0.6219
  658MOL0     C86739   7.453   8.000   7.104  0.0473 -0.5992 -0.6255
  658MOL0     C86740   7.365   7.903   7.031 -0.4546  0.0088  0.7330
  658MOL0     N86741   7.224   7.932   7.057  0.2395  0.1171 -0.5432
  658MOL0     C86742   7.159   7.891   7.169 -0.3975 -0.2894 -0.3223
  658MOL0     C86743   7.027   7.879   7.135 -0.1845  0.5303 -0.1996
  658MOL0     C86744   6.927   7.809   7.219 -0.0762  1.4279 -0.0804
  658MOL0     C86745   6.791   7.818   7.157 -0.0862 -0.3175  0.2183
  658MOL0     C86746   6.674   7.755   7.239 -1.0952 -1.1526 -0.3596
  658MOL0     C86747   6.521   7.787   7.204 -0.6063 -0.0561  0.1355
  658MOL0     O86748   6.499   7.925   7.209  0.5551 -0.3212 -0.4741
  658MOL0     C86749   6.363   7.961   7.210  0.5267 -0.4091  0.2504
  658MOL0     C86750   6.250   7.882   7.188 -0.1486 -0.1586  0.2710
  658MOL0     C86751   6.118   7.933   7.186  0.2071  0.0410 -0.5280
  658MOL0     C86752   6.092   8.073   7.200  1.0465  0.3884 -1.0214
  658MOL0     C86753   5.957   8.130   7.217  0.3334 -0.4396  0.3427
  658MOL0     O86754   5.859   8.057   7.266 -0.5316  0.2015  0.1801
  658MOL0     C86755   5.729   8.112   7.288 -0.2027 -0.5586  0.4221
  658MOL0     C86756   5.660   8.205   7.199  0.5703 -0.2752 -0.1585
  658MOL0     C86757   5.526   8.235   7.221  0.0754 -0.2176 -0.8201
  658MOL0     C86758   5.464   8.184   7.335  0.5366 -0.7611  0.2826
  658MOL0     O86759   5.330   8.203   7.346 -0.1043  0.0085  0.2895
  658MOL0     C86760   5.251   8.085   7.331 -0.7259 -0.3763 -0.9110
  658MOL0     C86761   5.105   8.104   7.280  0.1010 -0.6368  0.1777
  658MOL0     C86762   5.055   8.249   7.309  0.8566 -0.4996 -0.6262
  658MOL0     C86763   4.907   8.258   7.299 -0.2970  0.3596 -0.0190
  658MOL0     C86764   4.879   8.406   7.304 -0.4508  0.0066 -0.8356
  658MOL0     C86765   4.733   8.439   7.308  0.4669  0.0398 -0.4297
  658MOL0     C86766   4.654   8.431   7.167 -1.1424 -0.0152  0.2786
  658MOL0     C86767   4.509   8.473   7.187 -0.8197 -0.0058  0.5122
  658MOL0    Cl86768   4.404   8.364   7.095  0.4684  0.0745 -0.1853
  658MOL0     C86769   5.542   8.108   7.426  0.7087 -0.4895  0.0883
  658MOL0     C86770   5.669   8.074   7.406 -0.4802  0.0433  0.3418
  658MOL0     O86771   5.947   8.243   7.166  0.0626  1.1262  0.4447
  658MOL0     C86772   6.210   8.154   7.214 -0.2603 -0.1397 -0.4873
  658MOL0     C86773   6.341   8.101   7.214  1.0483  0.4679 -0.1218
  658MOL0     N86774   7.019   7.918   7.003  0.2281 -0.3902 -0.6483
  658MOL0     N86775   7.138   7.963   6.960  0.5222  0.0289  0.1392
  658MOL0     C86776   8.425   8.128   7.395 -0.1735 -1.0036 -0.0709
  658MOL0     C86777   8.557   8.142   7.435  0.2737 -1.4711  0.3359
  658MOL0     C86778   8.978   8.192   7.506 -0.3024  0.5480 -1.2548
  658MOL0     C86779   9.049   8.068   7.486  0.5008  0.2377 -0.8070
  658MOL0     C86780   9.182   8.050   7.525  0.1781  0.0326 -0.5267
  658MOL0     C86781   9.242   8.148   7.605 -0.4912  0.9637 -0.0573
  658MOL0     O86782   9.350   8.107   7.665  0.3223 -0.5599  0.6520
  658MOL0     C86783   9.468   8.201   7.649 -0.6188  0.4039 -0.0229
  658MOL0     C86784   9.529   8.209   7.783  0.0005  0.1025 -0.7248
  658MOL0     C86785   9.649   8.283   7.792  0.2713  0.3871 -0.6742
  658MOL0     C86786   9.636   8.426   7.760  0.8597  0.7697 -0.2782
  658MOL0     C86787   9.539   8.493   7.854  0.5332 -0.3751 -0.0592
  658MOL0     C86788   9.462   8.546   7.927 -1.3454  0.0559 -0.1688
  658MOL0     C86789   9.174   8.261   7.647  0.1827 -0.9811  0.1451
  658MOL0     C86790   9.049   8.288   7.584 -0.2190 -0.1233  0.6502
  658MOL0     H86791   8.712   8.001   7.168  0.2705 -0.2093  1.1263
  658MOL0     H86792   8.460   7.969   7.104 -2.2806  0.8492 -0.6533
  658MOL0     H86793   8.291   8.198   7.072  1.8779 -2.3126  0.4011
  658MOL0     H86794   8.193   8.260   7.202  0.9876 -0.3497 -0.7702
  658MOL0     H86795   8.098   8.046   7.003 -1.0634 -0.2665  1.0352
  658MOL0     H86796   8.062   8.224   7.004 -2.4979 -0.3135  0.3301
  658MOL0     H86797   7.930   8.202   7.223  2.4425  1.2260  0.8777
  658MOL0     H86798   7.997   8.046   7.229  1.3032  0.5711 -0.7078
  658MOL0     H86799   7.834   8.124   6.973 -0.0300  1.2232  0.0517
  658MOL0     H86800   7.878   7.972   7.042 -1.6238 -0.1284  0.5204
  658MOL0     H86801   7.671   8.164   7.178  0.9702 -1.1782  2.3643
  658MOL0     H86802   7.712   8.011   7.241  0.2988 -2.7506 -0.7260
  658MOL0     H86803   7.629   7.877   7.068  2.7359  0.7274 -0.4304
  658MOL0     H86804   7.616   8.014   6.956 -2.2655  1.6993  0.6403
  658MOL0     H86805   7.440   7.989   7.212  1.0077 -1.9266 -0.6288
  658MOL0     H86806   7.415   8.099   7.075 -3.2916 -1.4033  0.5608
  658MOL0     H86807   7.397   7.802   7.058 -3.5730 -1.5495 -0.8749
  658MOL0     H86808   7.381   7.893   6.924 -0.4137 -2.7300  0.9151
  658MOL0     H86809   7.205   7.849   7.258 -0.5061  1.8525  0.8038
  658MOL0     H86810   6.927   7.838   7.325  1.0802 -4.5623  1.9062
  658MOL0     H86811   6.955   7.704   7.221 -1.4137  1.0485  1.9953
  658MOL0     H86812   6.805   7.777   7.056  0.7422 -1.6584  0.8492
  658MOL0     H86813   6.760   7.922   7.144  2.1609  0.3968  0.2127
  658MOL0     H86814   6.705   7.651   7.250  2.0807 -0.7550 -3.7400
  658MOL0     H86815   6.685   7.790   7.342 -1.7798  0.0298 -0.6599
  658MOL0     H86816   6.462   7.719   7.267  0.4423 -0.3836  0.7924
  658MOL0     H86817   6.501   7.752   7.103  0.6311 -0.1783 -0.0769
  658MOL0     H86818   6.273   7.780   7.162 -1.0705 -0.0559 -1.0731
  658MOL0     H86819   6.031   7.869   7.170 -0.0085 -0.1945  1.2968
  658MOL0     H86820   5.703   8.233   7.104  0.5706 -0.7028 -0.2879
  658MOL0     H86821   5.459   8.288   7.153 -1.8394 -2.5241 -0.8400
  658MOL0     H86822   5.238   8.048   7.433  0.8094  0.0669 -0.5394
  658MOL0     H86823   5.303   8.011   7.270  0.2657 -0.7534  0.3516
  658MOL0     H86824   5.041   8.025   7.320 -0.5643 -0.6166 -0.8029
  658MOL0     H86825   5.107   8.099   7.170 -1.9926  0.2630  0.0572
  658MOL0     H86826   5.104   8.317   7.238 -0.1205  1.7990  0.7926
  658MOL0     H86827   5.097   8.283   7.404  3.0937 -0.0550 -1.6994
  658MOL0     H86828   4.868   8.218   7.205 -0.0715  1.0032 -0.3928
  658MOL0     H86829   4.854   8.199   7.374  1.2404 -1.3402 -0.1710
  658MOL0     H86830   4.928   8.457   7.221  3.3102 -1.2187  0.4262
  658MOL0     H86831   4.926   8.451   7.392 -0.9781  3.3125 -2.1109
  658MOL0     H86832   4.719   8.543   7.340 -0.9196  0.3252 -1.7922
  658MOL0     H86833   4.694   8.366   7.379 -0.0848  0.7057 -0.0327
  658MOL0     H86834   4.711   8.490   7.094 -0.2483 -1.1018  0.0722
  658MOL0     H86835   4.672   8.327   7.138  3.0301  0.0263  2.0343
  658MOL0     H86836   4.489   8.580   7.168 -2.0519 -0.4377 -0.8583
  658MOL0     H86837   4.489   8.466   7.294 -0.3477  0.8651  0.6688
  658MOL0     H86838   5.490   8.072   7.514 -0.0325  0.8446  0.2353
  658MOL0     H86839   5.716   8.004   7.475  0.4447  0.4155  0.0927
  658MOL0     H86840   6.197   8.261   7.206 -1.2604  0.2871  4.0162
  658MOL0     H86841   6.425   8.166   7.197  1.8153 -0.7571 -1.2352
  658MOL0     H86842   8.345   8.158   7.463  0.0247  0.0595 -0.2941
  658MOL0     H86843   8.581   8.177   7.535 -0.1183 -0.9330  0.2457
  658MOL0     H86844   8.992   7.996   7.428 -0.7099 -1.4696  2.2197
  658MOL0     H86845   9.239   7.962   7.496 -0.6513 -0.4958 -0.5831
  658MOL0     H86846   9.426   8.295   7.612 -2.1374 -0.9571 -1.9897
  658MOL0     H86847   9.540   8.153   7.582 -1.5908  0.3218 -1.0413
  658MOL0     H86848   9.454   8.245   7.855 -2.4482 -2.2990 -1.9084
  658MOL0     H86849   9.552   8.107   7.812 -0.4628  0.9320  3.0911
  658MOL0     H86850   9.724   8.238   7.726  4.2389  1.3040  2.7008
  658MOL0     H86851   9.683   8.272   7.896 -0.5987 -2.3189 -0.6035
  658MOL0     H86852   9.733   8.471   7.781  1.2063 -1.1564  2.8525
  658MOL0     H86853   9.602   8.443   7.657 -0.4192  1.6043  0.2533
  658MOL0     H86854   9.388   8.593   7.990 -3.2088 -0.0254 -2.1737
  658MOL0     H86855   9.219   8.339   7.707  2.1236  0.5643 -3.0061
  658MOL0     H86856   9.000   8.383   7.602  0.5356  1.0708 -2.8551
  659MOL0     O86857   6.444  10.999   6.496 -0.6559 -0.5605  0.7686
  659MOL0     C86858   6.468  11.079   6.405 -0.5164  0.2936  0.2239
  659MOL0     O86859   6.378  11.115   6.306  0.2278  0.2705  0.2000
  659MOL0     C86860   6.269  11.041   6.280 -0.2955  0.5332 -0.0388
  659MOL0     C86861   6.148  11.105   6.257  0.1821  0.0801  0.3910
  659MOL0     C86862   6.031  11.041   6.213 -0.5180 -0.8184  0.3619
  659MOL0     C86863   6.032  10.902   6.211 -0.5161 -0.2787  0.1264
  659MOL0     O86864   5.908  10.835   6.192  0.0592 -0.1200 -0.1528
  659MOL0     C86865   5.886  10.717   6.277 -0.1110 -0.7010  0.1288
  659MOL0     C86866   5.732  10.721   6.305  0.1143 -0.2010  0.7118
  659MOL0     C86867   5.664  10.602   6.381 -0.8542  0.1289 -1.2259
  659MOL0     C86868   5.541  10.646   6.447 -0.6776 -0.4385 -0.2996
  659MOL0     C86869   5.434  10.688   6.348  0.7318 -0.4448 -0.7640
  659MOL0     C86870   5.318  10.767   6.410 -0.4570  0.0596  0.9446
  659MOL0     C86871   5.362  10.880   6.504 -0.8515 -0.3781 -0.3449
  659MOL0     C86872   5.257  10.998   6.524 -0.6718  0.6303  0.7593
  659MOL0     N86873   5.128  10.955   6.570 -0.8128  0.6178 -0.3084
  659MOL0     C86874   5.049  10.845   6.526  0.6397 -0.9467  0.6490
  659MOL0     C86875   4.940  10.836   6.606 -0.2223  0.0186 -0.8441
  659MOL0     C86876   4.829  10.744   6.598  0.9326  0.7333  0.0203
  659MOL0     C86877   4.722  10.760   6.704 -0.2357  0.1296  0.0459
  659MOL0     C86878   4.619  10.648   6.702 -0.4410 -0.5565  0.7308
  659MOL0     C86879   4.484  10.681   6.639 -0.2871  0.5220 -0.0510
  659MOL0     O86880   4.436  10.810   6.669  0.3807 -0.5833  0.1191
  659MOL0     C86881   4.297  10.825   6.643 -0.5565  0.0660  0.6924
  659MOL0     C86882   4.205  10.747   6.712 -0.1166  0.6120  0.4808
  659MOL0     C86883   4.066  10.781   6.706  0.4965  0.3546  0.8248
  659MOL0     C86884   4.017  10.887   6.628  0.2119 -0.3898 -0.4564
  659MOL0     C86885   3.879  10.916   6.607 -0.8200 -0.7369 -0.1167
  659MOL0     O86886   3.834  11.038   6.567  0.7388  0.2790 -0.6239
  659MOL0     C86887   3.692  11.045   6.552  0.5811  0.3651 -1.3576
  659MOL0     C86888   3.619  11.015   6.441  0.3506 -0.0618  0.4291
  659MOL0     C86889   3.481  11.012   6.435 -0.0475 -0.6851 -0.4214
  659MOL0     C86890   3.410  11.065   6.548 -0.4830 -0.3400  0.1097
  659MOL0     O86891   3.273  11.088   6.549  0.0547  0.4745  1.1060
  659MOL0     C86892   3.207  11.067   6.420 -0.7411 -1.3287 -0.0346
  659MOL0     C86893   3.062  11.111   6.437  0.1531 -0.4227 -0.9798
  659MOL0     C86894   2.968  11.012   6.363 -1.2388  0.0163  0.4637
  659MOL0     C86895   2.831  11.075   6.362  0.1108 -0.1382 -0.1459
  659MOL0     C86896   2.717  10.986   6.314 -0.6853  0.0706 -0.2727
  659MOL0     C86897   2.594  11.009   6.383 -0.8001 -0.3161  0.6669
  659MOL0     C86898   2.488  10.919   6.321  0.0650 -0.1635 -0.9101
  659MOL0     C86899   2.396  10.995   6.225  0.1478 -0.1191 -1.1295
  659MOL0    Cl86900   2.461  11.027   6.059  0.1340 -0.2919  0.3816
  659MOL0     C86901   3.483  11.104   6.657 -0.5759 -0.5913 -0.5264
  659MOL0     C86902   3.620  11.077   6.671 -0.2075  0.3219  0.7147
  659MOL0     O86903   3.808  10.815   6.631  0.6881 -0.0539  0.7429
  659MOL0     C86904   4.117  10.971   6.563 -1.0834 -0.2882 -0.1567
  659MOL0     C86905   4.256  10.943   6.580  0.6745  0.0019 -0.3741
  659MOL0     N86906   4.947  10.942   6.694 -0.1850  0.6186 -0.3993
  659MOL0     N86907   5.053  11.008   6.663 -0.1904 -0.2047 -0.8152
  659MOL0     C86908   6.154  10.834   6.245  0.1988  0.0380  0.4157
  659MOL0     C86909   6.273  10.900   6.281 -0.0427 -0.0919 -0.5804
  659MOL0     C86910   6.608  11.134   6.386  0.3902  0.8740 -0.5312
  659MOL0     C86911   6.699  11.117   6.492  0.1198 -0.6252 -0.2665
  659MOL0     C86912   6.831  11.168   6.480 -0.5597 -0.5414 -0.4489
  659MOL0     C86913   6.880  11.210   6.362 -0.3616  0.7178  0.8443
  659MOL0     O86914   7.011  11.244   6.371  0.0823 -0.6467  0.2930
  659MOL0     C86915   7.091  11.313   6.266 -0.5870 -0.1882 -0.0898
  659MOL0     C86916   7.199  11.226   6.220  0.4081  0.6654 -0.8818
  659MOL0     C86917   7.310  11.187   6.322  0.3312  0.5130 -0.8959
  659MOL0     C86918   7.435  11.141   6.240 -0.3821  0.4251  0.6239
  659MOL0     C86919   7.547  11.111   6.330 -0.0877  0.1121  0.4851
  659MOL0     C86920   7.631  11.070   6.411  0.4372  0.1962  1.2355
  659MOL0     C86921   6.796  11.222   6.255 -0.9462  0.8234  0.2398
  659MOL0     C86922   6.660  11.184   6.265 -0.4058  0.7529 -0.5038
  659MOL0     H86923   6.152  11.207   6.292  0.7762  0.2370 -0.1084
  659MOL0     H86924   5.945  11.105   6.199  1.8948  2.9459  1.1350
  659MOL0     H86925   5.945  10.723   6.369 -2.1962 -1.2515  1.5931
  659MOL0     H86926   5.895  10.628   6.214 -3.0920 -0.4077 -0.8886
  659MOL0     H86927   5.685  10.726   6.206  0.5205  0.7085  0.5551
  659MOL0     H86928   5.688  10.809   6.352  0.7752  0.4781  0.0906
  659MOL0     H86929   5.731  10.570   6.461 -0.5195  0.9627 -1.1613
  659MOL0     H86930   5.654  10.520   6.309  0.1072  0.1202 -1.3626
  659MOL0     H86931   5.497  10.553   6.483  2.2137 -2.0148 -0.5731
  659MOL0     H86932   5.570  10.698   6.539  1.8450 -2.0104 -0.0988
  659MOL0     H86933   5.401  10.597   6.297  2.7668  0.0742 -3.2030
  659MOL0     H86934   5.476  10.762   6.280  1.0439 -0.6638 -0.8112
  659MOL0     H86935   5.253  10.708   6.476 -0.5453 -1.9708 -0.8614
  659MOL0     H86936   5.259  10.788   6.320 -0.5212 -4.0224 -0.1626
  659MOL0     H86937   5.393  10.842   6.602 -1.7024 -0.2482 -0.0143
  659MOL0     H86938   5.449  10.934   6.465  1.8990 -0.2153  5.1159
  659MOL0     H86939   5.255  11.034   6.420  3.3550 -0.5937  0.0493
  659MOL0     H86940   5.296  11.082   6.582  0.4600  1.8613 -1.6072
  659MOL0     H86941   5.060  10.784   6.437 -2.4088 -0.9113  0.1225
  659MOL0     H86942   4.874  10.645   6.611 -2.0371 -1.0882 -2.1390
  659MOL0     H86943   4.790  10.728   6.496  1.8179 -2.3706  0.0538
  659MOL0     H86944   4.676  10.859   6.705  0.7431  0.7029  4.0972
  659MOL0     H86945   4.782  10.761   6.795 -0.7251  1.9863  0.3725
  659MOL0     H86946   4.667  10.558   6.661 -0.9098 -0.9715  1.0787
  659MOL0     H86947   4.596  10.617   6.804  0.5263  0.0695  1.1502
  659MOL0     H86948   4.417  10.604   6.678 -0.3524  0.0686 -1.0305
  659MOL0     H86949   4.491  10.683   6.530 -0.7214  1.2859 -0.0764
  659MOL0     H86950   4.236  10.671   6.783  1.1336  0.8562  0.2194
  659MOL0     H86951   4.003  10.709   6.756  1.8450 -3.3296 -2.3180
  659MOL0     H86952   3.674  11.000   6.348  0.2244 -1.3944  0.5547
  659MOL0     H86953   3.428  10.994   6.342  0.3535  2.5161 -1.3806
  659MOL0     H86954   3.206  10.962   6.388 -1.0588 -1.0011 -1.1643
  659MOL0     H86955   3.256  11.131   6.345 -1.9420 -1.3393 -0.8594
  659MOL0     H86956   3.051  11.218   6.418  0.2634  0.3339  2.5284
  659MOL0     H86957   3.033  11.098   6.542  1.1650  1.2229 -0.4728
  659MOL0     H86958   2.967  10.916   6.415  0.5715  0.5827  1.6663
  659MOL0     H86959   2.998  10.999   6.259  2.7987  0.3992  1.3748
  659MOL0     H86960   2.812  11.119   6.460 -2.0406 -0.0840 -0.5327
  659MOL0     H86961   2.832  11.163   6.296  0.6599  1.9068  2.4046
  659MOL0     H86962   2.750  10.884   6.333 -0.0836  0.4064  0.5890
  659MOL0     H86963   2.701  10.992   6.206  0.4866 -0.7583 -0.5113
  659MOL0     H86964   2.565  11.114   6.380 -0.1900 -0.1723 -0.9162
  659MOL0     H86965   2.614  10.982   6.487  1.4909 -2.0978 -0.1465
  659MOL0     H86966   2.519  10.823   6.278 -2.0080  0.1528 -3.3956
  659MOL0     H86967   2.424  10.892   6.405  1.7039  0.5399  0.6245
  659MOL0     H86968   2.378  11.095   6.268  0.4423 -0.3466 -0.4617
  659MOL0     H86969   2.307  10.937   6.202  1.2842 -2.1163 -0.6670
  659MOL0     H86970   3.431  11.153   6.740  2.2324 -0.8540  1.5436
  659MOL0     H86971   3.666  11.098   6.767 -3.5535 -1.4906  2.8917
  659MOL0     H86972   4.087  11.065   6.517  1.6836  0.3903 -0.7725
  659MOL0     H86973   4.316  11.029   6.551  0.5886  0.0542 -0.3957
  659MOL0     H86974   6.166  10.726   6.247  0.6357 -0.0082 -1.7634
  659MOL0     H86975   6.367  10.861   6.318  0.2693  2.2307  1.2888
  659MOL0     H86976   6.667  11.071   6.585  0.1193  2.7355  1.5366
  659MOL0     H86977   6.891  11.166   6.570 -2.8882 -1.4605  1.1626
  659MOL0     H86978   7.133  11.401   6.315 -3.2118  1.6553 -0.8982
  659MOL0     H86979   7.028  11.334   6.179  1.1918 -1.5281 -1.7968
  659MOL0     H86980   7.150  11.137   6.180  0.9099 -0.2567  0.4625
  659MOL0     H86981   7.236  11.282   6.134  1.2361  1.7138  0.1196
  659MOL0     H86982   7.280  11.108   6.392  0.0612  0.5273 -0.9960
  659MOL0     H86983   7.325  11.275   6.385  0.8924 -0.3342  0.2023
  659MOL0     H86984   7.412  11.044   6.195  0.0309 -0.0358  1.3843
  659MOL0     H86985   7.467  11.213   6.164  0.2655 -0.3589  0.1460
  659MOL0     H86986   7.723  11.039   6.457  1.7224  2.8827  0.6892
  659MOL0     H86987   6.836  11.260   6.162  0.7866  0.2325  0.6979
  659MOL0     H86988   6.591  11.196   6.182 -1.6810 -0.9795  0.2438
  660MOL0     O86989   7.213   4.366   9.121 -0.5131 -0.2603 -0.4565
  660MOL0     C86990   7.258   4.474   9.087  0.5076  0.7388  0.3803
  660MOL0     O86991   7.181   4.581   9.065  0.2247  0.0761 -0.3290
  660MOL0     C86992   7.051   4.593   9.106 -0.0840  0.2653 -0.3907
  660MOL0     C86993   6.970   4.686   9.038 -1.5457  0.2747 -0.2405
  660MOL0     C86994   6.838   4.707   9.079 -0.0103  0.8735 -0.9070
  660MOL0     C86995   6.782   4.634   9.189  0.4327  1.5135  0.0735
  660MOL0     O86996   6.656   4.669   9.230 -0.0294  0.3392  0.5846
  660MOL0     C86997   6.574   4.573   9.292  0.0451  0.1606  0.1370
  660MOL0     C86998   6.438   4.624   9.331 -0.2219 -0.1623  0.0016
  660MOL0     C86999   6.356   4.657   9.207  0.3180  0.7705 -0.3357
  660MOL0     C87000   6.206   4.674   9.250 -0.4664 -0.3933  0.6881
  660MOL0     C87001   6.113   4.697   9.124 -0.0710 -0.4276  0.0761
  660MOL0     C87002   5.965   4.672   9.134 -0.8543  0.2066  0.6374
  660MOL0     C87003   5.906   4.705   8.992  0.3692  0.4757 -0.0660
  660MOL0     C87004   5.761   4.646   8.997  0.1443 -0.4561 -0.5796
  660MOL0     N87005   5.677   4.680   8.885 -0.3664  0.2305  0.4132
  660MOL0     C87006   5.640   4.816   8.861  0.2291  0.9213 -0.2351
  660MOL0     C87007   5.578   4.817   8.738  0.6574  0.2572 -0.7080
  660MOL0     C87008   5.548   4.928   8.651 -0.3953  0.6274 -0.9546
  660MOL0     C87009   5.403   4.961   8.659 -0.1166 -0.4639 -0.4281
  660MOL0     C87010   5.304   4.846   8.606 -0.1419 -0.7361 -0.6078
  660MOL0     C87011   5.322   4.829   8.458  0.4912  0.1661 -0.7700
  660MOL0     O87012   5.226   4.726   8.420 -0.6434  0.1448  0.2876
  660MOL0     C87013   5.101   4.750   8.389  0.1288 -0.3876 -0.0976
  660MOL0     C87014   5.042   4.874   8.349  0.1915  1.2050 -0.2659
  660MOL0     C87015   4.905   4.884   8.317  0.0360 -0.1060  0.0430
  660MOL0     C87016   4.826   4.777   8.343  0.6412 -0.1194 -0.6111
  660MOL0     C87017   4.685   4.787   8.300 -0.1551 -0.5553 -0.2016
  660MOL0     O87018   4.641   4.902   8.234  0.2234 -0.1695  0.4110
  660MOL0     C87019   4.518   4.903   8.177 -1.2415  0.4397 -1.1069
  660MOL0     C87020   4.443   5.022   8.190 -0.4847 -0.0094 -0.0698
  660MOL0     C87021   4.319   5.037   8.129 -0.1371  0.4404  0.1158
  660MOL0     C87022   4.265   4.934   8.058 -0.7677 -0.3077 -0.3421
  660MOL0     O87023   4.146   4.956   7.989 -0.0632  0.3427  0.0551
  660MOL0     C87024   4.040   4.866   8.035 -0.8745 -0.3881  0.3107
  660MOL0     C87025   3.915   4.907   7.968  0.1735 -0.3901 -0.4056
  660MOL0     C87026   3.891   5.060   7.984  0.3652  0.0832 -0.1676
  660MOL0     C87027   3.743   5.084   7.945 -0.0423  0.0367  0.2197
  660MOL0     C87028   3.683   5.179   8.045  0.7980 -1.0896  1.1519
  660MOL0     C87029   3.529   5.184   8.014 -0.0731  0.4703 -0.2665
  660MOL0     C87030   3.457   5.293   8.093  0.2364 -0.5000 -1.2230
  660MOL0     C87031   3.307   5.288   8.074  0.3247  0.5775 -0.3651
  660MOL0    Cl87032   3.220   5.402   8.176 -0.3446  0.8034 -0.3268
  660MOL0     C87033   4.337   4.813   8.040  0.3367  0.5075 -0.7181
  660MOL0     C87034   4.463   4.792   8.099 -0.5125 -0.2239 -0.9968
  660MOL0     O87035   4.615   4.689   8.331 -0.4459  0.1272 -0.1751
  660MOL0     C87036   4.883   4.656   8.389 -0.2257 -0.9045  0.1352
  660MOL0     C87037   5.020   4.642   8.409 -0.1415  0.2054 -0.0119
  660MOL0     N87038   5.575   4.684   8.694  0.4360 -0.1460  0.2220
  660MOL0     N87039   5.617   4.608   8.784  0.1619 -0.0684 -0.9355
  660MOL0     C87040   6.861   4.537   9.255  0.7937  0.6546 -0.1632
  660MOL0     C87041   6.990   4.521   9.210  0.2865  1.1359 -0.2809
  660MOL0     C87042   7.399   4.490   9.055 -0.5497 -0.9930  0.7485
  660MOL0     C87043   7.494   4.381   9.059  0.1535 -0.6569  0.2513
  660MOL0     C87044   7.623   4.382   9.020  0.1199  0.6982  0.1961
  660MOL0     C87045   7.679   4.499   8.974  0.5948 -0.1274  0.2296
  660MOL0     O87046   7.809   4.500   8.924 -0.2975 -0.6410 -0.5050
  660MOL0     C87047   7.882   4.622   8.972  0.1917  0.6088  1.2294
  660MOL0     C87048   8.030   4.600   8.967  0.5402 -0.4047  0.7040
  660MOL0     C87049   8.083   4.488   9.054  0.5705  0.3714  0.1026
  660MOL0     C87050   8.244   4.497   9.046  1.1220  0.9318  0.0352
  660MOL0     C87051   8.297   4.618   9.107  0.5300  1.7666  0.0855
  660MOL0     C87052   8.376   4.702   9.149  0.8103  0.6843 -0.3539
  660MOL0     C87053   7.596   4.616   8.986  0.0716 -0.3965  0.1231
  660MOL0     C87054   7.455   4.615   9.017 -1.2220  0.8471  0.1853
  660MOL0     H87055   7.014   4.741   8.955  0.2996  2.9720  2.3227
  660MOL0     H87056   6.781   4.785   9.031  1.4496  3.3517  1.1411
  660MOL0     H87057   6.624   4.531   9.380  1.7333  0.7926 -0.4819
  660MOL0     H87058   6.574   4.487   9.225 -2.3635  1.2200 -1.3373
  660MOL0     H87059   6.450   4.709   9.398 -0.4798 -0.1600  0.0457
  660MOL0     H87060   6.385   4.554   9.397  0.5968  0.1823  1.0439
  660MOL0     H87061   6.365   4.593   9.119 -0.4094  3.1104 -2.2150
  660MOL0     H87062   6.386   4.756   9.170  0.3295  0.9475  0.1303
  660MOL0     H87063   6.179   4.582   9.303 -1.2747 -0.3238  0.4001
  660MOL0     H87064   6.198   4.761   9.315 -1.6444  0.5780 -0.6763
  660MOL0     H87065   6.149   4.629   9.046  1.3331  2.1016 -1.6384
  660MOL0     H87066   6.134   4.801   9.096  0.0429 -0.7952 -1.3252
  660MOL0     H87067   5.911   4.733   9.207 -3.4417  0.4093 -1.2766
  660MOL0     H87068   5.961   4.568   9.168  1.6812  0.5994  2.4109
  660MOL0     H87069   5.906   4.813   8.975  2.2152  0.7707  1.5254
  660MOL0     H87070   5.960   4.667   8.905 -1.9416  0.2971 -1.5241
  660MOL0     H87071   5.721   4.683   9.092  1.9575  0.6160 -0.1710
  660MOL0     H87072   5.765   4.537   8.993 -0.8771 -0.6000  1.2250
  660MOL0     H87073   5.676   4.902   8.918 -1.0594  1.7218 -0.6000
  660MOL0     H87074   5.593   4.907   8.553  2.1122 -1.5837  0.5516
  660MOL0     H87075   5.607   5.008   8.697  1.9375 -1.6380  0.2843
  660MOL0     H87076   5.388   5.057   8.608  1.0261 -1.0904 -2.0126
  660MOL0     H87077   5.369   4.964   8.763  0.2044  0.3978 -0.3402
  660MOL0     H87078   5.321   4.749   8.653 -0.9434 -1.0560 -0.9587
  660MOL0     H87079   5.201   4.874   8.626 -0.9365 -2.0809 -2.4958
  660MOL0     H87080   5.427   4.808   8.435  1.1470  1.8919  0.4942
  660MOL0     H87081   5.293   4.914   8.396 -0.8796  0.6026  0.4397
  660MOL0     H87082   5.113   4.954   8.331  2.4498 -0.6280 -0.0485
  660MOL0     H87083   4.860   4.981   8.299  0.1660 -0.2230 -0.9760
  660MOL0     H87084   4.499   5.105   8.233 -0.1376 -0.2843  0.0169
  660MOL0     H87085   4.256   5.124   8.141 -1.2369 -0.4091  0.6715
  660MOL0     H87086   4.037   4.870   8.144  1.6943 -2.8227  0.6010
  660MOL0     H87087   4.067   4.761   8.020  0.5660  0.1223 -0.9469
  660MOL0     H87088   3.836   4.844   8.012  0.1951 -2.9033 -3.5681
  660MOL0     H87089   3.929   4.887   7.862  2.4759 -1.6412  0.0732
  660MOL0     H87090   3.955   5.118   7.917  2.0863  1.6602  2.6134
  660MOL0     H87091   3.909   5.091   8.088 -1.3409  3.0157 -0.6408
  660MOL0     H87092   3.732   5.102   7.838  1.8015 -2.5139 -0.5161
  660MOL0     H87093   3.695   4.992   7.980 -0.1273  0.5621  1.5668
  660MOL0     H87094   3.739   5.273   8.040 -0.4221 -0.3944 -0.0376
  660MOL0     H87095   3.688   5.137   8.145 -0.3939 -1.2696  1.1412
  660MOL0     H87096   3.484   5.085   8.027  3.5226 -0.9912  2.8719
  660MOL0     H87097   3.512   5.208   7.909  1.1415 -1.0599 -0.8660
  660MOL0     H87098   3.483   5.285   8.199 -0.3608  0.7274 -0.9607
  660MOL0     H87099   3.496   5.391   8.065  1.2428 -0.0891  1.3570
  660MOL0     H87100   3.266   5.188   8.090  5.5492 -2.0739 -1.3405
  660MOL0     H87101   3.285   5.322   7.973  1.3067  4.5250  0.5982
  660MOL0     H87102   4.298   4.721   7.998 -1.1368 -0.1758  1.8940
  660MOL0     H87103   4.518   4.703   8.070 -0.6191 -0.4082 -0.6259
  660MOL0     H87104   4.822   4.570   8.415 -1.2622 -0.5767 -1.0878
  660MOL0     H87105   5.056   4.551   8.457  1.8337  0.2487 -1.2966
  660MOL0     H87106   6.841   4.469   9.337  2.3496  1.5964  1.0499
  660MOL0     H87107   7.055   4.451   9.262 -1.5681 -0.1006  0.4704
  660MOL0     H87108   7.455   4.283   9.084 -0.0528 -0.0856  2.3903
  660MOL0     H87109   7.678   4.290   9.009 -0.7395 -0.0730  1.9277
  660MOL0     H87110   7.849   4.650   9.073 -0.6472  1.6489  0.6886
  660MOL0     H87111   7.853   4.702   8.903 -2.2197  0.8186  2.3577
  660MOL0     H87112   8.051   4.574   8.863 -3.6759 -0.5235 -0.2814
  660MOL0     H87113   8.070   4.700   8.987 -0.0853  0.8388 -3.3015
  660MOL0     H87114   8.059   4.387   9.019 -0.5084  0.2854  1.0557
  660MOL0     H87115   8.050   4.493   9.158 -3.2510 -1.0626 -0.8705
  660MOL0     H87116   8.283   4.408   9.096 -1.2772 -0.2103  0.0577
  660MOL0     H87117   8.277   4.494   8.942 -0.3969  1.4278 -0.4947
  660MOL0     H87118   8.438   4.765   9.209 -1.0348  1.0981  1.2257
  660MOL0     H87119   7.631   4.704   8.932 -1.0249  0.0418  0.0910
  660MOL0     H87120   7.400   4.708   9.014 -1.2115  0.8999  1.3515
  661MOL0     O87121   1.572   6.361   5.657  0.4137 -0.4045 -0.1250
  661MOL0     C87122   1.590   6.244   5.622  0.5693  0.2700 -0.0480
  661MOL0     O87123   1.494   6.147   5.618 -0.7729 -0.2760 -0.6423
  661MOL0     C87124   1.359   6.170   5.620 -0.5186  0.8148  0.7959
  661MOL0     C87125   1.269   6.063   5.645 -0.6191  0.6437 -0.1872
  661MOL0     C87126   1.127   6.078   5.653 -0.2610  0.0207 -0.2912
  661MOL0     C87127   1.069   6.197   5.631 -0.1961  0.6993  0.6146
  661MOL0     O87128   0.937   6.197   5.626  0.7917  0.4761 -0.1864
  661MOL0     C87129   0.860   6.313   5.600  0.5961 -0.4320 -0.1131
  661MOL0     C87130   0.715   6.279   5.596  0.2319 -0.1761  0.1063
  661MOL0     C87131   0.643   6.291   5.742  0.8998  0.4851  0.2060
  661MOL0     C87132   0.497   6.243   5.719 -0.1717 -0.7692  0.3671
  661MOL0     C87133   0.397   6.282   5.835  0.1015 -0.3563 -0.4735
  661MOL0     C87134   0.450   6.239   5.974 -0.0279 -0.5333 -0.2665
  661MOL0     C87135   0.351   6.285   6.079  0.1434  0.8132  0.4611
  661MOL0     C87136   0.228   6.196   6.074  0.0492  0.1541  0.5474
  661MOL0     N87137   0.143   6.240   6.177 -0.7185 -0.2041 -0.2997
  661MOL0     C87138   0.131   6.186   6.303  0.3080  0.3223 -0.0651
  661MOL0     C87139   0.077   6.273   6.383 -0.4147 -1.0011 -1.1494
  661MOL0     C87140   0.035   6.263   6.526 -0.2276  0.9937 -0.4550
  661MOL0     C87141  -0.110   6.222   6.547  0.0206  0.1608 -0.7556
  661MOL0     C87142  -0.199   6.251   6.435  0.1971 -0.6739 -0.3350
  661MOL0     C87143  -0.342   6.199   6.479  0.2038  0.2412  0.8629
  661MOL0     O87144  -0.450   6.261   6.411  0.0764  0.2704 -0.0261
  661MOL0     C87145  -0.581   6.223   6.449 -0.4665 -0.1678 -0.2005
  661MOL0     C87146  -0.678   6.278   6.375  0.7444 -0.6079  0.3604
  661MOL0     C87147  -0.818   6.253   6.407 -0.3497 -0.0095 -0.3538
  661MOL0     C87148  -0.859   6.171   6.515 -1.1684 -0.0215 -0.4463
  661MOL0     C87149  -0.996   6.152   6.554  0.4332 -0.3886 -0.1698
  661MOL0     O87150  -1.028   6.128   6.689 -0.0684  0.0881  0.5108
  661MOL0     C87151  -1.156   6.098   6.722  0.1758  0.3172 -0.0893
  661MOL0     C87152  -1.223   6.185   6.801  0.7679 -0.5204  0.0348
  661MOL0     C87153  -1.361   6.159   6.820  0.2241 -0.1356  0.4917
  661MOL0     C87154  -1.425   6.043   6.772  0.2151 -0.4493 -0.1225
  661MOL0     O87155  -1.561   6.036   6.797 -0.4654 -0.0538 -0.0452
  661MOL0     C87156  -1.627   5.913   6.791 -0.3161  0.1014 -0.2293
  661MOL0     C87157  -1.769   5.927   6.832  0.8299  0.7235 -0.2516
  661MOL0     C87158  -1.783   5.995   6.974  0.5216 -0.4904 -0.2823
  661MOL0     C87159  -1.919   5.967   7.029  0.5031 -0.8436 -0.2368
  661MOL0     C87160  -1.942   6.040   7.163 -0.2782 -0.1131 -0.7304
  661MOL0     C87161  -2.081   6.024   7.220 -0.5679 -0.2981  0.6770
  661MOL0     C87162  -2.117   6.110   7.336 -0.5842  0.2357 -0.0489
  661MOL0     C87163  -2.190   6.234   7.285 -1.1532 -0.1776 -0.0282
  661MOL0    Cl87164  -2.258   6.323   7.428  0.2158  0.1881  0.3190
  661MOL0     C87165  -1.349   5.950   6.695  1.0493 -0.1828 -1.1138
  661MOL0     C87166  -1.215   5.978   6.669  0.0501  1.1331  0.7747
  661MOL0     O87167  -1.079   6.149   6.464 -0.3274 -0.3188  0.8254
  661MOL0     C87168  -0.757   6.129   6.606 -0.7018 -0.4572 -0.7676
  661MOL0     C87169  -0.625   6.153   6.567  0.2349 -0.6096 -0.3784
  661MOL0     N87170   0.058   6.392   6.310  0.4859  0.3070 -0.5302
  661MOL0     N87171   0.093   6.367   6.185 -0.4879 -0.4003 -0.1289
  661MOL0     C87172   1.160   6.306   5.599 -0.1837  0.0516 -0.7306
  661MOL0     C87173   1.303   6.292   5.592 -0.0968  0.8876  0.6168
  661MOL0     C87174   1.738   6.205   5.594  0.7341 -0.1701 -0.4358
  661MOL0     C87175   1.837   6.288   5.642 -0.0889 -0.6869  0.4094
  661MOL0     C87176   1.967   6.251   5.620  0.0647 -0.3436 -0.1924
  661MOL0     C87177   2.000   6.126   5.556 -0.0167  0.5940 -0.1987
  661MOL0     O87178   2.128   6.095   5.507  0.7557  0.6867  0.2013
  661MOL0     C87179   2.232   6.170   5.569 -0.6245 -0.2296 -0.3372
  661MOL0     C87180   2.378   6.116   5.536  0.4283 -0.5521 -0.3009
  661MOL0     C87181   2.470   6.187   5.630  0.8678 -0.0032  0.2677
  661MOL0     C87182   2.616   6.167   5.576 -0.9230  0.1693  0.2696
  661MOL0     C87183   2.698   6.263   5.649  0.8505  0.1263 -0.6278
  661MOL0     C87184   2.763   6.345   5.718 -0.3611  0.1370 -0.3467
  661MOL0     C87185   1.902   6.039   5.524  0.3407  0.1691  0.9365
  661MOL0     C87186   1.768   6.084   5.528 -0.6560  0.4982 -0.1497
  661MOL0     H87187   1.321   5.968   5.657 -0.1778  1.0324  1.1473
  661MOL0     H87188   1.079   5.984   5.681  1.1118 -1.0299 -1.2908
  661MOL0     H87189   0.890   6.349   5.501 -1.6286 -1.4185 -1.2185
  661MOL0     H87190   0.869   6.403   5.661 -1.8475 -0.0814 -0.1618
  661MOL0     H87191   0.699   6.180   5.552 -1.5438  0.0870  0.0746
  661MOL0     H87192   0.671   6.347   5.523  3.9719 -0.9186 -3.1855
  661MOL0     H87193   0.643   6.398   5.766 -0.8242  0.9491 -1.5229
  661MOL0     H87194   0.684   6.228   5.822  0.7636 -1.3309 -1.0864
  661MOL0     H87195   0.454   6.280   5.626  0.8889  1.0098  0.5443
  661MOL0     H87196   0.490   6.133   5.717  1.6055 -0.9886 -3.3678
  661MOL0     H87197   0.299   6.235   5.821 -0.9397  0.8827  2.0645
  661MOL0     H87198   0.382   6.390   5.831 -0.9973 -0.4624  0.2249
  661MOL0     H87199   0.549   6.285   5.983  0.7020 -1.6974 -1.8090
  661MOL0     H87200   0.458   6.130   5.980 -3.6269 -0.9410 -0.7082
  661MOL0     H87201   0.392   6.278   6.180 -1.6686  1.9558  1.3309
  661MOL0     H87202   0.327   6.390   6.060  0.8665  1.1031  1.0883
  661MOL0     H87203   0.254   6.093   6.100  0.3146 -0.4121 -1.7465
  661MOL0     H87204   0.181   6.216   5.977  2.5535  1.5107 -0.4752
  661MOL0     H87205   0.171   6.088   6.327 -0.4599 -0.3180 -1.3084
  661MOL0     H87206   0.036   6.354   6.586 -2.6078  0.7223  0.1185
  661MOL0     H87207   0.096   6.183   6.570 -0.0477  0.2727 -1.9412
  661MOL0     H87208  -0.139   6.274   6.639 -2.5191 -2.5080  0.1030
  661MOL0     H87209  -0.115   6.115   6.572  1.6488  0.5856  1.7833
  661MOL0     H87210  -0.208   6.360   6.423  1.7645 -0.5717 -0.7184
  661MOL0     H87211  -0.173   6.220   6.334 -2.6877  0.3924 -1.5109
  661MOL0     H87212  -0.363   6.216   6.585  0.1829  1.5882  0.6662
  661MOL0     H87213  -0.345   6.093   6.453 -1.0189  0.9327 -2.1936
  661MOL0     H87214  -0.650   6.333   6.285 -4.0804 -2.9517 -3.0306
  661MOL0     H87215  -0.900   6.286   6.344  0.0047 -1.5797 -1.7416
  661MOL0     H87216  -1.180   6.280   6.832  3.4127 -0.7867 -2.4502
  661MOL0     H87217  -1.419   6.216   6.892 -1.2056 -1.2329  0.2603
  661MOL0     H87218  -1.588   5.837   6.858 -0.4408 -1.5667 -1.9682
  661MOL0     H87219  -1.617   5.876   6.688  1.4838  2.2710 -0.9216
  661MOL0     H87220  -1.816   5.828   6.837 -0.9992  1.6135  1.7844
  661MOL0     H87221  -1.816   5.982   6.749  3.0825 -1.4114 -3.1651
  661MOL0     H87222  -1.780   6.104   6.961 -1.6877 -0.4071 -0.5073
  661MOL0     H87223  -1.705   5.964   7.044 -1.1655 -2.7020  0.7248
  661MOL0     H87224  -1.987   6.003   6.951 -0.3808 -3.4579 -0.7622
  661MOL0     H87225  -1.944   5.862   7.044  0.6656 -0.8599 -0.0842
  661MOL0     H87226  -1.921   6.144   7.138  1.6606 -0.8416 -2.4212
  661MOL0     H87227  -1.861   6.007   7.228  0.5039 -0.5966 -1.9059
  661MOL0     H87228  -2.100   5.918   7.237 -1.3075 -0.5451 -1.4415
  661MOL0     H87229  -2.146   6.056   7.138  0.6025 -2.2490 -1.1158
  661MOL0     H87230  -2.183   6.059   7.407  1.8022 -3.2014 -0.0553
  661MOL0     H87231  -2.028   6.134   7.395 -2.0364 -0.2767  2.5168
  661MOL0     H87232  -2.272   6.207   7.218 -3.1130  0.8032  1.8428
  661MOL0     H87233  -2.121   6.299   7.230 -2.0621  1.4027  0.6260
  661MOL0     H87234  -1.393   5.858   6.656  2.5025 -1.3719 -0.0731
  661MOL0     H87235  -1.164   5.908   6.604  1.6889  1.1474  2.0102
  661MOL0     H87236  -0.766   6.071   6.697  0.6976 -0.9791 -0.9343
  661MOL0     H87237  -0.550   6.113   6.635  0.4990  0.5756  0.0431
  661MOL0     H87238   1.128   6.409   5.592  1.3075  0.4482 -2.2627
  661MOL0     H87239   1.363   6.382   5.582  0.4836  0.3201 -1.4588
  661MOL0     H87240   1.805   6.375   5.698  1.0527  0.9560 -1.3539
  661MOL0     H87241   2.038   6.331   5.642 -0.1602 -0.4612  1.0558
  661MOL0     H87242   2.232   6.158   5.678  3.0832 -0.0836 -0.2000
  661MOL0     H87243   2.217   6.272   5.536  0.2912  0.0863  0.1653
  661MOL0     H87244   2.380   6.008   5.552  1.5190 -0.1944  2.5354
  661MOL0     H87245   2.410   6.154   5.438 -2.8816  1.2623 -0.8310
  661MOL0     H87246   2.453   6.161   5.735  1.1027 -0.0443  0.2963
  661MOL0     H87247   2.452   6.294   5.620 -0.4538  0.1065  2.9535
  661MOL0     H87248   2.657   6.068   5.594 -1.6392 -0.0062  0.9467
  661MOL0     H87249   2.623   6.186   5.468 -0.2512  0.2037  0.3158
  661MOL0     H87250   2.817   6.414   5.779 -0.1433 -1.2275  1.0574
  661MOL0     H87251   1.929   5.959   5.456  2.2305  1.8272 -0.4146
  661MOL0     H87252   1.685   6.032   5.482 -0.5653  2.0176 -2.2104
  662MOL0     O87253   3.315   7.628   9.296 -0.1169  0.3901  0.6278
  662MOL0     C87254   3.336   7.697   9.388 -0.3219 -0.6774  0.1484
  662MOL0     O87255   3.241   7.759   9.468 -0.8983 -0.0996  0.2361
  662MOL0     C87256   3.113   7.780   9.430 -0.9753 -0.0586  0.7611
  662MOL0     C87257   3.027   7.839   9.520  0.6910  0.6660 -0.0972
  662MOL0     C87258   2.891   7.867   9.490  0.4015 -0.8167 -0.0942
  662MOL0     C87259   2.839   7.851   9.356 -0.4453  0.0894  0.3638
  662MOL0     O87260   2.709   7.879   9.327  0.7043  0.0258 -0.2480
  662MOL0     C87261   2.662   8.011   9.367  0.2622  0.3665 -0.8884
  662MOL0     C87262   2.556   8.049   9.259 -0.4701 -0.1695  0.4753
  662MOL0     C87263   2.435   7.950   9.258 -0.3355 -0.3786  0.3345
  662MOL0     C87264   2.330   7.995   9.151 -0.2443 -0.2166 -0.4799
  662MOL0     C87265   2.217   7.894   9.162 -0.0152 -0.1630 -0.4081
  662MOL0     C87266   2.108   7.934   9.059  0.3606  0.0064 -0.3013
  662MOL0     C87267   2.022   7.815   9.020  0.7677  1.4273 -0.3731
  662MOL0     C87268   1.930   7.772   9.140  1.1287 -0.6914 -0.2205
  662MOL0     N87269   1.843   7.663   9.100 -0.5790  0.0937 -0.1896
  662MOL0     C87270   1.719   7.673   9.035 -0.0956  0.0683 -1.0704
  662MOL0     C87271   1.695   7.547   8.997  0.1756 -1.4363 -0.0090
  662MOL0     C87272   1.565   7.509   8.925 -0.5194 -0.1465 -0.2511
  662MOL0     C87273   1.473   7.434   9.024 -0.1657  0.5069 -0.2280
  662MOL0     C87274   1.516   7.288   9.035 -0.1332 -0.7583  0.4535
  662MOL0     C87275   1.429   7.219   9.138  0.6545  0.4024 -0.0933
  662MOL0     O87276   1.416   7.285   9.265  0.4636  0.2018  0.0647
  662MOL0     C87277   1.293   7.260   9.318 -0.1703  0.6870 -0.4168
  662MOL0     C87278   1.222   7.369   9.354  1.3687 -0.2737  0.3105
  662MOL0     C87279   1.103   7.354   9.432  0.5019  0.4223 -0.2144
  662MOL0     C87280   1.064   7.221   9.470  0.9960  0.6074  0.4672
  662MOL0     C87281   0.934   7.193   9.534 -1.4131 -0.6076  0.4553
  662MOL0     O87282   0.932   7.083   9.607  0.5318  0.4142  0.3652
  662MOL0     C87283   0.815   7.037   9.666 -0.1490  0.2378  0.0994
  662MOL0     C87284   0.736   7.114   9.757  0.4234 -0.3214 -0.1778
  662MOL0     C87285   0.625   7.063   9.823 -0.1463 -1.2468 -0.2454
  662MOL0     C87286   0.580   6.937   9.789  0.8427 -0.5994  0.9641
  662MOL0     O87287   0.472   6.888   9.862 -0.2271  0.1261 -0.5009
  662MOL0     C87288   0.391   6.794   9.797 -0.3370 -0.2531 -0.6340
  662MOL0     C87289   0.254   6.783   9.873  0.5598 -1.1442 -0.4614
  662MOL0     C87290   0.178   6.654   9.831 -0.5472 -0.2633 -0.0470
  662MOL0     C87291   0.046   6.627   9.915  0.2684  0.2407  0.3559
  662MOL0     C87292  -0.054   6.523   9.845  0.1270  0.2901 -0.3557
  662MOL0     C87293  -0.190   6.525   9.905 -0.3876 -0.1385 -0.9752
  662MOL0     C87294  -0.277   6.404   9.854  0.3945 -0.4211  0.1705
  662MOL0     C87295  -0.312   6.400   9.707  0.2821 -0.0120 -0.0767
  662MOL0    Cl87296  -0.409   6.545   9.659  0.3616  0.1818  0.4545
  662MOL0     C87297   0.651   6.857   9.686  0.5718 -0.0031 -0.2474
  662MOL0     C87298   0.774   6.905   9.633 -0.2628  0.9068 -0.3906
  662MOL0     O87299   0.841   7.267   9.508  0.8508  0.7577 -1.4988
  662MOL0     C87300   1.143   7.109   9.428  0.3901  0.5889  0.1905
  662MOL0     C87301   1.260   7.130   9.361  0.1021  0.2224  0.6631
  662MOL0     N87302   1.798   7.466   9.042  0.3884 -0.0522  0.0728
  662MOL0     N87303   1.884   7.533   9.099  0.2731 -0.1931  0.1665
  662MOL0     C87304   2.928   7.798   9.261  0.9099  1.1072 -0.3489
  662MOL0     C87305   3.061   7.770   9.292 -0.0597 -0.8945 -0.2802
  662MOL0     C87306   3.478   7.719   9.428  0.4720  0.0530  0.1441
  662MOL0     C87307   3.583   7.646   9.369  0.1863  0.0899 -0.4407
  662MOL0     C87308   3.717   7.680   9.399  0.1489  0.2036 -0.3872
  662MOL0     C87309   3.753   7.774   9.502  0.0814 -0.3630 -0.2299
  662MOL0     O87310   3.884   7.813   9.529 -0.0711 -0.8421  0.2084
  662MOL0     C87311   3.980   7.708   9.533 -0.3255 -0.9315 -0.1005
  662MOL0     C87312   4.057   7.721   9.667 -0.1663 -0.2977 -0.4316
  662MOL0     C87313   4.162   7.608   9.675 -0.2475 -0.2074 -0.1198
  662MOL0     C87314   4.244   7.628   9.803  0.2932  0.7562 -0.6687
  662MOL0     C87315   4.184   7.563   9.923 -0.5832  0.4969 -0.3443
  662MOL0     C87316   4.112   7.540  10.016  0.0452  0.1738  0.1340
  662MOL0     C87317   3.648   7.839   9.561  0.6527 -1.2091 -0.0331
  662MOL0     C87318   3.514   7.811   9.523 -0.0701 -0.0336 -0.0628
  662MOL0     H87319   3.054   7.863   9.622  0.5428 -0.7367  0.2853
  662MOL0     H87320   2.828   7.907   9.569  3.3190  2.5699  0.7557
  662MOL0     H87321   2.737   8.084   9.397  0.8615 -0.4641 -0.3058
  662MOL0     H87322   2.613   8.013   9.465 -1.2630 -1.8847 -1.5299
  662MOL0     H87323   2.602   8.056   9.161 -2.9361  0.5147 -0.7171
  662MOL0     H87324   2.515   8.145   9.294  0.1714 -0.9773  3.8043
  662MOL0     H87325   2.386   7.955   9.356 -2.3280  2.0372 -0.6651
  662MOL0     H87326   2.466   7.847   9.243  2.2107  0.4765 -0.9753
  662MOL0     H87327   2.308   8.102   9.159  1.4797  0.2207 -1.0492
  662MOL0     H87328   2.390   7.998   9.060  0.6680 -1.3439  0.0555
  662MOL0     H87329   2.180   7.899   9.265 -0.0385  0.3846 -0.4394
  662MOL0     H87330   2.247   7.791   9.141 -0.3642 -0.4656  0.5001
  662MOL0     H87331   2.145   7.987   8.971  1.2715 -0.6245 -0.3072
  662MOL0     H87332   2.042   8.000   9.117 -0.6991 -1.3267  0.0704
  662MOL0     H87333   1.962   7.837   8.931  0.0981 -0.6285 -0.4619
  662MOL0     H87334   2.092   7.739   8.984 -2.0079  0.0679 -3.3695
  662MOL0     H87335   1.869   7.856   9.176 -0.4842 -1.9841  0.1919
  662MOL0     H87336   2.001   7.753   9.222  2.2051 -0.4789 -1.0814
  662MOL0     H87337   1.657   7.762   9.028  2.5294  2.0513 -0.6067
  662MOL0     H87338   1.595   7.445   8.842  1.2983  0.7214 -0.3193
  662MOL0     H87339   1.525   7.596   8.872  2.7801  1.4459 -0.4295
  662MOL0     H87340   1.368   7.440   8.992 -0.6881 -0.3011  1.2523
  662MOL0     H87341   1.492   7.478   9.123 -0.8837  0.6245 -0.1350
  662MOL0     H87342   1.510   7.244   8.935 -1.9017 -0.8689  0.5718
  662MOL0     H87343   1.616   7.277   9.079 -0.5832  1.2570  2.1828
  662MOL0     H87344   1.459   7.115   9.151  0.4266  0.4650  1.1020
  662MOL0     H87345   1.336   7.213   9.081  1.0382  1.3408 -0.8485
  662MOL0     H87346   1.250   7.471   9.329 -2.2294  0.7123 -0.2674
  662MOL0     H87347   1.048   7.441   9.467  3.3783  2.3858 -0.2485
  662MOL0     H87348   0.770   7.213   9.786 -0.5108  0.1813 -0.7238
  662MOL0     H87349   0.577   7.118   9.903  1.2154  0.9288 -0.8275
  662MOL0     H87350   0.440   6.697   9.788 -1.9121 -0.9055 -3.1054
  662MOL0     H87351   0.381   6.819   9.691 -1.8676  4.0241  0.3096
  662MOL0     H87352   0.200   6.878   9.874  1.5441 -0.5755 -0.5539
  662MOL0     H87353   0.282   6.760   9.976 -0.3807 -4.0295 -0.7450
  662MOL0     H87354   0.248   6.572   9.849  3.0324  2.8052  1.2263
  662MOL0     H87355   0.157   6.661   9.724 -2.7786  0.6884  0.4032
  662MOL0     H87356   0.083   6.599  10.014  0.5843  1.7428  0.6952
  662MOL0     H87357  -0.011   6.719   9.933  0.4711  0.8876 -1.9306
  662MOL0     H87358  -0.007   6.424   9.846  1.0291  0.7124  0.3141
  662MOL0     H87359  -0.076   6.539   9.739 -1.3219 -0.6485 -0.2296
  662MOL0     H87360  -0.229   6.621   9.872 -0.6230 -0.4464 -1.6163
  662MOL0     H87361  -0.188   6.517  10.014  2.4024 -1.6562 -1.0282
  662MOL0     H87362  -0.235   6.310   9.892  1.7879  0.2203  0.2840
  662MOL0     H87363  -0.369   6.418   9.911  0.0476  2.0999 -0.8914
  662MOL0     H87364  -0.377   6.316   9.678  2.3730 -1.7536 -0.0271
  662MOL0     H87365  -0.223   6.402   9.644 -0.9366 -0.3796 -1.8953
  662MOL0     H87366   0.625   6.756   9.658 -1.1702 -0.5360  2.7932
  662MOL0     H87367   0.827   6.838   9.566 -1.7779  0.6250 -1.3609
  662MOL0     H87368   1.110   7.006   9.439  2.1218  0.1578  1.9464
  662MOL0     H87369   1.317   7.041   9.335  2.6829  1.3201  2.1260
  662MOL0     H87370   2.880   7.779   9.165 -2.4721 -1.5032  1.6047
  662MOL0     H87371   3.125   7.740   9.210  2.7390  2.2772  0.5297
  662MOL0     H87372   3.574   7.562   9.302 -1.2951  1.9455 -2.7207
  662MOL0     H87373   3.796   7.625   9.349 -0.3629 -0.0458 -0.9243
  662MOL0     H87374   4.046   7.713   9.445  0.4423  2.5105  0.5085
  662MOL0     H87375   3.929   7.612   9.529  0.1836 -1.2068 -0.0344
  662MOL0     H87376   4.097   7.821   9.685  1.3764 -1.2043  1.5863
  662MOL0     H87377   3.987   7.696   9.748 -0.0289 -1.2211 -0.5792
  662MOL0     H87378   4.217   7.610   9.580 -2.1274 -0.2397 -1.2618
  662MOL0     H87379   4.105   7.515   9.677 -0.6367 -0.0407 -1.7219
  662MOL0     H87380   4.342   7.579   9.800 -1.4019 -2.9466 -3.0675
  662MOL0     H87381   4.262   7.734   9.823  1.8244  0.3351  0.3355
  662MOL0     H87382   4.051   7.538  10.104 -0.1816  1.9251  0.0571
  662MOL0     H87383   3.663   7.919   9.633  4.2715 -2.0515  0.3291
  662MOL0     H87384   3.437   7.867   9.576  1.3496  2.3968 -0.4311
  663MOL0     O87385  10.350   4.450   1.506 -0.2007 -0.6535 -0.2273
  663MOL0     C87386  10.445   4.529   1.507 -0.9647  0.7924 -0.0427
  663MOL0     O87387  10.433   4.665   1.498  0.8846  0.3767 -0.2480
  663MOL0     C87388  10.337   4.743   1.572  0.3915  1.1836  0.1214
  663MOL0     C87389  10.223   4.702   1.637  0.8231  0.7134  1.1669
  663MOL0     C87390  10.149   4.799   1.696  0.1217 -0.4213  0.8529
  663MOL0     C87391  10.187   4.936   1.703  0.3081 -0.9111  0.0047
  663MOL0     O87392  10.093   5.010   1.769  0.5992 -0.4485 -0.2636
  663MOL0     C87393  10.092   5.151   1.742  0.4092  0.3036 -0.4175
  663MOL0     C87394   9.965   5.202   1.818  0.7155 -0.5174 -0.6481
  663MOL0     C87395   9.835   5.138   1.760  0.8408 -0.1474 -0.3108
  663MOL0     C87396   9.821   5.182   1.608  0.5911 -0.2297 -0.5105
  663MOL0     C87397   9.686   5.140   1.568  0.3800 -0.1443  1.3906
  663MOL0     C87398   9.656   5.174   1.424 -0.2271  0.4541  0.8412
  663MOL0     C87399   9.500   5.165   1.383 -0.5520  0.6141 -0.7494
  663MOL0     C87400   9.454   5.019   1.357 -0.4154 -0.7951  0.0102
  663MOL0     N87401   9.308   5.025   1.341  0.3500  0.7026 -0.3793
  663MOL0     C87402   9.233   5.067   1.230 -0.6551  1.0319 -0.4248
  663MOL0     C87403   9.108   5.043   1.269 -0.3981 -0.0950 -0.0420
  663MOL0     C87404   8.983   5.071   1.199  0.7174 -0.1554  1.1501
  663MOL0     C87405   8.900   4.946   1.186 -0.4627 -0.2863 -0.4734
  663MOL0     C87406   8.770   4.989   1.109 -0.4252  0.6049 -0.3123
  663MOL0     C87407   8.666   4.880   1.108  0.3222 -0.1917  0.4208
  663MOL0     O87408   8.702   4.763   1.031  0.2088  0.3060 -0.5263
  663MOL0     C87409   8.610   4.671   0.983  0.6735  0.1296  0.7854
  663MOL0     C87410   8.486   4.660   1.044  0.1999 -0.6754 -0.5039
  663MOL0     C87411   8.390   4.571   1.005  0.6723 -1.0479 -0.8049
  663MOL0     C87412   8.409   4.483   0.896 -0.4154 -0.5053 -0.8730
  663MOL0     C87413   8.304   4.383   0.848 -0.4328  0.0243  0.3144
  663MOL0     O87414   8.197   4.357   0.928 -0.5204 -0.2200 -0.0642
  663MOL0     C87415   8.088   4.290   0.896 -0.0075 -0.9689 -0.1237
  663MOL0     C87416   7.985   4.282   0.997  0.1982 -1.0023 -0.3152
  663MOL0     C87417   7.863   4.222   0.989  0.2545 -0.0064 -0.2037
  663MOL0     C87418   7.821   4.172   0.864 -0.3890 -0.3309  0.7101
  663MOL0     O87419   7.697   4.120   0.859 -0.1074 -0.2308  0.3685
  663MOL0     C87420   7.648   4.083   0.732  0.2216  0.3683  0.5032
  663MOL0     C87421   7.498   4.055   0.724 -0.6945 -0.0847  0.0028
  663MOL0     C87422   7.427   4.186   0.737  0.2399  1.2519  0.3155
  663MOL0     C87423   7.281   4.181   0.679  0.1016  0.0869  0.0665
  663MOL0     C87424   7.239   4.330   0.636  0.2022  0.3935  0.4184
  663MOL0     C87425   7.120   4.320   0.546  1.2203  0.6385  0.9047
  663MOL0     C87426   6.981   4.280   0.617 -0.1111 -0.0534  0.1817
  663MOL0     C87427   6.861   4.333   0.549  0.0593  0.2475  0.0908
  663MOL0    Cl87428   6.860   4.519   0.565  0.6306  0.6289  0.1424
  663MOL0     C87429   7.922   4.188   0.761 -0.5264  0.8227  0.6034
  663MOL0     C87430   8.052   4.234   0.775  0.5708  0.7716 -0.3909
  663MOL0     O87431   8.334   4.322   0.746 -0.3138 -0.3840  0.2697
  663MOL0     C87432   8.535   4.484   0.844 -0.4602  0.6116  0.5647
  663MOL0     C87433   8.633   4.576   0.888 -0.0933  0.8830  0.4924
  663MOL0     N87434   9.108   5.009   1.406 -1.1199  0.0820  0.9132
  663MOL0     N87435   9.233   4.995   1.447  1.1007  0.4667 -0.0780
  663MOL0     C87436  10.302   4.974   1.639 -0.3404 -0.9267 -0.7735
  663MOL0     C87437  10.379   4.879   1.573 -0.0245  0.7439  0.0943
  663MOL0     C87438  10.576   4.479   1.513  0.4901 -0.0507  0.2673
  663MOL0     C87439  10.596   4.350   1.551 -0.4338  0.0348  0.5446
  663MOL0     C87440  10.725   4.298   1.549 -0.1082  0.7630  0.2953
  663MOL0     C87441  10.840   4.378   1.507 -0.0165  0.1244 -0.1983
  663MOL0     O87442  10.947   4.306   1.485 -0.1826 -0.0796  0.2243
  663MOL0     C87443  11.066   4.383   1.441 -0.3456  1.1466  0.4335
  663MOL0     C87444  11.139   4.460   1.551 -0.2200 -0.1157  0.0489
  663MOL0     C87445  11.270   4.525   1.501  0.8084 -0.1071  0.6898
  663MOL0     C87446  11.328   4.638   1.586 -0.2112  0.2721 -0.8828
  663MOL0     C87447  11.343   4.611   1.727 -0.0279  0.3481 -0.5331
  663MOL0     C87448  11.365   4.601   1.844  0.2956  0.1086 -0.3984
  663MOL0     C87449  10.814   4.510   1.478  0.5268 -0.5306 -0.1873
  663MOL0     C87450  10.687   4.556   1.477  0.1572 -0.7843  0.2625
  663MOL0     H87451  10.189   4.599   1.629 -2.0090  1.6735 -1.2844
  663MOL0     H87452  10.054   4.764   1.736 -1.0199 -0.7080 -1.8711
  663MOL0     H87453  10.067   5.160   1.635 -2.8040 -1.8317  0.0085
  663MOL0     H87454  10.185   5.203   1.766  1.0785 -1.7195  1.7713
  663MOL0     H87455   9.961   5.309   1.799 -0.0797 -0.2890  0.6569
  663MOL0     H87456   9.983   5.170   1.921 -0.4543 -0.7509 -0.5020
  663MOL0     H87457   9.751   5.165   1.825 -0.5075  1.6530 -2.6207
  663MOL0     H87458   9.842   5.030   1.771  4.4506 -0.2782 -2.4879
  663MOL0     H87459   9.833   5.288   1.587 -2.4880  0.3612  0.1998
  663MOL0     H87460   9.895   5.130   1.547  1.2081  1.1189 -0.9544
  663MOL0     H87461   9.617   5.202   1.626  0.3364 -1.9546  3.3678
  663MOL0     H87462   9.664   5.036   1.591 -0.3337 -0.6424 -1.2179
  663MOL0     H87463   9.710   5.103   1.362  0.7135  2.7706 -1.1189
  663MOL0     H87464   9.687   5.276   1.401  0.6773 -0.1657 -0.7506
  663MOL0     H87465   9.451   5.211   1.469 -1.6126 -1.7622 -0.0083
  663MOL0     H87466   9.488   5.233   1.299 -1.1574  0.8859 -0.4502
  663MOL0     H87467   9.478   4.942   1.431 -1.5542 -0.8561  0.3276
  663MOL0     H87468   9.494   4.992   1.259  2.3316  0.9711  0.5353
  663MOL0     H87469   9.266   5.114   1.138 -1.9628  2.4777 -0.1925
  663MOL0     H87470   9.013   5.109   1.102  0.2842 -5.2271 -1.3212
  663MOL0     H87471   8.915   5.142   1.248  2.0956  1.7220  0.4551
  663MOL0     H87472   8.881   4.914   1.289 -3.7300  0.8800 -0.6003
  663MOL0     H87473   8.965   4.872   1.140 -0.5244 -2.6386  2.8528
  663MOL0     H87474   8.722   5.078   1.152 -1.3800  0.3096 -0.7342
  663MOL0     H87475   8.812   5.011   1.011  3.1408  1.4613  1.2610
  663MOL0     H87476   8.573   4.914   1.062 -0.9174 -2.2434  1.2462
  663MOL0     H87477   8.660   4.843   1.211 -1.2865  0.0763  0.4446
  663MOL0     H87478   8.458   4.737   1.114 -0.0117 -0.0071 -1.3085
  663MOL0     H87479   8.294   4.573   1.056  0.6528  0.2815 -0.8437
  663MOL0     H87480   8.005   4.337   1.089 -1.0367 -1.6014  0.3363
  663MOL0     H87481   7.801   4.215   1.078  2.3593 -1.2548  1.2632
  663MOL0     H87482   7.695   3.992   0.692 -2.2640 -0.4159 -0.8583
  663MOL0     H87483   7.672   4.163   0.661 -2.4282  0.1589 -0.7314
  663MOL0     H87484   7.465   3.989   0.805 -1.6159  2.0370  1.4640
  663MOL0     H87485   7.479   4.012   0.626  0.4003  2.4221 -1.4003
  663MOL0     H87486   7.477   4.261   0.675  1.1980  2.4879  2.4580
  663MOL0     H87487   7.409   4.216   0.841 -1.2800 -1.4982  0.9531
  663MOL0     H87488   7.280   4.101   0.604  2.0896 -0.1693  0.2569
  663MOL0     H87489   7.212   4.166   0.762 -3.0593  0.4667 -2.3165
  663MOL0     H87490   7.316   4.382   0.580  3.3629 -2.7184  1.5000
  663MOL0     H87491   7.229   4.387   0.729  0.1036  1.5875 -0.3120
  663MOL0     H87492   7.136   4.237   0.477 -2.3264  0.9328 -0.5027
  663MOL0     H87493   7.103   4.407   0.481 -0.7713  0.5214  1.1863
  663MOL0     H87494   6.974   4.171   0.632 -0.8665  0.2876  2.8994
  663MOL0     H87495   6.987   4.320   0.719  3.7499  2.4659 -0.8058
  663MOL0     H87496   6.781   4.283   0.604  1.7667 -1.5501  1.1086
  663MOL0     H87497   6.872   4.311   0.442  2.1665  2.2065 -0.1870
  663MOL0     H87498   7.886   4.145   0.667 -2.8498 -0.2666  1.8908
  663MOL0     H87499   8.108   4.235   0.682  1.4482 -1.1099  0.0850
  663MOL0     H87500   8.561   4.422   0.758  0.0426  3.1748 -1.2521
  663MOL0     H87501   8.730   4.579   0.840 -0.5201  2.0721 -0.3686
  663MOL0     H87502  10.335   5.076   1.626 -0.3369 -0.5233  1.9447
  663MOL0     H87503  10.472   4.897   1.521 -0.2889  1.6221 -0.0774
  663MOL0     H87504  10.510   4.285   1.563 -0.6333 -0.3393 -2.2601
  663MOL0     H87505  10.736   4.192   1.573 -0.1679  1.1684  2.3315
  663MOL0     H87506  11.041   4.444   1.354 -0.3063 -0.1057 -0.4774
  663MOL0     H87507  11.134   4.302   1.412 -3.1334 -2.1351  2.2302
  663MOL0     H87508  11.073   4.539   1.587 -1.3263 -2.0435  2.5874
  663MOL0     H87509  11.168   4.398   1.637  0.9066  0.0009 -0.2294
  663MOL0     H87510  11.267   4.556   1.396 -0.2576 -2.3384 -0.0071
  663MOL0     H87511  11.353   4.454   1.507  0.3798 -0.4628  3.6687
  663MOL0     H87512  11.418   4.666   1.532 -0.1106  1.5336 -0.1018
  663MOL0     H87513  11.264   4.726   1.582 -1.4452 -0.0331  4.2679
  663MOL0     H87514  11.389   4.588   1.947  0.5275  2.6243 -0.0682
  663MOL0     H87515  10.887   4.579   1.437 -0.4733  1.2237  0.8494
  663MOL0     H87516  10.671   4.659   1.446 -0.5226 -0.2745  2.1768
  664MOL0     O87517   6.922   8.657   9.788 -0.4488  0.6734 -0.3751
  664MOL0     C87518   7.019   8.584   9.810  0.5325 -0.7433 -0.8067
  664MOL0     O87519   7.015   8.454   9.810 -0.1688 -0.7826 -0.4457
  664MOL0     C87520   6.903   8.388   9.780  0.2240  1.2978  0.6419
  664MOL0     C87521   6.909   8.291   9.680  0.0776 -0.0850  0.1566
  664MOL0     C87522   6.791   8.222   9.645 -1.0858  0.0202  0.1260
  664MOL0     C87523   6.673   8.242   9.711  0.3416 -0.2610 -0.1376
  664MOL0     O87524   6.563   8.168   9.664 -0.3593  0.1504  0.3531
  664MOL0     C87525   6.434   8.197   9.718 -0.2396 -0.4963 -0.1972
  664MOL0     C87526   6.396   8.347   9.656  0.2770  0.5657  0.5861
  664MOL0     C87527   6.242   8.380   9.672  0.2484  0.6601 -0.2165
  664MOL0     C87528   6.207   8.427   9.806 -1.0996 -0.2359 -0.6798
  664MOL0     C87529   6.060   8.481   9.816 -0.5829 -0.2684  0.4736
  664MOL0     C87530   5.972   8.360   9.820 -0.2964 -0.2372  0.3563
  664MOL0     C87531   5.858   8.393   9.913  0.2767 -0.1385  0.9140
  664MOL0     C87532   5.753   8.284   9.905 -0.7680  0.3322  0.1941
  664MOL0     N87533   5.665   8.299  10.023  0.2989 -0.4159 -0.0810
  664MOL0     C87534   5.543   8.367  10.026  0.2654  0.5963  0.1758
  664MOL0     C87535   5.493   8.338  10.149 -0.1018 -0.1982  0.1577
  664MOL0     C87536   5.356   8.385  10.191  0.6700 -0.1945 -0.6131
  664MOL0     C87537   5.271   8.301  10.291 -0.3861 -1.0070  0.0673
  664MOL0     C87538   5.195   8.187  10.216  0.7937 -0.0076 -0.0558
  664MOL0     C87539   5.101   8.098  10.304  0.4631 -0.0394 -0.3481
  664MOL0     O87540   5.018   8.190  10.378  0.1234 -0.1547  0.2917
  664MOL0     C87541   4.885   8.163  10.403 -0.2105 -0.3350  0.2382
  664MOL0     C87542   4.802   8.268  10.405 -0.2864 -0.3995  0.8787
  664MOL0     C87543   4.660   8.248  10.394  0.3013  0.5414 -0.3588
  664MOL0     C87544   4.610   8.117  10.412 -0.0968  0.5504  0.1429
  664MOL0     C87545   4.463   8.106  10.422  0.0720 -0.3754  0.2583
  664MOL0     O87546   4.427   7.996  10.478  0.3815 -0.0572  0.1460
  664MOL0     C87547   4.295   7.957  10.476  0.0310  1.1450  0.7420
  664MOL0     C87548   4.252   7.850  10.395  0.5045  0.0436 -0.4214
  664MOL0     C87549   4.121   7.811  10.405  0.1035  0.6145  0.4045
  664MOL0     C87550   4.025   7.868  10.488  0.4498  0.2778 -0.0271
  664MOL0     O87551   3.890   7.830  10.468  0.3310 -0.2057  0.2679
  664MOL0     C87552   3.799   7.941  10.458  0.1071  0.0878 -0.7332
  664MOL0     C87553   3.658   7.890  10.408 -0.2311  0.1794 -0.2154
  664MOL0     C87554   3.541   7.987  10.444 -1.0528  0.4467 -0.6596
  664MOL0     C87555   3.411   7.926  10.385 -0.3519 -0.0746 -0.3887
  664MOL0     C87556   3.300   8.025  10.420  0.8625  0.4043 -0.8919
  664MOL0     C87557   3.271   8.134  10.309 -0.0624  0.0103 -1.0243
  664MOL0     C87558   3.149   8.228  10.317  0.4023 -0.1610  1.1021
  664MOL0     C87559   3.004   8.169  10.337 -0.1172 -0.3965 -1.1705
  664MOL0    Cl87560   2.975   8.097  10.183 -0.1313 -0.2883 -0.2000
  664MOL0     C87561   4.066   7.988  10.553 -0.6870 -0.1634 -0.6907
  664MOL0     C87562   4.199   8.025  10.549 -0.6468 -0.1802  0.1397
  664MOL0     O87563   4.387   8.194  10.377  0.3203 -0.5373 -0.4781
  664MOL0     C87564   4.698   8.015  10.416 -0.1434 -0.1622 -0.7833
  664MOL0     C87565   4.836   8.033  10.405  1.3045 -0.5878  0.3264
  664MOL0     N87566   5.579   8.253  10.217 -0.1423  0.1136 -0.2653
  664MOL0     N87567   5.687   8.243  10.145  0.0932 -0.8449  0.0459
  664MOL0     C87568   6.671   8.343   9.806 -0.4394  0.4645 -0.8481
  664MOL0     C87569   6.784   8.410   9.845 -0.3715 -0.5163  0.1523
  664MOL0     C87570   7.151   8.641   9.839  0.6434  0.4096  0.0196
  664MOL0     C87571   7.255   8.571   9.892 -0.1928 -0.0350 -0.9689
  664MOL0     C87572   7.378   8.627   9.920  0.0428  0.1459 -0.4632
  664MOL0     C87573   7.398   8.766   9.899  0.4594  0.7735  0.5572
  664MOL0     O87574   7.513   8.837   9.929  0.1653  0.0837 -0.4939
  664MOL0     C87575   7.642   8.781   9.960 -0.1347  0.5845  0.0594
  664MOL0     C87576   7.740   8.888   9.983 -0.3313 -0.5459 -0.1896
  664MOL0     C87577   7.871   8.841  10.044  0.3778  0.2950 -0.5829
  664MOL0     C87578   7.972   8.955  10.047  0.2748 -0.8189  0.0133
  664MOL0     C87579   8.091   8.899  10.112  0.1087  0.9828  0.1072
  664MOL0     C87580   8.196   8.855  10.156 -0.7490 -0.1483 -0.3786
  664MOL0     C87581   7.293   8.833   9.836  0.0779  0.0144  0.0344
  664MOL0     C87582   7.175   8.773   9.810  0.0545 -0.1173  0.5034
  664MOL0     H87583   7.001   8.276   9.626  0.4932  1.4483  0.4055
  664MOL0     H87584   6.792   8.144   9.570  1.5476  0.1635 -0.0679
  664MOL0     H87585   6.421   8.185   9.826 -0.4181  2.8857  0.2658
  664MOL0     H87586   6.379   8.111   9.679  0.8976 -1.4343  0.1854
  664MOL0     H87587   6.417   8.324   9.551  2.2113 -2.5559  1.5004
  664MOL0     H87588   6.462   8.430   9.683 -2.3389  4.3839 -3.3483
  664MOL0     H87589   6.186   8.288   9.652 -1.4308  2.2351 -3.6110
  664MOL0     H87590   6.209   8.449   9.594  0.3980 -0.4689 -1.3086
  664MOL0     H87591   6.223   8.349   9.881  0.2830 -0.9227 -1.6301
  664MOL0     H87592   6.278   8.506   9.830 -0.4631 -1.5738  2.2665
  664MOL0     H87593   6.037   8.541   9.727 -0.1966  1.6092  1.5911
  664MOL0     H87594   6.055   8.555   9.896  3.3279  0.5049  0.2309
  664MOL0     H87595   6.012   8.261   9.843 -1.7665 -1.0617 -0.4530
  664MOL0     H87596   5.916   8.344   9.727 -1.8034  2.9838  0.5784
  664MOL0     H87597   5.901   8.411  10.012  3.0637 -0.2830 -0.1646
  664MOL0     H87598   5.825   8.492   9.880  0.8049 -0.1800  0.2227
  664MOL0     H87599   5.807   8.191   9.887 -0.7037  0.7218 -1.8096
  664MOL0     H87600   5.684   8.311   9.825 -0.6402 -3.2139 -1.2984
  664MOL0     H87601   5.493   8.422   9.946 -1.7234 -2.3938 -0.8194
  664MOL0     H87602   5.300   8.408  10.100  2.6906  1.4893 -1.5245
  664MOL0     H87603   5.367   8.483  10.239 -0.1474  0.1686 -1.1346
  664MOL0     H87604   5.206   8.365  10.352  0.1289  1.2155 -1.5850
  664MOL0     H87605   5.340   8.256  10.364  1.3353 -0.5428 -1.2035
  664MOL0     H87606   5.138   8.236  10.137  0.6200 -0.9251 -0.5079
  664MOL0     H87607   5.275   8.127  10.172  0.3193 -2.7366  2.4261
  664MOL0     H87608   5.174   8.046  10.368  1.2404 -1.5552 -2.3520
  664MOL0     H87609   5.041   8.030  10.244  0.4088  0.8036 -1.2588
  664MOL0     H87610   4.850   8.365  10.403  2.2635 -1.5887  1.3268
  664MOL0     H87611   4.589   8.329  10.375 -2.3349 -1.3515  0.8960
  664MOL0     H87612   4.330   7.805  10.335  2.0759  0.0924  1.4838
  664MOL0     H87613   4.089   7.742  10.328  2.9575  0.6679 -0.9405
  664MOL0     H87614   3.840   8.012  10.385  0.0761 -0.9038 -1.7323
  664MOL0     H87615   3.787   7.986  10.557  1.2681 -4.3311  1.6522
  664MOL0     H87616   3.634   7.794  10.453  0.0267 -0.2479 -0.9844
  664MOL0     H87617   3.667   7.890  10.299 -2.4360 -1.4586 -0.4596
  664MOL0     H87618   3.570   8.079  10.392  3.4208 -0.4654 -0.1775
  664MOL0     H87619   3.533   7.998  10.552  1.1566  0.1665 -0.4258
  664MOL0     H87620   3.435   7.933  10.278 -1.2148  1.7526 -0.4980
  664MOL0     H87621   3.402   7.822  10.416 -0.3206  0.2073  0.5768
  664MOL0     H87622   3.305   8.068  10.520 -0.6454 -1.3232 -0.0132
  664MOL0     H87623   3.214   7.957  10.418  2.0968 -1.3553  1.0726
  664MOL0     H87624   3.259   8.080  10.215  0.4151 -3.9738  0.9819
  664MOL0     H87625   3.360   8.194  10.291  0.6828 -1.7220 -3.4844
  664MOL0     H87626   3.169   8.308  10.390  0.9191  0.8708 -0.1308
  664MOL0     H87627   3.145   8.283  10.223 -0.0893  0.6492  1.5768
  664MOL0     H87628   2.929   8.240  10.372  1.1156 -0.0114  0.9061
  664MOL0     H87629   3.020   8.092  10.414  2.2291  1.5961  0.4946
  664MOL0     H87630   3.998   8.025  10.629  0.1714  0.9078 -0.4220
  664MOL0     H87631   4.233   8.113  10.603  2.6749 -1.1734 -0.1188
  664MOL0     H87632   4.651   7.918  10.426 -0.6402  0.1059 -0.5077
  664MOL0     H87633   4.893   7.941  10.395 -0.1254 -1.3252 -1.7279
  664MOL0     H87634   6.576   8.377   9.846 -1.4036  0.9843 -3.3641
  664MOL0     H87635   6.759   8.499   9.903 -4.2755 -2.4414  1.7915
  664MOL0     H87636   7.241   8.465   9.908 -2.6812  0.5813  1.8324
  664MOL0     H87637   7.458   8.562   9.954 -0.3677 -0.6784 -1.0540
  664MOL0     H87638   7.671   8.718   9.875  2.0623 -0.8423  1.7268
  664MOL0     H87639   7.631   8.717  10.048 -1.1067  0.4632 -0.1441
  664MOL0     H87640   7.758   8.938   9.887 -0.9258 -0.4703 -0.2663
  664MOL0     H87641   7.701   8.967  10.049 -1.8941 -2.9875  1.9975
  664MOL0     H87642   7.906   8.763   9.975  3.0508  0.8324  0.0832
  664MOL0     H87643   7.857   8.795  10.142  3.2650 -4.0231 -1.8981
  664MOL0     H87644   7.994   8.994   9.946 -0.1077  0.4001  0.3761
  664MOL0     H87645   7.935   9.034  10.113  0.2867 -2.6006  2.2230
  664MOL0     H87646   8.285   8.825  10.209 -1.7828  0.0288  1.5594
  664MOL0     H87647   7.304   8.939   9.817  1.0743 -0.0776  0.0228
  664MOL0     H87648   7.098   8.838   9.769  1.5337  1.4984  0.1245
  665MOL0     O87649   6.231   3.381   9.222  1.2645 -0.1178 -0.2235
  665MOL0     C87650   6.218   3.258   9.219 -0.1691  0.4597  0.9146
  665MOL0     O87651   6.099   3.184   9.236 -0.2980  0.7200 -0.1403
  665MOL0     C87652   5.974   3.244   9.247 -0.6881 -0.4342 -0.5737
  665MOL0     C87653   5.938   3.383   9.227 -0.3910 -0.2617 -0.2756
  665MOL0     C87654   5.805   3.420   9.236  0.4675 -0.3580  0.6838
  665MOL0     C87655   5.702   3.336   9.267  0.1975  0.7984 -1.0346
  665MOL0     O87656   5.571   3.385   9.285  0.0836 -0.0291 -1.1672
  665MOL0     C87657   5.475   3.297   9.344 -0.9465  0.6052  0.9200
  665MOL0     C87658   5.357   3.379   9.391  1.0311  0.0314  0.1929
  665MOL0     C87659   5.382   3.496   9.495 -0.1524  0.3115  0.3849
  665MOL0     C87660   5.261   3.587   9.522 -0.4318  0.6650 -0.2525
  665MOL0     C87661   5.202   3.662   9.402 -0.6840  0.3590  0.6323
  665MOL0     C87662   5.069   3.723   9.426 -0.5130 -0.0383 -0.6740
  665MOL0     C87663   5.028   3.820   9.329  1.0453  0.1314  0.5466
  665MOL0     C87664   4.882   3.886   9.354  0.3091 -0.2571  0.0281
  665MOL0     N87665   4.771   3.793   9.356  0.0520  0.4121 -0.0099
  665MOL0     C87666   4.711   3.742   9.247 -0.2038  0.6864  0.0721
  665MOL0     C87667   4.628   3.641   9.298 -0.6436 -0.5966 -0.6190
  665MOL0     C87668   4.529   3.554   9.222 -0.4853 -0.6936 -0.6586
  665MOL0     C87669   4.397   3.632   9.203 -0.0541 -0.4831  0.3156
  665MOL0     C87670   4.331   3.682   9.324 -0.2410  0.0775 -0.5295
  665MOL0     C87671   4.192   3.740   9.310  1.1889 -0.0488 -0.6604
  665MOL0     O87672   4.114   3.628   9.261  0.1641  0.6135 -0.0205
  665MOL0     C87673   3.982   3.633   9.208 -0.2622 -0.7131 -0.0447
  665MOL0     C87674   3.898   3.743   9.227  0.2829 -0.5287  0.0697
  665MOL0     C87675   3.772   3.741   9.176 -0.0243  0.8579 -1.0784
  665MOL0     C87676   3.730   3.635   9.089  0.6025  0.7247  0.1438
  665MOL0     C87677   3.592   3.614   9.061  0.8295  0.9482  0.0176
  665MOL0     O87678   3.499   3.708   9.095 -0.2227 -0.0632  0.3520
  665MOL0     C87679   3.388   3.720   9.019  0.3754  0.1428  0.3312
  665MOL0     C87680   3.379   3.673   8.879 -0.1497  0.3136 -0.2585
  665MOL0     C87681   3.258   3.687   8.805  0.3757 -0.6527  0.3858
  665MOL0     C87682   3.139   3.737   8.866  0.1489 -0.3601 -0.8355
  665MOL0     O87683   3.029   3.761   8.794  0.2766 -0.0047  0.0350
  665MOL0     C87684   2.896   3.790   8.858  0.0193  0.1041 -0.5513
  665MOL0     C87685   2.780   3.787   8.749  0.1629 -0.9330 -0.2748
  665MOL0     C87686   2.746   3.648   8.685 -0.9814  0.1159 -0.0486
  665MOL0     C87687   2.618   3.659   8.598  0.1707 -0.2173 -0.3059
  665MOL0     C87688   2.570   3.534   8.523  0.5972 -0.7949  0.0558
  665MOL0     C87689   2.504   3.434   8.620  0.1740  0.2209 -0.1181
  665MOL0     C87690   2.436   3.327   8.531 -0.7791  0.6330  0.2377
  665MOL0     C87691   2.335   3.235   8.592  0.8451 -0.2524  0.7556
  665MOL0    Cl87692   2.274   3.117   8.469  0.2025 -0.4657  0.4380
  665MOL0     C87693   3.151   3.777   9.000  0.2252  0.2219  0.1141
  665MOL0     C87694   3.266   3.769   9.073 -0.5295 -0.1184  0.8909
  665MOL0     O87695   3.565   3.501   9.016 -0.2945  0.7940  0.1379
  665MOL0     C87696   3.824   3.527   9.060 -0.8516  0.0287 -0.1492
  665MOL0     C87697   3.950   3.531   9.122  0.8440  0.3522  0.7469
  665MOL0     N87698   4.641   3.641   9.436  0.2032 -0.4294 -0.1099
  665MOL0     N87699   4.731   3.728   9.472  0.4778 -0.6995 -0.3047
  665MOL0     C87700   5.733   3.198   9.278  0.3315 -0.3578  0.2901
  665MOL0     C87701   5.870   3.152   9.273 -0.1189  0.1294  0.2367
  665MOL0     C87702   6.346   3.181   9.219  0.3958 -0.3594  0.3163
  665MOL0     C87703   6.353   3.049   9.278  0.4799  0.0400 -0.4343
  665MOL0     C87704   6.465   2.967   9.257 -0.0003  0.5830  0.3930
  665MOL0     C87705   6.593   3.016   9.202  0.3510 -0.4547 -0.0954
  665MOL0     O87706   6.708   2.952   9.156  0.4814  1.0191 -0.2198
  665MOL0     C87707   6.736   2.821   9.212 -0.1795  0.2104 -0.9954
  665MOL0     C87708   6.815   2.830   9.346 -0.2977 -0.3878  0.0413
  665MOL0     C87709   6.788   2.728   9.463 -0.1318  0.1822  0.2794
  665MOL0     C87710   6.871   2.765   9.587  0.7345 -0.3775 -0.1946
  665MOL0     C87711   7.016   2.738   9.567 -0.0078 -0.1079  0.3158
  665MOL0     C87712   7.126   2.712   9.537 -0.5379 -0.4407  0.3268
  665MOL0     C87713   6.593   3.151   9.170 -0.6296  0.0357  0.3431
  665MOL0     C87714   6.475   3.230   9.178  0.1437  0.3481 -0.0040
  665MOL0     H87715   6.006   3.459   9.191 -0.6892  1.1349  1.9109
  665MOL0     H87716   5.770   3.519   9.207 -2.2750 -1.5570 -0.4871
  665MOL0     H87717   5.515   3.244   9.430  0.8990 -1.0211 -0.8393
  665MOL0     H87718   5.433   3.227   9.272 -2.1670  0.5841  1.6348
  665MOL0     H87719   5.281   3.314   9.434 -0.7362  1.4452 -0.6760
  665MOL0     H87720   5.309   3.427   9.306 -1.5872 -0.9814  1.0068
  665MOL0     H87721   5.470   3.557   9.473  0.7187  0.0097  2.6678
  665MOL0     H87722   5.426   3.453   9.586 -0.5786  0.6665  0.7597
  665MOL0     H87723   5.184   3.519   9.558 -0.2131  0.4529 -0.1882
  665MOL0     H87724   5.288   3.666   9.593 -0.1103  2.0377 -1.8097
  665MOL0     H87725   5.191   3.598   9.315  0.5034 -1.5652  1.8245
  665MOL0     H87726   5.276   3.742   9.389 -1.0094  0.4716 -0.6038
  665MOL0     H87727   5.061   3.759   9.530 -1.5916 -2.3456  0.1019
  665MOL0     H87728   4.994   3.644   9.434 -1.3319  0.5994 -1.8000
  665MOL0     H87729   5.087   3.912   9.334  0.9363  0.2642 -0.4037
  665MOL0     H87730   5.037   3.791   9.224 -1.1777 -1.3779  0.6794
  665MOL0     H87731   4.860   3.958   9.274 -1.9902  0.3260  1.0860
  665MOL0     H87732   4.882   3.937   9.451 -1.1469  0.0371 -0.1027
  665MOL0     H87733   4.718   3.765   9.141  1.2995 -0.5675 -0.1457
  665MOL0     H87734   4.508   3.457   9.267 -0.1512 -0.9926 -1.1449
  665MOL0     H87735   4.576   3.532   9.126  1.8138  2.0401 -0.3046
  665MOL0     H87736   4.327   3.565   9.152  0.9796 -0.1095 -1.6566
  665MOL0     H87737   4.416   3.720   9.141 -0.9084 -0.8473 -0.4950
  665MOL0     H87738   4.322   3.600   9.396  2.6769  0.0175 -0.1228
  665MOL0     H87739   4.391   3.758   9.374 -1.2262 -0.3647  1.4499
  665MOL0     H87740   4.186   3.826   9.243 -1.6219  0.2164 -0.2004
  665MOL0     H87741   4.158   3.781   9.406 -0.1653  1.7108 -1.8454
  665MOL0     H87742   3.938   3.810   9.301  0.5847  0.6968 -1.1577
  665MOL0     H87743   3.703   3.822   9.202 -2.2151 -1.2925  0.2529
  665MOL0     H87744   3.466   3.635   8.827  0.5801  0.5399  0.7720
  665MOL0     H87745   3.253   3.647   8.704 -1.2557 -1.2558  0.6678
  665MOL0     H87746   2.896   3.881   8.919  1.9888 -1.4453  1.9510
  665MOL0     H87747   2.870   3.706   8.923 -2.8852  1.1532 -0.2050
  665MOL0     H87748   2.803   3.865   8.676 -1.0486 -0.3149 -0.0235
  665MOL0     H87749   2.688   3.826   8.794 -1.5437 -2.2526 -2.3841
  665MOL0     H87750   2.731   3.575   8.765  0.6395  1.6630  1.7904
  665MOL0     H87751   2.831   3.621   8.623 -1.3004  0.5379 -0.6798
  665MOL0     H87752   2.530   3.696   8.651 -1.7069 -1.1972 -2.5473
  665MOL0     H87753   2.628   3.727   8.513 -1.9574 -0.4033 -0.7625
  665MOL0     H87754   2.653   3.485   8.471 -0.3090 -2.1148 -0.2164
  665MOL0     H87755   2.498   3.557   8.443  1.8279 -1.5700 -1.3322
  665MOL0     H87756   2.429   3.478   8.686 -1.2006  1.3659 -2.3404
  665MOL0     H87757   2.579   3.404   8.694 -3.1207  0.5494  3.6809
  665MOL0     H87758   2.384   3.376   8.449 -2.0433 -1.4434 -0.2866
  665MOL0     H87759   2.517   3.263   8.496 -4.7517 -4.3763 -1.0552
  665MOL0     H87760   2.247   3.295   8.612  1.2154  1.5488 -2.2960
  665MOL0     H87761   2.377   3.196   8.685  0.4156 -1.8068  0.3283
  665MOL0     H87762   3.071   3.834   9.046 -0.5578  1.5861 -2.7462
  665MOL0     H87763   3.281   3.816   9.170  0.1067  0.8878  0.3153
  665MOL0     H87764   3.795   3.439   9.004  2.5673 -0.1327 -1.9367
  665MOL0     H87765   4.033   3.462   9.112  0.1205 -0.5331  0.6316
  665MOL0     H87766   5.653   3.125   9.280  2.5936 -3.0862 -1.1019
  665MOL0     H87767   5.889   3.046   9.284 -0.4510  0.0071 -0.3037
  665MOL0     H87768   6.270   3.015   9.340  0.4318 -1.1688 -1.1278
  665MOL0     H87769   6.458   2.862   9.282  0.0968  0.6932  0.8887
  665MOL0     H87770   6.790   2.750   9.148 -0.2704  1.3377 -2.3864
  665MOL0     H87771   6.648   2.759   9.230  2.0502 -3.0888 -0.7034
  665MOL0     H87772   6.920   2.830   9.315 -0.3751  1.9210 -0.3633
  665MOL0     H87773   6.796   2.923   9.399  0.5445 -0.9005  1.2840
  665MOL0     H87774   6.815   2.633   9.416 -2.7529 -0.7570  0.5308
  665MOL0     H87775   6.682   2.730   9.488 -0.1734  3.5499  0.2207
  665MOL0     H87776   6.850   2.869   9.615 -3.2199 -0.0640 -3.4296
  665MOL0     H87777   6.848   2.700   9.671 -2.1055 -0.2779 -0.7951
  665MOL0     H87778   7.227   2.698   9.504  1.1616  4.8245  2.2810
  665MOL0     H87779   6.672   3.214   9.129 -0.2318 -0.9980 -0.5307
  665MOL0     H87780   6.483   3.334   9.148  0.9422  0.6501  1.1689
  666MOL0     O87781   8.114   7.936   2.384 -0.1835  0.1871  0.0149
  666MOL0     C87782   8.131   7.818   2.410 -1.1228 -0.4216 -0.6341
  666MOL0     O87783   8.040   7.717   2.394 -0.3928 -0.9484 -0.0680
  666MOL0     C87784   7.924   7.757   2.334  0.0070 -0.6515  0.7044
  666MOL0     C87785   7.926   7.800   2.194  0.5410  0.2219  0.5312
  666MOL0     C87786   7.805   7.833   2.127 -0.4275  0.3165  0.9469
  666MOL0     C87787   7.685   7.813   2.194  0.9311 -0.3687 -0.4513
  666MOL0     O87788   7.566   7.830   2.143 -0.3011 -0.3067  0.9375
  666MOL0     C87789   7.542   7.758   2.020 -0.2847 -0.0317  0.2099
  666MOL0     C87790   7.398   7.792   1.980 -0.7420 -0.5259 -0.0245
  666MOL0     C87791   7.297   7.725   2.076  0.3886 -0.4144  0.2581
  666MOL0     C87792   7.148   7.781   2.062 -0.0021 -0.1577  0.4844
  666MOL0     C87793   7.056   7.696   2.147  0.6897  0.0704  0.1902
  666MOL0     C87794   7.022   7.563   2.078 -0.0380  0.4045 -0.0491
  666MOL0     C87795   6.899   7.498   2.143  0.2245 -0.1097  0.5934
  666MOL0     C87796   6.757   7.569   2.145 -0.6263 -0.4069 -0.2322
  666MOL0     N87797   6.644   7.506   2.201  0.5580 -0.3499 -0.6314
  666MOL0     C87798   6.509   7.524   2.162 -0.7977  1.6627  1.5564
  666MOL0     C87799   6.438   7.467   2.256  0.4893  0.1664 -0.5385
  666MOL0     C87800   6.290   7.431   2.252  0.1215  0.3734  0.8540
  666MOL0     C87801   6.211   7.539   2.315 -0.0346  0.1179 -0.9204
  666MOL0     C87802   6.054   7.520   2.293  0.4500  0.5166 -0.3924
  666MOL0     C87803   5.973   7.657   2.318 -0.3884 -0.0277 -0.3953
  666MOL0     O87804   5.843   7.649   2.256  0.2915 -0.0303  0.4245
  666MOL0     C87805   5.737   7.593   2.326  0.1725 -0.3069 -0.2381
  666MOL0     C87806   5.692   7.466   2.292 -0.2024 -0.6022  0.4186
  666MOL0     C87807   5.564   7.412   2.331  0.7923 -1.5195  0.4521
  666MOL0     C87808   5.493   7.492   2.415  0.0710 -0.2647  0.4926
  666MOL0     C87809   5.356   7.438   2.466  0.8419  0.3832  0.2543
  666MOL0     O87810   5.287   7.498   2.574 -0.9713 -0.3839  0.2010
  666MOL0     C87811   5.166   7.446   2.598  0.3782 -0.3490  0.3570
  666MOL0     C87812   5.050   7.514   2.547  0.3564 -0.0869  0.6706
  666MOL0     C87813   4.926   7.468   2.574  0.4103  0.4548 -0.2854
  666MOL0     C87814   4.911   7.359   2.658  0.4755  0.6183 -0.9778
  666MOL0     O87815   4.790   7.285   2.683  0.2844  0.1160  0.2276
  666MOL0     C87816   4.683   7.303   2.591 -0.6059 -0.1053  0.3846
  666MOL0     C87817   4.578   7.191   2.601 -0.3139 -0.6120  0.8178
  666MOL0     C87818   4.505   7.207   2.740  0.3541  0.0062 -0.6658
  666MOL0     C87819   4.408   7.094   2.766  0.2230  0.0979  0.5531
  666MOL0     C87820   4.279   7.149   2.842 -0.2620 -0.0333  0.7533
  666MOL0     C87821   4.175   7.030   2.835 -0.4177  0.8304 -0.2160
  666MOL0     C87822   4.064   7.040   2.947 -1.1121 -0.3625  0.4010
  666MOL0     C87823   3.919   7.004   2.905 -1.0090  0.5872  0.6916
  666MOL0    Cl87824   3.786   7.066   2.999 -0.2978  0.0770 -0.2737
  666MOL0     C87825   5.024   7.299   2.721  0.7720  0.3129  0.5245
  666MOL0     C87826   5.151   7.339   2.688 -0.5489 -0.4488 -0.9458
  666MOL0     O87827   5.314   7.347   2.395  0.4987 -0.2367  0.8244
  666MOL0     C87828   5.533   7.626   2.447  0.6176 -0.0983  0.0768
  666MOL0     C87829   5.649   7.684   2.398  0.6100 -0.2785 -0.4787
  666MOL0     N87830   6.521   7.429   2.358  0.4745 -0.1022 -0.4972
  666MOL0     N87831   6.643   7.448   2.324  0.1001 -0.1727 -0.0612
  666MOL0     C87832   7.690   7.774   2.330  0.2510  0.4218  0.6200
  666MOL0     C87833   7.809   7.757   2.411 -0.1842  0.1318 -0.1196
  666MOL0     C87834   8.248   7.788   2.494 -0.0950 -0.0614 -0.1386
  666MOL0     C87835   8.286   7.655   2.515  1.2444  0.5303  0.5079
  666MOL0     C87836   8.378   7.625   2.612  0.5066 -0.3713  0.9104
  666MOL0     C87837   8.435   7.729   2.696 -0.2985 -0.4197  0.1368
  666MOL0     O87838   8.503   7.690   2.804  0.2034  0.1107  0.3416
  666MOL0     C87839   8.636   7.675   2.784  0.4317  0.0557 -0.4781
  666MOL0     C87840   8.712   7.604   2.909  0.7938 -0.0722  0.2060
  666MOL0     C87841   8.668   7.657   3.044  0.2244 -0.3633 -0.1481
  666MOL0     C87842   8.712   7.801   3.068  0.6725 -0.6261 -0.4383
  666MOL0     C87843   8.657   7.862   3.187  0.7749 -0.4260 -0.6602
  666MOL0     C87844   8.616   7.912   3.290 -0.7101  0.5871  0.2816
  666MOL0     C87845   8.406   7.862   2.663  0.0968  0.0885 -1.0559
  666MOL0     C87846   8.305   7.890   2.576  0.2031 -0.2383 -0.2920
  666MOL0     H87847   8.024   7.796   2.148  0.9266  0.4149  1.3257
  666MOL0     H87848   7.819   7.883   2.032 -1.8407  1.6070  1.3672
  666MOL0     H87849   7.559   7.651   2.031  0.9678  0.2924  1.8062
  666MOL0     H87850   7.604   7.801   1.940  0.1584  1.1484  1.1578
  666MOL0     H87851   7.374   7.747   1.883 -1.9545 -0.6120  0.2993
  666MOL0     H87852   7.390   7.901   1.984  0.5512 -0.4334  0.7863
  666MOL0     H87853   7.320   7.731   2.182 -1.4420  3.2763  0.6183
  666MOL0     H87854   7.294   7.619   2.052  2.3176 -0.7241  1.1919
  666MOL0     H87855   7.150   7.880   2.109 -1.9078  0.1599 -0.0313
  666MOL0     H87856   7.117   7.785   1.957 -1.8353 -1.0956  0.9619
  666MOL0     H87857   6.966   7.757   2.163 -0.0412 -0.5413 -1.3449
  666MOL0     H87858   7.100   7.685   2.247  1.3739  0.2310 -0.0915
  666MOL0     H87859   7.104   7.492   2.090 -2.6635 -2.7974  0.2678
  666MOL0     H87860   6.998   7.571   1.972  1.5427 -0.3318 -0.4948
  666MOL0     H87861   6.886   7.395   2.106 -0.0275  0.4861 -1.0720
  666MOL0     H87862   6.920   7.488   2.250  0.7257  0.5389  0.5580
  666MOL0     H87863   6.727   7.581   2.040  0.0829  3.5710 -0.1246
  666MOL0     H87864   6.772   7.668   2.190  3.2880  0.1801 -2.4243
  666MOL0     H87865   6.490   7.564   2.063  0.4866  1.7656  1.3279
  666MOL0     H87866   6.276   7.340   2.311  0.7106  0.1068  0.5877
  666MOL0     H87867   6.260   7.418   2.148 -0.4066 -0.3408  1.0918
  666MOL0     H87868   6.247   7.627   2.260 -0.7114 -0.3870 -2.1984
  666MOL0     H87869   6.244   7.553   2.419  0.3360  3.5765 -1.3703
  666MOL0     H87870   6.031   7.502   2.188 -1.8455  0.0855  0.1316
  666MOL0     H87871   6.020   7.445   2.365 -1.6005 -0.2415 -2.0509
  666MOL0     H87872   6.017   7.748   2.276  0.3852 -0.6612 -0.9824
  666MOL0     H87873   5.969   7.678   2.425  0.6722  1.4803 -0.6133
  666MOL0     H87874   5.773   7.415   2.241  0.1568 -2.6531  2.8012
  666MOL0     H87875   5.528   7.312   2.311 -1.8843 -1.0264  2.3185
  666MOL0     H87876   5.055   7.603   2.485  0.1864 -1.1208 -0.9074
  666MOL0     H87877   4.844   7.520   2.525  0.7954  1.4947  0.1295
  666MOL0     H87878   4.718   7.311   2.488  0.1671 -1.1603  0.5451
  666MOL0     H87879   4.645   7.401   2.621  0.6487  0.4412  0.2150
  666MOL0     H87880   4.635   7.099   2.586 -0.5507 -0.2612 -3.2609
  666MOL0     H87881   4.510   7.202   2.516 -0.3529 -0.9861  0.8025
  666MOL0     H87882   4.460   7.307   2.736 -1.4030 -0.5479  2.1861
  666MOL0     H87883   4.585   7.223   2.814  1.5149 -0.7484 -1.7263
  666MOL0     H87884   4.370   7.042   2.678  0.3554  1.9414 -0.6631
  666MOL0     H87885   4.463   7.021   2.825  0.0641 -0.8263 -0.4341
  666MOL0     H87886   4.247   7.243   2.796  0.1549 -0.7677 -1.1200
  666MOL0     H87887   4.301   7.172   2.947 -1.6357 -2.2700  1.6099
  666MOL0     H87888   4.216   6.930   2.852  0.3282  1.4381  1.9192
  666MOL0     H87889   4.139   7.024   2.732  1.9595 -1.9492 -1.0548
  666MOL0     H87890   4.108   6.981   3.028 -0.0572 -1.3815 -0.8712
  666MOL0     H87891   4.055   7.143   2.983 -0.4075 -0.4159  0.7571
  666MOL0     H87892   3.906   6.895   2.913 -0.9315  0.2857 -2.3144
  666MOL0     H87893   3.913   7.032   2.800  2.4763 -1.7994 -0.3158
  666MOL0     H87894   5.012   7.212   2.785 -2.1766  0.2097 -0.0418
  666MOL0     H87895   5.236   7.308   2.748 -2.9696 -0.3424  2.9422
  666MOL0     H87896   5.463   7.683   2.507  0.8375 -0.9783  1.2027
  666MOL0     H87897   5.685   7.786   2.409 -0.5880  0.0839  0.3187
  666MOL0     H87898   7.601   7.759   2.391  0.4690  0.8059  1.0394
  666MOL0     H87899   7.820   7.734   2.516  0.6379  0.8039 -0.0514
  666MOL0     H87900   8.240   7.579   2.454 -0.7811  1.5863  0.6423
  666MOL0     H87901   8.404   7.521   2.627 -0.6991 -1.0132 -1.0800
  666MOL0     H87902   8.685   7.773   2.778 -2.4333  2.0113  3.6152
  666MOL0     H87903   8.657   7.612   2.696 -0.6190 -1.7262  0.4902
  666MOL0     H87904   8.679   7.499   2.909  0.6984 -0.0482 -0.4718
  666MOL0     H87905   8.820   7.608   2.892  0.4113  2.7603 -2.5846
  666MOL0     H87906   8.717   7.598   3.122  0.2943  0.5855  0.5484
  666MOL0     H87907   8.559   7.657   3.050  0.0764 -0.6537 -2.1541
  666MOL0     H87908   8.820   7.791   3.082  0.6594  0.1644  0.2803
  666MOL0     H87909   8.691   7.877   2.991 -1.4806  2.4787  2.8995
  666MOL0     H87910   8.586   7.960   3.381 -0.6729  0.5791  0.2978
  666MOL0     H87911   8.460   7.947   2.704 -0.0549  0.1027 -0.8848
  666MOL0     H87912   8.271   7.993   2.578 -2.6386 -1.0078  3.7549
  667MOL0     O87913   9.513   4.578   8.844  0.1716  0.1386  0.8242
  667MOL0     C87914   9.509   4.704   8.877  0.5824  0.0454 -0.2154
  667MOL0     O87915   9.628   4.778   8.892 -0.6658  0.1906  0.6295
  667MOL0     C87916   9.747   4.709   8.897 -0.1336 -0.6805  0.1775
  667MOL0     C87917   9.856   4.758   8.830 -0.1827 -0.9810  0.1010
  667MOL0     C87918   9.981   4.702   8.848 -0.0379  0.7549  0.6828
  667MOL0     C87919  10.010   4.624   8.953 -0.7886  0.8832 -0.5221
  667MOL0     O87920  10.143   4.588   8.965  0.5147 -0.0017 -0.2725
  667MOL0     C87921  10.173   4.460   9.030  0.0508 -0.0049  0.1175
  667MOL0     C87922  10.139   4.328   8.946  0.2450 -0.9821  0.0941
  667MOL0     C87923  10.177   4.344   8.796  0.3542  0.4105  0.5145
  667MOL0     C87924  10.328   4.380   8.795 -0.8479 -0.7216  0.2553
  667MOL0     C87925  10.380   4.356   8.656 -0.2844  0.3270 -0.2092
  667MOL0     C87926  10.322   4.463   8.557  0.5312  0.0270 -1.2525
  667MOL0     C87927  10.364   4.611   8.566 -1.0909  0.6884 -0.4209
  667MOL0     C87928  10.503   4.632   8.501  0.7673  0.3403 -0.0465
  667MOL0     N87929  10.496   4.637   8.360  0.5657  0.7763 -0.2130
  667MOL0     C87930  10.502   4.530   8.279  0.7999  0.7035  0.2159
  667MOL0     C87931  10.429   4.563   8.168  0.2661  0.6101 -0.3299
  667MOL0     C87932  10.437   4.469   8.049 -0.3051 -0.1692  0.4184
  667MOL0     C87933  10.301   4.398   8.042 -0.2347 -0.9155 -0.1183
  667MOL0     C87934  10.267   4.336   7.905  0.0136 -0.7768  0.3839
  667MOL0     C87935  10.123   4.300   7.872  0.3345 -0.4584 -0.2909
  667MOL0     O87936  10.056   4.268   7.998 -0.0583 -0.2647  0.0461
  667MOL0     C87937   9.920   4.266   7.993 -1.2976  0.5119  1.1372
  667MOL0     C87938   9.861   4.249   8.117 -0.3069  0.5506  0.4151
  667MOL0     C87939   9.724   4.248   8.116 -0.5717  0.3258  0.3216
  667MOL0     C87940   9.644   4.252   8.004 -1.3000 -0.3380  0.5193
  667MOL0     C87941   9.495   4.260   8.022  0.2230 -0.1142  0.3611
  667MOL0     O87942   9.421   4.245   7.899 -0.4326  1.0453  0.5319
  667MOL0     C87943   9.288   4.232   7.895  0.0698  0.0683 -0.7969
  667MOL0     C87944   9.225   4.134   7.968 -0.9683  0.8523  0.1960
  667MOL0     C87945   9.092   4.095   7.950  0.1488  0.1106  0.5233
  667MOL0     C87946   9.008   4.180   7.873 -0.0556 -0.0528 -0.1323
  667MOL0     O87947   8.872   4.165   7.835 -0.2467  0.3467 -0.5760
  667MOL0     C87948   8.813   4.039   7.881  0.4299 -0.4197  0.3626
  667MOL0     C87949   8.656   4.037   7.877 -0.0791 -0.1440 -0.4662
  667MOL0     C87950   8.606   4.150   7.973 -0.0523  0.0282 -0.0745
  667MOL0     C87951   8.452   4.155   7.987 -0.2699 -0.6467  0.3404
  667MOL0     C87952   8.396   4.230   7.868  0.0433 -0.0891  0.5983
  667MOL0     C87953   8.242   4.199   7.879  0.5620  0.7315  0.1292
  667MOL0     C87954   8.158   4.251   7.759 -0.7776  1.1379  0.1850
  667MOL0     C87955   8.013   4.201   7.750 -0.0712 -0.3930  0.1152
  667MOL0    Cl87956   7.923   4.263   7.896  0.1773  0.1487  0.6282
  667MOL0     C87957   9.066   4.289   7.806 -0.2059 -0.0334  0.2882
  667MOL0     C87958   9.205   4.310   7.815 -0.3087  0.2047  0.3451
  667MOL0     O87959   9.446   4.281   8.134 -0.2310 -0.5295 -0.6508
  667MOL0     C87960   9.709   4.265   7.876  0.1571 -0.0195 -0.3061
  667MOL0     C87961   9.843   4.279   7.873 -0.2757  0.1201 -0.3994
  667MOL0     N87962  10.401   4.696   8.177 -0.1735  0.0177 -0.8167
  667MOL0     N87963  10.449   4.740   8.294 -0.0883  0.3457 -0.2597
  667MOL0     C87964   9.900   4.572   9.026  0.1324  0.1015 -0.3222
  667MOL0     C87965   9.772   4.616   8.998 -0.4583  0.1382 -1.1293
  667MOL0     C87966   9.387   4.754   8.929 -0.4902  0.6853  0.0036
  667MOL0     C87967   9.375   4.883   8.986  0.9444 -0.5796 -0.0490
  667MOL0     C87968   9.255   4.938   9.023  0.5162 -0.4149 -0.2351
  667MOL0     C87969   9.143   4.856   9.036 -0.1990  0.6948 -0.4971
  667MOL0     O87970   9.027   4.892   9.093  0.0340  0.4276  0.0570
  667MOL0     C87971   9.039   4.922   9.226  0.4342  0.2496 -0.1520
  667MOL0     C87972   8.931   4.846   9.305  0.8132 -0.3533  0.3398
  667MOL0     C87973   8.800   4.914   9.264  0.4701 -0.1320  0.0395
  667MOL0     C87974   8.684   4.862   9.357  0.2281 -0.1451  1.3212
  667MOL0     C87975   8.695   4.887   9.506 -0.9079 -0.2718 -0.5267
  667MOL0     C87976   8.689   4.909   9.624 -0.4040 -0.0044 -0.1030
  667MOL0     C87977   9.144   4.732   8.985  0.1654 -0.1621  0.1405
  667MOL0     C87978   9.267   4.671   8.937 -0.0195  1.0284 -0.1859
  667MOL0     H87979   9.840   4.845   8.767  0.2203 -0.9502  0.0375
  667MOL0     H87980  10.054   4.745   8.779  1.8966  0.0353  2.2018
  667MOL0     H87981  10.141   4.461   9.135  0.1081 -3.2787  0.2702
  667MOL0     H87982  10.281   4.458   9.044  0.0247  3.7306  2.1435
  667MOL0     H87983  10.034   4.300   8.960 -0.0342  0.5480  1.3913
  667MOL0     H87984  10.197   4.244   8.985  2.5328  1.1653  1.7039
  667MOL0     H87985  10.116   4.425   8.754 -0.4577  0.3558  1.5302
  667MOL0     H87986  10.154   4.246   8.753 -0.6316  1.4342 -1.4347
  667MOL0     H87987  10.342   4.485   8.823  0.6642 -0.3498 -1.6669
  667MOL0     H87988  10.377   4.309   8.862  2.3439 -1.0550 -2.2045
  667MOL0     H87989  10.358   4.253   8.626 -0.0193 -0.6313  2.5675
  667MOL0     H87990  10.489   4.350   8.660 -0.3616 -0.8855  0.6280
  667MOL0     H87991  10.213   4.452   8.558  0.4502  0.4486  1.5150
  667MOL0     H87992  10.354   4.424   8.460  1.2934 -0.7837 -0.6788
  667MOL0     H87993  10.289   4.673   8.515 -1.5475  0.3140 -0.2108
  667MOL0     H87994  10.371   4.635   8.673 -1.7554 -0.2336 -0.1636
  667MOL0     H87995  10.569   4.548   8.526  0.3388  0.1251  0.3652
  667MOL0     H87996  10.552   4.719   8.546 -0.0203  0.6674  0.1822
  667MOL0     H87997  10.538   4.432   8.310  0.2878 -0.0253 -1.4083
  667MOL0     H87998  10.514   4.393   8.062 -0.7449 -0.3551  2.1309
  667MOL0     H87999  10.456   4.522   7.955 -1.7101 -0.1023  0.1547
  667MOL0     H88000  10.226   4.471   8.076  2.2614  1.0236  1.7082
  667MOL0     H88001  10.298   4.318   8.116  0.7140 -1.4002 -0.5887
  667MOL0     H88002  10.294   4.402   7.821  0.4239 -1.2654  0.1262
  667MOL0     H88003  10.320   4.242   7.886 -1.2260 -1.4050 -0.1013
  667MOL0     H88004  10.127   4.211   7.809 -0.8579 -1.1303  0.5368
  667MOL0     H88005  10.077   4.386   7.821 -0.6340 -1.4382 -1.1221
  667MOL0     H88006   9.922   4.230   8.204  1.1294 -2.3202 -1.0586
  667MOL0     H88007   9.678   4.244   8.214 -3.1473 -2.7856 -0.8187
  667MOL0     H88008   9.295   4.083   8.033 -0.0532  2.9845  0.9588
  667MOL0     H88009   9.062   4.013   8.014 -0.3498 -0.8323 -0.8753
  667MOL0     H88010   8.836   4.003   7.982 -0.6565 -1.1567  0.3679
  667MOL0     H88011   8.851   3.971   7.804 -1.9611  2.1916 -3.4237
  667MOL0     H88012   8.605   3.943   7.902 -2.7141  0.8445 -1.7320
  667MOL0     H88013   8.628   4.065   7.775 -2.3957 -2.5391 -0.6272
  667MOL0     H88014   8.645   4.240   7.925 -0.8610 -1.1331 -3.1573
  667MOL0     H88015   8.655   4.139   8.070  0.7206 -0.1632 -0.4784
  667MOL0     H88016   8.423   4.051   7.972  1.2122 -0.7275 -2.7480
  667MOL0     H88017   8.429   4.218   8.074  0.0072  0.1768 -0.1688
  667MOL0     H88018   8.425   4.191   7.770 -1.0857 -0.3567  0.3554
  667MOL0     H88019   8.412   4.338   7.876 -2.9381  0.3217  2.6940
  667MOL0     H88020   8.195   4.236   7.970 -1.4050  0.2516 -0.6424
  667MOL0     H88021   8.219   4.092   7.879  1.3011  0.5630 -0.2843
  667MOL0     H88022   8.169   4.360   7.755  2.4467  0.9061 -0.0756
  667MOL0     H88023   8.219   4.222   7.672 -0.3669  0.4234  0.6943
  667MOL0     H88024   8.020   4.092   7.741 -0.7913 -0.2896 -2.3821
  667MOL0     H88025   7.970   4.237   7.656  1.1350  0.8608  0.0196
  667MOL0     H88026   9.013   4.364   7.748 -0.6887  1.0806  2.1162
  667MOL0     H88027   9.250   4.394   7.762  1.2734 -0.7395  0.1366
  667MOL0     H88028   9.645   4.270   7.788 -1.6892 -0.1784  0.9677
  667MOL0     H88029   9.890   4.301   7.777 -1.5270  1.0294 -0.8352
  667MOL0     H88030   9.900   4.486   9.093  1.5919 -0.7150 -1.3261
  667MOL0     H88031   9.689   4.584   9.060 -0.9127  1.2849 -1.1187
  667MOL0     H88032   9.461   4.949   8.998  1.5114 -1.4528  0.9054
  667MOL0     H88033   9.258   5.037   9.067 -0.4865 -0.2958 -0.4119
  667MOL0     H88034   9.035   5.029   9.245  2.3191  0.5045 -0.9980
  667MOL0     H88035   9.139   4.896   9.263  1.4885  2.7896 -0.9809
  667MOL0     H88036   8.935   4.740   9.278  1.1302 -0.0884 -0.7068
  667MOL0     H88037   8.946   4.867   9.412 -1.4423  0.4064  0.5637
  667MOL0     H88038   8.777   4.895   9.159  2.0638 -0.0314 -0.3506
  667MOL0     H88039   8.796   5.022   9.278 -0.3408 -0.0388 -0.7827
  667MOL0     H88040   8.583   4.888   9.325  0.4273 -0.0156  0.7757
  667MOL0     H88041   8.694   4.755   9.337  3.7742  0.2814 -0.0026
  667MOL0     H88042   8.681   4.914   9.731 -0.4262  1.1638 -0.1555
  667MOL0     H88043   9.050   4.678   8.976  1.1973 -2.1992  0.8552
  667MOL0     H88044   9.259   4.573   8.892 -0.2587  0.8406  0.2707
  668MOL0     O88045   3.370   1.509  10.492 -0.4886  0.2413  0.7667
  668MOL0     C88046   3.417   1.477  10.605  0.1593  0.2014 -0.3313
  668MOL0     O88047   3.348   1.491  10.730  0.9318  0.1909 -0.1084
  668MOL0     C88048   3.212   1.516  10.727 -0.3715 -1.0925 -0.2320
  668MOL0     C88049   3.157   1.630  10.658 -0.2033 -0.5239 -0.0449
  668MOL0     C88050   3.030   1.669  10.697 -0.5076  0.8976  0.8564
  668MOL0     C88051   2.951   1.585  10.784 -0.4137 -0.6875 -0.0411
  668MOL0     O88052   2.816   1.622  10.795 -0.5053 -0.1290 -0.1958
  668MOL0     C88053   2.755   1.600  10.922 -0.6836 -1.3992  1.6136
  668MOL0     C88054   2.634   1.686  10.915  0.0898  0.8611 -0.3217
  668MOL0     C88055   2.509   1.609  10.870  0.2329 -0.5207  0.6167
  668MOL0     C88056   2.382   1.703  10.894 -0.0499  0.4005 -0.6556
  668MOL0     C88057   2.265   1.678  10.784 -0.5149 -0.1598 -0.1202
  668MOL0     C88058   2.157   1.787  10.810  0.4605 -0.7707 -0.3107
  668MOL0     C88059   2.059   1.820  10.698  1.0158 -0.0277 -0.4854
  668MOL0     C88060   1.931   1.731  10.711 -0.1372  0.0055  0.4489
  668MOL0     N88061   1.813   1.792  10.637  0.0717  0.5573  0.0499
  668MOL0     C88062   1.806   1.829  10.511  0.1780 -0.1673  0.0078
  668MOL0     C88063   1.678   1.871  10.488  0.2217  0.2425 -0.5277
  668MOL0     C88064   1.618   1.923  10.363 -0.1811 -0.3913 -0.4196
  668MOL0     C88065   1.586   1.809  10.271  0.5310  1.2574 -0.5107
  668MOL0     C88066   1.461   1.724  10.335  0.7067 -0.7017 -0.3334
  668MOL0     C88067   1.327   1.794  10.353 -0.2799 -0.3001 -0.0863
  668MOL0     O88068   1.219   1.700  10.384 -0.3724 -0.2733  0.4066
  668MOL0     C88069   1.090   1.753  10.379  0.2448  0.4522  0.3544
  668MOL0     C88070   0.984   1.690  10.454 -0.1407  1.0130 -0.4660
  668MOL0     C88071   0.856   1.738  10.451 -0.2218 -0.0361 -0.2899
  668MOL0     C88072   0.812   1.836  10.367  0.0053 -1.0709 -0.2339
  668MOL0     C88073   0.672   1.873  10.348  0.3327 -0.4274  0.3619
  668MOL0     O88074   0.586   1.799  10.415 -0.1739  0.5011 -0.2616
  668MOL0     C88075   0.453   1.828  10.426  0.5088 -0.4127  0.6320
  668MOL0     C88076   0.408   1.946  10.480 -0.2340 -0.2365  0.0120
  668MOL0     C88077   0.267   1.956  10.496 -0.5566 -0.3240 -0.8789
  668MOL0     C88078   0.183   1.856  10.469  0.9698  0.7308 -0.8526
  668MOL0     O88079   0.045   1.858  10.491 -0.2247 -0.1265  0.5049
  668MOL0     C88080  -0.017   1.937  10.597  0.2088  0.3242 -0.2652
  668MOL0     C88081  -0.164   1.908  10.613 -0.6806  0.3574  0.8280
  668MOL0     C88082  -0.208   1.927  10.761  0.4467  0.5702  0.5723
  668MOL0     C88083  -0.210   2.068  10.795 -1.4648 -1.1119 -0.8266
  668MOL0     C88084  -0.287   2.100  10.919  0.2697  0.1688  0.1770
  668MOL0     C88085  -0.430   2.058  10.907 -0.8776  0.0644  0.4474
  668MOL0     C88086  -0.531   2.136  10.994 -0.5111  0.6550  0.2329
  668MOL0     C88087  -0.662   2.048  11.014 -0.5295  0.2531 -0.3405
  668MOL0    Cl88088  -0.629   1.923  11.142  0.2895 -0.3802 -0.0842
  668MOL0     C88089   0.229   1.733  10.424  0.3582 -0.4751 -1.0636
  668MOL0     C88090   0.368   1.719  10.408  0.2760 -0.0315 -0.0504
  668MOL0     O88091   0.644   1.976  10.277 -0.3033  0.3767 -0.1002
  668MOL0     C88092   0.910   1.902  10.295 -0.7551 -0.0731 -0.0659
  668MOL0     C88093   1.046   1.857  10.291  0.4442 -0.6682 -0.1664
  668MOL0     N88094   1.612   1.870  10.607 -0.2472  1.0964 -0.9834
  668MOL0     N88095   1.690   1.824  10.691 -0.2186 -0.4936 -0.1468
  668MOL0     C88096   3.007   1.472  10.839 -0.4442 -0.3314 -0.1897
  668MOL0     C88097   3.136   1.439  10.810  0.2592 -0.1197  0.7982
  668MOL0     C88098   3.552   1.416  10.610  0.1642  0.0288  0.2304
  668MOL0     C88099   3.628   1.405  10.490  0.4488  0.2479 -0.0475
  668MOL0     C88100   3.760   1.366  10.488  0.3397  0.7218 -0.8635
  668MOL0     C88101   3.819   1.337  10.613 -0.4373 -0.2220  0.2055
  668MOL0     O88102   3.955   1.307  10.608  0.0743  0.1095  0.8226
  668MOL0     C88103   4.030   1.286  10.727 -0.5210 -0.4049  0.8681
  668MOL0     C88104   4.185   1.267  10.719 -0.4548 -0.7987 -0.1681
  668MOL0     C88105   4.222   1.189  10.594 -0.7712 -0.3339 -1.1047
  668MOL0     C88106   4.368   1.200  10.576 -0.8333 -0.4272 -0.3397
  668MOL0     C88107   4.411   1.121  10.458  0.6075 -0.0372  0.7818
  668MOL0     C88108   4.432   1.076  10.348 -0.8983 -0.1951  0.8168
  668MOL0     C88109   3.746   1.340  10.731 -0.5683 -0.1778 -0.4103
  668MOL0     C88110   3.615   1.386  10.729 -0.8083  0.6861  0.8407
  668MOL0     H88111   3.212   1.679  10.579  0.4035  0.2368  0.8219
  668MOL0     H88112   2.993   1.745  10.628  0.0299  0.1665 -0.2640
  668MOL0     H88113   2.823   1.641  10.997 -1.0671  0.9033  0.7905
  668MOL0     H88114   2.730   1.495  10.940 -3.1655 -1.2169 -0.2293
  668MOL0     H88115   2.647   1.784  10.867 -2.0820  0.4825 -1.8511
  668MOL0     H88116   2.632   1.697  11.024  0.0482 -2.1871  0.0713
  668MOL0     H88117   2.490   1.522  10.933 -0.4838 -2.3429 -1.9455
  668MOL0     H88118   2.508   1.580  10.764 -2.4152 -0.8389  0.6653
  668MOL0     H88119   2.335   1.688  10.992 -0.4328  1.2816 -0.6977
  668MOL0     H88120   2.418   1.806  10.889  0.7837  0.1969  0.7139
  668MOL0     H88121   2.231   1.575  10.773  0.8201 -0.6242 -0.1515
  668MOL0     H88122   2.307   1.712  10.688 -0.3484 -1.9869 -0.7321
  668MOL0     H88123   2.207   1.883  10.829  2.3711 -1.2093 -2.5366
  668MOL0     H88124   2.096   1.758  10.896 -0.1993  4.6858  1.4584
  668MOL0     H88125   2.033   1.925  10.714  1.4994  0.1170 -0.6192
  668MOL0     H88126   2.107   1.799  10.602  2.1967 -1.5429  0.3871
  668MOL0     H88127   1.904   1.738  10.817 -2.5979 -1.1660 -0.0280
  668MOL0     H88128   1.952   1.633  10.667  1.2968  1.3570 -2.1576
  668MOL0     H88129   1.884   1.828  10.435  2.8127  2.6257  2.4267
  668MOL0     H88130   1.691   1.991  10.318 -0.0516 -1.6920 -2.2800
  668MOL0     H88131   1.533   1.985  10.392 -0.8258 -1.7231  0.6276
  668MOL0     H88132   1.670   1.740  10.257  0.4305  0.5330  2.0168
  668MOL0     H88133   1.551   1.847  10.175 -1.0223  0.8479 -0.1259
  668MOL0     H88134   1.450   1.641  10.264 -3.1687 -0.4037 -0.2946
  668MOL0     H88135   1.487   1.690  10.435 -4.9182  0.1616  1.7771
  668MOL0     H88136   1.298   1.833  10.255  0.3029  1.9184  0.5533
  668MOL0     H88137   1.340   1.872  10.429  0.9267  0.3943 -0.9658
  668MOL0     H88138   0.995   1.605  10.522 -1.1292  0.7966 -0.5607
  668MOL0     H88139   0.792   1.677  10.514  1.1103 -0.9562  0.2160
  668MOL0     H88140   0.476   2.024  10.509 -0.6406  0.0807  0.1232
  668MOL0     H88141   0.231   2.051  10.533  0.2736 -0.8729  1.5113
  668MOL0     H88142  -0.008   2.044  10.574  1.7067 -0.1598 -2.2054
  668MOL0     H88143   0.044   1.911  10.684 -0.7969 -5.5406 -0.9175
  668MOL0     H88144  -0.190   1.804  10.592 -1.3749  0.9464 -1.5090
  668MOL0     H88145  -0.214   1.967  10.536 -0.0435  0.7731  0.7261
  668MOL0     H88146  -0.138   1.870  10.822 -1.2149  0.0926  2.1199
  668MOL0     H88147  -0.306   1.881  10.777  0.1628  1.3252  1.0622
  668MOL0     H88148  -0.108   2.106  10.805 -1.3748 -1.0798 -1.8300
  668MOL0     H88149  -0.255   2.129  10.716 -0.1253  0.5400 -0.3587
  668MOL0     H88150  -0.297   2.209  10.914  0.4526  0.2577  1.4840
  668MOL0     H88151  -0.246   2.060  11.012  3.2359  0.6718 -0.8231
  668MOL0     H88152  -0.417   1.951  10.930  2.4528  0.1337 -0.5122
  668MOL0     H88153  -0.468   2.066  10.805  0.1688 -1.7339 -0.1372
  668MOL0     H88154  -0.477   2.155  11.087  2.8135  0.6136 -1.5590
  668MOL0     H88155  -0.562   2.223  10.935 -0.6705 -1.0247 -2.3075
  668MOL0     H88156  -0.685   1.997  10.920  0.8780 -3.0543  0.9515
  668MOL0     H88157  -0.748   2.115  11.024 -1.2375 -0.7295  0.3083
  668MOL0     H88158   0.153   1.658  10.403  0.8257 -0.6871 -2.0495
  668MOL0     H88159   0.414   1.621  10.398  1.0694  0.2972  0.3570
  668MOL0     H88160   0.878   1.976  10.222  1.5601  1.0960 -0.0191
  668MOL0     H88161   1.110   1.895  10.212  1.7267 -0.1597  1.0892
  668MOL0     H88162   2.948   1.427  10.918 -1.3672  2.8106  1.0468
  668MOL0     H88163   3.183   1.351  10.852  0.1749 -0.4702  0.1799
  668MOL0     H88164   3.585   1.433  10.394 -1.0284  1.5331  0.9338
  668MOL0     H88165   3.810   1.346  10.394 -1.2065  1.0688 -1.7903
  668MOL0     H88166   3.999   1.191  10.772 -0.3345 -1.9459 -2.0039
  668MOL0     H88167   4.015   1.369  10.796 -2.2374  1.7590 -1.8948
  668MOL0     H88168   4.217   1.371  10.704 -1.1300 -0.3539  1.2708
  668MOL0     H88169   4.221   1.231  10.816 -3.8767 -1.6489  0.9081
  668MOL0     H88170   4.166   1.215  10.504 -4.6796  0.5433  1.3211
  668MOL0     H88171   4.192   1.086  10.613  2.6895 -0.8171  3.6427
  668MOL0     H88172   4.393   1.306  10.567  1.0934 -0.4353  3.3523
  668MOL0     H88173   4.433   1.163  10.655  2.0676  1.3256 -1.7558
  668MOL0     H88174   4.465   1.035  10.254  0.0938 -0.7873  1.3989
  668MOL0     H88175   3.802   1.308  10.819  2.2622  3.2009 -0.7612
  668MOL0     H88176   3.561   1.401  10.822 -2.8520  1.6713 -0.4445
  669MOL0     O88177   3.035   7.411   3.623  0.0253 -0.6906 -0.1151
  669MOL0     C88178   3.020   7.283   3.625  0.4339 -0.0426  0.7497
  669MOL0     O88179   2.904   7.207   3.647  0.7279 -0.3664 -0.7950
  669MOL0     C88180   2.802   7.265   3.722 -0.3158  0.6423 -0.2734
  669MOL0     C88181   2.811   7.364   3.824 -0.3937  0.2944  0.3969
  669MOL0     C88182   2.696   7.415   3.895  0.8531 -0.7054  0.4957
  669MOL0     C88183   2.569   7.371   3.854  0.8943 -0.4284 -0.0193
  669MOL0     O88184   2.466   7.424   3.925  0.7264 -0.1426  0.2559
  669MOL0     C88185   2.337   7.360   3.923 -1.1749  0.1067  0.2677
  669MOL0     C88186   2.246   7.431   4.026 -0.3802 -0.0105 -0.9781
  669MOL0     C88187   2.103   7.368   4.035 -0.7739  0.4657  0.3594
  669MOL0     C88188   2.011   7.469   4.095  0.2482  0.4165 -0.8203
  669MOL0     C88189   1.878   7.397   4.119 -0.0081 -0.1543 -0.8063
  669MOL0     C88190   1.801   7.490   4.219 -0.3649  0.3605  0.3931
  669MOL0     C88191   1.662   7.440   4.263  0.2005 -0.1645 -0.0621
  669MOL0     C88192   1.587   7.551   4.340 -0.3523  0.6647 -0.4830
  669MOL0     N88193   1.449   7.508   4.373 -0.1599  0.9356  0.1147
  669MOL0     C88194   1.356   7.470   4.286  0.1101  0.4707  0.2426
  669MOL0     C88195   1.243   7.445   4.358 -0.0437 -1.2011  0.6892
  669MOL0     C88196   1.120   7.379   4.308  1.1828  0.3030 -0.2811
  669MOL0     C88197   1.027   7.482   4.260 -0.5110 -1.8777  0.4377
  669MOL0     C88198   0.899   7.416   4.231 -0.6004 -0.0500  0.1075
  669MOL0     C88199   0.796   7.508   4.164 -0.7630  0.0834 -0.3875
  669MOL0     O88200   0.677   7.441   4.169 -0.1957  0.1726 -0.5093
  669MOL0     C88201   0.566   7.477   4.101 -0.9117 -1.4849  0.3059
  669MOL0     C88202   0.449   7.405   4.123 -2.0763  0.2626 -0.0044
  669MOL0     C88203   0.333   7.445   4.065  0.2693  0.3058 -0.5140
  669MOL0     C88204   0.324   7.564   3.984  0.0385  0.0284  0.4606
  669MOL0     C88205   0.201   7.598   3.900  0.2174 -0.4914  0.3816
  669MOL0     O88206   0.188   7.710   3.828  0.4143 -0.6254  0.0533
  669MOL0     C88207   0.060   7.746   3.783  0.1659  0.0524  0.3985
  669MOL0     C88208   0.037   7.770   3.641 -0.5211  0.0839  0.0521
  669MOL0     C88209  -0.094   7.802   3.601  0.6228 -0.0717  0.5188
  669MOL0     C88210  -0.205   7.789   3.684  0.3698 -0.1991  0.1140
  669MOL0     O88211  -0.334   7.820   3.639 -0.2234 -0.3871  0.1947
  669MOL0     C88212  -0.368   7.840   3.503  0.7763  0.2319 -0.4301
  669MOL0     C88213  -0.523   7.845   3.485  0.1099  0.5024 -0.4991
  669MOL0     C88214  -0.597   7.731   3.539  0.1446  0.1647 -0.3909
  669MOL0     C88215  -0.751   7.752   3.523 -0.2102  0.5244  0.9316
  669MOL0     C88216  -0.840   7.651   3.600  1.2009  0.3797 -0.1267
  669MOL0     C88217  -0.847   7.516   3.535 -0.0521  0.5818  0.8569
  669MOL0     C88218  -0.970   7.448   3.583 -0.2160  0.0138 -0.3467
  669MOL0     C88219  -1.025   7.349   3.481  0.4197 -0.6440  0.2732
  669MOL0    Cl88220  -0.929   7.206   3.467 -0.1281  0.2051  0.1673
  669MOL0     C88221  -0.179   7.769   3.821  0.9127  0.0334  0.5789
  669MOL0     C88222  -0.053   7.748   3.869 -0.4351  0.6881 -0.1935
  669MOL0     O88223   0.107   7.518   3.906 -0.6711  0.0655 -0.6413
  669MOL0     C88224   0.439   7.642   3.967 -0.1767 -0.0627 -0.7397
  669MOL0     C88225   0.556   7.600   4.036  0.4380 -0.2178  0.5030
  669MOL0     N88226   1.277   7.468   4.489  0.4599  0.0198  0.1594
  669MOL0     N88227   1.399   7.507   4.496 -0.2995 -0.3001 -0.0333
  669MOL0     C88228   2.562   7.266   3.758  0.1463 -1.0146 -0.0843
  669MOL0     C88229   2.677   7.222   3.691  0.8556  0.5050  0.2774
  669MOL0     C88230   3.142   7.213   3.600 -0.9364  0.3075  0.0413
  669MOL0     C88231   3.266   7.277   3.584  0.4437 -0.7876  0.0861
  669MOL0     C88232   3.381   7.213   3.550 -0.4845  0.2917 -0.1851
  669MOL0     C88233   3.375   7.075   3.523 -0.1869 -0.0494  0.2414
  669MOL0     O88234   3.487   7.003   3.477  0.0651 -0.4654 -1.0155
  669MOL0     C88235   3.595   7.078   3.433  0.1449 -0.6887  0.0697
  669MOL0     C88236   3.719   7.002   3.386  0.4521 -0.2449 -0.4132
  669MOL0     C88237   3.834   7.101   3.395  0.2600 -0.2527  0.7486
  669MOL0     C88238   3.962   7.023   3.356  0.3835 -0.2589  0.8190
  669MOL0     C88239   4.077   7.112   3.343  0.2645  0.8787 -0.3343
  669MOL0     C88240   4.180   7.179   3.347 -0.1803  0.9199  1.3393
  669MOL0     C88241   3.260   7.012   3.544  0.7271  1.1870  0.2765
  669MOL0     C88242   3.143   7.077   3.566 -0.1758  0.1791  0.0007
  669MOL0     H88243   2.907   7.410   3.845 -0.2915  0.0153  0.5525
  669MOL0     H88244   2.694   7.491   3.972 -3.5333 -2.9894  3.0401
  669MOL0     H88245   2.352   7.255   3.953  2.8879  0.7213  0.8955
  669MOL0     H88246   2.290   7.368   3.824 -0.3103  1.1626 -0.0705
  669MOL0     H88247   2.227   7.531   3.985  0.7940  1.1689  1.1632
  669MOL0     H88248   2.288   7.444   4.126 -2.4427  1.9240 -0.2724
  669MOL0     H88249   2.095   7.283   4.104 -0.5864  1.8987  2.2082
  669MOL0     H88250   2.066   7.332   3.939 -2.1862  0.6240  0.8207
  669MOL0     H88251   2.053   7.514   4.184 -0.8167 -1.3484  0.6524
  669MOL0     H88252   1.982   7.547   4.024  0.6006  0.5727 -0.7947
  669MOL0     H88253   1.901   7.302   4.167  2.1399  0.9242  0.4047
  669MOL0     H88254   1.833   7.395   4.019  0.7955  1.5860 -1.2424
  669MOL0     H88255   1.789   7.591   4.179 -2.1025 -0.6157 -1.7861
  669MOL0     H88256   1.861   7.490   4.311  1.1784 -0.8130 -0.5525
  669MOL0     H88257   1.603   7.412   4.175 -1.2710 -0.2049  0.8904
  669MOL0     H88258   1.664   7.349   4.324  0.1752 -0.7712 -0.9612
  669MOL0     H88259   1.601   7.633   4.269  3.5583 -0.3222 -1.0595
  669MOL0     H88260   1.645   7.573   4.430  0.9043 -1.5326 -0.7011
  669MOL0     H88261   1.364   7.458   4.178  3.2700  0.8420  0.3387
  669MOL0     H88262   1.075   7.319   4.388 -1.2753  0.9727 -1.0793
  669MOL0     H88263   1.144   7.310   4.227  0.6617 -1.1346  0.7434
  669MOL0     H88264   1.069   7.540   4.177 -1.4491 -0.1247  1.1291
  669MOL0     H88265   1.011   7.547   4.346  1.3821 -1.7970  0.7615
  669MOL0     H88266   0.908   7.336   4.157 -1.1660  0.7028 -0.7969
  669MOL0     H88267   0.864   7.365   4.322 -3.4830  2.5183  0.6071
  669MOL0     H88268   0.825   7.529   4.060  1.4956  0.3530  0.2565
  669MOL0     H88269   0.792   7.605   4.214 -1.3994 -0.5413  0.8237
  669MOL0     H88270   0.463   7.308   4.169 -0.6447 -0.6226 -2.1528
  669MOL0     H88271   0.250   7.375   4.063  1.0658 -0.7975  1.8268
  669MOL0     H88272   0.123   7.784   3.577 -1.7072  2.0817 -1.2254
  669MOL0     H88273  -0.108   7.827   3.497 -0.9614  0.8554  0.9318
  669MOL0     H88274  -0.324   7.763   3.439 -0.1923 -1.1426  0.5024
  669MOL0     H88275  -0.329   7.938   3.476 -2.2832  2.0175  1.0373
  669MOL0     H88276  -0.534   7.850   3.376 -1.7941  2.8852 -0.2635
  669MOL0     H88277  -0.548   7.944   3.522  1.6313  0.4030  0.9410
  669MOL0     H88278  -0.578   7.729   3.646 -2.4519  0.2380  0.1299
  669MOL0     H88279  -0.552   7.643   3.492  1.2602  1.5978 -2.1867
  669MOL0     H88280  -0.773   7.849   3.569 -0.0162  0.7581  0.5453
  669MOL0     H88281  -0.774   7.762   3.416 -0.1139  0.2828  0.8885
  669MOL0     H88282  -0.938   7.699   3.610  0.9351  0.8921 -3.7915
  669MOL0     H88283  -0.802   7.640   3.702  0.3177  2.0964  0.4330
  669MOL0     H88284  -0.762   7.459   3.574  1.1758  1.9704  0.3314
  669MOL0     H88285  -0.848   7.514   3.426  1.0157  0.4949  0.8352
  669MOL0     H88286  -0.946   7.400   3.678  3.0190  2.9000  0.5152
  669MOL0     H88287  -1.041   7.525   3.615  2.2765  2.1332  0.4208
  669MOL0     H88288  -1.022   7.393   3.382  1.4511 -3.2142 -0.9358
  669MOL0     H88289  -1.127   7.317   3.501  0.6613 -1.0990  0.8271
  669MOL0     H88290  -0.258   7.765   3.896  1.7627 -1.0599  1.4607
  669MOL0     H88291  -0.042   7.743   3.977  0.6347 -1.4830 -0.3638
  669MOL0     H88292   0.430   7.723   3.896  0.9564  2.5454  1.9180
  669MOL0     H88293   0.647   7.658   4.020 -1.3248  2.8123  0.5915
  669MOL0     H88294   2.470   7.226   3.717 -0.9520  0.4231  0.8857
  669MOL0     H88295   2.665   7.151   3.610 -1.4403  2.8411 -1.5696
  669MOL0     H88296   3.275   7.378   3.622  0.7117 -0.1397 -1.5809
  669MOL0     H88297   3.472   7.271   3.540 -1.3183  1.8468  0.8148
  669MOL0     H88298   3.628   7.153   3.506  0.8469 -0.1542 -0.7870
  669MOL0     H88299   3.542   7.131   3.354  1.2082 -0.2751 -0.3849
  669MOL0     H88300   3.737   6.909   3.440 -1.5239  0.0136  0.8167
  669MOL0     H88301   3.708   6.973   3.281  1.1344 -0.4982 -0.4143
  669MOL0     H88302   3.850   7.144   3.494  2.5875 -0.9094  0.7158
  669MOL0     H88303   3.816   7.183   3.324 -3.6591 -0.5447  1.2075
  669MOL0     H88304   3.978   6.951   3.436 -0.6918 -0.0702  1.2161
  669MOL0     H88305   3.945   6.969   3.262  1.1983  0.6090  0.1523
  669MOL0     H88306   4.272   7.233   3.338  0.0048  0.2412 -2.8748
  669MOL0     H88307   3.267   6.905   3.530  1.7583  1.3116 -0.2489
  669MOL0     H88308   3.058   7.012   3.581  2.7584 -3.8247  0.7844
  670MOL0     O88309   5.230   8.502   4.639  0.0697 -0.2465 -0.5966
  670MOL0     C88310   5.197   8.441   4.530 -0.3100  0.3328  0.5333
  670MOL0     O88311   5.279   8.418   4.420  0.0849 -0.7376 -0.3498
  670MOL0     C88312   5.402   8.486   4.408  0.7184  0.2729 -0.4558
  670MOL0     C88313   5.413   8.565   4.298  0.1142  0.6840 -0.0162
  670MOL0     C88314   5.542   8.604   4.255 -0.2710 -0.5802 -0.0558
  670MOL0     C88315   5.656   8.559   4.324  0.2722  0.6691  1.3939
  670MOL0     O88316   5.786   8.588   4.292 -0.4257 -0.8392 -0.5661
  670MOL0     C88317   5.806   8.707   4.213  0.3383  0.3376  0.7717
  670MOL0     C88318   5.953   8.759   4.216  1.0262  0.5180  0.5347
  670MOL0     C88319   6.005   8.806   4.347 -0.2212  0.7853  0.9880
  670MOL0     C88320   6.042   8.690   4.434 -0.8000 -0.3650 -0.5205
  670MOL0     C88321   6.135   8.739   4.548 -0.5907 -0.4226 -0.3938
  670MOL0     C88322   6.182   8.630   4.624 -0.1305  1.4356  0.1125
  670MOL0     C88323   6.310   8.662   4.700  0.0877  0.1623  0.5638
  670MOL0     C88324   6.369   8.541   4.776 -0.0618  0.7345  0.2875
  670MOL0     N88325   6.362   8.404   4.707  0.7667 -0.5440  0.3153
  670MOL0     C88326   6.275   8.298   4.723  0.0848  0.2304 -0.1775
  670MOL0     C88327   6.324   8.206   4.639 -0.7240 -1.2260 -0.6854
  670MOL0     C88328   6.280   8.066   4.633 -0.2450  0.0597  0.2289
  670MOL0     C88329   6.407   7.977   4.603  0.0322 -0.1766 -1.0256
  670MOL0     C88330   6.387   7.823   4.581  0.2964  0.1059 -0.0390
  670MOL0     C88331   6.297   7.757   4.685  0.5294  0.4911 -0.3754
  670MOL0     O88332   6.156   7.799   4.672 -0.1078 -0.0386  0.0846
  670MOL0     C88333   6.090   7.805   4.787 -0.6902  0.1275  0.4373
  670MOL0     C88334   6.095   7.707   4.881  0.1891  0.6275 -1.4371
  670MOL0     C88335   6.002   7.717   4.991 -0.7042 -0.5594 -0.0768
  670MOL0     C88336   5.915   7.825   5.010 -0.1283  0.8681 -0.0797
  670MOL0     C88337   5.808   7.826   5.110 -0.2552  0.5371 -0.3147
  670MOL0     O88338   5.785   7.707   5.167  1.3115  0.4298 -0.0036
  670MOL0     C88339   5.658   7.678   5.212 -0.4615  0.1181  0.6057
  670MOL0     C88340   5.618   7.699   5.346 -0.5201  0.3551  0.1591
  670MOL0     C88341   5.487   7.666   5.383 -0.6016 -0.6678 -0.4980
  670MOL0     C88342   5.398   7.622   5.289 -0.3966 -0.3824 -0.4339
  670MOL0     O88343   5.276   7.583   5.328 -0.0000  0.6633  0.1794
  670MOL0     C88344   5.184   7.694   5.332  0.9192  0.4809 -0.7847
  670MOL0     C88345   5.038   7.645   5.336 -0.2940  0.3044 -0.0719
  670MOL0     C88346   5.009   7.513   5.407  0.0720 -0.5811  0.3563
  670MOL0     C88347   4.854   7.500   5.418 -0.0538 -0.0653 -0.5235
  670MOL0     C88348   4.826   7.371   5.489  0.2381  0.8014  0.2545
  670MOL0     C88349   4.878   7.344   5.629 -0.0208  0.4394 -0.4264
  670MOL0     C88350   4.855   7.450   5.723 -0.9281  0.1212 -0.1151
  670MOL0     C88351   4.713   7.498   5.739  0.7249  0.3754  0.2925
  670MOL0    Cl88352   4.613   7.363   5.783  0.0320 -0.1729 -0.5309
  670MOL0     C88353   5.432   7.612   5.154  0.9307  0.4373 -0.0251
  670MOL0     C88354   5.563   7.637   5.120 -1.4969  0.6648 -0.1016
  670MOL0     O88355   5.730   7.921   5.111  0.3196  0.2302 -0.1815
  670MOL0     C88356   5.934   7.924   4.920 -0.3448  0.3763  0.2747
  670MOL0     C88357   6.017   7.918   4.807 -0.2953 -0.8198  0.2182
  670MOL0     N88358   6.435   8.259   4.565 -0.2384 -0.2332 -0.2198
  670MOL0     N88359   6.455   8.380   4.605 -0.1517  0.0230  0.4178
  670MOL0     C88360   5.637   8.480   4.438 -0.4608  0.1506 -1.0385
  670MOL0     C88361   5.509   8.450   4.482  0.2011 -0.5254 -0.3225
  670MOL0     C88362   5.067   8.373   4.534 -1.2012  0.2564  0.4024
  670MOL0     C88363   4.980   8.386   4.643  0.0518  0.7306 -0.9094
  670MOL0     C88364   4.861   8.322   4.644  0.7816  0.6008  0.9987
  670MOL0     C88365   4.809   8.247   4.535 -0.4779 -0.0528 -0.7491
  670MOL0     O88366   4.692   8.172   4.552  0.0870 -0.4408 -0.3016
  670MOL0     C88367   4.622   8.159   4.678  0.5557 -0.5730  1.1575
  670MOL0     C88368   4.504   8.058   4.660 -0.1958 -0.4203 -0.5262
  670MOL0     C88369   4.378   8.065   4.749 -0.4322 -0.5881  0.3683
  670MOL0     C88370   4.413   8.035   4.901  0.0298 -0.4318  0.3418
  670MOL0     C88371   4.292   8.010   4.988  0.3895 -0.9132 -0.0313
  670MOL0     C88372   4.200   8.004   5.072 -0.4442  0.7173 -0.0072
  670MOL0     C88373   4.900   8.239   4.418 -0.3509  0.0021  0.0111
  670MOL0     C88374   5.023   8.300   4.423 -0.5850  0.2883 -0.6585
  670MOL0     H88375   5.326   8.603   4.245  1.3307  5.2564  0.8137
  670MOL0     H88376   5.556   8.663   4.165  0.7245 -0.3889  0.2072
  670MOL0     H88377   5.739   8.788   4.246  0.3386  0.2702  0.9378
  670MOL0     H88378   5.786   8.677   4.110  0.2842  0.3102  0.7902
  670MOL0     H88379   5.958   8.844   4.147  0.4602 -0.2824 -0.5335
  670MOL0     H88380   6.021   8.683   4.177 -1.8692 -0.8969 -2.1768
  670MOL0     H88381   5.933   8.873   4.394  1.9453  1.8807  2.9020
  670MOL0     H88382   6.096   8.858   4.318 -0.9562  1.7618  0.3572
  670MOL0     H88383   5.954   8.654   4.487 -1.4269  0.8277 -0.7177
  670MOL0     H88384   6.092   8.615   4.373 -1.9494  0.3296 -2.3914
  670MOL0     H88385   6.080   8.812   4.608 -0.0395  0.3203 -0.7688
  670MOL0     H88386   6.209   8.797   4.491 -1.3629  2.0244  0.9586
  670MOL0     H88387   6.209   8.551   4.554 -2.8771  0.6568 -0.1821
  670MOL0     H88388   6.099   8.595   4.687 -0.1833 -0.6927 -1.0531
  670MOL0     H88389   6.384   8.693   4.626 -0.2416  2.1288  1.0011
  670MOL0     H88390   6.294   8.745   4.770 -0.4505 -0.1863  0.8672
  670MOL0     H88391   6.315   8.526   4.870 -1.3541  2.9061 -0.0535
  670MOL0     H88392   6.475   8.558   4.800  0.2400 -1.3122  0.5787
  670MOL0     H88393   6.194   8.271   4.789 -0.5871 -0.5129 -1.2560
  670MOL0     H88394   6.207   8.057   4.552 -2.0059  1.8929  1.4857
  670MOL0     H88395   6.232   8.038   4.728 -2.2703 -0.6709 -0.9363
  670MOL0     H88396   6.467   7.996   4.692 -1.8196 -1.6337  0.6354
  670MOL0     H88397   6.461   8.016   4.516  2.1643  1.8798  1.0818
  670MOL0     H88398   6.348   7.795   4.483 -1.5691 -0.5256  0.8372
  670MOL0     H88399   6.487   7.780   4.596 -0.4150 -1.1182  1.5307
  670MOL0     H88400   6.332   7.783   4.785 -2.6361  0.3694  0.8726
  670MOL0     H88401   6.302   7.649   4.674  0.3172  0.6020 -1.7876
  670MOL0     H88402   6.149   7.616   4.859  1.0530  0.8563 -0.3341
  670MOL0     H88403   5.998   7.631   5.057 -2.1734  0.3182  1.0371
  670MOL0     H88404   5.694   7.717   5.422  1.6063  0.6825 -1.9076
  670MOL0     H88405   5.461   7.668   5.489 -1.0746  1.6066 -0.6138
  670MOL0     H88406   5.200   7.754   5.242  1.7308  1.4079 -0.0287
  670MOL0     H88407   5.213   7.759   5.415 -1.6068 -1.0794  1.4902
  670MOL0     H88408   5.000   7.647   5.233 -0.5049  0.8295  0.0146
  670MOL0     H88409   4.987   7.724   5.391 -0.8270  2.1059 -2.9058
  670MOL0     H88410   5.057   7.514   5.505  0.7159 -0.7313  0.0455
  670MOL0     H88411   5.054   7.426   5.357  0.1397 -1.8909  2.5615
  670MOL0     H88412   4.812   7.590   5.461 -0.7726 -0.1107 -1.1170
  670MOL0     H88413   4.812   7.492   5.317 -0.7080  0.8936 -0.3252
  670MOL0     H88414   4.854   7.283   5.432 -3.2143  0.0099 -0.4845
  670MOL0     H88415   4.716   7.364   5.491  0.1556  1.9561  2.0057
  670MOL0     H88416   4.984   7.316   5.624  0.4857  1.5257  2.3413
  670MOL0     H88417   4.822   7.255   5.660 -0.8926  1.8967  2.4712
  670MOL0     H88418   4.895   7.421   5.821  1.1894 -0.1440 -1.0005
  670MOL0     H88419   4.919   7.535   5.699 -0.8996  0.5022  1.2263
  670MOL0     H88420   4.689   7.548   5.645  0.4205 -1.3783 -0.5991
  670MOL0     H88421   4.703   7.564   5.826 -0.9004  1.8135 -0.9149
  670MOL0     H88422   5.356   7.577   5.084 -1.6829 -2.8283  3.9678
  670MOL0     H88423   5.599   7.635   5.017  0.8762 -0.8713  0.6850
  670MOL0     H88424   5.881   8.019   4.916  1.4816  1.4228 -2.4028
  670MOL0     H88425   6.030   8.002   4.739  1.4072  0.0651  1.5606
  670MOL0     H88426   5.721   8.434   4.489 -1.4034 -0.9824 -0.4600
  670MOL0     H88427   5.513   8.374   4.560  2.1687  0.3088  0.4604
  670MOL0     H88428   5.014   8.445   4.727 -1.1902 -0.6746  0.6619
  670MOL0     H88429   4.802   8.333   4.735 -2.2907 -2.4424 -0.3955
  670MOL0     H88430   4.584   8.256   4.711 -3.7642 -1.1399 -1.3355
  670MOL0     H88431   4.690   8.118   4.754  1.6183  0.3157  0.7073
  670MOL0     H88432   4.471   8.087   4.560  1.0264  0.4484 -0.7057
  670MOL0     H88433   4.546   7.957   4.652  2.1651  0.2838  1.6551
  670MOL0     H88434   4.301   7.990   4.726 -1.0425 -0.3012  1.3777
  670MOL0     H88435   4.331   8.162   4.731 -3.4891 -2.3374 -2.1349
  670MOL0     H88436   4.476   7.945   4.904 -1.7098 -1.7520 -0.8102
  670MOL0     H88437   4.466   8.119   4.948 -0.4171  0.6487 -1.0336
  670MOL0     H88438   4.140   7.995   5.160  1.0033 -0.2641  0.9399
  670MOL0     H88439   4.890   8.179   4.328  0.9107  1.5000 -1.1913
  670MOL0     H88440   5.095   8.297   4.342 -1.1855  1.6318 -1.2701
  671MOL0     O88441   2.487   2.965   6.215 -0.3876 -0.0422 -0.3912
  671MOL0     C88442   2.508   2.986   6.331  0.4354 -0.6737 -0.1390
  671MOL0     O88443   2.413   2.977   6.424  0.0826 -0.1564  0.4652
  671MOL0     C88444   2.280   2.946   6.400  0.3105  0.4779 -1.2754
  671MOL0     C88445   2.232   2.875   6.287 -0.3494  0.2705 -0.6971
  671MOL0     C88446   2.091   2.877   6.262 -0.3365 -0.2481  0.1668
  671MOL0     C88447   2.005   2.942   6.348 -0.5002  0.3398 -0.4426
  671MOL0     O88448   1.868   2.953   6.345 -0.7730  0.7322  0.0572
  671MOL0     C88449   1.801   2.956   6.216  0.1956  0.0041 -0.0315
  671MOL0     C88450   1.650   2.982   6.247  0.3911  0.7880 -0.1573
  671MOL0     C88451   1.585   2.882   6.339  0.3501  0.1038 -0.0143
  671MOL0     C88452   1.442   2.935   6.378  0.4567 -0.3689  0.0792
  671MOL0     C88453   1.357   2.821   6.444  0.4559 -0.1400  0.0579
  671MOL0     C88454   1.204   2.814   6.429 -0.4994 -0.5291  0.2521
  671MOL0     C88455   1.144   2.688   6.431 -0.2525  0.3143 -0.0163
  671MOL0     C88456   1.138   2.615   6.566  0.1391  0.2055  0.2007
  671MOL0     N88457   1.076   2.700   6.669  1.0060  0.3582  0.4505
  671MOL0     C88458   0.951   2.759   6.655  0.0074 -0.5675 -0.7514
  671MOL0     C88459   0.939   2.832   6.773 -0.6502 -0.3355  0.3242
  671MOL0     C88460   0.830   2.928   6.793 -0.1916 -1.2380  0.7978
  671MOL0     C88461   0.721   2.867   6.874  0.3765 -0.1167 -0.0009
  671MOL0     C88462   0.613   2.965   6.903 -0.2565  0.9906 -0.4612
  671MOL0     C88463   0.474   2.903   6.945 -0.1637 -0.5456 -0.1464
  671MOL0     O88464   0.417   2.843   6.827 -0.4351 -0.3618  0.1122
  671MOL0     C88465   0.286   2.804   6.825 -0.1672  0.8251 -0.0421
  671MOL0     C88466   0.225   2.757   6.939  0.5553 -0.4064  0.2523
  671MOL0     C88467   0.100   2.684   6.930  0.4928  0.1729 -0.2192
  671MOL0     C88468   0.033   2.666   6.802 -0.1673  0.4482  0.0449
  671MOL0     C88469  -0.099   2.599   6.792 -0.0630 -0.3966 -0.1084
  671MOL0     O88470  -0.159   2.603   6.664  0.2146 -0.1059 -0.4342
  671MOL0     C88471  -0.289   2.547   6.654  0.1443 -0.1005 -0.3273
  671MOL0     C88472  -0.313   2.441   6.578 -0.4691  1.1175 -0.9286
  671MOL0     C88473  -0.443   2.393   6.559  0.7753  0.3843 -0.3080
  671MOL0     C88474  -0.549   2.439   6.630 -0.2709 -0.5544 -0.6480
  671MOL0     O88475  -0.665   2.381   6.602 -0.2910  0.0520 -0.5256
  671MOL0     C88476  -0.778   2.459   6.644 -0.2104  0.3256 -0.1750
  671MOL0     C88477  -0.882   2.444   6.535 -0.2143  0.3780 -0.2508
  671MOL0     C88478  -0.966   2.318   6.549 -0.1273 -0.1146  0.3136
  671MOL0     C88479  -1.083   2.325   6.650 -0.3031 -0.1570 -0.4035
  671MOL0     C88480  -1.194   2.215   6.640 -0.4672  0.3449  0.3927
  671MOL0     C88481  -1.317   2.230   6.734 -0.2723  0.2163 -0.5549
  671MOL0     C88482  -1.410   2.111   6.729 -0.2516 -0.1728 -0.3168
  671MOL0     C88483  -1.514   2.117   6.840  0.2409  0.2696  0.5395
  671MOL0    Cl88484  -1.624   1.975   6.842 -0.2333 -0.1884 -0.0129
  671MOL0     C88485  -0.524   2.544   6.724  0.0695  0.0390  0.4215
  671MOL0     C88486  -0.391   2.597   6.732 -0.0811  0.2438  0.1931
  671MOL0     O88487  -0.149   2.541   6.887  0.1413 -0.3194 -0.3453
  671MOL0     C88488   0.100   2.719   6.690  1.3633  0.8563 -0.8490
  671MOL0     C88489   0.227   2.779   6.700 -0.2050 -0.1963 -0.1877
  671MOL0     N88490   1.054   2.824   6.850 -0.8457  0.0486 -0.0977
  671MOL0     N88491   1.134   2.752   6.785  0.1313  0.0461  0.2409
  671MOL0     C88492   2.049   2.973   6.478  0.2347 -0.1755  0.0426
  671MOL0     C88493   2.187   2.983   6.505 -0.8433 -0.3277  0.3454
  671MOL0     C88494   2.638   3.015   6.382  0.1548 -0.6936 -0.9329
  671MOL0     C88495   2.667   3.046   6.521 -0.1729  0.3110  0.6757
  671MOL0     C88496   2.790   3.083   6.563  0.5090 -0.3092 -0.6984
  671MOL0     C88497   2.907   3.090   6.480  1.2271  0.5055  0.6009
  671MOL0     O88498   3.031   3.130   6.527  0.6744  0.2844  0.6203
  671MOL0     C88499   3.147   3.079   6.460  0.1421  0.5515  0.1168
  671MOL0     C88500   3.196   2.946   6.518  0.5098  0.3392  0.3921
  671MOL0     C88501   3.294   2.868   6.425 -0.5589  0.3720 -0.8569
  671MOL0     C88502   3.434   2.937   6.434  0.4181  0.7764  0.7755
  671MOL0     C88503   3.542   2.853   6.382  0.8254  1.1712  0.6970
  671MOL0     C88504   3.641   2.789   6.351 -0.3851  0.6849  0.7083
  671MOL0     C88505   2.881   3.061   6.342  0.6204 -0.6752 -0.7276
  671MOL0     C88506   2.750   3.028   6.298 -0.1484  0.1387  0.2638
  671MOL0     H88507   2.279   2.832   6.199 -1.2701  0.4881 -1.3116
  671MOL0     H88508   2.066   2.817   6.175  0.0248  1.8274 -1.4323
  671MOL0     H88509   1.808   2.858   6.168 -3.0184 -0.8492  1.0410
  671MOL0     H88510   1.848   3.038   6.161 -0.8800  0.7638  0.1407
  671MOL0     H88511   1.598   2.965   6.153  3.0704 -0.9996 -1.4314
  671MOL0     H88512   1.637   3.088   6.271  2.4432  1.6275 -2.4118
  671MOL0     H88513   1.650   2.862   6.425  1.2001 -1.1618 -0.9209
  671MOL0     H88514   1.572   2.783   6.295  0.4046 -1.2108  2.7308
  671MOL0     H88515   1.440   3.022   6.444 -0.6198 -0.8510  0.7085
  671MOL0     H88516   1.381   2.960   6.291 -0.9057 -0.3896  0.9958
  671MOL0     H88517   1.388   2.836   6.548  1.2002  1.1107 -0.3278
  671MOL0     H88518   1.392   2.722   6.413 -2.5963 -1.1768 -0.3963
  671MOL0     H88519   1.183   2.855   6.330 -0.2875 -1.6121 -0.2624
  671MOL0     H88520   1.148   2.888   6.485 -1.2212  1.2774 -2.6323
  671MOL0     H88521   1.041   2.696   6.397 -0.3263 -1.3354 -0.2482
  671MOL0     H88522   1.203   2.633   6.357  1.7888  1.9075  0.3296
  671MOL0     H88523   1.238   2.574   6.589 -0.6265 -3.9696 -2.7862
  671MOL0     H88524   1.064   2.536   6.549 -0.4420  0.5994  0.8585
  671MOL0     H88525   0.882   2.751   6.571 -1.0238 -1.0756  0.1129
  671MOL0     H88526   0.789   2.968   6.700  1.3614  1.4005  1.1304
  671MOL0     H88527   0.875   3.020   6.833  3.3701 -0.1219 -4.6115
  671MOL0     H88528   0.765   2.861   6.974 -0.8860  1.4215  0.6828
  671MOL0     H88529   0.694   2.775   6.821  1.1709  0.1570 -0.9201
  671MOL0     H88530   0.647   3.035   6.980  0.3150 -1.0504  1.2406
  671MOL0     H88531   0.597   3.030   6.816  0.0239  1.6603 -0.0277
  671MOL0     H88532   0.402   2.978   6.977 -1.0546 -1.6029  0.3754
  671MOL0     H88533   0.487   2.842   7.035 -0.6737  0.5482  0.6917
  671MOL0     H88534   0.274   2.782   7.032  2.6945  1.2863 -1.2226
  671MOL0     H88535   0.046   2.661   7.021 -0.7363  0.2869 -0.8932
  671MOL0     H88536  -0.236   2.403   6.511 -2.6544  0.9509 -3.5160
  671MOL0     H88537  -0.476   2.320   6.485 -1.4715  1.1011 -0.0918
  671MOL0     H88538  -0.769   2.566   6.666 -2.9977  0.2139  2.0705
  671MOL0     H88539  -0.815   2.410   6.734 -0.5637 -0.3229 -0.6656
  671MOL0     H88540  -0.828   2.433   6.441  0.3152 -0.4664  0.1418
  671MOL0     H88541  -0.943   2.534   6.532  1.8926  2.0221  2.0338
  671MOL0     H88542  -0.896   2.242   6.584  3.9952  1.8841 -2.6762
  671MOL0     H88543  -1.010   2.285   6.454 -0.5923 -2.6912  1.3412
  671MOL0     H88544  -1.042   2.316   6.751  2.2413 -0.7562 -1.4327
  671MOL0     H88545  -1.128   2.425   6.658  2.9659  1.3550  0.6082
  671MOL0     H88546  -1.135   2.125   6.657 -1.1240 -0.0664  0.5479
  671MOL0     H88547  -1.247   2.204   6.545  0.4666  0.3516 -0.1342
  671MOL0     H88548  -1.360   2.328   6.715  0.2346  1.1812  2.7271
  671MOL0     H88549  -1.286   2.235   6.839  0.7055 -2.2926 -0.6390
  671MOL0     H88550  -1.447   2.094   6.627  1.5979 -4.9641 -0.4733
  671MOL0     H88551  -1.347   2.024   6.749 -2.1719 -1.0871  2.1155
  671MOL0     H88552  -1.573   2.208   6.830 -1.4683 -0.6903  1.4355
  671MOL0     H88553  -1.462   2.125   6.936  1.9019  0.1096 -0.3088
  671MOL0     H88554  -0.605   2.592   6.778 -0.8839 -0.3894 -0.5906
  671MOL0     H88555  -0.376   2.677   6.805  2.2214  0.4960 -0.4816
  671MOL0     H88556   0.058   2.701   6.592  1.7702 -0.2717 -0.8370
  671MOL0     H88557   0.269   2.835   6.618  0.3020 -0.5437 -0.1731
  671MOL0     H88558   1.980   2.999   6.557  1.5839  0.6127  0.9855
  671MOL0     H88559   2.237   3.011   6.597  0.5067 -1.1419 -0.1017
  671MOL0     H88560   2.587   3.036   6.594 -0.4995  0.9777  0.4197
  671MOL0     H88561   2.796   3.116   6.666 -0.2067  2.7706 -1.5497
  671MOL0     H88562   3.231   3.149   6.472 -0.3462  1.2177 -0.2818
  671MOL0     H88563   3.135   3.069   6.352  0.1965  1.9496 -0.0402
  671MOL0     H88564   3.237   2.974   6.615  0.9345 -0.5437  0.4741
  671MOL0     H88565   3.110   2.879   6.526 -2.5265  3.4718 -2.5834
  671MOL0     H88566   3.252   2.870   6.324 -1.3707  3.1199 -0.5687
  671MOL0     H88567   3.317   2.771   6.470  0.2914  0.8035 -0.3273
  671MOL0     H88568   3.447   3.033   6.383  0.6595  1.7344  2.5435
  671MOL0     H88569   3.458   2.963   6.538  1.1469  2.0385  0.3211
  671MOL0     H88570   3.723   2.723   6.330  2.1354  3.0539  2.3673
  671MOL0     H88571   2.960   3.060   6.268  0.2104  0.7629 -1.2083
  671MOL0     H88572   2.750   3.009   6.191  2.3951  0.3404  0.1700
  672MOL0     O88573  10.575   6.110   3.464  0.0473  0.8874  0.3792
  672MOL0     C88574  10.480   6.100   3.387 -0.1343  0.0800 -0.7484
  672MOL0     O88575  10.461   6.169   3.274  0.1808 -0.4347  0.2465
  672MOL0     C88576  10.560   6.247   3.224  0.9838  1.4631  0.2415
  672MOL0     C88577  10.511   6.339   3.133 -0.9488  0.2826 -0.0957
  672MOL0     C88578  10.600   6.405   3.043  1.0825  0.7170 -0.6098
  672MOL0     C88579  10.735   6.400   3.056 -0.8946  0.4224  0.0123
  672MOL0     O88580  10.809   6.467   2.963 -0.8899  0.2737  0.1221
  672MOL0     C88581  10.950   6.482   2.976  0.7000  0.7880 -0.8721
  672MOL0     C88582  11.039   6.398   2.880 -0.5370  0.5553  0.0762
  672MOL0     C88583  11.191   6.420   2.906  0.7726 -0.7980 -0.3355
  672MOL0     C88584  11.276   6.330   2.823 -0.0276 -0.0901 -0.3698
  672MOL0     C88585  11.414   6.330   2.886 -0.1176  0.5152  0.3810
  672MOL0     C88586  11.518   6.233   2.808  0.5869 -0.2521 -0.5623
  672MOL0     C88587  11.547   6.290   2.668 -0.2296  0.7697 -0.7211
  672MOL0     C88588  11.667   6.225   2.589 -0.2206  0.2787 -0.0040
  672MOL0     N88589  11.662   6.079   2.580 -0.4274  0.1313 -0.0912
  672MOL0     C88590  11.635   5.995   2.476 -0.1565 -0.0489 -0.1772
  672MOL0     C88591  11.640   5.871   2.524 -0.0174 -0.0182 -0.5752
  672MOL0     C88592  11.621   5.742   2.454  0.4507 -0.5332  0.3257
  672MOL0     C88593  11.475   5.715   2.434 -0.0764  0.8820 -0.4988
  672MOL0     C88594  11.395   5.653   2.555 -0.2763 -0.3510  0.1931
  672MOL0     C88595  11.250   5.626   2.516 -0.5108  0.2388 -0.3099
  672MOL0     O88596  11.168   5.748   2.496 -0.1570  0.8695 -0.6081
  672MOL0     C88597  11.031   5.741   2.490  0.3754 -0.1336 -0.2834
  672MOL0     C88598  10.971   5.858   2.443 -0.4692 -0.4958  0.0319
  672MOL0     C88599  10.834   5.884   2.437  1.3806 -0.2722  0.0728
  672MOL0     C88600  10.747   5.777   2.470  0.1161 -0.3014 -0.5955
  672MOL0     C88601  10.592   5.778   2.456  0.1538 -0.1131  0.1671
  672MOL0     O88602  10.529   5.902   2.451 -0.0153 -0.0012  0.1971
  672MOL0     C88603  10.395   5.917   2.467  0.7959 -0.2010 -0.0812
  672MOL0     C88604  10.346   6.042   2.426  1.1112 -0.5391 -0.1937
  672MOL0     C88605  10.220   6.085   2.469  0.6628 -0.8467  0.4779
  672MOL0     C88606  10.125   5.999   2.526 -0.0107  0.6634  0.3828
  672MOL0     O88607   9.994   6.039   2.536  0.2063  0.7403 -0.3053
  672MOL0     C88608   9.966   6.146   2.619 -0.4187 -0.4374  0.8892
  672MOL0     C88609   9.813   6.182   2.615 -0.8470  0.6003  0.6000
  672MOL0     C88610   9.790   6.326   2.660  0.5027  0.0516 -0.0560
  672MOL0     C88611   9.637   6.371   2.661  0.4503  0.0364 -0.1845
  672MOL0     C88612   9.576   6.383   2.515 -0.1152  0.8652 -0.8055
  672MOL0     C88613   9.424   6.414   2.504 -0.0156 -0.2318  0.1587
  672MOL0     C88614   9.404   6.554   2.550 -0.7236 -0.4846 -0.2929
  672MOL0     C88615   9.281   6.600   2.477 -0.4524  0.0168 -0.1882
  672MOL0    Cl88616   9.230   6.758   2.536 -0.0895 -0.3402 -0.2225
  672MOL0     C88617  10.175   5.869   2.567 -0.2312  0.3979  0.9005
  672MOL0     C88618  10.306   5.834   2.545  0.8703  0.3307  0.7469
  672MOL0     O88619  10.536   5.667   2.449 -0.1448 -0.7936  0.3764
  672MOL0     C88620  10.812   5.662   2.537  0.9013 -0.2399  0.2368
  672MOL0     C88621  10.954   5.641   2.536  0.4860 -0.6592  0.0434
  672MOL0     N88622  11.681   5.872   2.654  0.1315 -0.5019 -0.3173
  672MOL0     N88623  11.713   5.994   2.683 -0.0452  0.2079  0.7103
  672MOL0     C88624  10.794   6.320   3.157  0.1457  0.0141  0.4858
  672MOL0     C88625  10.705   6.246   3.247 -0.0037 -0.6342  0.5884
  672MOL0     C88626  10.360   6.024   3.432  0.0663  0.1781 -0.5143
  672MOL0     C88627  10.240   6.044   3.366 -0.1239 -0.3277 -0.9729
  672MOL0     C88628  10.127   5.984   3.413 -0.1028 -0.1091 -0.1236
  672MOL0     C88629  10.124   5.925   3.535  0.3287  0.0817 -0.2415
  672MOL0     O88630  10.008   5.894   3.598 -0.3736 -0.6913  0.6362
  672MOL0     C88631   9.886   5.938   3.541  1.1093 -1.0003 -0.4132
  672MOL0     C88632   9.816   5.846   3.430 -0.1104  0.0076 -0.3336
  672MOL0     C88633   9.791   5.702   3.501  0.2119 -0.3446  0.0383
  672MOL0     C88634   9.911   5.611   3.493 -0.8919  0.2819 -0.2424
  672MOL0     C88635   9.954   5.582   3.622 -0.2537  0.7610  0.8404
  672MOL0     C88636  10.019   5.541   3.722  0.1730 -0.1074  0.4921
  672MOL0     C88637  10.245   5.901   3.608 -0.4382  0.4588  0.6131
  672MOL0     C88638  10.364   5.952   3.551  0.3484  0.2556 -0.1920
  672MOL0     H88639  10.403   6.354   3.127 -0.9588  0.2661  0.0169
  672MOL0     H88640  10.555   6.467   2.967  2.4677  3.1004  0.4061
  672MOL0     H88641  10.981   6.487   3.081  1.6750  2.6223 -1.2066
  672MOL0     H88642  10.975   6.584   2.948 -2.0398  0.6031 -4.7832
  672MOL0     H88643  11.013   6.430   2.778  0.6183  0.3348 -0.3029
  672MOL0     H88644  11.013   6.293   2.897 -0.3163  0.6867  1.3267
  672MOL0     H88645  11.218   6.394   3.008 -0.7037  1.3205  0.6743
  672MOL0     H88646  11.223   6.524   2.897  2.0280 -0.8716  2.3312
  672MOL0     H88647  11.230   6.231   2.832 -4.0762  1.6934  0.8443
  672MOL0     H88648  11.280   6.370   2.721  3.7433  2.3531  0.5283
  672MOL0     H88649  11.401   6.290   2.987 -0.5800  0.6301  0.3675
  672MOL0     H88650  11.457   6.429   2.899  1.3101 -0.0892  0.4178
  672MOL0     H88651  11.466   6.138   2.796 -0.0312  0.1377 -1.0306
  672MOL0     H88652  11.613   6.228   2.863  0.6937 -0.9918 -0.8020
  672MOL0     H88653  11.456   6.277   2.609  0.0405  1.6709 -1.3537
  672MOL0     H88654  11.567   6.397   2.669 -1.0075  0.9349 -1.7174
  672MOL0     H88655  11.767   6.259   2.618 -0.2226  2.8166 -2.5469
  672MOL0     H88656  11.647   6.261   2.488 -1.2455 -0.4840 -0.0941
  672MOL0     H88657  11.590   6.029   2.383 -0.0459  0.7012  0.0414
  672MOL0     H88658  11.670   5.660   2.506  0.5161 -0.0221  1.0895
  672MOL0     H88659  11.661   5.751   2.353 -1.7826  2.7589 -0.4150
  672MOL0     H88660  11.470   5.645   2.351 -2.6724 -1.1570  1.2252
  672MOL0     H88661  11.428   5.807   2.397 -3.4319 -1.4507 -2.6261
  672MOL0     H88662  11.427   5.551   2.578 -2.8603 -1.3968 -0.4391
  672MOL0     H88663  11.395   5.722   2.639 -3.0781 -0.9145  0.7624
  672MOL0     H88664  11.213   5.564   2.599  2.2995  0.5029  1.2658
  672MOL0     H88665  11.257   5.562   2.428 -1.8658  1.0474 -1.0454
  672MOL0     H88666  11.042   5.934   2.414  2.6464 -3.9881 -2.3087
  672MOL0     H88667  10.794   5.977   2.398  2.6762  0.4920  0.5219
  672MOL0     H88668  10.426   6.107   2.392  1.2736 -0.3951  0.4499
  672MOL0     H88669  10.191   6.189   2.456  1.4400 -0.7727 -0.8722
  672MOL0     H88670  10.028   6.231   2.593  0.5913 -1.7790 -1.3987
  672MOL0     H88671   9.991   6.135   2.725  1.0678  0.9237  0.7028
  672MOL0     H88672   9.754   6.116   2.680 -0.9237  0.2200  0.1531
  672MOL0     H88673   9.773   6.178   2.513  0.7658 -0.8275 -0.0370
  672MOL0     H88674   9.833   6.392   2.584 -0.1891  0.6630  0.0702
  672MOL0     H88675   9.822   6.349   2.763 -1.3885  3.3134 -0.0601
  672MOL0     H88676   9.572   6.298   2.710  1.7958 -0.7024  0.5715
  672MOL0     H88677   9.647   6.464   2.718 -0.9805 -0.7968  1.5033
  672MOL0     H88678   9.578   6.281   2.476 -0.4599 -0.8990  3.2390
  672MOL0     H88679   9.640   6.454   2.462  1.5538  1.8405  2.2338
  672MOL0     H88680   9.358   6.350   2.563 -2.1235  1.8954  0.2807
  672MOL0     H88681   9.391   6.398   2.401  0.3340 -1.0559  0.1698
  672MOL0     H88682   9.387   6.541   2.658  3.0339 -3.4521  0.1634
  672MOL0     H88683   9.497   6.609   2.530 -0.7157 -0.4965 -0.2853
  672MOL0     H88684   9.199   6.531   2.502 -0.1455  0.2396  1.5623
  672MOL0     H88685   9.296   6.600   2.369  2.3903 -3.5684  0.0163
  672MOL0     H88686  10.105   5.811   2.626 -0.6145  0.3750  0.4350
  672MOL0     H88687  10.348   5.749   2.596 -0.1196 -0.5712  0.1138
  672MOL0     H88688  10.746   5.589   2.583  0.2241  1.0971  1.5145
  672MOL0     H88689  10.998   5.553   2.582  3.1287  0.0518 -0.9455
  672MOL0     H88690  10.901   6.301   3.164 -0.3138 -2.5143  1.8243
  672MOL0     H88691  10.763   6.188   3.318  2.8813  2.2969  0.8347
  672MOL0     H88692  10.229   6.102   3.275  0.1210  0.0702 -0.7550
  672MOL0     H88693  10.039   6.001   3.351  0.8969 -2.3934 -2.3474
  672MOL0     H88694   9.889   6.038   3.497 -1.1590  0.7151  2.8753
  672MOL0     H88695   9.813   5.946   3.622  0.6949 -1.7216 -0.7141
  672MOL0     H88696   9.716   5.876   3.398 -0.7800 -3.2344 -1.6836
  672MOL0     H88697   9.872   5.838   3.336 -0.2637 -1.3644 -0.3254
  672MOL0     H88698   9.711   5.647   3.450  2.0245 -2.4397 -0.7078
  672MOL0     H88699   9.756   5.717   3.603 -0.1181 -1.1431  0.0481
  672MOL0     H88700   9.889   5.523   3.432 -1.9042 -1.0010  1.8749
  672MOL0     H88701   9.983   5.672   3.436  0.6087  0.6500  1.9250
  672MOL0     H88702  10.055   5.503   3.815  0.3839  1.3159  1.0187
  672MOL0     H88703  10.250   5.861   3.708  1.0660 -3.2034 -0.7738
  672MOL0     H88704  10.457   5.943   3.606  0.1104  0.4648  0.2457
  673MOL0     O88705   8.746   0.876   3.035  0.5617  0.1534 -0.7587
  673MOL0     C88706   8.807   0.949   2.956 -0.4699  0.3696 -0.1938
  673MOL0     O88707   8.747   1.026   2.860 -0.1395  0.0185  0.3877
  673MOL0     C88708   8.618   1.053   2.865 -0.1758 -0.3155  0.4564
  673MOL0     C88709   8.545   1.070   2.983 -0.2263  0.1966 -0.1294
  673MOL0     C88710   8.408   1.083   2.974  0.3431 -0.3769 -0.6560
  673MOL0     C88711   8.338   1.092   2.849  0.6296  0.1121 -0.5859
  673MOL0     O88712   8.206   1.130   2.843 -0.1713  0.3069 -0.3355
  673MOL0     C88713   8.144   1.139   2.708 -0.7188  0.5180  0.6728
  673MOL0     C88714   7.993   1.149   2.729 -0.0270 -0.3362  0.6906
  673MOL0     C88715   7.940   1.292   2.761 -0.1611 -0.1626  0.1075
  673MOL0     C88716   7.806   1.288   2.841  0.3693  0.1332  0.5649
  673MOL0     C88717   7.744   1.418   2.889 -0.6304  0.1453 -0.2823
  673MOL0     C88718   7.691   1.504   2.771 -0.3859 -0.5581 -0.3788
  673MOL0     C88719   7.682   1.653   2.831 -0.2061  0.3122 -0.4028
  673MOL0     C88720   7.684   1.771   2.730 -0.3220  0.2991  0.6458
  673MOL0     N88721   7.552   1.792   2.664 -0.4940  0.0853 -0.3882
  673MOL0     C88722   7.469   1.887   2.715  0.0305 -0.1842 -0.3864
  673MOL0     C88723   7.375   1.894   2.612  0.6758  0.9445  0.7132
  673MOL0     C88724   7.257   1.991   2.618  0.3922  0.9672 -0.5620
  673MOL0     C88725   7.116   1.942   2.590  0.6944  1.2595  0.7332
  673MOL0     C88726   7.073   1.830   2.681 -0.3632 -0.0480  0.5634
  673MOL0     C88727   6.924   1.815   2.683 -0.4445  0.0846 -0.5044
  673MOL0     O88728   6.856   1.851   2.561 -0.1629  0.1901  0.3153
  673MOL0     C88729   6.716   1.843   2.587  0.9608  0.5271  0.8437
  673MOL0     C88730   6.649   1.940   2.662 -0.3380  0.6020 -0.0410
  673MOL0     C88731   6.512   1.915   2.677 -0.7343  0.4187 -0.4367
  673MOL0     C88732   6.447   1.801   2.644 -0.2739  0.1898  0.4812
  673MOL0     C88733   6.304   1.783   2.678 -0.3195  0.0541 -1.1946
  673MOL0     O88734   6.254   1.654   2.667 -0.0607 -0.5213  0.7413
  673MOL0     C88735   6.127   1.627   2.708  0.4887 -0.1451 -0.2328
  673MOL0     C88736   6.051   1.687   2.807  0.1624 -0.5200 -0.0295
  673MOL0     C88737   5.922   1.643   2.836  0.4184 -0.7410  0.1291
  673MOL0     C88738   5.859   1.540   2.761 -0.8999 -0.4576 -0.0888
  673MOL0     O88739   5.731   1.506   2.794 -0.3212  0.1246 -0.3500
  673MOL0     C88740   5.653   1.431   2.712  0.1064 -0.4930 -0.4598
  673MOL0     C88741   5.509   1.425   2.773 -1.1990 -0.2910 -0.1356
  673MOL0     C88742   5.455   1.565   2.802  0.6589 -0.3532  0.1548
  673MOL0     C88743   5.303   1.590   2.804  0.5405 -0.4543  0.7100
  673MOL0     C88744   5.249   1.687   2.899 -0.3309  0.3710 -0.1114
  673MOL0     C88745   5.097   1.711   2.914 -0.1657 -0.2666  0.9616
  673MOL0     C88746   5.019   1.589   2.968  0.4349  0.3894  0.3917
  673MOL0     C88747   4.882   1.617   3.003  0.0165  0.4671 -0.0241
  673MOL0    Cl88748   4.770   1.586   2.871  0.7285  0.0353  0.2481
  673MOL0     C88749   5.942   1.472   2.666  0.2749  0.3274  0.7767
  673MOL0     C88750   6.073   1.510   2.647  0.5182 -0.5881  0.0344
  673MOL0     O88751   6.234   1.879   2.711  0.0311 -0.2261  0.7268
  673MOL0     C88752   6.515   1.696   2.579  0.2381  0.6479  0.8510
  673MOL0     C88753   6.649   1.726   2.544 -0.1038  0.4085  0.1501
  673MOL0     N88754   7.421   1.819   2.508  0.8054 -0.3787  0.5750
  673MOL0     N88755   7.531   1.759   2.535  0.2818  0.7059 -0.9882
  673MOL0     C88756   8.410   1.071   2.733 -0.4954 -1.0329  1.0199
  673MOL0     C88757   8.549   1.062   2.740  0.4514  0.8806 -0.0258
  673MOL0     C88758   8.961   0.931   2.975  0.3385 -0.5433 -0.0247
  673MOL0     C88759   9.021   0.852   3.080 -0.8195  0.0393  0.2149
  673MOL0     C88760   9.156   0.823   3.080  0.5605  1.1140 -0.0686
  673MOL0     C88761   9.242   0.880   2.986 -0.5824  0.2853 -0.1885
  673MOL0     O88762   9.381   0.870   2.973  0.0073 -0.4685 -0.6560
  673MOL0     C88763   9.442   0.743   3.016  0.4530  0.5516 -0.2135
  673MOL0     C88764   9.514   0.751   3.149  0.2629  1.4356  0.1155
  673MOL0     C88765   9.651   0.674   3.160 -0.2386 -0.6541 -0.6170
  673MOL0     C88766   9.725   0.717   3.284 -0.4391 -0.3449 -0.4496
  673MOL0     C88767   9.872   0.693   3.290 -0.2934  0.3956 -1.0609
  673MOL0     C88768   9.988   0.661   3.314 -0.0018  0.3995 -0.2307
  673MOL0     C88769   9.193   0.975   2.900  0.6210 -0.2105  0.2403
  673MOL0     C88770   9.050   0.999   2.887 -0.1728 -0.5359 -0.2742
  673MOL0     H88771   8.582   1.065   3.085  0.1228  0.4741 -0.2407
  673MOL0     H88772   8.340   1.087   3.059 -2.6262 -2.1883 -2.7598
  673MOL0     H88773   8.165   1.048   2.651  1.0284  1.2972 -0.0192
  673MOL0     H88774   8.196   1.214   2.647  2.8376 -1.3434  1.1240
  673MOL0     H88775   7.968   1.081   2.811  1.3868  0.2300  1.6346
  673MOL0     H88776   7.947   1.116   2.635  0.7302  1.8429 -0.5324
  673MOL0     H88777   7.917   1.348   2.670 -1.9510  1.7739  1.6673
  673MOL0     H88778   8.016   1.346   2.818 -0.1904  0.9982 -0.9067
  673MOL0     H88779   7.732   1.232   2.784  0.1272 -0.0610  1.0616
  673MOL0     H88780   7.848   1.226   2.921  2.1688  1.3103  0.5785
  673MOL0     H88781   7.822   1.473   2.943 -0.2306 -0.4889 -0.2118
  673MOL0     H88782   7.661   1.389   2.954  0.5158  0.3259  1.3190
  673MOL0     H88783   7.593   1.484   2.726 -1.2219  2.4706 -0.0987
  673MOL0     H88784   7.764   1.505   2.689  0.6382 -0.0034  0.5245
  673MOL0     H88785   7.589   1.657   2.888 -1.1566  1.5765 -1.9983
  673MOL0     H88786   7.762   1.678   2.902  1.1078  1.7159 -2.2995
  673MOL0     H88787   7.746   1.741   2.645 -1.4607 -1.9245  0.5441
  673MOL0     H88788   7.724   1.855   2.787  2.2888 -0.5268  0.1549
  673MOL0     H88789   7.478   1.937   2.811  0.4001 -1.3535  0.1989
  673MOL0     H88790   7.274   2.074   2.549 -0.2982  2.8147  1.3680
  673MOL0     H88791   7.264   2.038   2.716 -0.3573 -2.7544  1.4473
  673MOL0     H88792   7.100   1.916   2.485  1.8020  1.0599  0.6068
  673MOL0     H88793   7.048   2.026   2.609 -1.6150 -0.1765 -0.6120
  673MOL0     H88794   7.120   1.742   2.636 -0.8286  0.6173 -1.3191
  673MOL0     H88795   7.117   1.850   2.779  0.7719  0.8019 -0.0811
  673MOL0     H88796   6.890   1.879   2.765  2.4035 -0.3410  1.1408
  673MOL0     H88797   6.908   1.707   2.691 -0.2073 -0.1808 -2.8267
  673MOL0     H88798   6.712   2.022   2.696  0.8778 -0.6946  0.9578
  673MOL0     H88799   6.462   1.996   2.729 -3.5806 -0.0362 -2.2656
  673MOL0     H88800   6.078   1.781   2.854  0.6561 -0.6853  0.0289
  673MOL0     H88801   5.862   1.694   2.910 -2.6905 -2.4315 -1.0439
  673MOL0     H88802   5.693   1.329   2.712  1.5299 -0.0060  2.1803
  673MOL0     H88803   5.644   1.472   2.611  0.3697  2.9025  0.7797
  673MOL0     H88804   5.510   1.370   2.868 -2.5043  0.2897  0.2399
  673MOL0     H88805   5.448   1.364   2.706 -1.8289 -1.6388  1.5841
  673MOL0     H88806   5.499   1.628   2.725  0.9593 -0.9547 -0.1679
  673MOL0     H88807   5.497   1.611   2.892  1.1937  0.1271 -0.3360
  673MOL0     H88808   5.267   1.628   2.708 -2.0679 -4.4578 -0.0905
  673MOL0     H88809   5.249   1.496   2.810 -3.5596  1.5711 -0.9260
  673MOL0     H88810   5.295   1.784   2.877 -0.9911  0.6790 -0.1774
  673MOL0     H88811   5.290   1.648   2.992 -3.1604  1.0855  1.5631
  673MOL0     H88812   5.065   1.738   2.813 -0.2033 -1.4004  0.6600
  673MOL0     H88813   5.085   1.802   2.973 -1.2386  0.7241 -0.7182
  673MOL0     H88814   5.025   1.510   2.893  2.1560 -0.0114  0.9114
  673MOL0     H88815   5.072   1.547   3.054 -2.0807 -2.0514  0.8871
  673MOL0     H88816   4.874   1.717   3.047  1.0503  1.1014 -1.2243
  673MOL0     H88817   4.871   1.542   3.082 -0.6094 -0.6095 -1.0929
  673MOL0     H88818   5.905   1.384   2.616 -0.1682  0.9372  0.0178
  673MOL0     H88819   6.128   1.455   2.571 -0.2025  1.2356 -1.9211
  673MOL0     H88820   6.460   1.609   2.543  0.9707  0.8743 -0.9574
  673MOL0     H88821   6.695   1.637   2.502  3.5224  1.8481  0.6839
  673MOL0     H88822   8.366   1.070   2.634  1.6743  0.9474 -0.0773
  673MOL0     H88823   8.612   1.055   2.652  2.0632 -0.4085  1.1501
  673MOL0     H88824   8.949   0.793   3.136  1.1330 -0.5111  2.2713
  673MOL0     H88825   9.201   0.761   3.157  1.1268 -0.3424 -1.5363
  673MOL0     H88826   9.510   0.708   2.938  0.1516  2.1968 -1.2705
  673MOL0     H88827   9.361   0.670   3.025 -0.9025  2.0503  0.2449
  673MOL0     H88828   9.536   0.858   3.157  0.4060  1.4575 -0.5636
  673MOL0     H88829   9.440   0.730   3.226  1.4830 -0.1208  0.9517
  673MOL0     H88830   9.711   0.695   3.071  0.9602  1.0724  0.5622
  673MOL0     H88831   9.645   0.565   3.172  2.2861 -0.6357  1.5286
  673MOL0     H88832   9.713   0.825   3.294 -1.0056 -0.3947 -0.5917
  673MOL0     H88833   9.669   0.676   3.368 -0.1344 -1.7383 -0.8821
  673MOL0     H88834  10.089   0.643   3.344  1.1669  0.0149 -3.9099
  673MOL0     H88835   9.264   1.019   2.830  0.8897 -0.3068  0.4484
  673MOL0     H88836   9.020   1.056   2.801  3.8155  0.9776 -0.8605
  674MOL0     O88837   7.052   9.126   9.903 -0.4424  1.4538  0.2602
  674MOL0     C88838   7.053   9.200   9.804  0.2860 -0.3508  0.3622
  674MOL0     O88839   7.071   9.338   9.795  0.0806 -0.2258 -0.4882
  674MOL0     C88840   7.127   9.399   9.908 -0.1967 -0.3234  0.6422
  674MOL0     C88841   7.055   9.428  10.027  0.3701  1.3337  0.4321
  674MOL0     C88842   7.108   9.510  10.127  0.1778 -0.6810 -0.1849
  674MOL0     C88843   7.246   9.546  10.123  0.7912  1.1953  0.2868
  674MOL0     O88844   7.303   9.625  10.215  0.2377 -0.0365  0.2725
  674MOL0     C88845   7.282   9.575  10.352 -0.4164 -0.0462 -0.3130
  674MOL0     C88846   7.384   9.627  10.452  0.9904 -0.4554  0.4215
  674MOL0     C88847   7.524   9.593  10.423  0.1361  0.3001 -0.2156
  674MOL0     C88848   7.609   9.623  10.552 -0.4180 -0.2277  0.3983
  674MOL0     C88849   7.747   9.561  10.545  0.6890  0.3614 -0.2257
  674MOL0     C88850   7.820   9.614  10.668 -0.4054  0.4547 -1.2319
  674MOL0     C88851   7.961   9.561  10.666 -0.1728 -0.2751 -0.0432
  674MOL0     C88852   8.032   9.578  10.793 -0.6451 -0.5939 -0.0728
  674MOL0     N88853   8.175   9.526  10.784 -0.4565  1.1223  0.6365
  674MOL0     C88854   8.289   9.601  10.768  0.0981 -0.1494  0.0093
  674MOL0     C88855   8.394   9.515  10.789  0.2859  0.4717 -0.7959
  674MOL0     C88856   8.548   9.551  10.800 -0.2455 -0.1343 -0.6818
  674MOL0     C88857   8.638   9.433  10.857  0.6227  0.0148  0.4614
  674MOL0     C88858   8.649   9.311  10.766 -0.4065 -0.1428  0.5517
  674MOL0     C88859   8.742   9.200  10.815  0.2355 -0.6078  0.5652
  674MOL0     O88860   8.706   9.143  10.943 -0.4505  0.4885 -0.3383
  674MOL0     C88861   8.592   9.065  10.924  0.3167  0.0390 -0.2694
  674MOL0     C88862   8.462   9.109  10.959 -0.2372 -0.5904 -0.4621
  674MOL0     C88863   8.350   9.029  10.943 -0.5574 -0.1265  1.2701
  674MOL0     C88864   8.360   8.904  10.894  0.6657  0.0796  0.2903
  674MOL0     C88865   8.233   8.824  10.871  0.6426  1.2674 -1.0413
  674MOL0     O88866   8.117   8.857  10.930 -1.3024 -0.2749 -0.6934
  674MOL0     C88867   8.002   8.791  10.895  0.2486  0.7652  0.2939
  674MOL0     C88868   7.930   8.826  10.787  0.0897  0.2851  0.0104
  674MOL0     C88869   7.799   8.776  10.761  0.7933 -0.1480 -0.6435
  674MOL0     C88870   7.741   8.678  10.844  0.5074  0.0910 -0.7864
  674MOL0     O88871   7.609   8.626  10.839 -0.8985 -0.2675  0.0541
  674MOL0     C88872   7.556   8.602  10.700  0.0333 -0.1337 -0.2852
  674MOL0     C88873   7.417   8.658  10.685  0.8043  0.7983  0.0234
  674MOL0     C88874   7.323   8.567  10.769  0.0256 -0.0989  0.5325
  674MOL0     C88875   7.180   8.633  10.792 -0.2000  0.5458  0.5775
  674MOL0     C88876   7.086   8.573  10.896 -0.6518  0.5202  1.2416
  674MOL0     C88877   7.044   8.427  10.876  0.2501 -0.9781 -0.3472
  674MOL0     C88878   6.950   8.369  10.980  0.3396 -0.4887 -0.8853
  674MOL0     C88879   6.979   8.222  10.999  0.2890 -0.0260  0.2993
  674MOL0    Cl88880   6.933   8.167  11.168  0.2294  0.0755  0.2133
  674MOL0     C88881   7.814   8.643  10.961 -0.6157 -0.6632  0.5396
  674MOL0     C88882   7.944   8.701  10.983 -0.6647 -0.2425  0.0092
  674MOL0     O88883   8.249   8.722  10.790 -0.1080 -0.2236  0.2881
  674MOL0     C88884   8.486   8.855  10.864  0.5813 -0.1204 -1.0385
  674MOL0     C88885   8.603   8.939  10.882  0.3181  0.5881 -0.8590
  674MOL0     N88886   8.327   9.392  10.810 -0.1698  0.1180  0.3958
  674MOL0     N88887   8.207   9.397  10.800 -0.0749 -0.5188 -0.1492
  674MOL0     C88888   7.315   9.526  10.012 -0.0413 -0.1055 -0.1789
  674MOL0     C88889   7.257   9.450   9.901 -0.3447  1.3373 -0.2766
  674MOL0     C88890   7.003   9.142   9.675 -0.1613 -0.6254  0.3324
  674MOL0     C88891   6.933   9.022   9.669  0.2420  0.4003  0.8188
  674MOL0     C88892   6.889   8.969   9.547  0.3958  0.7486 -0.1582
  674MOL0     C88893   6.907   9.032   9.424 -0.2717 -0.1819  0.3403
  674MOL0     O88894   6.859   8.978   9.304 -0.9728 -0.3727 -0.3038
  674MOL0     C88895   6.934   8.865   9.266  0.3940 -0.5662 -0.0126
  674MOL0     C88896   6.871   8.810   9.131  0.5150 -0.7635  0.7282
  674MOL0     C88897   6.724   8.766   9.145 -0.0525  0.7896  0.6806
  674MOL0     C88898   6.708   8.622   9.212 -0.9250 -0.3213 -0.2252
  674MOL0     C88899   6.751   8.627   9.348 -0.3737 -0.1842 -0.6584
  674MOL0     C88900   6.782   8.620   9.467  0.3993 -1.2129  0.1468
  674MOL0     C88901   6.972   9.153   9.427 -0.2731 -1.0698 -0.4029
  674MOL0     C88902   7.021   9.215   9.548 -0.4701  0.1394 -0.6553
  674MOL0     H88903   6.954   9.392  10.041  0.7811  0.2466  0.7215
  674MOL0     H88904   7.050   9.553  10.208 -0.2148  2.6918 -2.0381
  674MOL0     H88905   7.295   9.467  10.364  1.5197  0.3712  2.0530
  674MOL0     H88906   7.182   9.598  10.392 -0.6600 -0.2474 -0.7970
  674MOL0     H88907   7.368   9.583  10.551  0.9736 -2.9036 -0.6117
  674MOL0     H88908   7.382   9.736  10.462 -0.9520 -0.5787  1.8527
  674MOL0     H88909   7.570   9.648  10.341 -0.8840 -2.1217 -2.5562
  674MOL0     H88910   7.524   9.487  10.395  0.1697 -0.1019  1.2196
  674MOL0     H88911   7.620   9.730  10.573 -1.4165  0.0208 -0.2803
  674MOL0     H88912   7.559   9.577  10.638  0.8721 -2.9018 -0.1847
  674MOL0     H88913   7.800   9.594  10.455  1.0179  1.0283  0.2031
  674MOL0     H88914   7.722   9.454  10.550 -3.9854  1.2959  1.0636
  674MOL0     H88915   7.770   9.574  10.757  0.1232 -2.8883 -2.2623
  674MOL0     H88916   7.828   9.722  10.679  0.1352  0.1881  1.9536
  674MOL0     H88917   7.963   9.463  10.617  3.2264  0.3498 -1.4228
  674MOL0     H88918   8.012   9.618  10.588  0.3682 -2.5488 -1.4596
  674MOL0     H88919   7.992   9.523  10.880 -2.6383  1.9070  0.7207
  674MOL0     H88920   8.044   9.684  10.816 -0.0630 -0.9057  1.1731
  674MOL0     H88921   8.293   9.709  10.757  3.3098 -0.2003 -0.1575
  674MOL0     H88922   8.563   9.638  10.864  1.5925 -0.9437  0.0368
  674MOL0     H88923   8.583   9.582  10.701 -0.5412 -1.4404 -1.2083
  674MOL0     H88924   8.595   9.400  10.952  1.1781  0.5733  0.9144
  674MOL0     H88925   8.742   9.467  10.870  1.5296 -1.4356 -2.2371
  674MOL0     H88926   8.549   9.265  10.758  0.8602 -2.7856 -3.2743
  674MOL0     H88927   8.674   9.345  10.665  0.2932 -1.6480  0.1851
  674MOL0     H88928   8.842   9.243  10.828  0.4411 -1.1633  0.8972
  674MOL0     H88929   8.745   9.124  10.736 -1.8874  0.3943 -0.5555
  674MOL0     H88930   8.455   9.207  11.004  0.5283 -1.4350  1.6256
  674MOL0     H88931   8.250   9.067  10.965 -0.5762  0.7364 -0.1450
  674MOL0     H88932   7.975   8.883  10.706 -0.4634  1.9786  0.8501
  674MOL0     H88933   7.742   8.815  10.677 -0.0078 -2.2057 -1.0994
  674MOL0     H88934   7.561   8.493  10.690  2.7248 -0.0976 -0.1290
  674MOL0     H88935   7.614   8.649  10.620 -0.4405 -0.2697 -0.7107
  674MOL0     H88936   7.387   8.660  10.580  2.6983  1.0854 -0.5379
  674MOL0     H88937   7.428   8.758  10.726 -1.3928  0.9915  0.2816
  674MOL0     H88938   7.368   8.543  10.866 -0.5335 -0.8445  0.6198
  674MOL0     H88939   7.310   8.472  10.717 -0.8004 -0.7975  1.9420
  674MOL0     H88940   7.198   8.740  10.804 -0.0748  0.4621  1.1819
  674MOL0     H88941   7.127   8.622  10.697 -0.0857 -1.0041  0.6632
  674MOL0     H88942   6.993   8.632  10.900 -0.5933  0.5510  2.2539
  674MOL0     H88943   7.147   8.597  10.983 -1.4243 -2.5708  2.7781
  674MOL0     H88944   7.138   8.372  10.873  1.3596  0.8293  0.0013
  674MOL0     H88945   6.994   8.436  10.779  1.0747  0.1621 -0.6912
  674MOL0     H88946   6.955   8.425  11.074 -4.5642 -1.2652  0.0828
  674MOL0     H88947   6.849   8.387  10.942  0.9158 -0.2831 -2.4108
  674MOL0     H88948   7.087   8.206  11.006 -0.0199 -1.8645  2.0551
  674MOL0     H88949   6.924   8.163  10.925 -1.0330  2.1495 -0.5357
  674MOL0     H88950   7.779   8.572  11.035  1.2390  0.1843  2.3261
  674MOL0     H88951   8.003   8.687  11.073  0.3354  3.2159  0.0453
  674MOL0     H88952   8.488   8.756  10.818  2.2719  0.6185 -2.7005
  674MOL0     H88953   8.703   8.900  10.867  0.1462  0.4791 -1.7822
  674MOL0     H88954   7.416   9.559   9.992  0.1589 -2.2990 -3.6149
  674MOL0     H88955   7.304   9.431   9.805  0.3620 -0.1739  0.3327
  674MOL0     H88956   6.904   8.963   9.756  0.8176  0.2907  0.9396
  674MOL0     H88957   6.840   8.873   9.553  3.5410 -1.1168 -1.6820
  674MOL0     H88958   6.929   8.793   9.349 -1.2682 -0.2498  0.1921
  674MOL0     H88959   7.035   8.896   9.236  0.5917 -0.9774  0.2175
  674MOL0     H88960   6.897   8.868   9.042  0.0007 -1.2996  0.2175
  674MOL0     H88961   6.927   8.722   9.097  0.7602 -0.7333  1.0423
  674MOL0     H88962   6.703   8.756   9.038  2.8174  0.0997  0.1139
  674MOL0     H88963   6.660   8.836   9.198  0.6625  0.9483  1.3481
  674MOL0     H88964   6.605   8.586   9.210 -0.0159 -3.2871  0.6490
  674MOL0     H88965   6.759   8.540   9.160  0.9504  1.3177 -1.1035
  674MOL0     H88966   6.807   8.618   9.571  1.5083 -2.4888 -0.1125
  674MOL0     H88967   6.984   9.207   9.334 -2.0188 -1.7115 -1.0445
  674MOL0     H88968   7.073   9.309   9.538  0.7301 -0.5031 -0.6672
  675MOL0     O88969   8.610   1.534   3.768 -0.4661  0.3953 -0.5804
  675MOL0     C88970   8.688   1.571   3.853 -0.1526  0.2814  1.0591
  675MOL0     O88971   8.662   1.654   3.955  0.2723 -0.2262  0.1410
  675MOL0     C88972   8.539   1.689   3.992 -0.2472  1.2733  0.2704
  675MOL0     C88973   8.504   1.821   4.010 -0.0071  0.6489 -0.0860
  675MOL0     C88974   8.381   1.867   4.038  0.4041 -0.9465 -0.5123
  675MOL0     C88975   8.279   1.775   4.048  1.6058 -0.0632 -0.4961
  675MOL0     O88976   8.151   1.814   4.070 -0.4319 -0.3229 -0.4659
  675MOL0     C88977   8.074   1.857   3.957  0.0804 -0.5221  0.4486
  675MOL0     C88978   7.948   1.922   4.015  1.1396  0.3702  0.2001
  675MOL0     C88979   7.842   1.967   3.909  0.1448 -0.1322 -0.2177
  675MOL0     C88980   7.720   2.034   3.977 -0.0808 -0.0432  0.0955
  675MOL0     C88981   7.604   2.076   3.881 -0.4782 -0.0954  0.1221
  675MOL0     C88982   7.499   2.156   3.945  1.3332 -0.6501  0.6916
  675MOL0     C88983   7.369   2.174   3.858 -0.6088 -1.0610 -0.7137
  675MOL0     C88984   7.258   2.244   3.943 -0.2165  0.0103  0.3116
  675MOL0     N88985   7.125   2.240   3.873 -0.3688  0.1396 -0.4437
  675MOL0     C88986   7.021   2.332   3.896 -0.4480 -0.5088  1.1709
  675MOL0     C88987   6.917   2.291   3.821  0.3343 -0.3502  0.5143
  675MOL0     C88988   6.796   2.377   3.804  0.7149 -0.5412  0.0996
  675MOL0     C88989   6.670   2.310   3.871  0.1573 -1.0247  0.0791
  675MOL0     C88990   6.593   2.220   3.772  0.1307 -0.2824  0.2920
  675MOL0     C88991   6.460   2.167   3.817  0.4902 -0.2816  0.0268
  675MOL0     O88992   6.357   2.267   3.832  0.1602 -0.2646  0.6586
  675MOL0     C88993   6.297   2.303   3.721  0.1435  0.5586  0.2917
  675MOL0     C88994   6.311   2.248   3.588  0.0393 -0.2350 -0.5188
  675MOL0     C88995   6.201   2.269   3.498 -0.0027 -0.6887  0.1424
  675MOL0     C88996   6.093   2.348   3.529  0.1532 -0.0281 -0.0741
  675MOL0     C88997   5.982   2.355   3.433 -0.0634 -0.1989  0.7064
  675MOL0     O88998   5.874   2.425   3.473  0.2648 -1.0140 -0.3162
  675MOL0     C88999   5.759   2.455   3.399  0.3345 -0.3695 -0.4106
  675MOL0     C89000   5.720   2.399   3.275  0.4226 -0.0039 -0.0819
  675MOL0     C89001   5.603   2.440   3.212 -0.2894  0.2762  0.2488
  675MOL0     C89002   5.522   2.540   3.259  0.1248  0.3038  0.5677
  675MOL0     O89003   5.406   2.569   3.189  0.5059  0.0824 -0.7822
  675MOL0     C89004   5.347   2.699   3.215 -0.7504  0.5006  0.2882
  675MOL0     C89005   5.263   2.757   3.103 -0.0490  0.6319 -0.5132
  675MOL0     C89006   5.156   2.670   3.043  0.2757 -0.2289 -0.1226
  675MOL0     C89007   5.051   2.763   2.968  0.2115  0.1379  0.0954
  675MOL0     C89008   4.922   2.695   2.931 -0.7904 -0.2932 -0.5129
  675MOL0     C89009   4.817   2.788   2.861 -0.4769 -0.0816 -0.0373
  675MOL0     C89010   4.863   2.859   2.733  0.0559  0.4125  0.1032
  675MOL0     C89011   4.755   2.928   2.652 -0.4515  0.4911  0.0741
  675MOL0    Cl89012   4.821   2.976   2.495  0.1436 -0.3175 -0.2319
  675MOL0     C89013   5.566   2.601   3.383 -0.0577 -0.3541 -0.5442
  675MOL0     C89014   5.676   2.559   3.458  1.0049 -0.1857 -0.2632
  675MOL0     O89015   6.005   2.306   3.320 -0.2388  0.3548 -0.3902
  675MOL0     C89016   6.087   2.408   3.652  0.2422  1.0230  0.1095
  675MOL0     C89017   6.189   2.385   3.750 -0.1391  0.4604  0.8862
  675MOL0     N89018   6.957   2.176   3.748  0.1794  0.1264 -0.6231
  675MOL0     N89019   7.081   2.152   3.780 -0.4431  0.4479 -0.2780
  675MOL0     C89020   8.304   1.638   4.030  0.7847 -0.2288 -0.5446
  675MOL0     C89021   8.433   1.598   4.001 -0.3378 -0.4433  1.0432
  675MOL0     C89022   8.829   1.543   3.834  0.6552 -0.3378  0.8173
  675MOL0     C89023   8.923   1.555   3.932 -0.6205  0.3545 -0.3537
  675MOL0     C89024   9.054   1.499   3.919 -0.6955 -0.1078  0.2968
  675MOL0     C89025   9.101   1.451   3.794  0.1887  0.5539 -0.8487
  675MOL0     O89026   9.222   1.406   3.760  0.8234 -0.1464  0.0673
  675MOL0     C89027   9.324   1.426   3.860  0.8367 -0.7248  0.0726
  675MOL0     C89028   9.456   1.392   3.797  0.0484 -0.2725 -0.3887
  675MOL0     C89029   9.577   1.426   3.878 -0.1489 -0.5072 -0.2577
  675MOL0     C89030   9.706   1.359   3.817 -0.0218 -0.2316 -0.6640
  675MOL0     C89031   9.819   1.395   3.910 -0.2047  0.5245  0.2040
  675MOL0     C89032   9.890   1.421   4.002  0.1613  0.4498 -0.2353
  675MOL0     C89033   9.006   1.459   3.688 -0.7208 -0.2779  0.2126
  675MOL0     C89034   8.878   1.496   3.711  0.0935 -0.8590  0.3784
  675MOL0     H89035   8.586   1.890   3.993  0.7735 -0.2729 -0.1750
  675MOL0     H89036   8.358   1.969   4.066  0.9119 -1.1711  0.8163
  675MOL0     H89037   8.040   1.769   3.902  2.0376 -2.4131  2.1137
  675MOL0     H89038   8.116   1.933   3.891 -3.6296 -0.5914 -2.3133
  675MOL0     H89039   7.970   2.009   4.077  0.8320  1.1487 -0.7527
  675MOL0     H89040   7.893   1.848   4.075  1.0069 -0.0668 -0.4503
  675MOL0     H89041   7.812   1.866   3.880  0.6985 -0.8732  1.7048
  675MOL0     H89042   7.897   2.022   3.831  2.5576  1.5077  2.4543
  675MOL0     H89043   7.678   1.964   4.049 -0.6243  0.5810  0.3980
  675MOL0     H89044   7.761   2.121   4.028  0.2162 -1.7250  2.9460
  675MOL0     H89045   7.546   1.986   3.856 -0.5174 -0.0388  0.0084
  675MOL0     H89046   7.640   2.127   3.791  1.7233  0.2114  1.1076
  675MOL0     H89047   7.539   2.253   3.974 -1.8728  0.0971  3.2092
  675MOL0     H89048   7.465   2.108   4.037 -1.5453 -2.4418 -1.1529
  675MOL0     H89049   7.388   2.227   3.764 -1.4762  1.2959  0.3767
  675MOL0     H89050   7.333   2.075   3.825 -1.0427 -0.5579 -1.7982
  675MOL0     H89051   7.278   2.346   3.976  0.5729 -0.0484  0.0438
  675MOL0     H89052   7.248   2.175   4.027 -2.7941 -2.5692 -1.8650
  675MOL0     H89053   7.044   2.427   3.944 -2.4172  1.6562 -1.7219
  675MOL0     H89054   6.775   2.405   3.701  1.8924 -0.5651 -0.1588
  675MOL0     H89055   6.805   2.477   3.847 -0.8316  0.6735 -2.2052
  675MOL0     H89056   6.610   2.398   3.896  1.5709  0.4116 -1.3285
  675MOL0     H89057   6.703   2.264   3.965  3.0950  2.9017  1.2164
  675MOL0     H89058   6.587   2.277   3.678 -0.6278 -2.9160 -1.3783
  675MOL0     H89059   6.662   2.139   3.744 -1.8226 -1.9494  0.0054
  675MOL0     H89060   6.475   2.124   3.916 -0.3984  0.6761  0.5926
  675MOL0     H89061   6.425   2.083   3.756 -4.1444 -1.3098  3.5885
  675MOL0     H89062   6.403   2.197   3.562 -0.7350 -0.8796 -2.1111
  675MOL0     H89063   6.200   2.224   3.400 -1.5779 -0.5595  0.0759
  675MOL0     H89064   5.777   2.317   3.230  2.1479  2.7042 -3.2970
  675MOL0     H89065   5.576   2.377   3.127  0.2601 -0.1065  0.3543
  675MOL0     H89066   5.422   2.774   3.242  0.8921 -0.7780 -0.4977
  675MOL0     H89067   5.282   2.687   3.302 -1.1146  0.5011  0.0207
  675MOL0     H89068   5.331   2.797   3.027  4.4252  0.2321  2.9068
  675MOL0     H89069   5.216   2.841   3.155  2.2864  1.3567  0.5227
  675MOL0     H89070   5.108   2.608   3.119 -1.2779 -0.5326 -1.2802
  675MOL0     H89071   5.197   2.598   2.972 -0.9108 -2.1951  1.0695
  675MOL0     H89072   5.025   2.842   3.040 -0.1336 -1.4600  1.8040
  675MOL0     H89073   5.102   2.805   2.881  3.7923 -1.1099  1.4302
  675MOL0     H89074   4.880   2.646   3.019 -0.5255  2.7564  1.4525
  675MOL0     H89075   4.951   2.620   2.857 -0.9293 -1.7626  0.8847
  675MOL0     H89076   4.779   2.866   2.928 -3.1975 -0.0468 -1.4596
  675MOL0     H89077   4.735   2.716   2.846  0.6891 -1.4146 -0.2078
  675MOL0     H89078   4.943   2.933   2.747 -1.9339  3.1695 -2.0208
  675MOL0     H89079   4.902   2.782   2.666 -1.8678  0.4637 -1.1205
  675MOL0     H89080   4.705   3.011   2.702 -0.3325  0.7738 -0.2685
  675MOL0     H89081   4.677   2.854   2.634  2.1512 -2.8324  1.2736
  675MOL0     H89082   5.502   2.679   3.422 -0.8344 -0.5861 -1.3079
  675MOL0     H89083   5.693   2.601   3.556 -1.3150  1.1114 -0.3543
  675MOL0     H89084   5.994   2.454   3.683 -0.3275  0.6121 -0.9212
  675MOL0     H89085   6.189   2.437   3.845 -0.5552  0.2584  1.0021
  675MOL0     H89086   8.213   1.580   4.031  1.5341 -1.7540  3.9690
  675MOL0     H89087   8.452   1.493   3.981 -0.4301  0.0773 -2.1731
  675MOL0     H89088   8.898   1.585   4.033 -1.0089  0.4323 -0.4705
  675MOL0     H89089   9.108   1.504   4.013 -0.9259  0.1364  0.4163
  675MOL0     H89090   9.306   1.371   3.953 -2.2732 -0.8317 -0.4957
  675MOL0     H89091   9.305   1.530   3.888 -1.9337 -0.8882 -0.8770
  675MOL0     H89092   9.450   1.284   3.780 -1.0065  0.2020 -3.8079
  675MOL0     H89093   9.468   1.442   3.700  0.6300 -0.8451 -0.6178
  675MOL0     H89094   9.565   1.388   3.980 -3.1873 -0.9636 -0.6841
  675MOL0     H89095   9.591   1.534   3.873 -2.4077 -0.2218 -1.6407
  675MOL0     H89096   9.695   1.250   3.824  1.6997 -0.3593  0.9232
  675MOL0     H89097   9.722   1.399   3.717 -1.9330 -2.5363 -2.0047
  675MOL0     H89098   9.940   1.451   4.092  1.6448 -0.5367 -0.6898
  675MOL0     H89099   9.036   1.424   3.590 -0.7205  1.8075 -0.5873
  675MOL0     H89100   8.809   1.499   3.627 -1.2048  4.0985  1.2755
  676MOL0     O89101   9.967   3.721   9.896 -0.0787 -0.2761  0.4972
  676MOL0     C89102  10.057   3.770   9.964  1.0509  0.5787 -0.0928
  676MOL0     O89103  10.036   3.829  10.077  0.0531  0.4604 -0.1924
  676MOL0     C89104   9.912   3.850  10.125 -0.6967  0.6697  0.0572
  676MOL0     C89105   9.863   3.980  10.129  0.4191  0.3781 -0.0632
  676MOL0     C89106   9.730   4.004  10.163 -0.4450  0.5101  0.7748
  676MOL0     C89107   9.637   3.891  10.181  0.4341 -0.8522 -1.2972
  676MOL0     O89108   9.496   3.908  10.207 -0.0834 -0.0818 -0.8194
  676MOL0     C89109   9.442   4.040  10.181 -0.1292  0.0238  0.3588
  676MOL0     C89110   9.289   4.041  10.193  0.2241 -0.7753 -0.6652
  676MOL0     C89111   9.227   4.180  10.193 -0.7105  0.1895 -0.6895
  676MOL0     C89112   9.088   4.186  10.268 -0.8103  0.3081  0.0815
  676MOL0     C89113   8.983   4.097  10.195 -0.3729 -0.2143 -0.5622
  676MOL0     C89114   8.859   4.070  10.276 -0.0269 -0.1850 -0.2403
  676MOL0     C89115   8.800   4.184  10.353  0.0577 -0.5409  0.0080
  676MOL0     C89116   8.766   4.297  10.249  0.5621 -0.9073 -0.4478
  676MOL0     N89117   8.665   4.391  10.302  0.2204  0.2354  0.6780
  676MOL0     C89118   8.655   4.433  10.430  0.0467  0.7388 -0.1253
  676MOL0     C89119   8.534   4.479  10.457 -0.1961 -0.3257  1.2825
  676MOL0     C89120   8.481   4.515  10.594  0.2675 -0.0409  0.2847
  676MOL0     C89121   8.444   4.671  10.583  0.2721 -0.7817 -0.0307
  676MOL0     C89122   8.391   4.721  10.717  0.8952  0.7820 -0.8763
  676MOL0     C89123   8.250   4.655  10.754  1.1903  0.1563  0.4545
  676MOL0     O89124   8.161   4.740  10.818 -0.1086 -1.3928 -0.2489
  676MOL0     C89125   8.045   4.701  10.883 -1.2022 -0.9924  0.0254
  676MOL0     C89126   7.973   4.795  10.961  0.0040  0.2917 -0.0759
  676MOL0     C89127   7.876   4.739  11.050 -0.6783  0.2071 -0.5352
  676MOL0     C89128   7.842   4.608  11.051  0.9818  0.8869 -0.4304
  676MOL0     C89129   7.746   4.556  11.156 -0.0133 -0.7418  1.2131
  676MOL0     O89130   7.674   4.650  11.226  0.0355  0.2810  0.6279
  676MOL0     C89131   7.595   4.606  11.318 -0.4984  0.0052 -0.3807
  676MOL0     C89132   7.458   4.604  11.280  0.4032 -0.0380 -0.8167
  676MOL0     C89133   7.353   4.601  11.377  0.0157  0.7384  0.3186
  676MOL0     C89134   7.389   4.592  11.515 -0.2389 -0.0595 -0.2636
  676MOL0     O89135   7.295   4.597  11.619  1.1068  0.2283  0.3206
  676MOL0     C89136   7.189   4.702  11.602 -0.2455  0.2904 -0.1890
  676MOL0     C89137   7.113   4.742  11.728  0.3807  0.0040 -0.3702
  676MOL0     C89138   6.982   4.822  11.695 -0.4115 -0.0008 -0.1454
  676MOL0     C89139   6.935   4.891  11.822  0.1884  0.3004  0.0250
  676MOL0     C89140   6.799   4.961  11.803 -0.2415  0.6066  0.5515
  676MOL0     C89141   6.699   4.856  11.813 -0.0081 -0.2573  0.1425
  676MOL0     C89142   6.553   4.918  11.829  1.0530 -0.0637 -0.2117
  676MOL0     C89143   6.512   5.008  11.714  0.6812  0.0353  0.0562
  676MOL0    Cl89144   6.541   4.916  11.559 -0.0266 -0.1220 -0.1283
  676MOL0     C89145   7.517   4.556  11.548  0.7119 -1.0209  0.7372
  676MOL0     C89146   7.622   4.575  11.455  0.1193  0.4538  0.6277
  676MOL0     O89147   7.738   4.434  11.169 -0.0269 -0.4205 -0.0966
  676MOL0     C89148   7.911   4.520  10.967  0.4869 -0.7640  0.4594
  676MOL0     C89149   8.010   4.563  10.887 -0.6721 -0.1568 -0.0533
  676MOL0     N89150   8.470   4.478  10.333 -0.3486  0.6687 -0.6317
  676MOL0     N89151   8.554   4.439  10.238 -0.2303  0.2542 -0.0069
  676MOL0     C89152   9.691   3.767  10.195  0.0648 -0.5530  0.5506
  676MOL0     C89153   9.829   3.749  10.164 -0.3278  0.8589 -0.1133
  676MOL0     C89154  10.190   3.737   9.916 -0.9926 -0.8232  0.5310
  676MOL0     C89155  10.211   3.656   9.796 -0.0450 -0.5635  0.0874
  676MOL0     C89156  10.333   3.620   9.756 -0.0117 -0.3533 -1.7623
  676MOL0     C89157  10.442   3.668   9.828  0.0172 -0.3273 -0.1388
  676MOL0     O89158  10.571   3.648   9.779  0.7013  0.8100  0.7332
  676MOL0     C89159  10.686   3.664   9.856  0.7934 -0.7115  0.3884
  676MOL0     C89160  10.795   3.563   9.830 -0.9857 -0.6475  0.5928
  676MOL0     C89161  10.922   3.589   9.916 -1.1548  0.3880  0.5501
  676MOL0     C89162  11.049   3.511   9.865 -0.3846 -0.9713  0.2240
  676MOL0     C89163  11.166   3.551   9.943  0.9937  0.0216  1.3588
  676MOL0     C89164  11.261   3.569  10.009  0.0514 -1.2536 -0.0097
  676MOL0     C89165  10.427   3.753   9.942 -0.4704 -0.7167  0.4720
  676MOL0     C89166  10.301   3.786   9.983  0.4969 -0.7039 -0.2623
  676MOL0     H89167   9.937   4.057  10.108 -2.2355  3.3738  0.8165
  676MOL0     H89168   9.707   4.109  10.174 -0.1402  0.7888 -0.9814
  676MOL0     H89169   9.464   4.086  10.084  1.2631  0.6246  0.9366
  676MOL0     H89170   9.494   4.109  10.248  1.9549 -2.2260  1.1760
  676MOL0     H89171   9.260   3.999  10.290 -0.7737  1.2386 -0.0214
  676MOL0     H89172   9.247   3.971  10.121 -0.5381  0.6644 -1.6654
  676MOL0     H89173   9.203   4.223  10.095  0.0401  3.2341  0.3441
  676MOL0     H89174   9.298   4.247  10.242 -4.4711  2.8916  1.5994
  676MOL0     H89175   9.110   4.143  10.366  1.9483  1.0927 -0.1095
  676MOL0     H89176   9.055   4.290  10.271 -2.0673  0.0086 -1.7246
  676MOL0     H89177   9.040   4.010  10.160  0.6540 -0.4368  1.5271
  676MOL0     H89178   8.956   4.147  10.101  1.1310  2.5715  0.3569
  676MOL0     H89179   8.882   3.991  10.349  2.7347  1.0101  0.3385
  676MOL0     H89180   8.780   4.029  10.213  0.1050 -3.4164  1.4787
  676MOL0     H89181   8.706   4.145  10.394  0.0243 -0.7054 -0.2274
  676MOL0     H89182   8.861   4.224  10.434  0.4676 -0.3771 -0.3799
  676MOL0     H89183   8.730   4.256  10.154  1.8472 -0.7811 -1.0141
  676MOL0     H89184   8.863   4.343  10.227  0.8933 -1.9044 -1.1966
  676MOL0     H89185   8.718   4.397  10.511  0.1515 -0.4298 -0.7083
  676MOL0     H89186   8.549   4.490  10.676 -2.9008 -0.7371  2.9486
  676MOL0     H89187   8.390   4.456  10.601 -0.1651  0.2976 -1.8148
  676MOL0     H89188   8.369   4.697  10.508  1.3628  2.7019 -0.0776
  676MOL0     H89189   8.527   4.737  10.558  0.1342 -1.1949 -1.6584
  676MOL0     H89190   8.466   4.705  10.794  0.7183  0.2055 -0.8124
  676MOL0     H89191   8.369   4.827  10.702 -2.6298  0.5146  1.3123
  676MOL0     H89192   8.267   4.568  10.818 -1.3090  1.2793  2.8885
  676MOL0     H89193   8.204   4.628  10.659  1.3655 -1.7019  0.8645
  676MOL0     H89194   7.993   4.902  10.955 -2.3892  0.7330 -3.9008
  676MOL0     H89195   7.821   4.814  11.106  0.2175  0.2251  0.3666
  676MOL0     H89196   7.418   4.623  11.181 -0.5454  0.5818 -0.3326
  676MOL0     H89197   7.255   4.619  11.335  0.1208  1.7648  0.4833
  676MOL0     H89198   7.121   4.667  11.524 -0.0781 -0.0899 -0.1694
  676MOL0     H89199   7.237   4.789  11.557  0.6870  0.4858  1.1177
  676MOL0     H89200   7.188   4.803  11.779  0.2464  2.1044 -2.5081
  676MOL0     H89201   7.093   4.657  11.793 -2.2006 -0.5753 -1.8016
  676MOL0     H89202   6.897   4.762  11.662  1.9978 -3.5367 -0.5789
  676MOL0     H89203   7.015   4.898  11.623  0.7949  4.0304  4.2029
  676MOL0     H89204   6.929   4.821  11.906 -1.9442 -1.6923 -1.6545
  676MOL0     H89205   7.008   4.965  11.858 -0.8111  1.6007 -0.5337
  676MOL0     H89206   6.784   4.998  11.701  1.1022  2.5794  1.0166
  676MOL0     H89207   6.795   5.036  11.883  2.0281  1.1025  0.2927
  676MOL0     H89208   6.715   4.799  11.905 -0.8388  0.0831  0.5140
  676MOL0     H89209   6.702   4.782  11.733  0.6513 -0.7425  0.6048
  676MOL0     H89210   6.485   4.836  11.854 -2.0367  2.5532  0.5713
  676MOL0     H89211   6.554   4.981  11.919 -0.2293 -2.2676  1.4554
  676MOL0     H89212   6.569   5.100  11.728 -2.4233  1.7188  3.1115
  676MOL0     H89213   6.405   5.030  11.717  0.4818 -0.2599 -2.6694
  676MOL0     H89214   7.540   4.543  11.654  0.9126 -0.1841  0.8005
  676MOL0     H89215   7.727   4.561  11.477  0.3429  2.5111  1.1133
  676MOL0     H89216   7.891   4.413  10.957  2.8718 -1.4252  1.8655
  676MOL0     H89217   8.059   4.497  10.816  1.4016  0.7946  0.4031
  676MOL0     H89218   9.631   3.679  10.211 -1.0121 -0.6115 -2.8813
  676MOL0     H89219   9.885   3.658  10.179 -2.2658 -0.5681 -1.0961
  676MOL0     H89220  10.120   3.617   9.753  0.1965 -0.5462 -0.4530
  676MOL0     H89221  10.342   3.554   9.670  0.6231 -2.4518 -0.1599
  676MOL0     H89222  10.656   3.643   9.959  1.3059  1.7396  1.1010
  676MOL0     H89223  10.730   3.764   9.856  5.2816 -2.4516 -0.3505
  676MOL0     H89224  10.774   3.459   9.855  2.6096 -1.5460  0.4049
  676MOL0     H89225  10.822   3.565   9.725 -1.9121 -0.6627  0.3467
  676MOL0     H89226  10.894   3.549  10.014  0.0434 -1.6258  0.1380
  676MOL0     H89227  10.925   3.697   9.929  0.1401  0.3032  1.0888
  676MOL0     H89228  11.029   3.404   9.870  0.4952 -1.1253  0.5490
  676MOL0     H89229  11.056   3.539   9.760 -0.4255  0.1537  0.5066
  676MOL0     H89230  11.346   3.579  10.072 -0.7661  2.9580  0.7257
  676MOL0     H89231  10.508   3.797   9.999  1.3799 -1.0166 -1.8122
  676MOL0     H89232  10.292   3.862  10.060 -0.5050 -0.6652 -0.3993
  677MOL0     O89233   7.235   5.962   3.870 -0.0299 -0.0395  0.0515
  677MOL0     C89234   7.272   5.920   3.981  0.5574 -0.8697 -0.3592
  677MOL0     O89235   7.200   5.842   4.063 -0.2967 -0.0750  0.0769
  677MOL0     C89236   7.069   5.823   4.040 -0.5667  0.3796  0.0013
  677MOL0     C89237   7.028   5.692   4.088  0.3221  0.4919  0.0763
  677MOL0     C89238   6.891   5.656   4.084  0.6309  0.0598 -0.4746
  677MOL0     C89239   6.800   5.743   4.017  0.6029 -0.1490  0.0817
  677MOL0     O89240   6.672   5.698   3.997 -0.1334  1.2398 -0.0375
  677MOL0     C89241   6.560   5.774   3.948 -0.3927 -0.7227 -0.4480
  677MOL0     C89242   6.509   5.870   4.060 -0.6766  0.0483 -0.2802
  677MOL0     C89243   6.510   5.800   4.195 -0.2574 -0.6617  0.6365
  677MOL0     C89244   6.432   5.678   4.200 -0.2746 -0.3870  0.3695
  677MOL0     C89245   6.391   5.629   4.353 -0.3833 -1.3413 -0.1777
  677MOL0     C89246   6.286   5.525   4.361  1.1916  0.5345 -0.0418
  677MOL0     C89247   6.242   5.487   4.509 -0.6726 -0.3687  0.0593
  677MOL0     C89248   6.150   5.365   4.526  0.9528 -0.2038 -0.1782
  677MOL0     N89249   6.022   5.389   4.452 -0.5212  0.2136 -0.6387
  677MOL0     C89250   5.918   5.481   4.486 -0.6217 -0.5459  0.2781
  677MOL0     C89251   5.832   5.479   4.385  0.1078 -0.3500  0.6337
  677MOL0     C89252   5.713   5.584   4.365 -1.2706  0.0015 -0.0056
  677MOL0     C89253   5.597   5.551   4.459 -0.8188 -0.7432 -0.3161
  677MOL0     C89254   5.535   5.427   4.411 -0.4178  0.1607  0.1241
  677MOL0     C89255   5.414   5.407   4.509 -0.6308 -0.1838  0.0701
  677MOL0     O89256   5.303   5.498   4.489 -0.5405 -0.3128  0.3677
  677MOL0     C89257   5.177   5.474   4.523  0.3888  0.1963  0.0241
  677MOL0     C89258   5.073   5.566   4.493  0.3231 -0.1870 -0.1724
  677MOL0     C89259   4.933   5.549   4.523 -0.0387 -0.5842  0.6122
  677MOL0     C89260   4.895   5.433   4.589 -0.5709 -0.7120  0.9473
  677MOL0     C89261   4.756   5.396   4.605  0.6761  0.1799  0.2638
  677MOL0     O89262   4.664   5.464   4.530  0.3305  0.0202  0.5634
  677MOL0     C89263   4.526   5.444   4.521  1.1256  0.4391 -0.4565
  677MOL0     C89264   4.470   5.515   4.416  0.3425  0.4075 -0.7301
  677MOL0     C89265   4.329   5.498   4.377 -0.0121  0.3325 -0.2295
  677MOL0     C89266   4.254   5.414   4.458 -0.1113  0.1496 -0.3645
  677MOL0     O89267   4.124   5.400   4.441  0.0595 -0.1059 -0.4564
  677MOL0     C89268   4.061   5.498   4.515 -0.3124  0.6334  0.7089
  677MOL0     C89269   3.910   5.470   4.501 -0.5625  0.0138 -0.2154
  677MOL0     C89270   3.864   5.462   4.346 -0.0732 -0.6491 -0.4855
  677MOL0     C89271   3.717   5.472   4.312 -0.4050  0.3631  0.1385
  677MOL0     C89272   3.682   5.503   4.157 -0.8422 -0.4129 -0.0736
  677MOL0     C89273   3.730   5.381   4.074 -0.5671 -0.7787  0.1900
  677MOL0     C89274   3.739   5.416   3.927  0.2496  0.5642  0.8396
  677MOL0     C89275   3.783   5.290   3.846 -0.4935 -0.6095  0.0807
  677MOL0    Cl89276   3.665   5.155   3.830  0.1349  0.2999  0.0269
  677MOL0     C89277   4.310   5.339   4.562 -0.4337 -1.1109 -0.4936
  677MOL0     C89278   4.446   5.345   4.587 -0.5223  0.4318  0.5384
  677MOL0     O89279   4.724   5.313   4.689 -0.2804  0.0751 -0.3685
  677MOL0     C89280   4.989   5.343   4.634 -0.9026 -0.5107  0.6320
  677MOL0     C89281   5.133   5.365   4.604 -0.4421  0.1194 -0.4949
  677MOL0     N89282   5.877   5.393   4.287 -0.1923  0.5014  0.2769
  677MOL0     N89283   5.983   5.327   4.328 -0.3396  0.5013  0.8956
  677MOL0     C89284   6.835   5.866   3.967 -0.3625 -0.2312 -0.2767
  677MOL0     C89285   6.971   5.909   3.984 -0.2811  0.4721 -0.0250
  677MOL0     C89286   7.414   5.945   4.009  0.5864  0.3423  0.0781
  677MOL0     C89287   7.475   5.882   4.119 -0.7302 -0.5155 -0.7202
  677MOL0     C89288   7.608   5.896   4.147  0.2875  0.1818 -0.3719
  677MOL0     C89289   7.688   5.971   4.063  0.5889  0.0974 -0.6838
  677MOL0     O89290   7.820   5.996   4.100 -0.0922 -0.5100 -0.1116
  677MOL0     C89291   7.916   5.952   4.004 -0.4353 -1.1357  0.5528
  677MOL0     C89292   7.998   6.066   3.944  0.0791 -0.0526  0.2636
  677MOL0     C89293   8.146   6.036   3.938  0.2216 -1.2285 -0.2149
  677MOL0     C89294   8.214   6.142   3.847 -0.6452 -0.7431  0.1724
  677MOL0     C89295   8.358   6.166   3.863 -0.0435 -0.7069 -0.3787
  677MOL0     C89296   8.476   6.187   3.874 -0.2247 -0.4342  0.3357
  677MOL0     C89297   7.632   6.027   3.943 -0.4676  0.1750  0.3565
  677MOL0     C89298   7.495   6.012   3.915 -0.0090 -0.6380 -0.0330
  677MOL0     H89299   7.097   5.624   4.136  2.1017  3.3053  1.7665
  677MOL0     H89300   6.866   5.555   4.115  0.6820  0.8508  2.4220
  677MOL0     H89301   6.483   5.697   3.936  1.4590 -2.7537  0.0463
  677MOL0     H89302   6.560   5.824   3.851  1.3954  0.6680  0.2021
  677MOL0     H89303   6.404   5.893   4.040 -0.8861  2.0947  2.5938
  677MOL0     H89304   6.558   5.966   4.049 -0.5636  0.1176  0.7476
  677MOL0     H89305   6.442   5.865   4.251 -0.1465  1.7965 -1.8993
  677MOL0     H89306   6.609   5.786   4.239  0.0921  0.1158  0.1214
  677MOL0     H89307   6.337   5.697   4.149 -0.5875 -0.3139  0.9750
  677MOL0     H89308   6.485   5.593   4.157 -1.7034 -1.6093  0.9360
  677MOL0     H89309   6.351   5.718   4.401  2.5736  2.4989 -4.0953
  677MOL0     H89310   6.481   5.605   4.411  1.3863  3.8236 -0.3056
  677MOL0     H89311   6.317   5.437   4.303 -0.4475  0.1863 -0.4514
  677MOL0     H89312   6.199   5.563   4.306  2.1666  0.0634 -1.9992
  677MOL0     H89313   6.334   5.478   4.568  0.2836 -1.8935 -1.5733
  677MOL0     H89314   6.183   5.570   4.550  1.6949  0.5945  1.7664
  677MOL0     H89315   6.127   5.344   4.630 -1.0296  1.5096 -0.1982
  677MOL0     H89316   6.213   5.285   4.487  3.9893  0.8701  2.1919
  677MOL0     H89317   5.910   5.548   4.570 -0.2243  0.7476 -0.6916
  677MOL0     H89318   5.689   5.603   4.260 -0.7934  2.3710  0.2557
  677MOL0     H89319   5.755   5.680   4.398  1.4944 -0.6121 -1.3989
  677MOL0     H89320   5.529   5.637   4.453 -0.6163 -0.5530  0.1300
  677MOL0     H89321   5.641   5.538   4.558  0.1305 -2.0010 -0.8662
  677MOL0     H89322   5.513   5.452   4.307 -0.5913 -1.0178 -0.1412
  677MOL0     H89323   5.611   5.348   4.411  0.0823  0.6006 -1.3659
  677MOL0     H89324   5.439   5.396   4.615 -0.6840  3.4714  0.5690
  677MOL0     H89325   5.380   5.306   4.482 -1.1640  0.0923 -0.3221
  677MOL0     H89326   5.103   5.657   4.441 -1.6833 -0.0382 -1.1640
  677MOL0     H89327   4.860   5.626   4.504  2.3486  1.2564 -1.8896
  677MOL0     H89328   4.531   5.577   4.350  1.4602 -0.9483 -1.0016
  677MOL0     H89329   4.275   5.553   4.301 -2.4127  0.9738  1.8036
  677MOL0     H89330   4.094   5.595   4.475  0.3836  0.1793  0.1525
  677MOL0     H89331   4.067   5.496   4.624 -1.0733  2.4736  0.8210
  677MOL0     H89332   3.866   5.557   4.550  0.4176  0.0997  0.5459
  677MOL0     H89333   3.871   5.382   4.553 -0.6793  1.2804  1.9806
  677MOL0     H89334   3.904   5.369   4.304 -0.6199 -0.9854 -0.2742
  677MOL0     H89335   3.905   5.547   4.290 -0.6845 -0.1569 -0.1914
  677MOL0     H89336   3.677   5.371   4.315  0.1976  0.1287  0.6609
  677MOL0     H89337   3.666   5.536   4.385  1.4111  2.0309  0.0420
  677MOL0     H89338   3.754   5.581   4.128 -1.8212  0.1204 -1.1689
  677MOL0     H89339   3.577   5.527   4.138 -1.1500 -0.3015  1.6648
  677MOL0     H89340   3.648   5.309   4.091 -1.5185 -0.7555 -3.3901
  677MOL0     H89341   3.830   5.350   4.106  0.9072 -0.5843 -3.6975
  677MOL0     H89342   3.641   5.451   3.893  0.0544  0.2749  1.0943
  677MOL0     H89343   3.807   5.500   3.911  0.4744  0.0827 -0.9037
  677MOL0     H89344   3.869   5.249   3.899 -0.3058  3.0136  3.0829
  677MOL0     H89345   3.819   5.319   3.747  1.0844 -1.1149  0.4748
  677MOL0     H89346   4.248   5.268   4.615 -3.9069  3.0903  1.7486
  677MOL0     H89347   4.493   5.276   4.656 -0.2475  1.0010  0.9200
  677MOL0     H89348   4.957   5.267   4.705  0.4811 -0.4601  1.3444
  677MOL0     H89349   5.202   5.290   4.641 -0.8736 -0.6344 -1.2006
  677MOL0     H89350   6.772   5.926   3.903  0.7720  0.0711 -1.1592
  677MOL0     H89351   6.995   6.008   3.947 -1.8276  0.8280 -0.1520
  677MOL0     H89352   7.417   5.820   4.187 -0.5667 -2.2267 -2.0660
  677MOL0     H89353   7.654   5.850   4.233  2.4267  0.4774 -1.2978
  677MOL0     H89354   7.876   5.890   3.923  2.1373 -0.4508 -1.3881
  677MOL0     H89355   7.987   5.885   4.055 -2.1742 -3.1532  0.4704
  677MOL0     H89356   7.963   6.095   3.844  0.9917 -0.6353 -0.2464
  677MOL0     H89357   7.979   6.155   4.005 -2.9796  0.3971 -1.1878
  677MOL0     H89358   8.157   5.934   3.901 -1.9483 -1.5914  0.0244
  677MOL0     H89359   8.184   6.048   4.040 -3.7286  1.1585  1.2218
  677MOL0     H89360   8.202   6.104   3.745  0.0931 -0.3866 -0.0534
  677MOL0     H89361   8.162   6.236   3.862  1.1046  0.3759 -0.4890
  677MOL0     H89362   8.580   6.212   3.874 -0.0537 -0.8809 -2.3771
  677MOL0     H89363   7.698   6.086   3.880 -0.7059 -0.1914 -0.2570
  677MOL0     H89364   7.464   6.060   3.823  1.2955  0.3550  0.0187
  678MOL0     O89365   2.934   1.356   3.705  0.7814  0.7462  0.6232
  678MOL0     C89366   3.009   1.334   3.797  0.1287  0.5306 -0.0372
  678MOL0     O89367   2.972   1.283   3.925  0.4146 -0.1611  0.0489
  678MOL0     C89368   2.851   1.233   3.953  0.4176 -0.1986 -0.5739
  678MOL0     C89369   2.736   1.314   3.959  0.5121  0.1734 -0.6301
  678MOL0     C89370   2.607   1.259   3.983  0.0478 -0.6216  0.5722
  678MOL0     C89371   2.588   1.125   4.007  0.1897 -0.3062 -0.0783
  678MOL0     O89372   2.463   1.078   4.032  0.5992  1.3168 -0.7103
  678MOL0     C89373   2.375   1.142   4.125 -1.3038 -0.1055  0.2730
  678MOL0     C89374   2.238   1.078   4.112  0.5719 -0.2671  0.6804
  678MOL0     C89375   2.130   1.162   4.196 -0.0011  0.2603 -0.4103
  678MOL0     C89376   2.011   1.079   4.228 -0.0646  0.0714 -0.6221
  678MOL0     C89377   1.885   1.172   4.281  0.1312 -0.3528  0.5695
  678MOL0     C89378   1.768   1.080   4.326  0.5247  0.7649  0.1215
  678MOL0     C89379   1.634   1.153   4.345  0.1019  0.4263 -0.8513
  678MOL0     C89380   1.578   1.223   4.220 -0.8064  0.0605  0.3353
  678MOL0     N89381   1.437   1.263   4.226 -0.8656 -0.9813  0.1264
  678MOL0     C89382   1.328   1.192   4.274  0.5498  0.3288  1.0764
  678MOL0     C89383   1.223   1.257   4.222  0.6017  0.1569  0.5218
  678MOL0     C89384   1.080   1.213   4.219  0.1732 -0.3143 -0.1782
  678MOL0     C89385   1.006   1.276   4.336  0.2202  0.3554  0.1105
  678MOL0     C89386   0.866   1.329   4.321 -0.3850  0.0011 -0.4827
  678MOL0     C89387   0.763   1.231   4.277  0.6854  0.2585  0.2169
  678MOL0     O89388   0.657   1.290   4.210  0.7255 -0.6103 -0.0521
  678MOL0     C89389   0.551   1.369   4.267 -0.0954 -0.0811 -0.3343
  678MOL0     C89390   0.449   1.415   4.186  0.7510 -0.3662  0.1509
  678MOL0     C89391   0.334   1.482   4.229 -0.0278 -0.1355  0.7441
  678MOL0     C89392   0.327   1.531   4.360  0.3363 -0.6464  0.3547
  678MOL0     C89393   0.216   1.617   4.405  0.8281 -0.9343  0.4835
  678MOL0     O89394   0.121   1.656   4.316  0.4230  0.3287  0.8106
  678MOL0     C89395  -0.009   1.700   4.350 -0.4643  0.3921  0.2647
  678MOL0     C89396  -0.064   1.677   4.474 -0.2982 -0.1524 -0.2612
  678MOL0     C89397  -0.196   1.719   4.499  0.4355 -0.2639 -0.7263
  678MOL0     C89398  -0.267   1.793   4.400 -0.2576 -0.4591 -0.5364
  678MOL0     O89399  -0.388   1.845   4.450  0.2850  0.2489  0.5748
  678MOL0     C89400  -0.497   1.864   4.352 -0.6693  0.1658 -0.4658
  678MOL0     C89401  -0.612   1.908   4.437  0.3510 -0.4202  0.0816
  678MOL0     C89402  -0.727   1.948   4.343 -0.3861 -0.0929 -0.0832
  678MOL0     C89403  -0.840   1.988   4.440 -0.7426  0.6366 -0.2729
  678MOL0     C89404  -0.957   2.031   4.367  0.4566 -0.5460 -0.2818
  678MOL0     C89405  -1.060   2.089   4.463 -0.2529 -0.6976  0.7214
  678MOL0     C89406  -1.171   2.170   4.386 -0.3787  0.4148 -0.4974
  678MOL0     C89407  -1.274   2.230   4.483  0.7059  0.1512  0.1378
  678MOL0    Cl89408  -1.431   2.289   4.403 -0.1287 -0.1075 -0.1243
  678MOL0     C89409  -0.217   1.803   4.273 -0.0107 -0.1833 -0.1346
  678MOL0     C89410  -0.085   1.758   4.248  0.6286 -0.6030  0.0549
  678MOL0     O89411   0.219   1.650   4.521  0.5454 -0.7055 -0.0718
  678MOL0     C89412   0.437   1.493   4.450  0.7179 -0.4195  0.2703
  678MOL0     C89413   0.541   1.422   4.402 -0.4697  1.2116 -0.8212
  678MOL0     N89414   1.269   1.371   4.154 -0.5783  0.1632 -0.1626
  678MOL0     N89415   1.400   1.380   4.166 -0.5419  0.0738  0.8774
  678MOL0     C89416   2.704   1.048   4.000 -0.0707  0.0647 -0.6239
  678MOL0     C89417   2.827   1.097   3.968 -0.3498  0.6005 -0.1245
  678MOL0     C89418   3.147   1.367   3.771 -0.0241 -0.2337 -0.8860
  678MOL0     C89419   3.199   1.392   3.637 -0.2507 -0.7824  0.1601
  678MOL0     C89420   3.323   1.439   3.608 -0.0295 -0.5073 -0.0626
  678MOL0     C89421   3.407   1.464   3.714  1.1816  0.5616  0.4647
  678MOL0     O89422   3.540   1.489   3.702 -0.1902  0.2498  0.4711
  678MOL0     C89423   3.572   1.543   3.570  0.8362 -0.4256 -1.2907
  678MOL0     C89424   3.705   1.620   3.563  0.1441  0.3830  0.1934
  678MOL0     C89425   3.727   1.653   3.411  0.8177 -0.7559 -0.5234
  678MOL0     C89426   3.873   1.693   3.366 -0.3425 -0.0762 -0.0093
  678MOL0     C89427   3.968   1.586   3.380 -0.4439  0.0671 -0.4297
  678MOL0     C89428   4.053   1.513   3.387 -0.1533  1.0596 -0.4218
  678MOL0     C89429   3.358   1.457   3.847  0.2995 -0.4748  0.2822
  678MOL0     C89430   3.233   1.414   3.876 -1.1781 -0.0815  0.1443
  678MOL0     H89431   2.750   1.421   3.961  3.2331 -0.1061  0.9867
  678MOL0     H89432   2.528   1.330   4.009 -0.6475 -0.9297 -0.6294
  678MOL0     H89433   2.351   1.249   4.122  0.7378  0.4011  0.4593
  678MOL0     H89434   2.413   1.117   4.225  3.7569  1.0072 -1.0717
  678MOL0     H89435   2.244   0.973   4.140 -2.3158 -0.8150 -0.3571
  678MOL0     H89436   2.195   1.074   4.012 -0.3134  2.3215  0.8540
  678MOL0     H89437   2.106   1.247   4.131  0.5665  0.0129 -0.9532
  678MOL0     H89438   2.175   1.204   4.286  2.5581  0.8526 -1.8796
  678MOL0     H89439   1.988   1.016   4.142  1.4514 -1.1477 -0.1836
  678MOL0     H89440   2.039   1.018   4.315 -2.3687  1.0498  0.9151
  678MOL0     H89441   1.849   1.220   4.190  1.6963 -0.9222 -0.3995
  678MOL0     H89442   1.923   1.239   4.359 -1.6817 -0.5748  1.7056
  678MOL0     H89443   1.782   1.036   4.426 -2.7344 -3.6806 -1.0525
  678MOL0     H89444   1.754   0.995   4.259 -1.5914  2.6549 -2.0162
  678MOL0     H89445   1.567   1.077   4.388  0.6885 -0.6406 -1.7766
  678MOL0     H89446   1.650   1.226   4.425 -3.0631  0.0205  0.3296
  678MOL0     H89447   1.580   1.147   4.141 -1.5435 -3.1089  3.1298
  678MOL0     H89448   1.628   1.317   4.196 -1.1702  0.0803 -0.3767
  678MOL0     H89449   1.336   1.100   4.330  1.4497  0.2865  0.8922
  678MOL0     H89450   1.076   1.104   4.213  1.6130 -0.4099  0.3344
  678MOL0     H89451   1.051   1.254   4.122  1.2981 -0.8576 -0.7556
  678MOL0     H89452   1.070   1.363   4.354 -0.0691  0.6433 -0.2365
  678MOL0     H89453   1.016   1.212   4.424  2.9290  0.6805  0.1113
  678MOL0     H89454   0.835   1.379   4.413 -1.3033 -3.1131  1.0403
  678MOL0     H89455   0.865   1.401   4.239  0.0813 -0.4104 -0.8596
  678MOL0     H89456   0.734   1.177   4.367 -0.2599  0.5727  0.1160
  678MOL0     H89457   0.801   1.158   4.205  1.0092  2.5770 -2.1068
  678MOL0     H89458   0.455   1.399   4.079  0.3695 -0.9358  0.2127
  678MOL0     H89459   0.261   1.516   4.156 -0.7388  1.6751  2.2100
  678MOL0     H89460  -0.010   1.643   4.562  2.2802  2.1329 -0.8292
  678MOL0     H89461  -0.237   1.711   4.600  0.0175  1.0134 -0.7832
  678MOL0     H89462  -0.525   1.765   4.314 -0.2908 -0.2463  0.3078
  678MOL0     H89463  -0.461   1.929   4.271  2.5786 -1.8467 -0.8547
  678MOL0     H89464  -0.586   1.991   4.503  0.2796 -0.1353 -0.2430
  678MOL0     H89465  -0.644   1.824   4.498  0.3310 -1.2711 -1.0675
  678MOL0     H89466  -0.750   1.865   4.275  2.1513  1.5392 -3.2255
  678MOL0     H89467  -0.688   2.037   4.294  1.2712 -0.0415  1.2420
  678MOL0     H89468  -0.873   1.896   4.490 -3.3788  1.9284  0.5025
  678MOL0     H89469  -0.807   2.050   4.523 -1.4219 -1.6154  1.7838
  678MOL0     H89470  -1.005   1.947   4.316 -2.2152  1.8141 -1.9099
  678MOL0     H89471  -0.927   2.106   4.293  0.3277  0.5892  0.7907
  678MOL0     H89472  -1.011   2.159   4.532  1.3876 -0.5201 -0.5600
  678MOL0     H89473  -1.112   2.010   4.517 -1.4929 -0.7174 -0.4374
  678MOL0     H89474  -1.127   2.248   4.323  5.6765 -0.2462  2.2442
  678MOL0     H89475  -1.214   2.101   4.313  0.2636 -0.5652  0.0376
  678MOL0     H89476  -1.236   2.315   4.541  0.5738 -0.8359  1.7406
  678MOL0     H89477  -1.295   2.153   4.557  2.0324 -0.0624  0.3267
  678MOL0     H89478  -0.279   1.835   4.189  1.5635  1.1904 -0.8320
  678MOL0     H89479  -0.048   1.772   4.147 -1.0971  3.3954 -0.2516
  678MOL0     H89480   0.449   1.539   4.547 -0.2263 -0.9707  0.6670
  678MOL0     H89481   0.624   1.393   4.466  1.1809 -1.5591 -3.8829
  678MOL0     H89482   2.688   0.941   4.006 -2.0285  0.3676  0.4221
  678MOL0     H89483   2.914   1.032   3.959 -0.8557  0.1656 -3.0969
  678MOL0     H89484   3.141   1.394   3.546  4.4581  0.7563 -3.1881
  678MOL0     H89485   3.341   1.444   3.501 -1.5762  3.2733 -0.3156
  678MOL0     H89486   3.499   1.622   3.548 -1.6293 -1.9911  0.7371
  678MOL0     H89487   3.570   1.475   3.485  2.2208 -0.5509 -1.2536
  678MOL0     H89488   3.709   1.716   3.615  2.8873  0.6961 -0.4804
  678MOL0     H89489   3.777   1.547   3.601 -1.3851 -1.3446 -0.0472
  678MOL0     H89490   3.658   1.736   3.393  0.8821 -0.7258 -0.6320
  678MOL0     H89491   3.695   1.572   3.345  1.3340 -1.2231 -0.2116
  678MOL0     H89492   3.870   1.709   3.258  0.5678  2.3458  0.2809
  678MOL0     H89493   3.900   1.781   3.424  0.6272 -1.6110  2.0170
  678MOL0     H89494   4.131   1.439   3.391 -0.0639  1.1881  0.3534
  678MOL0     H89495   3.413   1.490   3.935  1.3082 -0.2317 -0.4269
  678MOL0     H89496   3.192   1.406   3.977  0.0702 -6.9025  0.5740
  679MOL0     O89497   5.203   8.962   8.863  0.1443  0.0599 -0.8914
  679MOL0     C89498   5.173   8.848   8.812 -0.2803 -1.2049  0.1513
  679MOL0     O89499   5.229   8.786   8.703  0.1573 -0.4422 -0.2012
  679MOL0     C89500   5.335   8.849   8.648 -0.1530 -1.3238 -0.6895
  679MOL0     C89501   5.462   8.872   8.698 -0.0954 -0.0076 -0.3414
  679MOL0     C89502   5.555   8.953   8.624  1.1221 -0.2412  0.0325
  679MOL0     C89503   5.524   9.006   8.497  0.3914 -0.4330 -0.0699
  679MOL0     O89504   5.618   9.086   8.431  0.6030 -0.5655  0.3073
  679MOL0     C89505   5.747   9.114   8.493  0.7561 -0.2810  0.6406
  679MOL0     C89506   5.840   9.219   8.425  0.4839 -0.1201 -0.3171
  679MOL0     C89507   5.869   9.196   8.280 -0.3731  0.6477  0.4607
  679MOL0     C89508   5.923   9.319   8.217 -0.1937 -0.2283  0.5750
  679MOL0     C89509   5.987   9.308   8.070 -0.1731 -0.1317 -0.0954
  679MOL0     C89510   6.045   9.441   8.024 -0.6145 -0.3615  0.1477
  679MOL0     C89511   5.948   9.551   7.994 -0.2675 -0.2613 -1.0355
  679MOL0     C89512   5.861   9.533   7.875  0.8252  0.0602  0.4667
  679MOL0     N89513   5.727   9.468   7.924 -0.4722  0.0873 -0.0014
  679MOL0     C89514   5.640   9.508   8.021  0.7025 -0.2387 -0.3022
  679MOL0     C89515   5.536   9.417   8.011 -0.1570 -0.2892 -1.0651
  679MOL0     C89516   5.404   9.435   8.084 -0.4229  0.1422 -0.5853
  679MOL0     C89517   5.286   9.348   8.028 -0.4392 -0.2364  0.3944
  679MOL0     C89518   5.240   9.411   7.900  0.7647 -1.2131  0.7851
  679MOL0     C89519   5.115   9.336   7.845 -0.3242 -0.3294 -0.0068
  679MOL0     O89520   5.102   9.353   7.702  0.2557 -0.4602  0.4364
  679MOL0     C89521   4.990   9.304   7.646 -1.1571 -0.5162 -0.2645
  679MOL0     C89522   4.867   9.284   7.703  0.1451  1.3986  0.0258
  679MOL0     C89523   4.756   9.257   7.624 -0.1892 -0.0079  0.6134
  679MOL0     C89524   4.761   9.245   7.484  0.3548  0.8357 -0.3801
  679MOL0     C89525   4.643   9.213   7.409  0.2029  0.8981 -0.4254
  679MOL0     O89526   4.539   9.154   7.475  0.0320  0.7664 -0.2478
  679MOL0     C89527   4.420   9.173   7.410 -0.2115 -0.2667 -0.3458
  679MOL0     C89528   4.345   9.057   7.374  0.3626  0.6519 -0.7899
  679MOL0     C89529   4.213   9.074   7.354 -0.1113 -0.3968  0.2043
  679MOL0     C89530   4.156   9.197   7.328 -0.0533  0.2383 -0.0647
  679MOL0     O89531   4.024   9.180   7.291  0.1469  0.1988 -0.0180
  679MOL0     C89532   3.940   9.287   7.327 -0.2579 -0.4877  0.1880
  679MOL0     C89533   3.795   9.250   7.352  0.3452 -0.8303 -0.5783
  679MOL0     C89534   3.761   9.142   7.464  0.4721  0.5774  0.3490
  679MOL0     C89535   3.611   9.098   7.459 -0.2565  1.0038  0.9851
  679MOL0     C89536   3.595   9.008   7.325 -0.0545 -0.1522 -0.4327
  679MOL0     C89537   3.458   8.931   7.337  0.3566  0.2680 -0.8059
  679MOL0     C89538   3.344   9.014   7.275 -0.5218 -0.4115  0.8828
  679MOL0     C89539   3.216   8.934   7.287 -0.3879  0.9391 -0.1912
  679MOL0    Cl89540   3.176   8.914   7.460 -0.3771 -0.1082  0.1635
  679MOL0     C89541   4.233   9.312   7.348  0.0380 -0.2045 -0.4623
  679MOL0     C89542   4.368   9.301   7.388  0.6170 -0.2535  0.3117
  679MOL0     O89543   4.655   9.237   7.290  0.3649  0.3690  1.0181
  679MOL0     C89544   4.888   9.253   7.425 -1.2212  0.1536 -0.6427
  679MOL0     C89545   4.998   9.294   7.506  0.3598 -0.0995  0.5852
  679MOL0     N89546   5.559   9.329   7.907 -0.1614  1.1224 -0.1694
  679MOL0     N89547   5.681   9.355   7.867  0.2070 -0.1015  0.2905
  679MOL0     C89548   5.397   8.990   8.450  0.2683 -0.1989 -0.1016
  679MOL0     C89549   5.311   8.913   8.529 -0.2951 -0.3420  0.3017
  679MOL0     C89550   5.050   8.784   8.866  0.1143 -0.0776  0.3886
  679MOL0     C89551   4.996   8.680   8.797 -0.3922 -0.6626  0.7042
  679MOL0     C89552   4.867   8.637   8.826 -0.3412 -0.2407 -0.0078
  679MOL0     C89553   4.791   8.689   8.931  0.4345  0.7465  0.1559
  679MOL0     O89554   4.668   8.633   8.938  0.4800 -1.2249  0.7638
  679MOL0     C89555   4.596   8.642   9.062 -0.2915  0.1208 -1.0242
  679MOL0     C89556   4.444   8.651   9.043 -0.4853  0.1888  0.1364
  679MOL0     C89557   4.372   8.600   9.169  0.2068  0.7362  0.8386
  679MOL0     C89558   4.219   8.624   9.156 -0.4711  0.0354  0.8537
  679MOL0     C89559   4.145   8.558   9.260 -0.3535  0.0787 -0.4268
  679MOL0     C89560   4.072   8.500   9.341  0.8934 -0.6460  0.0978
  679MOL0     C89561   4.853   8.787   9.007  0.6749  0.3067 -0.5929
  679MOL0     C89562   4.975   8.840   8.971 -0.3062 -1.1156  0.2157
  679MOL0     H89563   5.496   8.829   8.791  1.2941 -1.2921 -1.3906
  679MOL0     H89564   5.650   8.975   8.672  0.4811  1.5300  0.5587
  679MOL0     H89565   5.803   9.020   8.492  2.7358  0.7830  2.4117
  679MOL0     H89566   5.717   9.141   8.595 -4.5929 -0.8740 -0.4938
  679MOL0     H89567   5.939   9.219   8.472 -0.2236  0.3254  1.2255
  679MOL0     H89568   5.802   9.321   8.433  3.2925  0.9219  1.0783
  679MOL0     H89569   5.772   9.173   8.233 -0.1145  1.3025 -0.4279
  679MOL0     H89570   5.941   9.117   8.258  1.0173  2.3938 -1.6956
  679MOL0     H89571   5.829   9.375   8.211 -2.3206 -3.5004  0.5296
  679MOL0     H89572   5.996   9.363   8.286  0.3078  2.0801 -1.3131
  679MOL0     H89573   5.913   9.270   7.999 -0.5207  0.4244 -0.0431
  679MOL0     H89574   6.067   9.234   8.077  0.2604  0.1567 -1.5995
  679MOL0     H89575   6.099   9.421   7.931  2.6005  0.0436  1.7871
  679MOL0     H89576   6.119   9.474   8.097  1.0941 -3.4296 -0.0079
  679MOL0     H89577   5.889   9.571   8.083  2.2103  3.6702 -0.0051
  679MOL0     H89578   6.015   9.634   7.969  0.8940 -0.4160  1.2620
  679MOL0     H89579   5.905   9.484   7.788 -1.1584 -1.9573  0.5193
  679MOL0     H89580   5.833   9.634   7.842  1.1981  0.2473  0.7180
  679MOL0     H89581   5.633   9.598   8.082 -4.8068  0.4110 -1.3571
  679MOL0     H89582   5.383   9.542   8.074  1.0565  0.5660  0.5163
  679MOL0     H89583   5.410   9.416   8.191 -2.8256  2.2892  0.0622
  679MOL0     H89584   5.205   9.336   8.100  1.6037 -1.9429  2.5535
  679MOL0     H89585   5.311   9.244   8.005  0.4447 -0.4720  2.2740
  679MOL0     H89586   5.228   9.519   7.915  2.5106 -0.6998 -1.0416
  679MOL0     H89587   5.316   9.402   7.823  3.5156 -0.3062  3.1877
  679MOL0     H89588   5.026   9.369   7.899  1.0616  3.0845  0.4541
  679MOL0     H89589   5.127   9.228   7.862  0.5872 -0.1676  0.4303
  679MOL0     H89590   4.847   9.284   7.809  1.8456 -3.6793  0.6477
  679MOL0     H89591   4.659   9.239   7.669 -1.7765  2.0698 -1.6564
  679MOL0     H89592   4.394   8.961   7.358  0.5640  0.7200 -0.5881
  679MOL0     H89593   4.153   8.986   7.336  0.1722 -0.7395  0.9109
  679MOL0     H89594   3.942   9.363   7.248  1.9304 -0.5941  0.0821
  679MOL0     H89595   3.976   9.331   7.421 -0.2688 -2.1887  1.0314
  679MOL0     H89596   3.750   9.220   7.257 -0.4935  1.4217 -0.9526
  679MOL0     H89597   3.745   9.341   7.386 -3.8276 -2.3841 -1.8596
  679MOL0     H89598   3.786   9.179   7.564 -1.3243  1.1785  0.6106
  679MOL0     H89599   3.817   9.048   7.460  0.5120  0.5835  0.7031
  679MOL0     H89600   3.591   9.034   7.545  0.0882 -2.5933 -1.3669
  679MOL0     H89601   3.544   9.184   7.452  0.2987  1.4917  1.6264
  679MOL0     H89602   3.664   8.924   7.319 -0.8880 -0.7459 -2.8002
  679MOL0     H89603   3.606   9.063   7.231 -1.7933 -1.0540 -1.2121
  679MOL0     H89604   3.438   8.909   7.443  0.8231  2.3144 -0.2464
  679MOL0     H89605   3.466   8.841   7.275  1.4640 -0.0332 -0.2491
  679MOL0     H89606   3.342   9.111   7.326 -1.5803  0.1295 -0.1476
  679MOL0     H89607   3.356   9.019   7.166 -1.0954 -3.2685  0.6308
  679MOL0     H89608   3.233   8.834   7.246  2.3532  1.4013 -0.3840
  679MOL0     H89609   3.133   8.976   7.229 -0.2138 -0.0070 -1.1607
  679MOL0     H89610   4.187   9.411   7.346  0.2679 -0.1034 -0.9714
  679MOL0     H89611   4.427   9.392   7.402  0.8005  0.0077 -1.7959
  679MOL0     H89612   4.896   9.248   7.317 -0.0726 -3.4793 -0.5388
  679MOL0     H89613   5.078   9.342   7.450 -1.6513 -1.3879 -3.8920
  679MOL0     H89614   5.374   9.007   8.345 -1.6491 -1.7081  0.0066
  679MOL0     H89615   5.214   8.909   8.479  0.6031  0.6889 -1.6665
  679MOL0     H89616   5.044   8.645   8.707 -4.5343 -0.6022 -1.7712
  679MOL0     H89617   4.830   8.551   8.772  0.6107 -1.6906  1.5726
  679MOL0     H89618   4.633   8.717   9.133  2.6104 -1.6441 -0.5466
  679MOL0     H89619   4.626   8.546   9.105 -1.9163 -0.1784 -0.4898
  679MOL0     H89620   4.416   8.756   9.026 -1.3633 -0.2541 -1.2868
  679MOL0     H89621   4.422   8.588   8.956  2.0811 -1.2149  0.3890
  679MOL0     H89622   4.410   8.652   9.257  1.3437  1.3893 -0.0056
  679MOL0     H89623   4.390   8.496   9.199  0.0293  1.3247  3.1725
  679MOL0     H89624   4.193   8.729   9.141  0.1831 -0.2504 -3.4885
  679MOL0     H89625   4.188   8.582   9.060  0.4502  0.1150  0.5031
  679MOL0     H89626   4.013   8.457   9.419 -0.5848 -0.9352 -1.1397
  679MOL0     H89627   4.790   8.847   9.071  0.5338  1.0017 -1.3709
  679MOL0     H89628   5.023   8.924   9.021  0.0235  2.2168 -4.9279
  680MOL0     O89629   9.247   7.454   0.437 -0.5076  0.1760  0.1745
  680MOL0     C89630   9.249   7.358   0.509  0.3164 -0.5850 -0.6032
  680MOL0     O89631   9.141   7.265   0.521 -0.4077  0.7638 -0.7480
  680MOL0     C89632   9.043   7.279   0.423 -0.7660  0.5573  0.5190
  680MOL0     C89633   8.955   7.387   0.431 -0.3561  0.1683 -0.3509
  680MOL0     C89634   8.848   7.389   0.342 -0.2146 -0.7445 -0.0925
  680MOL0     C89635   8.831   7.295   0.246  0.2978 -0.1380  0.4621
  680MOL0     O89636   8.723   7.316   0.159  0.0440  0.9320 -0.4579
  680MOL0     C89637   8.741   7.338   0.019  0.9355 -0.5153  0.8154
  680MOL0     C89638   8.623   7.428  -0.031  0.4474  0.0191  0.1374
  680MOL0     C89639   8.615   7.561   0.044 -0.3868 -0.2744 -0.3807
  680MOL0     C89640   8.483   7.638   0.011  0.3600  0.2923  0.6908
  680MOL0     C89641   8.481   7.781   0.066  0.5960  0.4342  0.2894
  680MOL0     C89642   8.366   7.870   0.007  0.1113  0.5463 -0.8311
  680MOL0     C89643   8.385   8.019   0.026 -0.1598 -0.8722  0.2636
  680MOL0     C89644   8.332   8.088   0.148 -0.2733  0.7488  0.1833
  680MOL0     N89645   8.183   8.089   0.163  0.3867  0.8385  0.6741
  680MOL0     C89646   8.117   8.030   0.267  0.1873 -0.0931 -0.1891
  680MOL0     C89647   7.980   8.062   0.250 -1.1678  0.1094 -0.4743
  680MOL0     C89648   7.856   8.039   0.330  0.1961  0.4241 -0.0898
  680MOL0     C89649   7.852   7.886   0.358  0.8043 -0.2326 -0.0882
  680MOL0     C89650   7.732   7.841   0.442  0.3287 -0.3801  0.2753
  680MOL0     C89651   7.682   7.932   0.551 -0.2399  0.8778 -0.1609
  680MOL0     O89652   7.562   7.855   0.594  0.2478 -0.5293 -0.5392
  680MOL0     C89653   7.467   7.927   0.657 -0.6224  0.3030  0.4190
  680MOL0     C89654   7.346   7.852   0.688  0.7925 -0.3177  0.0977
  680MOL0     C89655   7.243   7.909   0.748  0.2905  0.3258 -0.4360
  680MOL0     C89656   7.230   8.048   0.764 -0.3346 -0.7344 -0.2921
  680MOL0     C89657   7.106   8.105   0.821 -0.9915  0.3973  0.5914
  680MOL0     O89658   7.024   8.019   0.884 -0.5477 -0.1924 -0.0793
  680MOL0     C89659   6.923   8.066   0.951  0.1644  0.0879 -0.7711
  680MOL0     C89660   6.791   8.074   0.910 -0.0794 -0.2825 -0.2385
  680MOL0     C89661   6.693   8.134   0.979 -0.1267 -0.3152 -0.1855
  680MOL0     C89662   6.725   8.204   1.102 -0.9759  0.2969  0.2068
  680MOL0     O89663   6.638   8.283   1.171 -0.2538  0.1962 -0.5119
  680MOL0     C89664   6.503   8.234   1.190  0.3565  0.7200  0.7019
  680MOL0     C89665   6.431   8.324   1.290 -0.5192 -0.6374  0.1971
  680MOL0     C89666   6.492   8.294   1.428  0.1889  0.2320 -0.3080
  680MOL0     C89667   6.415   8.359   1.532 -0.4047 -0.1778  0.1599
  680MOL0     C89668   6.464   8.301   1.669  0.4044  0.7161 -0.2996
  680MOL0     C89669   6.613   8.286   1.699  0.1982  0.4252  0.2620
  680MOL0     C89670   6.685   8.425   1.676  0.9221 -0.3372  0.1370
  680MOL0     C89671   6.628   8.536   1.764 -0.8173  0.1511  0.4194
  680MOL0    Cl89672   6.601   8.492   1.937  0.3626  0.2154  0.0069
  680MOL0     C89673   6.854   8.175   1.160  0.2737 -0.7678 -0.7521
  680MOL0     C89674   6.952   8.112   1.084  1.6935 -0.2190  0.3615
  680MOL0     O89675   7.103   8.226   0.843 -0.4560 -0.0074 -0.0178
  680MOL0     C89676   7.343   8.133   0.734 -0.7681  0.9910  0.4906
  680MOL0     C89677   7.454   8.060   0.679  0.3669 -0.0334  0.9822
  680MOL0     N89678   7.982   8.144   0.134 -0.4579  0.2793 -0.3585
  680MOL0     N89679   8.098   8.160   0.089 -0.8356 -0.3500  0.4139
  680MOL0     C89680   8.923   7.196   0.235 -0.0541 -0.3313 -0.4073
  680MOL0     C89681   9.029   7.180   0.316 -1.0495 -1.0143  0.3550
  680MOL0     C89682   9.357   7.354   0.612 -0.1498 -0.2919 -0.1892
  680MOL0     C89683   9.371   7.250   0.707  0.9781 -0.4539 -0.1934
  680MOL0     C89684   9.480   7.242   0.793 -0.1312 -0.1866  0.4924
  680MOL0     C89685   9.580   7.334   0.788  0.0198 -0.0816  0.2770
  680MOL0     O89686   9.693   7.323   0.864 -0.2302 -0.2920  0.3865
  680MOL0     C89687   9.696   7.333   1.001  0.3201  0.4479 -1.2451
  680MOL0     C89688   9.740   7.478   1.038  0.0741  0.3749  0.0029
  680MOL0     C89689   9.733   7.493   1.198  0.3266 -0.4728  0.6388
  680MOL0     C89690   9.590   7.537   1.255  0.4871 -0.7353 -0.0593
  680MOL0     C89691   9.492   7.432   1.274  0.1245  1.5268 -0.7210
  680MOL0     C89692   9.422   7.336   1.290 -0.3480  0.0947  0.5920
  680MOL0     C89693   9.556   7.447   0.704  0.0843  0.3055  0.3558
  680MOL0     C89694   9.455   7.455   0.609  0.8047 -0.6468 -0.0857
  680MOL0     H89695   8.949   7.464   0.506  2.1717  2.0560 -1.9310
  680MOL0     H89696   8.767   7.460   0.358 -0.3336 -0.2673 -2.5000
  680MOL0     H89697   8.748   7.259  -0.057  3.7188  0.0992  0.3296
  680MOL0     H89698   8.833   7.396   0.013  0.0597  0.7635 -1.1722
  680MOL0     H89699   8.527   7.380  -0.010  1.1254 -0.8741  1.3046
  680MOL0     H89700   8.646   7.451  -0.135  2.4033  1.6002  0.8478
  680MOL0     H89701   8.705   7.619   0.020 -1.7292  1.1901 -2.2297
  680MOL0     H89702   8.618   7.544   0.152  1.4292  2.8444  0.1882
  680MOL0     H89703   8.484   7.648  -0.098  0.8823  2.1101  0.8321
  680MOL0     H89704   8.399   7.576   0.043 -3.3047  3.2401 -2.3091
  680MOL0     H89705   8.571   7.839   0.048 -0.5587  2.2341  0.0366
  680MOL0     H89706   8.458   7.782   0.173 -4.0607 -1.6754 -0.4202
  680MOL0     H89707   8.273   7.846   0.061  0.4955 -0.0558 -0.4242
  680MOL0     H89708   8.358   7.846  -0.099  1.1676 -2.6803 -0.2953
  680MOL0     H89709   8.490   8.045   0.012 -0.0571 -0.8369  1.0662
  680MOL0     H89710   8.334   8.064  -0.060 -0.3456  1.4491  1.5237
  680MOL0     H89711   8.373   8.189   0.153  2.7541 -0.4108  0.3737
  680MOL0     H89712   8.385   8.040   0.231 -0.1364  0.9654  0.2224
  680MOL0     H89713   8.159   7.972   0.349 -3.8311  0.5387  2.6013
  680MOL0     H89714   7.764   8.075   0.282 -1.3285 -2.0917  0.7220
  680MOL0     H89715   7.866   8.095   0.423  3.6154 -1.8638  1.1147
  680MOL0     H89716   7.948   7.863   0.405  1.2394  0.0357 -0.8258
  680MOL0     H89717   7.844   7.842   0.258 -0.9466 -1.1137  0.4005
  680MOL0     H89718   7.651   7.823   0.370  0.3629 -0.0385  0.1461
  680MOL0     H89719   7.762   7.744   0.482 -0.2696 -1.6744 -2.2184
  680MOL0     H89720   7.671   8.033   0.510 -1.3289  0.2382 -1.4987
  680MOL0     H89721   7.752   7.941   0.635 -2.2086  3.0669  1.3845
  680MOL0     H89722   7.342   7.745   0.672 -0.5232 -0.3715  0.6974
  680MOL0     H89723   7.161   7.845   0.782 -0.7268  1.8220  0.0257
  680MOL0     H89724   6.767   8.048   0.807 -1.7047 -1.1848  0.3117
  680MOL0     H89725   6.595   8.149   0.935 -0.3841  2.0360  1.0324
  680MOL0     H89726   6.507   8.135   1.236  0.7842  0.0351 -0.7611
  680MOL0     H89727   6.440   8.223   1.101  0.1364  0.7786  0.8493
  680MOL0     H89728   6.326   8.295   1.278 -0.3707 -0.2263 -3.1602
  680MOL0     H89729   6.439   8.430   1.263  1.5594 -0.7670  0.1493
  680MOL0     H89730   6.587   8.349   1.429 -1.3747  3.1205 -0.1626
  680MOL0     H89731   6.494   8.186   1.444  1.3489  0.2281 -0.3557
  680MOL0     H89732   6.436   8.466   1.532 -0.0667 -0.1321 -3.6923
  680MOL0     H89733   6.306   8.359   1.520 -0.6624  2.0847  1.8918
  680MOL0     H89734   6.417   8.203   1.686  1.7175  0.2859  1.0773
  680MOL0     H89735   6.431   8.372   1.746 -0.6417 -0.4748  0.4014
  680MOL0     H89736   6.656   8.208   1.635  0.1512  1.8541 -1.6194
  680MOL0     H89737   6.624   8.272   1.806  0.7975  3.2547  0.6599
  680MOL0     H89738   6.792   8.413   1.695  0.2362 -4.1943  2.6954
  680MOL0     H89739   6.679   8.473   1.578  3.1755 -0.0056  0.1162
  680MOL0     H89740   6.532   8.570   1.722 -0.3266  0.7794 -0.2181
  680MOL0     H89741   6.703   8.615   1.763 -0.2639 -0.3652  0.8387
  680MOL0     H89742   6.885   8.204   1.260 -3.7981 -0.7154  0.6643
  680MOL0     H89743   7.045   8.093   1.138  1.6300 -2.5667 -0.2431
  680MOL0     H89744   7.349   8.242   0.731  1.4426  0.8878 -0.6539
  680MOL0     H89745   7.544   8.107   0.641  0.7376 -0.6348  1.1041
  680MOL0     H89746   8.907   7.120   0.159 -2.0127  0.2828 -0.6935
  680MOL0     H89747   9.086   7.092   0.290  1.1058  0.1998  0.7165
  680MOL0     H89748   9.294   7.173   0.703  1.3966 -0.8341 -2.4384
  680MOL0     H89749   9.489   7.150   0.850  0.2701  0.0692  0.8522
  680MOL0     H89750   9.767   7.259   1.040  2.9072  3.0618 -0.6694
  680MOL0     H89751   9.592   7.317   1.034  0.5060  1.0212 -0.3341
  680MOL0     H89752   9.846   7.486   1.010 -0.1859 -0.3595 -1.2728
  680MOL0     H89753   9.670   7.549   0.994 -0.9075 -0.8698 -0.5058
  680MOL0     H89754   9.796   7.579   1.223 -0.4468  0.0081  1.0167
  680MOL0     H89755   9.772   7.410   1.257 -2.6345 -0.3173  3.0880
  680MOL0     H89756   9.622   7.577   1.352 -0.8005  0.2070  0.0031
  680MOL0     H89757   9.534   7.619   1.210 -0.3795 -0.9005  0.6965
  680MOL0     H89758   9.370   7.246   1.320 -1.3784 -0.3444 -2.2354
  680MOL0     H89759   9.636   7.520   0.710  0.7527 -0.2231 -1.4112
  680MOL0     H89760   9.454   7.537   0.539 -0.8080 -0.5565  0.0066
  681MOL0     O89761  10.487   2.723   6.953  0.7815 -0.7836  0.1171
  681MOL0     C89762  10.526   2.798   6.864  0.1974 -0.7268 -0.7920
  681MOL0     O89763  10.459   2.832   6.747 -0.9633  0.4145 -0.1549
  681MOL0     C89764  10.330   2.791   6.725 -0.6722 -0.1731 -0.2427
  681MOL0     C89765  10.239   2.776   6.835  0.4154  0.2934 -0.2659
  681MOL0     C89766  10.101   2.749   6.823  0.4664  1.2675  0.6806
  681MOL0     C89767  10.053   2.730   6.689 -0.2598  0.4171  0.1853
  681MOL0     O89768   9.922   2.701   6.648 -0.6535 -0.3419  0.3742
  681MOL0     C89769   9.829   2.673   6.756 -0.8197 -0.1431  0.5881
  681MOL0     C89770   9.703   2.618   6.692  0.6917 -0.1713 -0.0385
  681MOL0     C89771   9.625   2.720   6.612 -0.8927 -0.4771  0.4183
  681MOL0     C89772   9.476   2.675   6.582 -1.1898  1.0081 -0.7991
  681MOL0     C89773   9.397   2.766   6.497 -0.2634  1.3705  0.4296
  681MOL0     C89774   9.279   2.827   6.578  0.1645 -0.6445  0.1551
  681MOL0     C89775   9.197   2.929   6.510  0.1224  0.6945  0.7398
  681MOL0     C89776   9.271   3.033   6.428  0.7564  0.0173 -0.4322
  681MOL0     N89777   9.167   3.134   6.402 -0.6503 -0.3641 -0.9861
  681MOL0     C89778   9.155   3.234   6.492  0.2074  0.0494  0.2820
  681MOL0     C89779   9.048   3.301   6.445  1.0340  0.7731  0.6221
  681MOL0     C89780   9.003   3.424   6.523  0.4112  0.1362  0.1852
  681MOL0     C89781   8.852   3.435   6.553 -0.4835 -1.1164  0.9072
  681MOL0     C89782   8.762   3.459   6.425 -0.7330  0.3608 -0.8803
  681MOL0     C89783   8.623   3.517   6.462  0.2892  0.1550  0.0630
  681MOL0     O89784   8.543   3.549   6.345 -0.8234  0.5766 -0.4214
  681MOL0     C89785   8.423   3.613   6.370 -0.6982  0.8829 -0.4052
  681MOL0     C89786   8.315   3.555   6.303 -0.7195 -0.4801 -1.1758
  681MOL0     C89787   8.189   3.611   6.309  0.0877  0.1379 -0.4216
  681MOL0     C89788   8.171   3.741   6.363  0.0354  0.7187 -0.0344
  681MOL0     C89789   8.035   3.800   6.361 -0.3781  0.3980  0.6294
  681MOL0     O89790   7.933   3.720   6.302 -0.0928 -0.9154  0.5485
  681MOL0     C89791   7.807   3.763   6.312 -0.3912  0.2993 -0.1701
  681MOL0     C89792   7.714   3.668   6.345 -0.4666 -0.1038 -0.2777
  681MOL0     C89793   7.575   3.699   6.351 -0.4897  0.3395 -0.5431
  681MOL0     C89794   7.537   3.827   6.318  0.2318 -0.4488 -0.2897
  681MOL0     O89795   7.402   3.873   6.320  0.4032 -0.1545  0.5088
  681MOL0     C89796   7.328   3.836   6.439 -0.2311 -0.0579 -0.5597
  681MOL0     C89797   7.258   3.961   6.484  0.2504 -0.4519  0.0992
  681MOL0     C89798   7.137   4.008   6.403 -0.0740  0.2285 -0.0493
  681MOL0     C89799   7.002   3.946   6.450  0.1376  0.9498  0.0731
  681MOL0     C89800   6.886   3.980   6.345 -1.2770 -0.0387 -0.7899
  681MOL0     C89801   6.846   4.128   6.351  0.0341 -0.2981  0.8630
  681MOL0     C89802   6.730   4.145   6.256  0.7128  0.5119  0.1046
  681MOL0     C89803   6.687   4.289   6.230  0.6559 -0.1761  0.4612
  681MOL0    Cl89804   6.527   4.274   6.133 -0.1707  0.1770  0.5109
  681MOL0     C89805   7.638   3.926   6.300 -0.1809  0.8661  0.0006
  681MOL0     C89806   7.767   3.894   6.290  0.6422 -0.3012 -0.6333
  681MOL0     O89807   8.016   3.895   6.433  0.5890 -0.2010 -0.3333
  681MOL0     C89808   8.285   3.813   6.407  0.5872  0.1058  0.0851
  681MOL0     C89809   8.399   3.736   6.419  0.3281 -1.4241 -0.1464
  681MOL0     N89810   9.002   3.251   6.323 -1.0775  0.1606  0.0311
  681MOL0     N89811   9.083   3.149   6.302  0.5349 -0.1786 -0.2619
  681MOL0     C89812  10.142   2.755   6.579 -0.2682  0.0055 -0.2012
  681MOL0     C89813  10.275   2.778   6.596 -0.3620 -0.7587  0.9177
  681MOL0     C89814  10.660   2.863   6.868 -0.8194 -0.0375 -0.8964
  681MOL0     C89815  10.706   2.946   6.761 -0.4882 -0.2377  0.5858
  681MOL0     C89816  10.840   2.987   6.757 -0.1579  0.5503 -0.1741
  681MOL0     C89817  10.923   2.968   6.867 -0.0328  0.4397  0.4984
  681MOL0     O89818  11.049   3.019   6.854 -0.4118  0.4556 -0.0917
  681MOL0     C89819  11.145   2.999   6.965  0.1170  0.4791  0.5299
  681MOL0     C89820  11.288   3.051   6.930  0.3127 -0.0959 -0.0472
  681MOL0     C89821  11.310   3.204   6.936  0.8272  0.2384 -0.0135
  681MOL0     C89822  11.455   3.238   6.890  0.3086 -0.9192 -0.2410
  681MOL0     C89823  11.547   3.218   6.998  0.2124 -0.7119 -0.4528
  681MOL0     C89824  11.614   3.190   7.103 -0.3007 -0.9911 -0.2316
  681MOL0     C89825  10.871   2.901   6.984 -0.0982 -0.3363  0.5688
  681MOL0     C89826  10.744   2.844   6.980 -0.2487 -1.1675  0.3693
  681MOL0     H89827  10.258   2.776   6.942 -0.2118 -2.7582 -0.0543
  681MOL0     H89828  10.032   2.743   6.906 -0.5676  0.7713 -0.1882
  681MOL0     H89829   9.803   2.761   6.815  0.3703  0.2088  0.6062
  681MOL0     H89830   9.879   2.600   6.820  0.5095  2.2422  2.4427
  681MOL0     H89831   9.632   2.586   6.769  2.7235 -0.2191  1.9284
  681MOL0     H89832   9.735   2.528   6.639  1.5728 -1.3809  2.3810
  681MOL0     H89833   9.683   2.751   6.525  0.9875  0.5690  1.9648
  681MOL0     H89834   9.637   2.810   6.672 -2.4086 -1.1407  1.7990
  681MOL0     H89835   9.492   2.580   6.531 -0.6721  0.2048  0.7663
  681MOL0     H89836   9.418   2.661   6.674 -2.0040  2.2916 -1.0918
  681MOL0     H89837   9.356   2.709   6.413  0.4861 -0.9240  1.5380
  681MOL0     H89838   9.466   2.839   6.452  0.7927 -1.0523 -2.1848
  681MOL0     H89839   9.311   2.874   6.671 -1.1227  2.0359 -0.6705
  681MOL0     H89840   9.211   2.751   6.616 -1.3796 -0.0379 -1.2967
  681MOL0     H89841   9.124   2.880   6.445  1.0154  0.6948 -0.3104
  681MOL0     H89842   9.131   2.972   6.585 -0.4737  0.9822  0.0529
  681MOL0     H89843   9.302   2.987   6.333  2.5057 -1.2368  0.6837
  681MOL0     H89844   9.353   3.076   6.486 -0.3798  1.0761  0.4372
  681MOL0     H89845   9.212   3.252   6.583 -2.0371 -1.3598  2.0934
  681MOL0     H89846   9.040   3.509   6.465  0.5340 -1.1673 -1.7412
  681MOL0     H89847   9.052   3.429   6.620 -1.0762  3.0448  0.8799
  681MOL0     H89848   8.839   3.519   6.622  1.4672 -1.8987  2.3277
  681MOL0     H89849   8.806   3.349   6.602 -2.2040 -0.6117  0.2302
  681MOL0     H89850   8.821   3.531   6.367 -0.0598  1.1063  0.6612
  681MOL0     H89851   8.745   3.367   6.369 -0.3819  0.1154 -0.5913
  681MOL0     H89852   8.642   3.612   6.512 -0.2358  0.5680 -0.5101
  681MOL0     H89853   8.554   3.453   6.518 -2.7710  1.4015 -1.9782
  681MOL0     H89854   8.324   3.469   6.237  1.3907  1.6294 -3.9068
  681MOL0     H89855   8.106   3.556   6.266  1.5303 -3.2425  0.7397
  681MOL0     H89856   7.739   3.564   6.363  3.0323  0.5131 -0.7435
  681MOL0     H89857   7.505   3.624   6.387  0.9622 -1.1293 -0.6454
  681MOL0     H89858   7.407   3.821   6.514 -0.5700 -1.4998 -0.4614
  681MOL0     H89859   7.257   3.754   6.428  1.7801 -1.6561 -2.5138
  681MOL0     H89860   7.332   4.041   6.493  1.9545 -2.2110  3.4347
  681MOL0     H89861   7.229   3.948   6.588  3.3690 -0.4436  1.0723
  681MOL0     H89862   7.158   3.989   6.298 -1.4911  0.4455 -0.3963
  681MOL0     H89863   7.125   4.117   6.405 -0.6206  0.4851 -5.1261
  681MOL0     H89864   7.007   3.837   6.443  0.2923  1.0438 -2.0161
  681MOL0     H89865   6.972   3.979   6.549  3.6686  3.3037  0.5349
  681MOL0     H89866   6.801   3.912   6.356 -1.2425  0.0907  0.3468
  681MOL0     H89867   6.917   3.979   6.240 -0.3231  0.9495 -0.5446
  681MOL0     H89868   6.930   4.193   6.325 -0.7703  0.2158 -0.5450
  681MOL0     H89869   6.821   4.161   6.452  0.3172  4.1996 -0.3124
  681MOL0     H89870   6.753   4.098   6.160  1.3128  2.6181 -0.8696
  681MOL0     H89871   6.643   4.091   6.293  1.0925 -0.8613 -0.9255
  681MOL0     H89872   6.759   4.354   6.180 -2.5489  1.9574 -1.7734
  681MOL0     H89873   6.668   4.322   6.333  0.8998 -2.4101  1.2943
  681MOL0     H89874   7.592   4.022   6.279  0.7772  1.8589  2.1770
  681MOL0     H89875   7.836   3.978   6.285 -0.0072  0.2087 -1.1799
  681MOL0     H89876   8.262   3.912   6.446 -2.9085 -1.2878  1.9561
  681MOL0     H89877   8.480   3.785   6.472 -1.1646  0.9640  0.0511
  681MOL0     H89878  10.117   2.757   6.473  0.5184 -2.2147 -0.4958
  681MOL0     H89879  10.330   2.790   6.503 -1.3630 -1.6942  0.1845
  681MOL0     H89880  10.633   2.957   6.682  0.1142  1.1819  0.1942
  681MOL0     H89881  10.881   3.017   6.662  2.1179 -1.2005  0.1659
  681MOL0     H89882  11.155   2.891   6.981  0.9706  0.1465 -1.7872
  681MOL0     H89883  11.106   3.036   7.060 -0.9000 -0.0716  0.3418
  681MOL0     H89884  11.359   3.010   7.002 -1.3013  0.3523  1.8881
  681MOL0     H89885  11.317   3.010   6.833 -3.1139 -0.7086 -0.9419
  681MOL0     H89886  11.290   3.234   7.039 -1.5407  3.8307 -1.3496
  681MOL0     H89887  11.232   3.251   6.875  0.8437  1.4390  0.8650
  681MOL0     H89888  11.489   3.173   6.809  1.7698 -1.1129  0.4923
  681MOL0     H89889  11.452   3.344   6.861 -0.8497 -0.6767  0.6709
  681MOL0     H89890  11.662   3.159   7.193 -0.6788  0.0362  0.3473
  681MOL0     H89891  10.937   2.892   7.070  1.1401  1.1730 -0.1628
  681MOL0     H89892  10.709   2.789   7.067 -0.0713  0.1454  1.2925
  682MOL0     O89893   8.930   7.269   3.442 -0.3254  0.3119  0.4559
  682MOL0     C89894   8.977   7.188   3.521 -0.6957 -0.0561  0.1590
  682MOL0     O89895   8.927   7.065   3.555  0.5897  0.2281  0.8435
  682MOL0     C89896   8.807   7.020   3.508 -0.7147 -0.0200 -0.4562
  682MOL0     C89897   8.699   7.111   3.496 -0.3180 -0.5523 -0.3133
  682MOL0     C89898   8.569   7.072   3.461  1.0850  1.1125  0.7701
  682MOL0     C89899   8.549   6.941   3.425 -0.4773  0.7671  0.2742
  682MOL0     O89900   8.424   6.917   3.377  0.5280 -0.5344  0.6124
  682MOL0     C89901   8.400   6.799   3.305  0.5979  0.3854  0.0650
  682MOL0     C89902   8.327   6.698   3.394  0.9150  0.3887  0.3098
  682MOL0     C89903   8.195   6.754   3.464 -0.2691  0.6851  0.4998
  682MOL0     C89904   8.117   6.642   3.540  0.3555  0.3778  1.1793
  682MOL0     C89905   8.038   6.719   3.637  0.4563 -0.3199  0.0055
  682MOL0     C89906   7.940   6.612   3.706  0.0687 -0.5922 -0.5912
  682MOL0     C89907   7.855   6.684   3.814  0.0126  0.1670 -0.9652
  682MOL0     C89908   7.730   6.601   3.853  0.1964  0.3725  0.1122
  682MOL0     N89909   7.625   6.635   3.757 -0.7816 -0.1603  0.8265
  682MOL0     C89910   7.564   6.755   3.745  1.1025  0.0958 -0.9263
  682MOL0     C89911   7.506   6.759   3.620 -0.6005 -0.4972  0.0240
  682MOL0     C89912   7.437   6.883   3.563  0.4494 -0.3669  0.0799
  682MOL0     C89913   7.534   7.002   3.529 -0.1205 -0.9694 -0.0676
  682MOL0     C89914   7.619   6.993   3.401  0.1853 -0.4284  0.1013
  682MOL0     C89915   7.700   6.860   3.375 -0.4913  0.0994  0.4435
  682MOL0     O89916   7.781   6.894   3.259  0.3553 -0.5750 -0.3471
  682MOL0     C89917   7.859   6.790   3.203  0.5860 -0.0646  0.3584
  682MOL0     C89918   7.849   6.652   3.237 -0.2928 -0.2796 -0.0453
  682MOL0     C89919   7.947   6.562   3.196  0.3927  0.3357 -0.1298
  682MOL0     C89920   8.039   6.608   3.097  0.3583 -0.3922  0.0553
  682MOL0     C89921   8.129   6.505   3.041  1.0167 -0.2356  0.8982
  682MOL0     O89922   8.211   6.548   2.936 -0.1862  0.0749 -0.8166
  682MOL0     C89923   8.316   6.462   2.923  0.4813 -1.0034  1.1293
  682MOL0     C89924   8.425   6.472   3.013  0.0766 -0.8207  0.6625
  682MOL0     C89925   8.539   6.400   2.991  0.0813  0.2401  0.6001
  682MOL0     C89926   8.561   6.320   2.879  1.0637 -0.2368  0.1329
  682MOL0     O89927   8.675   6.246   2.862 -0.3932  0.1634  0.0039
  682MOL0     C89928   8.676   6.138   2.967  0.2126  0.3555  0.2565
  682MOL0     C89929   8.805   6.046   2.942 -0.0599 -0.1320  0.0961
  682MOL0     C89930   8.829   6.017   2.790 -0.4303 -0.0256  1.0675
  682MOL0     C89931   8.950   5.917   2.746 -0.3641 -0.0998  0.4343
  682MOL0     C89932   9.093   5.979   2.754  0.3698 -0.0912 -0.3573
  682MOL0     C89933   9.201   5.898   2.684  0.1288  1.2018 -0.1439
  682MOL0     C89934   9.343   5.951   2.708  0.7278 -0.3156 -0.8183
  682MOL0     C89935   9.442   5.839   2.664  0.2948  0.1175  0.1137
  682MOL0    Cl89936   9.441   5.825   2.483  0.2049 -0.4747 -0.1465
  682MOL0     C89937   8.467   6.326   2.783 -0.0819 -0.0775  0.8023
  682MOL0     C89938   8.336   6.388   2.805  0.4251  0.7440 -0.1651
  682MOL0     O89939   8.141   6.402   3.108 -0.3051 -1.0860 -0.0561
  682MOL0     C89940   8.031   6.744   3.046  0.0370  0.6418  0.7248
  682MOL0     C89941   7.948   6.835   3.110 -0.3116 -0.0361  0.0673
  682MOL0     N89942   7.526   6.636   3.560 -0.4565 -0.4570 -0.0520
  682MOL0     N89943   7.612   6.575   3.636 -0.2631 -0.0761  0.7714
  682MOL0     C89944   8.648   6.850   3.449 -0.4513  1.1166  0.3859
  682MOL0     C89945   8.778   6.881   3.494 -0.4169 -1.1097  0.0946
  682MOL0     C89946   9.108   7.232   3.578  0.3380 -0.2605 -0.0184
  682MOL0     C89947   9.199   7.134   3.602 -0.9975  0.5657 -0.3207
  682MOL0     C89948   9.330   7.170   3.646 -0.4589  0.0972 -0.2117
  682MOL0     C89949   9.372   7.311   3.661 -0.2086  0.5039  0.6710
  682MOL0     O89950   9.494   7.350   3.706 -0.1327 -0.5107  0.7046
  682MOL0     C89951   9.601   7.261   3.670 -0.5220 -0.0349  0.2013
  682MOL0     C89952   9.736   7.339   3.664 -0.3033  0.0981 -0.5338
  682MOL0     C89953   9.877   7.260   3.678 -0.0099 -0.4077 -0.2748
  682MOL0     C89954   9.931   7.267   3.821  0.5974  0.6973  0.4459
  682MOL0     C89955  10.066   7.201   3.814  0.0621  0.8455 -0.4431
  682MOL0     C89956  10.177   7.146   3.803 -0.0964 -0.2142  0.1728
  682MOL0     C89957   9.265   7.409   3.653 -0.5488 -0.1054  0.5871
  682MOL0     C89958   9.142   7.363   3.609  0.1914 -0.0647 -0.8383
  682MOL0     H89959   8.713   7.215   3.526  0.7829 -0.0924 -2.2261
  682MOL0     H89960   8.483   7.139   3.455 -0.4208 -0.8494 -1.8985
  682MOL0     H89961   8.497   6.769   3.265  0.4739  2.1795 -1.7518
  682MOL0     H89962   8.346   6.814   3.211 -0.5596 -1.8267  0.2997
  682MOL0     H89963   8.395   6.653   3.467  0.7598 -2.4992 -1.1764
  682MOL0     H89964   8.295   6.622   3.323  1.8989 -0.2262  0.5129
  682MOL0     H89965   8.132   6.799   3.387 -0.4468  1.1404  0.9082
  682MOL0     H89966   8.222   6.836   3.530 -5.7789  1.7832  1.8264
  682MOL0     H89967   8.051   6.590   3.470 -1.7131  2.4837  1.4232
  682MOL0     H89968   8.172   6.569   3.599 -2.5059 -0.8741  2.5029
  682MOL0     H89969   7.973   6.791   3.587  2.6851  1.6218 -0.2601
  682MOL0     H89970   8.104   6.763   3.712 -0.8378  1.0196  0.3830
  682MOL0     H89971   8.002   6.532   3.748  2.2659  0.2343 -2.0450
  682MOL0     H89972   7.880   6.572   3.624 -0.2297  0.2730 -0.8093
  682MOL0     H89973   7.907   6.690   3.910 -0.9092 -1.4661 -0.3346
  682MOL0     H89974   7.827   6.787   3.787  0.7409  1.0494  1.4313
  682MOL0     H89975   7.694   6.642   3.949  3.1707  1.8620  0.7119
  682MOL0     H89976   7.745   6.493   3.853 -1.6600  0.0761  0.8161
  682MOL0     H89977   7.560   6.837   3.816 -0.1083  0.8973 -1.8592
  682MOL0     H89978   7.361   6.928   3.628 -0.4182 -0.6658 -0.7262
  682MOL0     H89979   7.397   6.850   3.467 -0.6812 -0.9624  0.7401
  682MOL0     H89980   7.600   7.021   3.615  0.7480  0.3478 -0.9975
  682MOL0     H89981   7.470   7.091   3.519  1.4088  0.3890  1.4974
  682MOL0     H89982   7.539   6.988   3.326 -1.4552  0.4188  1.7430
  682MOL0     H89983   7.676   7.083   3.380 -0.4888 -0.5089 -2.4440
  682MOL0     H89984   7.631   6.778   3.356 -1.1534  0.3915  1.5187
  682MOL0     H89985   7.746   6.831   3.471 -0.9620  3.3170  1.7733
  682MOL0     H89986   7.768   6.617   3.302 -1.1469 -0.4628 -1.1763
  682MOL0     H89987   7.941   6.456   3.218 -1.8550  0.5420  0.4975
  682MOL0     H89988   8.412   6.546   3.092 -1.0642  1.2083 -1.3130
  682MOL0     H89989   8.614   6.390   3.069 -1.7310 -2.6210  2.1651
  682MOL0     H89990   8.587   6.077   2.951  2.1926 -2.0810 -2.6535
  682MOL0     H89991   8.694   6.182   3.066  1.5079 -0.9356  0.6377
  682MOL0     H89992   8.772   5.949   2.982 -0.5824 -1.7598 -3.8268
  682MOL0     H89993   8.892   6.096   2.986 -1.4617  1.2307  1.4346
  682MOL0     H89994   8.856   6.111   2.740  3.5769 -0.3905  2.1998
  682MOL0     H89995   8.736   5.979   2.747  0.8600 -3.1135  0.7442
  682MOL0     H89996   8.944   5.838   2.821  0.9113 -1.6883 -1.0344
  682MOL0     H89997   8.934   5.873   2.647  0.2180  0.1436  0.2269
  682MOL0     H89998   9.124   5.986   2.859 -0.0927 -0.4831 -0.1888
  682MOL0     H89999   9.081   6.077   2.709 -0.9916 -1.1150 -2.3753
  682MOL0     H90000   9.180   5.902   2.577 -1.7990  1.1597  0.2075
  682MOL0     H90001   9.200   5.797   2.728  6.6394  0.0785 -1.5066
  682MOL0     H90002   9.334   6.046   2.655 -2.1425 -0.1059 -0.1085
  682MOL0     H90003   9.368   5.969   2.813 -1.4878 -1.1257 -0.1094
  682MOL0     H90004   9.432   5.742   2.714 -1.7846  0.1649 -0.0942
  682MOL0     H90005   9.545   5.860   2.693  0.1187 -0.6704  1.4003
  682MOL0     H90006   8.490   6.275   2.690  1.2577  1.4478  0.2455
  682MOL0     H90007   8.264   6.389   2.724 -1.7868 -0.5555  1.6572
  682MOL0     H90008   8.098   6.770   2.966  1.0888 -1.3308  0.8932
  682MOL0     H90009   7.941   6.938   3.076  1.5047  0.0879  0.0012
  682MOL0     H90010   8.616   6.747   3.447  0.6406  0.7357 -2.4967
  682MOL0     H90011   8.846   6.803   3.524 -1.6260 -2.8072 -1.3846
  682MOL0     H90012   9.177   7.028   3.590 -2.6424  1.0892 -2.4106
  682MOL0     H90013   9.394   7.085   3.666  1.8343  1.4635 -1.4142
  682MOL0     H90014   9.581   7.198   3.583 -2.1596 -2.2737  2.0575
  682MOL0     H90015   9.601   7.182   3.745 -3.4636  0.5952  0.9887
  682MOL0     H90016   9.742   7.410   3.581 -2.4149  1.9642  0.8004
  682MOL0     H90017   9.724   7.408   3.749 -0.3787  1.6873 -1.7834
  682MOL0     H90018   9.947   7.309   3.610 -2.3336  2.8643 -0.5200
  682MOL0     H90019   9.863   7.154   3.653  2.0470 -0.2287 -2.4930
  682MOL0     H90020   9.940   7.372   3.847  1.4256  1.0478 -1.1435
  682MOL0     H90021   9.868   7.227   3.902  1.6914  2.5321  2.2956
  682MOL0     H90022  10.280   7.120   3.791  1.6213  3.7486  3.7455
  682MOL0     H90023   9.288   7.512   3.678 -1.0961  0.5285 -1.3409
  682MOL0     H90024   9.070   7.440   3.582  0.8664  1.6282  1.7686
  683MOL0     O90025   3.659   7.690   7.522 -0.2661 -0.2212  0.3934
  683MOL0     C90026   3.678   7.699   7.402  1.0178  0.2046  0.0960
  683MOL0     O90027   3.578   7.686   7.309  0.7200  1.2511 -0.9111
  683MOL0     C90028   3.447   7.696   7.333 -0.2214  0.4905  0.3233
  683MOL0     C90029   3.374   7.665   7.218  0.3574 -0.1828  0.1311
  683MOL0     C90030   3.232   7.662   7.224  0.2449  0.5898 -0.0804
  683MOL0     C90031   3.165   7.685   7.342 -0.1146 -0.0522  0.9845
  683MOL0     O90032   3.027   7.691   7.334  0.4933  0.3706 -1.2017
  683MOL0     C90033   2.945   7.708   7.458  0.7176  0.1909  0.0732
  683MOL0     C90034   2.945   7.588   7.549 -0.6191 -0.5943  0.1245
  683MOL0     C90035   2.891   7.481   7.458 -0.6205  0.3388 -0.3557
  683MOL0     C90036   2.851   7.352   7.532  0.4096 -0.0376  0.5861
  683MOL0     C90037   2.810   7.249   7.419 -0.0629 -0.3404 -0.0829
  683MOL0     C90038   2.767   7.109   7.488 -0.2550  0.2026  0.6773
  683MOL0     C90039   2.633   7.113   7.574  0.5170 -0.2390 -1.0405
  683MOL0     C90040   2.505   7.134   7.494  0.1244 -0.0888  0.2334
  683MOL0     N90041   2.379   7.072   7.549  0.0873  0.0375 -0.5538
  683MOL0     C90042   2.298   6.978   7.497  0.0976  0.2906  0.4881
  683MOL0     C90043   2.208   6.953   7.593 -0.2773 -0.7602  0.4715
  683MOL0     C90044   2.103   6.844   7.600 -0.0720  0.3275  0.0219
  683MOL0     C90045   1.957   6.889   7.618  0.4537 -0.6722 -0.5392
  683MOL0     C90046   1.860   6.775   7.645 -0.5227  0.1399  0.3301
  683MOL0     C90047   1.718   6.835   7.642  0.3940 -0.2539  0.8727
  683MOL0     O90048   1.633   6.725   7.660  0.8518  0.5342 -0.5302
  683MOL0     C90049   1.500   6.746   7.681  0.4862 -1.1493 -0.1419
  683MOL0     C90050   1.436   6.638   7.721 -0.2322 -0.0218  0.5533
  683MOL0     C90051   1.294   6.630   7.744  0.8036 -0.1995  0.0652
  683MOL0     C90052   1.222   6.752   7.726 -0.4721  0.9513  0.4746
  683MOL0     C90053   1.079   6.762   7.771 -0.2263  0.1969 -0.8708
  683MOL0     O90054   1.019   6.880   7.764 -0.0098 -0.3745 -0.1202
  683MOL0     C90055   0.886   6.864   7.736  0.1527 -0.5882 -0.2641
  683MOL0     C90056   0.853   6.832   7.606  0.1372 -0.7506 -0.3825
  683MOL0     C90057   0.720   6.820   7.571  0.3421  0.6476  0.4232
  683MOL0     C90058   0.619   6.873   7.656  0.5528  0.7516 -0.7384
  683MOL0     O90059   0.486   6.892   7.627  0.1057 -0.1498  0.0879
  683MOL0     C90060   0.448   6.889   7.483  0.2006 -0.0807 -0.1058
  683MOL0     C90061   0.301   6.933   7.480 -0.1751  0.6192  0.2930
  683MOL0     C90062   0.216   6.807   7.508  0.0830  0.9527 -0.2798
  683MOL0     C90063   0.067   6.827   7.463 -0.0604 -0.6661  0.2583
  683MOL0     C90064  -0.011   6.927   7.556 -0.0516  0.1348  0.3976
  683MOL0     C90065  -0.150   6.954   7.502 -0.0350 -0.4847 -0.1973
  683MOL0     C90066  -0.219   7.059   7.577 -0.6957 -0.5610 -0.6645
  683MOL0     C90067  -0.258   7.016   7.719  1.0656 -0.2306  0.4224
  683MOL0    Cl90068  -0.416   7.105   7.754  0.0081 -0.0213  0.7349
  683MOL0     C90069   0.655   6.913   7.791 -0.9218  0.5992 -0.1223
  683MOL0     C90070   0.791   6.907   7.826  0.2860  0.9126 -0.5661
  683MOL0     O90071   1.027   6.655   7.804 -0.7158  0.0465  0.0313
  683MOL0     C90072   1.286   6.853   7.660 -0.9418 -0.2112 -0.2851
  683MOL0     C90073   1.425   6.857   7.645 -0.5420 -0.6820 -0.1419
  683MOL0     N90074   2.235   7.038   7.702  0.3019 -0.1549 -0.0022
  683MOL0     N90075   2.334   7.105   7.676 -0.8584  0.6240 -0.4820
  683MOL0     C90076   3.239   7.733   7.455 -0.3845  0.0376 -0.3441
  683MOL0     C90077   3.383   7.738   7.450 -0.2009 -0.7296  0.2494
  683MOL0     C90078   3.815   7.699   7.352  0.0372 -0.3318  0.5608
  683MOL0     C90079   3.917   7.659   7.443  0.2496 -0.8603 -0.1737
  683MOL0     C90080   4.045   7.672   7.409  0.6224  0.5460  0.2627
  683MOL0     C90081   4.093   7.718   7.282  0.4579  0.4193 -0.3577
  683MOL0     O90082   4.222   7.747   7.243 -0.3143  0.4660 -0.1697
  683MOL0     C90083   4.319   7.733   7.344 -0.6668 -0.8378  0.5590
  683MOL0     C90084   4.445   7.785   7.292  0.2320  0.4426  0.1534
  683MOL0     C90085   4.552   7.813   7.404 -0.0225  0.1590  0.7829
  683MOL0     C90086   4.674   7.876   7.348  0.2715  0.2402 -0.3413
  683MOL0     C90087   4.764   7.919   7.453 -0.3233 -0.9897 -0.6831
  683MOL0     C90088   4.836   7.975   7.532  0.2516 -0.3353  0.0250
  683MOL0     C90089   3.991   7.740   7.190 -0.6719 -0.4069  0.5630
  683MOL0     C90090   3.855   7.733   7.223 -0.1737  0.5491  0.4409
  683MOL0     H90091   3.427   7.630   7.130 -1.8261  0.3875 -1.5129
  683MOL0     H90092   3.168   7.647   7.137 -0.0644  0.7858  0.1116
  683MOL0     H90093   2.842   7.725   7.423  1.2845  0.8489 -1.3726
  683MOL0     H90094   2.970   7.799   7.514  0.1447 -0.5269  1.5419
  683MOL0     H90095   2.883   7.611   7.635  1.2400  0.6318  1.2119
  683MOL0     H90096   3.046   7.564   7.585 -0.1359  2.3583  0.9301
  683MOL0     H90097   2.966   7.452   7.384 -0.5747 -3.5523  0.9898
  683MOL0     H90098   2.801   7.511   7.404 -0.1766 -1.8981 -2.4921
  683MOL0     H90099   2.931   7.318   7.599  0.9384 -4.2082 -1.8449
  683MOL0     H90100   2.762   7.362   7.595 -0.9901  0.2044 -1.3335
  683MOL0     H90101   2.890   7.222   7.348 -0.2419  0.1240 -0.4680
  683MOL0     H90102   2.720   7.291   7.373  0.1257  1.7276  1.3347
  683MOL0     H90103   2.859   7.069   7.530  1.3178  0.4992 -2.2537
  683MOL0     H90104   2.747   7.045   7.401  1.1775  1.5684 -0.7177
  683MOL0     H90105   2.623   7.022   7.633  0.8223  1.6433  2.1733
  683MOL0     H90106   2.640   7.188   7.653 -1.7011 -0.6540 -0.3709
  683MOL0     H90107   2.525   7.094   7.394 -2.6329  3.2360 -1.8605
  683MOL0     H90108   2.490   7.242   7.485 -2.3644 -0.4494 -0.6469
  683MOL0     H90109   2.320   6.932   7.401  0.8403  0.6308  0.4840
  683MOL0     H90110   2.139   6.784   7.684 -2.2378  0.6596  1.2571
  683MOL0     H90111   2.105   6.777   7.513  0.7367 -0.8464  0.9235
  683MOL0     H90112   1.929   6.947   7.530  0.3399 -0.5972 -0.4545
  683MOL0     H90113   1.948   6.958   7.702 -1.1474 -0.6254 -0.7031
  683MOL0     H90114   1.874   6.692   7.575  1.0113  0.3351  0.3920
  683MOL0     H90115   1.890   6.738   7.743  3.3570  0.7334 -0.4947
  683MOL0     H90116   1.698   6.893   7.552  1.1215 -0.3631  0.6415
  683MOL0     H90117   1.706   6.898   7.731 -3.6582 -0.5302  0.7234
  683MOL0     H90118   1.497   6.554   7.751  2.2065  0.7732 -1.8226
  683MOL0     H90119   1.248   6.549   7.799 -3.7876  2.2509  0.2917
  683MOL0     H90120   0.931   6.808   7.534  0.4007  0.7180 -0.6180
  683MOL0     H90121   0.694   6.805   7.467 -2.7540  0.6144  1.1091
  683MOL0     H90122   0.463   6.791   7.437 -2.4019 -0.6459  0.1014
  683MOL0     H90123   0.514   6.964   7.438  2.1307  0.1240  2.7999
  683MOL0     H90124   0.277   6.954   7.375 -0.4129  1.1309  0.4449
  683MOL0     H90125   0.284   7.016   7.549 -0.4065  0.8069  0.0172
  683MOL0     H90126   0.216   6.774   7.612 -1.9580 -1.3512 -0.9226
  683MOL0     H90127   0.258   6.725   7.449  1.0682 -0.7208  2.5568
  683MOL0     H90128   0.053   6.865   7.362  1.3104 -1.3863 -0.2242
  683MOL0     H90129   0.021   6.728   7.459  0.4730 -0.8730 -1.1429
  683MOL0     H90130   0.049   7.019   7.556  3.6251 -2.0162 -1.6419
  683MOL0     H90131  -0.009   6.893   7.660 -1.4834 -0.1684  0.3410
  683MOL0     H90132  -0.212   6.865   7.487 -1.6628  0.8494 -1.8352
  683MOL0     H90133  -0.145   6.997   7.401  1.9259  0.1022  0.0992
  683MOL0     H90134  -0.162   7.152   7.573 -0.3798 -0.7378 -0.3462
  683MOL0     H90135  -0.307   7.086   7.518  0.0071  0.7883 -1.1394
  683MOL0     H90136  -0.185   7.030   7.798 -0.9225  0.9801  2.1602
  683MOL0     H90137  -0.284   6.910   7.703 -1.7757  0.6166 -1.4318
  683MOL0     H90138   0.571   6.947   7.851 -0.7795 -0.4291  0.6883
  683MOL0     H90139   0.815   6.918   7.932 -2.1165  0.4696  0.0710
  683MOL0     H90140   1.228   6.939   7.626 -0.0172  1.0390  1.1519
  683MOL0     H90141   1.471   6.942   7.596  2.2455 -2.9583 -1.7457
  683MOL0     H90142   3.178   7.771   7.536  2.7794  1.5114  1.4932
  683MOL0     H90143   3.423   7.766   7.547 -1.3334 -1.8520  1.0773
  683MOL0     H90144   3.899   7.627   7.545  2.1810 -1.1694  0.1012
  683MOL0     H90145   4.117   7.645   7.486  1.3001 -1.5551 -1.0367
  683MOL0     H90146   4.337   7.631   7.378  2.2377 -0.6361 -0.1306
  683MOL0     H90147   4.291   7.793   7.431  0.3587 -3.0261  2.4879
  683MOL0     H90148   4.482   7.708   7.223 -1.6434 -1.7646  1.4947
  683MOL0     H90149   4.425   7.881   7.243 -0.9373 -0.8974 -2.1398
  683MOL0     H90150   4.592   7.715   7.433  0.1515 -0.0550 -0.1305
  683MOL0     H90151   4.505   7.870   7.484  0.4591  0.0960  1.1153
  683MOL0     H90152   4.719   7.807   7.277 -0.6930 -0.6597 -0.0920
  683MOL0     H90153   4.641   7.961   7.288  1.0251 -0.3335 -1.5941
  683MOL0     H90154   4.915   8.027   7.581  0.1024 -1.5805  1.6816
  683MOL0     H90155   4.003   7.765   7.085  1.4112 -3.2680 -0.0180
  683MOL0     H90156   3.779   7.759   7.150  0.5938  1.0192 -0.2206
  684MOL0     O90157   9.397   0.205   8.930  0.0421 -0.7172  0.1169
  684MOL0     C90158   9.372   0.327   8.921 -0.2936  0.6407  1.1133
  684MOL0     O90159   9.456   0.426   8.963  0.3565  0.4636  0.0387
  684MOL0     C90160   9.531   0.393   9.072 -0.8003  0.0656  0.0660
  684MOL0     C90161   9.671   0.364   9.055 -0.5227 -0.0865 -0.6607
  684MOL0     C90162   9.752   0.350   9.165 -0.4974 -0.7328  0.1143
  684MOL0     C90163   9.692   0.346   9.294 -0.1672  0.5092  0.2767
  684MOL0     O90164   9.749   0.324   9.410  0.6136 -0.0980 -0.2177
  684MOL0     C90165   9.878   0.260   9.412  0.1764  0.7384  0.3698
  684MOL0     C90166   9.998   0.353   9.396  1.0646  0.4481  0.0163
  684MOL0     C90167  10.123   0.267   9.395  0.6646  0.0322  0.6792
  684MOL0     C90168  10.248   0.357   9.417  0.0709 -0.3243  0.1127
  684MOL0     C90169  10.376   0.257   9.411  0.1978  0.0448 -0.5787
  684MOL0     C90170  10.509   0.325   9.438 -0.4241  0.0983 -0.6093
  684MOL0     C90171  10.629   0.235   9.419  0.2784  0.5068 -0.0522
  684MOL0     C90172  10.633   0.154   9.287  0.3341  1.7645  0.5497
  684MOL0     N90173  10.672   0.016   9.329 -0.8464  0.7050  0.2086
  684MOL0     C90174  10.597  -0.090   9.363 -0.3093  0.3178 -0.1342
  684MOL0     C90175  10.677  -0.199   9.350  0.3341 -0.6609  0.0538
  684MOL0     C90176  10.642  -0.340   9.385 -0.3760 -0.7195 -0.2230
  684MOL0     C90177  10.580  -0.354   9.519  0.3170  0.2192 -0.1616
  684MOL0     C90178  10.552  -0.509   9.558 -0.4321  0.2030 -0.1138
  684MOL0     C90179  10.527  -0.534   9.711 -0.0454 -0.7370 -1.1903
  684MOL0     O90180  10.413  -0.468   9.755 -0.4027 -0.3590  0.3124
  684MOL0     C90181  10.298  -0.535   9.783 -0.0786  0.9418 -0.1509
  684MOL0     C90182  10.290  -0.619   9.897 -0.1366  0.4757 -0.0100
  684MOL0     C90183  10.168  -0.685   9.918 -0.8369 -0.2726 -0.2724
  684MOL0     C90184  10.057  -0.665   9.830 -0.1198 -0.0894  1.2704
  684MOL0     C90185   9.937  -0.757   9.852  0.6877  0.2522  0.5702
  684MOL0     O90186   9.849  -0.759   9.750  0.2294 -0.0456 -0.4443
  684MOL0     C90187   9.743  -0.848   9.768 -0.6176 -0.2886 -0.3435
  684MOL0     C90188   9.626  -0.784   9.786  0.9936 -0.0256  0.3961
  684MOL0     C90189   9.511  -0.863   9.810 -0.8966 -0.5064 -0.5237
  684MOL0     C90190   9.517  -1.002   9.815 -0.0507 -0.5691  0.2699
  684MOL0     O90191   9.404  -1.065   9.844 -0.0852  0.2081  0.3661
  684MOL0     C90192   9.349  -1.143   9.737  0.0754 -0.5172  0.1741
  684MOL0     C90193   9.222  -1.217   9.788 -0.2765 -0.1435 -0.3046
  684MOL0     C90194   9.173  -1.327   9.690  0.4302 -0.4156  1.0428
  684MOL0     C90195   9.074  -1.410   9.770  0.3126 -0.3455 -0.1943
  684MOL0     C90196   9.007  -1.506   9.668 -0.3586  0.6591  0.5799
  684MOL0     C90197   8.911  -1.596   9.740  0.4960  0.0240  0.0551
  684MOL0     C90198   8.856  -1.685   9.631  1.3885  0.1460 -0.0506
  684MOL0     C90199   8.766  -1.787   9.698 -0.3159  0.0717 -0.2460
  684MOL0    Cl90200   8.720  -1.897   9.576  0.4429  0.1422  0.2327
  684MOL0     C90201   9.635  -1.068   9.804  0.2068 -1.0865  0.5703
  684MOL0     C90202   9.751  -0.993   9.783 -0.5116 -0.2283  0.3649
  684MOL0     O90203   9.928  -0.818   9.961 -0.1370  0.4101  0.9764
  684MOL0     C90204  10.068  -0.575   9.729 -0.1373 -0.4382 -0.0218
  684MOL0     C90205  10.186  -0.508   9.703 -0.3551  0.4575 -1.1279
  684MOL0     N90206  10.803  -0.149   9.311 -0.0535 -0.0367 -0.0574
  684MOL0     N90207  10.796  -0.024   9.300 -1.0798  0.1949  0.3413
  684MOL0     C90208   9.554   0.364   9.307 -0.7562 -0.7281 -0.3876
  684MOL0     C90209   9.474   0.393   9.194  0.7113 -0.3373 -0.2725
  684MOL0     C90210   9.265   0.376   8.824  0.6806 -0.3430  0.9721
  684MOL0     C90211   9.186   0.284   8.746  0.0064 -0.4347 -0.8902
  684MOL0     C90212   9.085   0.341   8.665 -0.2463  0.5163  0.2023
  684MOL0     C90213   9.085   0.479   8.635  0.2621  0.6800  0.3510
  684MOL0     O90214   8.994   0.531   8.550  0.2318 -1.1461  0.3187
  684MOL0     C90215   8.975   0.671   8.521  0.2404  0.1393 -0.3829
  684MOL0     C90216   8.919   0.661   8.380  0.9334 -0.4006  0.1581
  684MOL0     C90217   8.767   0.631   8.369 -0.5124 -0.0310 -0.1541
  684MOL0     C90218   8.720   0.638   8.224  0.7374  0.0667  0.7942
  684MOL0     C90219   8.570   0.621   8.224 -1.1202 -0.3648  0.1313
  684MOL0     C90220   8.448   0.608   8.225 -0.7425 -0.4419 -0.6698
  684MOL0     C90221   9.167   0.567   8.708 -0.0123  0.0053  0.2866
  684MOL0     C90222   9.259   0.515   8.803  0.5014  0.7857 -0.0856
  684MOL0     H90223   9.715   0.380   8.957 -0.3091  0.0036 -0.5485
  684MOL0     H90224   9.858   0.349   9.141 -0.4220  1.0119  0.2509
  684MOL0     H90225   9.881   0.180   9.338 -1.7194 -0.4520  1.4691
  684MOL0     H90226   9.873   0.212   9.510 -1.4273  1.3547  0.6352
  684MOL0     H90227   9.999   0.427   9.476  0.5396 -0.3077  0.7379
  684MOL0     H90228   9.983   0.410   9.303 -1.8789  1.5665  1.0515
  684MOL0     H90229  10.123   0.223   9.295  2.2686  0.3724  0.4873
  684MOL0     H90230  10.117   0.190   9.472 -2.0682 -1.6706 -1.0462
  684MOL0     H90231  10.249   0.421   9.328  2.3184  1.6252  1.4253
  684MOL0     H90232  10.248   0.414   9.509 -1.7195 -0.6398  0.3370
  684MOL0     H90233  10.368   0.217   9.309  1.8613  2.0953 -1.5882
  684MOL0     H90234  10.357   0.166   9.468 -2.4535  0.7627 -0.1936
  684MOL0     H90235  10.525   0.365   9.539 -1.2311 -4.2431  1.4741
  684MOL0     H90236  10.514   0.407   9.366 -2.8729  1.1346  0.3066
  684MOL0     H90237  10.719   0.296   9.422  1.2593 -0.8230  4.1808
  684MOL0     H90238  10.635   0.168   9.505  1.9641 -0.1272 -0.6350
  684MOL0     H90239  10.691   0.208   9.212  1.3929  0.9709  0.7771
  684MOL0     H90240  10.535   0.151   9.238  0.3844  0.0591  0.5009
  684MOL0     H90241  10.494  -0.080   9.396 -0.2931  2.5422 -0.6222
  684MOL0     H90242  10.736  -0.395   9.390 -0.8322 -1.6899 -1.7728
  684MOL0     H90243  10.580  -0.381   9.305 -0.8146 -0.9504  0.2267
  684MOL0     H90244  10.486  -0.298   9.523  0.6071  0.6919  0.1245
  684MOL0     H90245  10.644  -0.313   9.598  1.8672 -0.6504 -0.9044
  684MOL0     H90246  10.461  -0.539   9.504 -0.5493 -4.7505  2.2288
  684MOL0     H90247  10.637  -0.570   9.527 -1.1041 -1.2942  0.8832
  684MOL0     H90248  10.604  -0.492   9.776 -1.6836 -3.9388  3.4333
  684MOL0     H90249  10.524  -0.639   9.742 -1.9288 -0.0307  1.4805
  684MOL0     H90250  10.365  -0.625   9.976 -0.4712  1.3005  0.3828
  684MOL0     H90251  10.173  -0.754  10.002  4.0155 -2.0512 -1.6611
  684MOL0     H90252   9.621  -0.675   9.782  1.0074  0.0345 -4.5786
  684MOL0     H90253   9.417  -0.815   9.832 -0.4200  0.4905 -0.6288
  684MOL0     H90254   9.427  -1.208   9.697  0.0670  0.6487 -1.8662
  684MOL0     H90255   9.326  -1.067   9.662  1.2029 -1.0605 -0.7533
  684MOL0     H90256   9.141  -1.145   9.803  1.9675  2.0432  2.1631
  684MOL0     H90257   9.247  -1.251   9.889 -1.6268  1.0095  0.4447
  684MOL0     H90258   9.257  -1.395   9.669  2.0903  2.0848 -0.8728
  684MOL0     H90259   9.145  -1.279   9.597  2.9786 -1.5193 -0.3931
  684MOL0     H90260   9.125  -1.460   9.852  1.2422  2.8006  1.2836
  684MOL0     H90261   9.002  -1.342   9.817  0.8774 -0.0455  0.2491
  684MOL0     H90262   9.092  -1.569   9.639  1.4630  2.4935  1.7197
  684MOL0     H90263   8.952  -1.454   9.589 -0.6006 -0.8645 -0.2987
  684MOL0     H90264   8.828  -1.535   9.779  0.8075  3.6574 -4.1115
  684MOL0     H90265   8.959  -1.653   9.820  3.2406  1.6970 -0.2929
  684MOL0     H90266   8.812  -1.629   9.548  2.1047  1.3073  0.3354
  684MOL0     H90267   8.938  -1.739   9.583 -0.8066 -1.2307 -2.5125
  684MOL0     H90268   8.674  -1.740   9.733 -0.5944 -0.7884  0.2216
  684MOL0     H90269   8.806  -1.848   9.780  1.0140 -0.8748 -1.5543
  684MOL0     H90270   9.636  -1.177   9.808  0.3537 -1.4116 -3.5999
  684MOL0     H90271   9.845  -1.046   9.779  0.0375  0.8022 -1.7925
  684MOL0     H90272   9.982  -0.556   9.665  1.4939  0.2288 -2.1083
  684MOL0     H90273  10.203  -0.445   9.616  0.4676 -0.5711 -1.7367
  684MOL0     H90274   9.502   0.347   9.401  1.2704 -0.3978  0.8405
  684MOL0     H90275   9.367   0.410   9.206  0.6713 -0.6552 -0.1694
  684MOL0     H90276   9.192   0.176   8.749 -1.0392 -0.4950 -0.7996
  684MOL0     H90277   9.018   0.269   8.617  0.5751 -0.9417  1.1525
  684MOL0     H90278   9.067   0.731   8.527 -1.6575  3.5872 -2.3337
  684MOL0     H90279   8.909   0.712   8.598  1.2907  0.6083  0.2993
  684MOL0     H90280   8.936   0.765   8.350  0.7456 -0.0321  1.2772
  684MOL0     H90281   8.977   0.588   8.323  0.9603 -0.7379  0.6082
  684MOL0     H90282   8.715   0.709   8.426 -1.2478 -0.0897 -0.7255
  684MOL0     H90283   8.740   0.532   8.406 -2.4129  0.7589  0.7605
  684MOL0     H90284   8.749   0.730   8.173 -0.0706 -0.0524  0.0923
  684MOL0     H90285   8.770   0.551   8.180  1.7712  0.2823  1.5105
  684MOL0     H90286   8.344   0.593   8.201 -0.3312 -0.8386 -2.3185
  684MOL0     H90287   9.169   0.673   8.688 -0.6286  0.0643  0.5186
  684MOL0     H90288   9.326   0.594   8.835 -1.6381  2.8878 -0.5815
  685MOL0     O90289   3.908   2.326   2.874  0.8547  0.3965  0.5317
  685MOL0     C90290   3.869   2.329   2.988 -0.0822 -0.2258 -0.5691
  685MOL0     O90291   3.883   2.227   3.082  0.2486 -0.4872  0.5055
  685MOL0     C90292   3.984   2.137   3.065 -0.4005  0.6623  0.1816
  685MOL0     C90293   3.971   2.025   3.148  0.0968 -0.2270  0.3973
  685MOL0     C90294   4.060   1.921   3.139 -0.4879  0.0507  0.2404
  685MOL0     C90295   4.175   1.924   3.048 -0.0965 -0.1170  0.1566
  685MOL0     O90296   4.264   1.819   3.023 -1.1001 -0.0627 -1.0123
  685MOL0     C90297   4.287   1.723   3.137 -0.3264  0.1591  0.3827
  685MOL0     C90298   4.426   1.656   3.110  0.2309 -0.7241 -0.4779
  685MOL0     C90299   4.423   1.524   3.019  0.2504  0.6493 -0.1992
  685MOL0     C90300   4.370   1.536   2.877  0.2187  0.3595  0.4110
  685MOL0     C90301   4.385   1.409   2.795  0.7761 -0.2670  0.1527
  685MOL0     C90302   4.275   1.308   2.831 -0.1045 -0.0478 -0.0750
  685MOL0     C90303   4.272   1.179   2.731 -0.9205  0.3607  0.3160
  685MOL0     C90304   4.137   1.110   2.735 -0.2247  0.1045  0.6989
  685MOL0     N90305   4.035   1.186   2.660  0.3398  0.5795  0.2203
  685MOL0     C90306   3.928   1.252   2.715  0.5855  0.0673 -0.2589
  685MOL0     C90307   3.849   1.300   2.615 -0.0705 -0.1721 -0.0673
  685MOL0     C90308   3.735   1.394   2.627  0.3125  0.0248  0.0449
  685MOL0     C90309   3.596   1.329   2.615  0.9042 -0.2594 -0.4009
  685MOL0     C90310   3.539   1.279   2.744 -0.2750 -0.0500  0.8331
  685MOL0     C90311   3.386   1.273   2.725  0.1934 -0.2500 -0.4490
  685MOL0     O90312   3.329   1.209   2.845  0.2296 -0.0562  0.3244
  685MOL0     C90313   3.193   1.199   2.864 -0.2567 -0.7257 -0.2622
  685MOL0     C90314   3.096   1.262   2.780 -0.3615 -0.7106 -0.1808
  685MOL0     C90315   2.955   1.234   2.798 -0.8574 -0.3047  0.6447
  685MOL0     C90316   2.905   1.162   2.902  0.0203 -0.5662  0.6978
  685MOL0     C90317   2.765   1.130   2.928 -0.5438  0.3424 -0.0541
  685MOL0     O90318   2.736   1.056   3.033  0.3508 -0.1204 -0.6575
  685MOL0     C90319   2.606   1.067   3.077 -0.3755  0.1957  0.3228
  685MOL0     C90320   2.502   1.001   3.025 -0.7217 -0.0543 -0.1255
  685MOL0     C90321   2.367   1.003   3.075 -0.0358 -0.2056 -0.3345
  685MOL0     C90322   2.345   1.097   3.179 -0.6109 -0.2025  0.7086
  685MOL0     O90323   2.221   1.105   3.225  0.4240  0.6219 -0.7139
  685MOL0     C90324   2.205   1.088   3.371  0.2765 -0.7239 -0.4167
  685MOL0     C90325   2.063   1.114   3.420  0.4360  0.4656 -0.5390
  685MOL0     C90326   2.003   1.247   3.393  0.2183 -0.9849  0.6857
  685MOL0     C90327   1.862   1.250   3.463 -0.2798 -0.0231 -0.0709
  685MOL0     C90328   1.789   1.376   3.440  0.0955 -0.9735 -0.0765
  685MOL0     C90329   1.870   1.491   3.507  0.5801  0.7959 -0.3585
  685MOL0     C90330   1.799   1.626   3.496  0.1700 -0.8988 -0.0017
  685MOL0     C90331   1.882   1.743   3.565 -0.1014 -0.0045  0.6109
  685MOL0    Cl90332   2.045   1.731   3.505 -0.9080  0.1544  0.0529
  685MOL0     C90333   2.452   1.170   3.226 -0.3659 -0.8800 -0.1301
  685MOL0     C90334   2.577   1.161   3.170 -0.4185  0.0594  0.3542
  685MOL0     O90335   2.685   1.172   2.845 -0.1025  0.3633  0.1025
  685MOL0     C90336   3.009   1.113   2.990  0.0416 -0.3603 -0.0274
  685MOL0     C90337   3.142   1.121   2.959  0.1918  1.2641  0.1475
  685MOL0     N90338   3.906   1.255   2.496 -0.0875 -0.5070 -0.3643
  685MOL0     N90339   4.015   1.191   2.520  0.3960  0.2478  0.0675
  685MOL0     C90340   4.191   2.045   2.980  0.8216 -0.3583  0.0359
  685MOL0     C90341   4.098   2.146   2.989 -0.0594  0.3892 -0.3625
  685MOL0     C90342   3.807   2.447   3.042  0.9755  0.1248  0.2520
  685MOL0     C90343   3.817   2.483   3.174  0.5395 -0.3710 -0.5590
  685MOL0     C90344   3.751   2.598   3.227  0.4296 -0.7743 -0.4003
  685MOL0     C90345   3.683   2.687   3.139 -0.0592  0.1595  0.1294
  685MOL0     O90346   3.619   2.806   3.174  0.4571  0.3918  0.3804
  685MOL0     C90347   3.637   2.866   3.305 -0.3384 -0.1229 -0.4058
  685MOL0     C90348   3.786   2.916   3.344  0.4591  0.1010 -0.3508
  685MOL0     C90349   3.835   3.039   3.263  0.4862 -0.4095  0.1220
  685MOL0     C90350   3.928   3.136   3.345 -0.8451 -0.1883  0.3309
  685MOL0     C90351   4.071   3.092   3.337 -0.2695 -0.3178 -0.1824
  685MOL0     C90352   4.180   3.049   3.311  1.4475 -0.5729 -0.1179
  685MOL0     C90353   3.668   2.651   3.004 -0.3905  0.7541 -0.4834
  685MOL0     C90354   3.730   2.531   2.957  0.1127  0.1006  0.8657
  685MOL0     H90355   3.898   2.032   3.229 -0.6026  3.5549 -0.3684
  685MOL0     H90356   4.056   1.839   3.210 -0.5684  0.5757  0.8487
  685MOL0     H90357   4.210   1.646   3.150  0.1626 -1.3475 -3.9289
  685MOL0     H90358   4.308   1.780   3.228  3.7841 -1.1808  0.4320
  685MOL0     H90359   4.463   1.624   3.208  0.8397 -1.5928 -0.9733
  685MOL0     H90360   4.505   1.719   3.069 -0.9406 -0.9990 -3.4630
  685MOL0     H90361   4.354   1.458   3.070 -1.8358  1.3510 -1.9847
  685MOL0     H90362   4.525   1.484   3.028  0.1796  0.7218  1.2232
  685MOL0     H90363   4.262   1.556   2.882  0.2012  1.3374 -2.3419
  685MOL0     H90364   4.420   1.615   2.820  1.5985  0.3941  1.6079
  685MOL0     H90365   4.481   1.359   2.809 -1.2694 -3.6620  4.2981
  685MOL0     H90366   4.369   1.431   2.689  1.9756  0.7202  0.1629
  685MOL0     H90367   4.175   1.352   2.827 -1.0074 -1.9562  0.3854
  685MOL0     H90368   4.289   1.278   2.935  0.5359 -0.8984 -0.3852
  685MOL0     H90369   4.304   1.215   2.633 -1.6537  3.4962  1.1358
  685MOL0     H90370   4.355   1.115   2.764 -1.9864 -2.3011 -1.8258
  685MOL0     H90371   4.101   1.095   2.837 -1.8288 -2.5939 -0.1900
  685MOL0     H90372   4.161   1.011   2.697 -2.0113 -0.4563  0.9871
  685MOL0     H90373   3.914   1.266   2.822 -0.7992 -2.3840 -0.0413
  685MOL0     H90374   3.745   1.473   2.552  1.4030 -0.1282  0.0082
  685MOL0     H90375   3.738   1.461   2.714 -1.6254  1.7590 -1.1102
  685MOL0     H90376   3.593   1.253   2.536 -2.7057  0.2168 -0.8680
  685MOL0     H90377   3.530   1.405   2.574 -0.9989 -1.6378 -0.0457
  685MOL0     H90378   3.579   1.177   2.742  0.4947  0.2494 -1.2347
  685MOL0     H90379   3.570   1.325   2.838  1.8325  2.2536 -0.8643
  685MOL0     H90380   3.358   1.222   2.632  1.6171 -1.6586 -0.1323
  685MOL0     H90381   3.343   1.373   2.714 -0.0594 -0.5145 -2.1888
  685MOL0     H90382   3.129   1.308   2.687  0.5708 -3.1455 -1.1210
  685MOL0     H90383   2.890   1.273   2.720  0.7375 -0.8070 -1.0061
  685MOL0     H90384   2.521   0.946   2.933 -1.2400 -0.7862  0.1957
  685MOL0     H90385   2.281   0.953   3.030 -2.4521  2.1589  1.3403
  685MOL0     H90386   2.266   1.156   3.431 -3.1010  2.1745  0.1181
  685MOL0     H90387   2.228   0.984   3.393  2.4520 -0.2017 -0.0363
  685MOL0     H90388   2.050   1.085   3.525 -0.7947  5.3422  0.9057
  685MOL0     H90389   2.016   1.037   3.358 -0.3686  3.1434 -3.4675
  685MOL0     H90390   1.987   1.255   3.285 -3.4882  1.2806  1.2059
  685MOL0     H90391   2.076   1.322   3.426  1.1843 -1.3380 -0.5680
  685MOL0     H90392   1.797   1.172   3.423  0.6097  0.0392 -1.7323
  685MOL0     H90393   1.878   1.226   3.568 -1.9881  0.3196  0.2911
  685MOL0     H90394   1.694   1.370   3.493 -1.0664  2.5188 -1.4822
  685MOL0     H90395   1.777   1.388   3.332  2.0062  0.9611 -0.1571
  685MOL0     H90396   1.962   1.496   3.448  0.7052  4.0809 -0.0319
  685MOL0     H90397   1.887   1.461   3.611 -2.7181 -2.7364 -0.6008
  685MOL0     H90398   1.772   1.650   3.393  0.2458  2.9268  0.7271
  685MOL0     H90399   1.706   1.607   3.551  1.2686 -2.0600  1.5482
  685MOL0     H90400   1.874   1.712   3.670  5.2795  0.7913  1.5255
  685MOL0     H90401   1.829   1.837   3.551 -0.3110 -0.1735  0.2600
  685MOL0     H90402   2.437   1.255   3.293 -0.5566  0.6902 -2.0851
  685MOL0     H90403   2.666   1.216   3.199 -0.9918  0.5979  1.1426
  685MOL0     H90404   2.976   1.075   3.086 -1.2092 -1.3651 -0.8254
  685MOL0     H90405   3.216   1.073   3.022 -1.1101 -0.7148  0.2515
  685MOL0     H90406   4.286   2.060   2.929  0.5937  0.5149 -0.1435
  685MOL0     H90407   4.118   2.246   2.953  1.8387 -0.1297 -0.8494
  685MOL0     H90408   3.873   2.426   3.247  0.2089  2.4394  2.1158
  685MOL0     H90409   3.760   2.607   3.335 -2.4259 -2.6896  0.1325
  685MOL0     H90410   3.607   2.787   3.375  1.9514 -1.4785 -0.8386
  685MOL0     H90411   3.566   2.948   3.315 -0.8735 -0.8527  2.9872
  685MOL0     H90412   3.776   2.944   3.449 -0.1762  1.1296 -0.6701
  685MOL0     H90413   3.867   2.843   3.339 -1.6949 -2.3480 -2.8545
  685MOL0     H90414   3.752   3.106   3.239  0.4396 -0.4932  0.0496
  685MOL0     H90415   3.879   3.011   3.167 -0.7360  1.1286 -0.9377
  685MOL0     H90416   3.913   3.241   3.320 -1.8130 -0.1221  1.1651
  685MOL0     H90417   3.889   3.136   3.447  1.3315  2.4015  1.2954
  685MOL0     H90418   4.275   3.002   3.299  0.3747 -3.5369  1.9831
  685MOL0     H90419   3.614   2.712   2.932 -1.2979  2.1170  1.2904
  685MOL0     H90420   3.720   2.502   2.853 -2.4093 -1.1292  1.3771
  686MOL0     O90421   2.496   7.289   4.489 -0.2071 -0.6826 -0.2118
  686MOL0     C90422   2.516   7.229   4.387  0.7248 -0.2706 -0.1171
  686MOL0     O90423   2.425   7.142   4.320  0.1977 -0.2180 -0.0028
  686MOL0     C90424   2.305   7.128   4.383  0.1894  0.1462  0.7974
  686MOL0     C90425   2.251   7.017   4.454 -0.5828 -1.1292 -0.4830
  686MOL0     C90426   2.120   7.005   4.504 -0.3597  0.4258  0.2540
  686MOL0     C90427   2.033   7.109   4.489 -0.0838 -0.1818  0.3264
  686MOL0     O90428   1.913   7.083   4.548  0.6625 -0.3248  0.4818
  686MOL0     C90429   1.794   7.150   4.508  0.8449  0.9916  0.0837
  686MOL0     C90430   1.692   7.112   4.618 -0.0679 -0.0826 -0.2562
  686MOL0     C90431   1.554   7.157   4.581 -0.2979  0.4167  0.0242
  686MOL0     C90432   1.466   7.126   4.697  0.7466  0.3264 -0.1910
  686MOL0     C90433   1.313   7.150   4.663 -0.0090 -0.0209 -0.3677
  686MOL0     C90434   1.221   7.145   4.780 -0.3782  0.0741 -0.2876
  686MOL0     C90435   1.074   7.197   4.762 -0.9907  0.2150 -0.1824
  686MOL0     C90436   1.068   7.346   4.785  0.1503  0.8134 -0.2288
  686MOL0     N90437   0.931   7.410   4.763  0.1950  0.2632 -0.2693
  686MOL0     C90438   0.899   7.492   4.652 -0.5006 -0.1959 -0.0164
  686MOL0     C90439   0.766   7.494   4.655 -0.7308 -0.3134 -0.5003
  686MOL0     C90440   0.673   7.556   4.550  0.5392 -1.1560 -0.2015
  686MOL0     C90441   0.630   7.699   4.590  0.0864  0.3221 -0.2137
  686MOL0     C90442   0.626   7.795   4.470  0.9400  0.7135 -0.4230
  686MOL0     C90443   0.491   7.780   4.406 -0.0019  0.5860  0.5243
  686MOL0     O90444   0.506   7.837   4.276 -0.2464  0.2630  0.3944
  686MOL0     C90445   0.406   7.884   4.203 -0.9396 -0.0486 -0.3329
  686MOL0     C90446   0.274   7.857   4.241 -0.0727 -1.8807  0.2463
  686MOL0     C90447   0.177   7.921   4.168 -0.4700 -1.1112 -0.5236
  686MOL0     C90448   0.201   8.004   4.059 -0.7403 -0.1615  0.6169
  686MOL0     C90449   0.085   8.058   3.985  0.2016  0.3555 -0.6798
  686MOL0     O90450  -0.040   8.029   4.040 -0.1740 -0.4106  0.1697
  686MOL0     C90451  -0.164   8.066   3.992  1.5431 -0.5240  0.0205
  686MOL0     C90452  -0.195   8.076   3.853 -0.0326  0.4103  0.2121
  686MOL0     C90453  -0.328   8.104   3.812 -0.3626  0.2551 -0.8574
  686MOL0     C90454  -0.426   8.139   3.904  0.2760  0.5027  0.5457
  686MOL0     O90455  -0.553   8.149   3.849  0.1889 -0.1487 -0.9394
  686MOL0     C90456  -0.628   8.263   3.893 -0.1614 -0.6534  0.2644
  686MOL0     C90457  -0.741   8.210   3.979  0.1788  0.2441  0.3660
  686MOL0     C90458  -0.806   8.321   4.069  0.1688 -0.2051  0.9954
  686MOL0     C90459  -0.877   8.435   3.990 -0.0377 -1.3340  0.0729
  686MOL0     C90460  -0.968   8.532   4.075  0.2636 -0.3326 -0.0933
  686MOL0     C90461  -1.101   8.465   4.111 -0.0339 -0.2124  0.2858
  686MOL0     C90462  -1.184   8.540   4.213  0.2498 -0.6637 -0.2842
  686MOL0     C90463  -1.300   8.470   4.290  0.1527  0.1880  0.0985
  686MOL0    Cl90464  -1.228   8.370   4.429 -0.4787  0.0220 -0.5929
  686MOL0     C90465  -0.401   8.146   4.041 -0.0896 -0.1256  0.5313
  686MOL0     C90466  -0.274   8.095   4.077 -0.1356  0.5751 -1.0101
  686MOL0     O90467   0.108   8.116   3.879 -0.7633  0.8852  0.0014
  686MOL0     C90468   0.336   8.009   4.007 -0.3043  0.1360  0.5231
  686MOL0     C90469   0.432   7.962   4.090  0.4771  0.0127 -0.9624
  686MOL0     N90470   0.718   7.419   4.764  0.1034  0.1126  0.4644
  686MOL0     N90471   0.812   7.366   4.822  0.2334  0.3896 -0.5406
  686MOL0     C90472   2.081   7.225   4.424 -0.0229 -0.2174  0.5158
  686MOL0     C90473   2.211   7.231   4.367 -0.6854  0.1000  0.7418
  686MOL0     C90474   2.641   7.267   4.316 -0.9014 -0.2619 -1.3552
  686MOL0     C90475   2.681   7.219   4.192 -0.0201 -0.6577  0.2081
  686MOL0     C90476   2.798   7.268   4.141 -0.1316  0.1855  0.8416
  686MOL0     C90477   2.885   7.360   4.204  0.0043  0.3108  0.2627
  686MOL0     O90478   2.998   7.405   4.141  0.3523  0.3495 -0.0010
  686MOL0     C90479   3.122   7.369   4.203 -0.0528 -0.5432  0.0033
  686MOL0     C90480   3.192   7.260   4.113  0.3617 -0.3872  0.6520
  686MOL0     C90481   3.216   7.306   3.970  0.5587 -0.4234  0.3160
  686MOL0     C90482   3.332   7.407   3.960 -0.1777  0.8180 -0.2143
  686MOL0     C90483   3.458   7.380   4.031  0.1366  1.2138 -0.1424
  686MOL0     C90484   3.559   7.353   4.099  0.2468  0.4712  0.3226
  686MOL0     C90485   2.848   7.404   4.330  0.5392  1.3074 -0.4705
  686MOL0     C90486   2.732   7.344   4.385 -0.7383 -1.0004 -1.0072
  686MOL0     H90487   2.321   6.935   4.469  1.4527  0.5172 -0.4679
  686MOL0     H90488   2.099   6.907   4.546  2.1440 -1.0957 -1.7211
  686MOL0     H90489   1.759   7.123   4.409 -0.0617 -0.4018  0.7532
  686MOL0     H90490   1.813   7.257   4.519 -0.6736  1.5910 -2.5105
  686MOL0     H90491   1.730   7.152   4.712  1.6967  2.9256 -2.0692
  686MOL0     H90492   1.670   7.005   4.628 -1.9941  0.4419  1.9895
  686MOL0     H90493   1.520   7.103   4.492 -0.7500 -0.6779  0.8485
  686MOL0     H90494   1.548   7.264   4.556  3.9140  0.8815  0.2976
  686MOL0     H90495   1.470   7.022   4.731  1.3262  0.8938  1.5866
  686MOL0     H90496   1.496   7.188   4.783 -0.4052 -0.8250  1.0973
  686MOL0     H90497   1.278   7.073   4.594  1.8566  2.0956 -3.9575
  686MOL0     H90498   1.301   7.243   4.606 -0.9128 -0.7526 -1.4267
  686MOL0     H90499   1.278   7.196   4.858  0.1035  0.8439 -1.1277
  686MOL0     H90500   1.215   7.037   4.800  0.7697  0.1384  0.5665
  686MOL0     H90501   1.045   7.169   4.660  2.1786 -0.9702 -0.8860
  686MOL0     H90502   1.006   7.141   4.827 -1.8817 -0.4171 -1.6183
  686MOL0     H90503   1.135   7.403   4.721  0.8483 -0.4570 -0.6701
  686MOL0     H90504   1.105   7.345   4.888  1.7091 -2.6333 -0.6703
  686MOL0     H90505   0.972   7.537   4.585 -0.2663 -1.0145 -0.3227
  686MOL0     H90506   0.575   7.508   4.542 -0.7631  1.5760 -1.9316
  686MOL0     H90507   0.718   7.564   4.451 -1.3953  0.1222 -1.0393
  686MOL0     H90508   0.708   7.742   4.653 -2.0592  2.6273  1.0459
  686MOL0     H90509   0.535   7.700   4.644  2.2449 -0.9147  4.0740
  686MOL0     H90510   0.625   7.896   4.513  2.8185 -0.8067  3.5687
  686MOL0     H90511   0.714   7.776   4.408 -0.3058 -3.5808 -1.2089
  686MOL0     H90512   0.419   7.835   4.468  0.4069  1.1283  0.5232
  686MOL0     H90513   0.456   7.676   4.403  0.1981  0.5284 -0.2724
  686MOL0     H90514   0.244   7.779   4.311 -0.4357 -2.0061 -0.0455
  686MOL0     H90515   0.077   7.915   4.210 -0.0061  0.6304  0.9388
  686MOL0     H90516  -0.110   8.053   3.789  2.1145  1.9267  2.3141
  686MOL0     H90517  -0.357   8.105   3.707  2.7366 -0.1627 -1.8335
  686MOL0     H90518  -0.663   8.309   3.800  1.2473 -0.0123  0.0332
  686MOL0     H90519  -0.571   8.335   3.952 -2.4288 -0.0806  1.9226
  686MOL0     H90520  -0.701   8.133   4.045 -0.7711 -3.9116 -3.3790
  686MOL0     H90521  -0.815   8.155   3.920  2.1397 -1.4582 -0.6480
  686MOL0     H90522  -0.721   8.364   4.122  1.9117 -1.4286 -0.6431
  686MOL0     H90523  -0.880   8.284   4.140 -0.3515 -0.0482  0.5489
  686MOL0     H90524  -0.796   8.493   3.943 -1.0533 -0.4921 -0.7073
  686MOL0     H90525  -0.928   8.397   3.900  0.1393 -1.6527  0.1060
  686MOL0     H90526  -1.000   8.609   4.004  2.0971 -0.2318 -0.8755
  686MOL0     H90527  -0.908   8.564   4.160 -0.6041  2.1662 -0.3494
  686MOL0     H90528  -1.087   8.366   4.155  0.0993 -1.1303 -1.6864
  686MOL0     H90529  -1.159   8.444   4.021  1.4106 -1.6889 -0.3565
  686MOL0     H90530  -1.119   8.582   4.290 -0.3370 -1.5787  0.7516
  686MOL0     H90531  -1.234   8.628   4.171 -2.0694 -0.2858  2.9366
  686MOL0     H90532  -1.374   8.416   4.231 -1.9962  0.0042  2.7864
  686MOL0     H90533  -1.357   8.551   4.336 -2.7890 -1.0384 -1.2000
  686MOL0     H90534  -0.477   8.148   4.118  2.2062  0.1944  2.9213
  686MOL0     H90535  -0.258   8.080   4.183 -3.3210 -2.0315 -0.7268
  686MOL0     H90536   0.357   8.055   3.911 -1.9900 -2.8527 -1.4499
  686MOL0     H90537   0.536   7.970   4.061  0.9465 -1.4700  0.1963
  686MOL0     H90538   2.017   7.308   4.393  2.2846  1.1477 -0.9033
  686MOL0     H90539   2.242   7.314   4.304  0.1632 -2.9360 -3.2984
  686MOL0     H90540   2.621   7.153   4.130 -0.5938 -0.6085  0.7018
  686MOL0     H90541   2.827   7.233   4.043  0.8726  2.6399  0.1799
  686MOL0     H90542   3.099   7.337   4.305 -0.2414 -0.7253 -0.0943
  686MOL0     H90543   3.187   7.457   4.208  2.3675 -2.2557  0.7174
  686MOL0     H90544   3.289   7.234   4.155  2.3174  4.0838 -0.4661
  686MOL0     H90545   3.131   7.170   4.101 -0.6055  0.0759  1.8183
  686MOL0     H90546   3.125   7.348   3.927  2.0874  0.4268 -2.4082
  686MOL0     H90547   3.246   7.221   3.908  0.3114  0.7605 -1.5272
  686MOL0     H90548   3.342   7.429   3.853 -2.0227  4.5504  0.2325
  686MOL0     H90549   3.298   7.502   4.002  0.3751  0.9137  0.0273
  686MOL0     H90550   3.647   7.340   4.159  0.2907  2.1540  0.6821
  686MOL0     H90551   2.916   7.466   4.388  1.9546 -2.9756  3.0485
  686MOL0     H90552   2.715   7.370   4.489  0.6312  0.8984 -1.1965
  687MOL0     O90553   1.476   8.457  10.911 -0.1584 -0.1177  0.1367
  687MOL0     C90554   1.511   8.532  11.007 -0.6484  0.5353  0.1031
  687MOL0     O90555   1.623   8.514  11.086 -0.0068 -0.0006 -0.1865
  687MOL0     C90556   1.708   8.423  11.028  0.4705  0.5827 -0.5339
  687MOL0     C90557   1.681   8.288  11.014 -0.1648  0.2082  0.4126
  687MOL0     C90558   1.771   8.208  10.937  0.2519  0.0876  0.3872
  687MOL0     C90559   1.885   8.268  10.867 -0.5862  0.4610 -0.3551
  687MOL0     O90560   1.970   8.217  10.776 -0.3980 -0.5478  0.0528
  687MOL0     C90561   2.007   8.078  10.789 -0.5794 -0.7093 -0.7993
  687MOL0     C90562   2.093   8.052  10.910  0.8640  0.3927  0.1607
  687MOL0     C90563   2.147   7.903  10.911 -0.3358  0.2965 -0.1802
  687MOL0     C90564   2.043   7.801  10.935 -0.1566 -0.3833 -0.5193
  687MOL0     C90565   1.957   7.824  11.059  0.1166 -0.2508 -0.3390
  687MOL0     C90566   1.887   7.702  11.120 -0.9057 -1.4414 -0.0784
  687MOL0     C90567   1.802   7.626  11.015 -0.0265  1.0459  0.6022
  687MOL0     C90568   1.693   7.706  10.943  0.3094  0.0801 -0.0040
  687MOL0     N90569   1.595   7.736  11.038  1.2026 -0.5126 -0.0660
  687MOL0     C90570   1.512   7.643  11.093 -0.5968  0.3439 -0.1142
  687MOL0     C90571   1.423   7.721  11.156 -0.1602 -0.2498  0.0065
  687MOL0     C90572   1.309   7.679  11.248 -0.0619  0.4201  0.9582
  687MOL0     C90573   1.166   7.693  11.188  0.4237 -0.2676 -0.4919
  687MOL0     C90574   1.124   7.845  11.167 -0.8908 -0.2193  0.9730
  687MOL0     C90575   0.976   7.866  11.130 -0.1035 -0.6279 -0.6615
  687MOL0     O90576   0.943   7.997  11.077 -0.5607  0.1458 -0.0730
  687MOL0     C90577   0.804   8.010  11.079  0.3514  0.0423 -0.2426
  687MOL0     C90578   0.716   7.994  11.190  0.0733 -0.0691  0.0723
  687MOL0     C90579   0.581   8.035  11.191 -0.0941 -0.4087 -0.1193
  687MOL0     C90580   0.533   8.086  11.078 -0.6410 -0.1392 -0.1574
  687MOL0     C90581   0.385   8.102  11.067  0.3901 -0.1234 -0.0977
  687MOL0     O90582   0.334   8.086  10.942  0.7669 -0.5901  0.1418
  687MOL0     C90583   0.196   8.093  10.948 -0.0218 -0.1447  0.5010
  687MOL0     C90584   0.126   7.973  10.959  0.7014  0.4014  0.9480
  687MOL0     C90585  -0.015   7.983  10.956  0.3737 -0.0826  0.0883
  687MOL0     C90586  -0.083   8.100  10.943  0.0873 -0.6934  1.3996
  687MOL0     O90587  -0.219   8.122  10.925 -0.0837 -0.1841 -0.0714
  687MOL0     C90588  -0.309   8.057  11.013 -0.5488 -0.1116 -0.3125
  687MOL0     C90589  -0.434   8.005  10.924 -0.5893 -0.0321 -0.8379
  687MOL0     C90590  -0.565   8.043  11.000 -0.7933 -0.8600 -0.2637
  687MOL0     C90591  -0.679   7.995  10.911  0.0394  0.6433  0.2857
  687MOL0     C90592  -0.806   7.997  10.993 -0.1962  0.2072  0.2079
  687MOL0     C90593  -0.941   7.967  10.920  0.2263  0.5408  0.4350
  687MOL0     C90594  -1.061   7.960  11.026 -0.6619  0.4513  0.1824
  687MOL0     C90595  -1.190   7.910  10.967 -0.2514  0.5076 -0.3076
  687MOL0    Cl90596  -1.234   8.011  10.827  0.0923  0.1251  0.0673
  687MOL0     C90597  -0.006   8.218  10.927  0.0552  0.4016 -0.9615
  687MOL0     C90598   0.128   8.209  10.941  0.5911  0.2991  0.3572
  687MOL0     O90599   0.318   8.127  11.169 -0.2392  0.1640  0.5085
  687MOL0     C90600   0.613   8.098  10.964  0.7393 -0.3360  0.4285
  687MOL0     C90601   0.745   8.062  10.964 -0.0842 -0.3989 -0.3909
  687MOL0     N90602   1.446   7.851  11.133 -0.1756  0.1032  0.3376
  687MOL0     N90603   1.553   7.858  11.065 -0.2759  0.4905 -0.0173
  687MOL0     C90604   1.910   8.402  10.896 -0.3907 -0.1974  0.1108
  687MOL0     C90605   1.831   8.475  10.978 -0.1116 -0.5903 -0.1480
  687MOL0     C90606   1.407   8.625  11.045 -0.3872  0.8500  0.8892
  687MOL0     C90607   1.279   8.574  11.044  0.3742  0.1980 -0.7215
  687MOL0     C90608   1.174   8.660  11.079  0.0133  0.4092 -0.3210
  687MOL0     C90609   1.188   8.789  11.126  0.0415 -0.0496 -0.5832
  687MOL0     O90610   1.092   8.871  11.180 -0.0981  0.2094 -0.8655
  687MOL0     C90611   0.952   8.848  11.203 -0.6687 -0.7267 -0.3147
  687MOL0     C90612   0.883   8.987  11.197  1.2162  0.1757 -0.2951
  687MOL0     C90613   0.724   8.981  11.225 -0.1505  0.1927  0.7146
  687MOL0     C90614   0.690   9.010  11.369 -0.4044  0.5439  0.0096
  687MOL0     C90615   0.543   9.007  11.399 -0.2681 -0.1619 -0.2821
  687MOL0     C90616   0.427   9.001  11.436  0.1242 -0.0329  0.9550
  687MOL0     C90617   1.318   8.829  11.145  0.8720 -0.7157  0.1026
  687MOL0     C90618   1.429   8.751  11.101 -0.1575 -0.8356  0.0756
  687MOL0     H90619   1.597   8.259  11.076  2.2582 -2.0553  2.8697
  687MOL0     H90620   1.755   8.104  10.913 -2.1345  0.5553 -0.2855
  687MOL0     H90621   2.074   8.062  10.704  2.4986  0.5357  1.2308
  687MOL0     H90622   1.916   8.016  10.790 -2.2031  1.5210 -1.3062
  687MOL0     H90623   2.040   8.063  11.005  2.4521  0.9051  1.0369
  687MOL0     H90624   2.182   8.116  10.910  0.6294  0.7363 -0.9160
  687MOL0     H90625   2.219   7.900  10.992 -0.2465  1.6230 -0.1889
  687MOL0     H90626   2.190   7.887  10.812 -1.8028 -0.1617 -0.7703
  687MOL0     H90627   1.989   7.791  10.841 -1.0931  0.9588 -0.1558
  687MOL0     H90628   2.097   7.707  10.948  1.1686  0.4308  0.1443
  687MOL0     H90629   1.885   7.902  11.034 -1.4445 -2.5195 -3.6670
  687MOL0     H90630   2.025   7.855  11.139 -0.3791 -0.1024  0.0300
  687MOL0     H90631   1.825   7.714  11.209  1.9429 -1.3598  2.0196
  687MOL0     H90632   1.962   7.633  11.159  1.6330  2.2006  2.1579
  687MOL0     H90633   1.866   7.599  10.930 -2.1228  0.4744 -0.8945
  687MOL0     H90634   1.750   7.543  11.064  1.4634  1.0383  2.2842
  687MOL0     H90635   1.661   7.637  10.864  2.5124 -0.5020 -0.4701
  687MOL0     H90636   1.721   7.799  10.892 -4.4092  2.5113  1.2487
  687MOL0     H90637   1.512   7.534  11.092 -2.5289  0.3048  0.2669
  687MOL0     H90638   1.326   7.741  11.337 -3.2212  0.9090  1.3388
  687MOL0     H90639   1.334   7.578  11.281 -1.0422 -0.5001 -0.9741
  687MOL0     H90640   1.098   7.649  11.262 -0.4387  0.7388 -0.6696
  687MOL0     H90641   1.164   7.634  11.096  4.1574 -1.8663  0.2805
  687MOL0     H90642   1.151   7.904  11.254  1.5685 -2.8528  2.1674
  687MOL0     H90643   1.187   7.885  11.087 -1.9481 -0.9919 -0.3070
  687MOL0     H90644   0.924   7.853  11.226  1.2408 -0.2031  0.1468
  687MOL0     H90645   0.919   7.796  11.067 -4.5880 -0.6919  2.8884
  687MOL0     H90646   0.747   7.945  11.282  1.1698 -1.6541 -1.0874
  687MOL0     H90647   0.516   8.014  11.276  1.3194 -1.0984  0.8216
  687MOL0     H90648   0.167   7.873  10.962 -0.1462  0.0498  1.3052
  687MOL0     H90649  -0.073   7.892  10.962  1.2004 -0.7344 -1.3907
  687MOL0     H90650  -0.347   8.123  11.091 -0.4055 -0.2663 -0.1115
  687MOL0     H90651  -0.268   7.973  11.070  2.6026 -0.8109 -3.2043
  687MOL0     H90652  -0.421   7.897  10.917  2.6873  0.2941 -1.1739
  687MOL0     H90653  -0.427   8.048  10.824  1.2615  2.3398  0.1991
  687MOL0     H90654  -0.564   8.152  11.007  0.4262 -0.7304 -1.8782
  687MOL0     H90655  -0.571   7.996  11.099  0.0835  0.2636  0.3449
  687MOL0     H90656  -0.691   8.057  10.822 -0.0663  0.9034  0.4818
  687MOL0     H90657  -0.670   7.890  10.881 -0.7850 -0.0696  2.3504
  687MOL0     H90658  -0.810   8.094  11.044  2.6861 -0.4290  1.9034
  687MOL0     H90659  -0.794   7.917  11.066 -0.0606 -2.4079 -2.5059
  687MOL0     H90660  -0.935   7.873  10.863 -0.6607 -0.4483  1.9015
  687MOL0     H90661  -0.961   8.059  10.866  1.9481  2.4880  2.8937
  687MOL0     H90662  -1.027   7.891  11.103 -2.3633  1.0282  1.4922
  687MOL0     H90663  -1.075   8.063  11.060  1.0898  0.2234  1.7592
  687MOL0     H90664  -1.265   7.915  11.047 -0.0076 -0.2843 -0.0187
  687MOL0     H90665  -1.191   7.806  10.931  1.0993 -0.2035  1.5445
  687MOL0     H90666  -0.050   8.312  10.894 -1.3262 -0.6161 -2.1804
  687MOL0     H90667   0.189   8.298  10.936  1.2343 -0.1553  0.0298
  687MOL0     H90668   0.577   8.136  10.869  0.0081  3.5974  2.0948
  687MOL0     H90669   0.801   8.072  10.871 -2.0836 -0.5445 -1.6689
  687MOL0     H90670   2.000   8.454  10.863 -1.8827 -0.4116 -5.0859
  687MOL0     H90671   1.857   8.578  10.999 -3.8865  1.0366 -2.3172
  687MOL0     H90672   1.252   8.474  11.010 -0.7084  0.3970 -0.4811
  687MOL0     H90673   1.079   8.608  11.077  0.0153  0.3572  0.6033
  687MOL0     H90674   0.952   8.789  11.295  2.7768 -1.3703 -0.5721
  687MOL0     H90675   0.919   8.784  11.121 -0.7826 -0.0465 -0.8093
  687MOL0     H90676   0.931   9.062  11.261 -4.1268  2.4317  1.6263
  687MOL0     H90677   0.890   9.026  11.095  1.9269  0.2735 -0.2154
  687MOL0     H90678   0.686   8.885  11.189  3.2642 -1.2035  0.4913
  687MOL0     H90679   0.687   9.058  11.157 -1.5531  1.9584  3.2897
  687MOL0     H90680   0.747   8.945  11.436  5.2179  3.0836 -1.6762
  687MOL0     H90681   0.725   9.113  11.380 -0.7925  0.7822 -0.8599
  687MOL0     H90682   0.326   9.011  11.469 -0.6482  1.5932 -1.6466
  687MOL0     H90683   1.345   8.917  11.203  1.5187 -1.4827  0.9958
  687MOL0     H90684   1.530   8.790  11.115 -1.0814  1.6305  0.4320
  688MOL0     O90685   1.159   2.177   1.635 -0.4822  0.0572 -0.5955
  688MOL0     C90686   1.202   2.226   1.532  0.2059  0.1489 -0.6245
  688MOL0     O90687   1.119   2.281   1.436 -0.0807  0.2022 -0.2504
  688MOL0     C90688   0.984   2.266   1.442 -0.0819  0.2574 -0.5401
  688MOL0     C90689   0.901   2.263   1.552  0.4665  0.8795 -0.2196
  688MOL0     C90690   0.771   2.233   1.545 -0.1937  0.4324 -0.0371
  688MOL0     C90691   0.716   2.205   1.420 -0.2566 -1.0171 -0.0361
  688MOL0     O90692   0.582   2.178   1.422 -0.1432 -0.5178 -0.1192
  688MOL0     C90693   0.498   2.223   1.321  0.4780 -0.3113  0.7605
  688MOL0     C90694   0.362   2.167   1.337  0.1176  0.1087  0.3350
  688MOL0     C90695   0.355   2.022   1.308 -0.9083  0.3230  0.1891
  688MOL0     C90696   0.217   1.976   1.328  0.3104 -0.2983  0.3242
  688MOL0     C90697   0.207   1.821   1.347  0.8380 -0.4345 -0.4384
  688MOL0     C90698   0.155   1.779   1.486  0.4535 -0.7751  0.5332
  688MOL0     C90699   0.006   1.815   1.494  0.2869  0.8283 -0.3426
  688MOL0     C90700  -0.080   1.718   1.417  0.4151 -0.2220 -0.3281
  688MOL0     N90701  -0.107   1.598   1.499  0.6034  1.0611  1.0542
  688MOL0     C90702  -0.026   1.483   1.487 -0.5312  0.6913 -0.6497
  688MOL0     C90703  -0.082   1.395   1.573  0.0289  0.4692  0.7519
  688MOL0     C90704  -0.050   1.249   1.582  0.1523 -0.3496  0.2075
  688MOL0     C90705  -0.134   1.162   1.481  0.5923 -0.0203 -0.0961
  688MOL0     C90706  -0.108   1.173   1.326 -0.0168 -0.2372 -1.1758
  688MOL0     C90707   0.038   1.129   1.292 -0.9607 -0.3009  0.1467
  688MOL0     O90708   0.129   1.238   1.313  0.1924 -0.0485  0.4311
  688MOL0     C90709   0.262   1.213   1.333 -0.5062 -0.3842  0.0209
  688MOL0     C90710   0.345   1.316   1.395 -0.2410 -0.7037  0.4032
  688MOL0     C90711   0.484   1.297   1.414 -0.3343  0.7979 -0.4202
  688MOL0     C90712   0.544   1.182   1.355  0.4192  0.1437 -0.5514
  688MOL0     C90713   0.689   1.162   1.348  0.0044  1.1117 -0.6365
  688MOL0     O90714   0.757   1.262   1.386  0.2543 -0.5403  0.1768
  688MOL0     C90715   0.885   1.293   1.346  0.1666 -0.9329 -0.7608
  688MOL0     C90716   0.954   1.388   1.428  0.2350  0.7458  0.1938
  688MOL0     C90717   1.087   1.424   1.394  0.2305  0.7944  0.7789
  688MOL0     C90718   1.142   1.373   1.270  0.2868  0.1625 -0.4889
  688MOL0     O90719   1.264   1.405   1.216  0.4103 -0.4106  0.1333
  688MOL0     C90720   1.349   1.486   1.301 -0.4317  0.1339  0.0809
  688MOL0     C90721   1.468   1.549   1.219  0.4074  0.4976 -0.6493
  688MOL0     C90722   1.592   1.455   1.217 -0.2661 -0.0825 -0.1522
  688MOL0     C90723   1.710   1.529   1.160 -0.4972  0.2714 -0.3754
  688MOL0     C90724   1.849   1.467   1.204  0.0779  0.1449 -0.9941
  688MOL0     C90725   1.960   1.507   1.100 -0.0862  0.8732 -0.0477
  688MOL0     C90726   2.089   1.424   1.107 -0.4916  0.0359 -0.5078
  688MOL0     C90727   2.083   1.272   1.098 -1.0491 -0.0245  0.5366
  688MOL0    Cl90728   2.022   1.201   0.951  0.1444  0.2706  0.0546
  688MOL0     C90729   1.056   1.301   1.183 -0.8903 -0.1336 -0.4191
  688MOL0     C90730   0.935   1.258   1.218  0.0918  1.2413  0.0450
  688MOL0     O90731   0.735   1.062   1.295 -0.2742 -0.6268 -0.9475
  688MOL0     C90732   0.463   1.077   1.307 -0.7510  0.2024 -0.8282
  688MOL0     C90733   0.326   1.091   1.297  0.6159  0.1213 -0.3418
  688MOL0     N90734  -0.192   1.452   1.634 -0.4415  0.8160  0.9215
  688MOL0     N90735  -0.208   1.569   1.589 -0.1587  0.7647 -0.1918
  688MOL0     C90736   0.782   2.223   1.303 -0.5233 -0.2184  0.5901
  688MOL0     C90737   0.924   2.254   1.311 -1.0399 -0.9186 -0.6015
  688MOL0     C90738   1.349   2.249   1.523 -0.5853 -0.2036 -0.0080
  688MOL0     C90739   1.430   2.208   1.626  0.1250  0.7681  1.1300
  688MOL0     C90740   1.564   2.218   1.611 -0.1804 -0.2763 -0.4242
  688MOL0     C90741   1.624   2.266   1.495  0.1034 -0.0023  0.9291
  688MOL0     O90742   1.767   2.247   1.473  0.2296  0.1281 -0.1102
  688MOL0     C90743   1.838   2.325   1.371 -0.3479 -0.0106  0.1932
  688MOL0     C90744   1.992   2.314   1.391  0.1289  0.3930 -0.6534
  688MOL0     C90745   2.040   2.321   1.538  0.2234 -0.1168  0.4264
  688MOL0     C90746   2.193   2.333   1.543 -0.1381 -0.7496  0.4049
  688MOL0     C90747   2.241   2.310   1.675  0.2872 -0.0779 -0.1253
  688MOL0     C90748   2.279   2.275   1.784 -0.5464 -0.3934 -0.5714
  688MOL0     C90749   1.541   2.311   1.391  1.2816 -0.8884 -0.3685
  688MOL0     C90750   1.403   2.306   1.409  0.4741 -0.9570  0.4195
  688MOL0     H90751   0.941   2.287   1.650  4.6578  0.1128 -1.5261
  688MOL0     H90752   0.717   2.226   1.638 -3.2334  0.7744 -1.6535
  688MOL0     H90753   0.525   2.191   1.220 -2.8862 -0.1723 -0.3072
  688MOL0     H90754   0.492   2.332   1.328 -3.4958 -0.3259 -0.0705
  688MOL0     H90755   0.286   2.214   1.275 -0.6569 -2.2051 -0.6103
  688MOL0     H90756   0.325   2.174   1.440 -1.6896 -3.3519  0.0929
  688MOL0     H90757   0.418   1.963   1.375 -1.2094 -1.8283 -1.3407
  688MOL0     H90758   0.379   1.998   1.204 -3.2975  0.7766 -0.5424
  688MOL0     H90759   0.173   2.029   1.413  1.0865  0.0711  0.5159
  688MOL0     H90760   0.163   2.006   1.238  2.1548 -0.7837 -1.0268
  688MOL0     H90761   0.310   1.788   1.329  0.0076 -2.3040 -2.1095
  688MOL0     H90762   0.151   1.783   1.261  0.1296  0.3191 -0.3232
  688MOL0     H90763   0.212   1.822   1.569 -0.9576  0.3406  0.9678
  688MOL0     H90764   0.168   1.671   1.489  0.4671 -0.7803  0.2567
  688MOL0     H90765  -0.017   1.803   1.601 -0.2564  1.3230 -0.3981
  688MOL0     H90766  -0.011   1.920   1.468  0.2405  0.6695 -0.9762
  688MOL0     H90767  -0.044   1.686   1.318 -0.7247 -0.9054 -0.5343
  688MOL0     H90768  -0.177   1.764   1.396 -1.6538 -3.1829  2.0007
  688MOL0     H90769   0.063   1.467   1.426 -1.1780 -1.0250 -1.2122
  688MOL0     H90770  -0.074   1.217   1.684 -1.5968 -0.5176 -0.2233
  688MOL0     H90771   0.056   1.230   1.564  0.1332 -0.4433  0.1947
  688MOL0     H90772  -0.241   1.173   1.503  0.3910 -0.8174 -0.6382
  688MOL0     H90773  -0.107   1.059   1.510  0.0271  0.2955  1.7050
  688MOL0     H90774  -0.189   1.112   1.283 -4.0109  2.6514  1.5093
  688MOL0     H90775  -0.133   1.273   1.289  0.8580  0.0234 -1.0648
  688MOL0     H90776   0.054   1.085   1.194  1.3151  1.6990 -0.4920
  688MOL0     H90777   0.063   1.046   1.359  0.9786  2.1039  2.6542
  688MOL0     H90778   0.307   1.413   1.426 -2.9635 -1.8428  0.8892
  688MOL0     H90779   0.541   1.380   1.455 -0.7008  0.1232  1.5808
  688MOL0     H90780   0.907   1.432   1.515 -0.9209 -1.5800  0.8433
  688MOL0     H90781   1.146   1.475   1.471  2.4199  0.3640 -0.5152
  688MOL0     H90782   1.407   1.426   1.372  0.2252  2.5067  1.6750
  688MOL0     H90783   1.292   1.549   1.370  1.4655  1.3437  0.6452
  688MOL0     H90784   1.498   1.641   1.270  1.0624 -1.6007  3.1328
  688MOL0     H90785   1.436   1.583   1.120 -2.8435  2.8703  1.0079
  688MOL0     H90786   1.587   1.368   1.150  2.4178 -0.6630  0.2900
  688MOL0     H90787   1.627   1.424   1.315  1.2554 -1.2401 -1.0076
  688MOL0     H90788   1.707   1.536   1.051  0.7424  1.3641 -0.3784
  688MOL0     H90789   1.710   1.628   1.208  0.8688 -0.2106  0.6845
  688MOL0     H90790   1.835   1.358   1.197 -3.2459  0.4078 -0.2811
  688MOL0     H90791   1.876   1.500   1.304 -0.7449  3.2460 -1.6942
  688MOL0     H90792   1.970   1.613   1.127  0.0312  0.5048  1.4214
  688MOL0     H90793   1.928   1.511   0.996  1.6314  2.6080 -0.5807
  688MOL0     H90794   2.166   1.451   1.035  1.1268  2.5585  1.9784
  688MOL0     H90795   2.137   1.445   1.203 -2.5592  0.4641  0.5097
  688MOL0     H90796   2.031   1.225   1.182  1.5632 -0.9649  1.7555
  688MOL0     H90797   2.181   1.229   1.124 -1.3842 -0.7424  0.6327
  688MOL0     H90798   1.096   1.271   1.087 -0.8356  2.3105 -1.2486
  688MOL0     H90799   0.864   1.214   1.149 -0.1044 -1.6292  1.9377
  688MOL0     H90800   0.496   0.981   1.268 -1.2928 -1.0074  1.5079
  688MOL0     H90801   0.262   1.018   1.249 -0.3806 -0.1832  1.3885
  688MOL0     H90802   0.736   2.199   1.208  2.4865 -3.3432 -0.2807
  688MOL0     H90803   0.988   2.265   1.224 -2.0367 -1.4473 -1.4262
  688MOL0     H90804   1.384   2.153   1.709 -3.4678  1.3885 -0.2771
  688MOL0     H90805   1.628   2.171   1.685  2.4525 -0.1397 -2.4482
  688MOL0     H90806   1.809   2.430   1.379 -0.5460 -0.2094  3.0192
  688MOL0     H90807   1.818   2.277   1.275 -0.3617 -1.0332  0.6884
  688MOL0     H90808   2.012   2.216   1.348 -0.2163 -0.6317  1.4162
  688MOL0     H90809   2.041   2.388   1.326 -0.6929  0.4448 -1.2289
  688MOL0     H90810   1.994   2.238   1.592  0.0380 -1.8591 -2.2242
  688MOL0     H90811   1.998   2.417   1.567 -1.9817 -0.3766 -1.5811
  688MOL0     H90812   2.253   2.268   1.477  0.5070  0.2218  0.0138
  688MOL0     H90813   2.220   2.431   1.504 -1.4524 -1.5206 -2.7570
  688MOL0     H90814   2.304   2.265   1.888 -1.4991 -1.8535 -0.4538
  688MOL0     H90815   1.590   2.358   1.306 -0.2342  3.5331  0.9238
  688MOL0     H90816   1.331   2.333   1.332 -1.0623  0.6735  2.3031
  689MOL0     O90817   7.122   6.757  10.038 -0.7655  0.4004 -0.8274
  689MOL0     C90818   7.114   6.867   9.981 -0.3057  0.3825 -0.9055
  689MOL0     O90819   7.158   6.984  10.028 -0.2373  0.4101  0.4118
  689MOL0     C90820   7.254   6.995  10.120 -0.2517 -0.2609 -0.1680
  689MOL0     C90821   7.390   6.934  10.105  0.3977  1.2142  0.6466
  689MOL0     C90822   7.482   6.963  10.207  1.1065  0.1820  1.2940
  689MOL0     C90823   7.462   7.029  10.322  0.3106 -0.4574  0.4319
  689MOL0     O90824   7.569   7.045  10.412  0.6695  0.2124 -0.1178
  689MOL0     C90825   7.524   7.070  10.550  0.1663  0.0800  0.7579
  689MOL0     C90826   7.599   6.963  10.638  0.2015 -0.6348 -0.3288
  689MOL0     C90827   7.748   7.006  10.644 -0.0807  0.0470  0.2355
  689MOL0     C90828   7.829   6.937  10.759  0.5315  0.4478 -0.4140
  689MOL0     C90829   7.958   7.014  10.784  0.3727  0.0348 -0.2357
  689MOL0     C90830   8.034   6.920  10.877 -0.1077  0.5618  0.1229
  689MOL0     C90831   8.169   6.979  10.935  0.3618 -0.1170 -0.4990
  689MOL0     C90832   8.266   6.873  10.985 -0.8966 -0.6899  0.3217
  689MOL0     N90833   8.226   6.843  11.121  0.6786  0.1617 -0.1436
  689MOL0     C90834   8.297   6.877  11.235  0.1138 -0.5952 -0.3937
  689MOL0     C90835   8.239   6.802  11.326 -0.4408 -0.1561  0.7230
  689MOL0     C90836   8.248   6.821  11.476 -0.6384 -1.2355  0.3239
  689MOL0     C90837   8.132   6.773  11.565 -0.0949 -0.9662  0.7487
  689MOL0     C90838   8.155   6.805  11.716 -0.0626  0.6166  0.2135
  689MOL0     C90839   8.135   6.953  11.747 -1.0221 -0.2441 -0.5016
  689MOL0     O90840   8.015   7.017  11.693  0.1907 -0.4600 -0.3757
  689MOL0     C90841   7.891   6.974  11.734  0.2330 -0.5505 -0.8254
  689MOL0     C90842   7.775   7.006  11.660  0.6923  0.2837  0.2435
  689MOL0     C90843   7.649   6.967  11.706 -1.2122 -0.5830 -0.9235
  689MOL0     C90844   7.638   6.885  11.824 -0.7884 -0.4559  0.6047
  689MOL0     C90845   7.509   6.828  11.868  0.5640  0.4792 -0.6202
  689MOL0     O90846   7.397   6.889  11.830 -0.1161  0.9403  0.5087
  689MOL0     C90847   7.267   6.847  11.861 -0.5331  0.9237 -0.4036
  689MOL0     C90848   7.166   6.881  11.777  0.7940 -0.0094 -0.2220
  689MOL0     C90849   7.032   6.849  11.802 -0.6970 -0.3500 -0.2152
  689MOL0     C90850   6.999   6.784  11.924 -0.2258  0.4946 -0.3631
  689MOL0     O90851   6.877   6.748  11.964  0.7995 -0.1479  0.5445
  689MOL0     C90852   6.764   6.811  11.888 -0.6580  0.3741 -0.3885
  689MOL0     C90853   6.627   6.772  11.937 -0.2658  0.7794 -0.2792
  689MOL0     C90854   6.514   6.825  11.852  0.1103  0.8980 -0.7812
  689MOL0     C90855   6.388   6.843  11.937 -0.1538 -0.4766 -0.1878
  689MOL0     C90856   6.263   6.872  11.855  0.1226  0.5133  0.2880
  689MOL0     C90857   6.150   6.919  11.951  0.3213  0.2709  0.4032
  689MOL0     C90858   6.016   6.931  11.872 -0.4677  0.3019  0.2146
  689MOL0     C90859   5.913   6.989  11.954  0.4422 -1.4618  0.5138
  689MOL0    Cl90860   5.748   6.955  11.882 -0.4664 -0.4204 -0.6146
  689MOL0     C90861   7.104   6.744  12.008 -0.5676  0.1781  0.0785
  689MOL0     C90862   7.234   6.774  11.977 -0.5717 -1.0691  0.7091
  689MOL0     O90863   7.515   6.714  11.920  0.1943 -0.0444 -0.4457
  689MOL0     C90864   7.751   6.851  11.896 -0.2802 -0.1057  0.7720
  689MOL0     C90865   7.876   6.896  11.850 -0.7711  0.1686  0.3642
  689MOL0     N90866   8.148   6.716  11.272 -0.5447  0.1646  0.3779
  689MOL0     N90867   8.154   6.735  11.148  0.2881  0.1868 -0.0408
  689MOL0     C90868   7.325   7.078  10.340 -0.1747 -0.2135 -0.6960
  689MOL0     C90869   7.223   7.065  10.239 -0.1712 -0.7830 -0.3672
  689MOL0     C90870   7.038   6.867   9.860  0.0543  0.1447 -0.1546
  689MOL0     C90871   6.933   6.962   9.846 -0.5350  0.5134 -0.4662
  689MOL0     C90872   6.857   6.956   9.729  0.1532  0.3715  0.6095
  689MOL0     C90873   6.876   6.857   9.634 -0.1650  0.4718  0.6212
  689MOL0     O90874   6.799   6.868   9.518 -0.5752  0.2417  0.3225
  689MOL0     C90875   6.812   6.770   9.418  0.5863 -0.7731 -0.2635
  689MOL0     C90876   6.730   6.638   9.432 -0.4959  0.0002  0.2856
  689MOL0     C90877   6.736   6.535   9.325 -0.2518  0.1233  0.0115
  689MOL0     C90878   6.865   6.521   9.245 -0.5563 -0.2457  1.2138
  689MOL0     C90879   6.968   6.506   9.346 -0.8351 -0.6472 -0.4715
  689MOL0     C90880   7.063   6.494   9.424 -0.8316 -0.2384  0.1157
  689MOL0     C90881   6.975   6.763   9.656 -0.0297 -0.5322  0.2951
  689MOL0     C90882   7.056   6.767   9.763  1.0501  0.4595 -1.0307
  689MOL0     H90883   7.420   6.878  10.017  2.1817  0.7739  1.4949
  689MOL0     H90884   7.578   6.913  10.195 -1.2530 -4.9223  1.1000
  689MOL0     H90885   7.418   7.052  10.566 -0.1060 -0.5501 -1.5078
  689MOL0     H90886   7.545   7.174  10.578 -2.6984  1.1128 -0.5284
  689MOL0     H90887   7.593   6.864  10.592  0.6644 -0.9423  0.2584
  689MOL0     H90888   7.553   6.955  10.737  1.6933  0.5739  0.5052
  689MOL0     H90889   7.754   7.114  10.665 -0.4005 -0.1470  1.4261
  689MOL0     H90890   7.798   6.987  10.549  1.0355 -1.4419  1.0824
  689MOL0     H90891   7.766   6.931  10.848 -0.0022  0.3895 -0.7923
  689MOL0     H90892   7.846   6.831  10.734  0.1363 -0.2602  2.0346
  689MOL0     H90893   7.959   7.113  10.832  1.4429 -0.4110  0.7059
  689MOL0     H90894   8.016   7.021  10.692  2.2505 -0.9195  0.8148
  689MOL0     H90895   8.063   6.836  10.813 -0.1039  2.1106 -2.0065
  689MOL0     H90896   7.976   6.897  10.966  2.3804 -0.3401  1.6146
  689MOL0     H90897   8.218   7.035  10.856 -1.0685  1.4879 -0.3043
  689MOL0     H90898   8.157   7.042  11.023 -0.7285 -2.6042  1.2714
  689MOL0     H90899   8.364   6.921  10.981 -2.7930  3.6660  1.1709
  689MOL0     H90900   8.269   6.792  10.910 -3.2549  2.5278 -3.6746
  689MOL0     H90901   8.364   6.961  11.250  2.9986 -2.7475 -0.3525
  689MOL0     H90902   8.277   6.923  11.500 -0.4641 -1.3420  0.5823
  689MOL0     H90903   8.339   6.763  11.496  1.1779  1.0042 -0.9941
  689MOL0     H90904   8.127   6.666  11.546  1.4920 -1.1037  0.9986
  689MOL0     H90905   8.037   6.813  11.528  0.8511 -0.9503 -1.8654
  689MOL0     H90906   8.089   6.745  11.781  0.9032  0.7570  1.3517
  689MOL0     H90907   8.252   6.761  11.742 -0.0662  0.1650 -0.4971
  689MOL0     H90908   8.219   7.013  11.712 -1.1928 -0.7568 -1.8446
  689MOL0     H90909   8.133   6.975  11.854  2.1200  3.4234 -0.9837
  689MOL0     H90910   7.777   7.064  11.568  2.2774 -0.8044 -0.4404
  689MOL0     H90911   7.555   6.987  11.655 -1.4015 -1.4749 -0.9511
  689MOL0     H90912   7.200   6.938  11.691  1.1353 -1.2222 -0.9137
  689MOL0     H90913   6.957   6.882  11.731  1.3412  3.5712 -0.8340
  689MOL0     H90914   6.764   6.777  11.784 -1.8494  0.9932 -0.6095
  689MOL0     H90915   6.768   6.920  11.890 -0.6427  0.4235 -1.7498
  689MOL0     H90916   6.616   6.795  12.043 -1.5130 -3.7004  0.7932
  689MOL0     H90917   6.617   6.663  11.944  1.4832  0.4923 -1.4477
  689MOL0     H90918   6.506   6.755  11.769  0.5355 -1.7620  1.2836
  689MOL0     H90919   6.535   6.924  11.811 -1.8441  2.4152  1.5759
  689MOL0     H90920   6.356   6.754  11.992 -2.5609  1.0728  1.1381
  689MOL0     H90921   6.396   6.925  12.009 -0.0801  1.7593 -2.5523
  689MOL0     H90922   6.233   6.784  11.798 -0.8892 -0.2404  1.9225
  689MOL0     H90923   6.280   6.948  11.778 -0.7785 -0.7836 -1.2523
  689MOL0     H90924   6.191   7.011  11.995  2.9557 -1.2580  1.3683
  689MOL0     H90925   6.150   6.834  12.019  2.3024 -3.5169 -3.8191
  689MOL0     H90926   6.033   6.999  11.788 -1.8252 -1.0141 -1.2028
  689MOL0     H90927   5.982   6.835  11.831  1.8533 -0.7746  0.6874
  689MOL0     H90928   5.921   7.097  11.970 -1.6522 -1.2901  0.6813
  689MOL0     H90929   5.914   6.931  12.048  0.2191 -0.3728  1.2053
  689MOL0     H90930   7.076   6.675  12.087 -2.8313  1.3595  0.3896
  689MOL0     H90931   7.314   6.730  12.036  1.5872 -0.1721 -1.3875
  689MOL0     H90932   7.756   6.793  11.988  2.0010  0.1785  0.9105
  689MOL0     H90933   7.965   6.867  11.904  2.3929  5.0751 -1.4995
  689MOL0     H90934   7.302   7.129  10.433  0.7693 -1.1715  0.0889
  689MOL0     H90935   7.129   7.119  10.243  1.3751  2.1806 -0.9552
  689MOL0     H90936   6.905   7.047   9.907 -1.8513  0.1025 -0.4472
  689MOL0     H90937   6.779   7.028   9.710  1.0359  1.3504  0.5932
  689MOL0     H90938   6.916   6.743   9.402 -0.1896 -3.5496 -1.1485
  689MOL0     H90939   6.774   6.813   9.325 -2.2735 -0.5502  0.9061
  689MOL0     H90940   6.767   6.590   9.523  0.5470  1.9833  0.9638
  689MOL0     H90941   6.625   6.666   9.447 -0.5996  1.5863 -2.6702
  689MOL0     H90942   6.658   6.574   9.259 -2.5588 -0.8256  2.0127
  689MOL0     H90943   6.707   6.438   9.368 -1.1671 -0.0069 -0.8677
  689MOL0     H90944   6.871   6.426   9.190 -0.0089  1.0603 -1.1078
  689MOL0     H90945   6.900   6.606   9.187  0.2888  0.2282  2.3779
  689MOL0     H90946   7.148   6.487   9.489 -0.4996 -1.6964 -0.4464
  689MOL0     H90947   7.006   6.698   9.575  1.4046 -1.5150  1.5692
  689MOL0     H90948   7.135   6.693   9.775 -0.8270 -1.1378  3.7922
  690MOL0     O90949   7.881   1.217   0.813  0.7009  0.4231  0.4566
  690MOL0     C90950   7.937   1.117   0.852  0.5829 -0.2256 -0.4125
  690MOL0     O90951   7.882   0.998   0.895  0.7728  0.0989  0.2136
  690MOL0     C90952   7.751   0.976   0.909 -0.3325 -0.2125  0.3124
  690MOL0     C90953   7.656   1.067   0.963 -1.0558  0.0631  0.3006
  690MOL0     C90954   7.535   1.028   1.013 -0.6640 -0.1052 -0.5305
  690MOL0     C90955   7.491   0.897   0.973  0.4693  0.0156  0.9983
  690MOL0     O90956   7.375   0.840   1.006  0.4521 -0.2083  0.2568
  690MOL0     C90957   7.261   0.912   0.967 -0.0214  0.4884 -0.6615
  690MOL0     C90958   7.142   0.820   0.933 -0.0277 -0.8151 -0.5177
  690MOL0     C90959   7.005   0.876   0.941  0.5465 -0.6429  0.1762
  690MOL0     C90960   6.896   0.767   0.932 -1.3425 -0.0432  0.2417
  690MOL0     C90961   6.763   0.834   0.899 -0.8270  0.0941  0.5780
  690MOL0     C90962   6.646   0.752   0.965  0.4743  0.2017 -0.1574
  690MOL0     C90963   6.512   0.818   0.931 -0.4332  0.2212  0.6466
  690MOL0     C90964   6.401   0.739   1.002 -0.0922  0.9048 -0.1191
  690MOL0     N90965   6.264   0.773   0.959  0.5369  0.4445  0.1965
  690MOL0     C90966   6.210   0.894   0.935 -0.0205  0.2403 -0.1422
  690MOL0     C90967   6.087   0.877   0.889 -0.9545 -0.2108  0.0618
  690MOL0     C90968   5.991   0.989   0.861  0.3679  0.3019  1.0075
  690MOL0     C90969   5.881   1.020   0.969 -0.8787  0.0236 -0.3887
  690MOL0     C90970   5.942   1.065   1.108  0.9565 -0.7590 -0.2286
  690MOL0     C90971   5.835   1.044   1.211 -0.7678 -0.4847 -0.5056
  690MOL0     O90972   5.726   1.129   1.190 -0.5081 -0.4712  0.6117
  690MOL0     C90973   5.605   1.074   1.208 -0.2074 -0.2180  0.5018
  690MOL0     C90974   5.575   0.986   1.313  0.0448  0.5319 -0.2877
  690MOL0     C90975   5.441   0.946   1.339  0.0411 -0.0899  0.3835
  690MOL0     C90976   5.335   0.978   1.259  0.4987  0.0120 -0.6936
  690MOL0     C90977   5.186   0.951   1.277 -0.1285  0.2764 -0.2530
  690MOL0     O90978   5.112   0.943   1.163 -0.2458 -0.3919 -0.0986
  690MOL0     C90979   4.979   0.960   1.158  0.2259 -0.0425  0.3926
  690MOL0     C90980   4.905   0.875   1.070  0.8837  0.1599 -1.4236
  690MOL0     C90981   4.767   0.883   1.062  0.9082  0.1776 -1.0658
  690MOL0     C90982   4.692   0.973   1.136 -0.0585 -0.5068 -0.0684
  690MOL0     O90983   4.555   0.966   1.115  0.6661 -0.7164  0.0527
  690MOL0     C90984   4.474   1.048   1.204  0.5217 -0.2492 -0.4761
  690MOL0     C90985   4.328   1.023   1.160  0.0704  0.4189 -0.5550
  690MOL0     C90986   4.229   1.079   1.262  0.4992  0.3759  0.8087
  690MOL0     C90987   4.086   1.011   1.254 -0.0131  0.6154 -0.3658
  690MOL0     C90988   3.986   1.059   1.360  0.0542  0.0525  0.4329
  690MOL0     C90989   3.848   0.984   1.354  0.0516 -0.9402  0.5273
  690MOL0     C90990   3.766   1.024   1.484  0.3112  0.2090  0.0211
  690MOL0     C90991   3.615   0.987   1.467 -0.1438  0.6164 -0.3800
  690MOL0    Cl90992   3.530   1.111   1.375 -0.6088  0.1189 -0.5488
  690MOL0     C90993   4.771   1.057   1.223  0.5346  0.0693  0.3953
  690MOL0     C90994   4.907   1.055   1.228 -0.0110  0.6833 -0.9913
  690MOL0     O90995   5.146   0.915   1.390 -0.3978 -0.3936  0.1967
  690MOL0     C90996   5.362   1.067   1.153  0.4194  0.5146  1.2612
  690MOL0     C90997   5.496   1.114   1.134 -0.2348  0.5310 -0.2861
  690MOL0     N90998   6.074   0.738   0.871 -0.2234 -0.8366  0.2544
  690MOL0     N90999   6.173   0.685   0.922  0.6323 -0.2966 -0.8498
  690MOL0     C91000   7.579   0.802   0.907  0.3027  0.7229  0.1619
  690MOL0     C91001   7.700   0.849   0.876 -0.1929 -0.4645  0.3456
  690MOL0     C91002   8.080   1.138   0.845  0.6150  0.1017  0.7738
  690MOL0     C91003   8.142   1.255   0.797  0.1416 -0.0936  0.4684
  690MOL0     C91004   8.281   1.257   0.796 -0.8875 -0.1118 -0.4753
  690MOL0     C91005   8.365   1.151   0.828 -0.0051 -0.1123 -0.1201
  690MOL0     O91006   8.499   1.168   0.818  0.3242  0.3585  0.8164
  690MOL0     C91007   8.586   1.098   0.900  0.6992 -0.0552  0.2090
  690MOL0     C91008   8.728   1.157   0.902  0.1771  0.2892 -0.7933
  690MOL0     C91009   8.741   1.310   0.938  0.1910  0.5157  0.2324
  690MOL0     C91010   8.862   1.366   0.858 -0.2866  0.0104  0.0576
  690MOL0     C91011   8.990   1.306   0.897  0.7692 -0.5127  0.5134
  690MOL0     C91012   9.098   1.258   0.935  0.1798  0.8689 -0.5418
  690MOL0     C91013   8.309   1.032   0.872  0.4577  0.6630 -0.6402
  690MOL0     C91014   8.167   1.030   0.885 -0.1883 -0.5797 -1.0829
  690MOL0     H91015   7.688   1.166   0.992 -0.2274 -0.2705  0.5642
  690MOL0     H91016   7.484   1.094   1.082 -0.3214 -1.3577  0.9697
  690MOL0     H91017   7.286   0.989   0.894  1.8956  1.8532  1.3061
  690MOL0     H91018   7.241   0.970   1.058 -1.2306 -0.3640 -0.3643
  690MOL0     H91019   7.142   0.734   1.001  0.3422 -0.7669 -0.4583
  690MOL0     H91020   7.159   0.777   0.835  0.4471 -0.1534 -0.7301
  690MOL0     H91021   6.999   0.958   0.868  1.8336  1.5318  2.3608
  690MOL0     H91022   6.999   0.925   1.039  1.8155  2.2591 -1.0684
  690MOL0     H91023   6.919   0.700   0.848  0.7415 -0.3860  1.0174
  690MOL0     H91024   6.904   0.702   1.020 -1.0437 -2.5866 -1.5274
  690MOL0     H91025   6.751   0.835   0.790  0.7943  2.8072  0.3453
  690MOL0     H91026   6.761   0.940   0.924 -1.5207  0.8758 -2.3728
  690MOL0     H91027   6.659   0.728   1.071 -0.8338  2.1966  0.5071
  690MOL0     H91028   6.645   0.655   0.915 -0.3463  0.7307 -1.2026
  690MOL0     H91029   6.518   0.921   0.967  4.2597 -0.4156  2.3062
  690MOL0     H91030   6.497   0.806   0.824  6.7640 -0.7398 -0.7505
  690MOL0     H91031   6.418   0.760   1.107 -2.0422 -1.3613  0.7516
  690MOL0     H91032   6.424   0.633   0.991  0.7264  0.7609  2.4862
  690MOL0     H91033   6.253   0.994   0.937 -3.4035  1.8463  0.2772
  690MOL0     H91034   5.941   0.958   0.769  0.0581  1.2034  0.8678
  690MOL0     H91035   6.059   1.074   0.850  0.1793  0.7800  3.1075
  690MOL0     H91036   5.841   0.919   0.984 -1.9713  0.1573 -2.0734
  690MOL0     H91037   5.814   1.100   0.935 -3.4374 -2.4484 -1.6726
  690MOL0     H91038   6.041   1.019   1.116  2.1556  1.5849 -0.7650
  690MOL0     H91039   5.958   1.173   1.111 -0.7423 -0.3982 -1.8948
  690MOL0     H91040   5.876   1.056   1.311  0.4233  0.1377 -1.0543
  690MOL0     H91041   5.800   0.941   1.198 -1.3274 -0.1184 -2.2083
  690MOL0     H91042   5.652   0.948   1.378 -1.3652 -1.7769  0.1469
  690MOL0     H91043   5.437   0.878   1.423  2.5030  0.7274  1.2487
  690MOL0     H91044   4.963   0.801   1.017  0.9264 -0.3781 -0.6338
  690MOL0     H91045   4.716   0.808   1.002  0.9676  1.6929 -3.0973
  690MOL0     H91046   4.503   1.152   1.222 -1.2046 -0.0053  1.3706
  690MOL0     H91047   4.477   0.999   1.302  0.3980 -1.0534 -0.8729
  690MOL0     H91048   4.305   0.916   1.157 -1.9460  0.7788  0.3085
  690MOL0     H91049   4.321   1.054   1.056  1.1185  0.0896 -0.7375
  690MOL0     H91050   4.228   1.186   1.237 -2.5046  0.3056  0.2375
  690MOL0     H91051   4.260   1.064   1.366  0.4060  2.1280  1.1259
  690MOL0     H91052   4.043   1.028   1.155 -0.1011  1.7550 -0.1456
  690MOL0     H91053   4.111   0.905   1.262  0.5988  0.7403 -0.5788
  690MOL0     H91054   3.959   1.165   1.362 -2.3629 -0.4906 -0.2393
  690MOL0     H91055   4.030   1.036   1.458  2.0032  0.8662 -0.2257
  690MOL0     H91056   3.855   0.875   1.347  3.0767 -0.9123  1.5242
  690MOL0     H91057   3.791   1.031   1.273  0.5805 -0.6923  0.2929
  690MOL0     H91058   3.808   0.984   1.577  2.2474  2.1019  0.0476
  690MOL0     H91059   3.758   1.130   1.510 -1.5956  0.4003 -1.1153
  690MOL0     H91060   3.565   0.973   1.563  2.8436 -0.3435  1.1766
  690MOL0     H91061   3.621   0.896   1.406  1.0062  0.8911 -0.6993
  690MOL0     H91062   4.716   1.123   1.291 -0.2073 -1.2663  1.1270
  690MOL0     H91063   4.952   1.131   1.290 -0.0891  2.6064 -3.1960
  690MOL0     H91064   5.279   1.094   1.087 -1.5214 -0.2426  3.2734
  690MOL0     H91065   5.511   1.186   1.054  0.7127  2.1501  1.3118
  690MOL0     H91066   7.552   0.698   0.894 -2.1690  0.8154  3.3583
  690MOL0     H91067   7.776   0.780   0.841  0.6538  1.1267 -1.0904
  690MOL0     H91068   8.078   1.336   0.763 -0.4725 -1.0729 -0.7772
  690MOL0     H91069   8.322   1.347   0.752 -0.5929 -1.8863 -4.2077
  690MOL0     H91070   8.589   0.997   0.858 -3.5587 -0.2530 -0.0839
  690MOL0     H91071   8.547   1.088   1.002  0.9606 -2.2899  0.1317
  690MOL0     H91072   8.780   1.100   0.980  3.4153  1.9329 -1.5774
  690MOL0     H91073   8.783   1.120   0.815 -0.5459  0.6385 -1.4166
  690MOL0     H91074   8.769   1.317   1.043  3.2727  2.9978 -0.5961
  690MOL0     H91075   8.649   1.360   0.907  1.2856  0.8992 -2.7257
  690MOL0     H91076   8.837   1.358   0.752 -1.9002  0.5705  0.3652
  690MOL0     H91077   8.878   1.473   0.872 -0.9827 -0.0041  1.0889
  690MOL0     H91078   9.194   1.224   0.967 -0.6298 -2.6107 -1.3950
  690MOL0     H91079   8.372   0.951   0.906 -3.0762 -1.3517  1.7828
  690MOL0     H91080   8.124   0.936   0.916 -2.2127  0.0726 -1.7521
  691MOL0     O91081   9.197   1.178   2.564 -0.2987  0.9650 -0.2575
  691MOL0     C91082   9.216   1.257   2.475  0.7784  0.1272 -0.1967
  691MOL0     O91083   9.114   1.326   2.409  0.0507 -0.0297 -0.7557
  691MOL0     C91084   8.985   1.302   2.433  0.9856  0.2017 -0.8622
  691MOL0     C91085   8.895   1.312   2.326  0.3601  0.2207 -0.6456
  691MOL0     C91086   8.752   1.311   2.343 -0.6641 -0.7370 -0.2143
  691MOL0     C91087   8.700   1.303   2.468 -0.0445 -1.3302 -0.6051
  691MOL0     O91088   8.562   1.302   2.492  0.1784  0.0298 -0.2331
  691MOL0     C91089   8.475   1.349   2.382 -0.5922  0.5428 -0.6153
  691MOL0     C91090   8.332   1.351   2.425  0.1148 -0.0427 -0.8594
  691MOL0     C91091   8.236   1.386   2.314 -0.8265  0.6202 -0.2055
  691MOL0     C91092   8.092   1.391   2.362  0.7288  0.2553 -0.2186
  691MOL0     C91093   7.968   1.377   2.261  0.7872 -0.3925 -0.4118
  691MOL0     C91094   7.831   1.345   2.322  0.3156  0.2077 -0.5950
  691MOL0     C91095   7.748   1.461   2.380 -0.3525 -0.6025 -0.2577
  691MOL0     C91096   7.612   1.417   2.425 -0.6067  0.1320  0.5619
  691MOL0     N91097   7.528   1.404   2.306  0.4630 -0.4639 -0.4044
  691MOL0     C91098   7.469   1.513   2.247  0.4681  0.0370  0.9236
  691MOL0     C91099   7.400   1.467   2.143 -0.0629 -0.0695 -0.4952
  691MOL0     C91100   7.316   1.551   2.050 -0.4831 -1.0636 -0.4885
  691MOL0     C91101   7.381   1.688   2.012  0.0102  0.1818  0.2577
  691MOL0     C91102   7.520   1.682   1.963 -0.3965  0.1265  0.8162
  691MOL0     C91103   7.568   1.830   1.943 -0.3577 -0.4887  0.8274
  691MOL0     O91104   7.607   1.891   2.074  0.4918  0.4411  0.0982
  691MOL0     C91105   7.720   1.845   2.137 -0.0319 -0.5102 -0.9548
  691MOL0     C91106   7.823   1.768   2.084  0.1120 -0.1244 -0.0351
  691MOL0     C91107   7.940   1.740   2.162 -0.5615  0.5118  0.3693
  691MOL0     C91108   7.949   1.777   2.293 -0.4005 -0.5799  0.1056
  691MOL0     C91109   8.066   1.744   2.382 -0.8063 -0.5535  0.9222
  691MOL0     O91110   8.040   1.743   2.519  0.0518 -0.0796  1.3771
  691MOL0     C91111   8.149   1.715   2.601 -0.0038 -0.7809  0.2132
  691MOL0     C91112   8.152   1.593   2.660 -0.3301 -0.2133  0.5563
  691MOL0     C91113   8.263   1.548   2.735  0.6786  0.2913  0.2107
  691MOL0     C91114   8.369   1.634   2.753 -0.8078  0.6902  0.0050
  691MOL0     O91115   8.472   1.598   2.842 -0.3706 -0.4528  0.0926
  691MOL0     C91116   8.534   1.465   2.820  0.6205  0.1141  0.1632
  691MOL0     C91117   8.641   1.441   2.934 -0.2323  0.1195  0.6775
  691MOL0     C91118   8.594   1.410   3.070  0.5465  0.2434  0.5147
  691MOL0     C91119   8.445   1.442   3.098  0.1119 -0.0384 -0.1480
  691MOL0     C91120   8.402   1.387   3.231  0.4267  1.1487  0.2218
  691MOL0     C91121   8.275   1.444   3.296 -0.9731 -0.6126  0.9841
  691MOL0     C91122   8.148   1.377   3.263 -0.7896  0.7161 -0.5522
  691MOL0     C91123   8.032   1.467   3.293  0.6595  0.4027 -0.4722
  691MOL0    Cl91124   7.870   1.398   3.237  0.0609  0.4255 -0.1542
  691MOL0     C91125   8.379   1.754   2.686  0.0955  0.5506 -0.0342
  691MOL0     C91126   8.271   1.795   2.605 -0.5553  0.6279  0.2651
  691MOL0     O91127   8.177   1.732   2.332 -0.1173  0.2229  0.1828
  691MOL0     C91128   7.837   1.845   2.348 -0.0653 -0.2454  0.3521
  691MOL0     C91129   7.733   1.885   2.264  0.1466  0.8137  0.1994
  691MOL0     N91130   7.412   1.328   2.135 -0.2163  0.6983  0.2102
  691MOL0     N91131   7.495   1.289   2.231 -0.0493 -0.0412  0.3461
  691MOL0     C91132   8.787   1.292   2.582  0.3586  0.1255 -0.0552
  691MOL0     C91133   8.925   1.291   2.559 -1.2873  0.9762  0.1009
  691MOL0     C91134   9.351   1.311   2.462  0.1356  0.2956 -0.0060
  691MOL0     C91135   9.398   1.346   2.332 -0.0493  0.9218  1.1677
  691MOL0     C91136   9.518   1.412   2.315  0.0028  0.7616  0.1622
  691MOL0     C91137   9.587   1.455   2.428 -0.9262  0.4072 -0.8762
  691MOL0     O91138   9.699   1.522   2.396  0.1900  0.4704 -0.3082
  691MOL0     C91139   9.721   1.632   2.487 -0.2789 -0.4391 -0.2766
  691MOL0     C91140   9.868   1.681   2.473 -0.2936 -0.1990  0.0163
  691MOL0     C91141   9.886   1.769   2.340  0.4128  0.5749  0.9420
  691MOL0     C91142   9.994   1.877   2.338 -0.4667  0.9702 -0.7323
  691MOL0     C91143  10.011   1.958   2.219 -0.6624 -0.4398  0.9902
  691MOL0     C91144  10.034   2.018   2.118  0.3817  0.9704 -0.0243
  691MOL0     C91145   9.550   1.405   2.554  0.0713  0.1126 -0.6638
  691MOL0     C91146   9.434   1.327   2.572 -0.0562 -0.3885 -1.7067
  691MOL0     H91147   8.943   1.326   2.230  2.4169  4.9697  0.7805
  691MOL0     H91148   8.688   1.310   2.255  1.4685 -0.9444 -1.8144
  691MOL0     H91149   8.476   1.271   2.306  0.7185  0.5491 -0.6263
  691MOL0     H91150   8.507   1.445   2.340 -2.3120  3.2696  3.6253
  691MOL0     H91151   8.329   1.418   2.512  2.4889 -0.1209 -0.6381
  691MOL0     H91152   8.303   1.258   2.475 -0.7941  1.5075  1.7212
  691MOL0     H91153   8.241   1.310   2.235 -3.0962 -0.4546  0.5905
  691MOL0     H91154   8.269   1.484   2.279 -1.0351  1.4784  1.8680
  691MOL0     H91155   8.081   1.312   2.437 -2.4046  0.3563 -0.4293
  691MOL0     H91156   8.064   1.487   2.406 -2.9842 -0.5144 -0.5754
  691MOL0     H91157   7.987   1.293   2.194 -3.4184 -1.9107 -0.0149
  691MOL0     H91158   7.968   1.465   2.196 -1.6100  1.3025  1.6566
  691MOL0     H91159   7.843   1.253   2.379 -1.6062  0.8954  1.0442
  691MOL0     H91160   7.768   1.302   2.244 -2.6424 -0.0788  1.7617
  691MOL0     H91161   7.797   1.494   2.472 -2.5838  2.9258 -0.1470
  691MOL0     H91162   7.748   1.545   2.310 -2.4197  1.8741  2.4581
  691MOL0     H91163   7.563   1.498   2.479 -1.7954  0.0603 -0.3509
  691MOL0     H91164   7.609   1.327   2.486  1.4571  0.3691  1.0862
  691MOL0     H91165   7.486   1.613   2.286  1.8050 -0.8154  2.6845
  691MOL0     H91166   7.223   1.582   2.099  1.3746 -0.7700  3.2566
  691MOL0     H91167   7.303   1.492   1.959 -2.3370 -1.7579  0.1848
  691MOL0     H91168   7.389   1.760   2.093  2.9621 -1.1044  1.2695
  691MOL0     H91169   7.326   1.733   1.928 -0.0050 -0.9124 -0.3382
  691MOL0     H91170   7.591   1.630   2.029  0.2824 -0.4911 -0.3541
  691MOL0     H91171   7.527   1.627   1.868  0.7611 -1.1668  1.6007
  691MOL0     H91172   7.495   1.894   1.891 -0.8870 -1.2734  0.5984
  691MOL0     H91173   7.651   1.831   1.871 -0.3483 -3.3163  0.6972
  691MOL0     H91174   7.813   1.735   1.981 -1.0575  1.2597 -0.4055
  691MOL0     H91175   8.021   1.692   2.108  0.2883  3.6612 -1.4446
  691MOL0     H91176   8.072   1.520   2.656  1.7249 -2.5822 -2.7929
  691MOL0     H91177   8.261   1.454   2.789  1.1246  0.5806  0.7416
  691MOL0     H91178   8.592   1.466   2.727  1.7099  0.9344  0.8213
  691MOL0     H91179   8.463   1.382   2.822  1.6131 -0.7700  1.8412
  691MOL0     H91180   8.689   1.540   2.933  1.8479 -0.8374 -0.2624
  691MOL0     H91181   8.727   1.382   2.903 -0.4753 -0.3153  0.8197
  691MOL0     H91182   8.669   1.468   3.123  2.5397  1.4211 -3.2569
  691MOL0     H91183   8.616   1.308   3.103 -0.4824  0.5854  2.3973
  691MOL0     H91184   8.427   1.550   3.090  0.9616 -0.0253 -2.3116
  691MOL0     H91185   8.372   1.397   3.031 -0.7303 -1.4485  1.6328
  691MOL0     H91186   8.484   1.411   3.299 -1.1987 -0.3498  2.8579
  691MOL0     H91187   8.402   1.278   3.224 -1.0758  1.0625  1.1068
  691MOL0     H91188   8.268   1.553   3.291 -0.2140 -0.6243 -1.0494
  691MOL0     H91189   8.289   1.418   3.402 -0.0075 -2.4177  0.4632
  691MOL0     H91190   8.146   1.353   3.156 -2.3785  1.0951 -0.6216
  691MOL0     H91191   8.131   1.290   3.326  1.0091  1.3339  0.8896
  691MOL0     H91192   8.030   1.564   3.244  0.0873  1.6829  1.9010
  691MOL0     H91193   8.034   1.482   3.402  2.4084 -2.5393  0.0054
  691MOL0     H91194   8.469   1.814   2.686 -0.4951  1.4813  0.8171
  691MOL0     H91195   8.277   1.891   2.554  1.2786  1.2718  1.5693
  691MOL0     H91196   7.835   1.877   2.452  2.3260  1.1103  0.0451
  691MOL0     H91197   7.659   1.961   2.290 -1.0295 -0.0251 -0.5930
  691MOL0     H91198   8.754   1.275   2.685 -0.2943 -2.3717 -0.5970
  691MOL0     H91199   8.992   1.283   2.644 -0.6561  0.4863 -0.4366
  691MOL0     H91200   9.344   1.345   2.238  3.5578  2.2798 -1.1675
  691MOL0     H91201   9.553   1.452   2.221  3.0364  0.9375  1.2349
  691MOL0     H91202   9.712   1.597   2.590  1.1773  1.2144  0.4725
  691MOL0     H91203   9.651   1.715   2.489  1.2140  0.8714  1.3799
  691MOL0     H91204   9.900   1.738   2.561  1.4911  0.0258 -0.7370
  691MOL0     H91205   9.934   1.594   2.479  0.6459  0.5821  2.1503
  691MOL0     H91206   9.787   1.805   2.313 -0.5420 -0.1716  3.1574
  691MOL0     H91207   9.914   1.705   2.256  0.4393 -0.5618  1.7754
  691MOL0     H91208   9.983   1.952   2.416 -0.3539  0.3610 -0.1249
  691MOL0     H91209  10.089   1.825   2.349 -2.8181 -4.0188 -1.0652
  691MOL0     H91210  10.059   2.068   2.027 -1.8218  1.9701 -0.1562
  691MOL0     H91211   9.618   1.410   2.639 -1.8265 -0.3644  0.9774
  691MOL0     H91212   9.418   1.272   2.664  1.9131 -5.7451 -4.1556
  692MOL0     O91213   3.232   9.305   2.707  0.0101 -0.1190 -0.1223
  692MOL0     C91214   3.339   9.357   2.689  0.3097 -0.0889 -0.5711
  692MOL0     O91215   3.358   9.482   2.722  0.2962 -0.9793  0.9334
  692MOL0     C91216   3.248   9.566   2.746 -0.0999  0.6887 -0.2225
  692MOL0     C91217   3.156   9.612   2.657 -0.3358  0.8220  0.7618
  692MOL0     C91218   3.045   9.700   2.696  0.1020  0.2968  0.1172
  692MOL0     C91219   3.030   9.747   2.823  0.0534  0.8985  0.3859
  692MOL0     O91220   2.916   9.823   2.840 -0.1591  0.0555 -0.0321
  692MOL0     C91221   2.897   9.871   2.970 -0.6122  0.2258 -0.1304
  692MOL0     C91222   2.798   9.981   2.963 -0.5859 -0.4650  0.6882
  692MOL0     C91223   2.781  10.034   3.110  0.8184 -0.4901 -0.3719
  692MOL0     C91224   2.675  10.131   3.122  0.3890 -0.4141  0.2610
  692MOL0     C91225   2.539  10.083   3.103 -0.4612  0.1816 -0.0271
  692MOL0     C91226   2.447  10.208   3.110 -0.1927  0.0705  0.1497
  692MOL0     C91227   2.296  10.174   3.103 -0.2296  0.5353  0.8559
  692MOL0     C91228   2.267  10.089   3.230  0.2115  0.1054  0.2738
  692MOL0     N91229   2.126  10.101   3.265 -0.4378  0.3195 -0.4806
  692MOL0     C91230   2.025  10.084   3.177  0.8117  0.4333  0.2400
  692MOL0     C91231   1.908  10.108   3.240 -0.4392  1.4635  0.8890
  692MOL0     C91232   1.775  10.107   3.168  0.1397 -0.4660 -0.2235
  692MOL0     C91233   1.752  10.234   3.099  0.5505 -0.2770 -0.1484
  692MOL0     C91234   1.716  10.355   3.191  0.0901 -0.7244 -0.4265
  692MOL0     C91235   1.587  10.334   3.286 -1.0550  0.4433 -0.1187
  692MOL0     O91236   1.461  10.297   3.221  0.0911 -0.2474  0.1346
  692MOL0     C91237   1.348  10.353   3.271  0.2666 -0.2183  1.6922
  692MOL0     C91238   1.238  10.273   3.288  0.3434  0.4054 -0.3099
  692MOL0     C91239   1.113  10.326   3.319 -1.0367 -0.4364  0.4157
  692MOL0     C91240   1.088  10.465   3.320 -0.6080 -0.0633 -0.0536
  692MOL0     C91241   0.956  10.521   3.332 -0.2264  0.5590  0.3139
  692MOL0     O91242   0.853  10.434   3.310 -0.1938 -0.5655 -0.3676
  692MOL0     C91243   0.721  10.468   3.324  1.1018  0.5106 -0.1022
  692MOL0     C91244   0.640  10.558   3.252 -1.6573 -0.3654  0.9865
  692MOL0     C91245   0.510  10.592   3.289 -0.3817  0.5907 -0.9875
  692MOL0     C91246   0.455  10.542   3.406 -0.1879 -0.0336 -0.4773
  692MOL0     O91247   0.332  10.593   3.440 -0.8004 -0.4945 -0.0684
  692MOL0     C91248   0.246  10.499   3.498  0.9268 -0.5816  0.6293
  692MOL0     C91249   0.100  10.546   3.494 -0.7256 -0.9451 -0.3704
  692MOL0     C91250   0.058  10.608   3.352  0.4090  0.5421  0.9356
  692MOL0     C91251  -0.039  10.717   3.347 -0.1069 -0.1822  0.1424
  692MOL0     C91252  -0.005  10.834   3.441 -0.5340  0.9608  0.1953
  692MOL0     C91253  -0.063  10.970   3.397 -0.1539  0.1495 -0.0553
  692MOL0     C91254  -0.067  11.066   3.523 -0.6503  0.1845  0.4768
  692MOL0     C91255  -0.035  11.219   3.491 -0.2072  0.4239  0.3583
  692MOL0    Cl91256   0.130  11.224   3.442 -0.0513  0.0101  0.1415
  692MOL0     C91257   0.530  10.443   3.480 -0.5166 -0.8960 -0.2423
  692MOL0     C91258   0.655  10.411   3.431 -0.6421  0.2675 -0.3538
  692MOL0     O91259   0.944  10.640   3.366 -0.5557  0.2288  0.2906
  692MOL0     C91260   1.205  10.549   3.299 -0.3855 -0.6069 -0.7648
  692MOL0     C91261   1.335  10.490   3.280  0.1853 -0.1160 -0.7764
  692MOL0     N91262   1.935  10.144   3.372  0.4542 -0.5239  0.4177
  692MOL0     N91263   2.066  10.150   3.384 -0.0525  0.8470 -0.4922
  692MOL0     C91264   3.113   9.698   2.923 -0.1984  0.1983  0.1361
  692MOL0     C91265   3.225   9.609   2.885 -0.1230 -0.2319  0.2311
  692MOL0     C91266   3.468   9.282   2.661  0.4582  0.0631 -0.2790
  692MOL0     C91267   3.466   9.155   2.597  0.1825  0.5641  0.1336
  692MOL0     C91268   3.583   9.083   2.569 -0.6271 -0.3239  0.5269
  692MOL0     C91269   3.707   9.132   2.610 -0.0415  0.6422 -0.2650
  692MOL0     O91270   3.829   9.076   2.582  0.0081  0.9690  0.6586
  692MOL0     C91271   3.845   8.954   2.519 -0.4471  0.2479  1.0635
  692MOL0     C91272   3.987   8.902   2.492 -0.2252  0.4871 -0.2564
  692MOL0     C91273   4.064   8.987   2.394 -0.6988  0.6465 -0.5193
  692MOL0     C91274   4.220   8.970   2.406  0.0927  0.4732  0.0600
  692MOL0     C91275   4.280   9.059   2.304  0.0285  0.4495 -0.1089
  692MOL0     C91276   4.321   9.133   2.221  0.3717 -0.1551  0.9311
  692MOL0     C91277   3.709   9.264   2.664 -0.9420 -0.0929  0.6292
  692MOL0     C91278   3.591   9.335   2.694 -0.4019  0.8784 -0.6124
  692MOL0     H91279   3.158   9.588   2.551  0.6474  0.4019  0.8669
  692MOL0     H91280   2.983   9.745   2.619  3.8570  0.6918 -3.0154
  692MOL0     H91281   2.987   9.909   3.019 -0.7321  1.3339 -0.7301
  692MOL0     H91282   2.850   9.782   3.014 -1.8880  1.5106  1.2179
  692MOL0     H91283   2.710   9.943   2.911  1.7989 -1.6627 -2.8346
  692MOL0     H91284   2.842  10.067   2.913  1.3518 -0.8853  1.5938
  692MOL0     H91285   2.875  10.064   3.157  0.6045 -1.3865  0.6710
  692MOL0     H91286   2.752   9.951   3.176 -2.3930 -0.0497 -1.0446
  692MOL0     H91287   2.688  10.188   3.214  3.2309  1.8699 -1.3700
  692MOL0     H91288   2.700  10.208   3.048  2.4719  0.9869  2.2976
  692MOL0     H91289   2.514  10.005   3.176 -1.8894 -3.3805 -3.8919
  692MOL0     H91290   2.515  10.037   3.007 -1.3968  0.0077  0.2708
  692MOL0     H91291   2.481  10.277   3.032  3.4387  1.5555  2.7608
  692MOL0     H91292   2.459  10.260   3.205  0.5807  0.3944 -0.1189
  692MOL0     H91293   2.250  10.273   3.094 -0.1545  0.6174  1.3614
  692MOL0     H91294   2.277  10.115   3.013 -1.5533 -0.7917  1.9374
  692MOL0     H91295   2.323  10.115   3.320 -1.6499  1.8622  1.0062
  692MOL0     H91296   2.291   9.983   3.217 -0.6367 -0.0165 -0.3661
  692MOL0     H91297   2.024  10.062   3.070  1.7951 -3.1919  0.8515
  692MOL0     H91298   1.693  10.083   3.237 -1.1656  1.6752 -0.9614
  692MOL0     H91299   1.785  10.032   3.089 -0.0456 -3.6978  2.5368
  692MOL0     H91300   1.668  10.224   3.029  0.7245  0.0347 -0.4035
  692MOL0     H91301   1.832  10.262   3.031 -0.4075 -2.5735 -2.3856
  692MOL0     H91302   1.795  10.369   3.266 -1.6494  0.4824  1.2960
  692MOL0     H91303   1.692  10.442   3.130 -3.8562 -0.6762  0.9010
  692MOL0     H91304   1.581  10.427   3.342  2.9329  2.9920 -3.3958
  692MOL0     H91305   1.607  10.255   3.360  3.6066 -0.6024 -2.1318
  692MOL0     H91306   1.256  10.166   3.291  2.2129  0.7054  1.0528
  692MOL0     H91307   1.038  10.253   3.348 -1.0022 -0.6831 -0.0880
  692MOL0     H91308   0.695  10.599   3.168 -1.8492 -1.5394  0.2694
  692MOL0     H91309   0.457  10.667   3.231 -2.5927 -1.0169 -1.1898
  692MOL0     H91310   0.277  10.487   3.603  2.7104  1.1998  0.3709
  692MOL0     H91311   0.248  10.406   3.441 -2.0809 -0.5309  0.3069
  692MOL0     H91312   0.083  10.617   3.575 -0.4556 -0.8567 -0.3893
  692MOL0     H91313   0.038  10.463   3.528 -1.9942  0.0102 -0.2706
  692MOL0     H91314   0.008  10.524   3.305 -0.1021  0.1960  2.0769
  692MOL0     H91315   0.144  10.625   3.286  0.0044 -1.3634 -0.1364
  692MOL0     H91316  -0.043  10.768   3.250 -2.6942  3.5736  1.9440
  692MOL0     H91317  -0.142  10.680   3.355 -0.5829 -0.0087 -3.5415
  692MOL0     H91318   0.104  10.844   3.450 -0.2932  0.0177 -1.2889
  692MOL0     H91319  -0.041  10.806   3.540  1.6663  0.4741  0.9164
  692MOL0     H91320  -0.166  10.962   3.361  0.1257 -0.7973 -0.6797
  692MOL0     H91321  -0.001  11.018   3.320 -0.5508 -0.3353 -0.6886
  692MOL0     H91322  -0.171  11.056   3.556 -0.7219 -0.9002 -0.0445
  692MOL0     H91323   0.001  11.033   3.602 -2.0747 -0.4823  1.4601
  692MOL0     H91324  -0.040  11.283   3.580  4.3079  0.0814  1.0809
  692MOL0     H91325  -0.096  11.248   3.405  4.1674 -5.0978 -5.5504
  692MOL0     H91326   0.484  10.419   3.575 -1.5269  0.7272 -0.2683
  692MOL0     H91327   0.716  10.358   3.503  2.3921  1.3898 -1.9093
  692MOL0     H91328   1.196  10.656   3.314  3.6224 -0.4274  1.9725
  692MOL0     H91329   1.423  10.549   3.260  0.4150 -0.3776 -0.5526
  692MOL0     H91330   3.106   9.722   3.029  0.2298 -0.1513  0.2465
  692MOL0     H91331   3.292   9.572   2.962 -0.8909  0.3495  1.2142
  692MOL0     H91332   3.368   9.116   2.570 -0.0760  0.8973  0.5744
  692MOL0     H91333   3.576   8.989   2.517  0.5842 -1.0832  1.6655
  692MOL0     H91334   3.797   8.956   2.421  0.1967  0.7062  0.7531
  692MOL0     H91335   3.788   8.878   2.575  0.0488 -1.1082 -0.2116
  692MOL0     H91336   4.039   8.878   2.585 -0.0083 -1.4459 -0.8399
  692MOL0     H91337   3.979   8.801   2.451 -0.2063  0.5681 -0.4633
  692MOL0     H91338   4.030   9.089   2.410 -1.1702  0.0517  3.0719
  692MOL0     H91339   4.041   8.948   2.294  0.5184  2.3958 -1.5346
  692MOL0     H91340   4.239   8.997   2.510 -1.6133 -1.9658  1.0823
  692MOL0     H91341   4.253   8.867   2.386  2.8112  1.2098  0.2746
  692MOL0     H91342   4.347   9.202   2.143 -1.3546  0.0531  0.4975
  692MOL0     H91343   3.807   9.307   2.684 -1.0336 -0.1721  1.2823
  692MOL0     H91344   3.597   9.434   2.739  0.9402 -0.4349  2.3963
  693MOL0     O91345   0.565   8.394  10.162 -0.2959 -0.0756  0.1051
  693MOL0     C91346   0.510   8.289  10.139 -0.5125  1.2034  0.2676
  693MOL0     O91347   0.562   8.171  10.089 -0.2028 -0.1997  0.4622
  693MOL0     C91348   0.690   8.154  10.068  0.0302  0.5407  0.5988
  693MOL0     C91349   0.756   8.033  10.098  0.1183 -0.3526  0.5257
  693MOL0     C91350   0.890   8.007  10.076  0.2497  0.0291  0.0011
  693MOL0     C91351   0.972   8.112  10.026 -0.5563 -0.2797 -0.6386
  693MOL0     O91352   1.111   8.103  10.022 -0.8794  0.4718  0.4617
  693MOL0     C91353   1.167   7.985  10.072  0.4200 -0.0800  0.0283
  693MOL0     C91354   1.322   7.974  10.045 -0.1108  0.5778  0.0319
  693MOL0     C91355   1.374   7.962   9.905 -0.2540  0.2899  0.5923
  693MOL0     C91356   1.529   7.958   9.911 -0.5465 -0.2010  0.0256
  693MOL0     C91357   1.590   8.096   9.912  0.3251 -0.0560  0.8742
  693MOL0     C91358   1.741   8.083   9.882  0.4896  0.7343 -0.9270
  693MOL0     C91359   1.803   8.220   9.857 -0.2569 -0.2224  0.7092
  693MOL0     C91360   1.769   8.314   9.970  0.5729 -0.3032  0.5049
  693MOL0     N91361   1.842   8.449   9.965  0.5060 -0.0998  0.0963
  693MOL0     C91362   1.980   8.460   9.947 -0.3678 -0.1372 -0.1572
  693MOL0     C91363   1.988   8.595   9.935 -0.6227 -0.0704 -0.2855
  693MOL0     C91364   2.113   8.662   9.901 -0.7192  0.0037 -0.2858
  693MOL0     C91365   2.201   8.675  10.024 -0.0885 -0.8467  0.4334
  693MOL0     C91366   2.277   8.810  10.022  0.0880  0.0624  0.3974
  693MOL0     C91367   2.318   8.873  10.154  0.0011 -0.3748  0.1095
  693MOL0     O91368   2.208   8.880  10.248 -0.1544 -0.0112 -0.6583
  693MOL0     C91369   2.244   8.833  10.376  1.0390  0.5882 -0.5241
  693MOL0     C91370   2.349   8.881  10.445 -0.9105 -1.3729 -0.2029
  693MOL0     C91371   2.391   8.825  10.575 -0.2635 -0.3811 -0.0155
  693MOL0     C91372   2.310   8.729  10.640  0.5304 -0.4953 -0.6030
  693MOL0     C91373   2.336   8.674  10.777  0.1892  0.3261 -0.0822
  693MOL0     O91374   2.233   8.623  10.846  0.6396  0.6311 -0.0392
  693MOL0     C91375   2.246   8.543  10.961 -0.1435 -0.3063  0.3751
  693MOL0     C91376   2.336   8.436  10.981 -0.0237  0.1548 -0.8144
  693MOL0     C91377   2.359   8.380  11.102 -0.3641  0.3915  0.1238
  693MOL0     C91378   2.274   8.408  11.206  1.0041 -0.3410  0.1268
  693MOL0     O91379   2.302   8.343  11.320 -0.6285 -0.2652  0.2166
  693MOL0     C91380   2.211   8.317  11.423  1.1621 -0.9471 -0.3677
  693MOL0     C91381   2.108   8.213  11.360 -0.4256 -0.0390 -1.2930
  693MOL0     C91382   2.024   8.142  11.457  0.0663 -0.1504 -0.0044
  693MOL0     C91383   1.959   8.019  11.401  0.4933 -0.0716  0.5049
  693MOL0     C91384   1.841   7.977  11.497  0.0659 -0.9591  0.0849
  693MOL0     C91385   1.721   8.077  11.495  0.2988  0.0071  0.0833
  693MOL0     C91386   1.643   8.067  11.359  0.4779 -0.4294  0.3265
  693MOL0     C91387   1.562   8.192  11.346 -0.2603  0.2290 -0.3296
  693MOL0    Cl91388   1.417   8.166  11.248  0.1473  0.2691 -0.3717
  693MOL0     C91389   2.173   8.500  11.189  0.3912 -0.3974 -0.7502
  693MOL0     C91390   2.171   8.571  11.072  1.0230  0.6606 -0.6478
  693MOL0     O91391   2.453   8.656  10.803 -0.8908 -0.1755 -0.4153
  693MOL0     C91392   2.193   8.684  10.571 -0.0090  0.0035 -0.1367
  693MOL0     C91393   2.166   8.737  10.438  0.5164 -0.1684  0.6706
  693MOL0     N91394   1.869   8.662   9.953  0.4544  0.7375 -0.2103
  693MOL0     N91395   1.779   8.572   9.963 -0.1426  0.7665 -0.0814
  693MOL0     C91396   0.913   8.236   9.992  0.0065  0.0380 -0.5579
  693MOL0     C91397   0.771   8.256  10.015  0.3796  0.0513  0.0708
  693MOL0     C91398   0.368   8.282  10.160 -0.6204  0.1302 -0.7442
  693MOL0     C91399   0.297   8.396  10.177  0.1919  0.1953 -0.2334
  693MOL0     C91400   0.158   8.398  10.215  0.4435  0.5653  0.4626
  693MOL0     C91401   0.090   8.272  10.240  0.2316  0.1880  0.1298
  693MOL0     O91402  -0.037   8.277  10.301  0.2253  0.0745 -0.0077
  693MOL0     C91403  -0.145   8.218  10.228  0.3942  0.2684  0.5264
  693MOL0     C91404  -0.202   8.303  10.111 -1.1484  0.3770 -0.1199
  693MOL0     C91405  -0.327   8.233  10.061  0.1337  0.3934 -0.0561
  693MOL0     C91406  -0.440   8.262  10.157 -0.1605 -0.2748 -0.2362
  693MOL0     C91407  -0.562   8.243  10.088  1.0940 -0.3656 -0.6352
  693MOL0     C91408  -0.669   8.226  10.038 -0.5535  0.3347  0.9742
  693MOL0     C91409   0.166   8.157  10.224  0.5368  0.4294  0.1588
  693MOL0     C91410   0.306   8.160  10.185  0.5073 -0.4588  0.3099
  693MOL0     H91411   0.701   7.956  10.151 -0.7366  1.5023  2.5010
  693MOL0     H91412   0.927   7.906  10.093  0.5389  0.1730  0.2429
  693MOL0     H91413   1.124   7.904  10.012 -2.0447  2.0727 -1.3061
  693MOL0     H91414   1.130   7.975  10.174 -1.9358 -1.9081 -0.9243
  693MOL0     H91415   1.366   7.892  10.102 -0.8104  0.1265 -0.0652
  693MOL0     H91416   1.362   8.069  10.082 -0.2440 -0.7014  3.8651
  693MOL0     H91417   1.345   8.042   9.836  1.1198  1.6838  1.5585
  693MOL0     H91418   1.339   7.862   9.880 -0.0887  0.6025 -0.9549
  693MOL0     H91419   1.558   7.912  10.006 -1.8897  0.8247  0.9770
  693MOL0     H91420   1.570   7.901   9.826  1.1389  0.7653  0.1449
  693MOL0     H91421   1.563   8.157   9.999  0.3181  2.9574 -1.0949
  693MOL0     H91422   1.543   8.157   9.835  2.4264  2.6580  1.5611
  693MOL0     H91423   1.757   8.014   9.799  1.1794  0.3607 -0.4968
  693MOL0     H91424   1.797   8.045   9.969  1.4491  0.3649 -1.6770
  693MOL0     H91425   1.909   8.210   9.833  0.2734 -0.9020  3.0642
  693MOL0     H91426   1.763   8.265   9.765  1.7814 -2.9142 -1.6674
  693MOL0     H91427   1.800   8.277  10.068  1.9209 -2.5059 -0.6884
  693MOL0     H91428   1.662   8.335   9.980  0.4813 -0.8278  0.6160
  693MOL0     H91429   2.059   8.385   9.949  1.7806  1.9413 -1.6210
  693MOL0     H91430   2.088   8.765   9.872 -1.9311 -0.7224 -1.9690
  693MOL0     H91431   2.155   8.604   9.819  0.1288  1.1247 -0.6782
  693MOL0     H91432   2.272   8.593  10.037  0.5611 -0.4499 -0.5681
  693MOL0     H91433   2.137   8.680  10.113  2.0480 -1.1727  2.0583
  693MOL0     H91434   2.367   8.796   9.962 -1.1579 -0.0535 -1.5126
  693MOL0     H91435   2.231   8.891   9.966 -1.6617  0.8701  2.8074
  693MOL0     H91436   2.364   8.970  10.136 -1.9363  0.6211  0.3261
  693MOL0     H91437   2.390   8.796  10.184  1.8060  0.9091 -0.7265
  693MOL0     H91438   2.409   8.962  10.403 -1.5083 -2.5636 -3.6710
  693MOL0     H91439   2.488   8.849  10.617  0.4222 -0.7596 -1.3248
  693MOL0     H91440   2.399   8.411  10.897  2.2806  0.7293  0.6552
  693MOL0     H91441   2.441   8.309  11.105  0.5842  1.3765 -1.4009
  693MOL0     H91442   2.152   8.406  11.447 -1.0446 -2.1313 -1.0143
  693MOL0     H91443   2.263   8.281  11.512  1.2416  1.1891  0.5121
  693MOL0     H91444   2.155   8.136  11.298 -1.3507  1.0059 -3.3679
  693MOL0     H91445   2.038   8.262  11.292  0.0396  1.9513 -0.4133
  693MOL0     H91446   1.955   8.215  11.500  2.3676  0.9521  2.1297
  693MOL0     H91447   2.089   8.098  11.533  1.3142 -2.2577 -2.1684
  693MOL0     H91448   1.919   8.048  11.304  0.0768  0.1698  0.7473
  693MOL0     H91449   2.033   7.939  11.391  2.9646  2.0918  0.6095
  693MOL0     H91450   1.880   7.988  11.599  0.1531 -0.6672  0.0211
  693MOL0     H91451   1.814   7.872  11.492  2.2804 -1.6261  0.7572
  693MOL0     H91452   1.757   8.180  11.506  0.7642 -0.2098  0.5956
  693MOL0     H91453   1.652   8.048  11.574 -0.0310  1.1588  0.2450
  693MOL0     H91454   1.707   8.066  11.271  0.7658 -0.6627  0.5354
  693MOL0     H91455   1.585   7.974  11.363 -3.4969  1.8329  0.7116
  693MOL0     H91456   1.626   8.271  11.308  2.8057 -2.4266 -1.1154
  693MOL0     H91457   1.540   8.214  11.451 -1.4705 -0.6853 -0.3566
  693MOL0     H91458   2.105   8.527  11.269  0.8392 -1.6009  0.0591
  693MOL0     H91459   2.100   8.652  11.054  0.5083  0.0773 -1.3103
  693MOL0     H91460   2.123   8.611  10.609  0.7042 -0.7534 -0.2577
  693MOL0     H91461   2.074   8.711  10.387  0.6465 -3.1739  1.7706
  693MOL0     H91462   0.977   8.317   9.961  0.7634 -0.2601  0.1917
  693MOL0     H91463   0.730   8.356  10.003  3.2960  1.4122  0.6423
  693MOL0     H91464   0.345   8.492  10.163 -0.3906  0.0385 -4.5845
  693MOL0     H91465   0.110   8.494  10.234 -2.1347 -0.8994  1.8412
  693MOL0     H91466  -0.223   8.190  10.300 -0.5468  0.7235 -0.2971
  693MOL0     H91467  -0.121   8.120  10.184 -0.3472  0.4641 -0.3423
  693MOL0     H91468  -0.214   8.405  10.149 -0.2768  0.1002  0.9243
  693MOL0     H91469  -0.139   8.284  10.024 -1.9083 -0.4777 -0.5028
  693MOL0     H91470  -0.309   8.127  10.043 -0.5500  0.2716 -0.0636
  693MOL0     H91471  -0.345   8.280   9.964  2.4568  2.1025  0.2384
  693MOL0     H91472  -0.430   8.200  10.246  1.3919 -1.1177 -0.9679
  693MOL0     H91473  -0.432   8.368  10.185  1.9819 -0.5234  0.2922
  693MOL0     H91474  -0.769   8.197  10.011 -1.6280  2.7511  2.0647
  693MOL0     H91475   0.107   8.066  10.225 -0.9105  1.2310 -2.4975
  693MOL0     H91476   0.357   8.064  10.181  0.8326 -0.2708 -3.0899
  694MOL0     O91477   5.176   9.372   6.965 -0.1043 -1.2216 -0.1700
  694MOL0     C91478   5.140   9.460   7.046 -0.6102  0.5663  0.4367
  694MOL0     O91479   5.040   9.548   7.042 -0.3314 -0.1286 -0.0806
  694MOL0     C91480   4.959   9.567   6.939  0.1510  0.5978  0.0727
  694MOL0     C91481   4.919   9.471   6.839 -0.5946 -0.2229 -0.2186
  694MOL0     C91482   4.820   9.506   6.744 -0.5203 -0.1085  0.0519
  694MOL0     C91483   4.770   9.636   6.734  0.2431  0.4655 -0.3390
  694MOL0     O91484   4.684   9.678   6.634 -0.6143 -0.1765 -0.2688
  694MOL0     C91485   4.631   9.574   6.555  1.1784 -0.1263  0.3248
  694MOL0     C91486   4.510   9.628   6.479  0.5393  0.4670  0.0837
  694MOL0     C91487   4.399   9.665   6.588 -0.4436 -0.1850  0.3954
  694MOL0     C91488   4.275   9.707   6.507  0.1218  0.5418 -0.2864
  694MOL0     C91489   4.163   9.751   6.607 -0.4600 -0.3576  0.4794
  694MOL0     C91490   4.057   9.849   6.541 -0.6452  0.1010 -0.0213
  694MOL0     C91491   3.998   9.807   6.404  0.5465 -0.3084  0.7188
  694MOL0     C91492   3.931   9.670   6.400 -0.5678 -0.0596  0.2501
  694MOL0     N91493   3.802   9.659   6.467  0.3610 -0.3597 -0.6405
  694MOL0     C91494   3.692   9.738   6.439  0.2632  0.3063  0.2037
  694MOL0     C91495   3.601   9.705   6.542  0.3232  0.4418  0.6539
  694MOL0     C91496   3.470   9.772   6.547  0.3135  0.0798  0.0414
  694MOL0     C91497   3.359   9.704   6.460  0.0852 -0.0844 -0.0016
  694MOL0     C91498   3.304   9.575   6.523 -0.0294 -0.2567  0.0406
  694MOL0     C91499   3.173   9.524   6.457  0.8756  1.0401  1.0070
  694MOL0     O91500   3.060   9.610   6.479  0.0933  0.2243  0.4379
  694MOL0     C91501   2.938   9.576   6.426  0.3059  0.8211  0.1946
  694MOL0     C91502   2.907   9.446   6.391  0.2207 -0.3611  0.7436
  694MOL0     C91503   2.781   9.416   6.345 -0.1482 -0.2259  1.0735
  694MOL0     C91504   2.682   9.519   6.335  0.2281  0.6507  0.0034
  694MOL0     C91505   2.536   9.502   6.297  0.1187 -0.9688  0.2224
  694MOL0     O91506   2.498   9.367   6.289 -0.0252 -0.4853  0.0732
  694MOL0     C91507   2.371   9.330   6.287  0.3629  1.1724 -0.1082
  694MOL0     C91508   2.345   9.223   6.193  0.0248  0.3783 -0.4427
  694MOL0     C91509   2.217   9.181   6.160  0.0208  0.1077 -0.2644
  694MOL0     C91510   2.109   9.236   6.241 -0.8066  1.3084 -0.9210
  694MOL0     O91511   1.977   9.199   6.234 -0.6236  0.0179  0.1585
  694MOL0     C91512   1.939   9.084   6.157  0.0117 -0.7192  0.4519
  694MOL0     C91513   1.925   8.966   6.254  0.0810  0.3514  0.5426
  694MOL0     C91514   1.828   8.855   6.187 -0.4308  0.5471  0.1817
  694MOL0     C91515   1.681   8.889   6.229 -1.2283 -0.3291  0.4147
  694MOL0     C91516   1.591   8.815   6.117 -0.0128  0.3014 -0.4886
  694MOL0     C91517   1.464   8.755   6.177  0.1690 -0.6204 -0.2688
  694MOL0     C91518   1.391   8.705   6.059 -0.1063  0.5549 -0.6082
  694MOL0     C91519   1.244   8.662   6.095 -0.2537  0.5526  0.3906
  694MOL0    Cl91520   1.138   8.648   5.946 -0.3326 -0.0964 -0.5048
  694MOL0     C91521   2.140   9.331   6.342  0.0341 -1.0166  0.5133
  694MOL0     C91522   2.267   9.378   6.360 -1.1492  0.4961 -0.4202
  694MOL0     O91523   2.464   9.601   6.275 -0.4058 -0.1710  0.3679
  694MOL0     C91524   2.716   9.647   6.392 -0.5312 -0.1991 -0.7761
  694MOL0     C91525   2.842   9.678   6.432 -1.4650 -1.2486  0.1133
  694MOL0     N91526   3.651   9.596   6.616  0.0055  0.0024 -0.3657
  694MOL0     N91527   3.774   9.576   6.580 -0.7609 -0.6739  0.7205
  694MOL0     C91528   4.824   9.732   6.816 -0.9708  0.3011 -0.2653
  694MOL0     C91529   4.906   9.693   6.923  0.2110 -0.2581  1.3911
  694MOL0     C91530   5.228   9.460   7.160 -0.6035 -0.9693 -0.5821
  694MOL0     C91531   5.359   9.407   7.144 -0.3567  0.0322  0.1236
  694MOL0     C91532   5.441   9.417   7.259  0.1448 -1.0611 -0.0733
  694MOL0     C91533   5.402   9.486   7.376  1.2120 -0.2093  0.3573
  694MOL0     O91534   5.506   9.488   7.467 -0.7613 -0.0375  0.0003
  694MOL0     C91535   5.510   9.572   7.591 -0.4453 -0.1231  0.5304
  694MOL0     C91536   5.518   9.718   7.553 -0.7460 -1.3714  0.0595
  694MOL0     C91537   5.659   9.756   7.497 -0.7951  0.2547 -0.2273
  694MOL0     C91538   5.661   9.898   7.447 -0.3542  1.0744 -0.5646
  694MOL0     C91539   5.627   9.998   7.551  0.7397 -0.8318  0.2567
  694MOL0     C91540   5.612  10.092   7.633 -0.4287 -0.3870  0.2077
  694MOL0     C91541   5.270   9.530   7.387  0.0153 -0.0449  0.0626
  694MOL0     C91542   5.188   9.513   7.276  0.1993 -0.4461 -0.9475
  694MOL0     H91543   4.946   9.366   6.837 -2.6025 -0.7790 -0.6099
  694MOL0     H91544   4.788   9.426   6.678  0.4801  1.1791 -2.1218
  694MOL0     H91545   4.606   9.484   6.611  0.1438  0.2975  0.5553
  694MOL0     H91546   4.700   9.549   6.474  1.8451  0.3308  0.7399
  694MOL0     H91547   4.465   9.562   6.405  2.0081 -1.6271  0.9770
  694MOL0     H91548   4.533   9.715   6.416  2.9927  0.4784  0.8675
  694MOL0     H91549   4.432   9.747   6.652 -1.1147 -0.7607  1.5015
  694MOL0     H91550   4.379   9.580   6.653  0.2719  0.7370  1.8644
  694MOL0     H91551   4.290   9.781   6.428  2.9579  0.7878  0.3907
  694MOL0     H91552   4.248   9.614   6.456 -2.8060  1.6623 -1.0324
  694MOL0     H91553   4.203   9.805   6.692  2.7695  0.1104 -1.1725
  694MOL0     H91554   4.117   9.659   6.643 -1.6868 -0.7528 -1.8765
  694MOL0     H91555   4.091   9.953   6.537  0.1332 -0.0034  2.3623
  694MOL0     H91556   3.971   9.853   6.608 -3.8089  0.2781 -3.7712
  694MOL0     H91557   3.925   9.881   6.370  0.5031 -0.5363  0.3103
  694MOL0     H91558   4.077   9.808   6.328 -0.8703 -1.3449 -0.8292
  694MOL0     H91559   3.996   9.596   6.447  0.7195  0.0054 -1.3375
  694MOL0     H91560   3.915   9.631   6.299 -0.3623  2.8374 -0.9962
  694MOL0     H91561   3.676   9.807   6.357 -0.3707 -0.9142 -0.7258
  694MOL0     H91562   3.491   9.878   6.530  0.4881  0.4180  2.1439
  694MOL0     H91563   3.429   9.762   6.648 -1.8637 -1.4154 -0.9076
  694MOL0     H91564   3.406   9.668   6.369 -1.4957 -2.8503  0.1821
  694MOL0     H91565   3.280   9.775   6.432  1.3120  0.1796 -3.2103
  694MOL0     H91566   3.380   9.497   6.511  1.3987  0.6910  2.2057
  694MOL0     H91567   3.299   9.595   6.630  0.5312  1.4029 -0.2104
  694MOL0     H91568   3.137   9.441   6.517 -1.0288  1.6215  0.7232
  694MOL0     H91569   3.180   9.492   6.353 -1.0982  1.9298  0.5483
  694MOL0     H91570   2.985   9.371   6.384 -1.3308 -1.9380 -0.6268
  694MOL0     H91571   2.764   9.320   6.297 -0.0952 -0.2640  1.1317
  694MOL0     H91572   2.430   9.178   6.143 -1.2325 -2.8225  0.0713
  694MOL0     H91573   2.202   9.108   6.081  0.2974 -1.9754  1.5185
  694MOL0     H91574   2.006   9.055   6.075  0.1765 -1.0703  0.7022
  694MOL0     H91575   1.838   9.094   6.117 -0.7330 -2.7195  1.6480
  694MOL0     H91576   1.897   9.014   6.348  1.4318  1.5437  0.3632
  694MOL0     H91577   2.026   8.925   6.264  0.0069  0.4797  2.0060
  694MOL0     H91578   1.858   8.754   6.217 -1.1620  1.1452  3.3206
  694MOL0     H91579   1.829   8.857   6.078 -0.4145 -3.0185 -0.0054
  694MOL0     H91580   1.661   8.859   6.332  0.2373  1.4189  1.2612
  694MOL0     H91581   1.681   8.999   6.230  2.2690 -0.2005 -1.1029
  694MOL0     H91582   1.654   8.745   6.062  4.1281  0.4471  3.4678
  694MOL0     H91583   1.566   8.895   6.046  0.2319 -0.0766 -1.0089
  694MOL0     H91584   1.411   8.831   6.235  1.0266 -1.0476  1.1467
  694MOL0     H91585   1.491   8.678   6.250  0.0790  1.8673  2.5880
  694MOL0     H91586   1.391   8.789   5.989  1.6762  2.4656  1.5409
  694MOL0     H91587   1.435   8.616   6.012 -3.1576  0.1152 -2.9151
  694MOL0     H91588   1.200   8.741   6.157  0.6245  2.4019 -1.2312
  694MOL0     H91589   1.247   8.571   6.155  0.1744 -1.1500 -2.0478
  694MOL0     H91590   2.071   9.384   6.407 -0.1561 -0.8934  0.2168
  694MOL0     H91591   2.271   9.443   6.447 -1.3610  0.4855 -0.4033
  694MOL0     H91592   2.629   9.711   6.401  0.6471  1.1533  2.2680
  694MOL0     H91593   2.857   9.770   6.488  2.6120 -1.2621 -0.6547
  694MOL0     H91594   4.810   9.839   6.809  0.9301  0.5361 -1.1408
  694MOL0     H91595   4.927   9.775   6.991 -1.9973  1.2117  0.4240
  694MOL0     H91596   5.400   9.378   7.048  0.0408 -0.3849  0.4191
  694MOL0     H91597   5.546   9.403   7.233  1.1225  1.9989  1.6898
  694MOL0     H91598   5.590   9.538   7.658 -0.1396  2.5706  1.6395
  694MOL0     H91599   5.417   9.560   7.647 -2.4385 -0.4398 -2.6156
  694MOL0     H91600   5.443   9.734   7.475  0.7347 -3.3495 -1.8614
  694MOL0     H91601   5.501   9.776   7.645  0.0861  0.2244 -0.7556
  694MOL0     H91602   5.674   9.691   7.410 -0.4805  0.2158 -0.1456
  694MOL0     H91603   5.736   9.739   7.573 -2.0571 -2.5171  0.5540
  694MOL0     H91604   5.761   9.931   7.420  0.4083  0.5226  1.4166
  694MOL0     H91605   5.586   9.899   7.366 -0.5532 -0.8454 -0.4393
  694MOL0     H91606   5.611  10.169   7.708 -0.9730 -1.0507  0.8879
  694MOL0     H91607   5.247   9.576   7.483 -1.8422  0.6736 -0.6770
  694MOL0     H91608   5.087   9.553   7.279  1.2254  2.3627  1.5056
  695MOL0     O91609   6.111   3.764   7.737 -0.1157 -0.5167  0.1553
  695MOL0     C91610   6.164   3.875   7.734 -1.1261  0.0236  0.4816
  695MOL0     O91611   6.106   3.990   7.694  0.2096  0.1592  0.5100
  695MOL0     C91612   5.977   4.008   7.709  0.0010 -0.0654 -0.3500
  695MOL0     C91613   5.907   3.986   7.829 -1.1003  0.4140  0.5986
  695MOL0     C91614   5.778   4.024   7.837  0.3662  0.4787 -0.2728
  695MOL0     C91615   5.693   4.062   7.720 -0.5015  0.2252  1.4406
  695MOL0     O91616   5.558   4.095   7.729  0.0452 -0.7854  0.0457
  695MOL0     C91617   5.481   4.126   7.855 -0.4660 -0.3455  0.5189
  695MOL0     C91618   5.443   4.005   7.948 -0.4768 -0.6052 -0.5269
  695MOL0     C91619   5.349   3.914   7.868 -0.6257  0.1865  0.4022
  695MOL0     C91620   5.307   3.777   7.929 -0.2850 -0.1474  0.0957
  695MOL0     C91621   5.204   3.706   7.829 -0.1433 -0.3906 -0.3375
  695MOL0     C91622   5.268   3.645   7.704  0.3224  0.0394 -0.1189
  695MOL0     C91623   5.162   3.633   7.593 -0.4848  0.3835  0.0363
  695MOL0     C91624   5.068   3.511   7.603 -0.3674  0.5481  0.0899
  695MOL0     N91625   5.148   3.380   7.618  0.4488 -0.7388  0.4426
  695MOL0     C91626   5.216   3.323   7.522 -0.1271  0.7310  0.5903
  695MOL0     C91627   5.280   3.218   7.581 -0.4385 -0.7412 -0.0007
  695MOL0     C91628   5.369   3.133   7.499 -0.0687  0.4289 -0.3381
  695MOL0     C91629   5.418   3.006   7.566 -1.1457  0.9677 -0.4194
  695MOL0     C91630   5.511   3.019   7.693  0.9392  0.7295  0.0356
  695MOL0     C91631   5.524   2.886   7.764  0.3146 -0.2734  0.1984
  695MOL0     O91632   5.590   2.796   7.672 -0.0488  0.7525  0.3507
  695MOL0     C91633   5.715   2.772   7.707 -0.3534  0.5923  0.2729
  695MOL0     C91634   5.821   2.827   7.634  0.2650 -1.3426 -1.1234
  695MOL0     C91635   5.950   2.789   7.674 -0.3653 -0.5450  0.1822
  695MOL0     C91636   5.973   2.703   7.780 -0.3879 -0.2684 -0.0911
  695MOL0     C91637   6.119   2.666   7.824  0.0811  0.4945 -0.2737
  695MOL0     O91638   6.204   2.764   7.788  0.0955 -0.1315 -0.9473
  695MOL0     C91639   6.335   2.747   7.798 -0.2880  0.0713 -0.5056
  695MOL0     C91640   6.391   2.738   7.925 -0.0541  0.6314  0.6014
  695MOL0     C91641   6.528   2.739   7.942  0.4762 -0.3595 -0.9313
  695MOL0     C91642   6.614   2.734   7.836 -0.8169 -1.0832  0.4360
  695MOL0     O91643   6.751   2.736   7.866 -0.8632 -0.1683 -0.2362
  695MOL0     C91644   6.848   2.770   7.763  0.0110 -0.0788  0.3978
  695MOL0     C91645   6.970   2.830   7.831 -0.2603 -0.6943  0.4375
  695MOL0     C91646   6.942   2.979   7.848  0.5150 -0.7443 -0.6104
  695MOL0     C91647   7.050   3.062   7.920 -0.4632  0.3597 -0.7595
  695MOL0     C91648   7.019   3.218   7.940 -0.9398  0.1288 -0.5284
  695MOL0     C91649   6.940   3.252   8.064  0.1648  0.5864 -0.0058
  695MOL0     C91650   6.908   3.401   8.093 -0.1582  0.0810 -0.1625
  695MOL0     C91651   6.767   3.430   8.044  1.0632 -0.0527 -0.1429
  695MOL0    Cl91652   6.745   3.416   7.868 -0.1082  0.1076 -0.3842
  695MOL0     C91653   6.561   2.743   7.706 -0.4641 -0.2331 -0.3817
  695MOL0     C91654   6.423   2.755   7.694 -0.6500  0.1071  0.0719
  695MOL0     O91655   6.143   2.559   7.880 -0.6969 -0.4046  0.3902
  695MOL0     C91656   5.864   2.658   7.848 -0.1402  0.7454 -0.2037
  695MOL0     C91657   5.739   2.689   7.815 -0.6943 -0.3210 -0.1254
  695MOL0     N91658   5.261   3.230   7.713 -0.3642  0.3220  0.3986
  695MOL0     N91659   5.173   3.327   7.735 -0.2146 -0.9799 -0.5976
  695MOL0     C91660   5.773   4.080   7.602 -0.1080  0.1268 -1.2479
  695MOL0     C91661   5.911   4.067   7.600  0.0504 -0.3754  0.3099
  695MOL0     C91662   6.310   3.879   7.753 -0.1296 -0.5295 -0.1246
  695MOL0     C91663   6.372   3.770   7.822 -0.8539  0.3747  0.3989
  695MOL0     C91664   6.507   3.776   7.851  0.6925 -0.8403  0.4345
  695MOL0     C91665   6.595   3.875   7.805 -0.8887  0.3459  0.4128
  695MOL0     O91666   6.721   3.857   7.844  0.6130 -0.9688 -0.1824
  695MOL0     C91667   6.823   3.927   7.763  0.8460  0.1379  0.2979
  695MOL0     C91668   6.957   3.853   7.775 -0.1300 -0.9043 -0.3612
  695MOL0     C91669   6.959   3.722   7.702  0.6865  0.1742 -1.0453
  695MOL0     C91670   7.029   3.620   7.789  0.3162 -0.4817 -0.3799
  695MOL0     C91671   7.172   3.635   7.807 -0.5070  0.2061 -1.7008
  695MOL0     C91672   7.285   3.634   7.834 -0.3233  0.1293 -0.4645
  695MOL0     C91673   6.539   3.967   7.717 -0.9471 -0.2116  0.7159
  695MOL0     C91674   6.397   3.979   7.698  0.0809 -0.3275  0.1640
  695MOL0     H91675   5.968   3.959   7.914  0.4031  1.6270 -0.0430
  695MOL0     H91676   5.724   4.025   7.931 -2.0126  1.4350 -1.5847
  695MOL0     H91677   5.381   4.170   7.849 -0.1681  0.6578  2.4184
  695MOL0     H91678   5.535   4.196   7.919 -1.8582  0.2491  1.0740
  695MOL0     H91679   5.383   4.035   8.035 -0.3938  2.2783 -1.3529
  695MOL0     H91680   5.529   3.951   7.986  1.2612  2.8505  0.9216
  695MOL0     H91681   5.395   3.894   7.771  0.6379 -0.7333  1.1537
  695MOL0     H91682   5.257   3.969   7.845 -2.9806 -3.6204 -0.2887
  695MOL0     H91683   5.385   3.703   7.948  0.3042  0.4339 -0.0555
  695MOL0     H91684   5.252   3.798   8.022 -1.6251 -5.2486  0.7612
  695MOL0     H91685   5.115   3.767   7.812 -1.1585 -1.4927  0.8143
  695MOL0     H91686   5.156   3.623   7.881 -1.0959 -0.1280 -0.7796
  695MOL0     H91687   5.300   3.543   7.727 -1.6833 -0.5107  0.4026
  695MOL0     H91688   5.350   3.705   7.663 -0.9180  0.1384 -2.6247
  695MOL0     H91689   5.104   3.726   7.589 -1.0429  0.0277 -0.2264
  695MOL0     H91690   5.221   3.622   7.501  1.9089 -1.8958  1.7030
  695MOL0     H91691   5.023   3.501   7.504  1.9262  0.5220 -1.0169
  695MOL0     H91692   4.989   3.523   7.677 -1.5386 -1.1045 -0.8218
  695MOL0     H91693   5.211   3.340   7.415 -2.1536  0.3219  0.5812
  695MOL0     H91694   5.451   3.190   7.456  0.4449  0.7264  0.9774
  695MOL0     H91695   5.305   3.097   7.417 -3.7367  0.5186  2.2133
  695MOL0     H91696   5.483   2.951   7.497  4.1206  0.9413  3.8416
  695MOL0     H91697   5.327   2.954   7.599  1.1138 -1.0692  3.3295
  695MOL0     H91698   5.608   3.063   7.672  1.5344 -0.2982  0.5439
  695MOL0     H91699   5.470   3.087   7.769  0.2454 -2.2520  2.5561
  695MOL0     H91700   5.430   2.852   7.809 -0.8292  0.0728 -1.8062
  695MOL0     H91701   5.591   2.902   7.849  2.7131 -3.4408 -0.9055
  695MOL0     H91702   5.810   2.910   7.566 -0.9983  1.6981  2.4647
  695MOL0     H91703   6.039   2.821   7.621  1.7189 -3.1048  1.8635
  695MOL0     H91704   6.334   2.763   8.013 -2.0524  0.0916 -0.4836
  695MOL0     H91705   6.573   2.734   8.041  1.6417 -0.6344 -1.4578
  695MOL0     H91706   6.805   2.848   7.700 -1.6643 -1.7040 -0.5621
  695MOL0     H91707   6.866   2.676   7.709 -0.2675  0.0852  0.0149
  695MOL0     H91708   7.061   2.833   7.771  1.8133  2.5912  3.3957
  695MOL0     H91709   6.995   2.772   7.920  3.4550 -0.3941 -0.2683
  695MOL0     H91710   6.851   2.987   7.908 -0.3899  2.6000 -2.1661
  695MOL0     H91711   6.925   3.034   7.755 -3.6456 -0.5395  0.0644
  695MOL0     H91712   7.089   3.012   8.009  1.0258  0.0615 -1.5366
  695MOL0     H91713   7.141   3.060   7.859  0.0759  1.8838 -0.0698
  695MOL0     H91714   6.959   3.259   7.858  1.0140  0.0389 -2.0936
  695MOL0     H91715   7.114   3.272   7.942 -1.1643  0.5048  0.1985
  695MOL0     H91716   7.014   3.222   8.139  2.3677 -4.6662 -3.6576
  695MOL0     H91717   6.849   3.193   8.064 -0.3505  1.3609 -0.1491
  695MOL0     H91718   6.916   3.434   8.197  3.3428 -0.9191  0.0011
  695MOL0     H91719   6.973   3.456   8.026  1.6540 -2.6285 -0.7960
  695MOL0     H91720   6.727   3.526   8.076 -4.3459 -2.3261  1.1138
  695MOL0     H91721   6.699   3.360   8.093 -1.1251  1.6264 -0.6243
  695MOL0     H91722   6.615   2.746   7.613 -1.8020 -0.5256 -1.1971
  695MOL0     H91723   6.399   2.765   7.589  1.0730  6.2513 -0.1488
  695MOL0     H91724   5.879   2.586   7.928 -1.2516  0.0327 -0.6158
  695MOL0     H91725   5.651   2.636   7.852  0.0285  0.8302  3.7366
  695MOL0     H91726   5.731   4.137   7.519 -0.8683  0.1807 -0.8350
  695MOL0     H91727   5.958   4.092   7.506 -1.3671 -0.2579 -0.3850
  695MOL0     H91728   6.324   3.678   7.855  2.8208 -3.1697 -3.0000
  695MOL0     H91729   6.561   3.706   7.914 -1.7847 -3.8605 -0.5622
  695MOL0     H91730   6.836   4.027   7.805  1.6698 -0.0939  0.6279
  695MOL0     H91731   6.794   3.929   7.658 -1.7169 -3.1511  0.7675
  695MOL0     H91732   7.049   3.901   7.744  0.0230 -2.1285 -1.9556
  695MOL0     H91733   6.971   3.832   7.881  0.3889 -1.6385 -0.5652
  695MOL0     H91734   7.011   3.735   7.606 -0.2309 -1.0493 -1.7295
  695MOL0     H91735   6.859   3.682   7.682  1.6065 -1.0480 -3.7005
  695MOL0     H91736   6.982   3.614   7.888 -1.0922  1.7774 -0.8368
  695MOL0     H91737   7.013   3.521   7.745 -3.2183 -1.1255  1.8705
  695MOL0     H91738   7.385   3.644   7.871 -1.0792 -0.7729  2.0368
  695MOL0     H91739   6.597   4.053   7.686 -0.6057 -1.0770 -1.1858
  695MOL0     H91740   6.360   4.068   7.648 -0.2616 -0.0575  0.8705
  696MOL0     O91741   5.490   1.026   6.935  0.4437  0.0099 -0.2076
  696MOL0     C91742   5.559   1.046   7.040 -0.1475 -0.7594  0.0238
  696MOL0     O91743   5.509   1.038   7.167 -0.4968  0.5294  0.0004
  696MOL0     C91744   5.389   0.972   7.170  0.8422 -0.6959 -0.7313
  696MOL0     C91745   5.374   0.837   7.188  0.9149 -1.1513  0.1085
  696MOL0     C91746   5.244   0.788   7.176 -0.0893  0.3032 -0.2791
  696MOL0     C91747   5.126   0.865   7.166 -0.6091  0.1816  0.1559
  696MOL0     O91748   5.009   0.802   7.165  0.6190 -0.0979 -0.0166
  696MOL0     C91749   4.891   0.863   7.225  0.3748 -1.0624 -0.7822
  696MOL0     C91750   4.773   0.771   7.197  0.0646 -0.4196 -0.1811
  696MOL0     C91751   4.650   0.848   7.154  0.1609  0.3696  0.2522
  696MOL0     C91752   4.601   0.938   7.267 -0.3269 -0.8766 -0.3860
  696MOL0     C91753   4.484   1.038   7.224 -0.1479  1.0909  0.5857
  696MOL0     C91754   4.414   1.111   7.339  0.0044 -0.7441 -0.1799
  696MOL0     C91755   4.298   1.199   7.284  0.1451 -0.6669  1.5110
  696MOL0     C91756   4.235   1.281   7.394 -0.0383 -1.3077 -1.0463
  696MOL0     N91757   4.188   1.201   7.506 -0.5728 -0.6645 -0.4435
  696MOL0     C91758   4.159   1.256   7.627  0.7188 -1.2655  0.1438
  696MOL0     C91759   4.090   1.161   7.690  0.1375 -0.6328 -0.1199
  696MOL0     C91760   4.038   1.181   7.829 -0.2280  0.4681  0.1157
  696MOL0     C91761   3.897   1.248   7.836 -0.6030 -0.0641 -0.1363
  696MOL0     C91762   3.837   1.215   7.972 -0.3444 -0.0829 -0.3834
  696MOL0     C91763   3.691   1.257   7.989  0.1737  0.6794  0.5896
  696MOL0     O91764   3.683   1.400   7.981 -0.2408  0.7760  0.3997
  696MOL0     C91765   3.568   1.469   7.968 -0.1006 -0.0237 -0.0360
  696MOL0     C91766   3.575   1.610   7.981  0.1028 -0.3872  0.1434
  696MOL0     C91767   3.463   1.690   7.962  0.1681 -0.2809  0.0984
  696MOL0     C91768   3.337   1.639   7.940  0.2653 -0.6803  0.4603
  696MOL0     C91769   3.220   1.717   7.911  1.2930 -1.7066  0.4715
  696MOL0     O91770   3.130   1.651   7.832 -0.1104 -0.2709 -0.6475
  696MOL0     C91771   2.996   1.683   7.822  0.7550 -0.2141  0.0118
  696MOL0     C91772   2.933   1.811   7.837 -0.1492  0.4359 -0.3206
  696MOL0     C91773   2.792   1.826   7.808  0.0965  0.0943  0.1924
  696MOL0     C91774   2.703   1.717   7.789 -0.0848 -0.2900  0.0733
  696MOL0     O91775   2.575   1.727   7.742  0.6521  0.3546 -0.1524
  696MOL0     C91776   2.505   1.852   7.770  0.4696  0.2321  0.6422
  696MOL0     C91777   2.354   1.820   7.809  0.1403 -0.3726 -0.2272
  696MOL0     C91778   2.271   1.776   7.682 -0.5055  0.6233 -0.8900
  696MOL0     C91779   2.133   1.748   7.730  0.2243  0.4009 -0.4449
  696MOL0     C91780   2.047   1.725   7.610 -0.1371  0.3204  0.0173
  696MOL0     C91781   1.901   1.723   7.659  0.7762  0.3983  0.2423
  696MOL0     C91782   1.860   1.589   7.717  0.8651 -0.1552 -0.8551
  696MOL0     C91783   1.698   1.579   7.729  0.2994  0.2766 -0.9690
  696MOL0    Cl91784   1.638   1.566   7.561  0.4443 -0.1131 -0.1680
  696MOL0     C91785   2.774   1.594   7.789  0.2331 -0.0430  0.1185
  696MOL0     C91786   2.913   1.581   7.807 -0.8663  0.3877  0.0711
  696MOL0     O91787   3.202   1.819   7.981 -0.4477 -0.1681  0.1320
  696MOL0     C91788   3.337   1.504   7.906 -0.3827 -0.5455  0.0268
  696MOL0     C91789   3.445   1.411   7.928 -0.3082  0.1630  0.0579
  696MOL0     N91790   4.063   1.058   7.600 -0.2573 -0.4388 -0.0802
  696MOL0     N91791   4.129   1.078   7.499  0.1311  0.6029 -0.4935
  696MOL0     C91792   5.149   1.002   7.140  0.5000  1.3111 -0.1280
  696MOL0     C91793   5.273   1.059   7.147 -0.5409  0.2100  0.0845
  696MOL0     C91794   5.706   1.083   7.017 -0.1202 -0.2557 -0.0801
  696MOL0     C91795   5.783   1.115   7.131 -0.4804 -0.6118 -0.1066
  696MOL0     C91796   5.917   1.144   7.119  0.1813  0.2515 -0.5968
  696MOL0     C91797   5.979   1.115   7.003  0.1748 -0.6816 -0.5099
  696MOL0     O91798   6.113   1.103   6.985 -0.3855  0.3399  0.1478
  696MOL0     C91799   6.195   1.064   7.092  0.4096 -0.4399  0.9608
  696MOL0     C91800   6.247   1.189   7.159 -0.7961 -0.2032 -0.1050
  696MOL0     C91801   6.309   1.292   7.055 -0.3250  0.9635 -1.1755
  696MOL0     C91802   6.407   1.385   7.130  0.9606  0.1759 -0.2927
  696MOL0     C91803   6.401   1.521   7.078  0.6898 -0.3580 -0.1822
  696MOL0     C91804   6.382   1.637   7.040 -0.5178  1.3369  0.1577
  696MOL0     C91805   5.908   1.099   6.886  0.4300  0.3076  0.0352
  696MOL0     C91806   5.774   1.070   6.894 -0.0494  0.3962  0.2165
  696MOL0     H91807   5.457   0.774   7.218 -1.6029 -3.0835  3.7461
  696MOL0     H91808   5.232   0.688   7.215  1.9948 -0.5630 -1.6776
  696MOL0     H91809   4.871   0.956   7.171  0.4546  0.0922  1.0840
  696MOL0     H91810   4.902   0.888   7.331  1.5996 -0.8311 -0.9489
  696MOL0     H91811   4.749   0.721   7.292  0.5728  0.4512  0.4218
  696MOL0     H91812   4.808   0.695   7.126  0.1015 -1.7934  1.2242
  696MOL0     H91813   4.572   0.775   7.132 -1.2826  1.9288  0.0161
  696MOL0     H91814   4.664   0.908   7.063 -1.9140  1.6191  0.6814
  696MOL0     H91815   4.566   0.879   7.352 -1.8164  1.1580  0.4894
  696MOL0     H91816   4.682   1.004   7.300  0.9873 -2.6534  0.1196
  696MOL0     H91817   4.420   0.967   7.172 -0.7172  1.0404  1.3424
  696MOL0     H91818   4.531   1.101   7.149  0.5200 -0.5104 -0.3843
  696MOL0     H91819   4.491   1.170   7.391 -1.7572 -0.2227  1.9970
  696MOL0     H91820   4.377   1.040   7.414 -1.2791  1.0446  0.9821
  696MOL0     H91821   4.330   1.261   7.199 -3.0231 -1.0733 -0.1314
  696MOL0     H91822   4.215   1.138   7.247  2.1542 -2.9949  0.5743
  696MOL0     H91823   4.144   1.336   7.366  1.8387  2.4126 -0.5200
  696MOL0     H91824   4.308   1.354   7.429  0.4934 -0.6256 -3.4103
  696MOL0     H91825   4.200   1.348   7.668  0.8622 -1.4120  0.3383
  696MOL0     H91826   4.114   1.232   7.889 -0.3601  3.0516 -1.7098
  696MOL0     H91827   4.029   1.077   7.861 -1.6084 -0.1121 -1.9494
  696MOL0     H91828   3.834   1.213   7.754 -2.0025  1.8088  0.0658
  696MOL0     H91829   3.913   1.353   7.809  0.5239 -0.0231  0.6233
  696MOL0     H91830   3.844   1.112   8.005 -2.4458  0.5720  2.4384
  696MOL0     H91831   3.890   1.276   8.045 -0.6706 -0.3219  0.0564
  696MOL0     H91832   3.661   1.224   8.088  0.0946  1.8952  0.9880
  696MOL0     H91833   3.625   1.202   7.921 -1.4048  0.1427  2.4926
  696MOL0     H91834   3.668   1.658   8.009 -0.7322  1.3323  0.0513
  696MOL0     H91835   3.476   1.797   7.976  0.6918  0.0072 -2.2854
  696MOL0     H91836   2.997   1.896   7.857  0.4591 -0.5623  2.3485
  696MOL0     H91837   2.749   1.926   7.810 -0.7604 -0.2231 -0.9115
  696MOL0     H91838   2.506   1.930   7.693  1.9065  2.6186  2.9020
  696MOL0     H91839   2.547   1.899   7.859  0.1050  1.5715  0.1353
  696MOL0     H91840   2.306   1.904   7.860 -2.4960 -1.0805 -1.3690
  696MOL0     H91841   2.357   1.737   7.882  0.2214  1.4997  2.0213
  696MOL0     H91842   2.328   1.691   7.644 -1.5866 -0.9290  0.7650
  696MOL0     H91843   2.268   1.846   7.599  1.1242 -1.9057 -3.2631
  696MOL0     H91844   2.128   1.657   7.791  2.6574  0.4906 -0.0254
  696MOL0     H91845   2.087   1.828   7.789 -0.4774  0.1663 -0.6596
  696MOL0     H91846   2.065   1.635   7.551 -1.8999 -0.1082  0.0714
  696MOL0     H91847   2.058   1.815   7.549  1.6510 -0.0429 -0.2496
  696MOL0     H91848   1.838   1.740   7.571  0.5807  0.0429  0.3105
  696MOL0     H91849   1.883   1.808   7.726 -1.0995  3.3089 -3.5391
  696MOL0     H91850   1.881   1.508   7.647  1.4314 -0.6803 -0.1026
  696MOL0     H91851   1.909   1.588   7.815 -1.8119 -1.6443  0.5931
  696MOL0     H91852   1.654   1.658   7.791  0.6512 -2.4303  3.1336
  696MOL0     H91853   1.676   1.492   7.791  0.6411  0.4412 -0.6118
  696MOL0     H91854   2.721   1.503   7.760 -1.3424  1.0456 -0.5728
  696MOL0     H91855   2.954   1.480   7.810 -2.5339 -0.3646 -1.0475
  696MOL0     H91856   3.251   1.454   7.862 -0.4513 -0.4459  0.0445
  696MOL0     H91857   3.413   1.312   7.899  0.9273 -0.2316  0.0195
  696MOL0     H91858   5.063   1.066   7.123 -1.6571 -0.7174  2.2217
  696MOL0     H91859   5.285   1.166   7.133  2.2862 -0.1121 -0.4784
  696MOL0     H91860   5.737   1.125   7.229 -3.1042 -1.7828 -1.1362
  696MOL0     H91861   5.974   1.174   7.206 -1.4442  2.3752 -0.1703
  696MOL0     H91862   6.284   1.021   7.045  1.7870  3.9989 -1.0985
  696MOL0     H91863   6.159   0.987   7.160 -1.9384 -1.2825 -1.1014
  696MOL0     H91864   6.164   1.230   7.216 -1.4929 -0.4579 -0.9195
  696MOL0     H91865   6.323   1.152   7.228  0.9145  1.8739 -0.7502
  696MOL0     H91866   6.224   1.347   7.012  1.0449  0.9031 -4.1988
  696MOL0     H91867   6.354   1.241   6.970 -0.3518  1.0558 -1.2451
  696MOL0     H91868   6.372   1.380   7.233  0.9865 -4.4570 -0.3014
  696MOL0     H91869   6.508   1.345   7.133 -0.1265 -3.0661 -2.1680
  696MOL0     H91870   6.362   1.736   7.002 -1.2731  1.5419  1.0579
  696MOL0     H91871   5.962   1.074   6.795 -1.3001  1.3926 -1.3570
  696MOL0     H91872   5.732   1.024   6.805  1.5317  1.4732 -1.1624
  697MOL0     O91873   6.226   4.841   1.072  0.4159  0.2137 -0.3006
  697MOL0     C91874   6.239   4.723   1.108  0.3234  0.5965  0.1180
  697MOL0     O91875   6.186   4.617   1.038 -0.4964 -0.2820 -0.9613
  697MOL0     C91876   6.102   4.637   0.936  0.3509 -0.1746 -0.2216
  697MOL0     C91877   6.123   4.566   0.822 -0.1836 -1.1573 -0.0082
  697MOL0     C91878   6.027   4.575   0.720 -0.1454  0.0463  0.7065
  697MOL0     C91879   5.919   4.662   0.720  0.0949 -0.0524 -0.2399
  697MOL0     O91880   5.847   4.687   0.604  0.1083 -0.6720 -0.3894
  697MOL0     C91881   5.709   4.662   0.637  0.5029  0.3035 -0.9745
  697MOL0     C91882   5.644   4.603   0.519 -0.0724  0.0589 -0.7767
  697MOL0     C91883   5.520   4.512   0.531  0.0005 -0.4374 -1.2099
  697MOL0     C91884   5.489   4.467   0.392  0.3774  0.1180 -0.0670
  697MOL0     C91885   5.347   4.409   0.381 -0.5374  0.1819 -0.2957
  697MOL0     C91886   5.247   4.522   0.357  0.5045  0.1349 -0.4498
  697MOL0     C91887   5.109   4.454   0.313 -0.9799 -0.0465 -0.5887
  697MOL0     C91888   5.015   4.553   0.247 -1.0056  0.1908  0.2230
  697MOL0     N91889   4.886   4.493   0.197 -0.1900  0.5115  0.2327
  697MOL0     C91890   4.867   4.377   0.118 -0.2870  0.4677 -0.2773
  697MOL0     C91891   4.735   4.365   0.110 -0.6034  1.2965  0.3262
  697MOL0     C91892   4.669   4.250   0.047  0.1189  0.3483  0.7598
  697MOL0     C91893   4.605   4.143   0.140 -0.7075 -0.1915  0.0477
  697MOL0     C91894   4.524   4.196   0.253 -0.0461 -0.4069  0.5645
  697MOL0     C91895   4.374   4.232   0.224 -0.9041  0.1250  0.1427
  697MOL0     O91896   4.310   4.126   0.152  1.0593  0.1172  0.1925
  697MOL0     C91897   4.178   4.132   0.129  0.9624 -0.0512  0.0572
  697MOL0     C91898   4.120   4.015   0.091  0.7233  0.4405  0.6488
  697MOL0     C91899   3.979   4.008   0.088 -0.4583  1.1283 -1.1107
  697MOL0     C91900   3.895   4.113   0.120 -0.0650 -0.2913 -0.4058
  697MOL0     C91901   3.747   4.107   0.112 -0.3193  0.7172  0.0612
  697MOL0     O91902   3.684   3.986   0.103  0.7221 -0.3168  0.2172
  697MOL0     C91903   3.548   3.969   0.087 -0.3769 -0.5515  0.3444
  697MOL0     C91904   3.492   3.842   0.123 -1.0965 -0.1680  0.0500
  697MOL0     C91905   3.358   3.807   0.092  0.7109  0.5973 -1.0429
  697MOL0     C91906   3.270   3.900   0.040 -0.1953 -0.3425  0.1895
  697MOL0     O91907   3.137   3.875   0.031  0.0944 -0.0337  0.6152
  697MOL0     C91908   3.097   3.763  -0.047 -0.2254 -0.1075 -0.2445
  697MOL0     C91909   2.978   3.814  -0.136  0.5231 -1.0070  0.1432
  697MOL0     C91910   3.029   3.849  -0.275  0.2794  0.0713 -0.0288
  697MOL0     C91911   2.913   3.898  -0.372 -0.3314 -0.4837 -0.8046
  697MOL0     C91912   2.869   4.034  -0.313 -0.2125  0.0066  0.4041
  697MOL0     C91913   2.742   4.088  -0.399  0.2725  0.7238 -0.6850
  697MOL0     C91914   2.671   4.215  -0.352 -0.9556 -0.5096  0.0038
  697MOL0     C91915   2.559   4.272  -0.446 -0.9956  0.1477  0.0778
  697MOL0    Cl91916   2.434   4.143  -0.452 -0.1401 -0.1540  0.5823
  697MOL0     C91917   3.323   4.023   0.003  0.1097 -0.4936 -0.1712
  697MOL0     C91918   3.462   4.051   0.016  0.0976 -0.0319  0.3869
  697MOL0     O91919   3.692   4.217   0.098 -0.8190 -0.6965  0.0339
  697MOL0     C91920   3.957   4.239   0.149 -0.4376 -0.0347 -0.3190
  697MOL0     C91921   4.098   4.245   0.159 -0.5754 -0.1943  1.1678
  697MOL0     N91922   4.665   4.460   0.181 -0.5196 -0.3186 -0.5136
  697MOL0     N91923   4.767   4.533   0.234  0.1135  0.3858 -0.5011
  697MOL0     C91924   5.902   4.734   0.834  0.9017 -1.0608 -0.3763
  697MOL0     C91925   5.991   4.718   0.944  0.6915  0.0984  0.6857
  697MOL0     C91926   6.328   4.703   1.217 -0.3458  0.2295  0.0904
  697MOL0     C91927   6.367   4.810   1.308  0.5471  1.3203 -0.2733
  697MOL0     C91928   6.456   4.772   1.414  0.2307  0.0443  0.6958
  697MOL0     C91929   6.509   4.643   1.426 -0.9318 -0.1233 -0.5662
  697MOL0     O91930   6.607   4.616   1.525  0.1449  0.5836 -0.3736
  697MOL0     C91931   6.690   4.722   1.584  0.3446  0.0424 -0.3985
  697MOL0     C91932   6.831   4.679   1.639  0.0624 -1.1934 -0.6128
  697MOL0     C91933   6.829   4.560   1.737  0.1049  1.0317  0.3468
  697MOL0     C91934   6.864   4.578   1.879  0.5675  0.0119 -0.8233
  697MOL0     C91935   6.742   4.643   1.935  0.3321  0.0747  0.3974
  697MOL0     C91936   6.627   4.679   1.974  0.0879  0.6293 -1.2192
  697MOL0     C91937   6.461   4.547   1.349 -0.1406  0.1134 -0.6101
  697MOL0     C91938   6.380   4.571   1.242 -0.3120  0.0421 -0.7408
  697MOL0     H91939   6.220   4.520   0.809  0.6142  0.8416 -1.6828
  697MOL0     H91940   6.055   4.535   0.624 -0.4381 -0.5708  0.8763
  697MOL0     H91941   5.653   4.750   0.668 -2.1981 -1.2767 -1.0820
  697MOL0     H91942   5.695   4.579   0.707 -0.1838 -0.7067 -2.2737
  697MOL0     H91943   5.719   4.540   0.472  0.2716  0.8844 -1.3702
  697MOL0     H91944   5.628   4.679   0.441  0.5629 -0.0096 -0.9814
  697MOL0     H91945   5.448   4.573   0.586 -0.1459 -2.5032  1.0407
  697MOL0     H91946   5.537   4.423   0.592  2.3686  0.3448 -0.6199
  697MOL0     H91947   5.498   4.548   0.320  1.9104 -0.8983 -1.0668
  697MOL0     H91948   5.564   4.397   0.357  0.0038 -1.0812  1.4201
  697MOL0     H91949   5.321   4.351   0.470 -2.3003  0.0991 -0.8385
  697MOL0     H91950   5.349   4.337   0.299  1.1873 -0.7715  0.5195
  697MOL0     H91951   5.286   4.587   0.278  0.1671  3.5362  1.9877
  697MOL0     H91952   5.233   4.578   0.450 -3.4829 -1.2302 -0.0592
  697MOL0     H91953   5.125   4.367   0.249 -1.8449  0.1903 -1.1396
  697MOL0     H91954   5.068   4.419   0.408  0.9892  1.7975  1.0601
  697MOL0     H91955   5.065   4.587   0.156 -0.8647 -0.9033 -0.1311
  697MOL0     H91956   4.997   4.639   0.312  0.9817 -0.3122  1.5351
  697MOL0     H91957   4.939   4.310   0.070 -1.6561 -0.9460 -0.4371
  697MOL0     H91958   4.741   4.204  -0.022 -0.6434 -0.5761  0.5543
  697MOL0     H91959   4.583   4.290  -0.006 -0.0097 -2.1767 -1.1330
  697MOL0     H91960   4.688   4.083   0.180  1.2712  1.3559 -1.4734
  697MOL0     H91961   4.541   4.075   0.083 -1.4339 -0.4887  1.1991
  697MOL0     H91962   4.518   4.110   0.321  1.4956 -1.3493 -0.4370
  697MOL0     H91963   4.569   4.278   0.310  0.9142 -0.4233 -0.1665
  697MOL0     H91964   4.369   4.319   0.157  1.5739 -0.0474 -0.3677
  697MOL0     H91965   4.327   4.257   0.319 -1.6372 -0.0807 -0.1617
  697MOL0     H91966   4.187   3.932   0.070 -0.7401  0.0341 -3.3898
  697MOL0     H91967   3.936   3.908   0.079  1.2583 -0.0234  1.8830
  697MOL0     H91968   3.556   3.776   0.181  1.5499 -0.1626 -2.5868
  697MOL0     H91969   3.312   3.718   0.135  0.2936  1.3395  0.0932
  697MOL0     H91970   3.071   3.682   0.021 -3.1395 -0.3214 -1.4692
  697MOL0     H91971   3.180   3.729  -0.111 -0.6258 -0.4124 -0.6053
  697MOL0     H91972   2.925   3.896  -0.087 -1.1712 -1.9850  0.0364
  697MOL0     H91973   2.901   3.740  -0.156 -1.0964  1.1603 -2.4919
  697MOL0     H91974   3.072   3.759  -0.320 -3.6543 -1.7482 -0.6503
  697MOL0     H91975   3.105   3.926  -0.283 -0.5252  0.8193 -0.7974
  697MOL0     H91976   2.935   3.889  -0.479  0.3030  3.0227 -1.0885
  697MOL0     H91977   2.830   3.827  -0.363  0.2947 -1.3187 -1.4969
  697MOL0     H91978   2.951   4.103  -0.335  2.7317 -3.4507 -0.3656
  697MOL0     H91979   2.842   4.045  -0.207 -1.1494  1.1414  0.0685
  697MOL0     H91980   2.658   4.018  -0.395  0.7040  0.2321  0.0179
  697MOL0     H91981   2.775   4.100  -0.503  0.9189 -0.1858 -0.6007
  697MOL0     H91982   2.626   4.215  -0.253 -2.0487  0.7334 -0.4586
  697MOL0     H91983   2.756   4.283  -0.342 -0.6682 -0.8496 -0.1028
  697MOL0     H91984   2.603   4.277  -0.547  2.9723 -3.6682  1.3224
  697MOL0     H91985   2.532   4.370  -0.406  1.4221  0.5345  0.8846
  697MOL0     H91986   3.269   4.098  -0.054  0.7965 -0.9227 -1.4446
  697MOL0     H91987   3.498   4.147  -0.021  0.6473 -0.4190 -0.1013
  697MOL0     H91988   3.899   4.327   0.172 -0.3979  0.1004 -0.7394
  697MOL0     H91989   4.153   4.336   0.181 -3.8770  2.7148 -1.4154
  697MOL0     H91990   5.827   4.813   0.834  0.2524 -1.6655 -0.4402
  697MOL0     H91991   5.969   4.784   1.027  0.0976  4.9187 -2.8090
  697MOL0     H91992   6.336   4.914   1.306  2.0224  1.7934  0.3192
  697MOL0     H91993   6.473   4.853   1.484  2.5150  0.8405 -0.6626
  697MOL0     H91994   6.627   4.766   1.662 -1.8425 -0.7285 -1.6617
  697MOL0     H91995   6.711   4.799   1.509 -0.4885 -0.3308 -1.0330
  697MOL0     H91996   6.902   4.660   1.558  1.5621 -2.7928  1.0093
  697MOL0     H91997   6.868   4.764   1.698  2.9198 -3.5689  1.2623
  697MOL0     H91998   6.908   4.495   1.697 -1.0539 -0.2219  0.0254
  697MOL0     H91999   6.735   4.506   1.731  0.9802 -0.3977 -1.9172
  697MOL0     H92000   6.874   4.485   1.935 -1.5388  1.0536  1.4820
  697MOL0     H92001   6.956   4.637   1.892  0.2266  0.5318 -0.7442
  697MOL0     H92002   6.527   4.697   2.006  0.1377 -0.7973 -0.1744
  697MOL0     H92003   6.498   4.446   1.367  0.4155 -0.2829 -3.5275
  697MOL0     H92004   6.353   4.486   1.180 -0.9941 -0.6925  0.5185
  698MOL0     O92005   8.879   0.748   1.353  0.5809  0.1762  0.1308
  698MOL0     C92006   8.938   0.747   1.245  0.2677 -0.5889  0.1336
  698MOL0     O92007   8.877   0.748   1.120 -0.8765  0.6130  0.5016
  698MOL0     C92008   8.739   0.740   1.132  0.3410 -0.6197 -0.0329
  698MOL0     C92009   8.685   0.607   1.139  0.5339 -0.3281  0.5249
  698MOL0     C92010   8.545   0.590   1.115  0.1968 -0.2056  0.6184
  698MOL0     C92011   8.457   0.694   1.109  0.0067 -0.3170 -0.0600
  698MOL0     O92012   8.322   0.677   1.125  0.2163 -0.2651 -0.4690
  698MOL0     C92013   8.257   0.567   1.188 -0.1004 -0.2352 -0.4076
  698MOL0     C92014   8.128   0.610   1.252  1.3650 -0.0268 -0.0946
  698MOL0     C92015   8.021   0.658   1.142  0.9301 -0.4728 -0.2990
  698MOL0     C92016   7.926   0.760   1.204 -0.2685 -0.3940 -0.5603
  698MOL0     C92017   7.815   0.699   1.279  0.1296 -0.5731 -0.8347
  698MOL0     C92018   7.740   0.806   1.354 -0.3327  0.5034 -0.3832
  698MOL0     C92019   7.602   0.753   1.395  0.2186  0.0114  1.0602
  698MOL0     C92020   7.498   0.805   1.295  0.5063  0.8964 -0.1759
  698MOL0     N92021   7.353   0.791   1.323  0.2477 -0.9396  0.2026
  698MOL0     C92022   7.274   0.901   1.360  0.3950 -0.1353  0.3671
  698MOL0     C92023   7.147   0.873   1.340  0.3434 -0.6138  1.2028
  698MOL0     C92024   7.029   0.968   1.369 -0.0560 -0.2737 -0.0343
  698MOL0     C92025   6.947   0.888   1.472 -0.2404 -0.4325 -0.2940
  698MOL0     C92026   6.828   0.981   1.514  0.6713  0.1777 -0.5513
  698MOL0     C92027   6.730   0.917   1.608 -0.2664 -0.1147  0.2681
  698MOL0     O92028   6.605   0.988   1.610 -0.3031 -0.7985 -0.0069
  698MOL0     C92029   6.515   0.938   1.695 -1.0694 -0.5430 -0.2836
  698MOL0     C92030   6.458   1.019   1.796 -0.4186  0.1786  0.3260
  698MOL0     C92031   6.357   0.973   1.887 -0.1345 -0.5712  0.9940
  698MOL0     C92032   6.324   0.837   1.877 -0.2494 -0.0016 -0.0468
  698MOL0     C92033   6.220   0.781   1.958  0.9763  0.6794 -0.5440
  698MOL0     O92034   6.152   0.676   1.899  0.7751  0.4078  0.3111
  698MOL0     C92035   6.019   0.647   1.922  0.4121  0.0866 -0.6539
  698MOL0     C92036   5.925   0.754   1.921  0.1016  0.6471  0.0503
  698MOL0     C92037   5.786   0.720   1.939  0.9340 -0.0431  0.6009
  698MOL0     C92038   5.741   0.586   1.941 -1.1359  0.4477  0.6531
  698MOL0     O92039   5.604   0.574   1.942 -0.0792  0.2081 -0.5748
  698MOL0     C92040   5.549   0.440   1.929 -0.1329  0.1292 -0.2541
  698MOL0     C92041   5.403   0.457   1.895 -0.7136  0.7205  0.0408
  698MOL0     C92042   5.344   0.322   1.862 -0.6710  1.0196  0.1082
  698MOL0     C92043   5.210   0.332   1.785  0.5957  0.5030 -0.0858
  698MOL0     C92044   5.145   0.195   1.768 -0.4879 -0.9888 -0.5140
  698MOL0     C92045   5.001   0.207   1.713 -0.4283 -0.7107  0.0800
  698MOL0     C92046   4.884   0.147   1.794 -0.5336 -0.5275 -0.4489
  698MOL0     C92047   4.897   0.207   1.940  0.1395  0.7813 -0.1617
  698MOL0    Cl92048   4.724   0.243   1.977  0.3818 -0.1108  0.4657
  698MOL0     C92049   5.837   0.486   1.934 -0.1732  0.9556 -0.0986
  698MOL0     C92050   5.979   0.512   1.931 -1.1653  0.1790  0.3370
  698MOL0     O92051   6.187   0.830   2.063  0.0415 -0.4162  0.5707
  698MOL0     C92052   6.386   0.756   1.777 -0.2555 -0.0064  0.6992
  698MOL0     C92053   6.483   0.803   1.691 -0.6145 -0.1099 -0.0005
  698MOL0     N92054   7.146   0.736   1.298 -0.8032 -0.1737  0.2542
  698MOL0     N92055   7.264   0.691   1.289 -0.6573 -0.2555  1.2939
  698MOL0     C92056   8.509   0.817   1.116 -0.0880 -0.2706 -0.0666
  698MOL0     C92057   8.649   0.850   1.125  0.1113  0.4162 -0.3601
  698MOL0     C92058   9.084   0.758   1.248  0.0579 -0.2401  0.0863
  698MOL0     C92059   9.157   0.716   1.364  0.0172 -0.4609  0.3398
  698MOL0     C92060   9.295   0.744   1.380 -0.0299  0.6208 -0.0519
  698MOL0     C92061   9.350   0.824   1.285 -0.0060  0.5726  0.8351
  698MOL0     O92062   9.473   0.886   1.299  0.2286  0.7768  0.7884
  698MOL0     C92063   9.513   0.893   1.438 -0.5802 -0.0172  0.0382
  698MOL0     C92064   9.635   0.982   1.446 -0.2062  0.1222  0.6060
  698MOL0     C92065   9.742   0.953   1.339  1.1978  0.6884 -0.2567
  698MOL0     C92066   9.873   1.004   1.399  0.4256 -0.6331  0.9168
  698MOL0     C92067   9.986   0.993   1.298 -0.4212  0.4497 -0.5199
  698MOL0     C92068  10.081   0.987   1.219  0.7295  1.1984 -0.4141
  698MOL0     C92069   9.282   0.862   1.171  0.3284 -0.7877  1.3200
  698MOL0     C92070   9.146   0.833   1.155 -0.4468 -1.1943  0.1348
  698MOL0     H92071   8.753   0.523   1.143  2.1091  0.7962 -1.1410
  698MOL0     H92072   8.512   0.487   1.126  0.2621 -0.5533 -1.8756
  698MOL0     H92073   8.320   0.527   1.268 -1.1350 -1.2084 -0.0583
  698MOL0     H92074   8.246   0.496   1.106  1.8159 -2.2773  0.9910
  698MOL0     H92075   8.149   0.698   1.314 -3.0401  2.4620 -1.7067
  698MOL0     H92076   8.080   0.536   1.317 -0.3685 -2.0858 -3.4012
  698MOL0     H92077   7.972   0.567   1.106 -0.9470 -1.6186  4.3822
  698MOL0     H92078   8.067   0.708   1.056  0.4272 -1.4446 -1.1526
  698MOL0     H92079   7.988   0.821   1.270  2.3375  1.9615 -4.7435
  698MOL0     H92080   7.888   0.824   1.124  2.1132  0.0467 -1.4196
  698MOL0     H92081   7.865   0.637   1.355  0.6325  1.9902  1.0586
  698MOL0     H92082   7.754   0.630   1.219 -1.1802  0.6644 -0.9618
  698MOL0     H92083   7.719   0.892   1.289 -3.3365 -1.9342 -2.9610
  698MOL0     H92084   7.798   0.836   1.442 -0.9499  0.5886  0.0009
  698MOL0     H92085   7.595   0.646   1.420 -1.1738  0.2145  1.6395
  698MOL0     H92086   7.589   0.808   1.488 -0.4809  1.2481  0.2535
  698MOL0     H92087   7.517   0.740   1.209  0.1621  0.4719  0.0655
  698MOL0     H92088   7.509   0.913   1.281 -3.6631  1.1457 -4.2005
  698MOL0     H92089   7.296   1.003   1.392 -0.8122  0.3203 -0.1780
  698MOL0     H92090   6.980   0.999   1.276  1.9139  2.0770 -0.4012
  698MOL0     H92091   7.071   1.054   1.423 -1.0605 -0.1964  0.6481
  698MOL0     H92092   6.997   0.871   1.568 -2.3131 -1.7810  0.6275
  698MOL0     H92093   6.922   0.794   1.423  0.4848  0.6145 -2.8519
  698MOL0     H92094   6.870   1.075   1.551  2.3361 -0.5578 -0.5067
  698MOL0     H92095   6.777   1.010   1.422  0.2964 -2.1434 -1.1274
  698MOL0     H92096   6.773   0.916   1.709  0.2111 -0.3657  0.0646
  698MOL0     H92097   6.709   0.817   1.569  1.7830  0.5634 -2.8948
  698MOL0     H92098   6.488   1.124   1.794 -0.0792  0.0796 -1.7723
  698MOL0     H92099   6.320   1.037   1.966 -0.4195  1.2313 -0.5447
  698MOL0     H92100   5.967   0.854   1.916  0.1938  0.6439  0.7297
  698MOL0     H92101   5.698   0.784   1.934  0.9666  0.1218  1.8736
  698MOL0     H92102   5.556   0.388   2.026  3.9978 -0.0831 -0.5087
  698MOL0     H92103   5.602   0.393   1.846  0.2440  1.4776 -0.7985
  698MOL0     H92104   5.390   0.528   1.813  0.7154 -0.4749 -1.2754
  698MOL0     H92105   5.343   0.502   1.975 -5.4047 -1.9419 -1.6385
  698MOL0     H92106   5.331   0.262   1.953  2.5766  0.1307  0.0949
  698MOL0     H92107   5.412   0.266   1.797  0.4471  2.2773  0.1597
  698MOL0     H92108   5.149   0.396   1.850 -2.2722 -1.8828 -0.2296
  698MOL0     H92109   5.217   0.371   1.684  0.2974 -2.5434 -1.3955
  698MOL0     H92110   5.135   0.154   1.869 -2.6952  2.8247  1.0527
  698MOL0     H92111   5.209   0.130   1.707  1.4469 -0.3318  0.6941
  698MOL0     H92112   4.995   0.140   1.627 -0.5777 -2.0070  1.0870
  698MOL0     H92113   4.978   0.305   1.670 -0.7470 -0.8736 -0.1264
  698MOL0     H92114   4.790   0.159   1.739 -0.3660 -3.0226 -1.4133
  698MOL0     H92115   4.890   0.039   1.808 -0.6661 -0.6067 -0.9791
  698MOL0     H92116   4.969   0.288   1.958  4.7012 -3.0153  0.7054
  698MOL0     H92117   4.925   0.134   2.016  0.1940  1.0514  0.0814
  698MOL0     H92118   5.813   0.382   1.919  2.3567  0.3966 -0.7725
  698MOL0     H92119   6.056   0.438   1.911 -0.7452  0.6930  0.0251
  698MOL0     H92120   6.358   0.652   1.767 -1.5386  0.4104 -0.3479
  698MOL0     H92121   6.531   0.725   1.633  2.6101  1.3281  0.4914
  698MOL0     H92122   8.448   0.906   1.108  0.6159  0.2838  0.5807
  698MOL0     H92123   8.687   0.951   1.111 -0.7418  0.6082 -1.3995
  698MOL0     H92124   9.095   0.670   1.440 -0.3396 -1.7142 -0.6642
  698MOL0     H92125   9.339   0.713   1.475 -0.6406 -2.1783 -0.6008
  698MOL0     H92126   9.534   0.792   1.476 -0.2085  0.6264  1.6166
  698MOL0     H92127   9.433   0.933   1.501 -1.3866 -0.8265 -0.4401
  698MOL0     H92128   9.586   1.077   1.425  0.6738  0.3901 -0.3082
  698MOL0     H92129   9.677   0.984   1.547  0.5649 -0.7937  0.3200
  698MOL0     H92130   9.701   1.009   1.254 -1.6644  1.0276  1.2327
  698MOL0     H92131   9.760   0.847   1.322  2.4942  0.9365 -0.5871
  698MOL0     H92132   9.859   1.109   1.429  0.8265 -0.0832 -0.6965
  698MOL0     H92133   9.909   0.936   1.477  4.3739 -1.3926 -1.3156
  698MOL0     H92134  10.148   0.984   1.135 -0.7335 -0.3847 -1.5733
  698MOL0     H92135   9.343   0.912   1.096 -0.1566 -2.1521 -0.0277
  698MOL0     H92136   9.095   0.877   1.070 -0.3674  0.5398  0.9432
  699MOL0     O92137   4.340  10.342  11.015  0.1323 -0.0848 -0.4159
  699MOL0     C92138   4.402  10.375  11.114 -0.4852 -0.5740 -0.6914
  699MOL0     O92139   4.347  10.384  11.243  0.1930 -0.3058 -0.1066
  699MOL0     C92140   4.216  10.355  11.250 -0.5766  0.2307 -0.0423
  699MOL0     C92141   4.179  10.238  11.326  0.4364 -0.6424 -0.4761
  699MOL0     C92142   4.045  10.206  11.345  0.2295 -0.0951 -0.7614
  699MOL0     C92143   3.949  10.289  11.293  0.2846 -0.6873 -0.2775
  699MOL0     O92144   3.820  10.235  11.315  0.2952 -0.4336  0.0768
  699MOL0     C92145   3.708  10.322  11.302  1.6787  0.1660  0.9578
  699MOL0     C92146   3.597  10.247  11.374  0.0055  0.1266 -1.5931
  699MOL0     C92147   3.475  10.336  11.409 -0.2118  0.5324  0.0276
  699MOL0     C92148   3.365  10.269  11.490  1.0452 -0.5988 -0.5881
  699MOL0     C92149   3.244  10.354  11.514  0.6088 -0.9110 -0.4954
  699MOL0     C92150   3.168  10.308  11.646 -0.2329 -0.5303 -0.2747
  699MOL0     C92151   3.034  10.399  11.673  0.7027 -0.0409  0.8586
  699MOL0     C92152   2.956  10.329  11.778 -0.8288  0.3610  0.2700
  699MOL0     N92153   2.822  10.390  11.797 -0.1598 -0.5862  0.2503
  699MOL0     C92154   2.732  10.350  11.891  0.1038  0.4373  0.0419
  699MOL0     C92155   2.627  10.425  11.883  0.2680  0.2317 -0.0896
  699MOL0     C92156   2.514  10.438  11.978 -0.4199  0.4695  0.5976
  699MOL0     C92157   2.390  10.416  11.898  0.1337  0.5471 -0.6978
  699MOL0     C92158   2.271  10.460  11.985 -1.2544 -0.1236  0.5540
  699MOL0     C92159   2.171  10.344  12.020  0.4454 -0.1530 -0.2242
  699MOL0     O92160   2.090  10.314  11.907  0.2268 -0.1134 -0.9918
  699MOL0     C92161   1.955  10.351  11.905 -0.2001 -0.3462 -0.2865
  699MOL0     C92162   1.897  10.452  11.986 -1.2586  0.1769  0.8474
  699MOL0     C92163   1.762  10.480  11.990 -0.5569 -0.1114 -0.0914
  699MOL0     C92164   1.671  10.415  11.907 -0.3035 -0.0264 -0.1418
  699MOL0     C92165   1.532  10.457  11.912 -0.1075  0.3265  0.0711
  699MOL0     O92166   1.433  10.372  11.868  0.0217 -0.1141 -1.1772
  699MOL0     C92167   1.308  10.416  11.871 -0.0053 -0.2449 -0.0012
  699MOL0     C92168   1.232  10.379  11.763 -0.2141 -0.1675 -0.1511
  699MOL0     C92169   1.104  10.429  11.748  0.2415  0.6119 -0.2798
  699MOL0     C92170   1.034  10.497  11.845 -0.0254  0.3613 -0.4580
  699MOL0     O92171   0.904  10.544  11.836  0.5290  0.4406 -0.3998
  699MOL0     C92172   0.835  10.545  11.710 -0.6080  0.0431 -0.6515
  699MOL0     C92173   0.700  10.614  11.722 -0.1841 -1.0052 -0.2959
  699MOL0     C92174   0.610  10.592  11.597 -0.0694  0.3956  0.1015
  699MOL0     C92175   0.474  10.662  11.606  0.7591 -0.2371  0.2226
  699MOL0     C92176   0.473  10.808  11.626  0.0917  0.6338  0.4716
  699MOL0     C92177   0.335  10.872  11.658 -0.3446  1.1321 -0.4179
  699MOL0     C92178   0.249  10.874  11.537 -0.0703  0.0336 -0.4280
  699MOL0     C92179   0.099  10.878  11.577  0.7002 -1.1380  0.1732
  699MOL0    Cl92180   0.018  10.875  11.419  0.3673  0.2721 -0.2827
  699MOL0     C92181   1.097  10.514  11.971 -0.0242 -0.3751  0.0275
  699MOL0     C92182   1.229  10.472  11.983  0.0722 -0.4057  0.1941
  699MOL0     O92183   1.511  10.566  11.968  0.5908 -0.4884 -0.0278
  699MOL0     C92184   1.728  10.319  11.816  0.8266  0.4894  0.2395
  699MOL0     C92185   1.867  10.293  11.815  0.3494 -0.0478 -0.1851
  699MOL0     N92186   2.659  10.524  11.790 -0.0863 -0.3244  0.3762
  699MOL0     N92187   2.776  10.497  11.735  0.2715 -0.7955 -0.1120
  699MOL0     C92188   3.980  10.407  11.222  0.2657  0.2995  1.1357
  699MOL0     C92189   4.118  10.434  11.198  0.0964 -0.2959  0.1027
  699MOL0     C92190   4.544  10.421  11.096  0.5700  0.7970  0.1474
  699MOL0     C92191   4.608  10.489  11.197  0.2575  0.8398 -0.6587
  699MOL0     C92192   4.740  10.540  11.195  0.2763 -0.4965  0.2746
  699MOL0     C92193   4.822  10.488  11.087 -0.2866 -0.0616 -0.1289
  699MOL0     O92194   4.957  10.508  11.052  0.4556 -0.6641  0.0318
  699MOL0     C92195   5.042  10.594  11.128 -0.6847 -0.8339  0.5907
  699MOL0     C92196   5.038  10.742  11.081 -0.1700  0.2389 -0.3255
  699MOL0     C92197   5.164  10.821  11.119 -0.0355 -0.3916  0.5796
  699MOL0     C92198   5.267  10.845  11.005 -0.3480 -0.0772 -0.0101
  699MOL0     C92199   5.394  10.880  11.051 -0.1135  0.1527  0.0722
  699MOL0     C92200   5.510  10.910  11.050  1.0560 -0.0472  0.2105
  699MOL0     C92201   4.754  10.413  10.979 -0.5696 -0.2701  1.1858
  699MOL0     C92202   4.616  10.383  10.985 -0.1390  0.3005  0.4737
  699MOL0     H92203   4.255  10.175  11.370  0.4949  0.0269  0.3952
  699MOL0     H92204   4.008  10.135  11.418  0.2307  1.3478  0.7027
  699MOL0     H92205   3.683  10.334  11.196  1.2807 -2.4290  0.6942
  699MOL0     H92206   3.713  10.423  11.343 -1.6294  1.5365 -1.5525
  699MOL0     H92207   3.634  10.195  11.464 -3.3837 -1.3971 -0.9355
  699MOL0     H92208   3.569  10.165  11.307  3.5840 -0.2355 -2.9049
  699MOL0     H92209   3.439  10.362  11.310  2.9627  2.1360 -0.8542
  699MOL0     H92210   3.507  10.427  11.461 -1.2545  0.7180  0.3539
  699MOL0     H92211   3.341  10.175  11.441  1.0945 -0.1898 -1.4106
  699MOL0     H92212   3.404  10.238  11.588  0.1571  0.2395  0.0514
  699MOL0     H92213   3.175  10.349  11.429  0.2930 -1.1295 -0.2292
  699MOL0     H92214   3.280  10.457  11.523  0.9323 -0.8617 -2.0387
  699MOL0     H92215   3.229  10.326  11.734  1.4943 -1.7353 -1.1720
  699MOL0     H92216   3.149  10.200  11.640  1.2079 -0.8871  1.0582
  699MOL0     H92217   3.054  10.501  11.706 -0.1602  0.1635  0.7933
  699MOL0     H92218   2.971  10.417  11.585 -0.2498  0.5253  1.6354
  699MOL0     H92219   3.010  10.349  11.870 -0.4172  0.5107 -0.0037
  699MOL0     H92220   2.937  10.222  11.767  0.3947  0.1687 -0.0323
  699MOL0     H92221   2.737  10.263  11.956  1.2827  1.2369  1.0660
  699MOL0     H92222   2.521  10.538  12.021 -0.3243  0.4256  0.6818
  699MOL0     H92223   2.522  10.369  12.062 -0.2851  2.0404  1.9369
  699MOL0     H92224   2.387  10.308  11.885  0.8448  0.3616  0.4900
  699MOL0     H92225   2.390  10.463  11.800  2.0146 -0.0783 -1.0427
  699MOL0     H92226   2.302  10.516  12.074  2.8741 -0.3095 -0.5238
  699MOL0     H92227   2.206  10.531  11.933  0.3613  0.3965 -0.8589
  699MOL0     H92228   2.112  10.390  12.100 -1.5558 -0.0699 -1.7012
  699MOL0     H92229   2.220  10.249  12.045 -0.3729 -0.4403  0.3456
  699MOL0     H92230   1.969  10.508  12.045  1.9543 -1.6266 -1.0342
  699MOL0     H92231   1.730  10.550  12.067  3.4590  0.7929  0.9947
  699MOL0     H92232   1.268  10.323  11.677 -1.8048 -3.8171  1.3793
  699MOL0     H92233   1.046  10.405  11.659 -2.5062  0.0932  1.5438
  699MOL0     H92234   0.811  10.442  11.683 -1.7494  0.1158  0.0083
  699MOL0     H92235   0.894  10.587  11.628 -2.9131  2.3351 -1.3103
  699MOL0     H92236   0.719  10.721  11.721 -0.7582 -0.8282 -3.3289
  699MOL0     H92237   0.651  10.585  11.815  4.7404 -1.0583  2.6613
  699MOL0     H92238   0.585  10.486  11.586  3.7832 -0.8929  2.0161
  699MOL0     H92239   0.662  10.632  11.509 -0.5856 -0.7594 -0.7544
  699MOL0     H92240   0.408  10.643  11.520 -2.5784  2.7713  1.8640
  699MOL0     H92241   0.421  10.616  11.690  0.6053 -0.6023 -0.0673
  699MOL0     H92242   0.513  10.872  11.547  0.1641  1.0440  0.8308
  699MOL0     H92243   0.530  10.815  11.719  2.4111 -0.7361 -0.7575
  699MOL0     H92244   0.346  10.977  11.688  1.3437  0.0380  3.4721
  699MOL0     H92245   0.282  10.821  11.739 -2.1853  1.6622 -1.2587
  699MOL0     H92246   0.282  10.962  11.480  3.9313 -1.8937 -1.4542
  699MOL0     H92247   0.269  10.786  11.475  0.4222 -0.3009  0.1954
  699MOL0     H92248   0.081  10.975  11.625  1.5724 -0.0901 -1.5133
  699MOL0     H92249   0.069  10.798  11.645  2.2630 -2.4407 -0.6099
  699MOL0     H92250   1.043  10.566  12.049  0.9719  0.5810  0.1002
  699MOL0     H92251   1.271  10.456  12.082 -1.1711 -1.8219  0.5142
  699MOL0     H92252   1.660  10.261  11.755  0.4448  0.5433  0.6069
  699MOL0     H92253   1.903  10.224  11.741  0.6923  0.9856 -1.0079
  699MOL0     H92254   3.912  10.475  11.172  0.5514 -0.2151  0.0172
  699MOL0     H92255   4.145  10.528  11.150 -0.9927  0.8926  1.7173
  699MOL0     H92256   4.539  10.513  11.278 -1.0471  0.0570 -1.4921
  699MOL0     H92257   4.769  10.596  11.283 -0.5000 -1.6614  1.3142
  699MOL0     H92258   5.145  10.564  11.109  0.5556  2.6071  1.1627
  699MOL0     H92259   5.037  10.583  11.237  1.1325  1.6122  0.9891
  699MOL0     H92260   5.023  10.740  10.972 -0.1557  0.5219 -0.3335
  699MOL0     H92261   4.953  10.790  11.130 -0.2718 -1.1975  0.9576
  699MOL0     H92262   5.202  10.766  11.206 -0.6944 -1.6720  0.0679
  699MOL0     H92263   5.128  10.918  11.156 -0.5454 -0.1927 -0.4072
  699MOL0     H92264   5.268  10.759  10.938 -3.9643 -0.3913  0.1256
  699MOL0     H92265   5.233  10.935  10.952 -1.4184  0.8688  2.1248
  699MOL0     H92266   5.615  10.930  11.046  1.5561 -1.9818  1.9959
  699MOL0     H92267   4.818  10.384  10.896  0.7672  4.4453  0.2599
  699MOL0     H92268   4.572  10.312  10.916  2.2022  1.2373 -2.1994
  700MOL0     O92269   2.564   4.129   4.666 -0.0665 -0.2508  0.3810
  700MOL0     C92270   2.586   4.023   4.609  0.3686  0.8154  0.2655
  700MOL0     O92271   2.493   3.917   4.597 -0.4757 -0.2919  0.1598
  700MOL0     C92272   2.352   3.948   4.598 -0.5315 -0.4120 -0.6653
  700MOL0     C92273   2.288   4.072   4.630 -0.0658  0.0394  0.2690
  700MOL0     C92274   2.147   4.073   4.617  1.0855  0.2753 -0.9433
  700MOL0     C92275   2.065   3.963   4.577  0.4000 -0.3573  0.3038
  700MOL0     O92276   1.930   3.985   4.574 -0.2222  0.1776 -0.3757
  700MOL0     C92277   1.842   3.879   4.579 -0.4194 -0.5160 -0.4097
  700MOL0     C92278   1.706   3.936   4.632 -0.3719  0.1863 -0.5553
  700MOL0     C92279   1.615   3.981   4.526  0.6958  0.5081 -0.1571
  700MOL0     C92280   1.499   4.060   4.582  0.4467  0.6248 -0.3445
  700MOL0     C92281   1.408   4.120   4.476 -0.4364 -0.8174 -0.5710
  700MOL0     C92282   1.270   4.157   4.524 -0.1169 -0.0539 -0.3219
  700MOL0     C92283   1.163   4.196   4.430 -0.1953  0.5401  0.7321
  700MOL0     C92284   1.199   4.312   4.338  0.3531  0.5597  1.5612
  700MOL0     N92285   1.080   4.369   4.270  0.5745 -0.9823 -0.4276
  700MOL0     C92286   0.982   4.314   4.187  0.1114  0.7623 -0.2952
  700MOL0     C92287   0.887   4.409   4.172 -0.2936  0.0438  0.2789
  700MOL0     C92288   0.761   4.405   4.089  0.0692  0.6446  0.1196
  700MOL0     C92289   0.730   4.535   3.999 -0.1547  0.5434 -0.4083
  700MOL0     C92290   0.834   4.564   3.878 -0.3419  0.5338  0.0655
  700MOL0     C92291   0.820   4.487   3.740  0.2757 -0.3028 -0.7825
  700MOL0     O92292   0.840   4.339   3.742 -0.0919  0.2276 -0.4618
  700MOL0     C92293   0.735   4.263   3.764  0.6249 -0.0434  0.7096
  700MOL0     C92294   0.762   4.129   3.793  0.1545 -0.5223 -0.0579
  700MOL0     C92295   0.657   4.036   3.774  0.0247 -0.7856 -0.2046
  700MOL0     C92296   0.523   4.067   3.772 -0.1104 -0.8675  0.0815
  700MOL0     C92297   0.413   3.967   3.761 -0.7335 -1.4958 -0.5742
  700MOL0     O92298   0.287   4.001   3.808 -0.4279 -0.0299  0.1107
  700MOL0     C92299   0.187   3.914   3.812  0.2164  1.0343  0.1141
  700MOL0     C92300   0.066   3.952   3.757  0.8822 -0.2086  0.1228
  700MOL0     C92301  -0.044   3.863   3.747 -0.0626  0.0309 -0.9210
  700MOL0     C92302  -0.034   3.735   3.804 -0.2759 -0.5473 -0.0432
  700MOL0     O92303  -0.141   3.651   3.811 -0.6170 -0.5528  0.0286
  700MOL0     C92304  -0.226   3.632   3.701 -0.3721 -0.2031  0.0170
  700MOL0     C92305  -0.214   3.485   3.650 -0.7318  0.8374 -1.1111
  700MOL0     C92306  -0.081   3.455   3.582  0.7174  1.1756 -0.5109
  700MOL0     C92307  -0.039   3.549   3.464  0.2774  0.4738  0.0718
  700MOL0     C92308   0.062   3.486   3.368  0.5922 -1.0483 -0.0129
  700MOL0     C92309   0.191   3.422   3.447  0.1119 -0.5470 -0.1062
  700MOL0     C92310   0.289   3.360   3.351  0.1970  0.0994  0.7154
  700MOL0     C92311   0.398   3.261   3.418 -0.2817 -0.0384  0.5075
  700MOL0    Cl92312   0.475   3.316   3.569 -0.3686 -0.1272 -0.5802
  700MOL0     C92313   0.087   3.687   3.847  0.4415 -0.6517 -0.0632
  700MOL0     C92314   0.195   3.778   3.861  0.7873 -1.0049  0.5122
  700MOL0     O92315   0.452   3.858   3.720  0.0003 -0.0778 -0.4819
  700MOL0     C92316   0.497   4.202   3.782 -0.0387  0.3670 -0.8821
  700MOL0     C92317   0.596   4.300   3.770  0.2543 -0.0107 -0.5923
  700MOL0     N92318   0.931   4.524   4.242  0.5146 -0.8434 -0.1533
  700MOL0     N92319   1.035   4.495   4.310  0.2304  0.2862 -0.5009
  700MOL0     C92320   2.126   3.844   4.560 -0.8939 -0.1991  0.7052
  700MOL0     C92321   2.268   3.838   4.561 -0.6824 -0.1215 -0.2848
  700MOL0     C92322   2.717   3.997   4.550 -0.4719  0.1045 -0.3553
  700MOL0     C92323   2.753   3.869   4.492  0.2035 -0.4381 -0.2506
  700MOL0     C92324   2.877   3.840   4.446  0.0000  0.0110 -0.3683
  700MOL0     C92325   2.972   3.944   4.453 -0.0755  0.3840 -0.7942
  700MOL0     O92326   3.093   3.926   4.401  0.6342 -0.0919 -0.3779
  700MOL0     C92327   3.122   3.807   4.318 -1.0767 -0.4134 -0.3014
  700MOL0     C92328   3.270   3.802   4.274 -0.1523 -0.5641 -0.0723
  700MOL0     C92329   3.373   3.775   4.389 -0.1549 -0.3107 -0.1225
  700MOL0     C92330   3.519   3.777   4.339  0.4538 -0.1703 -0.0380
  700MOL0     C92331   3.562   3.644   4.294 -0.6166  0.3112  0.3511
  700MOL0     C92332   3.603   3.544   4.242  0.7563 -0.5396  0.6661
  700MOL0     C92333   2.944   4.070   4.504 -0.2287  0.3454  0.5747
  700MOL0     C92334   2.818   4.090   4.557  1.0590  0.7885 -0.0191
  700MOL0     H92335   2.342   4.162   4.657  0.2159 -0.0220 -0.0775
  700MOL0     H92336   2.088   4.159   4.648 -0.0765 -1.0642  0.7876
  700MOL0     H92337   1.872   3.804   4.653 -1.3255 -0.0289  0.4740
  700MOL0     H92338   1.830   3.830   4.482  2.5488 -1.5648 -0.3419
  700MOL0     H92339   1.721   4.012   4.709 -0.5674 -2.3162  2.1270
  700MOL0     H92340   1.656   3.852   4.681  1.6333 -0.8485 -0.2143
  700MOL0     H92341   1.601   3.899   4.454  2.2098  1.3626 -1.5063
  700MOL0     H92342   1.678   4.052   4.473  0.4907  2.3600  1.9548
  700MOL0     H92343   1.434   3.990   4.636  2.2494  0.4513  1.7421
  700MOL0     H92344   1.537   4.150   4.631  0.3021  0.8240 -0.5907
  700MOL0     H92345   1.391   4.047   4.396 -1.6814  0.8656 -1.9488
  700MOL0     H92346   1.464   4.199   4.423 -0.5433  0.5814  1.2971
  700MOL0     H92347   1.290   4.233   4.600  0.2330  0.2125 -0.6782
  700MOL0     H92348   1.226   4.071   4.575 -1.0234  0.3863 -0.3469
  700MOL0     H92349   1.126   4.117   4.364 -1.7620  3.7672 -2.6255
  700MOL0     H92350   1.081   4.233   4.493 -1.8209 -1.2921 -0.1726
  700MOL0     H92351   1.274   4.269   4.272 -0.4032  0.6907  0.5948
  700MOL0     H92352   1.252   4.393   4.389  1.0669 -0.1241  1.9158
  700MOL0     H92353   0.983   4.212   4.151 -0.2105  0.4561  0.5234
  700MOL0     H92354   0.680   4.407   4.163 -1.6187 -1.7599 -1.5297
  700MOL0     H92355   0.749   4.316   4.027 -2.6021 -0.6975  2.3289
  700MOL0     H92356   0.738   4.622   4.065  0.7817  0.5845 -0.5559
  700MOL0     H92357   0.631   4.524   3.955 -0.3752 -1.7536  0.5329
  700MOL0     H92358   0.842   4.672   3.868 -1.1496  0.6282  0.3802
  700MOL0     H92359   0.935   4.551   3.917 -0.1579 -0.4359 -0.6948
  700MOL0     H92360   0.901   4.522   3.675  1.4132 -1.3790  0.0209
  700MOL0     H92361   0.729   4.523   3.691 -0.7081 -1.1943  0.3378
  700MOL0     H92362   0.868   4.104   3.799  0.4294  0.6484  0.2073
  700MOL0     H92363   0.674   3.929   3.776 -0.0421 -0.8674 -2.0138
  700MOL0     H92364   0.052   4.047   3.706 -0.2224  0.1826  1.1042
  700MOL0     H92365  -0.141   3.883   3.704 -0.7698 -0.4189  0.4190
  700MOL0     H92366  -0.205   3.705   3.622 -0.0520  1.5972  1.6694
  700MOL0     H92367  -0.330   3.641   3.732 -0.2584  0.1247  0.3172
  700MOL0     H92368  -0.290   3.461   3.575 -3.4068  0.2297  1.5705
  700MOL0     H92369  -0.228   3.422   3.738  1.2430  3.4578  1.2605
  700MOL0     H92370  -0.083   3.352   3.545  0.3027  0.2616  1.9037
  700MOL0     H92371  -0.005   3.440   3.659 -0.5193 -2.3710  0.2125
  700MOL0     H92372  -0.136   3.557   3.416 -0.8250  0.2231  2.1363
  700MOL0     H92373   0.000   3.644   3.501 -1.9005  0.9694  1.2713
  700MOL0     H92374   0.101   3.566   3.305 -0.8842  1.2516  1.8686
  700MOL0     H92375   0.023   3.405   3.305  0.0848  0.4218 -1.6778
  700MOL0     H92376   0.158   3.341   3.513  1.8150 -1.1344  0.0470
  700MOL0     H92377   0.243   3.504   3.498 -0.1921  1.5615 -2.8896
  700MOL0     H92378   0.235   3.303   3.274  1.0123 -1.2612  1.1213
  700MOL0     H92379   0.343   3.434   3.291 -0.6859  1.8964  2.0470
  700MOL0     H92380   0.477   3.247   3.343 -0.4813 -0.0456  0.2982
  700MOL0     H92381   0.359   3.162   3.443  1.5343 -0.7470  0.6519
  700MOL0     H92382   0.104   3.589   3.890  1.2950 -0.4789  0.0071
  700MOL0     H92383   0.288   3.732   3.891  0.1754 -2.0245  0.8723
  700MOL0     H92384   0.399   4.247   3.786 -0.0901  0.1990  0.0248
  700MOL0     H92385   0.577   4.406   3.755  3.4801  0.6733 -0.6143
  700MOL0     H92386   2.069   3.757   4.529 -0.6550 -0.4463  0.9408
  700MOL0     H92387   2.321   3.746   4.535  2.5893  1.3176  0.7306
  700MOL0     H92388   2.682   3.789   4.507 -0.5649  0.7311  3.0222
  700MOL0     H92389   2.905   3.737   4.428  1.1570  0.5265 -1.6931
  700MOL0     H92390   3.064   3.810   4.226 -1.3022  0.7525 -0.1336
  700MOL0     H92391   3.117   3.716   4.378 -0.7139  0.3344  0.8975
  700MOL0     H92392   3.282   3.733   4.190  1.5471 -0.8229  0.3431
  700MOL0     H92393   3.295   3.900   4.231 -0.1964 -0.3137  0.4629
  700MOL0     H92394   3.347   3.681   4.438  0.1356 -0.6554 -0.6115
  700MOL0     H92395   3.365   3.858   4.460  3.8165  0.7457 -0.6611
  700MOL0     H92396   3.543   3.856   4.268  4.3739  0.9440  2.2225
  700MOL0     H92397   3.586   3.815   4.417  2.4250  4.4711 -3.4963
  700MOL0     H92398   3.660   3.462   4.203  1.2369  0.5030 -0.9084
  700MOL0     H92399   3.012   4.154   4.494  0.7651 -0.6749 -1.7923
  700MOL0     H92400   2.793   4.186   4.601 -0.0626  0.5953 -0.1885
  701MOL0     O92401   2.779  10.479   7.959 -0.1187 -0.3931 -0.0555
  701MOL0     C92402   2.807  10.359   7.943  0.1136  0.3640 -0.8795
  701MOL0     O92403   2.929  10.296   7.966 -0.1376 -0.0798  0.2370
  701MOL0     C92404   3.048  10.363   8.000  0.3479 -0.1128 -0.1804
  701MOL0     C92405   3.174  10.329   7.947  0.8381  0.1331 -1.0829
  701MOL0     C92406   3.290  10.392   7.985 -0.2976  0.0192 -0.5312
  701MOL0     C92407   3.292  10.505   8.063  0.2668  0.6594 -0.1154
  701MOL0     O92408   3.407  10.569   8.086 -0.2777 -0.2112  0.0229
  701MOL0     C92409   3.434  10.596   8.227  0.5603  0.0835  0.5586
  701MOL0     C92410   3.548  10.702   8.223 -0.9846 -0.0617 -0.0110
  701MOL0     C92411   3.594  10.762   8.354 -0.2067 -0.1149 -0.0508
  701MOL0     C92412   3.633  10.655   8.447 -0.3108 -0.2232 -0.2050
  701MOL0     C92413   3.734  10.718   8.550  0.0008 -0.1742 -0.3865
  701MOL0     C92414   3.785  10.625   8.651  0.1943  0.3727 -1.5070
  701MOL0     C92415   3.685  10.596   8.763 -0.1949 -0.0101  0.3620
  701MOL0     C92416   3.752  10.507   8.866 -0.2912  0.6314  0.1723
  701MOL0     N92417   3.649  10.455   8.958  0.1534  0.6570  0.0437
  701MOL0     C92418   3.643  10.486   9.089  0.3345  0.3754 -0.9877
  701MOL0     C92419   3.529  10.435   9.142 -0.2804 -0.1947 -0.5066
  701MOL0     C92420   3.482  10.462   9.282  0.7680 -0.7760  0.2101
  701MOL0     C92421   3.333  10.430   9.312 -0.0823 -0.6878  0.3303
  701MOL0     C92422   3.316  10.401   9.452 -0.6796  0.1593 -0.6669
  701MOL0     C92423   3.169  10.338   9.457 -0.3909  0.0429  1.1751
  701MOL0     O92424   3.130  10.333   9.597  0.0728 -0.4298 -0.4112
  701MOL0     C92425   3.014  10.275   9.633 -0.1751 -0.2361  0.2006
  701MOL0     C92426   2.914  10.221   9.553  0.4024  0.4552  0.4236
  701MOL0     C92427   2.800  10.166   9.618  0.0796  1.2077 -0.2310
  701MOL0     C92428   2.802  10.141   9.756 -0.5533  0.1041 -0.0459
  701MOL0     C92429   2.688  10.078   9.827 -0.0632  0.0625  1.0512
  701MOL0     O92430   2.586  10.051   9.746  1.0782 -0.1112 -0.1671
  701MOL0     C92431   2.478   9.980   9.799  0.2958 -0.6172 -0.4866
  701MOL0     C92432   2.354  10.034   9.779  0.5266  0.3069 -0.4164
  701MOL0     C92433   2.252   9.972   9.843  0.1858 -0.4313  1.4751
  701MOL0     C92434   2.261   9.849   9.906  0.4506 -0.6551 -0.0957
  701MOL0     O92435   2.145   9.792   9.959  1.1973 -0.0669  1.0930
  701MOL0     C92436   2.143   9.674  10.044 -0.4739  0.7827 -0.1070
  701MOL0     C92437   2.004   9.640  10.082 -0.3000 -0.0256 -1.0036
  701MOL0     C92438   1.911   9.599   9.969 -0.0663 -0.9857  0.1351
  701MOL0     C92439   1.782   9.555  10.023 -0.1550  0.3511  0.2980
  701MOL0     C92440   1.674   9.571   9.907  0.3492 -0.5896 -0.0581
  701MOL0     C92441   1.542   9.503   9.962  0.4774 -0.5039  0.2318
  701MOL0     C92442   1.422   9.553   9.872  0.2407  0.5188  0.4654
  701MOL0     C92443   1.274   9.514   9.920 -0.3051  0.3441  0.1645
  701MOL0    Cl92444   1.243   9.545  10.090  0.4680 -0.0117  0.7392
  701MOL0     C92445   2.387   9.790   9.916  0.1765  0.3469 -0.5611
  701MOL0     C92446   2.497   9.854   9.863 -0.5281 -0.4021 -0.3280
  701MOL0     O92447   2.703  10.050   9.939  1.0565 -0.2307 -0.8771
  701MOL0     C92448   2.904  10.199   9.828  1.0580 -0.4693  0.9315
  701MOL0     C92449   3.016  10.261   9.771 -0.0494 -0.7414 -0.0721
  701MOL0     N92450   3.471  10.367   9.033  0.1749  0.7194 -0.1501
  701MOL0     N92451   3.544  10.379   8.927  0.0438  0.5673  0.3026
  701MOL0     C92452   3.168  10.539   8.121 -0.8382  0.6486  0.3737
  701MOL0     C92453   3.046  10.467   8.085 -0.1222 -0.6980 -0.4805
  701MOL0     C92454   2.684  10.283   7.939  0.3350  0.0202  0.6161
  701MOL0     C92455   2.685  10.145   7.895  1.1493 -0.8066  1.2073
  701MOL0     C92456   2.569  10.068   7.876  0.5526 -0.1649 -0.9351
  701MOL0     C92457   2.443  10.128   7.912 -0.0215  0.7616 -0.8402
  701MOL0     O92458   2.345  10.040   7.927  0.6890 -0.3343  0.1936
  701MOL0     C92459   2.219  10.081   7.866  0.3107 -0.4343 -0.0702
  701MOL0     C92460   2.098  10.094   7.957 -0.1940 -0.0526 -0.4390
  701MOL0     C92461   2.028   9.955   8.005  0.5751 -0.5079  0.6248
  701MOL0     C92462   1.971   9.858   7.898 -0.1062 -0.4406  1.0648
  701MOL0     C92463   1.908   9.933   7.789  0.3298  0.4353 -0.7927
  701MOL0     C92464   1.867  10.008   7.704  0.8660  0.5879  0.1775
  701MOL0     C92465   2.435  10.256   7.959  0.6962 -0.0061  0.2678
  701MOL0     C92466   2.551  10.332   7.970 -0.9121 -0.9173 -0.4623
  701MOL0     H92467   3.155  10.252   7.873  1.0909 -1.2251  0.2259
  701MOL0     H92468   3.387  10.366   7.944 -0.0340 -2.4453  1.3789
  701MOL0     H92469   3.472  10.499   8.259  1.9314  0.3213 -0.2637
  701MOL0     H92470   3.348  10.638   8.281  1.1812 -0.6689  2.2138
  701MOL0     H92471   3.524  10.787   8.160  0.9275  1.1379  0.7844
  701MOL0     H92472   3.637  10.650   8.185 -1.0642  0.7354 -1.3303
  701MOL0     H92473   3.511  10.817   8.399 -1.1220  0.7237 -2.5672
  701MOL0     H92474   3.672  10.833   8.328  0.2514 -0.8186 -0.6636
  701MOL0     H92475   3.537  10.624   8.490 -1.0560  1.7363 -0.3606
  701MOL0     H92476   3.683  10.575   8.392  2.1776  2.4530 -2.1586
  701MOL0     H92477   3.696  10.807   8.601  0.6121  0.2232 -0.6048
  701MOL0     H92478   3.821  10.745   8.489  0.7208  0.1179  0.7410
  701MOL0     H92479   3.866  10.666   8.711 -0.5472 -1.7749  1.1572
  701MOL0     H92480   3.818  10.542   8.587 -0.4384 -1.0207 -0.0967
  701MOL0     H92481   3.660  10.685   8.822 -1.5196 -0.2084  0.1436
  701MOL0     H92482   3.587  10.558   8.730  1.8514 -4.3802 -1.4717
  701MOL0     H92483   3.820  10.568   8.926  0.5097  0.0562 -0.1243
  701MOL0     H92484   3.810  10.426   8.821  0.9177  1.0913  0.8429
  701MOL0     H92485   3.722  10.543   9.138  1.1437 -1.9164  0.5427
  701MOL0     H92486   3.498  10.570   9.291 -0.0937 -0.7024  0.9395
  701MOL0     H92487   3.558  10.417   9.347  1.6911  1.1614  0.5533
  701MOL0     H92488   3.295  10.348   9.250  0.9980  0.1737 -1.5602
  701MOL0     H92489   3.267  10.515   9.299  0.0310 -0.4575  1.2169
  701MOL0     H92490   3.386  10.328   9.494 -2.0489  0.4433  2.3679
  701MOL0     H92491   3.326  10.490   9.514 -0.1838 -1.1613  1.2535
  701MOL0     H92492   3.170  10.239   9.412 -0.1581  1.1351 -1.4101
  701MOL0     H92493   3.102  10.411   9.409 -0.8948  0.6754  2.7770
  701MOL0     H92494   2.905  10.227   9.445 -0.0399 -0.8097  0.3761
  701MOL0     H92495   2.713  10.135   9.560  1.8193  1.1485 -2.9816
  701MOL0     H92496   2.349  10.130   9.729  1.9064  0.8525  0.4165
  701MOL0     H92497   2.154  10.018   9.831  1.3755  1.8372 -0.2402
  701MOL0     H92498   2.190   9.702  10.139 -1.6917 -1.2637  1.1817
  701MOL0     H92499   2.201   9.600   9.988  1.5269  0.7962  1.7951
  701MOL0     H92500   1.955   9.731  10.115  0.8589  0.1731  0.2332
  701MOL0     H92501   1.996   9.559  10.155  0.3519  1.1126  0.3613
  701MOL0     H92502   1.962   9.530   9.901  3.5943  0.6610  0.9556
  701MOL0     H92503   1.887   9.680   9.900  1.1348 -0.7500 -0.0147
  701MOL0     H92504   1.787   9.452  10.060 -0.9217 -0.2084 -1.0516
  701MOL0     H92505   1.766   9.620  10.109  1.6787 -0.2514  1.1381
  701MOL0     H92506   1.711   9.524   9.815  0.2035  0.0260 -0.4338
  701MOL0     H92507   1.667   9.675   9.874 -1.4969 -0.9859 -0.9960
  701MOL0     H92508   1.519   9.553  10.057  2.6229 -1.0107  1.0703
  701MOL0     H92509   1.547   9.396   9.986 -0.1010 -0.7025 -0.5273
  701MOL0     H92510   1.429   9.662   9.876  1.1585  0.4589  0.7686
  701MOL0     H92511   1.439   9.514   9.771 -3.0712 -1.3280  0.4807
  701MOL0     H92512   1.256   9.407   9.908  0.2401  0.1992  0.5725
  701MOL0     H92513   1.205   9.560   9.849 -2.3623 -3.5239 -0.6177
  701MOL0     H92514   2.385   9.690   9.960 -2.4210  0.5982  0.0734
  701MOL0     H92515   2.596   9.815   9.883 -1.6568 -2.0343  2.5522
  701MOL0     H92516   2.890  10.199   9.936 -3.4883  0.8736  0.5539
  701MOL0     H92517   3.091  10.303   9.837  0.9185 -0.4241 -1.3390
  701MOL0     H92518   3.160  10.636   8.169 -0.4275  0.5077  0.7287
  701MOL0     H92519   2.958  10.495   8.143  2.0592  3.7281  1.2355
  701MOL0     H92520   2.778  10.093   7.879 -0.1424 -1.9654 -4.3236
  701MOL0     H92521   2.585   9.961   7.873 -1.2759 -0.4492 -1.6607
  701MOL0     H92522   2.195  10.001   7.795 -0.2123  1.6296 -2.3356
  701MOL0     H92523   2.219  10.173   7.808 -1.2712 -0.1950  0.2750
  701MOL0     H92524   2.128  10.142   8.051  1.3159 -2.3903  0.3506
  701MOL0     H92525   2.020  10.152   7.906  0.1488 -1.1805 -2.3347
  701MOL0     H92526   1.949   9.992   8.071  0.0175 -1.2820  0.4116
  701MOL0     H92527   2.101   9.905   8.070  0.8428  0.1871  0.8667
  701MOL0     H92528   2.047   9.791   7.857 -2.2450 -2.2246 -0.2668
  701MOL0     H92529   1.881   9.807   7.935 -1.5281  0.1700 -1.3117
  701MOL0     H92530   1.824  10.073   7.631  2.1304 -0.6483 -1.7685
  701MOL0     H92531   2.346  10.296   8.005  2.7785  1.2448  3.5874
  701MOL0     H92532   2.533  10.428   8.016  1.5550 -0.4165 -0.4064
  702MOL0     O92533   7.343  10.366   2.197 -0.3290 -0.1508  0.8924
  702MOL0     C92534   7.376  10.458   2.121  0.5405  0.0550  0.2672
  702MOL0     O92535   7.291  10.535   2.049  0.9273 -0.4423 -0.4882
  702MOL0     C92536   7.156  10.529   2.076 -0.7923  0.6961  0.1164
  702MOL0     C92537   7.069  10.535   1.973 -0.8425 -0.3993  0.7657
  702MOL0     C92538   6.935  10.522   1.993 -0.1890  0.6669  0.1304
  702MOL0     C92539   6.888  10.497   2.125  0.3396  0.3500 -0.5608
  702MOL0     O92540   6.751  10.468   2.168 -1.2170  0.3052 -0.2032
  702MOL0     C92541   6.660  10.552   2.096  0.6973 -0.0305 -0.4447
  702MOL0     C92542   6.528  10.575   2.169 -1.1432 -0.3733 -0.4234
  702MOL0     C92543   6.548  10.657   2.297 -0.1564  0.6782 -0.1558
  702MOL0     C92544   6.409  10.692   2.356  0.4664 -0.5869 -1.0484
  702MOL0     C92545   6.376  10.850   2.341  0.5286 -0.3035  0.3655
  702MOL0     C92546   6.232  10.899   2.372 -0.2115  0.1168 -0.1760
  702MOL0     C92547   6.186  10.901   2.520 -0.2318  0.2925  1.1449
  702MOL0     C92548   6.039  10.926   2.556 -0.2363 -0.1113  0.2208
  702MOL0     N92549   6.005  11.060   2.538  0.0061 -0.0682 -0.2108
  702MOL0     C92550   5.938  11.130   2.630 -0.0794 -0.4552  0.0821
  702MOL0     C92551   5.938  11.260   2.593  0.0894  0.0526  0.4468
  702MOL0     C92552   5.907  11.379   2.680  0.2857  0.2986 -0.3982
  702MOL0     C92553   5.751  11.393   2.709  0.3108 -0.7597  0.8839
  702MOL0     C92554   5.648  11.395   2.593 -0.8159  0.0748  0.2012
  702MOL0     C92555   5.508  11.407   2.647  0.5182 -0.0341  0.1550
  702MOL0     O92556   5.450  11.278   2.675  0.3296 -0.2103 -0.3875
  702MOL0     C92557   5.320  11.284   2.732 -0.2401  0.7027 -0.4201
  702MOL0     C92558   5.231  11.392   2.741  0.1906  1.4402 -0.0893
  702MOL0     C92559   5.104  11.385   2.799 -0.2377  0.1941 -0.0288
  702MOL0     C92560   5.060  11.269   2.865  0.4650 -0.5613  0.7758
  702MOL0     C92561   4.931  11.260   2.932  0.9715 -1.2763 -0.2038
  702MOL0     O92562   4.904  11.142   2.989 -0.1676 -0.6698  0.7682
  702MOL0     C92563   4.794  11.113   3.065  0.2201  0.3356  0.2142
  702MOL0     C92564   4.767  10.976   3.082  0.3386 -0.8014  0.2589
  702MOL0     C92565   4.656  10.934   3.153 -0.4116  0.0009  0.9839
  702MOL0     C92566   4.568  11.025   3.199  0.0634  0.5393  0.2733
  702MOL0     O92567   4.449  10.989   3.256 -0.2983 -0.6162 -0.4344
  702MOL0     C92568   4.370  10.885   3.197 -0.2611  0.4678 -0.1622
  702MOL0     C92569   4.233  10.915   3.264 -0.5429 -0.0150  0.3973
  702MOL0     C92570   4.118  10.824   3.221 -0.0465  0.2823  0.4770
  702MOL0     C92571   4.156  10.674   3.212 -0.7535  0.4783  0.0668
  702MOL0     C92572   4.045  10.570   3.209  0.6681 -0.3253 -0.4868
  702MOL0     C92573   3.941  10.605   3.098 -0.4005  0.5331 -0.7412
  702MOL0     C92574   3.820  10.513   3.098 -0.0128 -0.1755 -0.5520
  702MOL0     C92575   3.730  10.553   3.217  0.0519  0.4967  0.8628
  702MOL0    Cl92576   3.608  10.423   3.247 -0.1000 -0.1439 -0.6636
  702MOL0     C92577   4.587  11.162   3.190  0.4879  0.5337 -0.0619
  702MOL0     C92578   4.703  11.208   3.120 -0.2513 -0.4263 -0.3289
  702MOL0     O92579   4.861  11.362   2.949 -0.1533 -0.1682  0.4962
  702MOL0     C92580   5.149  11.164   2.865 -0.4375  0.0289 -0.1460
  702MOL0     C92581   5.275  11.169   2.801  0.8671  0.5023  0.3692
  702MOL0     N92582   5.995  11.271   2.467  1.0823 -0.9901  0.9218
  702MOL0     N92583   6.032  11.152   2.435 -0.3005  0.1041  0.7849
  702MOL0     C92584   6.977  10.482   2.231 -0.0006 -0.8278  1.1092
  702MOL0     C92585   7.105  10.512   2.203  0.5521  0.4091 -0.2631
  702MOL0     C92586   7.518  10.485   2.106 -0.1886  1.4416 -0.0377
  702MOL0     C92587   7.626  10.414   2.174  0.6523 -0.3083 -0.4390
  702MOL0     C92588   7.752  10.446   2.148 -0.2551 -0.1705  0.1134
  702MOL0     C92589   7.795  10.540   2.058 -0.8273 -0.0170  0.7938
  702MOL0     O92590   7.927  10.539   2.034  0.0836 -0.7142 -0.4973
  702MOL0     C92591   7.979  10.645   1.952  0.3970  0.4860  0.6451
  702MOL0     C92592   8.126  10.607   1.923  0.3624 -0.5543 -1.0084
  702MOL0     C92593   8.208  10.590   2.048 -0.3343 -0.1142  0.1088
  702MOL0     C92594   8.205  10.716   2.132  0.3333 -0.5145  0.1415
  702MOL0     C92595   8.272  10.825   2.064 -0.1827 -0.2687  0.3928
  702MOL0     C92596   8.330  10.905   2.003 -0.2361  0.0886  0.3502
  702MOL0     C92597   7.700  10.612   1.987  0.6969 -0.7771  0.2251
  702MOL0     C92598   7.559  10.584   2.011 -0.0426  0.5310  0.6773
  702MOL0     H92599   7.112  10.542   1.873 -1.5744 -0.0584  0.4664
  702MOL0     H92600   6.868  10.508   1.909  2.6636  0.4276 -2.2682
  702MOL0     H92601   6.640  10.497   2.004  0.3441  0.2075 -0.5072
  702MOL0     H92602   6.707  10.644   2.061 -0.7948  1.3125  0.9213
  702MOL0     H92603   6.480  10.482   2.201  0.1177 -0.4537  1.3593
  702MOL0     H92604   6.466  10.634   2.101  0.3942  0.4223 -1.1919
  702MOL0     H92605   6.614  10.742   2.274  2.7945 -1.2278  0.7599
  702MOL0     H92606   6.592  10.583   2.364 -0.4844  2.4101  2.0725
  702MOL0     H92607   6.326  10.640   2.308  0.5833 -0.1796 -1.6945
  702MOL0     H92608   6.404  10.670   2.464  1.2155  0.9419 -0.6767
  702MOL0     H92609   6.399  10.879   2.238  2.1667  0.9312  1.0354
  702MOL0     H92610   6.452  10.904   2.398  0.7174 -0.2916  0.1061
  702MOL0     H92611   6.154  10.839   2.323 -1.7627  1.4671  0.5534
  702MOL0     H92612   6.217  10.998   2.328 -0.5188  0.5805  0.9400
  702MOL0     H92613   6.218  10.810   2.572  0.1304 -0.7973 -0.8805
  702MOL0     H92614   6.239  10.979   2.575 -1.7986 -0.2889  3.6730
  702MOL0     H92615   6.008  10.907   2.659 -0.0712  0.5057  0.3892
  702MOL0     H92616   5.978  10.865   2.489  0.4653  0.0919 -0.6179
  702MOL0     H92617   5.910  11.092   2.728  1.2904 -1.4760  0.1119
  702MOL0     H92618   5.943  11.467   2.626 -0.2858  0.9613  0.2716
  702MOL0     H92619   5.969  11.361   2.768 -1.5279 -0.9248  0.6926
  702MOL0     H92620   5.736  11.485   2.766 -3.9571 -0.5783 -0.2086
  702MOL0     H92621   5.734  11.305   2.772  2.7849  0.0862  2.8971
  702MOL0     H92622   5.664  11.491   2.543 -2.6752  0.4764  0.3090
  702MOL0     H92623   5.659  11.309   2.526  1.1900  1.6039 -1.5898
  702MOL0     H92624   5.450  11.451   2.566 -1.1733  1.9265  2.2610
  702MOL0     H92625   5.502  11.475   2.733 -2.1808  0.3637 -0.2574
  702MOL0     H92626   5.256  11.489   2.698 -0.1616  0.6497 -2.2093
  702MOL0     H92627   5.039  11.471   2.797 -0.0974  0.3091  0.3277
  702MOL0     H92628   4.835  10.914   3.024  0.6436 -1.0473  0.8744
  702MOL0     H92629   4.647  10.826   3.164 -2.2789  0.2714  2.7795
  702MOL0     H92630   4.401  10.786   3.230 -1.2469 -0.5424 -2.0979
  702MOL0     H92631   4.341  10.892   3.092  1.0477  0.7460 -0.5276
  702MOL0     H92632   4.206  11.019   3.242 -1.1949 -0.1998  0.3068
  702MOL0     H92633   4.242  10.896   3.371  1.9197 -1.6000 -0.0108
  702MOL0     H92634   4.082  10.862   3.125 -0.0914 -0.4979  0.1864
  702MOL0     H92635   4.033  10.841   3.288  0.6643  1.3486  1.1506
  702MOL0     H92636   4.224  10.653   3.129 -1.5410  1.6424 -0.8984
  702MOL0     H92637   4.207  10.649   3.306  1.1426  0.8533 -0.8024
  702MOL0     H92638   3.991  10.583   3.304  0.4238  0.7480 -0.7640
  702MOL0     H92639   4.081  10.468   3.192 -1.0153 -1.4344  1.9595
  702MOL0     H92640   3.992  10.581   3.004  0.5402 -1.8914  0.2962
  702MOL0     H92641   3.904  10.707   3.112 -2.4610  0.1049 -2.4937
  702MOL0     H92642   3.756  10.525   3.010  1.4909  0.4320 -1.5920
  702MOL0     H92643   3.845  10.406   3.100  0.6188 -0.0867  2.6158
  702MOL0     H92644   3.678  10.650   3.218 -0.2716  0.3249  1.3556
  702MOL0     H92645   3.793  10.550   3.307  0.2320 -1.7934  0.7159
  702MOL0     H92646   4.509  11.227   3.226  1.4191 -0.2491  3.7809
  702MOL0     H92647   4.713  11.315   3.108 -0.3470 -0.2538  0.9658
  702MOL0     H92648   5.117  11.071   2.912  1.3469 -1.3112 -1.4626
  702MOL0     H92649   5.331  11.077   2.793  0.6853  0.5105 -1.3119
  702MOL0     H92650   6.944  10.477   2.334  0.4449 -1.5768  1.2310
  702MOL0     H92651   7.167  10.504   2.292 -2.0054  0.4703  1.6535
  702MOL0     H92652   7.603  10.332   2.241  1.8440 -0.6749 -0.4554
  702MOL0     H92653   7.829  10.383   2.190 -1.4539 -2.1063 -0.4879
  702MOL0     H92654   7.963  10.740   2.004 -0.3951  0.1666  1.0009
  702MOL0     H92655   7.930  10.647   1.854 -2.5290 -3.4225  1.7658
  702MOL0     H92656   8.125  10.513   1.868 -1.0565 -1.3665  0.3243
  702MOL0     H92657   8.169  10.678   1.852 -0.9937  0.7895 -0.5600
  702MOL0     H92658   8.315  10.575   2.032  0.5626  2.3502  2.8651
  702MOL0     H92659   8.168  10.516   2.118  0.2466  0.2619  0.8462
  702MOL0     H92660   8.106  10.749   2.163  0.9247  2.2764 -0.7156
  702MOL0     H92661   8.258  10.706   2.228  0.2385 -1.4741  0.1115
  702MOL0     H92662   8.380  10.981   1.947 -0.4927  0.4386  0.5874
  702MOL0     H92663   7.735  10.689   1.918 -2.2699  4.0516  3.4632
  702MOL0     H92664   7.487  10.640   1.952  1.0954  0.6745 -0.6289
  703MOL0     O92665   0.656   8.823   8.456 -0.4681 -0.5557  0.9992
  703MOL0     C92666   0.663   8.744   8.366 -0.5000  0.1267 -0.6514
  703MOL0     O92667   0.553   8.700   8.292 -0.2459 -0.0672  0.3307
  703MOL0     C92668   0.421   8.718   8.307 -0.5206  0.8467 -0.0863
  703MOL0     C92669   0.340   8.665   8.201 -0.1478 -0.1305  0.1958
  703MOL0     C92670   0.201   8.692   8.203  0.0081 -0.2080 -0.3663
  703MOL0     C92671   0.139   8.774   8.299  0.0397 -0.8794 -0.4184
  703MOL0     O92672   0.009   8.809   8.300  0.2058 -0.4252 -0.7664
  703MOL0     C92673  -0.076   8.743   8.207  0.9547  1.0109  0.3499
  703MOL0     C92674  -0.220   8.763   8.246  0.6379 -0.4780 -0.3836
  703MOL0     C92675  -0.275   8.907   8.208 -0.2595 -0.0296  0.4058
  703MOL0     C92676  -0.399   8.948   8.302  0.4320  0.3563  0.1444
  703MOL0     C92677  -0.428   9.102   8.305 -0.0085  0.2238  0.1213
  703MOL0     C92678  -0.315   9.198   8.314 -0.6775  0.0043  0.2418
  703MOL0     C92679  -0.237   9.167   8.433  0.6039  0.1944  0.3032
  703MOL0     C92680  -0.116   9.258   8.460 -0.4264 -0.1308 -0.1678
  703MOL0     N92681  -0.004   9.275   8.374 -0.4917 -0.2810 -0.5128
  703MOL0     C92682   0.064   9.176   8.312  0.0752  0.8362 -0.5266
  703MOL0     C92683   0.150   9.235   8.224  1.0041  0.3196  0.3499
  703MOL0     C92684   0.244   9.186   8.128 -0.6141 -0.7422 -0.0649
  703MOL0     C92685   0.184   9.128   7.988 -0.0647 -0.4362 -0.2968
  703MOL0     C92686   0.090   9.012   7.997  0.7720 -0.3713 -0.0801
  703MOL0     C92687   0.004   8.994   7.876  0.3569 -0.8792 -0.3186
  703MOL0     O92688  -0.121   9.066   7.901  0.0827 -0.6268 -0.1267
  703MOL0     C92689  -0.246   9.027   7.855 -0.3948 -0.0504  0.2604
  703MOL0     C92690  -0.275   8.945   7.744 -0.3740  0.5676  0.4033
  703MOL0     C92691  -0.399   8.899   7.719 -1.0024  0.7753 -0.0842
  703MOL0     C92692  -0.504   8.944   7.794  0.3391  0.2039 -0.9099
  703MOL0     C92693  -0.640   8.898   7.775 -0.7196 -0.3988 -0.3085
  703MOL0     O92694  -0.736   8.958   7.857 -0.1558  0.3175 -0.2954
  703MOL0     C92695  -0.867   8.926   7.858 -0.2878  0.3301 -0.7975
  703MOL0     C92696  -0.909   8.822   7.928  0.7692 -0.1233  0.6660
  703MOL0     C92697  -1.041   8.794   7.932  0.0060  0.7542  0.6610
  703MOL0     C92698  -1.138   8.865   7.857 -0.9866 -0.5073  0.0975
  703MOL0     O92699  -1.261   8.823   7.849 -0.1836  0.1367  0.3335
  703MOL0     C92700  -1.292   8.725   7.749 -0.3013  1.1992 -0.3811
  703MOL0     C92701  -1.442   8.736   7.703  0.0901  0.5014 -0.4388
  703MOL0     C92702  -1.490   8.868   7.664  0.3123  0.7111  0.3722
  703MOL0     C92703  -1.600   8.868   7.552  0.0675  0.5516 -0.3016
  703MOL0     C92704  -1.725   8.782   7.593 -0.3629 -0.4166 -0.0204
  703MOL0     C92705  -1.842   8.835   7.507 -0.0805  0.1973  0.7600
  703MOL0     C92706  -1.979   8.764   7.521  0.5147  0.5282  0.4237
  703MOL0     C92707  -1.992   8.629   7.454 -0.0033  0.6984 -0.2549
  703MOL0    Cl92708  -2.161   8.563   7.456 -0.0198 -0.1492  0.4119
  703MOL0     C92709  -1.095   8.985   7.800 -0.7584 -0.8871 -1.1035
  703MOL0     C92710  -0.962   9.016   7.803 -1.0330 -0.1703 -0.2692
  703MOL0     O92711  -0.652   8.800   7.711  0.2940 -0.7811 -0.3727
  703MOL0     C92712  -0.479   9.046   7.893  0.3097  0.3691  0.2776
  703MOL0     C92713  -0.350   9.091   7.922 -0.5034  0.0644 -0.0520
  703MOL0     N92714   0.120   9.368   8.231  0.2757 -0.4182  0.3080
  703MOL0     N92715   0.042   9.395   8.328 -0.2970  0.6283  0.0377
  703MOL0     C92716   0.217   8.810   8.411  0.4117  0.1584  0.6480
  703MOL0     C92717   0.350   8.776   8.413 -0.3768 -0.4235  0.6111
  703MOL0     C92718   0.796   8.686   8.342 -0.1556 -0.5854 -0.3114
  703MOL0     C92719   0.903   8.729   8.415 -0.2209 -0.7181  0.1669
  703MOL0     C92720   1.036   8.691   8.375  0.3691 -0.4916  0.4285
  703MOL0     C92721   1.066   8.613   8.271 -0.5985 -0.4260 -0.7037
  703MOL0     O92722   1.194   8.580   8.231  0.4942 -0.1434 -0.3400
  703MOL0     C92723   1.308   8.624   8.315 -0.0339  0.4588  0.3690
  703MOL0     C92724   1.434   8.543   8.287  1.0368  0.7556  0.3746
  703MOL0     C92725   1.560   8.600   8.351 -0.1154 -0.0681  1.0990
  703MOL0     C92726   1.682   8.535   8.285 -0.2134  0.5948 -0.5221
  703MOL0     C92727   1.809   8.565   8.369  0.5691 -0.6101  1.3308
  703MOL0     C92728   1.896   8.610   8.440 -0.2999  0.7737 -0.1719
  703MOL0     C92729   0.954   8.574   8.197  0.2728  0.1222 -1.0030
  703MOL0     C92730   0.820   8.610   8.234  0.1608  0.4404  0.1469
  703MOL0     H92731   0.375   8.622   8.107 -1.6768  1.1469 -1.0220
  703MOL0     H92732   0.141   8.632   8.136 -0.8871 -0.7463  0.8792
  703MOL0     H92733  -0.058   8.636   8.221  1.6193  1.1484  0.6237
  703MOL0     H92734  -0.072   8.773   8.102 -0.3238  0.1641  0.0375
  703MOL0     H92735  -0.223   8.739   8.353 -0.6008  1.7734  0.1423
  703MOL0     H92736  -0.282   8.688   8.195  1.9132 -1.9701  0.1753
  703MOL0     H92737  -0.302   8.902   8.102  4.2915  0.6328 -0.9772
  703MOL0     H92738  -0.192   8.978   8.207  0.1484 -0.5048  0.7407
  703MOL0     H92739  -0.487   8.891   8.271  0.0972 -0.6484  2.6980
  703MOL0     H92740  -0.375   8.902   8.398 -1.3654 -0.2698  0.3357
  703MOL0     H92741  -0.504   9.119   8.382  0.7260  1.7726  0.5339
  703MOL0     H92742  -0.480   9.123   8.211  0.4444 -3.1238 -1.0028
  703MOL0     H92743  -0.348   9.302   8.321  3.6286  1.5429  0.6471
  703MOL0     H92744  -0.252   9.189   8.225 -0.7546 -0.9939  0.2665
  703MOL0     H92745  -0.310   9.193   8.510 -1.1590 -0.4257 -1.0943
  703MOL0     H92746  -0.204   9.063   8.433 -1.2959 -0.4965  2.6148
  703MOL0     H92747  -0.073   9.225   8.555  0.0544  0.4630 -0.1664
  703MOL0     H92748  -0.150   9.361   8.467 -0.9700 -0.4049  2.1182
  703MOL0     H92749   0.052   9.068   8.324 -2.0922  1.1136  0.2762
  703MOL0     H92750   0.301   9.106   8.176  1.1129  0.0387 -0.6964
  703MOL0     H92751   0.323   9.261   8.111  2.6896 -3.4549  1.9369
  703MOL0     H92752   0.275   9.102   7.932  1.7691  0.5672  2.0328
  703MOL0     H92753   0.136   9.207   7.929 -0.9063 -1.0925 -0.5019
  703MOL0     H92754   0.150   8.922   8.014  1.4687  0.4031  1.7880
  703MOL0     H92755   0.029   9.018   8.087 -2.4397  2.2793 -2.2121
  703MOL0     H92756  -0.012   8.886   7.863  0.1197 -0.9529  0.5528
  703MOL0     H92757   0.046   9.043   7.788 -0.8404  0.9397  0.0866
  703MOL0     H92758  -0.194   8.915   7.677 -1.2184 -0.8277 -0.0287
  703MOL0     H92759  -0.427   8.838   7.634  1.2630  0.7589 -0.8959
  703MOL0     H92760  -0.841   8.753   7.977 -2.1023 -2.3525  1.9031
  703MOL0     H92761  -1.078   8.704   7.980 -2.0790  1.5971  0.7104
  703MOL0     H92762  -1.274   8.634   7.808  1.0640  1.6598 -0.0293
  703MOL0     H92763  -1.225   8.724   7.662 -0.7848  0.1817 -0.7453
  703MOL0     H92764  -1.503   8.700   7.786  0.7097 -0.8878 -0.5449
  703MOL0     H92765  -1.459   8.677   7.612 -1.4914 -2.2362  1.4851
  703MOL0     H92766  -1.405   8.931   7.638 -0.4192  2.3067  1.6729
  703MOL0     H92767  -1.540   8.910   7.752  1.6596  1.2683  0.8957
  703MOL0     H92768  -1.634   8.970   7.533  2.1858  0.9068 -2.5550
  703MOL0     H92769  -1.566   8.824   7.458  1.7531  0.5105  0.3033
  703MOL0     H92770  -1.753   8.794   7.698 -0.3318  0.2188 -0.0829
  703MOL0     H92771  -1.701   8.678   7.567  0.0043 -0.5550  0.8265
  703MOL0     H92772  -1.817   8.837   7.400 -3.4477 -0.5832 -0.1686
  703MOL0     H92773  -1.863   8.938   7.539 -0.1789  0.4384 -0.0635
  703MOL0     H92774  -1.992   8.735   7.625 -0.0812 -2.3632 -0.3627
  703MOL0     H92775  -2.053   8.841   7.498  1.8601  2.7090  2.8274
  703MOL0     H92776  -1.932   8.542   7.483 -1.9455 -1.8585 -3.2971
  703MOL0     H92777  -1.962   8.645   7.350 -3.3671  0.6040 -1.3651
  703MOL0     H92778  -1.146   9.051   7.729  0.2250  2.5394  1.1043
  703MOL0     H92779  -0.924   9.107   7.757  0.5028  0.2283  1.6373
  703MOL0     H92780  -0.552   9.095   7.957  1.4885  2.9259 -0.2334
  703MOL0     H92781  -0.325   9.161   8.001  2.8141  0.3772 -1.2343
  703MOL0     H92782   0.174   8.871   8.490  1.0579  1.5531 -0.0421
  703MOL0     H92783   0.405   8.817   8.496  1.0757 -2.0439  0.5180
  703MOL0     H92784   0.889   8.788   8.505  3.0521  4.1632 -2.0456
  703MOL0     H92785   1.111   8.719   8.448 -0.0257 -0.4273  0.8185
  703MOL0     H92786   1.298   8.610   8.423  0.8692 -1.3242  0.2537
  703MOL0     H92787   1.332   8.727   8.291 -0.4076  0.5939  0.5579
  703MOL0     H92788   1.410   8.439   8.313  0.3582  1.2441  1.8394
  703MOL0     H92789   1.448   8.537   8.179 -1.4952 -1.7924  0.0659
  703MOL0     H92790   1.547   8.591   8.460  2.3308 -3.4604  1.2753
  703MOL0     H92791   1.557   8.706   8.325  0.2560 -0.4194 -0.4924
  703MOL0     H92792   1.681   8.426   8.289  0.4147  0.6243  1.5858
  703MOL0     H92793   1.701   8.577   8.186  2.5351  0.2715 -0.2251
  703MOL0     H92794   1.976   8.643   8.504  1.7532 -0.6146 -1.8736
  703MOL0     H92795   0.978   8.521   8.105  3.4635  0.2445 -0.3557
  703MOL0     H92796   0.737   8.570   8.176 -0.2877  1.7990 -0.2026
  704MOL0     O92797   3.520   3.376   5.532 -0.1519  0.5661  0.6343
  704MOL0     C92798   3.441   3.293   5.574  0.3557  0.3941 -0.3289
  704MOL0     O92799   3.459   3.209   5.676 -0.3074 -0.3874  0.4744
  704MOL0     C92800   3.580   3.207   5.741  0.4194 -0.1341 -0.9371
  704MOL0     C92801   3.660   3.102   5.707 -0.3057  0.4536 -0.1557
  704MOL0     C92802   3.795   3.096   5.750  0.7488  0.3769  0.0997
  704MOL0     C92803   3.852   3.206   5.817 -0.0471  0.7816  0.4032
  704MOL0     O92804   3.989   3.199   5.843  0.1612 -0.0336 -0.8952
  704MOL0     C92805   4.059   3.318   5.879 -0.3778  0.3048  0.8854
  704MOL0     C92806   4.069   3.409   5.752  0.4723  0.0171 -0.2208
  704MOL0     C92807   4.135   3.532   5.802  0.7162 -0.0754 -0.0030
  704MOL0     C92808   4.153   3.639   5.684 -0.8361 -0.1690 -0.5480
  704MOL0     C92809   4.024   3.722   5.661 -0.0594  0.0901  0.4358
  704MOL0     C92810   4.022   3.786   5.529  0.0154 -0.0398  0.1496
  704MOL0     C92811   4.096   3.922   5.529 -0.3711  0.1158  0.2346
  704MOL0     C92812   4.053   4.032   5.629  0.0066 -0.1851  1.0226
  704MOL0     N92813   3.924   4.080   5.603  0.1502 -0.6185 -0.7611
  704MOL0     C92814   3.814   4.043   5.669  0.3344 -0.0207 -0.5147
  704MOL0     C92815   3.710   4.113   5.619  0.7699  0.1895  0.2133
  704MOL0     C92816   3.569   4.079   5.627  0.3897  0.1365 -0.5266
  704MOL0     C92817   3.477   4.204   5.642 -0.3021  0.4475 -0.4210
  704MOL0     C92818   3.366   4.199   5.540  0.0693  0.2371  0.1784
  704MOL0     C92819   3.421   4.223   5.390  0.3160 -0.0794  0.6232
  704MOL0     O92820   3.305   4.235   5.298 -0.3309 -0.1401  0.5253
  704MOL0     C92821   3.206   4.328   5.322 -0.0081  0.0519 -0.5135
  704MOL0     C92822   3.232   4.441   5.407  0.1732 -0.1076 -0.5141
  704MOL0     C92823   3.132   4.529   5.443  0.1614  0.3089  0.7218
  704MOL0     C92824   2.995   4.506   5.390 -1.2137 -0.6493  0.3827
  704MOL0     C92825   2.877   4.577   5.443  0.4895 -0.2421 -0.4212
  704MOL0     O92826   2.764   4.572   5.370 -0.3874  0.4277  0.2847
  704MOL0     C92827   2.651   4.630   5.415  0.8984 -0.0479  1.1495
  704MOL0     C92828   2.554   4.669   5.317  0.6688 -0.5775  0.3594
  704MOL0     C92829   2.421   4.717   5.359 -0.2761  0.5573  0.5216
  704MOL0     C92830   2.384   4.717   5.492  1.0357  1.2014  0.0685
  704MOL0     O92831   2.263   4.787   5.521 -0.5963  0.1290 -0.1684
  704MOL0     C92832   2.216   4.786   5.656  0.5759  0.1355 -0.4890
  704MOL0     C92833   2.075   4.860   5.650 -1.3825  0.4962  0.1537
  704MOL0     C92834   1.966   4.813   5.550  0.6142  0.2961  0.5612
  704MOL0     C92835   1.820   4.873   5.574  0.7211  0.3373 -0.3663
  704MOL0     C92836   1.726   4.820   5.464  0.4708 -0.4335  0.4625
  704MOL0     C92837   1.702   4.672   5.459 -0.1287 -0.8680 -0.2589
  704MOL0     C92838   1.633   4.634   5.327 -0.2456 -0.2184 -0.6624
  704MOL0     C92839   1.547   4.510   5.345 -0.7606  0.0696 -0.0309
  704MOL0    Cl92840   1.645   4.358   5.389 -0.1222 -0.2742  0.0132
  704MOL0     C92841   2.478   4.671   5.588  0.3926  0.1313  0.7272
  704MOL0     C92842   2.609   4.626   5.544  0.6460 -1.0563 -0.4118
  704MOL0     O92843   2.894   4.648   5.541 -0.0052  0.2461 -0.5478
  704MOL0     C92844   2.980   4.407   5.294  0.2726 -0.3805 -0.0336
  704MOL0     C92845   3.080   4.322   5.270 -0.4602  0.4891  1.1108
  704MOL0     N92846   3.765   4.205   5.534 -0.2910 -0.1827 -0.1044
  704MOL0     N92847   3.891   4.179   5.518  0.2191 -0.9722  0.4563
  704MOL0     C92848   3.766   3.314   5.853 -0.3592  0.6554  0.1328
  704MOL0     C92849   3.636   3.314   5.818  0.3928 -0.3939 -0.2039
  704MOL0     C92850   3.308   3.300   5.506 -0.8944 -0.7303  0.3679
  704MOL0     C92851   3.257   3.410   5.435  0.0836  0.9012  0.1274
  704MOL0     C92852   3.126   3.406   5.379  0.3418  0.4779 -0.0740
  704MOL0     C92853   3.044   3.294   5.396 -1.3624 -0.3091 -0.3775
  704MOL0     O92854   2.909   3.313   5.363 -0.0993 -0.4743  0.4250
  704MOL0     C92855   2.795   3.252   5.433  0.1164 -0.3078  0.3740
  704MOL0     C92856   2.663   3.325   5.401 -0.1222 -0.3325 -0.0363
  704MOL0     C92857   2.548   3.225   5.405  1.1801 -0.1814  0.3519
  704MOL0     C92858   2.425   3.307   5.379  0.3084  0.1535 -0.4995
  704MOL0     C92859   2.400   3.368   5.508  0.6062 -0.5368 -0.3729
  704MOL0     C92860   2.365   3.428   5.603  1.3420 -0.0249  0.2064
  704MOL0     C92861   3.095   3.189   5.478 -0.2198 -0.6316 -0.2842
  704MOL0     C92862   3.221   3.189   5.524  0.1438  0.2321 -0.3938
  704MOL0     H92863   3.606   3.020   5.659 -1.6443  1.2252 -0.0254
  704MOL0     H92864   3.855   3.009   5.724  1.1939  0.4889  0.7308
  704MOL0     H92865   4.162   3.294   5.906  0.2534  0.7149 -1.0201
  704MOL0     H92866   4.000   3.370   5.955  1.9088  1.8797  1.6950
  704MOL0     H92867   3.979   3.445   5.702  0.3758  1.0107  0.6390
  704MOL0     H92868   4.122   3.362   5.668  0.6558  1.8476 -1.1758
  704MOL0     H92869   4.238   3.516   5.836  1.3769  2.8427 -0.3540
  704MOL0     H92870   4.079   3.584   5.881  0.9174  1.8248 -1.0353
  704MOL0     H92871   4.232   3.708   5.716 -3.4629  3.1668 -0.5993
  704MOL0     H92872   4.184   3.585   5.594  1.0889 -1.1725  0.6445
  704MOL0     H92873   4.013   3.792   5.744 -0.2705 -0.5424  0.9413
  704MOL0     H92874   3.940   3.653   5.659  0.7335 -0.8853  0.1601
  704MOL0     H92875   3.918   3.811   5.510 -0.8968 -4.7876 -2.6465
  704MOL0     H92876   4.067   3.716   5.459  1.1715 -0.7269  1.5149
  704MOL0     H92877   4.202   3.901   5.546 -0.8273 -0.6470  2.4462
  704MOL0     H92878   4.087   3.972   5.432  0.1020  1.5593  0.8929
  704MOL0     H92879   4.119   4.119   5.628 -1.0721  0.6526  1.8767
  704MOL0     H92880   4.055   3.997   5.732 -0.4519  1.8232  1.7551
  704MOL0     H92881   3.814   3.959   5.737  0.1672  0.1728 -0.2773
  704MOL0     H92882   3.554   4.014   5.714 -0.3591  0.6196 -0.2826
  704MOL0     H92883   3.541   4.013   5.545 -1.5178  1.6022 -1.1281
  704MOL0     H92884   3.518   4.304   5.626  0.9469 -0.1093 -0.7981
  704MOL0     H92885   3.433   4.218   5.741 -2.0427  1.5735 -1.2961
  704MOL0     H92886   3.311   4.105   5.548 -0.1603  0.4765  1.4803
  704MOL0     H92887   3.299   4.280   5.569  0.6494  1.3036 -1.3203
  704MOL0     H92888   3.489   4.146   5.353 -0.4302 -0.5926  0.2930
  704MOL0     H92889   3.476   4.317   5.381  0.3321 -0.0699  0.8249
  704MOL0     H92890   3.333   4.460   5.443  0.1421 -1.4743  0.3721
  704MOL0     H92891   3.149   4.618   5.504 -3.1818  4.0984 -3.1970
  704MOL0     H92892   2.585   4.662   5.213  1.8664  0.2903  0.6336
  704MOL0     H92893   2.350   4.744   5.281 -3.2885 -2.1880  2.0352
  704MOL0     H92894   2.286   4.838   5.722  1.2029 -1.7345  0.3900
  704MOL0     H92895   2.204   4.682   5.687 -1.2847  0.1992 -0.8742
  704MOL0     H92896   2.086   4.965   5.623 -0.8976 -0.3384 -3.4640
  704MOL0     H92897   2.035   4.847   5.751 -1.0939 -0.5555  0.1418
  704MOL0     H92898   1.962   4.704   5.559  1.9470  0.2078  0.3301
  704MOL0     H92899   2.006   4.833   5.450  1.7248 -1.6631  0.5474
  704MOL0     H92900   1.775   4.853   5.672  1.8727  0.5321  0.2156
  704MOL0     H92901   1.829   4.982   5.573 -2.2647  0.7253  1.4198
  704MOL0     H92902   1.766   4.862   5.371 -0.8134  0.9289  0.4911
  704MOL0     H92903   1.625   4.862   5.474  0.1656 -0.6972 -1.2737
  704MOL0     H92904   1.643   4.655   5.549 -0.0469 -0.4621 -0.1246
  704MOL0     H92905   1.796   4.617   5.467  0.0915 -0.3362  1.1110
  704MOL0     H92906   1.575   4.716   5.285 -0.8849 -0.1113  0.4034
  704MOL0     H92907   1.715   4.610   5.258  1.5348  0.6823  1.0237
  704MOL0     H92908   1.492   4.495   5.251 -0.9512 -1.7556  0.3351
  704MOL0     H92909   1.472   4.539   5.419  1.6798  1.3003  2.0896
  704MOL0     H92910   2.455   4.657   5.693  4.8328  0.7008  1.9695
  704MOL0     H92911   2.674   4.573   5.613  1.1041 -1.0269 -0.8174
  704MOL0     H92912   2.887   4.393   5.241  0.7955  3.2072 -2.2546
  704MOL0     H92913   3.064   4.241   5.200 -1.6598  3.2678 -2.1299
  704MOL0     H92914   3.807   3.399   5.907  1.9508 -0.3637  0.0864
  704MOL0     H92915   3.578   3.405   5.827  1.4410  0.2317  0.4084
  704MOL0     H92916   3.324   3.491   5.410  2.7165 -1.7902 -2.2485
  704MOL0     H92917   3.079   3.489   5.327 -4.1350 -0.8684  1.2953
  704MOL0     H92918   2.819   3.244   5.539  0.2934  2.2724  0.5805
  704MOL0     H92919   2.785   3.149   5.395  0.0793  0.3598 -1.5295
  704MOL0     H92920   2.653   3.397   5.483  0.9818 -1.1742  0.8783
  704MOL0     H92921   2.667   3.381   5.308 -0.3850  0.9833  0.7109
  704MOL0     H92922   2.536   3.170   5.499 -1.3481  0.4976  0.4908
  704MOL0     H92923   2.556   3.156   5.320 -0.0419 -0.1987  0.2387
  704MOL0     H92924   2.436   3.384   5.302 -0.8954  0.6585 -0.1932
  704MOL0     H92925   2.348   3.243   5.336  0.9728  0.1248 -1.6671
  704MOL0     H92926   2.337   3.479   5.693 -2.3531  0.3801 -0.9898
  704MOL0     H92927   3.029   3.109   5.511 -1.7256  1.3620  1.8692
  704MOL0     H92928   3.252   3.104   5.583  0.6457 -0.1221 -1.1514
  705MOL0     O92929   7.756   9.795   4.273 -0.4405  0.0888  0.4543
  705MOL0     C92930   7.693   9.887   4.322  0.7943 -0.7554  0.0158
  705MOL0     O92931   7.718  10.023   4.292  0.5205 -0.2897 -0.6121
  705MOL0     C92932   7.819  10.057   4.206 -0.8830 -0.3710 -0.2763
  705MOL0     C92933   7.846   9.991   4.085 -0.1815  0.2282  0.3156
  705MOL0     C92934   7.958  10.038   4.000 -0.2888 -0.4272 -1.2922
  705MOL0     C92935   8.051  10.123   4.055  0.4037  0.1305 -0.0726
  705MOL0     O92936   8.169  10.171   3.997  1.6477  0.0306 -0.1933
  705MOL0     C92937   8.227  10.109   3.887 -0.1839  0.3052  0.2338
  705MOL0     C92938   8.380  10.107   3.892 -0.1074 -0.4047  0.1844
  705MOL0     C92939   8.438  10.248   3.887  0.5145 -0.3829  0.4150
  705MOL0     C92940   8.421  10.299   3.742 -0.3363 -0.8957  0.8985
  705MOL0     C92941   8.499  10.433   3.727  0.7454  0.1931  0.4029
  705MOL0     C92942   8.509  10.475   3.576 -0.1554  0.5671  0.2297
  705MOL0     C92943   8.574  10.610   3.552 -0.7278  0.3386 -0.6362
  705MOL0     C92944   8.594  10.647   3.408 -1.2659 -0.6511  0.9967
  705MOL0     N92945   8.471  10.680   3.334 -0.7480  0.9305  0.5013
  705MOL0     C92946   8.343  10.708   3.377 -0.8906  0.5721 -0.3824
  705MOL0     C92947   8.263  10.702   3.271 -0.3772 -0.1319  1.2887
  705MOL0     C92948   8.118  10.722   3.275 -0.0612  0.5897  0.0924
  705MOL0     C92949   8.052  10.597   3.346 -0.0670 -0.6505 -0.0206
  705MOL0     C92950   7.906  10.590   3.315  0.2054  0.0516 -0.8966
  705MOL0     C92951   7.816  10.563   3.436  0.4526  0.5885  0.5651
  705MOL0     O92952   7.684  10.554   3.400  0.5200 -0.6365 -0.5149
  705MOL0     C92953   7.591  10.491   3.480  0.2269 -0.3458  0.4284
  705MOL0     C92954   7.615  10.441   3.611  0.3502 -0.4455 -0.3592
  705MOL0     C92955   7.510  10.375   3.670  0.9543  0.3126 -1.3488
  705MOL0     C92956   7.383  10.355   3.615 -0.6379  0.4573 -0.5790
  705MOL0     C92957   7.282  10.281   3.699  0.9147  0.1344  0.4570
  705MOL0     O92958   7.187  10.204   3.631 -0.5984 -0.2135  0.4892
  705MOL0     C92959   7.097  10.125   3.699  0.4542 -0.2015 -0.6188
  705MOL0     C92960   7.071   9.996   3.648 -0.3938  0.9107  0.0744
  705MOL0     C92961   6.972   9.917   3.719  0.2836  0.3842 -0.8535
  705MOL0     C92962   6.897   9.970   3.822  0.1166 -0.5683  0.4699
  705MOL0     O92963   6.802   9.900   3.876 -0.1832 -0.0621 -0.0180
  705MOL0     C92964   6.836   9.868   4.015  0.9776 -0.0334 -0.0808
  705MOL0     C92965   6.792   9.734   4.060  0.1571 -0.1161  0.6520
  705MOL0     C92966   6.641   9.700   4.015 -0.4777  0.1620 -1.0162
  705MOL0     C92967   6.601   9.563   4.071 -1.2918  0.3713 -0.0204
  705MOL0     C92968   6.456   9.524   4.032  0.4466  0.5281 -0.3902
  705MOL0     C92969   6.415   9.416   4.129  0.5479 -0.2525  0.4717
  705MOL0     C92970   6.276   9.357   4.102  0.1222  0.2158  0.1485
  705MOL0     C92971   6.218   9.276   4.215  0.0752 -0.2036 -0.2839
  705MOL0    Cl92972   6.325   9.139   4.259  0.1630  0.7425 -0.1690
  705MOL0     C92973   6.922  10.099   3.862 -0.4267 -0.7929 -0.0878
  705MOL0     C92974   7.020  10.173   3.804 -0.5901  0.2864  0.9907
  705MOL0     O92975   7.280  10.300   3.823  0.3209 -0.0159  0.2024
  705MOL0     C92976   7.369  10.397   3.479 -0.6429 -0.1766 -0.4288
  705MOL0     C92977   7.468  10.474   3.419 -0.0091 -0.4354  0.0501
  705MOL0     N92978   8.342  10.665   3.161  0.7418  0.0368  0.3374
  705MOL0     N92979   8.464  10.653   3.198 -0.5517 -0.1328 -0.0247
  705MOL0     C92980   8.014  10.191   4.177 -0.3553  0.7189  1.3010
  705MOL0     C92981   7.904  10.153   4.251 -0.7061 -0.1314  0.5328
  705MOL0     C92982   7.582   9.848   4.413  0.4131 -0.5939  0.3220
  705MOL0     C92983   7.555   9.714   4.456  0.3829 -0.4753  1.2504
  705MOL0     C92984   7.459   9.696   4.558  0.0753 -0.1727  0.1091
  705MOL0     C92985   7.388   9.798   4.616  0.3482  0.0937  0.2704
  705MOL0     O92986   7.299   9.761   4.712  0.1973 -0.0226 -0.2147
  705MOL0     C92987   7.182   9.701   4.653 -0.6404 -0.0733  0.2659
  705MOL0     C92988   7.102   9.632   4.759  1.1214 -0.6825  0.1653
  705MOL0     C92989   6.966   9.573   4.704 -0.2866  0.7668  0.0405
  705MOL0     C92990   6.875   9.534   4.822 -0.7542  0.4751  0.2565
  705MOL0     C92991   6.945   9.435   4.899  0.2229  0.0489 -0.4893
  705MOL0     C92992   6.999   9.346   4.971  0.6917  0.3915 -0.7918
  705MOL0     C92993   7.416   9.931   4.578 -0.6244  0.2575  0.1265
  705MOL0     C92994   7.511   9.958   4.469  0.0118 -0.3149 -0.2659
  705MOL0     H92995   7.775   9.917   4.051 -0.8735  0.3753  1.4118
  705MOL0     H92996   7.981  10.002   3.901  4.2476  2.3400 -1.5383
  705MOL0     H92997   8.191  10.151   3.792  1.1577 -2.0289 -1.4251
  705MOL0     H92998   8.205  10.002   3.881  0.9391  0.1068 -4.1341
  705MOL0     H92999   8.425  10.061   3.803  0.0552  1.4272 -0.7390
  705MOL0     H93000   8.413  10.053   3.981  2.6484  1.1686  0.2515
  705MOL0     H93001   8.543  10.245   3.917 -0.0722  2.1270  3.1042
  705MOL0     H93002   8.390  10.316   3.958  0.3183  0.7196 -0.7215
  705MOL0     H93003   8.475  10.234   3.673  4.0185  1.7314  1.3937
  705MOL0     H93004   8.316  10.316   3.719  0.5650  0.7759 -2.6620
  705MOL0     H93005   8.598  10.418   3.769  1.5711 -1.4138 -1.9153
  705MOL0     H93006   8.451  10.513   3.785 -1.8731 -1.7380  1.0901
  705MOL0     H93007   8.410  10.475   3.529  1.0965 -1.4211 -2.6667
  705MOL0     H93008   8.567  10.399   3.523  2.0965  1.5437  1.1805
  705MOL0     H93009   8.517  10.686   3.606 -1.3155 -0.5085 -0.0381
  705MOL0     H93010   8.672  10.604   3.599 -1.5595 -1.3823  1.0082
  705MOL0     H93011   8.645  10.560   3.365  1.8895  0.2715  2.5709
  705MOL0     H93012   8.655  10.738   3.398 -5.9008  2.5543 -2.1443
  705MOL0     H93013   8.308  10.732   3.476 -1.6265 -1.5351 -0.0802
  705MOL0     H93014   8.089  10.737   3.171 -1.0228  0.8505  0.3811
  705MOL0     H93015   8.090  10.819   3.316  0.9613  2.0832 -2.5165
  705MOL0     H93016   8.064  10.613   3.453 -0.4335 -1.2764  0.1238
  705MOL0     H93017   8.107  10.507   3.316 -0.5984 -1.5428  1.5949
  705MOL0     H93018   7.872  10.689   3.281 -0.3318  0.8516  1.7305
  705MOL0     H93019   7.883  10.515   3.239  1.3827 -2.1000  0.7584
  705MOL0     H93020   7.828  10.647   3.505 -1.2298  1.9869 -0.7466
  705MOL0     H93021   7.853  10.473   3.486 -2.9138 -1.8704 -1.0026
  705MOL0     H93022   7.708  10.457   3.664 -0.4838  0.8366  0.7752
  705MOL0     H93023   7.530  10.332   3.768 -0.5968 -0.6640 -1.4200
  705MOL0     H93024   7.144   9.946   3.584  1.9559  0.3446  2.9689
  705MOL0     H93025   6.962   9.810   3.706  0.8832 -0.1281  2.1671
  705MOL0     H93026   6.786   9.941   4.080 -0.0981 -0.9351  0.1397
  705MOL0     H93027   6.945   9.870   4.021  1.1570  1.1651 -2.5965
  705MOL0     H93028   6.790   9.723   4.169  0.2261 -2.0463  0.4969
  705MOL0     H93029   6.852   9.657   4.012 -0.1373 -0.0753  0.2135
  705MOL0     H93030   6.641   9.681   3.908  1.0957 -0.9010 -0.8636
  705MOL0     H93031   6.570   9.778   4.046 -1.1404 -0.3340 -1.2545
  705MOL0     H93032   6.674   9.486   4.048 -1.5950  0.3388 -0.8989
  705MOL0     H93033   6.609   9.567   4.180  2.0489 -0.7401 -0.1172
  705MOL0     H93034   6.456   9.479   3.931 -0.4075 -1.3679  0.3993
  705MOL0     H93035   6.393   9.613   4.036 -1.0529 -0.5394  0.3723
  705MOL0     H93036   6.429   9.457   4.229 -0.1793  0.5370  0.2581
  705MOL0     H93037   6.480   9.328   4.122 -2.8559 -2.9700  0.2322
  705MOL0     H93038   6.211   9.441   4.077  1.3343  0.4770 -2.4465
  705MOL0     H93039   6.280   9.293   4.013 -1.5555  0.0488  0.1660
  705MOL0     H93040   6.118   9.242   4.189  0.6548 -0.4689 -2.3151
  705MOL0     H93041   6.207   9.339   4.304 -4.6456  0.7326 -1.2911
  705MOL0     H93042   6.859  10.148   3.935 -1.7499 -0.0919 -1.6424
  705MOL0     H93043   7.029  10.276   3.837 -0.4761 -0.4682  3.4935
  705MOL0     H93044   7.288  10.380   3.408  0.8179  0.7201 -2.3940
  705MOL0     H93045   7.439  10.507   3.320 -0.8455 -1.4514 -0.0648
  705MOL0     H93046   8.087  10.253   4.228  0.3957 -0.7819  2.1168
  705MOL0     H93047   7.884  10.201   4.346  0.9763  3.0135 -0.5534
  705MOL0     H93048   7.607   9.638   4.399 -1.2563  2.1876 -4.5252
  705MOL0     H93049   7.434   9.593   4.581 -0.3584 -0.5412 -1.8034
  705MOL0     H93050   7.204   9.616   4.588 -0.1419 -1.5709  2.2993
  705MOL0     H93051   7.118   9.772   4.600 -0.5191 -1.4640 -1.8459
  705MOL0     H93052   7.160   9.550   4.803  2.1805  0.7832  1.6425
  705MOL0     H93053   7.095   9.702   4.842  0.3340  0.7273 -1.0520
  705MOL0     H93054   6.973   9.484   4.641 -0.4555 -2.2728  3.9394
  705MOL0     H93055   6.915   9.651   4.646  2.0069  1.5786 -1.0036
  705MOL0     H93056   6.827   9.619   4.873 -1.8245 -0.1851  0.3985
  705MOL0     H93057   6.790   9.481   4.777  0.3570 -1.5874  0.5137
  705MOL0     H93058   7.041   9.274   5.038 -0.5013 -1.9948 -2.4540
  705MOL0     H93059   7.360  10.008   4.631 -1.8989  0.7372 -1.8004
  705MOL0     H93060   7.537  10.060   4.445  4.1025 -0.8962  0.8849
  706MOL0     O93061   2.193   6.249   3.211  0.2644 -0.0746  0.2254
  706MOL0     C93062   2.268   6.347   3.248 -0.2544  0.4353  1.2564
  706MOL0     O93063   2.251   6.426   3.355 -1.1916  0.3201  0.1256
  706MOL0     C93064   2.146   6.400   3.443  0.2599  0.8470  0.9927
  706MOL0     C93065   2.180   6.325   3.563 -0.1053  0.4183 -1.6662
  706MOL0     C93066   2.082   6.294   3.658 -0.0919  0.2685  0.4572
  706MOL0     C93067   1.947   6.325   3.628  0.1568 -0.0382  1.0768
  706MOL0     O93068   1.851   6.323   3.726 -0.2882 -0.1222  0.0225
  706MOL0     C93069   1.839   6.208   3.808 -0.2404  0.2722  0.3887
  706MOL0     C93070   1.742   6.211   3.924 -0.1935  0.0973  1.0146
  706MOL0     C93071   1.590   6.244   3.886 -0.0396 -0.3168 -0.1932
  706MOL0     C93072   1.496   6.244   4.006 -0.4870 -0.2050  0.5382
  706MOL0     C93073   1.487   6.118   4.078  0.5033  0.2593 -0.2732
  706MOL0     C93074   1.387   6.138   4.200  0.1357  0.1540  0.1690
  706MOL0     C93075   1.423   6.035   4.311  0.3989  0.6472 -0.6193
  706MOL0     C93076   1.340   6.053   4.440 -0.8806  0.5968  0.4670
  706MOL0     N93077   1.193   6.054   4.427 -0.2731  0.0122  0.0554
  706MOL0     C93078   1.107   5.943   4.430  0.6026 -0.3923 -0.2059
  706MOL0     C93079   0.984   6.002   4.441 -0.5988 -0.3479  0.3672
  706MOL0     C93080   0.860   5.916   4.470 -0.0111 -0.6030  0.0763
  706MOL0     C93081   0.751   5.951   4.370  0.6342  0.2394 -0.6385
  706MOL0     C93082   0.805   5.960   4.221 -0.0023 -1.4053 -0.8381
  706MOL0     C93083   0.684   5.960   4.120  0.1564  0.4606  0.7947
  706MOL0     O93084   0.639   5.817   4.119 -0.4922 -0.0653 -0.2735
  706MOL0     C93085   0.513   5.776   4.088  0.9904 -0.0098  0.6897
  706MOL0     C93086   0.492   5.642   4.092 -0.6943  0.3949  0.0141
  706MOL0     C93087   0.362   5.590   4.084  0.6560  0.2454  0.7012
  706MOL0     C93088   0.258   5.674   4.047  0.2961  0.3597 -0.5588
  706MOL0     C93089   0.119   5.616   4.023 -0.5546  0.7492 -0.0787
  706MOL0     O93090   0.020   5.707   4.035 -0.3664  0.1727 -0.9177
  706MOL0     C93091  -0.106   5.657   4.064 -0.2715 -0.2560 -0.6321
  706MOL0     C93092  -0.214   5.706   3.987 -0.6699 -0.0219  0.1183
  706MOL0     C93093  -0.343   5.665   4.004  0.2783  0.6355 -0.7822
  706MOL0     C93094  -0.374   5.569   4.102 -0.8507 -0.1989 -0.3047
  706MOL0     O93095  -0.498   5.513   4.126  0.4142 -0.7448  0.4613
  706MOL0     C93096  -0.618   5.561   4.055 -0.7015  0.2905  0.0182
  706MOL0     C93097  -0.634   5.493   3.917 -0.2649  0.2930  0.4886
  706MOL0     C93098  -0.758   5.560   3.861  0.6580 -0.3167  1.0049
  706MOL0     C93099  -0.761   5.559   3.707  0.7442 -0.6137  0.2019
  706MOL0     C93100  -0.905   5.571   3.644 -0.0611  1.1999  0.8420
  706MOL0     C93101  -0.907   5.582   3.488  0.3990 -0.5904  0.5113
  706MOL0     C93102  -0.835   5.472   3.410 -0.7448  0.5567  0.2485
  706MOL0     C93103  -0.898   5.337   3.418 -0.0782  0.5800 -0.0114
  706MOL0    Cl93104  -1.039   5.341   3.313 -0.4505 -0.8272 -0.4124
  706MOL0     C93105  -0.272   5.521   4.190 -0.4021 -0.5295  0.3396
  706MOL0     C93106  -0.143   5.577   4.179 -0.2818  1.9235  0.4308
  706MOL0     O93107   0.104   5.494   4.019 -0.2132  0.0147 -0.8140
  706MOL0     C93108   0.275   5.812   4.038 -0.4796 -0.5950  0.9680
  706MOL0     C93109   0.408   5.864   4.053  0.1922  0.4470 -0.0522
  706MOL0     N93110   0.992   6.140   4.441  0.5636 -0.1093  0.0717
  706MOL0     N93111   1.118   6.172   4.425  0.0994 -0.2081  0.1395
  706MOL0     C93112   1.921   6.400   3.518 -0.0996  0.2992 -0.5859
  706MOL0     C93113   2.014   6.436   3.420 -0.4273 -0.7090  0.2990
  706MOL0     C93114   2.389   6.368   3.165  0.3241 -0.9226  0.1199
  706MOL0     C93115   2.478   6.478   3.197 -0.0815  1.0982 -0.4951
  706MOL0     C93116   2.586   6.517   3.109 -0.1527 -0.2952  0.1176
  706MOL0     C93117   2.599   6.448   2.995  0.4918  0.3090  0.2352
  706MOL0     O93118   2.704   6.502   2.922  0.2842  0.4456 -0.8636
  706MOL0     C93119   2.748   6.443   2.804  0.2430  0.0876 -0.0203
  706MOL0     C93120   2.874   6.502   2.768  0.4331 -0.6059  1.0026
  706MOL0     C93121   2.974   6.458   2.873  0.5113 -0.5563  0.1759
  706MOL0     C93122   3.121   6.479   2.825  0.1244  0.2215 -0.6222
  706MOL0     C93123   3.219   6.412   2.916  0.0285 -0.9146  0.0815
  706MOL0     C93124   3.289   6.354   3.004 -0.2825 -0.4802 -0.1451
  706MOL0     C93125   2.514   6.340   2.962 -0.3137 -0.3159 -0.1433
  706MOL0     C93126   2.418   6.289   3.045 -1.5330  0.0687  0.1705
  706MOL0     H93127   2.284   6.296   3.574 -0.5897 -1.0123 -0.4926
  706MOL0     H93128   2.101   6.261   3.760 -1.6738  0.6611  0.9174
  706MOL0     H93129   1.938   6.189   3.850  1.5112  0.1051 -3.3469
  706MOL0     H93130   1.814   6.124   3.743  2.3776 -2.3807  2.5547
  706MOL0     H93131   1.767   6.301   3.982 -0.3234 -0.5337  2.0670
  706MOL0     H93132   1.762   6.129   3.993 -1.6793  1.2791  2.9516
  706MOL0     H93133   1.546   6.175   3.812 -0.7932 -0.5378  0.4516
  706MOL0     H93134   1.597   6.342   3.838 -0.2418 -0.3489 -0.2922
  706MOL0     H93135   1.523   6.326   4.072 -1.5202  0.6374 -0.0525
  706MOL0     H93136   1.400   6.263   3.956 -1.5461 -3.4727  1.0570
  706MOL0     H93137   1.581   6.074   4.114 -1.6284 -5.4130 -0.6731
  706MOL0     H93138   1.452   6.034   4.018  0.0257 -0.7214  1.3308
  706MOL0     H93139   1.284   6.122   4.167  0.1924 -1.7443  0.8094
  706MOL0     H93140   1.392   6.240   4.241 -1.9258  1.4279 -2.4120
  706MOL0     H93141   1.409   5.933   4.274  2.1548  0.1552 -0.0351
  706MOL0     H93142   1.526   6.039   4.347  0.4779 -1.6787 -0.4062
  706MOL0     H93143   1.364   6.148   4.490 -2.3496  0.6508  1.1254
  706MOL0     H93144   1.368   5.974   4.509  2.7862 -0.8404 -2.3175
  706MOL0     H93145   1.129   5.837   4.424 -1.0057 -1.0232  2.9801
  706MOL0     H93146   0.827   5.940   4.571 -1.5427  1.6496 -0.8910
  706MOL0     H93147   0.875   5.807   4.468  1.8177 -0.4250  1.7349
  706MOL0     H93148   0.715   6.049   4.403  3.5343  0.8360  1.1861
  706MOL0     H93149   0.671   5.877   4.372 -0.4379  1.2683 -2.6992
  706MOL0     H93150   0.859   6.052   4.196 -1.5885 -0.7695 -2.0618
  706MOL0     H93151   0.879   5.881   4.203 -0.8304 -2.1918 -0.8597
  706MOL0     H93152   0.718   5.991   4.021 -0.2386 -2.4590 -0.3536
  706MOL0     H93153   0.607   6.024   4.163 -1.8902 -2.3516  1.5962
  706MOL0     H93154   0.579   5.578   4.094 -0.5531  0.3442 -2.7373
  706MOL0     H93155   0.334   5.486   4.101  0.6531 -0.2739 -1.9733
  706MOL0     H93156  -0.193   5.769   3.901 -3.4798  0.3316 -0.4040
  706MOL0     H93157  -0.422   5.705   3.942 -1.3286  3.5225  2.7231
  706MOL0     H93158  -0.607   5.670   4.046  2.4678 -0.0282 -1.2114
  706MOL0     H93159  -0.707   5.531   4.111 -1.2347 -2.9994 -2.3262
  706MOL0     H93160  -0.647   5.387   3.937 -0.3508  0.3886  0.9378
  706MOL0     H93161  -0.556   5.526   3.848 -0.2239  0.4570  0.6129
  706MOL0     H93162  -0.759   5.665   3.892  2.6309 -0.1887  0.7688
  706MOL0     H93163  -0.849   5.511   3.895 -0.1159 -1.2405 -2.0393
  706MOL0     H93164  -0.695   5.639   3.671 -0.3317 -0.7276 -2.2308
  706MOL0     H93165  -0.728   5.459   3.678 -0.0886 -1.1749  1.1495
  706MOL0     H93166  -0.949   5.664   3.682 -1.2155  0.6469  0.8888
  706MOL0     H93167  -0.970   5.487   3.666  0.9345 -0.1983 -1.2309
  706MOL0     H93168  -0.863   5.680   3.466 -0.3170  0.2259  2.5087
  706MOL0     H93169  -1.013   5.577   3.464  0.0674 -0.7843  1.9591
  706MOL0     H93170  -0.811   5.493   3.306 -0.6429  1.4941  0.4500
  706MOL0     H93171  -0.734   5.470   3.452 -0.7181  1.7820  0.2900
  706MOL0     H93172  -0.918   5.314   3.523  2.6190 -0.9566  0.2789
  706MOL0     H93173  -0.829   5.259   3.384  0.0789  0.7179 -0.0088
  706MOL0     H93174  -0.309   5.458   4.270 -0.7756 -1.5515 -0.5966
  706MOL0     H93175  -0.070   5.537   4.249 -0.2804  1.5315  0.2129
  706MOL0     H93176   0.198   5.886   4.020 -0.5662 -0.7142  0.8412
  706MOL0     H93177   0.410   5.972   4.052 -0.1614  0.4599 -1.6824
  706MOL0     H93178   1.820   6.434   3.497  0.7320  1.9001 -2.2439
  706MOL0     H93179   2.002   6.504   3.336 -2.6346 -0.1431  1.0089
  706MOL0     H93180   2.472   6.530   3.292 -0.5727 -0.3491  0.2850
  706MOL0     H93181   2.655   6.596   3.137 -1.2950  0.9132 -0.3792
  706MOL0     H93182   2.685   6.459   2.717 -0.7415 -0.4789  0.5682
  706MOL0     H93183   2.756   6.334   2.814  0.5707 -0.1905 -2.6209
  706MOL0     H93184   2.906   6.449   2.678 -0.1032 -1.9531  1.5888
  706MOL0     H93185   2.868   6.611   2.754  0.0177 -0.3263  3.1086
  706MOL0     H93186   2.951   6.358   2.910  0.6470 -0.2840  1.0147
  706MOL0     H93187   2.964   6.521   2.962  1.3914  1.4890 -1.0872
  706MOL0     H93188   3.135   6.427   2.730 -1.8990 -1.3912 -0.1110
  706MOL0     H93189   3.139   6.587   2.819  1.0214  0.5883  4.3539
  706MOL0     H93190   3.359   6.309   3.071 -1.4863  1.5407  2.6864
  706MOL0     H93191   2.544   6.288   2.872  0.6503 -0.2317  0.1192
  706MOL0     H93192   2.352   6.205   3.025 -0.0304 -1.4342  1.3076
  707MOL0     O93193   3.932   7.208   9.868  0.5003  0.0705  0.2273
  707MOL0     C93194   3.957   7.258   9.760  0.5609 -0.9841 -0.7863
  707MOL0     O93195   3.867   7.335   9.686 -0.0519  0.4282 -0.7902
  707MOL0     C93196   3.734   7.339   9.729 -0.1358 -0.4600 -1.1724
  707MOL0     C93197   3.682   7.456   9.697 -0.3526 -0.1312 -0.5895
  707MOL0     C93198   3.549   7.489   9.744 -0.1612 -0.5595  0.1339
  707MOL0     C93199   3.474   7.407   9.830  0.6621  0.0713 -0.3374
  707MOL0     O93200   3.349   7.434   9.873  0.4980  1.0333 -0.3506
  707MOL0     C93201   3.253   7.462   9.764 -0.2025  0.8249  0.6456
  707MOL0     C93202   3.129   7.516   9.818  0.4971 -0.0880 -1.0341
  707MOL0     C93203   3.017   7.501   9.710  0.2334 -0.5805  0.2113
  707MOL0     C93204   2.878   7.552   9.761  0.2689  0.2480 -0.2034
  707MOL0     C93205   2.765   7.573   9.657 -0.5997  0.1232 -0.2165
  707MOL0     C93206   2.644   7.638   9.726 -1.1035 -0.4025  0.2424
  707MOL0     C93207   2.530   7.631   9.629  0.1188  0.4769  0.0410
  707MOL0     C93208   2.401   7.696   9.680  0.4756  0.5625  0.3075
  707MOL0     N93209   2.291   7.671   9.584 -0.4681 -0.0801 -0.2773
  707MOL0     C93210   2.210   7.562   9.576 -0.4368  0.1164  0.8285
  707MOL0     C93211   2.113   7.609   9.492  0.5210 -0.1109 -0.4497
  707MOL0     C93212   1.999   7.519   9.458  1.5571  0.2082  0.6138
  707MOL0     C93213   1.851   7.570   9.465  0.2108 -0.0450  0.4399
  707MOL0     C93214   1.756   7.467   9.401  0.1640  0.0234 -0.4294
  707MOL0     C93215   1.622   7.436   9.483  0.0655 -0.9345  0.0189
  707MOL0     O93216   1.552   7.560   9.509 -0.2758 -0.4787  0.0491
  707MOL0     C93217   1.437   7.566   9.571  0.1760 -0.7233  0.4458
  707MOL0     C93218   1.378   7.469   9.645 -0.2272 -0.2378  0.0143
  707MOL0     C93219   1.258   7.494   9.713  0.4692  0.4281  0.6004
  707MOL0     C93220   1.191   7.614   9.697  1.1862 -0.0718  0.0706
  707MOL0     C93221   1.059   7.630   9.764  0.2927  0.5895 -0.0045
  707MOL0     O93222   1.014   7.542   9.851 -0.3896 -0.5419 -0.2393
  707MOL0     C93223   0.876   7.533   9.878 -0.2864  0.4551  0.2924
  707MOL0     C93224   0.780   7.497   9.774  0.4584 -0.0606  0.0670
  707MOL0     C93225   0.649   7.468   9.800  0.1459 -0.0928 -0.1630
  707MOL0     C93226   0.599   7.451   9.932  0.1989 -0.3095 -0.2891
  707MOL0     O93227   0.486   7.396   9.976  0.6460  0.2618  0.3331
  707MOL0     C93228   0.394   7.353   9.871  0.0343 -0.3700 -0.3227
  707MOL0     C93229   0.292   7.252   9.937  0.3380 -1.1173 -0.4517
  707MOL0     C93230   0.182   7.333  10.012  0.1054  0.5158  0.1217
  707MOL0     C93231   0.087   7.236  10.084  0.7452  0.3624 -0.1625
  707MOL0     C93232  -0.044   7.310  10.127 -0.9170  0.1538  0.3924
  707MOL0     C93233  -0.129   7.197  10.191  0.1997 -1.0379 -0.1549
  707MOL0     C93234  -0.283   7.219  10.197  0.2479 -0.0756  0.8569
  707MOL0     C93235  -0.312   7.336  10.300  0.0202  0.3537  0.2956
  707MOL0    Cl93236  -0.492   7.333  10.324  0.0491  0.0862 -0.5103
  707MOL0     C93237   0.692   7.482  10.034 -0.2275  0.3906 -0.0824
  707MOL0     C93238   0.826   7.525  10.003  0.0216  0.5283 -0.0861
  707MOL0     O93239   1.001   7.732   9.737 -0.8787  0.8063 -0.4979
  707MOL0     C93240   1.254   7.719   9.624  0.7756 -0.9490 -0.4505
  707MOL0     C93241   1.372   7.693   9.562  0.3997 -0.3487  0.8145
  707MOL0     N93242   2.146   7.737   9.447  0.3740  0.1622  0.2679
  707MOL0     N93243   2.254   7.773   9.502 -0.4549 -0.6406  0.2860
  707MOL0     C93244   3.537   7.288   9.861 -0.1244 -0.0067  0.6385
  707MOL0     C93245   3.662   7.251   9.812  0.5561  0.1992  0.4874
  707MOL0     C93246   4.105   7.250   9.722 -0.6943 -1.0781 -0.8666
  707MOL0     C93247   4.200   7.198   9.815 -0.0604 -1.2674 -0.5086
  707MOL0     C93248   4.331   7.186   9.775 -0.6429  0.7761 -0.5915
  707MOL0     C93249   4.376   7.229   9.646 -0.0699 -0.4607  0.7160
  707MOL0     O93250   4.503   7.204   9.598 -0.8769  0.6980 -0.6809
  707MOL0     C93251   4.590   7.113   9.659 -0.8584  0.3558 -0.2420
  707MOL0     C93252   4.648   7.042   9.529  0.6995  0.6657  0.0841
  707MOL0     C93253   4.775   6.960   9.564 -0.0370  0.4566  0.0692
  707MOL0     C93254   4.842   6.902   9.438  0.2451  0.2891 -0.1156
  707MOL0     C93255   4.960   6.820   9.478 -0.0286  0.4574 -0.3272
  707MOL0     C93256   5.044   6.742   9.522 -0.7788 -0.5979  0.1670
  707MOL0     C93257   4.283   7.284   9.557 -0.2238  0.1040 -0.1937
  707MOL0     C93258   4.149   7.289   9.592  0.2587  0.0811 -0.1745
  707MOL0     H93259   3.745   7.533   9.655  0.5143 -0.6589 -0.2905
  707MOL0     H93260   3.504   7.582   9.711  0.2289  0.5625  2.5283
  707MOL0     H93261   3.225   7.370   9.713 -0.0112  2.3552 -2.4527
  707MOL0     H93262   3.294   7.529   9.688 -2.0536  0.8116 -0.4343
  707MOL0     H93263   3.136   7.625   9.828 -0.6124  0.2580 -3.2625
  707MOL0     H93264   3.099   7.478   9.916 -1.0809 -0.3280 -1.5824
  707MOL0     H93265   3.000   7.398   9.677 -0.0735 -0.6600  0.6008
  707MOL0     H93266   3.042   7.566   9.626 -1.4229 -0.9775 -0.6283
  707MOL0     H93267   2.843   7.479   9.835  0.5130  2.3464  2.0895
  707MOL0     H93268   2.894   7.645   9.817  1.9898  1.8706 -3.1372
  707MOL0     H93269   2.731   7.475   9.623  0.9332 -0.5437  0.1005
  707MOL0     H93270   2.802   7.636   9.575  1.0430  1.9174  1.7610
  707MOL0     H93271   2.674   7.742   9.739  2.1649 -1.1639 -0.3616
  707MOL0     H93272   2.630   7.599   9.827  0.3864 -0.3813  0.4786
  707MOL0     H93273   2.555   7.687   9.538  0.2702 -1.0720 -0.9115
  707MOL0     H93274   2.506   7.530   9.594  0.0257  0.0645  1.2467
  707MOL0     H93275   2.419   7.803   9.695 -1.2300  0.9374 -0.1219
  707MOL0     H93276   2.382   7.646   9.776  0.9598  0.3286  0.2837
  707MOL0     H93277   2.216   7.463   9.621  1.4662 -0.0590  0.2563
  707MOL0     H93278   2.005   7.445   9.537  0.0362 -0.6341 -0.0022
  707MOL0     H93279   2.015   7.476   9.358  0.6175  0.5895  0.2840
  707MOL0     H93280   1.841   7.664   9.410  2.3021 -0.8108 -1.3982
  707MOL0     H93281   1.828   7.582   9.571 -1.3044 -0.9560  0.2564
  707MOL0     H93282   1.734   7.503   9.300  1.8737  3.6292  0.3314
  707MOL0     H93283   1.798   7.366   9.397  0.0421 -0.0655  0.3332
  707MOL0     H93284   1.653   7.391   9.578  0.0605 -0.6441  0.1580
  707MOL0     H93285   1.551   7.378   9.423 -2.4700  1.6895  0.2579
  707MOL0     H93286   1.419   7.369   9.659 -1.6103 -0.9105 -0.5619
  707MOL0     H93287   1.217   7.415   9.775 -0.1964  0.3592  0.0775
  707MOL0     H93288   0.807   7.499   9.669  2.1377  3.4418  0.4241
  707MOL0     H93289   0.586   7.444   9.715 -0.8603  0.5745  0.3762
  707MOL0     H93290   0.454   7.289   9.805  2.7522 -0.2278  1.8369
  707MOL0     H93291   0.339   7.435   9.824 -2.1673 -2.0054 -0.7898
  707MOL0     H93292   0.335   7.185  10.012 -1.5926 -1.2013  0.6609
  707MOL0     H93293   0.235   7.204   9.857  1.2428  0.3388 -2.0440
  707MOL0     H93294   0.131   7.387   9.932 -0.6546  0.4121  0.5305
  707MOL0     H93295   0.219   7.407  10.084  0.5543  0.3000  0.1157
  707MOL0     H93296   0.039   7.163  10.019 -3.0580  1.6631  0.9320
  707MOL0     H93297   0.139   7.189  10.167  1.6039 -1.6345 -1.7508
  707MOL0     H93298  -0.094   7.350  10.039  2.2164 -1.4338 -2.3211
  707MOL0     H93299  -0.013   7.395  10.189 -1.9367  1.0110 -0.2512
  707MOL0     H93300  -0.090   7.174  10.290  1.1324 -0.5624 -0.4011
  707MOL0     H93301  -0.128   7.106  10.130  0.6384 -0.3899 -1.1454
  707MOL0     H93302  -0.329   7.239  10.100  0.0138 -0.5410  0.8663
  707MOL0     H93303  -0.334   7.125  10.222  0.9429 -0.4799  0.7969
  707MOL0     H93304  -0.261   7.428  10.271  0.8007  0.4242  1.8240
  707MOL0     H93305  -0.261   7.311  10.393 -0.4396  0.7655  0.6641
  707MOL0     H93306   0.666   7.466  10.138  0.7476 -3.4465 -0.2671
  707MOL0     H93307   0.896   7.546  10.083  1.9645 -0.7890 -1.3790
  707MOL0     H93308   1.195   7.807   9.603 -0.8178 -2.4177 -2.5396
  707MOL0     H93309   1.425   7.764   9.498  1.3713 -1.3077  0.5333
  707MOL0     H93310   3.496   7.208   9.921  1.7803 -3.0340 -1.7814
  707MOL0     H93311   3.706   7.160   9.850  0.5457 -1.2618 -2.7011
  707MOL0     H93312   4.164   7.166   9.912  0.8026  1.8333  0.9653
  707MOL0     H93313   4.395   7.131   9.843  0.4002  2.1108 -0.4366
  707MOL0     H93314   4.531   7.047   9.723 -0.7649 -0.5520 -1.0655
  707MOL0     H93315   4.672   7.158   9.715 -0.1430 -0.2762 -0.7576
  707MOL0     H93316   4.572   6.972   9.491  0.3543  0.5427  0.9846
  707MOL0     H93317   4.678   7.111   9.450  0.1531 -0.4062 -1.1110
  707MOL0     H93318   4.748   6.880   9.633  2.8991 -0.4653  0.2713
  707MOL0     H93319   4.855   7.010   9.619  0.9845 -1.3672  0.3325
  707MOL0     H93320   4.777   6.848   9.368  1.2293  1.6094 -2.1426
  707MOL0     H93321   4.880   6.981   9.372  1.0183  0.2384  0.2548
  707MOL0     H93322   5.118   6.680   9.566  2.0727  0.9701 -2.0880
  707MOL0     H93323   4.315   7.321   9.459 -4.1189 -1.7030 -2.3668
  707MOL0     H93324   4.077   7.322   9.517  2.4784  0.1353 -2.4434
  708MOL0     O93325   7.010  11.039   9.119  0.0810 -0.4385 -0.8750
  708MOL0     C93326   7.062  11.144   9.130 -0.8407  0.0207  0.2420
  708MOL0     O93327   6.999  11.265   9.106 -0.3230 -0.0806  0.5902
  708MOL0     C93328   6.863  11.259   9.074  0.4167  0.3651  0.3227
  708MOL0     C93329   6.755  11.220   9.167 -0.3537  0.0939  0.1752
  708MOL0     C93330   6.621  11.253   9.128 -0.5577 -0.1791 -0.5176
  708MOL0     C93331   6.594  11.302   8.997 -0.2521  0.3395 -0.2120
  708MOL0     O93332   6.472  11.328   8.944 -0.0588 -0.9793  0.2245
  708MOL0     C93333   6.366  11.243   8.992  0.2757  0.1444  0.2010
  708MOL0     C93334   6.236  11.274   8.916 -0.1215 -0.3352 -0.3730
  708MOL0     C93335   6.167  11.401   8.953  0.0911 -0.2336  0.2101
  708MOL0     C93336   6.024  11.414   8.910  0.4121 -0.4371  0.3295
  708MOL0     C93337   5.952  11.533   8.966  0.0597  0.6697 -0.6108
  708MOL0     C93338   5.807  11.547   8.920  0.3329 -0.2323 -0.4153
  708MOL0     C93339   5.734  11.680   8.953 -0.6885  0.9743  0.1704
  708MOL0     C93340   5.692  11.697   9.104 -0.2758 -0.0566  1.2183
  708MOL0     N93341   5.567  11.625   9.135  0.1999  0.1104  0.1601
  708MOL0     C93342   5.448  11.680   9.116  1.6366  0.3855  0.1117
  708MOL0     C93343   5.367  11.584   9.164 -0.0847  1.4347 -0.4071
  708MOL0     C93344   5.216  11.591   9.174 -0.4961 -0.0844  1.0964
  708MOL0     C93345   5.165  11.545   9.038  0.7292 -0.6461 -0.4068
  708MOL0     C93346   5.012  11.565   9.019  0.7728 -0.8733 -0.0138
  708MOL0     C93347   4.922  11.493   9.118  0.0205 -0.4489 -0.4273
  708MOL0     O93348   4.786  11.528   9.094 -0.3492 -0.0230  0.4127
  708MOL0     C93349   4.691  11.476   9.183 -0.2103  0.5968 -0.1464
  708MOL0     C93350   4.715  11.414   9.310  0.6829 -0.2579  0.1888
  708MOL0     C93351   4.607  11.374   9.395 -0.2412 -0.3471  0.3004
  708MOL0     C93352   4.476  11.407   9.361  0.5268 -0.2189 -0.0762
  708MOL0     C93353   4.370  11.383   9.457  0.4640  0.1643 -0.5561
  708MOL0     O93354   4.405  11.337   9.579 -0.8262 -0.3328 -0.4833
  708MOL0     C93355   4.393  11.418   9.696 -0.7761 -1.0008  0.3498
  708MOL0     C93356   4.412  11.354   9.821  0.3888  0.1366  0.2873
  708MOL0     C93357   4.430  11.438   9.930 -0.1013 -0.0434  0.6805
  708MOL0     C93358   4.396  11.569   9.930 -0.4801 -0.9520  0.0402
  708MOL0     O93359   4.372  11.644  10.043  0.8369 -0.1161 -0.5817
  708MOL0     C93360   4.321  11.587  10.160 -0.3386 -0.8552  0.8175
  708MOL0     C93361   4.308  11.699  10.265  0.8867 -0.0241 -0.0985
  708MOL0     C93362   4.200  11.799  10.223  0.6743  0.0418  0.6644
  708MOL0     C93363   4.216  11.922  10.325 -0.5886  0.2327  0.4182
  708MOL0     C93364   4.098  12.017  10.295 -0.9137  0.1231  0.0458
  708MOL0     C93365   4.099  12.147  10.381  0.2769 -0.6004 -1.2490
  708MOL0     C93366   3.972  12.236  10.377  0.0846  0.1073  0.1010
  708MOL0     C93367   3.854  12.160  10.440  0.8775  0.1947 -0.4846
  708MOL0    Cl93368   3.709  12.266  10.434  0.4989 -0.1573  0.0018
  708MOL0     C93369   4.379  11.636   9.803 -0.3048 -0.7563 -0.3848
  708MOL0     C93370   4.374  11.556   9.687 -0.7448 -0.7547  0.1686
  708MOL0     O93371   4.261  11.408   9.427  0.0035  0.5131  0.0803
  708MOL0     C93372   4.452  11.461   9.234  0.0205 -0.3473  0.7607
  708MOL0     C93373   4.559  11.495   9.144 -0.0582  0.2404 -0.0617
  708MOL0     N93374   5.440  11.473   9.214 -0.7052 -0.0375 -0.1028
  708MOL0     N93375   5.561  11.495   9.195  0.9270 -0.1159 -0.3966
  708MOL0     C93376   6.700  11.337   8.917 -0.4385  0.3880 -0.3491
  708MOL0     C93377   6.835  11.316   8.951  0.4537  0.3881  0.2677
  708MOL0     C93378   7.208  11.148   9.154 -0.7259 -1.0843  0.3050
  708MOL0     C93379   7.275  11.274   9.172 -0.9275  0.9579  0.0122
  708MOL0     C93380   7.415  11.273   9.209 -0.0067 -0.1346 -0.3321
  708MOL0     C93381   7.495  11.159   9.211 -0.1318  0.0887  0.1363
  708MOL0     O93382   7.625  11.153   9.248 -0.2897  0.3789  0.2791
  708MOL0     C93383   7.682  11.276   9.302 -0.2481  0.3272  0.3305
  708MOL0     C93384   7.834  11.265   9.308  0.3769  0.4172  0.0066
  708MOL0     C93385   7.877  11.162   9.416 -0.3647 -0.1324  0.6840
  708MOL0     C93386   8.022  11.127   9.422 -0.9636  0.0019  0.0807
  708MOL0     C93387   8.115  11.244   9.424  1.1502 -0.0996  0.8569
  708MOL0     C93388   8.194  11.337   9.431  0.0108  0.0890 -0.0065
  708MOL0     C93389   7.429  11.036   9.177  0.4999 -0.5795  0.2824
  708MOL0     C93390   7.291  11.030   9.156  0.5440  0.8221 -0.9730
  708MOL0     H93391   6.779  11.162   9.255  0.0694  0.3393  0.2196
  708MOL0     H93392   6.535  11.228   9.189 -0.5669 -1.8873 -1.1633
  708MOL0     H93393   6.349  11.271   9.097 -3.2227  1.3589 -0.5462
  708MOL0     H93394   6.398  11.139   8.982  0.0708  0.0444  0.5682
  708MOL0     H93395   6.165  11.194   8.941  0.7131 -1.6639 -2.0499
  708MOL0     H93396   6.249  11.280   8.808 -2.8729  1.8501 -0.6999
  708MOL0     H93397   6.224  11.486   8.914  2.0335 -2.2113 -1.5662
  708MOL0     H93398   6.171  11.394   9.062 -1.0978 -1.7613  0.1896
  708MOL0     H93399   6.011  11.413   8.801 -1.4481 -0.8087  0.5279
  708MOL0     H93400   5.977  11.328   8.958 -1.7579  0.3645 -0.2384
  708MOL0     H93401   6.015  11.622   8.950  1.0454  0.7754  3.1195
  708MOL0     H93402   5.949  11.540   9.075  0.1785 -2.0853 -0.3577
  708MOL0     H93403   5.750  11.468   8.971 -0.4174  1.0203  0.7367
  708MOL0     H93404   5.802  11.546   8.810 -1.2262 -1.0373 -0.3815
  708MOL0     H93405   5.803  11.762   8.933  0.0878  0.6505  1.4593
  708MOL0     H93406   5.646  11.676   8.887 -0.7597 -2.8814  0.2573
  708MOL0     H93407   5.667  11.801   9.128  1.8437  0.6728  0.4864
  708MOL0     H93408   5.773  11.670   9.172 -0.9137 -0.9430  1.6479
  708MOL0     H93409   5.398  11.765   9.072 -1.4060  0.2278  2.9242
  708MOL0     H93410   5.179  11.691   9.201 -2.5212  0.0411 -1.7294
  708MOL0     H93411   5.179  11.531   9.258  0.4680 -1.0224  0.8719
  708MOL0     H93412   5.200  11.442   9.032 -1.1870 -1.2743 -1.7864
  708MOL0     H93413   5.225  11.598   8.963  1.0194 -0.9632 -0.3969
  708MOL0     H93414   4.988  11.671   9.014 -2.3306 -1.5096 -0.6502
  708MOL0     H93415   4.981  11.508   8.931  0.2644  0.3881 -0.6840
  708MOL0     H93416   4.944  11.510   9.224 -1.2070 -2.0683  0.1164
  708MOL0     H93417   4.925  11.387   9.091 -3.2086 -0.8556  0.3806
  708MOL0     H93418   4.815  11.383   9.340  1.3843  1.4956 -0.1980
  708MOL0     H93419   4.624  11.313   9.482  1.4027  0.1624  0.3597
  708MOL0     H93420   4.418  11.247   9.833  0.7261 -0.0244 -1.1709
  708MOL0     H93421   4.457  11.384  10.020 -2.1416 -4.9787 -1.3233
  708MOL0     H93422   4.377  11.504  10.203 -2.8686 -2.6582  0.8415
  708MOL0     H93423   4.227  11.545  10.122  0.0695  0.1350 -1.4824
  708MOL0     H93424   4.405  11.746  10.284  1.2967 -1.0915  0.5212
  708MOL0     H93425   4.273  11.658  10.360 -1.1162  0.7860 -0.4223
  708MOL0     H93426   4.099  11.758  10.232  0.4683  0.5102  0.4934
  708MOL0     H93427   4.213  11.827  10.118 -1.2290 -1.6152 -0.0677
  708MOL0     H93428   4.221  11.881  10.426 -0.9429 -0.7980  0.0320
  708MOL0     H93429   4.310  11.973  10.304  0.3588 -1.1541  1.1277
  708MOL0     H93430   3.999  11.973  10.310 -0.4262 -0.1010  3.4486
  708MOL0     H93431   4.108  12.043  10.190  0.7494 -2.1965 -0.4571
  708MOL0     H93432   4.181  12.205  10.338  0.0601 -0.2103 -1.1398
  708MOL0     H93433   4.118  12.117  10.485  2.6187  4.0715 -0.0771
  708MOL0     H93434   3.992  12.323  10.440 -1.9065  0.1186  0.8048
  708MOL0     H93435   3.944  12.272  10.277  0.6635  0.0674 -0.0787
  708MOL0     H93436   3.872  12.134  10.545 -0.9643 -1.6707 -0.5724
  708MOL0     H93437   3.833  12.065  10.390  2.0696 -0.3771  0.0491
  708MOL0     H93438   4.357  11.741   9.785 -3.4501 -1.5941 -2.0730
  708MOL0     H93439   4.368  11.606   9.590 -0.0497 -0.3763  0.3154
  708MOL0     H93440   4.351  11.475   9.197 -0.0267 -0.9076  0.6571
  708MOL0     H93441   4.531  11.557   9.060 -4.0496 -0.8770  0.2445
  708MOL0     H93442   6.669  11.378   8.822 -1.1794 -2.6492 -1.5135
  708MOL0     H93443   6.919  11.344   8.889 -0.8909  1.7880 -1.0138
  708MOL0     H93444   7.218  11.366   9.172 -1.7931  0.4995  2.2808
  708MOL0     H93445   7.453  11.370   9.242 -1.9475  0.2007  1.0554
  708MOL0     H93446   7.650  11.300   9.404  0.6158 -1.6639  1.1092
  708MOL0     H93447   7.673  11.369   9.246  0.6169  0.4543  0.3930
  708MOL0     H93448   7.882  11.247   9.211  2.0791  2.0444  0.4921
  708MOL0     H93449   7.869  11.364   9.337 -1.0526  0.3246  2.2011
  708MOL0     H93450   7.822  11.068   9.404 -3.1372  1.3863  0.7740
  708MOL0     H93451   7.865  11.205   9.516  0.9775 -1.8937  1.6628
  708MOL0     H93452   8.035  11.091   9.525  1.0036 -1.5821 -0.6619
  708MOL0     H93453   8.054  11.059   9.343  1.3536  3.0072 -1.7570
  708MOL0     H93454   8.270  11.409   9.452 -2.6271  3.4445 -1.0373
  708MOL0     H93455   7.488  10.946   9.188  3.2013  0.9006 -1.1652
  708MOL0     H93456   7.245  10.931   9.159  0.6464  0.7577  2.3260
  709MOL0     O93457   5.606   5.492   5.221 -0.1728 -0.4048  0.2870
  709MOL0     C93458   5.629   5.583   5.133 -0.0002  0.0097  0.6532
  709MOL0     O93459   5.535   5.638   5.050 -0.0357 -0.9190  0.1011
  709MOL0     C93460   5.414   5.583   5.037 -0.1212 -0.0188  0.2851
  709MOL0     C93461   5.406   5.457   4.975  0.1851  0.0941 -0.8492
  709MOL0     C93462   5.279   5.402   4.955 -0.6724  0.4743 -0.7130
  709MOL0     C93463   5.158   5.467   4.981 -0.2076 -0.7209  0.0165
  709MOL0     O93464   5.047   5.383   4.968 -0.6736  0.0858 -0.1148
  709MOL0     C93465   4.919   5.433   4.987  0.6799  0.3175 -0.6519
  709MOL0     C93466   4.822   5.320   5.020  0.4397 -0.2468 -0.6287
  709MOL0     C93467   4.680   5.364   5.039 -0.8128 -0.0865 -0.9257
  709MOL0     C93468   4.603   5.231   5.060 -0.3014  0.3753 -0.2426
  709MOL0     C93469   4.452   5.255   5.040 -0.1247  0.3745 -0.0319
  709MOL0     C93470   4.385   5.112   5.044 -0.4482 -0.0534 -0.0955
  709MOL0     C93471   4.237   5.125   5.079 -0.1729  0.0313  0.9047
  709MOL0     C93472   4.177   4.981   5.109  0.9054 -1.3434  0.8873
  709MOL0     N93473   4.041   4.961   5.156  0.7449 -0.0994  0.5912
  709MOL0     C93474   3.947   5.058   5.149  1.2366 -0.4904 -0.2273
  709MOL0     C93475   3.837   4.983   5.192  1.1736 -0.6375  0.4976
  709MOL0     C93476   3.698   5.041   5.190 -0.4445  0.3760  0.5849
  709MOL0     C93477   3.646   5.009   5.045  0.5702 -0.5090  0.2377
  709MOL0     C93478   3.504   5.068   5.000  0.1732 -0.4653 -0.4114
  709MOL0     C93479   3.398   5.022   5.091  0.2104  0.1172 -0.1966
  709MOL0     O93480   3.287   5.122   5.085 -0.0424 -0.3811  0.6492
  709MOL0     C93481   3.185   5.106   4.989 -0.2069  0.7963  0.0937
  709MOL0     C93482   3.197   5.019   4.881  0.6650 -0.5569  0.6983
  709MOL0     C93483   3.087   4.987   4.802 -0.7360  0.1647 -0.1615
  709MOL0     C93484   2.967   5.062   4.812  0.4186 -0.9134 -0.7278
  709MOL0     C93485   2.856   5.034   4.728  0.0480 -0.5819  0.2180
  709MOL0     O93486   2.764   5.135   4.732  0.3196 -0.7894  0.1088
  709MOL0     C93487   2.640   5.128   4.686  0.0353 -1.1060 -0.7733
  709MOL0     C93488   2.616   5.092   4.555  0.5957 -0.0151  0.1999
  709MOL0     C93489   2.485   5.086   4.511 -0.3294  0.0716 -0.4200
  709MOL0     C93490   2.380   5.116   4.595  0.8521 -0.3715  0.0105
  709MOL0     O93491   2.241   5.111   4.561 -0.5479 -0.2915 -0.2914
  709MOL0     C93492   2.216   5.053   4.433 -0.7160 -0.1789  0.4691
  709MOL0     C93493   2.067   5.024   4.426 -0.6573  0.7278  0.0533
  709MOL0     C93494   1.979   5.149   4.440  0.5208  0.4404  0.2521
  709MOL0     C93495   1.839   5.116   4.407  0.2451 -0.4845  0.5103
  709MOL0     C93496   1.754   5.236   4.376 -0.6012 -0.0820  0.1060
  709MOL0     C93497   1.627   5.186   4.319  0.1407 -0.5521 -0.6338
  709MOL0     C93498   1.521   5.293   4.302 -0.3841 -0.3325 -0.8362
  709MOL0     C93499   1.388   5.225   4.267 -0.3770 -0.2041  0.0290
  709MOL0    Cl93500   1.316   5.158   4.414  0.1284  0.4843 -0.0812
  709MOL0     C93501   2.410   5.161   4.722 -0.2508  1.0139 -0.8210
  709MOL0     C93502   2.544   5.171   4.773 -0.6322 -0.6433 -0.7019
  709MOL0     O93503   2.843   4.941   4.660  0.7321  1.0174 -0.5922
  709MOL0     C93504   2.963   5.158   4.919 -0.1301  0.3282 -0.6041
  709MOL0     C93505   3.068   5.180   5.007  0.5817  0.2128 -0.3277
  709MOL0     N93506   3.865   4.852   5.215  0.0593 -0.5900  0.3701
  709MOL0     N93507   3.986   4.840   5.184  0.5191  0.3522 -0.6072
  709MOL0     C93508   5.167   5.598   5.042  0.9925 -0.6401 -0.1026
  709MOL0     C93509   5.296   5.651   5.064  0.1668 -0.9209 -0.4406
  709MOL0     C93510   5.768   5.635   5.136  0.4344  0.0448  0.5115
  709MOL0     C93511   5.842   5.659   5.019  1.2912 -0.9186 -0.0820
  709MOL0     C93512   5.967   5.704   5.037 -0.6310 -0.3198 -0.1909
  709MOL0     C93513   6.018   5.742   5.161 -0.6671 -0.1664 -0.5905
  709MOL0     O93514   6.147   5.791   5.174  0.0117 -1.0593 -0.0957
  709MOL0     C93515   6.233   5.776   5.068 -0.9690 -0.2388  0.2827
  709MOL0     C93516   6.374   5.805   5.121 -0.2390 -0.6341 -1.2934
  709MOL0     C93517   6.473   5.860   5.011  0.2180 -0.0141 -0.2836
  709MOL0     C93518   6.592   5.926   5.083 -0.3867 -0.4147 -0.6218
  709MOL0     C93519   6.683   5.984   4.979  0.2677  0.0019  0.6859
  709MOL0     C93520   6.735   6.041   4.886 -0.0446  0.2500 -0.7047
  709MOL0     C93521   5.945   5.724   5.270  0.3418  0.3322 -0.1771
  709MOL0     C93522   5.820   5.664   5.266  0.5774  0.5663  0.2499
  709MOL0     H93523   5.501   5.408   4.957 -0.9159 -1.8291 -1.6475
  709MOL0     H93524   5.275   5.299   4.919 -0.9794  0.6636 -1.2319
  709MOL0     H93525   4.887   5.473   4.890 -1.3778  1.2085  0.3165
  709MOL0     H93526   4.909   5.518   5.056 -0.3920 -1.4874  1.5291
  709MOL0     H93527   4.853   5.265   5.110  1.6202  1.0613 -0.1760
  709MOL0     H93528   4.820   5.260   4.929  1.7512  1.0752 -1.5886
  709MOL0     H93529   4.652   5.422   4.950 -1.2128 -1.3721 -1.6495
  709MOL0     H93530   4.675   5.422   5.132  1.7623 -2.6979  1.0297
  709MOL0     H93531   4.639   5.159   4.986  0.2929 -0.3033  0.6772
  709MOL0     H93532   4.635   5.195   5.158 -1.0981  2.0413  0.6588
  709MOL0     H93533   4.415   5.297   4.947 -1.8422 -1.4322 -0.2323
  709MOL0     H93534   4.416   5.323   5.118  0.4290  0.9657 -0.2834
  709MOL0     H93535   4.423   5.051   5.126  0.1673 -1.5334 -1.4297
  709MOL0     H93536   4.398   5.062   4.947  0.5672  1.8153 -0.9949
  709MOL0     H93537   4.232   5.200   5.158  4.3826  1.2827  0.3077
  709MOL0     H93538   4.176   5.166   4.998 -1.2632 -0.8026  1.2808
  709MOL0     H93539   4.243   4.929   5.180  0.3078  0.4886  2.9126
  709MOL0     H93540   4.180   4.928   5.013  2.2581  0.0858  0.1018
  709MOL0     H93541   3.942   5.165   5.134 -1.6390 -0.6248 -0.9133
  709MOL0     H93542   3.705   5.149   5.204 -2.4266  0.6837 -0.4639
  709MOL0     H93543   3.640   4.994   5.270 -2.2906 -2.3247 -2.1101
  709MOL0     H93544   3.640   4.900   5.032 -2.5249 -0.2136 -1.6470
  709MOL0     H93545   3.719   5.046   4.973  2.8974  0.1139  2.7154
  709MOL0     H93546   3.512   5.177   5.009  0.4126 -0.4344 -0.9348
  709MOL0     H93547   3.485   5.045   4.894 -3.4277 -0.8538  0.1909
  709MOL0     H93548   3.430   5.016   5.195  2.7060 -0.7545 -0.9384
  709MOL0     H93549   3.363   4.922   5.061 -1.7541  1.1091 -1.4153
  709MOL0     H93550   3.286   4.961   4.861  0.0105 -1.2697 -0.1824
  709MOL0     H93551   3.084   4.899   4.739 -0.4323 -1.9804  2.6396
  709MOL0     H93552   2.689   5.071   4.477 -0.0050 -0.4819 -0.2499
  709MOL0     H93553   2.471   5.060   4.407  1.5461  0.5398 -0.8403
  709MOL0     H93554   2.276   4.963   4.423  0.7468  0.7377  0.6551
  709MOL0     H93555   2.253   5.119   4.354 -0.2316  0.0984  0.9227
  709MOL0     H93556   2.036   4.963   4.512 -3.1983  1.4155 -0.2713
  709MOL0     H93557   2.036   4.985   4.328 -1.8287  0.8739  0.3429
  709MOL0     H93558   2.013   5.219   4.363 -1.6873 -0.1875 -1.4095
  709MOL0     H93559   1.996   5.192   4.539  2.8926 -2.0910  1.0707
  709MOL0     H93560   1.838   5.049   4.321  0.9100  0.6945 -0.4490
  709MOL0     H93561   1.806   5.057   4.493  0.3349  0.3297  1.1151
  709MOL0     H93562   1.814   5.304   4.315  0.3908 -0.8906  0.1621
  709MOL0     H93563   1.732   5.287   4.471 -0.0716 -1.0544  0.7739
  709MOL0     H93564   1.593   5.109   4.388  2.2915  1.6635  3.2983
  709MOL0     H93565   1.642   5.145   4.219  0.2782  2.5029 -1.9720
  709MOL0     H93566   1.500   5.337   4.400  3.2727 -0.5301  0.1783
  709MOL0     H93567   1.546   5.375   4.234  2.4168 -2.2246 -2.3040
  709MOL0     H93568   1.408   5.143   4.198 -1.7484 -0.2808 -0.3039
  709MOL0     H93569   1.328   5.304   4.220  0.8949  0.4839 -0.4866
  709MOL0     H93570   2.334   5.180   4.798  1.7366  4.0844  0.6177
  709MOL0     H93571   2.565   5.205   4.874 -1.4159  2.7697 -1.5607
  709MOL0     H93572   2.873   5.217   4.935 -0.1603  0.7110 -2.0635
  709MOL0     H93573   3.057   5.255   5.084  4.2515  1.2223 -0.6319
  709MOL0     H93574   5.080   5.662   5.053  1.7842  0.4779 -0.2365
  709MOL0     H93575   5.314   5.754   5.095  0.0803 -0.6868 -1.1562
  709MOL0     H93576   5.807   5.626   4.922 -1.2850  1.8530 -0.2458
  709MOL0     H93577   6.025   5.720   4.946 -0.3471 -0.2979 -0.0072
  709MOL0     H93578   6.213   5.847   4.987 -0.3282  1.3623  1.4505
  709MOL0     H93579   6.230   5.674   5.029  2.9001  0.1137 -1.4257
  709MOL0     H93580   6.374   5.887   5.193 -0.8996  0.9718 -3.0246
  709MOL0     H93581   6.415   5.717   5.171 -0.4746 -0.3992 -0.6738
  709MOL0     H93582   6.421   5.936   4.953 -0.7336 -0.5096 -0.0952
  709MOL0     H93583   6.506   5.787   4.936  1.2752  0.5863 -0.4216
  709MOL0     H93584   6.570   6.008   5.151 -1.8757  0.7130 -2.3785
  709MOL0     H93585   6.646   5.848   5.137  1.1031  0.3984 -0.8896
  709MOL0     H93586   6.802   6.079   4.811  2.3508  0.2824  1.3145
  709MOL0     H93587   5.992   5.748   5.365 -1.7993  2.7745  0.3767
  709MOL0     H93588   5.743   5.649   5.341 -2.0435  2.3428 -1.9069
  710MOL0     O93589  10.754   1.188  10.076  0.8444  0.1681  0.0112
  710MOL0     C93590  10.808   1.152   9.972  0.2328 -0.6812 -0.0363
  710MOL0     O93591  10.748   1.147   9.856  0.1923  0.1191 -0.2245
  710MOL0     C93592  10.614   1.156   9.829  0.0243  0.0080  0.1758
  710MOL0     C93593  10.514   1.127   9.925 -0.4304  1.2527  0.0615
  710MOL0     C93594  10.380   1.166   9.910 -0.6625  0.5125 -0.0450
  710MOL0     C93595  10.350   1.216   9.783 -0.1521  0.0677 -0.2563
  710MOL0     O93596  10.221   1.253   9.755  0.0827 -0.2035  0.1011
  710MOL0     C93597  10.115   1.247   9.849 -0.4979 -0.3792  0.1040
  710MOL0     C93598  10.005   1.340   9.795 -0.9163  0.5408  0.6913
  710MOL0     C93599   9.872   1.338   9.877 -0.5774  0.0849  0.2712
  710MOL0     C93600   9.769   1.427   9.799 -1.3416 -0.0852 -0.0993
  710MOL0     C93601   9.626   1.432   9.858 -0.1946 -0.9635  0.1281
  710MOL0     C93602   9.530   1.507   9.767 -0.3562 -1.3245  0.7264
  710MOL0     C93603   9.500   1.435   9.630 -0.1577 -0.6479 -0.1658
  710MOL0     C93604   9.410   1.527   9.536  0.6226 -0.1634 -0.1393
  710MOL0     N93605   9.402   1.484   9.402 -0.4219 -0.5213 -0.1542
  710MOL0     C93606   9.283   1.438   9.350 -0.7451  0.7910  0.1559
  710MOL0     C93607   9.314   1.402   9.227 -0.6939 -0.6011 -0.9724
  710MOL0     C93608   9.223   1.352   9.124 -1.0292 -0.6448  0.7721
  710MOL0     C93609   9.234   1.448   9.006  0.4297  0.4034 -0.1681
  710MOL0     C93610   9.166   1.404   8.880  0.9041  0.0366 -0.3007
  710MOL0     C93611   9.021   1.370   8.898 -0.2182  0.0274  0.3796
  710MOL0     O93612   8.948   1.483   8.956  0.0805  0.3199  0.1248
  710MOL0     C93613   8.812   1.466   8.964  0.5861  0.1799  0.5363
  710MOL0     C93614   8.744   1.346   8.931  1.2429  0.3337  0.6161
  710MOL0     C93615   8.605   1.325   8.934  0.9840  0.4380 -0.3555
  710MOL0     C93616   8.533   1.437   8.967 -0.0911  1.2232 -0.6293
  710MOL0     C93617   8.383   1.421   8.966  0.4552  0.0932  0.9427
  710MOL0     O93618   8.333   1.298   8.962  0.3287 -1.1173  0.2085
  710MOL0     C93619   8.196   1.286   8.955 -0.5147 -0.7374  0.2943
  710MOL0     C93620   8.144   1.171   8.886 -0.7787 -0.5911 -0.4962
  710MOL0     C93621   8.011   1.154   8.866 -0.5288  0.0928 -0.6968
  710MOL0     C93622   7.917   1.238   8.915  0.4167  0.1172  0.4051
  710MOL0     O93623   7.781   1.222   8.905  0.2324 -0.3824 -0.3720
  710MOL0     C93624   7.736   1.161   8.783 -0.1366  0.5347 -0.4411
  710MOL0     C93625   7.591   1.197   8.747 -0.0865  0.8816  0.0313
  710MOL0     C93626   7.568   1.342   8.730 -0.0828 -1.0637 -0.0728
  710MOL0     C93627   7.439   1.364   8.655  0.3869 -0.4348 -0.8200
  710MOL0     C93628   7.306   1.307   8.707 -0.5862  0.1145 -0.4539
  710MOL0     C93629   7.189   1.355   8.619 -0.2291  0.1676 -0.3144
  710MOL0     C93630   7.054   1.309   8.673 -0.5332 -0.4950 -0.1643
  710MOL0     C93631   6.937   1.354   8.588  0.2216  0.4147 -0.0264
  710MOL0    Cl93632   6.939   1.333   8.418 -0.0179  0.7297  0.0478
  710MOL0     C93633   7.962   1.356   8.975  0.6984 -0.5142 -0.7725
  710MOL0     C93634   8.102   1.381   8.998 -0.0185  0.1680 -0.4459
  710MOL0     O93635   8.328   1.531   8.939 -0.1714  0.0614  0.3577
  710MOL0     C93636   8.593   1.562   8.993  0.4763  0.0468 -0.0793
  710MOL0     C93637   8.731   1.576   8.988 -0.6487 -0.0855  1.3536
  710MOL0     N93638   9.456   1.407   9.226  0.1626 -0.0603 -0.4408
  710MOL0     N93639   9.506   1.452   9.329 -0.5743  0.4887 -1.0014
  710MOL0     C93640  10.438   1.217   9.684 -1.1955  0.0527  0.1285
  710MOL0     C93641  10.575   1.191   9.700  0.3263 -0.1045 -1.1101
  710MOL0     C93642  10.957   1.111   9.967  0.3609 -0.9976 -0.8579
  710MOL0     C93643  11.025   1.060   9.855  0.3281  1.3644 -0.3052
  710MOL0     C93644  11.161   1.044   9.860 -0.9043 -0.3993 -0.2782
  710MOL0     C93645  11.231   1.060   9.983  0.6145  0.7094 -1.1399
  710MOL0     O93646  11.358   1.040  10.013  0.1321  0.1893 -0.2754
  710MOL0     C93647  11.439   0.927   9.957 -0.4052 -0.8360  0.3032
  710MOL0     C93648  11.587   0.969   9.973 -0.1689  0.3154 -0.2462
  710MOL0     C93649  11.638   0.980  10.120 -0.9722 -1.2166  0.0958
  710MOL0     C93650  11.676   0.849  10.194  0.9014 -0.7376 -0.3646
  710MOL0     C93651  11.784   0.783  10.120 -0.0674  0.6516  0.2379
  710MOL0     C93652  11.863   0.720  10.052 -0.3599 -0.2360 -0.2670
  710MOL0     C93653  11.161   1.101  10.103 -0.2329  0.3325  0.8048
  710MOL0     C93654  11.024   1.130  10.093  0.6408  0.7853  0.5416
  710MOL0     H93655  10.526   1.097  10.028 -3.2465 -1.2156 -0.1979
  710MOL0     H93656  10.310   1.155   9.992 -0.5913  2.5880  0.3587
  710MOL0     H93657  10.151   1.279   9.947  1.1143 -1.2880 -0.1562
  710MOL0     H93658  10.084   1.142   9.849 -0.7366 -0.3306 -1.2308
  710MOL0     H93659   9.990   1.319   9.688  2.8979  3.7337 -0.7326
  710MOL0     H93660  10.042   1.442   9.801  1.3947 -0.0009 -2.0786
  710MOL0     H93661   9.894   1.390   9.970  0.9002 -2.5215  1.5022
  710MOL0     H93662   9.824   1.243   9.902  1.5631 -0.6822  1.7536
  710MOL0     H93663   9.808   1.529   9.789 -4.5322  1.1085 -1.6113
  710MOL0     H93664   9.769   1.382   9.699 -1.3442 -0.8108  0.2208
  710MOL0     H93665   9.631   1.492   9.950 -1.6792  0.7766 -0.8409
  710MOL0     H93666   9.591   1.330   9.877 -0.1573 -0.7042  1.7223
  710MOL0     H93667   9.567   1.610   9.759  0.2073 -1.5627  0.1360
  710MOL0     H93668   9.437   1.516   9.823 -0.1144 -0.5893  1.0225
  710MOL0     H93669   9.593   1.422   9.574 -0.0337  1.0962 -0.4071
  710MOL0     H93670   9.449   1.342   9.659  1.2103 -0.6292  2.6332
  710MOL0     H93671   9.449   1.629   9.535  0.0506  0.1122  1.6134
  710MOL0     H93672   9.311   1.535   9.582  1.4740  2.1065  1.4978
  710MOL0     H93673   9.183   1.441   9.392 -1.0756  1.5722 -0.6487
  710MOL0     H93674   9.122   1.341   9.165 -1.1450 -3.1224 -0.0229
  710MOL0     H93675   9.259   1.256   9.085 -1.2569  0.4675 -2.4571
  710MOL0     H93676   9.335   1.474   8.971 -0.4052  0.5178 -2.7270
  710MOL0     H93677   9.180   1.535   9.043 -0.0748 -0.5903  1.5077
  710MOL0     H93678   9.165   1.495   8.820  0.1273  2.3495  2.9577
  710MOL0     H93679   9.224   1.325   8.832 -2.1658 -0.8111 -2.9499
  710MOL0     H93680   9.000   1.277   8.950  0.4799 -0.9100 -0.9502
  710MOL0     H93681   8.980   1.357   8.797 -0.2016 -1.3912  0.5429
  710MOL0     H93682   8.791   1.251   8.907  2.4126  0.8695  0.7178
  710MOL0     H93683   8.549   1.235   8.909  0.6901  0.3496  0.5751
  710MOL0     H93684   8.206   1.097   8.838  2.4651  1.9413 -0.6022
  710MOL0     H93685   7.975   1.065   8.816  1.6323 -0.8567 -0.6626
  710MOL0     H93686   7.735   1.052   8.789  1.7205  0.2466 -3.2612
  710MOL0     H93687   7.800   1.192   8.700 -0.7623  2.4454 -0.2495
  710MOL0     H93688   7.520   1.149   8.816  1.2919 -0.0610  0.8504
  710MOL0     H93689   7.569   1.142   8.655 -1.3685 -2.1577  1.9722
  710MOL0     H93690   7.645   1.391   8.670 -1.7626  1.6294 -0.1988
  710MOL0     H93691   7.551   1.386   8.828  0.7837 -0.6250 -0.1130
  710MOL0     H93692   7.416   1.471   8.659 -3.1869 -1.1006  2.2481
  710MOL0     H93693   7.450   1.318   8.556  0.3446 -2.0445 -0.0985
  710MOL0     H93694   7.295   1.341   8.810 -2.8369 -1.7459  0.0087
  710MOL0     H93695   7.304   1.198   8.704 -1.8900  0.1359 -1.7079
  710MOL0     H93696   7.203   1.327   8.515  2.1366  1.6467 -0.4505
  710MOL0     H93697   7.191   1.464   8.625  0.6154  0.2304 -1.4441
  710MOL0     H93698   7.055   1.202   8.695 -0.7230 -0.4636 -0.0085
  710MOL0     H93699   7.044   1.357   8.771  0.4361  1.5097 -0.9977
  710MOL0     H93700   6.902   1.457   8.597 -1.5233 -0.2292  0.9468
  710MOL0     H93701   6.855   1.302   8.639  1.7376  0.8906  3.0935
  710MOL0     H93702   7.888   1.424   9.018  2.7935  1.3803  0.0254
  710MOL0     H93703   8.115   1.468   9.063 -1.5223  0.6259 -0.7082
  710MOL0     H93704   8.524   1.634   9.036  1.0333  0.1167  0.7145
  710MOL0     H93705   8.781   1.669   9.012  2.4645 -1.5020  0.8955
  710MOL0     H93706  10.404   1.263   9.592  0.2785  0.0125 -0.4722
  710MOL0     H93707  10.648   1.209   9.623 -0.3923  1.0167 -1.5518
  710MOL0     H93708  10.976   1.049   9.758  0.2661 -0.4944 -0.0947
  710MOL0     H93709  11.233   1.026   9.780  1.8570  0.3312  1.8655
  710MOL0     H93710  11.412   0.902   9.854 -0.9007 -2.5681  0.8083
  710MOL0     H93711  11.417   0.840  10.019  0.7085 -0.3098  1.4847
  710MOL0     H93712  11.638   0.895   9.911 -1.7667 -0.9547 -0.1230
  710MOL0     H93713  11.593   1.068   9.928  0.1605  0.3189 -0.1979
  710MOL0     H93714  11.563   1.026  10.185 -0.3709  1.1008 -0.7500
  710MOL0     H93715  11.713   1.059  10.126 -1.1360 -0.9512 -1.0569
  710MOL0     H93716  11.706   0.856  10.299  1.6657 -2.8363 -0.3981
  710MOL0     H93717  11.586   0.786  10.195  0.0299  0.4711 -0.1943
  710MOL0     H93718  11.930   0.663   9.991  1.3992 -0.2775  1.5740
  710MOL0     H93719  11.222   1.112  10.192 -0.8425  1.1131  1.1376
  710MOL0     H93720  10.966   1.159  10.181  3.1128 -0.3924  2.6984
  711MOL0     O93721   0.089  10.067   9.085 -1.1089  0.4548 -0.9183
  711MOL0     C93722   0.165   9.971   9.058  0.5546 -0.6130 -0.9065
  711MOL0     O93723   0.138   9.837   9.064  0.2343  0.1409  0.4019
  711MOL0     C93724   0.023   9.801   9.127 -0.7164  0.9220 -0.1016
  711MOL0     C93725  -0.048   9.866   9.229  0.3229  0.1645  0.6272
  711MOL0     C93726  -0.160   9.813   9.297 -0.0974  0.3309  0.5145
  711MOL0     C93727  -0.214   9.689   9.248 -0.4688 -0.0997 -0.2819
  711MOL0     O93728  -0.339   9.648   9.297  0.2957  0.0507  0.6341
  711MOL0     C93729  -0.419   9.583   9.199 -0.2544  0.5517  1.5969
  711MOL0     C93730  -0.566   9.566   9.254  0.1769  0.2462 -0.2009
  711MOL0     C93731  -0.650   9.456   9.181 -0.1494  0.3776  1.1857
  711MOL0     C93732  -0.797   9.462   9.211  0.4916  0.5202  0.6931
  711MOL0     C93733  -0.877   9.421   9.083  0.2616  0.0359 -0.7903
  711MOL0     C93734  -1.019   9.407   9.149 -0.4705 -0.2671 -0.7175
  711MOL0     C93735  -1.139   9.413   9.046  0.2213  0.3846  0.1150
  711MOL0     C93736  -1.183   9.267   9.014 -0.1547  0.4962  0.6063
  711MOL0     N93737  -1.272   9.252   8.897  0.4004 -0.8579 -0.5964
  711MOL0     C93738  -1.280   9.134   8.828  0.4057 -0.0982 -0.4400
  711MOL0     C93739  -1.366   9.157   8.730  0.3727  0.4024 -0.4200
  711MOL0     C93740  -1.399   9.056   8.624 -0.3236  0.7940 -0.7285
  711MOL0     C93741  -1.545   9.051   8.570  0.5473  0.1243 -1.7532
  711MOL0     C93742  -1.568   9.172   8.487  0.2472 -0.7284  0.5249
  711MOL0     C93743  -1.649   9.140   8.354  0.6119 -0.3545 -1.0377
  711MOL0     O93744  -1.795   9.138   8.391  0.8468 -0.2719 -0.3228
  711MOL0     C93745  -1.877   9.106   8.290  0.3402  0.4219  1.0672
  711MOL0     C93746  -2.009   9.155   8.312  0.6031  0.3156 -0.6064
  711MOL0     C93747  -2.109   9.144   8.210 -0.3099  0.4889 -0.4313
  711MOL0     C93748  -2.085   9.064   8.090 -0.5051  0.5742 -0.4134
  711MOL0     C93749  -2.187   9.033   7.988  0.6306  0.7100  0.0775
  711MOL0     O93750  -2.150   8.940   7.893  0.1221 -0.5776  0.1756
  711MOL0     C93751  -2.241   8.899   7.788  0.5715 -0.9349 -0.2399
  711MOL0     C93752  -2.289   8.993   7.695  0.4401 -0.3577  1.7623
  711MOL0     C93753  -2.367   8.956   7.581 -0.2236  0.3214 -0.0457
  711MOL0     C93754  -2.394   8.827   7.556  0.2852  0.0066 -0.5438
  711MOL0     O93755  -2.491   8.801   7.461 -0.1920  1.1637  0.1120
  711MOL0     C93756  -2.495   8.656   7.427 -0.5746 -0.0654 -0.0414
  711MOL0     C93757  -2.539   8.638   7.286  0.2038 -0.5242 -0.3034
  711MOL0     C93758  -2.444   8.703   7.188 -0.2275 -0.0655  0.1855
  711MOL0     C93759  -2.477   8.683   7.035  0.4000 -0.3492 -0.0411
  711MOL0     C93760  -2.413   8.799   6.967 -1.6307 -0.5820 -0.8061
  711MOL0     C93761  -2.259   8.781   6.944  0.3927  0.0491  1.1135
  711MOL0     C93762  -2.245   8.741   6.797 -0.0224 -0.5313  0.8520
  711MOL0     C93763  -2.100   8.695   6.771  0.9519  0.3801  0.5201
  711MOL0    Cl93764  -1.998   8.836   6.790  0.3907  0.2402 -0.0382
  711MOL0     C93765  -2.361   8.732   7.656  0.0221 -0.0116  0.5815
  711MOL0     C93766  -2.283   8.768   7.767 -0.4138  0.4157  0.3093
  711MOL0     O93767  -2.302   9.076   7.996  0.4245 -0.4112  0.6290
  711MOL0     C93768  -1.954   9.005   8.085  0.0336  0.4142 -0.2910
  711MOL0     C93769  -1.845   9.034   8.170  0.7189 -0.0283  0.1530
  711MOL0     N93770  -1.412   9.284   8.746  0.7524 -0.8491 -0.8446
  711MOL0     N93771  -1.355   9.343   8.845 -0.7713 -0.1884 -0.4743
  711MOL0     C93772  -0.137   9.615   9.150 -0.0846 -0.1913  0.2385
  711MOL0     C93773  -0.021   9.673   9.097 -1.3252  0.0369 -0.0817
  711MOL0     C93774   0.300  10.012   9.007 -0.0858  0.6298  0.1172
  711MOL0     C93775   0.339  10.151   9.023  0.9714 -0.1110  0.7795
  711MOL0     C93776   0.471  10.184   9.001 -0.4715 -0.7866 -0.6225
  711MOL0     C93777   0.572  10.091   8.958  0.5730  0.0414 -0.6241
  711MOL0     O93778   0.692  10.143   8.925 -0.2173  0.3175  0.2672
  711MOL0     C93779   0.805  10.044   8.931  0.8023  0.0082 -0.2044
  711MOL0     C93780   0.945  10.094   8.920  0.3212  0.0126  0.4965
  711MOL0     C93781   0.982  10.173   9.050  0.5637 -0.2543 -0.5051
  711MOL0     C93782   1.125  10.164   9.090 -1.1821  0.1902  0.9609
  711MOL0     C93783   1.215  10.222   8.987 -0.3251 -1.3315  0.5065
  711MOL0     C93784   1.299  10.266   8.917  0.3312  0.9346 -1.1265
  711MOL0     C93785   0.533   9.965   8.938  0.3244  0.8552  0.3480
  711MOL0     C93786   0.404   9.919   8.958  0.4784 -0.7325  0.0208
  711MOL0     H93787  -0.011   9.959   9.270 -0.5045  0.7389  0.1040
  711MOL0     H93788  -0.214   9.878   9.366 -1.0265 -0.0115  0.1166
  711MOL0     H93789  -0.382   9.480   9.188 -1.4834  0.3505 -1.6538
  711MOL0     H93790  -0.416   9.628   9.100 -3.3896  0.0385  1.1756
  711MOL0     H93791  -0.610   9.664   9.234  2.4113  1.4550  0.5072
  711MOL0     H93792  -0.571   9.543   9.360  1.8758 -4.3024 -0.8533
  711MOL0     H93793  -0.604   9.363   9.216  3.5699  2.2494  1.8742
  711MOL0     H93794  -0.631   9.463   9.073  3.0065  0.1618  1.6041
  711MOL0     H93795  -0.818   9.392   9.292  0.0249 -0.2119 -0.0316
  711MOL0     H93796  -0.829   9.562   9.241  0.7748  0.5791  0.7997
  711MOL0     H93797  -0.848   9.335   9.022  0.1837  0.2333 -1.1079
  711MOL0     H93798  -0.887   9.505   9.014  0.8980  0.6111 -0.2011
  711MOL0     H93799  -1.035   9.478   9.230  0.8164 -3.3373  2.5110
  711MOL0     H93800  -1.023   9.312   9.203  1.0029 -2.7955 -4.5711
  711MOL0     H93801  -1.231   9.459   9.082 -0.9247 -1.6619 -0.0626
  711MOL0     H93802  -1.105   9.471   8.959  1.7154 -0.6250 -0.0134
  711MOL0     H93803  -1.227   9.218   9.101 -0.5683  0.6836  0.5073
  711MOL0     H93804  -1.093   9.207   9.000 -2.0044 -2.6894  1.2820
  711MOL0     H93805  -1.232   9.038   8.840  0.3813  0.0976  1.5745
  711MOL0     H93806  -1.397   8.953   8.663 -3.4900  0.3915 -1.3686
  711MOL0     H93807  -1.324   9.070   8.546  0.7746 -1.5647 -0.1995
  711MOL0     H93808  -1.612   9.064   8.655 -0.0041 -0.0303 -2.1592
  711MOL0     H93809  -1.558   8.954   8.520  2.8645 -0.1402 -1.9836
  711MOL0     H93810  -1.609   9.259   8.539  2.4099  1.1788 -0.7904
  711MOL0     H93811  -1.467   9.208   8.465  0.4576  0.6393  3.3154
  711MOL0     H93812  -1.614   9.043   8.318  1.6642 -1.3043  2.1925
  711MOL0     H93813  -1.636   9.221   8.281 -1.3878  2.7694  1.7388
  711MOL0     H93814  -2.026   9.218   8.399  1.6546  0.9232 -0.8192
  711MOL0     H93815  -2.202   9.192   8.240 -0.7375  0.5475 -1.7927
  711MOL0     H93816  -2.269   9.095   7.726  0.7477  0.2924 -0.3879
  711MOL0     H93817  -2.416   9.026   7.514 -1.9454 -0.9943 -0.2551
  711MOL0     H93818  -2.560   8.600   7.495  0.3757  0.3805  1.2789
  711MOL0     H93819  -2.392   8.624   7.444  0.4031  3.6029  2.2135
  711MOL0     H93820  -2.642   8.674   7.279  0.9872  1.8225 -0.6674
  711MOL0     H93821  -2.541   8.533   7.257  1.6053  0.0115 -2.5425
  711MOL0     H93822  -2.340   8.670   7.199 -0.6324 -2.1647 -1.5056
  711MOL0     H93823  -2.449   8.811   7.205  3.9144 -0.1210  3.3133
  711MOL0     H93824  -2.432   8.592   6.992  0.2266  0.7522 -2.7656
  711MOL0     H93825  -2.585   8.677   7.017 -0.1252 -1.8158  2.9329
  711MOL0     H93826  -2.424   8.894   7.020  1.4543  0.3223 -1.5234
  711MOL0     H93827  -2.464   8.816   6.872  0.2141  1.4375 -1.5381
  711MOL0     H93828  -2.219   8.713   7.020  4.5462  1.4005  0.4001
  711MOL0     H93829  -2.213   8.879   6.959  1.7490 -0.0871 -1.5807
  711MOL0     H93830  -2.326   8.675   6.765  0.0299  0.7313 -2.2153
  711MOL0     H93831  -2.247   8.829   6.732 -0.0222  0.0659  1.6444
  711MOL0     H93832  -2.091   8.646   6.674  2.7669 -1.6522  1.6291
  711MOL0     H93833  -2.079   8.621   6.848  1.8477  3.2862  3.2962
  711MOL0     H93834  -2.390   8.627   7.657  2.0406 -0.6272  1.8872
  711MOL0     H93835  -2.242   8.684   7.822  2.8228  3.3804  2.9467
  711MOL0     H93836  -1.947   8.946   7.994 -1.3914 -0.5868  0.2158
  711MOL0     H93837  -1.742   9.010   8.148  0.1453 -1.6389 -0.9606
  711MOL0     H93838  -0.153   9.514   9.112  1.8795 -0.7982  0.9278
  711MOL0     H93839   0.047   9.626   9.027  1.0620  2.5167  0.4036
  711MOL0     H93840   0.269  10.229   9.051 -1.5126 -2.4004  1.3830
  711MOL0     H93841   0.497  10.289   9.007 -3.0907 -0.1603  1.6945
  711MOL0     H93842   0.790   9.980   8.843  0.8834  1.3882 -1.2538
  711MOL0     H93843   0.799   9.973   9.014  1.1633 -1.8986 -1.7352
  711MOL0     H93844   1.010  10.008   8.905 -2.5161 -1.9224 -2.0423
  711MOL0     H93845   0.955  10.155   8.830 -0.4785 -2.3733 -1.3099
  711MOL0     H93846   0.925  10.129   9.132  2.7091 -2.0559  0.1107
  711MOL0     H93847   0.955  10.279   9.043 -0.4231 -0.2328  2.4389
  711MOL0     H93848   1.148  10.209   9.188  2.5542 -2.4862  1.5293
  711MOL0     H93849   1.153  10.059   9.089  1.0542  0.5418 -4.1323
  711MOL0     H93850   1.383  10.296   8.857  1.6478  1.6836  1.0022
  711MOL0     H93851   0.597   9.894   8.886  1.3662  1.1803  1.1619
  711MOL0     H93852   0.376   9.815   8.946 -1.3428 -0.1184 -1.6336
  712MOL0     O93853   4.665   9.302   4.980 -0.1590  0.4923 -0.4593
  712MOL0     C93854   4.683   9.231   4.890 -0.5751  0.6637  0.0920
  712MOL0     O93855   4.587   9.154   4.825 -0.0252 -0.0313 -0.4024
  712MOL0     C93856   4.464   9.149   4.881 -0.1013  0.8099  0.8678
  712MOL0     C93857   4.432   9.116   5.020  0.0055  0.4267 -0.0811
  712MOL0     C93858   4.290   9.105   5.054 -0.4320  0.8159  0.4087
  712MOL0     C93859   4.191   9.133   4.958 -0.1243 -0.2755 -0.4629
  712MOL0     O93860   4.059   9.150   4.988  0.0342  0.3032  0.5009
  712MOL0     C93861   4.007   9.017   5.030  0.2659 -0.3490  1.0099
  712MOL0     C93862   3.912   8.955   4.922  0.2401  0.0642  0.0926
  712MOL0     C93863   3.865   8.813   4.970  0.0374  0.4781  0.7626
  712MOL0     C93864   3.718   8.804   5.009  0.1343 -0.6164  0.0314
  712MOL0     C93865   3.673   8.664   5.045 -0.9286  0.4530 -0.1829
  712MOL0     C93866   3.537   8.650   5.120  0.3870  0.8978 -0.3637
  712MOL0     C93867   3.504   8.503   5.163  0.0469  0.0028  0.5496
  712MOL0     C93868   3.447   8.407   5.045 -0.2941  0.4816  1.0907
  712MOL0     N93869   3.319   8.463   5.005 -0.1099  0.1492 -0.5057
  712MOL0     C93870   3.319   8.559   4.908  0.5927 -0.2061 -1.0965
  712MOL0     C93871   3.187   8.570   4.875  0.0265 -0.9724  0.0418
  712MOL0     C93872   3.115   8.652   4.767  0.4941  1.1338  0.5065
  712MOL0     C93873   3.160   8.802   4.737  0.1792 -0.6517  0.2448
  712MOL0     C93874   3.189   8.829   4.587  0.1100  0.2753 -0.2575
  712MOL0     C93875   3.072   8.841   4.487 -0.7422  0.1401 -0.4328
  712MOL0     O93876   3.022   8.706   4.472 -0.0179 -0.3118  0.5066
  712MOL0     C93877   2.887   8.690   4.454  0.9028  0.2350 -0.3080
  712MOL0     C93878   2.788   8.789   4.443 -0.3740  0.4618 -0.0821
  712MOL0     C93879   2.650   8.759   4.457 -0.8970 -0.1474  0.0177
  712MOL0     C93880   2.612   8.630   4.472 -0.3216  0.7152  0.5508
  712MOL0     C93881   2.471   8.583   4.479 -0.1899  0.2633  0.1137
  712MOL0     O93882   2.456   8.450   4.488  0.0230  0.8288 -0.1387
  712MOL0     C93883   2.346   8.399   4.421 -0.1487  0.3826  0.3222
  712MOL0     C93884   2.222   8.373   4.485 -0.3511 -0.4239 -0.2197
  712MOL0     C93885   2.106   8.333   4.408  0.1175  0.7543 -0.0536
  712MOL0     C93886   2.116   8.290   4.276 -1.3671  0.1947 -0.8988
  712MOL0     O93887   2.012   8.243   4.206  0.2106  0.2309 -0.4675
  712MOL0     C93888   1.879   8.281   4.250 -0.1967  0.5331  0.1878
  712MOL0     C93889   1.762   8.229   4.154 -0.7681  0.6183 -0.0930
  712MOL0     C93890   1.770   8.305   4.019 -1.4732 -0.1193 -1.2556
  712MOL0     C93891   1.634   8.331   3.970  1.0462 -0.0983  1.3890
  712MOL0     C93892   1.553   8.197   3.944  0.2428  0.2903 -0.6401
  712MOL0     C93893   1.424   8.231   3.873 -0.0946 -0.0500  0.1053
  712MOL0     C93894   1.338   8.108   3.839  0.0051 -0.3241  0.6296
  712MOL0     C93895   1.201   8.149   3.786 -0.3389 -0.4921  0.4683
  712MOL0    Cl93896   1.214   8.302   3.681 -0.0990  0.2123  0.0734
  712MOL0     C93897   2.240   8.305   4.211 -0.2615  0.1068  0.1705
  712MOL0     C93898   2.350   8.361   4.282  0.0091  0.2088 -0.0462
  712MOL0     O93899   2.378   8.664   4.470  0.1880  0.8342  0.9818
  712MOL0     C93900   2.714   8.524   4.482 -1.1730 -0.6457  0.0789
  712MOL0     C93901   2.848   8.558   4.482 -0.1840  0.1617  0.3328
  712MOL0     N93902   3.120   8.479   4.956 -0.2701 -0.2634 -0.3985
  712MOL0     N93903   3.199   8.413   5.037 -0.0229 -0.0695  0.0866
  712MOL0     C93904   4.222   9.160   4.826  0.2163  0.4110 -1.0920
  712MOL0     C93905   4.356   9.163   4.785  0.2045 -0.0187 -1.0504
  712MOL0     C93906   4.823   9.223   4.829  0.6226  0.0803  0.7678
  712MOL0     C93907   4.912   9.326   4.849  0.4740 -0.4265 -0.7489
  712MOL0     C93908   5.035   9.330   4.799  0.3457 -0.2713 -0.1524
  712MOL0     C93909   5.079   9.219   4.731  0.2667  0.2011 -0.1119
  712MOL0     O93910   5.205   9.214   4.672  0.0714 -0.2039 -0.1778
  712MOL0     C93911   5.310   9.176   4.754  0.6307 -0.2204 -0.1151
  712MOL0     C93912   5.363   9.298   4.831  0.2853  0.4407  0.1156
  712MOL0     C93913   5.517   9.302   4.848  0.1494  0.1923  1.0062
  712MOL0     C93914   5.601   9.329   4.716  0.7588 -0.8481 -0.0679
  712MOL0     C93915   5.717   9.421   4.735 -0.8500 -0.5300 -0.1446
  712MOL0     C93916   5.816   9.493   4.760  1.1673 -0.8885 -0.5761
  712MOL0     C93917   4.995   9.111   4.710 -0.7857  0.2916  1.7773
  712MOL0     C93918   4.863   9.109   4.756  0.2969 -0.2697  0.1813
  712MOL0     H93919   4.508   9.109   5.097  0.0448 -0.4374 -0.1868
  712MOL0     H93920   4.271   9.075   5.156  3.6474 -1.3189  0.7407
  712MOL0     H93921   3.941   9.021   5.117 -1.6194 -0.5553 -0.3638
  712MOL0     H93922   4.091   8.948   5.044  1.3143  0.4266 -1.0084
  712MOL0     H93923   3.960   8.950   4.823  2.2344  1.6177  0.9138
  712MOL0     H93924   3.823   9.017   4.910  0.5516  0.2155 -1.7090
  712MOL0     H93925   3.926   8.790   5.058 -1.1723  1.5165  1.9188
  712MOL0     H93926   3.895   8.745   4.889 -1.5104  0.9859 -0.2765
  712MOL0     H93927   3.705   8.865   5.099 -2.0385 -1.4109  0.3084
  712MOL0     H93928   3.662   8.847   4.926 -0.3393 -2.9161 -0.9076
  712MOL0     H93929   3.756   8.620   5.102 -2.2714  1.2555  2.5407
  712MOL0     H93930   3.661   8.611   4.949 -0.5823 -1.6795  0.8846
  712MOL0     H93931   3.457   8.693   5.060 -0.5544 -2.1078 -1.4615
  712MOL0     H93932   3.549   8.704   5.214 -1.5208 -2.0278  1.7401
  712MOL0     H93933   3.598   8.465   5.204  1.9216  1.0476 -2.4271
  712MOL0     H93934   3.431   8.504   5.245 -2.7684 -2.8282 -1.6955
  712MOL0     H93935   3.423   8.310   5.088 -0.4744 -0.1119 -0.2979
  712MOL0     H93936   3.521   8.393   4.965 -0.3882  0.5214  0.9971
  712MOL0     H93937   3.405   8.610   4.864  0.7747 -0.7214 -1.3446
  712MOL0     H93938   3.007   8.652   4.785  0.1754  2.2926 -1.1751
  712MOL0     H93939   3.148   8.596   4.679  0.9914 -0.9657  1.9353
  712MOL0     H93940   3.257   8.822   4.783  0.9079 -3.6709  0.2155
  712MOL0     H93941   3.081   8.870   4.771 -0.6370 -1.1128 -0.6770
  712MOL0     H93942   3.254   8.916   4.575  1.0572 -0.3926 -0.0565
  712MOL0     H93943   3.247   8.739   4.565  0.5957  0.0216  1.7808
  712MOL0     H93944   3.112   8.886   4.396 -1.8950  0.4691 -0.7928
  712MOL0     H93945   3.000   8.910   4.533 -1.9643 -0.3141 -1.5820
  712MOL0     H93946   2.811   8.895   4.440 -0.8952  0.6281  1.2010
  712MOL0     H93947   2.571   8.833   4.458 -1.6851 -0.9599  1.3623
  712MOL0     H93948   2.207   8.407   4.587 -1.8812 -1.2866 -0.1272
  712MOL0     H93949   2.016   8.299   4.459  1.5540 -0.1119  2.0842
  712MOL0     H93950   1.868   8.389   4.259 -1.2081  0.6122 -1.4864
  712MOL0     H93951   1.870   8.234   4.348  2.8462  0.3053  0.4642
  712MOL0     H93952   1.665   8.253   4.200 -1.5797 -0.7994 -1.0000
  712MOL0     H93953   1.784   8.124   4.137  1.2711  0.7384  1.4543
  712MOL0     H93954   1.825   8.252   3.942 -0.7900  1.5031 -1.9151
  712MOL0     H93955   1.831   8.395   4.018  2.9054 -2.6970  0.7983
  712MOL0     H93956   1.572   8.405   4.022  0.3018  0.2083  0.1231
  712MOL0     H93957   1.641   8.367   3.867 -2.2395  0.0614  1.0885
  712MOL0     H93958   1.537   8.155   4.043 -0.7692  1.8614 -0.0960
  712MOL0     H93959   1.619   8.126   3.893  0.4776 -0.2173  0.3500
  712MOL0     H93960   1.444   8.278   3.776 -0.5925  0.6721  0.3399
  712MOL0     H93961   1.369   8.304   3.934  0.4370  1.1715 -0.8234
  712MOL0     H93962   1.395   8.056   3.761 -1.0574 -0.0231 -0.3847
  712MOL0     H93963   1.325   8.040   3.924 -2.6042 -1.1348 -0.3220
  712MOL0     H93964   1.143   8.170   3.877  1.3124  0.5033  1.3325
  712MOL0     H93965   1.162   8.068   3.724 -2.4164  2.0734 -1.8159
  712MOL0     H93966   2.244   8.280   4.106  1.4762  3.5381 -0.7474
  712MOL0     H93967   2.440   8.394   4.230 -0.7019  0.1760 -1.3405
  712MOL0     H93968   2.687   8.422   4.505 -1.7355 -1.2166 -2.6790
  712MOL0     H93969   2.923   8.480   4.493 -1.8176 -1.3587  1.2208
  712MOL0     H93970   4.142   9.186   4.758 -0.8007 -1.7887 -0.8263
  712MOL0     H93971   4.364   9.184   4.679  0.5690 -0.4127 -1.1058
  712MOL0     H93972   4.871   9.407   4.909 -0.4746 -4.0670  4.0453
  712MOL0     H93973   5.100   9.412   4.826  0.6096 -1.1440  2.1417
  712MOL0     H93974   5.394   9.143   4.693  2.4897  2.1544  1.0087
  712MOL0     H93975   5.280   9.101   4.828  3.5460 -0.7304  0.6467
  712MOL0     H93976   5.342   9.388   4.771 -0.8948 -0.8346 -1.4930
  712MOL0     H93977   5.319   9.295   4.931  0.4382 -1.7798  0.1581
  712MOL0     H93978   5.531   9.201   4.888  0.5829  0.4540  1.5339
  712MOL0     H93979   5.544   9.379   4.922  0.3128  0.5434  0.5880
  712MOL0     H93980   5.629   9.232   4.675 -2.1993 -1.2410 -1.3920
  712MOL0     H93981   5.540   9.382   4.642  1.8235 -0.0532 -0.3965
  712MOL0     H93982   5.902   9.558   4.765  2.2868 -2.3511  0.0777
  712MOL0     H93983   5.028   9.025   4.651  0.2512 -0.5688  3.5334
  712MOL0     H93984   4.800   9.022   4.738  0.6659 -0.9228  1.8472
  713MOL0     O93985   1.330   6.134   7.088 -1.0157 -0.2299 -0.4392
  713MOL0     C93986   1.263   6.174   6.996 -0.6011 -0.7374  0.2223
  713MOL0     O93987   1.298   6.261   6.902  1.0560  0.5516  0.1236
  713MOL0     C93988   1.429   6.316   6.887  0.1879 -0.5186 -0.0205
  713MOL0     C93989   1.546   6.269   6.930 -0.0044  0.0043 -0.1990
  713MOL0     C93990   1.663   6.329   6.910  0.0026  0.0601 -0.2574
  713MOL0     C93991   1.666   6.439   6.830 -0.0012 -0.5407  1.0004
  713MOL0     O93992   1.784   6.507   6.794 -0.3387 -0.0267  0.9930
  713MOL0     C93993   1.908   6.436   6.777  0.3150  0.4740 -0.2140
  713MOL0     C93994   1.987   6.548   6.706  0.2297  0.0140  0.6361
  713MOL0     C93995   2.084   6.498   6.605 -0.3768 -0.2494 -0.9042
  713MOL0     C93996   2.164   6.620   6.554 -0.7368  0.1484 -0.0118
  713MOL0     C93997   2.317   6.617   6.601  0.1215 -0.4584  0.1774
  713MOL0     C93998   2.401   6.716   6.514  0.0345 -0.1854  0.1096
  713MOL0     C93999   2.550   6.724   6.547 -1.1887  0.7239  0.1961
  713MOL0     C94000   2.634   6.819   6.464 -0.1570 -0.8561 -0.4129
  713MOL0     N94001   2.633   6.786   6.319  0.3466  0.1311  0.8953
  713MOL0     C94002   2.526   6.794   6.222 -0.8026 -0.2814 -0.3040
  713MOL0     C94003   2.574   6.716   6.122  0.4765 -0.8986  0.1816
  713MOL0     C94004   2.528   6.666   5.989 -0.0925  0.7665 -0.7381
  713MOL0     C94005   2.396   6.736   5.954  0.1751 -0.6943 -0.8785
  713MOL0     C94006   2.368   6.723   5.805 -0.2823  0.2320  0.1933
  713MOL0     C94007   2.380   6.584   5.750 -0.2373 -0.1333 -1.1243
  713MOL0     O94008   2.332   6.481   5.843 -0.4616 -0.0802  0.1377
  713MOL0     C94009   2.203   6.478   5.882 -0.4636  0.7131  0.2055
  713MOL0     C94010   2.105   6.557   5.820 -0.1142 -0.2274  0.0624
  713MOL0     C94011   1.973   6.556   5.860  0.1231  0.8491 -0.2412
  713MOL0     C94012   1.930   6.467   5.958  0.1764  0.5497 -0.1255
  713MOL0     C94013   1.784   6.454   5.995 -0.6921  0.5927 -0.5835
  713MOL0     O94014   1.752   6.328   6.049 -0.0814  0.1875  0.3502
  713MOL0     C94015   1.623   6.272   6.060 -1.1395  0.0548  0.3900
  713MOL0     C94016   1.584   6.172   6.152  0.3822  0.6594  0.2844
  713MOL0     C94017   1.451   6.133   6.168  1.2882  0.1623  0.2860
  713MOL0     C94018   1.352   6.176   6.086 -0.6734 -0.0517 -0.6909
  713MOL0     O94019   1.224   6.126   6.107 -0.1017  0.3308  0.3449
  713MOL0     C94020   1.133   6.126   5.998 -0.7498 -0.5316 -0.6313
  713MOL0     C94021   1.004   6.046   6.037 -0.1361 -0.4777 -0.2281
  713MOL0     C94022   0.927   6.118   6.145 -1.0097 -0.3280  0.5596
  713MOL0     C94023   0.846   6.232   6.076 -0.2985  0.1224 -0.1263
  713MOL0     C94024   0.759   6.312   6.178  0.2088  0.1268  0.6216
  713MOL0     C94025   0.684   6.229   6.284  0.9869 -0.1718 -0.3799
  713MOL0     C94026   0.599   6.332   6.364 -0.1988 -0.5491 -0.5810
  713MOL0     C94027   0.517   6.261   6.469  0.1629  0.5012 -0.0706
  713MOL0    Cl94028   0.628   6.161   6.570 -0.1876  0.5024  0.6344
  713MOL0     C94029   1.390   6.262   5.990  0.4026 -0.5063  0.1384
  713MOL0     C94030   1.512   6.324   5.995  0.3414 -0.4020 -0.0857
  713MOL0     O94031   1.709   6.546   5.982 -0.5607 -0.0924 -0.5135
  713MOL0     C94032   2.022   6.380   6.011 -0.2833  0.1874  0.6880
  713MOL0     C94033   2.164   6.395   5.983  0.1546  0.9588 -0.1170
  713MOL0     N94034   2.703   6.685   6.150  0.0274 -0.3825 -0.3609
  713MOL0     N94035   2.742   6.731   6.264 -0.2534  0.2398  0.3237
  713MOL0     C94036   1.549   6.498   6.783  0.1349  0.4172 -0.0997
  713MOL0     C94037   1.425   6.436   6.809 -0.1238  0.7724  0.2852
  713MOL0     C94038   1.131   6.117   6.997  1.2209 -0.7427 -0.4368
  713MOL0     C94039   1.065   6.050   7.105 -0.3601  0.4409  0.8561
  713MOL0     C94040   0.933   6.002   7.104  0.9645  0.9744 -1.0392
  713MOL0     C94041   0.856   6.023   6.990 -0.4829  0.3179  0.3723
  713MOL0     O94042   0.736   5.966   6.975  0.0585 -0.4137  0.3159
  713MOL0     C94043   0.625   6.056   6.997 -0.1612 -0.5516 -0.0234
  713MOL0     C94044   0.499   5.985   6.933  0.4677 -0.9757 -0.4997
  713MOL0     C94045   0.484   5.857   7.015 -0.3118  0.5997  0.8428
  713MOL0     C94046   0.344   5.798   6.971  0.4289 -0.1299  0.6666
  713MOL0     C94047   0.291   5.688   7.040  1.0110 -0.1897  0.4165
  713MOL0     C94048   0.228   5.598   7.073 -0.5068  0.3693  0.0860
  713MOL0     C94049   0.908   6.108   6.885  0.4262  0.4484 -0.3067
  713MOL0     C94050   1.048   6.142   6.889  0.0959 -0.3390  0.4017
  713MOL0     H94051   1.557   6.176   6.985  1.5329 -1.1080 -2.2391
  713MOL0     H94052   1.759   6.282   6.932 -0.0327 -0.8188 -1.8114
  713MOL0     H94053   1.893   6.344   6.721  1.6102  0.2721 -0.2607
  713MOL0     H94054   1.960   6.406   6.868 -0.6535  2.8753  1.2349
  713MOL0     H94055   2.046   6.601   6.782  0.8684  0.9669 -0.4967
  713MOL0     H94056   1.926   6.623   6.655  0.4465 -0.4778 -0.3508
  713MOL0     H94057   2.027   6.439   6.533 -0.9339  0.7672 -1.3126
  713MOL0     H94058   2.159   6.435   6.656 -1.8885 -0.5445  1.0844
  713MOL0     H94059   2.154   6.633   6.446 -1.6988 -0.2085  0.0215
  713MOL0     H94060   2.123   6.716   6.589 -0.9433 -0.4275  1.3786
  713MOL0     H94061   2.357   6.516   6.596  1.1425 -0.0165 -1.0148
  713MOL0     H94062   2.321   6.645   6.707  1.9511  0.8061 -0.1835
  713MOL0     H94063   2.358   6.816   6.519  0.1892 -0.1820  2.8241
  713MOL0     H94064   2.397   6.680   6.411 -2.0956  1.0671 -0.2910
  713MOL0     H94065   2.557   6.750   6.653 -0.7594  1.0152  0.0980
  713MOL0     H94066   2.610   6.633   6.534 -0.6954  0.9941  0.5448
  713MOL0     H94067   2.732   6.800   6.509  0.0844  1.1875  0.0649
  713MOL0     H94068   2.610   6.924   6.485 -1.4967 -1.9182  4.8182
  713MOL0     H94069   2.437   6.853   6.243  0.7042  1.3430  2.1262
  713MOL0     H94070   2.510   6.559   6.000 -0.8644  0.8258 -1.2926
  713MOL0     H94071   2.606   6.687   5.916  1.6029  2.2188  1.3771
  713MOL0     H94072   2.399   6.844   5.966  0.2960 -0.3226 -3.5699
  713MOL0     H94073   2.317   6.689   6.013 -0.5698  3.5354  1.8878
  713MOL0     H94074   2.268   6.765   5.795  0.4458  1.9873 -0.1246
  713MOL0     H94075   2.437   6.783   5.744 -2.0157 -0.1191 -2.2799
  713MOL0     H94076   2.484   6.555   5.736  0.3166  0.4353  1.2851
  713MOL0     H94077   2.316   6.575   5.661 -3.3935  0.5705  0.8927
  713MOL0     H94078   2.139   6.620   5.739 -0.6009 -1.7287 -1.3757
  713MOL0     H94079   1.908   6.625   5.807  1.2608  1.5142 -0.8177
  713MOL0     H94080   1.661   6.120   6.207 -1.2044 -1.5630  0.5576
  713MOL0     H94081   1.427   6.057   6.242  0.1248 -0.1732 -0.4188
  713MOL0     H94082   1.165   6.070   5.909  0.4090  0.4575 -0.8682
  713MOL0     H94083   1.105   6.229   5.973  0.2803  0.2794  1.3447
  713MOL0     H94084   1.034   5.951   6.081  1.2059 -0.6233 -1.3732
  713MOL0     H94085   0.945   6.038   5.945  1.9980  0.3518 -1.7745
  713MOL0     H94086   0.979   6.167   6.228 -1.6068  2.3627 -0.5299
  713MOL0     H94087   0.851   6.050   6.182  0.1634 -0.9032  2.0272
  713MOL0     H94088   0.888   6.310   6.012 -1.7293 -0.3294 -1.7053
  713MOL0     H94089   0.783   6.173   6.009 -1.0471  0.9058 -0.1316
  713MOL0     H94090   0.689   6.378   6.126  0.3863 -1.4660 -1.7978
  713MOL0     H94091   0.834   6.377   6.224  1.6824 -0.8763 -0.2886
  713MOL0     H94092   0.749   6.180   6.357  0.4961  1.5468  1.3085
  713MOL0     H94093   0.626   6.150   6.237 -0.7558  0.6084  0.3617
  713MOL0     H94094   0.649   6.406   6.427 -3.8111 -0.0873  2.0224
  713MOL0     H94095   0.544   6.394   6.293  1.5263  1.4052 -0.3104
  713MOL0     H94096   0.448   6.195   6.416  2.0075 -1.1470 -0.5416
  713MOL0     H94097   0.458   6.342   6.513  0.5433  1.7717 -1.7882
  713MOL0     H94098   1.322   6.290   5.910  1.9945  0.0918 -1.0659
  713MOL0     H94099   1.532   6.397   5.917  3.1288 -1.3762 -0.3919
  713MOL0     H94100   1.991   6.306   6.084 -0.4017 -0.7938 -0.3306
  713MOL0     H94101   2.241   6.340   6.037  1.8780  3.1549 -0.1870
  713MOL0     H94102   1.542   6.595   6.735  0.2848  0.2673 -0.4238
  713MOL0     H94103   1.334   6.485   6.776 -0.2659  1.2822  1.3905
  713MOL0     H94104   1.117   6.025   7.196 -2.2901  0.7235  2.0920
  713MOL0     H94105   0.896   5.933   7.180 -1.3674  0.1831 -2.7709
  713MOL0     H94106   0.633   6.155   6.950 -0.0390  1.0051  3.0182
  713MOL0     H94107   0.617   6.084   7.102  0.5124 -1.6365  0.3248
  713MOL0     H94108   0.415   6.050   6.957 -0.0823 -2.5579  2.3671
  713MOL0     H94109   0.519   5.957   6.829  0.5422 -1.4973 -0.3511
  713MOL0     H94110   0.481   5.885   7.120 -1.4877  1.6871  0.5519
  713MOL0     H94111   0.562   5.783   6.997 -0.6281  0.7843 -1.7426
  713MOL0     H94112   0.266   5.874   6.963  2.4025  1.7892 -2.2563
  713MOL0     H94113   0.347   5.759   6.869 -2.5316  1.5304 -0.1526
  713MOL0     H94114   0.174   5.531   7.137 -1.1157  1.7442  1.0550
  713MOL0     H94115   0.843   6.114   6.798  0.1348 -0.7582 -0.1974
  713MOL0     H94116   1.093   6.195   6.806 -0.0464  0.5662  0.8862
  714MOL0     O94117  11.242   3.300   2.426  0.1969 -0.2851  0.3117
  714MOL0     C94118  11.314   3.293   2.319  0.3093  0.3637 -0.3384
  714MOL0     O94119  11.277   3.228   2.206 -0.7401  0.5765  0.1803
  714MOL0     C94120  11.148   3.173   2.204  0.4974 -0.2268  0.5214
  714MOL0     C94121  11.101   3.069   2.293 -0.5149 -0.0791 -1.0026
  714MOL0     C94122  10.964   3.040   2.297  0.2460  0.8352  0.0621
  714MOL0     C94123  10.871   3.090   2.208  0.0427  0.6195 -1.1322
  714MOL0     O94124  10.737   3.069   2.223 -0.5995  0.4133 -0.1555
  714MOL0     C94125  10.653   3.157   2.155 -0.0383 -0.2438 -0.6382
  714MOL0     C94126  10.504   3.128   2.180 -0.4025  0.3989 -0.1593
  714MOL0     C94127  10.427   3.257   2.178  0.5958  0.4163 -0.2139
  714MOL0     C94128  10.276   3.220   2.195 -0.2913  0.8867 -0.0783
  714MOL0     C94129  10.179   3.339   2.181  0.0649 -0.4694 -0.4397
  714MOL0     C94130  10.034   3.301   2.147  0.2512 -0.1260 -0.1192
  714MOL0     C94131   9.937   3.419   2.121 -0.0887  0.2020  0.9997
  714MOL0     C94132   9.865   3.467   2.242 -1.4984 -0.8095 -0.0032
  714MOL0     N94133   9.750   3.379   2.273  0.8554 -0.2687 -0.9285
  714MOL0     C94134   9.701   3.352   2.408 -0.4092 -0.5272  0.1145
  714MOL0     C94135   9.604   3.262   2.392  0.3688 -0.5165 -0.9387
  714MOL0     C94136   9.517   3.219   2.500  0.0133  0.4234 -0.1431
  714MOL0     C94137   9.391   3.302   2.495  0.5734  0.1674  0.4259
  714MOL0     C94138   9.298   3.248   2.386  0.8968 -0.4210  0.5724
  714MOL0     C94139   9.177   3.194   2.453 -0.8661  0.5511 -0.0809
  714MOL0     O94140   9.087   3.307   2.481 -0.8005 -0.0975  0.3613
  714MOL0     C94141   8.952   3.282   2.510 -1.5250 -0.6534 -0.0851
  714MOL0     C94142   8.915   3.158   2.571 -1.0094  0.3212 -0.1084
  714MOL0     C94143   8.778   3.137   2.597 -0.3566  0.2863 -0.1343
  714MOL0     C94144   8.676   3.230   2.571  0.1632 -0.5502 -0.3178
  714MOL0     C94145   8.536   3.211   2.610 -0.2649  1.2600  0.0029
  714MOL0     O94146   8.450   3.314   2.592  0.1606  0.2520 -0.4638
  714MOL0     C94147   8.323   3.312   2.648  0.2092  0.1772 -0.2253
  714MOL0     C94148   8.208   3.338   2.575  0.4750  0.1352 -0.1444
  714MOL0     C94149   8.080   3.331   2.629 -0.3254 -0.0505 -0.8282
  714MOL0     C94150   8.073   3.300   2.772  0.0927 -0.8328 -0.3750
  714MOL0     O94151   7.962   3.301   2.845 -0.3049  0.3618 -0.0429
  714MOL0     C94152   7.836   3.298   2.778  0.1240 -0.3910 -0.9618
  714MOL0     C94153   7.714   3.281   2.878  0.0559 -0.3379 -0.1909
  714MOL0     C94154   7.658   3.133   2.859 -0.9309  0.4519 -0.1442
  714MOL0     C94155   7.538   3.112   2.938 -0.3901 -0.0740  0.1853
  714MOL0     C94156   7.554   3.099   3.087 -0.2374  0.0725  0.6842
  714MOL0     C94157   7.422   3.096   3.161 -0.3809  0.3537 -0.2771
  714MOL0     C94158   7.448   3.061   3.308 -0.2641  0.4108 -0.3720
  714MOL0     C94159   7.308   3.024   3.351  0.2964  0.3050 -0.2990
  714MOL0    Cl94160   7.275   3.015   3.521 -0.1377  0.1140  0.1009
  714MOL0     C94161   8.192   3.269   2.843  0.8740 -0.6094  0.3286
  714MOL0     C94162   8.316   3.283   2.785  0.2783 -0.0192 -0.9834
  714MOL0     O94163   8.507   3.096   2.656  0.0979  0.2743 -0.5541
  714MOL0     C94164   8.723   3.350   2.513  0.0372 -0.2466 -0.1674
  714MOL0     C94165   8.856   3.378   2.484  0.1726  0.3267  0.1807
  714MOL0     N94166   9.600   3.233   2.256  0.5098  0.3070 -0.1506
  714MOL0     N94167   9.681   3.308   2.187  0.4217 -0.1057  0.1711
  714MOL0     C94168  10.924   3.175   2.104  0.4390 -0.0496  0.6749
  714MOL0     C94169  11.058   3.215   2.106 -0.3756 -0.3423 -0.1037
  714MOL0     C94170  11.450   3.342   2.346 -0.5906  1.0042 -0.6232
  714MOL0     C94171  11.551   3.305   2.257 -0.1313 -0.4867  1.3782
  714MOL0     C94172  11.684   3.359   2.279  0.0436  0.7971  0.1553
  714MOL0     C94173  11.722   3.433   2.393 -0.4343 -0.8884  0.4935
  714MOL0     O94174  11.850   3.470   2.433 -0.3796 -0.0772 -0.0238
  714MOL0     C94175  11.967   3.425   2.365 -0.3938  0.0291 -0.2283
  714MOL0     C94176  12.091   3.447   2.455 -0.2822 -0.0427 -0.2609
  714MOL0     C94177  12.070   3.391   2.598  0.5564  0.5342 -0.8503
  714MOL0     C94178  12.187   3.403   2.705  0.2171 -0.8952 -0.0598
  714MOL0     C94179  12.230   3.281   2.764  0.2629  0.6379  0.4206
  714MOL0     C94180  12.256   3.168   2.796  0.1136 -0.3594 -0.1754
  714MOL0     C94181  11.619   3.472   2.480 -0.4804  1.2181  0.0705
  714MOL0     C94182  11.490   3.434   2.455  0.8760 -0.0256  0.6944
  714MOL0     H94183  11.177   3.029   2.361 -0.0196  3.0440  0.4886
  714MOL0     H94184  10.925   2.966   2.366 -0.7461 -0.3807 -1.7163
  714MOL0     H94185  10.661   3.162   2.046  2.4161  2.3341 -0.4905
  714MOL0     H94186  10.673   3.257   2.195  0.3448  0.1899 -1.8588
  714MOL0     H94187  10.488   3.076   2.275 -2.7304 -0.3402 -0.8913
  714MOL0     H94188  10.476   3.052   2.106  0.4781 -0.2255  0.1224
  714MOL0     H94189  10.444   3.306   2.082  2.0514 -2.1385 -1.3611
  714MOL0     H94190  10.465   3.320   2.259 -2.2001 -0.0210  1.5734
  714MOL0     H94191  10.250   3.156   2.110  1.5094  0.9511 -0.7439
  714MOL0     H94192  10.257   3.180   2.294  0.7420  2.2503  0.7159
  714MOL0     H94193  10.213   3.407   2.102 -1.5546  2.5141  1.2628
  714MOL0     H94194  10.187   3.393   2.276  4.2544 -1.5740  0.0646
  714MOL0     H94195   9.991   3.233   2.221  2.3096 -0.3578  0.9229
  714MOL0     H94196  10.045   3.243   2.055 -0.0499  0.0089 -0.2413
  714MOL0     H94197   9.999   3.495   2.073 -1.2294  2.1376  2.4505
  714MOL0     H94198   9.860   3.396   2.047 -1.0685  2.2691  1.3201
  714MOL0     H94199   9.839   3.572   2.223  2.1984  0.1227 -0.6623
  714MOL0     H94200   9.926   3.477   2.332 -3.3042 -0.9245  1.2801
  714MOL0     H94201   9.741   3.394   2.500 -1.5771  0.7246  0.0757
  714MOL0     H94202   9.570   3.232   2.595 -0.7091  1.5487  0.1229
  714MOL0     H94203   9.488   3.113   2.493 -0.1180  0.4308  0.2355
  714MOL0     H94204   9.415   3.405   2.470  0.6116  0.4826  1.6912
  714MOL0     H94205   9.336   3.307   2.590 -4.1394 -0.8348 -1.9668
  714MOL0     H94206   9.281   3.330   2.315  0.5626  0.5443  1.7434
  714MOL0     H94207   9.348   3.170   2.328 -1.4605  0.5024 -3.0610
  714MOL0     H94208   9.219   3.142   2.540  1.7567  1.5266 -0.6688
  714MOL0     H94209   9.128   3.125   2.384 -0.4474 -1.6196  1.6887
  714MOL0     H94210   8.997   3.092   2.596 -1.3967 -1.2502 -2.6653
  714MOL0     H94211   8.748   3.052   2.658 -2.7949  0.9477 -0.3024
  714MOL0     H94212   8.225   3.374   2.474 -3.5874 -1.5261 -1.6390
  714MOL0     H94213   8.003   3.369   2.562 -1.4410  2.9452  1.8923
  714MOL0     H94214   7.843   3.230   2.693  2.7305  1.9552 -2.7775
  714MOL0     H94215   7.823   3.393   2.726 -1.2008 -1.2186 -2.2109
  714MOL0     H94216   7.636   3.354   2.855  0.0094 -0.9395 -2.1238
  714MOL0     H94217   7.739   3.307   2.981 -1.1709  1.6021 -0.3308
  714MOL0     H94218   7.729   3.056   2.892  0.7687  1.5930 -0.9933
  714MOL0     H94219   7.641   3.101   2.756  2.7021  0.8501 -1.0131
  714MOL0     H94220   7.463   3.188   2.917 -1.5245 -0.2184  3.1982
  714MOL0     H94221   7.499   3.016   2.902  1.4836 -0.7490 -0.1942
  714MOL0     H94222   7.612   3.179   3.135 -1.1721 -1.0546  3.9192
  714MOL0     H94223   7.619   3.013   3.109  3.9160  3.2228  2.0496
  714MOL0     H94224   7.350   3.026   3.118 -1.0589  2.0702 -2.0960
  714MOL0     H94225   7.373   3.193   3.150 -1.5906 -0.3099 -0.8868
  714MOL0     H94226   7.517   2.977   3.317  1.8205  1.8485 -1.8576
  714MOL0     H94227   7.500   3.145   3.355  0.1745  0.7705 -1.4466
  714MOL0     H94228   7.277   2.927   3.311 -2.3484  1.7100 -1.9301
  714MOL0     H94229   7.235   3.096   3.312  0.1946  0.4545  0.1678
  714MOL0     H94230   8.176   3.236   2.945  3.8114 -0.4383  0.9158
  714MOL0     H94231   8.390   3.249   2.857 -1.1372  0.7665  0.9484
  714MOL0     H94232   8.656   3.435   2.504  0.8550  0.3846 -0.4108
  714MOL0     H94233   8.883   3.471   2.436 -0.1991 -0.2020 -1.0986
  714MOL0     H94234  10.855   3.205   2.026 -1.4858 -4.9434  0.0925
  714MOL0     H94235  11.113   3.276   2.034  0.3204 -1.0834 -0.2176
  714MOL0     H94236  11.526   3.236   2.178  0.9700  1.2645 -0.6141
  714MOL0     H94237  11.760   3.330   2.207 -0.0274 -0.1210  0.4390
  714MOL0     H94238  11.975   3.478   2.270 -0.1951  2.6499  1.1393
  714MOL0     H94239  11.952   3.322   2.332  0.9488 -0.1347 -0.3560
  714MOL0     H94240  12.174   3.385   2.419 -0.7545 -0.8732  0.0728
  714MOL0     H94241  12.128   3.550   2.447 -1.3029  0.3101 -0.6197
  714MOL0     H94242  12.048   3.284   2.595  0.1521  0.5052  1.6170
  714MOL0     H94243  11.980   3.441   2.634  0.0423 -1.3814  0.7150
  714MOL0     H94244  12.269   3.461   2.661  0.2666 -0.9802 -0.0790
  714MOL0     H94245  12.160   3.475   2.784  2.5227  0.9670 -0.8362
  714MOL0     H94246  12.253   3.065   2.826 -0.7131 -0.6700 -1.2615
  714MOL0     H94247  11.646   3.542   2.559 -0.4486  2.5513 -1.0676
  714MOL0     H94248  11.416   3.463   2.530  0.4830  1.6237 -0.2681
  715MOL0     O94249   8.393   6.200   1.280  0.7476 -0.3676 -0.3073
  715MOL0     C94250   8.384   6.232   1.163 -0.5284  0.2092  0.6379
  715MOL0     O94251   8.487   6.279   1.087 -0.0987 -0.3647  0.0892
  715MOL0     C94252   8.596   6.332   1.149  0.3648 -0.7261 -0.4152
  715MOL0     C94253   8.576   6.444   1.234 -0.2399 -0.0140  0.4270
  715MOL0     C94254   8.683   6.500   1.305 -0.1111 -0.7864  0.6822
  715MOL0     C94255   8.810   6.448   1.277  0.2260 -0.1176  0.7792
  715MOL0     O94256   8.926   6.502   1.319  0.6932 -0.0155 -0.0839
  715MOL0     C94257   8.923   6.597   1.430 -0.3403 -0.5464 -0.3147
  715MOL0     C94258   9.059   6.658   1.465  0.7964 -1.0993  0.1816
  715MOL0     C94259   9.171   6.557   1.518 -0.0906 -0.1231  0.6917
  715MOL0     C94260   9.216   6.453   1.415 -0.1654 -0.2304 -0.7651
  715MOL0     C94261   9.333   6.372   1.462 -0.5496 -0.6909  0.9122
  715MOL0     C94262   9.468   6.435   1.478 -0.8949 -0.3218 -0.3168
  715MOL0     C94263   9.575   6.328   1.504  0.2921  0.0573 -0.4312
  715MOL0     C94264   9.719   6.386   1.490 -0.3083 -1.0481  0.1229
  715MOL0     N94265   9.819   6.295   1.537 -0.3271 -0.4081  0.3149
  715MOL0     C94266   9.883   6.296   1.653  0.5766 -0.5087 -0.2644
  715MOL0     C94267   9.971   6.201   1.650  0.8195 -0.4896 -1.1514
  715MOL0     C94268  10.058   6.145   1.760 -0.0682  0.3551 -0.0798
  715MOL0     C94269   9.987   6.092   1.884 -0.8332 -0.3100  0.1373
  715MOL0     C94270  10.071   6.015   1.990  0.3658 -0.4772  0.9052
  715MOL0     C94271   9.997   5.969   2.122 -0.7094  0.0305 -0.0321
  715MOL0     O94272   9.892   5.868   2.113  0.2909  0.7708  0.1136
  715MOL0     C94273   9.771   5.926   2.113 -0.0044  0.3555  0.2095
  715MOL0     C94274   9.718   5.961   2.241 -0.0082 -0.2086  0.9739
  715MOL0     C94275   9.587   6.009   2.238 -0.2532 -0.2773 -0.0078
  715MOL0     C94276   9.505   6.011   2.126 -1.0206 -0.5724  0.5365
  715MOL0     C94277   9.365   6.041   2.130  1.0823  0.1360  0.0362
  715MOL0     O94278   9.307   6.068   2.255 -0.4782  0.5310 -0.3954
  715MOL0     C94279   9.174   6.083   2.254  0.4182  0.1139  0.5524
  715MOL0     C94280   9.083   5.979   2.242  1.4122 -0.2322  0.6450
  715MOL0     C94281   8.945   6.004   2.250 -0.4209  0.5981 -0.2911
  715MOL0     C94282   8.893   6.132   2.271 -0.1857  1.3089 -0.9963
  715MOL0     O94283   8.759   6.161   2.271  1.0335  0.2425 -0.1831
  715MOL0     C94284   8.663   6.062   2.251  0.6634 -0.0029 -0.3472
  715MOL0     C94285   8.539   6.140   2.201 -0.2344  0.3400 -0.1762
  715MOL0     C94286   8.544   6.183   2.054  0.3046 -0.6067 -0.5545
  715MOL0     C94287   8.505   6.064   1.959  0.3602 -0.0027  0.1475
  715MOL0     C94288   8.551   6.092   1.816  0.1832 -0.1121  0.0336
  715MOL0     C94289   8.701   6.108   1.777  0.3383 -0.2311 -0.7957
  715MOL0     C94290   8.724   6.146   1.625 -0.8882 -0.2270 -0.3552
  715MOL0     C94291   8.867   6.169   1.602  0.4188  0.2833  0.2384
  715MOL0    Cl94292   8.936   6.320   1.692 -0.0629  0.3085  0.0865
  715MOL0     C94293   8.983   6.234   2.286 -0.3539  0.0248 -0.2975
  715MOL0     C94294   9.118   6.217   2.276  0.6466 -0.1520  0.3056
  715MOL0     O94295   9.305   6.060   2.020 -0.2832 -0.6779 -0.1597
  715MOL0     C94296   9.561   5.971   2.001  1.1094 -0.7633  0.1962
  715MOL0     C94297   9.694   5.929   1.998  0.5853 -0.5559 -0.5764
  715MOL0     N94298   9.965   6.137   1.528 -0.4297  0.5294  0.4926
  715MOL0     N94299   9.873   6.196   1.464 -0.3949 -0.3552 -0.8618
  715MOL0     C94300   8.825   6.337   1.198  0.1365 -0.6543  0.3215
  715MOL0     C94301   8.720   6.283   1.128 -0.6520  0.0141 -0.3041
  715MOL0     C94302   8.249   6.203   1.098  0.7922 -0.6693  0.3790
  715MOL0     C94303   8.230   6.235   0.964  0.3337  0.2750 -0.2940
  715MOL0     C94304   8.120   6.196   0.887 -0.2724 -0.2276 -0.1965
  715MOL0     C94305   8.030   6.101   0.948 -0.1170  0.1596  1.0538
  715MOL0     O94306   7.924   6.067   0.859 -0.2280  0.8379 -0.0126
  715MOL0     C94307   7.813   5.996   0.916  0.3680 -0.7881 -0.2132
  715MOL0     C94308   7.720   5.968   0.798  0.4780 -0.0217 -0.1703
  715MOL0     C94309   7.627   5.841   0.805  0.2054 -0.3020  0.7170
  715MOL0     C94310   7.706   5.712   0.836 -0.0074  0.4143 -0.7406
  715MOL0     C94311   7.781   5.680   0.721 -0.7201  0.2446  0.2538
  715MOL0     C94312   7.861   5.680   0.625  0.9035  0.3245 -0.6303
  715MOL0     C94313   8.055   6.052   1.076  0.1830 -1.0024  0.1687
  715MOL0     C94314   8.167   6.100   1.151  0.3123 -0.4025  0.1792
  715MOL0     H94315   8.479   6.492   1.241 -0.2904 -0.3181  2.4465
  715MOL0     H94316   8.658   6.580   1.375  1.0581 -3.1389  4.0384
  715MOL0     H94317   8.895   6.551   1.526 -1.3854  3.3220  1.4008
  715MOL0     H94318   8.849   6.676   1.419  0.2341  0.0182 -0.2164
  715MOL0     H94319   9.043   6.730   1.546  0.0522 -0.8639 -0.1683
  715MOL0     H94320   9.100   6.720   1.385  0.8980  1.3817  2.0444
  715MOL0     H94321   9.127   6.500   1.600 -0.7913  0.8605  1.0106
  715MOL0     H94322   9.251   6.618   1.561 -0.5311 -1.0295  2.9354
  715MOL0     H94323   9.133   6.386   1.391 -2.1796  3.3739 -5.7552
  715MOL0     H94324   9.254   6.497   1.322  0.0582 -0.3369 -0.7225
  715MOL0     H94325   9.343   6.278   1.407 -0.8148 -0.5690  0.6557
  715MOL0     H94326   9.299   6.347   1.563 -0.7217  2.0519  1.6168
  715MOL0     H94327   9.469   6.505   1.563 -1.9513 -0.7207  0.0372
  715MOL0     H94328   9.486   6.500   1.392  0.0070 -0.7109 -0.4317
  715MOL0     H94329   9.553   6.282   1.600 -1.1722  1.8138  0.1353
  715MOL0     H94330   9.570   6.252   1.426  1.3997 -1.3828  0.8488
  715MOL0     H94331   9.719   6.465   1.566 -2.3527 -0.3647 -0.5344
  715MOL0     H94332   9.746   6.419   1.389  2.4520 -2.0464  0.4562
  715MOL0     H94333   9.859   6.356   1.740  0.8144 -0.1680 -0.4327
  715MOL0     H94334  10.145   6.204   1.792  2.4929 -3.2718  0.2698
  715MOL0     H94335  10.099   6.049   1.727  0.0461  0.2436  0.3814
  715MOL0     H94336   9.917   6.015   1.848 -0.0881 -1.0318  0.2047
  715MOL0     H94337   9.932   6.167   1.942 -0.3112 -0.2938  0.6146
  715MOL0     H94338  10.107   5.921   1.945  0.1042 -0.1124 -0.0949
  715MOL0     H94339  10.162   6.072   2.011  1.4058 -0.2036 -3.3340
  715MOL0     H94340   9.962   6.060   2.172  1.1759  0.9548 -0.3078
  715MOL0     H94341  10.078   5.926   2.183  0.4576  2.9390  0.6317
  715MOL0     H94342   9.779   5.947   2.330  0.0140  1.0373  1.1826
  715MOL0     H94343   9.570   6.046   2.339  2.2377  0.7291  0.1159
  715MOL0     H94344   9.118   5.878   2.222 -0.3648 -1.0092  1.2767
  715MOL0     H94345   8.880   5.918   2.237  0.9834 -0.6505  0.5585
  715MOL0     H94346   8.642   6.014   2.348  1.9065  1.2533  0.5794
  715MOL0     H94347   8.695   5.983   2.183  2.9967 -2.0259  2.7868
  715MOL0     H94348   8.534   6.228   2.265 -3.5436  2.2794 -2.8013
  715MOL0     H94349   8.450   6.079   2.216 -1.7749  2.8040  1.2662
  715MOL0     H94350   8.640   6.227   2.027  0.1255 -1.7424 -3.4467
  715MOL0     H94351   8.476   6.265   2.029  1.5506  0.9537  1.0016
  715MOL0     H94352   8.567   5.977   1.980 -2.0271 -1.3329  2.2277
  715MOL0     H94353   8.403   6.028   1.976  0.3034  0.6816  1.3696
  715MOL0     H94354   8.494   6.178   1.781  0.5313 -0.4694 -1.5119
  715MOL0     H94355   8.522   6.011   1.748 -2.7303  1.5651 -0.8965
  715MOL0     H94356   8.742   6.011   1.807  1.0525 -0.0551 -1.1669
  715MOL0     H94357   8.746   6.190   1.834  0.7933 -0.9440 -0.1104
  715MOL0     H94358   8.683   6.080   1.548  2.0772 -1.0594 -1.3567
  715MOL0     H94359   8.669   6.240   1.609 -0.4873  0.0814  0.0546
  715MOL0     H94360   8.875   6.199   1.497 -3.0367  1.1320  0.0984
  715MOL0     H94361   8.919   6.078   1.634 -2.5307 -1.6943 -0.2288
  715MOL0     H94362   8.935   6.328   2.309  0.7280  1.3259 -2.9430
  715MOL0     H94363   9.178   6.304   2.303  0.6759  0.5807 -1.9379
  715MOL0     H94364   9.499   5.971   1.912 -0.4675 -0.0291  1.2372
  715MOL0     H94365   9.729   5.870   1.914 -1.7872 -0.4703 -1.6857
  715MOL0     H94366   8.927   6.303   1.184 -0.6338 -2.7523 -0.5716
  715MOL0     H94367   8.727   6.199   1.060 -1.0901 -0.1819 -0.1156
  715MOL0     H94368   8.297   6.308   0.920  0.4679 -0.4472 -1.2880
  715MOL0     H94369   8.081   6.249   0.800 -1.8410 -0.8227  0.1011
  715MOL0     H94370   7.767   6.065   0.988  1.7154 -2.2083  2.1579
  715MOL0     H94371   7.854   5.913   0.975  0.5622  0.6486  1.7822
  715MOL0     H94372   7.663   6.058   0.773  1.6127  0.0234 -2.8905
  715MOL0     H94373   7.787   5.958   0.712  0.7039  0.2450 -0.0268
  715MOL0     H94374   7.566   5.829   0.715  0.8216  2.5961 -0.1683
  715MOL0     H94375   7.549   5.871   0.876 -1.7089 -1.4275 -0.7968
  715MOL0     H94376   7.771   5.736   0.921 -2.0464  0.8175  0.7720
  715MOL0     H94377   7.634   5.644   0.880  0.3922  1.1873  1.2018
  715MOL0     H94378   7.937   5.683   0.550  1.1713 -0.5289 -0.4058
  715MOL0     H94379   7.975   6.006   1.133 -1.4988  0.7818 -0.6492
  715MOL0     H94380   8.167   6.081   1.258 -2.6128 -2.2351 -0.0128
  716MOL0     O94381   7.302   9.839   9.067  0.0745  0.3910 -0.7630
  716MOL0     C94382   7.301   9.961   9.065  0.9561 -0.2935  0.6786
  716MOL0     O94383   7.191  10.039   9.073  0.4293  0.5347 -1.0307
  716MOL0     C94384   7.068   9.971   9.073 -0.3824  1.1440  0.6681
  716MOL0     C94385   6.962  10.013   8.984  0.2027  0.0693 -0.0455
  716MOL0     C94386   6.852   9.934   8.969 -0.5859  0.3923  0.6706
  716MOL0     C94387   6.823   9.823   9.054  0.6050  0.0339  0.3495
  716MOL0     O94388   6.730   9.732   9.032 -0.4270  0.5171 -0.1800
  716MOL0     C94389   6.611   9.762   8.955  0.5862  0.0892 -0.2553
  716MOL0     C94390   6.507   9.647   8.987 -0.5928  0.0050 -0.0258
  716MOL0     C94391   6.358   9.686   8.978  1.0083  0.3747 -0.4077
  716MOL0     C94392   6.256   9.566   8.978 -0.6745  0.9357 -0.5103
  716MOL0     C94393   6.110   9.616   8.960  0.4652 -0.2316  0.3530
  716MOL0     C94394   6.066   9.721   9.059 -0.4546 -0.0042  0.2939
  716MOL0     C94395   5.942   9.786   9.011 -0.1892  0.7530  0.8668
  716MOL0     C94396   5.879   9.863   9.132 -0.0887 -0.3448 -0.3093
  716MOL0     N94397   5.736   9.895   9.116  0.1339 -0.1400  0.0412
  716MOL0     C94398   5.634   9.808   9.093  0.3850  0.0937 -0.4083
  716MOL0     C94399   5.544   9.890   9.035  0.5072 -0.0459 -0.5343
  716MOL0     C94400   5.413   9.840   8.988  0.2663  0.3116 -0.4344
  716MOL0     C94401   5.412   9.852   8.837 -0.6669 -0.0967 -0.1281
  716MOL0     C94402   5.319   9.754   8.764 -0.2749 -0.2297  0.5162
  716MOL0     C94403   5.173   9.768   8.822 -0.0763  0.4502 -0.7442
  716MOL0     O94404   5.068   9.710   8.736  0.0179 -0.1679 -0.9424
  716MOL0     C94405   4.939   9.706   8.787  0.7525 -0.5223  0.4456
  716MOL0     C94406   4.891   9.772   8.899  0.3293 -0.3606 -0.2861
  716MOL0     C94407   4.759   9.776   8.939 -1.1548 -0.0193  0.2113
  716MOL0     C94408   4.671   9.693   8.879 -0.4430  0.0142 -0.1097
  716MOL0     C94409   4.540   9.664   8.946 -0.2916 -0.3307  0.0562
  716MOL0     O94410   4.481   9.559   8.894 -0.3215 -0.1430  0.3994
  716MOL0     C94411   4.352   9.522   8.943 -0.3866  0.6976 -0.1636
  716MOL0     C94412   4.339   9.430   9.046 -0.6418 -0.1267 -0.7616
  716MOL0     C94413   4.218   9.387   9.100  0.0217 -0.1456 -0.6575
  716MOL0     C94414   4.101   9.459   9.069  0.6814  0.7573 -1.3100
  716MOL0     O94415   3.973   9.426   9.122 -0.4956  0.2433  0.0311
  716MOL0     C94416   3.959   9.471   9.255  0.6068  0.8737  0.1287
  716MOL0     C94417   3.895   9.342   9.334 -0.3376 -0.1409 -0.0229
  716MOL0     C94418   3.761   9.304   9.295  0.4487 -0.2680  0.2276
  716MOL0     C94419   3.657   9.405   9.333  0.1925  0.7085 -0.0241
  716MOL0     C94420   3.516   9.336   9.319 -0.9449  0.1063  0.1515
  716MOL0     C94421   3.411   9.437   9.375  0.1432 -0.1862  0.3379
  716MOL0     C94422   3.266   9.390   9.370  0.4569 -0.6233  0.1716
  716MOL0     C94423   3.163   9.492   9.425  0.3414  0.4902 -0.3569
  716MOL0    Cl94424   3.161   9.641   9.313 -0.6266  0.5203 -0.1856
  716MOL0     C94425   4.110   9.542   8.966 -0.0141 -0.2858  0.0719
  716MOL0     C94426   4.235   9.581   8.900 -0.6927  0.2680  0.3939
  716MOL0     O94427   4.496   9.748   9.019  0.5641 -0.0083 -0.6110
  716MOL0     C94428   4.715   9.621   8.764 -0.1638 -0.9492  0.9690
  716MOL0     C94429   4.847   9.633   8.715  0.0036 -0.9010  0.2263
  716MOL0     N94430   5.580  10.021   9.033 -0.7785 -1.0659  0.2011
  716MOL0     N94431   5.701  10.018   9.076  0.5319 -0.0025 -0.4310
  716MOL0     C94432   6.909   9.802   9.161 -0.2827  0.3820 -0.3318
  716MOL0     C94433   7.035   9.869   9.173 -0.4874 -0.6099  1.6321
  716MOL0     C94434   7.421  10.042   9.041  0.5960  1.0575 -0.1953
  716MOL0     C94435   7.538   9.971   9.002  0.2000  0.9015  0.4782
  716MOL0     C94436   7.654  10.041   8.979  0.6666  0.1889  0.3452
  716MOL0     C94437   7.660  10.176   8.972 -1.0134 -0.2113  0.5564
  716MOL0     O94438   7.778  10.235   8.933  0.8195  0.7666 -0.2992
  716MOL0     C94439   7.769  10.334   8.831 -0.7562  0.5596  0.7446
  716MOL0     C94440   7.818  10.295   8.686 -0.3138 -1.0313  0.3636
  716MOL0     C94441   7.774  10.147   8.652  0.6651 -0.0875 -1.1366
  716MOL0     C94442   7.627  10.130   8.645  0.4395 -0.1288  0.5685
  716MOL0     C94443   7.601   9.986   8.637  0.1897  0.2669 -0.1499
  716MOL0     C94444   7.583   9.863   8.626  0.8863 -0.6087 -0.0163
  716MOL0     C94445   7.544  10.246   9.019  0.0680 -0.4248 -0.0165
  716MOL0     C94446   7.429  10.185   9.050 -0.2927 -0.4627 -1.0835
  716MOL0     H94447   6.977  10.085   8.904 -2.7390 -0.6183 -1.3620
  716MOL0     H94448   6.782   9.966   8.892 -0.8834  0.3840  0.9371
  716MOL0     H94449   6.634   9.764   8.848 -2.7810 -0.5558 -1.0912
  716MOL0     H94450   6.573   9.854   9.000  1.9518  1.7926 -2.3792
  716MOL0     H94451   6.534   9.611   9.087 -0.8021  1.7566  0.7042
  716MOL0     H94452   6.533   9.564   8.920  0.8992  1.4719 -1.3618
  716MOL0     H94453   6.335   9.747   8.890 -2.2193 -1.7061 -1.1912
  716MOL0     H94454   6.354   9.752   9.065  2.7257 -0.1749  0.1313
  716MOL0     H94455   6.291   9.497   8.900  0.5830  0.7795  0.1513
  716MOL0     H94456   6.265   9.510   9.072 -1.6549 -1.8259 -1.9411
  716MOL0     H94457   6.034   9.537   8.958 -0.0211  0.2170  0.6735
  716MOL0     H94458   6.113   9.665   8.862  0.8001 -4.6736 -2.1143
  716MOL0     H94459   6.143   9.798   9.073 -0.2279 -0.4189  1.4186
  716MOL0     H94460   6.049   9.675   9.157  0.5094  2.9673  1.9886
  716MOL0     H94461   5.970   9.860   8.935 -1.8945  1.2017  0.6469
  716MOL0     H94462   5.869   9.718   8.965 -0.0751  0.1501  1.5627
  716MOL0     H94463   5.944   9.951   9.139 -3.5313  2.3032  1.4341
  716MOL0     H94464   5.894   9.811   9.227  0.7558 -1.1437 -0.8568
  716MOL0     H94465   5.632   9.700   9.107  0.2801 -0.4101 -3.5883
  716MOL0     H94466   5.332   9.895   9.038 -0.8860 -0.0072 -1.8735
  716MOL0     H94467   5.402   9.736   9.020  0.6940  1.0029  2.1945
  716MOL0     H94468   5.514   9.824   8.810 -1.0367 -0.8411 -0.8077
  716MOL0     H94469   5.389   9.951   8.797 -3.9864 -1.5208 -2.2137
  716MOL0     H94470   5.323   9.778   8.658 -1.4198  0.4617  0.6219
  716MOL0     H94471   5.353   9.650   8.768  2.8325  0.5739 -1.6019
  716MOL0     H94472   5.160   9.877   8.831  1.2922  0.4935  1.2970
  716MOL0     H94473   5.161   9.735   8.926 -1.0930  0.5627 -0.8093
  716MOL0     H94474   4.960   9.830   8.960 -0.7306 -0.2637  0.8659
  716MOL0     H94475   4.729   9.827   9.030  0.3013 -0.2160  0.8343
  716MOL0     H94476   4.431   9.392   9.090 -1.0355  1.0484  1.2205
  716MOL0     H94477   4.219   9.306   9.171 -1.0901 -1.2237 -1.8210
  716MOL0     H94478   3.897   9.561   9.264 -1.0668  0.3096 -3.8648
  716MOL0     H94479   4.057   9.479   9.303  1.1971  0.6680 -1.0149
  716MOL0     H94480   3.895   9.368   9.440 -3.1604 -0.7501  0.2193
  716MOL0     H94481   3.956   9.253   9.318  0.2879 -0.2535  2.5547
  716MOL0     H94482   3.738   9.208   9.342 -1.8601  0.1782  0.1587
  716MOL0     H94483   3.753   9.294   9.186 -3.7672 -3.7907  0.5610
  716MOL0     H94484   3.665   9.442   9.436 -2.3665  0.1282  0.4523
  716MOL0     H94485   3.660   9.485   9.258  0.8440  1.0964  0.4056
  716MOL0     H94486   3.512   9.244   9.378  0.9576  0.2494  0.5566
  716MOL0     H94487   3.485   9.319   9.216  3.3456 -0.0301 -1.3172
  716MOL0     H94488   3.420   9.528   9.316 -0.9071 -1.1972 -1.4676
  716MOL0     H94489   3.428   9.470   9.478 -1.6391  2.6024 -0.1513
  716MOL0     H94490   3.248   9.357   9.267  1.0772 -1.0970  0.2105
  716MOL0     H94491   3.253   9.300   9.430 -0.7338 -3.5265 -4.0066
  716MOL0     H94492   3.194   9.510   9.529  1.7984 -0.6595 -0.5676
  716MOL0     H94493   3.060   9.453   9.422  0.4008  0.4230 -2.4335
  716MOL0     H94494   4.011   9.585   8.950  0.1104 -1.1513 -4.3001
  716MOL0     H94495   4.245   9.654   8.821  0.6677 -0.9873 -0.6380
  716MOL0     H94496   4.648   9.556   8.709  1.3832 -0.1949 -1.9905
  716MOL0     H94497   4.887   9.584   8.627  3.4912 -2.5719  2.5251
  716MOL0     H94498   6.894   9.714   9.223  0.0329  0.8102  0.3742
  716MOL0     H94499   7.108   9.821   9.238 -1.3910 -3.3851  0.7616
  716MOL0     H94500   7.533   9.864   8.989  1.5854  0.9435 -0.6218
  716MOL0     H94501   7.744   9.987   8.951  0.4643  0.2786 -0.4962
  716MOL0     H94502   7.828  10.421   8.860  0.7597  0.0880 -0.8036
  716MOL0     H94503   7.663  10.362   8.836 -1.4744 -2.0319  4.0484
  716MOL0     H94504   7.770  10.373   8.626  2.1112  1.8666  1.9173
  716MOL0     H94505   7.924  10.314   8.666 -0.4149  2.4848  2.4455
  716MOL0     H94506   7.812  10.078   8.728  2.6175  1.5198 -0.5815
  716MOL0     H94507   7.817  10.117   8.556  0.8323 -1.4395 -0.6596
  716MOL0     H94508   7.577  10.157   8.739  0.7420  2.0269  0.1613
  716MOL0     H94509   7.578  10.197   8.574  1.6164  1.1849  0.9433
  716MOL0     H94510   7.547   9.763   8.638 -2.4897  0.5965  1.4614
  716MOL0     H94511   7.545  10.355   9.025 -1.2329 -0.4469  1.0522
  716MOL0     H94512   7.345  10.245   9.083  1.7483  1.6016  0.7070
  717MOL0     O94513   7.473   4.167   3.069  0.3224 -0.1717 -0.1830
  717MOL0     C94514   7.547   4.150   3.169  0.4292 -0.0089  0.8017
  717MOL0     O94515   7.539   4.225   3.281  0.2595 -0.1089 -0.8177
  717MOL0     C94516   7.463   4.337   3.294 -0.0852  0.3246  0.5067
  717MOL0     C94517   7.506   4.442   3.374  0.3590 -0.1711  0.0821
  717MOL0     C94518   7.430   4.567   3.389  0.0940  0.3680  0.0320
  717MOL0     C94519   7.319   4.595   3.303 -0.0872 -0.1060 -0.6489
  717MOL0     O94520   7.262   4.721   3.320  0.1617  0.1714  0.1447
  717MOL0     C94521   7.154   4.757   3.235 -0.4128 -0.3765 -0.0012
  717MOL0     C94522   7.080   4.879   3.289  0.3375  0.2085 -0.2672
  717MOL0     C94523   6.998   4.838   3.412 -0.2748  0.4314  0.0293
  717MOL0     C94524   6.930   4.962   3.472  0.3530 -0.2692  0.7512
  717MOL0     C94525   6.848   4.923   3.595  0.2783 -0.5813 -0.5918
  717MOL0     C94526   6.772   5.040   3.651  0.9722  0.8183 -0.2182
  717MOL0     C94527   6.647   5.063   3.563 -0.1158 -0.3785  0.0235
  717MOL0     C94528   6.642   5.203   3.518  0.2637  0.8866 -0.0150
  717MOL0     N94529   6.516   5.243   3.470 -1.2083 -0.3090  0.3004
  717MOL0     C94530   6.470   5.368   3.489 -0.2241 -0.4006 -0.2254
  717MOL0     C94531   6.357   5.378   3.411 -0.1163 -0.4836  0.1163
  717MOL0     C94532   6.272   5.501   3.392  0.8747 -0.6877  0.9511
  717MOL0     C94533   6.266   5.602   3.513 -0.3118  0.1581  0.6349
  717MOL0     C94534   6.205   5.542   3.646 -0.4440  1.2172 -0.0174
  717MOL0     C94535   6.217   5.641   3.757  0.1487 -0.4569 -1.2219
  717MOL0     O94536   6.123   5.745   3.733 -0.8093 -1.2848  0.1671
  717MOL0     C94537   5.985   5.724   3.744 -0.0137  0.1562  0.3872
  717MOL0     C94538   5.906   5.804   3.673  0.4825  0.3555  0.9858
  717MOL0     C94539   5.767   5.774   3.656  0.2851  0.7133 -0.5967
  717MOL0     C94540   5.720   5.665   3.728  0.0103  0.8954 -0.5590
  717MOL0     C94541   5.578   5.625   3.718  0.8364 -0.4236  1.3181
  717MOL0     O94542   5.508   5.689   3.622 -0.3784  0.6005  0.8941
  717MOL0     C94543   5.384   5.645   3.599  0.8506 -0.2980 -0.2253
  717MOL0     C94544   5.356   5.520   3.539 -0.0317  0.7518  0.2531
  717MOL0     C94545   5.226   5.471   3.539  1.6917  0.6395  0.3311
  717MOL0     C94546   5.117   5.550   3.591 -0.8904 -0.5438  0.2762
  717MOL0     O94547   5.002   5.489   3.592 -0.3020  0.1976  0.8970
  717MOL0     C94548   4.898   5.523   3.691 -0.7407 -0.3177 -0.5650
  717MOL0     C94549   4.767   5.463   3.639 -0.3599  0.3499  0.1627
  717MOL0     C94550   4.689   5.544   3.540 -0.4777 -0.4196  0.3339
  717MOL0     C94551   4.760   5.555   3.401  0.1418 -0.0385 -0.0471
  717MOL0     C94552   4.685   5.626   3.280  0.3274  0.0678  1.4074
  717MOL0     C94553   4.562   5.541   3.229  0.3859  0.3446 -0.0684
  717MOL0     C94554   4.429   5.615   3.258 -0.1442 -0.3066  0.6753
  717MOL0     C94555   4.302   5.538   3.192  0.5953 -0.3042  0.1201
  717MOL0    Cl94556   4.149   5.630   3.251  0.4562  0.0097  0.3660
  717MOL0     C94557   5.147   5.684   3.630  1.4050  0.0000  0.1119
  717MOL0     C94558   5.280   5.726   3.645 -0.2042 -0.5753 -0.5043
  717MOL0     O94559   5.530   5.550   3.801  0.5217 -0.0778 -0.0435
  717MOL0     C94560   5.799   5.584   3.807  0.6111  0.3982 -1.3714
  717MOL0     C94561   5.935   5.612   3.811  0.4159  0.0158 -0.0194
  717MOL0     N94562   6.338   5.255   3.346  0.4593 -0.9121 -0.1342
  717MOL0     N94563   6.439   5.178   3.371  0.3716 -0.1689 -0.6742
  717MOL0     C94564   7.288   4.495   3.208  0.4538  0.2346  0.1997
  717MOL0     C94565   7.348   4.368   3.213  0.2211 -0.1902  0.9342
  717MOL0     C94566   7.635   4.031   3.168  0.3355  0.0515 -0.2430
  717MOL0     C94567   7.644   3.943   3.060 -0.8589  0.1919 -0.5954
  717MOL0     C94568   7.726   3.824   3.056  0.0268 -0.4852  0.0085
  717MOL0     C94569   7.815   3.810   3.160  0.6719  0.1619 -0.2050
  717MOL0     O94570   7.888   3.692   3.156 -0.1902  0.4742 -0.7870
  717MOL0     C94571   7.953   3.656   3.277  0.4672  0.7685  0.3805
  717MOL0     C94572   8.003   3.509   3.264  0.4725  0.4139  0.0350
  717MOL0     C94573   7.875   3.423   3.232 -0.6436  0.0785  0.7252
  717MOL0     C94574   7.914   3.280   3.263 -0.2658  0.0712  0.0730
  717MOL0     C94575   7.855   3.249   3.396 -0.6668 -0.1617 -0.5359
  717MOL0     C94576   7.805   3.227   3.499  0.5155  0.9545 -1.1375
  717MOL0     C94577   7.811   3.904   3.267 -0.2805 -1.1900  0.2201
  717MOL0     C94578   7.722   4.010   3.274 -0.4179 -1.2388 -0.7055
  717MOL0     H94579   7.589   4.440   3.445 -0.6989  2.7419  1.5624
  717MOL0     H94580   7.480   4.642   3.449 -0.5059 -1.8901  3.6235
  717MOL0     H94581   7.090   4.671   3.215  0.2540 -1.8733  3.4663
  717MOL0     H94582   7.200   4.787   3.141  0.7960 -0.8376  0.4290
  717MOL0     H94583   7.002   4.905   3.217  0.4525 -3.9339 -2.1741
  717MOL0     H94584   7.151   4.955   3.322  1.2940 -0.8918  0.2755
  717MOL0     H94585   7.068   4.783   3.475  3.7781  1.1308 -3.3839
  717MOL0     H94586   6.923   4.771   3.369  1.8859  0.6416 -4.7031
  717MOL0     H94587   7.005   5.036   3.499  1.0271  0.1653 -2.0523
  717MOL0     H94588   6.873   5.009   3.392  1.6490  0.5148  0.2610
  717MOL0     H94589   6.917   4.883   3.669  0.0549 -0.9171 -0.5592
  717MOL0     H94590   6.777   4.845   3.565  0.0541  1.1713 -5.4117
  717MOL0     H94591   6.841   5.125   3.656  1.3284  0.4757  1.2612
  717MOL0     H94592   6.735   5.018   3.752 -1.9031 -2.1544 -1.7332
  717MOL0     H94593   6.640   5.004   3.471 -4.0261 -0.6122  0.3057
  717MOL0     H94594   6.559   5.036   3.622 -0.3396 -1.0662 -0.6079
  717MOL0     H94595   6.723   5.223   3.448  1.2184  1.9846  1.3655
  717MOL0     H94596   6.667   5.248   3.614  0.6267 -0.5712  0.6045
  717MOL0     H94597   6.508   5.447   3.553  1.3658  1.1542 -2.8587
  717MOL0     H94598   6.173   5.476   3.354  1.8767 -0.5942 -1.9789
  717MOL0     H94599   6.308   5.559   3.306  0.8213 -1.7458  0.1971
  717MOL0     H94600   6.222   5.698   3.485  0.0790 -0.2197 -1.4989
  717MOL0     H94601   6.371   5.625   3.532 -0.2822 -0.6980  1.5751
  717MOL0     H94602   6.099   5.520   3.630 -0.4355 -0.2121  1.6946
  717MOL0     H94603   6.255   5.447   3.670  0.4297  1.1112 -2.0134
  717MOL0     H94604   6.313   5.693   3.765 -0.1671 -0.1730  1.6372
  717MOL0     H94605   6.211   5.588   3.852  1.3924  0.6190 -0.5112
  717MOL0     H94606   5.950   5.881   3.611 -0.7208  2.2104  2.3293
  717MOL0     H94607   5.701   5.831   3.592 -0.3645 -0.7706 -1.2765
  717MOL0     H94608   5.442   5.456   3.521  0.6035  1.6436  0.0527
  717MOL0     H94609   5.218   5.372   3.495  4.3718  2.1939 -4.3631
  717MOL0     H94610   4.893   5.631   3.708  3.3655 -0.2970  1.8756
  717MOL0     H94611   4.917   5.487   3.793 -1.0209  3.4327  0.9763
  717MOL0     H94612   4.707   5.424   3.722 -2.1636 -0.6675 -1.5531
  717MOL0     H94613   4.801   5.371   3.590  3.3162  0.3509  2.2965
  717MOL0     H94614   4.682   5.649   3.571  1.2362  0.0452 -0.6620
  717MOL0     H94615   4.589   5.501   3.535 -0.4851 -0.2998 -1.1828
  717MOL0     H94616   4.853   5.610   3.420 -0.3202  0.2993  1.4087
  717MOL0     H94617   4.796   5.458   3.366  2.8852  1.9106 -3.2501
  717MOL0     H94618   4.754   5.624   3.195 -1.2887  0.4476  0.0194
  717MOL0     H94619   4.661   5.727   3.313  0.5326  1.5232 -2.3384
  717MOL0     H94620   4.560   5.447   3.284 -2.1519  0.8626  0.8326
  717MOL0     H94621   4.573   5.530   3.121 -0.8584  1.3755 -0.3248
  717MOL0     H94622   4.423   5.622   3.367  1.7119  0.6236  0.7588
  717MOL0     H94623   4.448   5.718   3.227  2.1022 -1.2868 -1.6005
  717MOL0     H94624   4.304   5.433   3.224 -1.3144 -0.8718 -1.4085
  717MOL0     H94625   4.303   5.544   3.083  1.4751 -1.4153  0.0489
  717MOL0     H94626   5.069   5.755   3.657  1.6417  0.7672 -1.1716
  717MOL0     H94627   5.307   5.825   3.680 -1.3616  0.6627 -2.8617
  717MOL0     H94628   5.754   5.493   3.845 -3.4557  1.2989 -3.4157
  717MOL0     H94629   5.994   5.548   3.876 -0.4063  0.3469  1.0851
  717MOL0     H94630   7.211   4.510   3.134  1.7339 -2.8217 -1.9415
  717MOL0     H94631   7.297   4.296   3.150 -1.1327  2.9939 -1.9857
  717MOL0     H94632   7.578   3.971   2.979  0.2041  0.5592 -1.3585
  717MOL0     H94633   7.713   3.744   2.984 -2.3906 -0.2073  0.0431
  717MOL0     H94634   7.884   3.674   3.359  2.9179  3.0955  2.0783
  717MOL0     H94635   8.036   3.724   3.296  0.1479  0.6269  2.5012
  717MOL0     H94636   8.067   3.501   3.176 -0.2007 -1.0684 -0.3510
  717MOL0     H94637   8.062   3.472   3.349 -0.0900  0.7413  0.5769
  717MOL0     H94638   7.864   3.439   3.125 -0.1062  0.8522  0.7744
  717MOL0     H94639   7.783   3.457   3.281 -0.6129 -1.2064  1.7282
  717MOL0     H94640   7.869   3.220   3.184  1.5506 -0.0173 -0.9400
  717MOL0     H94641   8.022   3.261   3.266 -0.5739 -2.0403 -0.5049
  717MOL0     H94642   7.766   3.194   3.593  1.1012 -0.1626 -1.2628
  717MOL0     H94643   7.888   3.897   3.344  0.4697 -1.0726 -0.5059
  717MOL0     H94644   7.713   4.091   3.345  2.3692  0.1543 -1.7913
  718MOL0     O94645   5.222   7.992  10.967 -0.7637  0.8247  0.3373
  718MOL0     C94646   5.303   8.073  10.994 -0.5763 -0.7805 -1.0713
  718MOL0     O94647   5.295   8.167  11.104  0.6769  0.5748 -0.4838
  718MOL0     C94648   5.187   8.178  11.186  0.3217  0.2523  0.0044
  718MOL0     C94649   5.198   8.180  11.327 -0.4787 -0.4648  0.3178
  718MOL0     C94650   5.087   8.188  11.411  0.1752 -0.2836  0.0963
  718MOL0     C94651   4.958   8.195  11.361 -0.8293 -0.0330  0.6608
  718MOL0     O94652   4.860   8.203  11.452 -0.1494  0.1179  0.6539
  718MOL0     C94653   4.736   8.141  11.424 -1.0791  0.2581  0.5160
  718MOL0     C94654   4.616   8.235  11.427  0.7058  0.8997  0.7431
  718MOL0     C94655   4.485   8.173  11.375 -0.8172  0.4875  0.0869
  718MOL0     C94656   4.364   8.246  11.440 -0.2795 -0.4454 -0.6150
  718MOL0     C94657   4.236   8.163  11.419 -0.7635 -1.0545  0.4693
  718MOL0     C94658   4.119   8.238  11.484 -0.4635  0.7241  0.6952
  718MOL0     C94659   3.998   8.146  11.458  0.1484  0.9663  0.8063
  718MOL0     C94660   3.959   8.161  11.311 -0.0987  0.2507  0.2488
  718MOL0     N94661   3.816   8.145  11.290 -0.1076 -0.8717 -1.4298
  718MOL0     C94662   3.765   8.039  11.219  0.5190  0.1517 -0.3499
  718MOL0     C94663   3.633   8.080  11.210 -0.0657  0.0199  0.2048
  718MOL0     C94664   3.528   7.996  11.137 -0.3312  0.7784  0.4301
  718MOL0     C94665   3.479   7.876  11.224 -0.3909 -0.8892  0.3814
  718MOL0     C94666   3.429   7.776  11.125 -0.0017 -0.5084  1.9645
  718MOL0     C94667   3.373   7.655  11.205 -0.5560 -0.3360 -0.6619
  718MOL0     O94668   3.302   7.558  11.120  0.5602 -0.3299 -0.1018
  718MOL0     C94669   3.168   7.511  11.141 -0.3087 -0.9031  0.4009
  718MOL0     C94670   3.124   7.421  11.045 -0.2755  0.4988  0.2559
  718MOL0     C94671   2.997   7.355  11.067 -0.6121 -0.7063 -0.9104
  718MOL0     C94672   2.911   7.399  11.166 -0.6210 -0.2998 -0.0776
  718MOL0     C94673   2.767   7.341  11.176  0.0243 -0.9624 -0.3129
  718MOL0     O94674   2.689   7.406  11.268 -0.0497 -0.4895 -0.2696
  718MOL0     C94675   2.564   7.356  11.307 -0.2837  0.2276 -0.1638
  718MOL0     C94676   2.501   7.413  11.415  0.7602  0.5425 -0.5964
  718MOL0     C94677   2.374   7.366  11.465  0.5141 -0.1170 -1.0774
  718MOL0     C94678   2.308   7.261  11.397 -0.0224  0.5615 -0.7950
  718MOL0     O94679   2.181   7.223  11.435  0.2254  0.0599  0.0677
  718MOL0     C94680   2.128   7.258  11.566  0.4128  0.7262  0.0368
  718MOL0     C94681   1.983   7.204  11.578 -0.4882 -0.7523  0.1626
  718MOL0     C94682   1.896   7.251  11.704  0.3304 -0.2732  0.5919
  718MOL0     C94683   1.775   7.155  11.717  0.5111 -0.2010  0.3731
  718MOL0     C94684   1.681   7.230  11.820 -0.4425 -0.4973 -0.0483
  718MOL0     C94685   1.571   7.132  11.863 -0.4398 -0.5530 -0.2383
  718MOL0     C94686   1.487   7.206  11.968 -0.2398 -0.0162 -0.9456
  718MOL0     C94687   1.367   7.114  11.993 -0.0685 -0.2636 -0.9010
  718MOL0    Cl94688   1.249   7.175  12.119 -0.1896  0.0710 -0.0990
  718MOL0     C94689   2.364   7.211  11.281 -0.7570  0.9091  0.4602
  718MOL0     C94690   2.496   7.253  11.242 -0.0524 -0.5951  0.4058
  718MOL0     O94691   2.741   7.252  11.094 -0.0318 -0.0230 -0.3846
  718MOL0     C94692   2.966   7.479  11.269 -0.4850  0.4149 -0.4593
  718MOL0     C94693   3.093   7.537  11.254 -0.0964  0.0413 -0.5936
  718MOL0     N94694   3.617   8.205  11.266  0.4756  0.1415  0.3072
  718MOL0     N94695   3.724   8.236  11.321 -0.9143  0.0404 -0.5871
  718MOL0     C94696   4.945   8.190  11.226 -0.1226  0.8328  0.2492
  718MOL0     C94697   5.060   8.177  11.135  0.8956 -0.0598 -0.2833
  718MOL0     C94698   5.424   8.087  10.904  0.2644 -0.2423  0.7118
  718MOL0     C94699   5.458   8.003  10.795 -0.9188  0.7292 -0.3845
  718MOL0     C94700   5.583   8.016  10.732 -0.2268  0.0507 -0.0951
  718MOL0     C94701   5.677   8.115  10.759 -0.1337  0.1651  0.7388
  718MOL0     O94702   5.800   8.134  10.698 -0.2314 -0.4507 -0.3664
  718MOL0     C94703   5.829   8.042  10.594 -0.7769 -0.4046  0.1945
  718MOL0     C94704   5.970   8.072  10.547  0.3475 -0.7682 -0.2431
  718MOL0     C94705   6.011   7.974  10.441  0.5930  0.3144  0.4140
  718MOL0     C94706   6.150   7.999  10.399 -0.1426 -0.3245 -0.0167
  718MOL0     C94707   6.184   7.970  10.265  0.4532  0.3618 -0.5707
  718MOL0     C94708   6.231   7.930  10.160  1.0639 -0.9534  0.3175
  718MOL0     C94709   5.632   8.200  10.857  0.0854 -1.6720  0.4972
  718MOL0     C94710   5.512   8.186  10.929 -0.6109 -0.2092  0.2748
  718MOL0     H94711   5.293   8.176  11.379 -0.7795  0.6183  0.9782
  718MOL0     H94712   5.099   8.201  11.518 -0.8992 -0.4482  0.2505
  718MOL0     H94713   4.732   8.056  11.493 -0.1173 -1.0651 -0.9933
  718MOL0     H94714   4.744   8.093  11.326 -0.2134  2.1641 -0.4004
  718MOL0     H94715   4.631   8.330  11.376  0.4067  0.1911 -0.7176
  718MOL0     H94716   4.599   8.256  11.533  1.6645 -2.2407  1.6286
  718MOL0     H94717   4.484   8.067  11.401 -1.6943  0.1815 -1.1273
  718MOL0     H94718   4.484   8.181  11.266  2.7888 -0.9628 -0.2187
  718MOL0     H94719   4.379   8.266  11.547  3.2667 -0.5548 -0.9744
  718MOL0     H94720   4.344   8.344  11.397  1.0339  0.0901 -0.0402
  718MOL0     H94721   4.235   8.062  11.462 -0.4309  0.0762  3.3843
  718MOL0     H94722   4.224   8.156  11.310  2.1064 -1.4130  0.0903
  718MOL0     H94723   4.096   8.333  11.435 -1.5551 -0.0979 -0.4434
  718MOL0     H94724   4.145   8.240  11.590 -0.8582 -1.5176  0.8882
  718MOL0     H94725   4.018   8.042  11.483  1.4526  0.1468 -3.0564
  718MOL0     H94726   3.911   8.180  11.516 -0.7561  1.6767 -0.8891
  718MOL0     H94727   4.013   8.088  11.249 -0.8472 -1.1967  1.2351
  718MOL0     H94728   3.986   8.261  11.277  0.5244  2.1973  5.5714
  718MOL0     H94729   3.813   7.954  11.170 -0.1486 -0.0034 -0.7505
  718MOL0     H94730   3.567   7.942  11.050 -3.3019 -2.5701  0.9353
  718MOL0     H94731   3.438   8.044  11.098 -0.9179  0.4499  1.3553
  718MOL0     H94732   3.400   7.907  11.293 -0.1721  0.0082  0.2439
  718MOL0     H94733   3.562   7.847  11.290 -2.6159 -1.0077  3.3496
  718MOL0     H94734   3.356   7.823  11.058  1.0971  2.1946  2.5629
  718MOL0     H94735   3.501   7.745  11.049 -0.8781  0.5701  0.6432
  718MOL0     H94736   3.303   7.687  11.283 -1.0046  2.3710 -2.0619
  718MOL0     H94737   3.449   7.608  11.269 -1.3440 -0.5351  0.1420
  718MOL0     H94738   3.180   7.401  10.954  1.9619 -2.0196  2.0607
  718MOL0     H94739   2.969   7.279  10.994 -1.3418 -1.8890  0.5306
  718MOL0     H94740   2.543   7.496  11.471 -3.1037  0.3167  3.1651
  718MOL0     H94741   2.326   7.424  11.543  1.0649 -0.4668 -0.4771
  718MOL0     H94742   2.119   7.366  11.580 -1.4341  0.7208 -0.8100
  718MOL0     H94743   2.192   7.217  11.645  4.4677  0.8264 -2.8915
  718MOL0     H94744   1.982   7.095  11.588  0.4082 -1.0107 -2.0216
  718MOL0     H94745   1.927   7.222  11.485  0.1917  1.6620  0.1591
  718MOL0     H94746   1.868   7.356  11.704  2.3864  0.3270  2.0204
  718MOL0     H94747   1.958   7.240  11.793 -0.7504  0.5758  1.4706
  718MOL0     H94748   1.713   7.142  11.628 -3.8236  3.1996  2.5124
  718MOL0     H94749   1.786   7.054  11.757  1.9407  0.5748  2.0699
  718MOL0     H94750   1.628   7.314  11.773  2.2534  1.0855 -0.4385
  718MOL0     H94751   1.742   7.275  11.899 -3.2978  0.8115  1.5805
  718MOL0     H94752   1.618   7.043  11.906  1.0482 -0.4301 -1.5271
  718MOL0     H94753   1.508   7.095  11.782  0.0580 -3.6894  0.6692
  718MOL0     H94754   1.545   7.216  12.060  2.9123 -0.8940 -2.6958
  718MOL0     H94755   1.447   7.299  11.925 -0.8394  0.0347 -0.2959
  718MOL0     H94756   1.398   7.016  12.030 -0.7253  0.0171  0.4269
  718MOL0     H94757   1.310   7.095  11.901 -0.5076  1.9684 -1.1285
  718MOL0     H94758   2.319   7.135  11.219  1.2057 -0.4799  0.6541
  718MOL0     H94759   2.535   7.221  11.147 -0.0912  1.2875 -0.2885
  718MOL0     H94760   2.903   7.497  11.355 -2.2004 -2.7839 -0.8767
  718MOL0     H94761   3.118   7.603  11.337 -2.3901  1.4134 -0.9067
  718MOL0     H94762   4.841   8.192  11.195 -0.6754 -1.2895  1.7630
  718MOL0     H94763   5.044   8.171  11.028 -0.0961 -4.4975 -0.1097
  718MOL0     H94764   5.388   7.927  10.762  0.2217  0.0867 -1.3737
  718MOL0     H94765   5.604   7.943  10.654  1.8127  2.5702 -2.1319
  718MOL0     H94766   5.753   8.058  10.516  0.2768  0.0056 -0.7767
  718MOL0     H94767   5.817   7.936  10.619  0.1879 -1.2485 -2.4869
  718MOL0     H94768   5.971   8.170  10.499  0.0979  1.0713  3.1540
  718MOL0     H94769   6.047   8.062  10.624  2.7776 -0.4077 -2.5066
  718MOL0     H94770   5.948   7.987  10.353  0.7748 -3.4757 -0.4603
  718MOL0     H94771   6.001   7.876  10.489  0.5309  0.7768  1.3601
  718MOL0     H94772   6.175   8.103  10.421 -0.6481 -0.6601  2.4339
  718MOL0     H94773   6.203   7.937  10.472 -0.6818 -0.8153 -0.0371
  718MOL0     H94774   6.278   7.902  10.068 -0.1944 -0.9342 -0.3520
  718MOL0     H94775   5.689   8.289  10.883 -4.7893  2.0820 -0.2044
  718MOL0     H94776   5.487   8.269  10.994 -0.5377  1.1426 -1.3397
  719MOL0     O94777   9.412   5.079   8.050 -0.4998 -0.5814 -0.2990
  719MOL0     C94778   9.462   5.054   8.163  0.9728  0.7798  0.3208
  719MOL0     O94779   9.390   5.023   8.270  0.2773  0.3127  0.0641
  719MOL0     C94780   9.249   5.022   8.265  0.1750  0.0310  0.4328
  719MOL0     C94781   9.187   4.907   8.212 -0.3940  0.2127 -0.4241
  719MOL0     C94782   9.048   4.893   8.223 -0.1724 -0.2627  0.0364
  719MOL0     C94783   8.969   4.995   8.282 -0.3703 -0.3400 -0.6478
  719MOL0     O94784   8.831   4.979   8.296 -0.8080  0.3071  0.2867
  719MOL0     C94785   8.755   5.092   8.362 -0.2880  0.6994  0.8582
  719MOL0     C94786   8.609   5.047   8.375  0.5971  0.4447  0.3449
  719MOL0     C94787   8.527   5.013   8.245 -0.5160  0.7313  0.3955
  719MOL0     C94788   8.387   4.955   8.270  0.8199 -0.4856  0.6840
  719MOL0     C94789   8.291   5.035   8.357  1.1293 -0.1866  1.1913
  719MOL0     C94790   8.265   5.171   8.290 -0.5669 -0.8235  0.3988
  719MOL0     C94791   8.153   5.259   8.348  0.7620  0.0929  0.7229
  719MOL0     C94792   8.014   5.235   8.273 -0.5966 -0.2773  0.7008
  719MOL0     N94793   7.911   5.318   8.340  0.0362  0.0807  0.9831
  719MOL0     C94794   7.870   5.444   8.292 -0.3348  0.6802  0.6757
  719MOL0     C94795   7.789   5.486   8.378 -0.1541  0.1164  0.6924
  719MOL0     C94796   7.722   5.622   8.358 -0.3556 -0.9641  1.8249
  719MOL0     C94797   7.567   5.620   8.377 -0.5823 -0.1168  0.0597
  719MOL0     C94798   7.512   5.760   8.386 -0.1042  0.2686  0.1484
  719MOL0     C94799   7.370   5.769   8.425 -0.0656 -0.4341 -0.3296
  719MOL0     O94800   7.330   5.898   8.474 -0.0351  0.4016  0.8245
  719MOL0     C94801   7.200   5.922   8.510 -0.0184 -0.0646 -0.4586
  719MOL0     C94802   7.167   6.033   8.595  0.1154 -0.2731  0.0168
  719MOL0     C94803   7.038   6.075   8.625 -0.3756  0.1535  0.1150
  719MOL0     C94804   6.932   5.995   8.574  0.3094 -0.4625  0.1526
  719MOL0     C94805   6.796   6.024   8.616  0.0682 -0.8194 -0.3731
  719MOL0     O94806   6.780   6.126   8.710  0.7347 -0.8617 -0.1027
  719MOL0     C94807   6.652   6.174   8.751  0.7612 -0.1796 -0.1955
  719MOL0     C94808   6.530   6.178   8.684 -0.5987 -0.1732 -0.3752
  719MOL0     C94809   6.419   6.256   8.733 -0.5554  0.0915 -0.2883
  719MOL0     C94810   6.435   6.323   8.849  0.3773 -0.4121  0.4152
  719MOL0     O94811   6.346   6.414   8.900 -0.3730 -0.8929  0.5138
  719MOL0     C94812   6.289   6.396   9.032 -0.5765 -0.7008 -0.5304
  719MOL0     C94813   6.164   6.306   9.030  0.3252 -0.5861 -0.5730
  719MOL0     C94814   6.051   6.367   8.944  0.0974  0.7711  0.4627
  719MOL0     C94815   5.935   6.417   9.035  0.0191  0.5164  0.3213
  719MOL0     C94816   5.824   6.445   8.930  0.0403  0.2407  0.4210
  719MOL0     C94817   5.691   6.481   9.002 -0.5027 -0.9256 -1.2098
  719MOL0     C94818   5.702   6.607   9.093 -0.6617 -0.3410 -0.2547
  719MOL0     C94819   5.578   6.697   9.089  0.4106 -0.0460  0.0659
  719MOL0    Cl94820   5.531   6.778   9.241 -0.2252  0.1936  0.0729
  719MOL0     C94821   6.551   6.309   8.927  0.0064 -0.0333  0.4662
  719MOL0     C94822   6.658   6.237   8.876  0.1918  1.1297 -0.9157
  719MOL0     O94823   6.712   5.944   8.579 -0.7139  0.3282 -0.4244
  719MOL0     C94824   6.973   5.888   8.485 -0.1369  0.5270 -0.0731
  719MOL0     C94825   7.100   5.847   8.454  0.7408 -0.3888  0.0055
  719MOL0     N94826   7.780   5.401   8.485  0.2106 -0.3373 -0.5059
  719MOL0     N94827   7.864   5.302   8.467 -0.4136 -0.0916 -0.2407
  719MOL0     C94828   9.036   5.120   8.321 -0.2929  0.7346 -0.3663
  719MOL0     C94829   9.173   5.132   8.312  0.2866  0.4704 -0.9601
  719MOL0     C94830   9.612   5.046   8.177  0.7641  0.1555  0.1172
  719MOL0     C94831   9.691   5.014   8.070 -0.5322 -0.2326  0.6582
  719MOL0     C94832   9.830   5.018   8.075 -0.4124  0.0192 -0.4521
  719MOL0     C94833   9.896   5.067   8.190  0.3569  0.4297  0.3881
  719MOL0     O94834  10.038   5.077   8.199 -0.0540 -0.7240 -0.1143
  719MOL0     C94835  10.130   5.086   8.089 -0.6011 -0.1451  0.1810
  719MOL0     C94836  10.125   5.227   8.035  0.2583 -0.7978  0.2341
  719MOL0     C94837  10.187   5.332   8.136 -0.0361  0.5144 -0.0699
  719MOL0     C94838  10.187   5.470   8.078 -0.5042 -0.0385  0.5314
  719MOL0     C94839  10.059   5.547   8.092  0.7568  0.0704 -0.1335
  719MOL0     C94840   9.962   5.611   8.082  0.9997  0.1443  0.4961
  719MOL0     C94841   9.816   5.092   8.298 -0.5985 -0.0092 -0.7445
  719MOL0     C94842   9.673   5.092   8.293  0.4190  0.2078  0.4988
  719MOL0     H94843   9.238   4.823   8.165  0.8315  0.0495  1.1061
  719MOL0     H94844   8.995   4.803   8.193 -2.3071  0.5882  1.1142
  719MOL0     H94845   8.766   5.179   8.298  0.7596  1.0067  1.4355
  719MOL0     H94846   8.802   5.114   8.458 -1.7714  2.3552  1.2538
  719MOL0     H94847   8.551   5.127   8.423 -1.0380 -1.1640  1.1606
  719MOL0     H94848   8.601   4.963   8.445  1.9865 -1.6046 -1.8097
  719MOL0     H94849   8.580   4.935   8.191 -0.5780  0.1341  1.1898
  719MOL0     H94850   8.524   5.099   8.176  2.5130 -0.8378 -1.9433
  719MOL0     H94851   8.341   4.933   8.174  0.7502  0.5053  0.4862
  719MOL0     H94852   8.400   4.860   8.324  4.2348 -1.5053 -1.5913
  719MOL0     H94853   8.333   5.059   8.455  1.2051  0.4687  1.0029
  719MOL0     H94854   8.192   4.988   8.359 -0.2136  2.1879 -1.6731
  719MOL0     H94855   8.245   5.137   8.188  0.0852  0.0717 -0.0402
  719MOL0     H94856   8.352   5.237   8.290 -0.4424 -0.9872  0.4089
  719MOL0     H94857   8.124   5.216   8.444 -2.8620  0.6690  0.0329
  719MOL0     H94858   8.181   5.364   8.351  1.1764  0.3055 -3.8223
  719MOL0     H94859   7.987   5.129   8.266 -4.1144  0.5592 -0.6930
  719MOL0     H94860   8.017   5.275   8.171 -4.6664 -1.1575  0.0798
  719MOL0     H94861   7.894   5.466   8.189 -0.7469 -0.2070  0.3760
  719MOL0     H94862   7.748   5.658   8.258  2.1600  0.5175  2.9123
  719MOL0     H94863   7.764   5.696   8.426  0.7016  0.6704 -0.4617
  719MOL0     H94864   7.559   5.566   8.472  4.2492 -0.8418  0.2871
  719MOL0     H94865   7.509   5.562   8.304 -2.6211  0.6091  1.0428
  719MOL0     H94866   7.570   5.806   8.467 -1.2511 -1.0140  1.7767
  719MOL0     H94867   7.525   5.805   8.287  0.8554  1.8253  0.9440
  719MOL0     H94868   7.352   5.691   8.499  0.5406 -2.4590 -2.2007
  719MOL0     H94869   7.313   5.720   8.345  1.6978 -4.3500  0.5645
  719MOL0     H94870   7.252   6.089   8.632  0.9905 -2.1289  0.9013
  719MOL0     H94871   7.029   6.155   8.699  0.1607 -0.4658  0.8683
  719MOL0     H94872   6.518   6.121   8.593 -1.5323 -3.6440  1.7360
  719MOL0     H94873   6.326   6.261   8.678 -1.1166  3.2827  0.7209
  719MOL0     H94874   6.267   6.495   9.073  0.2716 -0.7578  0.0843
  719MOL0     H94875   6.368   6.339   9.082  1.0389 -2.8486 -4.9586
  719MOL0     H94876   6.126   6.286   9.131 -0.4424 -1.6176 -1.0468
  719MOL0     H94877   6.190   6.211   8.982  2.2060 -1.3249  1.6818
  719MOL0     H94878   6.016   6.293   8.872 -1.3897  2.7281 -0.9665
  719MOL0     H94879   6.098   6.440   8.876 -1.1858  0.9210 -0.3010
  719MOL0     H94880   5.895   6.348   9.110 -1.3172 -0.2057 -0.9964
  719MOL0     H94881   5.958   6.505   9.096  1.5316  0.2639  0.1556
  719MOL0     H94882   5.807   6.360   8.864  0.4138  1.6365 -1.5486
  719MOL0     H94883   5.852   6.530   8.867  0.0179  1.4446  1.9678
  719MOL0     H94884   5.658   6.398   9.065 -0.8961 -0.5026 -0.8507
  719MOL0     H94885   5.623   6.486   8.916  1.2142 -1.4525 -2.6643
  719MOL0     H94886   5.707   6.567   9.194 -2.7890 -0.2952 -0.0829
  719MOL0     H94887   5.790   6.662   9.058  0.3071 -0.7874  1.4168
  719MOL0     H94888   5.494   6.628   9.073  0.9939 -0.4496 -1.4289
  719MOL0     H94889   5.584   6.768   9.006  1.0279  0.4877  0.5590
  719MOL0     H94890   6.575   6.371   9.012 -0.0889  2.8254 -1.4355
  719MOL0     H94891   6.754   6.229   8.926  0.8637 -2.6777 -2.4385
  719MOL0     H94892   6.893   5.838   8.431  1.4525 -0.3092 -1.7953
  719MOL0     H94893   7.107   5.751   8.403 -3.4362 -2.0568  2.1038
  719MOL0     H94894   8.983   5.210   8.351  1.2137  0.5617  3.4511
  719MOL0     H94895   9.214   5.226   8.348  1.6341 -0.3408 -0.3159
  719MOL0     H94896   9.647   4.990   7.975 -0.4621  0.9932  0.3042
  719MOL0     H94897   9.897   4.974   8.003  1.5131  3.7305 -1.1602
  719MOL0     H94898  10.100   5.015   8.011  2.0608 -0.4680 -0.6590
  719MOL0     H94899  10.234   5.060   8.114  0.8431  1.2408 -3.6732
  719MOL0     H94900  10.187   5.217   7.945 -2.0761 -1.6171 -1.3906
  719MOL0     H94901  10.030   5.263   7.994  1.7464  2.2996 -0.8181
  719MOL0     H94902  10.294   5.312   8.145  1.0722  5.6445  0.9466
  719MOL0     H94903  10.128   5.311   8.226 -1.2497 -2.4016 -1.4366
  719MOL0     H94904  10.255   5.540   8.127 -1.8388  1.0326  0.9178
  719MOL0     H94905  10.216   5.460   7.973 -0.5061 -1.6285  0.6582
  719MOL0     H94906   9.870   5.665   8.072  0.9244 -0.3713 -2.7801
  719MOL0     H94907   9.861   5.135   8.387  0.9951  0.6813 -1.8267
  719MOL0     H94908   9.604   5.135   8.365 -1.8990 -1.5211 -0.5836
  720MOL0     O94909  11.048   2.207   7.934 -0.3828 -0.9290 -0.8395
  720MOL0     C94910  11.036   2.326   7.968 -0.3145  0.3573  0.4769
  720MOL0     O94911  11.140   2.407   8.014  0.1019 -0.2355 -0.1342
  720MOL0     C94912  11.263   2.356   8.020 -0.8523 -1.0302  0.1757
  720MOL0     C94913  11.306   2.265   8.113 -0.1276 -0.0969  0.4965
  720MOL0     C94914  11.441   2.233   8.117  0.6044 -0.8736 -0.7604
  720MOL0     C94915  11.537   2.280   8.024  0.3993 -0.3041  0.3221
  720MOL0     O94916  11.666   2.240   8.028 -0.4660  0.6387 -0.0421
  720MOL0     C94917  11.723   2.173   8.140 -0.1151 -0.7165 -0.2387
  720MOL0     C94918  11.737   2.257   8.267  0.1371 -0.6453 -0.4177
  720MOL0     C94919  11.860   2.346   8.259  0.0083 -0.5174 -1.0038
  720MOL0     C94920  11.877   2.442   8.374 -0.2532  0.6024  0.0007
  720MOL0     C94921  11.983   2.552   8.333  0.0867 -0.1366 -0.0363
  720MOL0     C94922  11.921   2.658   8.239 -0.4919  0.1691 -0.6161
  720MOL0     C94923  12.003   2.777   8.221 -0.4088 -0.4742 -0.3306
  720MOL0     C94924  12.001   2.876   8.336 -0.0679  0.5482  0.2893
  720MOL0     N94925  11.904   2.985   8.307 -0.4671 -0.6400 -1.1500
  720MOL0     C94926  11.949   3.095   8.238 -0.2696 -0.1445 -0.2795
  720MOL0     C94927  11.834   3.159   8.196  0.3377  0.2152  0.1150
  720MOL0     C94928  11.794   3.273   8.106 -0.1578  0.2138  0.0032
  720MOL0     C94929  11.791   3.397   8.184  0.4471 -0.1507 -0.0164
  720MOL0     C94930  11.766   3.519   8.090 -0.6080 -0.5830 -0.5700
  720MOL0     C94931  11.619   3.558   8.061 -0.0877  0.1048  0.2791
  720MOL0     O94932  11.638   3.664   7.969  0.5559  0.4039 -0.5916
  720MOL0     C94933  11.528   3.686   7.890  1.3983  0.9813 -0.6808
  720MOL0     C94934  11.513   3.623   7.766  0.0150 -0.5120 -0.0561
  720MOL0     C94935  11.393   3.639   7.687  0.6120 -0.3876  0.7751
  720MOL0     C94936  11.290   3.725   7.726  0.0270 -0.3540 -0.4334
  720MOL0     C94937  11.164   3.725   7.655  0.1061 -1.1241  1.4258
  720MOL0     O94938  11.169   3.697   7.519 -0.0521 -0.6502  0.3373
  720MOL0     C94939  11.057   3.710   7.447 -0.4491 -0.7267  0.7318
  720MOL0     C94940  10.959   3.619   7.463  0.3246  0.7029 -0.3149
  720MOL0     C94941  10.846   3.613   7.384  0.8485 -0.2761 -0.2780
  720MOL0     C94942  10.821   3.709   7.288 -0.3428  1.0978  0.9816
  720MOL0     O94943  10.710   3.681   7.207  0.0740 -0.3872 -0.4675
  720MOL0     C94944  10.644   3.785   7.134 -0.0885 -0.4618 -0.6566
  720MOL0     C94945  10.530   3.727   7.053  0.3256  0.1149  0.8499
  720MOL0     C94946  10.425   3.821   6.993 -0.1438 -0.8141 -0.4508
  720MOL0     C94947  10.363   3.765   6.869 -0.0223 -0.1076 -0.1834
  720MOL0     C94948  10.233   3.836   6.847  0.0730 -0.4725 -0.7491
  720MOL0     C94949  10.164   3.815   6.707  0.9434  0.0613  0.0628
  720MOL0     C94950  10.121   3.676   6.656 -0.0785 -0.3416 -0.3278
  720MOL0     C94951  10.242   3.611   6.594  0.9027  0.2991 -0.1457
  720MOL0    Cl94952  10.218   3.440   6.538  0.0834  0.2014 -0.4267
  720MOL0     C94953  10.914   3.814   7.267 -0.0417 -0.4341 -0.1659
  720MOL0     C94954  11.035   3.813   7.346  0.1546  0.5341  0.2357
  720MOL0     O94955  11.070   3.768   7.717  0.4546 -0.2338 -0.1778
  720MOL0     C94956  11.300   3.784   7.858  0.0119  1.2295  0.6190
  720MOL0     C94957  11.421   3.770   7.932 -0.3283  0.3129  0.5832
  720MOL0     N94958  11.734   3.080   8.259  0.1535  0.3388  0.0420
  720MOL0     N94959  11.771   2.968   8.317  0.1991 -0.4908 -0.4054
  720MOL0     C94960  11.491   2.378   7.931  0.3558  0.4795 -0.4714
  720MOL0     C94961  11.354   2.408   7.930 -0.6241  0.2261 -0.3235
  720MOL0     C94962  10.902   2.392   7.943 -0.1140 -0.1970  0.7739
  720MOL0     C94963  10.811   2.332   7.853 -0.0180 -0.7031 -0.2798
  720MOL0     C94964  10.682   2.385   7.838  0.2303 -1.3030 -0.5378
  720MOL0     C94965  10.652   2.515   7.893  0.0724 -0.6926 -0.0361
  720MOL0     O94966  10.545   2.598   7.859  0.0861 -0.0802  0.4734
  720MOL0     C94967  10.420   2.530   7.845  0.2297 -0.3758  0.4135
  720MOL0     C94968  10.317   2.621   7.906 -0.3441 -0.3089 -0.7354
  720MOL0     C94969  10.285   2.748   7.822  0.8663  0.0687  0.4242
  720MOL0     C94970  10.209   2.729   7.693  0.1321 -0.0247  0.4388
  720MOL0     C94971  10.071   2.665   7.719  0.6329 -0.1004 -0.0975
  720MOL0     C94972   9.958   2.629   7.743 -0.0566 -0.6442 -0.3649
  720MOL0     C94973  10.749   2.583   7.966 -0.1046  0.8186  0.2934
  720MOL0     C94974  10.867   2.523   7.997  0.4896 -0.0779 -0.4706
  720MOL0     H94975  11.234   2.221   8.182  2.6170 -3.8019  1.3676
  720MOL0     H94976  11.471   2.167   8.198 -1.8529  1.4128  2.2265
  720MOL0     H94977  11.824   2.148   8.108  0.0945  0.2360 -0.3612
  720MOL0     H94978  11.677   2.077   8.166  4.3370 -3.0590 -0.1293
  720MOL0     H94979  11.742   2.191   8.355  0.9955  0.7599  0.6213
  720MOL0     H94980  11.654   2.328   8.277  1.6271  1.0015  0.9024
  720MOL0     H94981  11.852   2.412   8.172  2.8108  1.6902  0.2671
  720MOL0     H94982  11.951   2.287   8.245  0.2018  0.1661 -2.8502
  720MOL0     H94983  11.775   2.474   8.397 -0.5744  0.5107 -1.2605
  720MOL0     H94984  11.908   2.396   8.469 -0.9807  0.4124  0.1485
  720MOL0     H94985  12.067   2.515   8.274 -1.5802 -1.9610 -1.4001
  720MOL0     H94986  12.030   2.604   8.417  2.9322  0.2702 -1.7429
  720MOL0     H94987  11.816   2.667   8.271 -0.2719  0.6031 -0.0027
  720MOL0     H94988  11.920   2.603   8.144  0.8258 -1.4796  0.2742
  720MOL0     H94989  12.107   2.745   8.211 -1.0655 -3.7728  1.6375
  720MOL0     H94990  11.975   2.819   8.124  2.4827 -0.3686 -1.2133
  720MOL0     H94991  12.093   2.931   8.357 -0.7568  1.1064  2.0312
  720MOL0     H94992  11.960   2.829   8.426 -1.0088 -0.6104 -0.7094
  720MOL0     H94993  12.053   3.119   8.218  0.4661  1.4424  4.1363
  720MOL0     H94994  11.693   3.244   8.076  0.9253  0.1757 -4.1259
  720MOL0     H94995  11.848   3.276   8.011 -0.6081 -1.1309 -0.3144
  720MOL0     H94996  11.888   3.403   8.234  0.4313  1.2016 -0.1071
  720MOL0     H94997  11.711   3.395   8.258 -1.6781 -0.6310 -2.2261
  720MOL0     H94998  11.810   3.606   8.140  0.2401 -0.8563 -0.8323
  720MOL0     H94999  11.822   3.509   7.997  3.6859  2.6440  1.3529
  720MOL0     H95000  11.573   3.577   8.158  1.3029  2.4834  0.5495
  720MOL0     H95001  11.566   3.473   8.017  1.1723 -0.4576 -0.2155
  720MOL0     H95002  11.596   3.566   7.724 -1.6199 -1.4852 -2.1037
  720MOL0     H95003  11.399   3.599   7.586  3.2865 -0.1287  0.7709
  720MOL0     H95004  10.978   3.536   7.531 -3.2487  0.4241  0.5347
  720MOL0     H95005  10.781   3.530   7.412 -0.9067  1.7126  1.9045
  720MOL0     H95006  10.704   3.838   7.060 -1.9717  2.1114 -0.4937
  720MOL0     H95007  10.599   3.854   7.207 -1.2862 -1.7868 -0.0996
  720MOL0     H95008  10.475   3.658   7.118 -0.6666  0.1395  0.0665
  720MOL0     H95009  10.565   3.666   6.969 -2.1842 -2.2049  1.3392
  720MOL0     H95010  10.476   3.915   6.968 -1.8254  0.7797  1.6834
  720MOL0     H95011  10.351   3.842   7.071  0.0843  3.8870 -1.1762
  720MOL0     H95012  10.428   3.770   6.781 -0.7642 -0.3303 -0.7541
  720MOL0     H95013  10.326   3.662   6.874 -3.1846  0.6247 -3.7836
  720MOL0     H95014  10.255   3.943   6.846 -1.6414 -0.0894 -0.9738
  720MOL0     H95015  10.161   3.803   6.923 -0.0686  2.1194  0.3439
  720MOL0     H95016  10.224   3.876   6.639  1.1254 -0.5138 -0.2949
  720MOL0     H95017  10.067   3.864   6.724 -1.0899 -3.3935 -0.5352
  720MOL0     H95018  10.094   3.613   6.742  1.0935 -0.1413  0.2118
  720MOL0     H95019  10.042   3.671   6.581  0.3178 -2.1009 -0.6715
  720MOL0     H95020  10.337   3.605   6.647  1.4265 -0.9780 -1.1671
  720MOL0     H95021  10.261   3.679   6.510 -1.1834  1.4126  0.2160
  720MOL0     H95022  10.904   3.882   7.183 -1.9716 -1.2851 -0.6973
  720MOL0     H95023  11.115   3.881   7.319 -0.0680  0.1275 -1.5705
  720MOL0     H95024  11.218   3.836   7.907 -0.2151  1.7060 -0.2369
  720MOL0     H95025  11.432   3.831   8.020 -1.4654 -0.2841  1.1737
  720MOL0     H95026  11.571   2.409   7.865  0.3708  0.2539 -0.5605
  720MOL0     H95027  11.329   2.471   7.845  1.6474 -0.9284 -1.9468
  720MOL0     H95028  10.836   2.245   7.793  0.1269  0.8062 -2.4977
  720MOL0     H95029  10.608   2.343   7.771  0.6352 -0.8301 -1.2899
  720MOL0     H95030  10.425   2.431   7.892 -1.4323 -0.3128  0.7896
  720MOL0     H95031  10.400   2.514   7.739 -0.2840  2.9000 -0.0915
  720MOL0     H95032  10.220   2.571   7.911 -1.0740  1.0111 -1.1700
  720MOL0     H95033  10.354   2.643   8.007 -0.1224  0.2467 -0.9323
  720MOL0     H95034  10.381   2.797   7.804  0.7511 -0.0061 -0.4188
  720MOL0     H95035  10.212   2.804   7.882  0.4510 -1.3768  1.3314
  720MOL0     H95036  10.186   2.815   7.630 -0.9112 -3.0008 -3.6819
  720MOL0     H95037  10.261   2.658   7.628 -0.4388  0.5196 -0.6325
  720MOL0     H95038   9.854   2.619   7.767 -0.3533  0.8455 -0.9218
  720MOL0     H95039  10.719   2.677   8.012  0.6048  0.3467  1.7942
  720MOL0     H95040  10.929   2.585   8.062  1.0553 -1.2647  0.1725
  721MOL0     O95041  10.276   1.753   7.280 -0.9746  0.4474 -0.2699
  721MOL0     C95042  10.324   1.860   7.314  0.5756  0.5250 -0.4140
  721MOL0     O95043  10.251   1.958   7.357  0.0076 -0.6921 -0.1367
  721MOL0     C95044  10.114   1.955   7.361  0.0995  1.1069  0.5015
  721MOL0     C95045  10.039   1.941   7.243 -0.0962  0.5231  0.1768
  721MOL0     C95046   9.896   1.953   7.254  0.3961 -0.1938 -0.0149
  721MOL0     C95047   9.825   1.958   7.379  0.8409 -0.5745 -0.2505
  721MOL0     O95048   9.689   1.961   7.393  0.1407  0.1263 -0.8375
  721MOL0     C95049   9.618   1.895   7.291 -0.2479 -0.2281  0.2363
  721MOL0     C95050   9.473   1.912   7.313  0.5058  0.5270 -0.1925
  721MOL0     C95051   9.393   1.839   7.214 -0.0876 -0.3035  0.1263
  721MOL0     C95052   9.248   1.884   7.224 -0.5830 -0.5815  0.3841
  721MOL0     C95053   9.152   1.843   7.109  1.0232  0.7239  0.1844
  721MOL0     C95054   9.104   1.694   7.109 -0.6164  0.4107  0.6478
  721MOL0     C95055   9.208   1.583   7.081 -0.2367  0.2440 -0.2368
  721MOL0     C95056   9.230   1.490   7.205  0.6702 -1.2704 -0.6061
  721MOL0     N95057   9.320   1.378   7.186  0.1063 -0.1833  0.2127
  721MOL0     C95058   9.440   1.392   7.248 -0.1767 -0.4878 -0.2097
  721MOL0     C95059   9.480   1.263   7.255 -0.0861  0.1568  0.1675
  721MOL0     C95060   9.621   1.239   7.293  1.1868  1.8542 -0.0291
  721MOL0     C95061   9.666   1.107   7.230 -0.0328 -0.1775  0.3326
  721MOL0     C95062   9.675   1.117   7.077  0.4928  0.3069  0.1421
  721MOL0     C95063   9.814   1.073   7.031  0.5467 -0.2348  1.2319
  721MOL0     O95064   9.834   1.102   6.889  0.0898  0.3446 -0.0942
  721MOL0     C95065   9.964   1.125   6.856 -0.3129  0.7431  0.2140
  721MOL0     C95066   9.982   1.213   6.752 -0.6300 -0.1245 -0.2425
  721MOL0     C95067  10.108   1.267   6.722 -0.0606 -0.2739 -1.1856
  721MOL0     C95068  10.225   1.208   6.775  0.4124 -0.1918  0.2073
  721MOL0     C95069  10.354   1.248   6.731 -0.3750  0.2562  0.8631
  721MOL0     O95070  10.442   1.146   6.714  0.0562 -0.6059 -0.0505
  721MOL0     C95071  10.575   1.182   6.710 -0.6144  0.7345  0.4465
  721MOL0     C95072  10.634   1.256   6.814 -0.2504  0.3435  1.0213
  721MOL0     C95073  10.767   1.275   6.825 -0.1149 -0.3065 -0.2765
  721MOL0     C95074  10.856   1.227   6.731 -0.0483 -0.2589  0.9212
  721MOL0     O95075  10.993   1.252   6.752  0.1035 -0.5084  0.5208
  721MOL0     C95076  11.086   1.205   6.643  0.3247 -0.1187 -0.4164
  721MOL0     C95077  11.233   1.271   6.668  0.4917  0.1213  0.7189
  721MOL0     C95078  11.295   1.281   6.809  0.1416 -0.3137 -0.8607
  721MOL0     C95079  11.435   1.341   6.816 -0.5175 -0.5022  0.2265
  721MOL0     C95080  11.496   1.319   6.958  0.0112 -1.0010  0.9415
  721MOL0     C95081  11.630   1.389   6.984  0.1900  0.1834 -0.6526
  721MOL0     C95082  11.686   1.334   7.118  1.2644 -0.7609  0.4485
  721MOL0     C95083  11.733   1.433   7.221  0.5613 -0.0201  0.9198
  721MOL0    Cl95084  11.859   1.518   7.132 -0.0120  0.4223 -0.2541
  721MOL0     C95085  10.805   1.155   6.617  0.6019  0.1489  0.0506
  721MOL0     C95086  10.659   1.129   6.613  0.6795 -0.5465 -0.0483
  721MOL0     O95087  10.383   1.366   6.731 -0.9311 -0.0057  0.2818
  721MOL0     C95088  10.203   1.102   6.864  0.4530 -0.1648 -0.0941
  721MOL0     C95089  10.078   1.057   6.903  0.7472 -0.5110  0.3999
  721MOL0     N95090   9.381   1.185   7.197 -0.9575  0.5664 -0.1316
  721MOL0     N95091   9.285   1.255   7.157  0.0559 -0.8721 -0.5408
  721MOL0     C95092   9.903   1.960   7.501 -0.1199  0.0726  0.6682
  721MOL0     C95093  10.050   1.967   7.487  0.8108 -0.4701  0.4874
  721MOL0     C95094  10.464   1.885   7.322 -0.7934 -0.2578  0.2653
  721MOL0     C95095  10.508   2.013   7.347  0.5202 -0.5340 -0.2868
  721MOL0     C95096  10.642   2.048   7.323  0.0862  0.3363  0.6571
  721MOL0     C95097  10.737   1.950   7.283  0.1678  0.0703 -0.4747
  721MOL0     O95098  10.867   1.995   7.253  0.4666 -0.8945  0.6652
  721MOL0     C95099  10.963   1.891   7.268 -0.1094 -0.8127  0.3960
  721MOL0     C95100  11.099   1.951   7.251  0.0960  0.1172 -0.1848
  721MOL0     C95101  11.140   1.991   7.103 -0.2148 -0.3876 -0.3036
  721MOL0     C95102  11.266   2.077   7.090 -0.3661  0.2211 -0.6316
  721MOL0     C95103  11.248   2.216   7.140 -0.5582  0.3935  0.3012
  721MOL0     C95104  11.233   2.332   7.166  1.0508  0.3331 -0.1141
  721MOL0     C95105  10.691   1.821   7.279 -0.2759 -0.0483 -0.2715
  721MOL0     C95106  10.554   1.792   7.287 -0.1389  0.1200  0.3147
  721MOL0     H95107  10.082   1.949   7.144 -1.3643  0.7016 -0.3821
  721MOL0     H95108   9.839   1.941   7.162 -0.9603 -0.5024  0.8325
  721MOL0     H95109   9.640   1.788   7.289 -1.0319 -0.3876 -0.9485
  721MOL0     H95110   9.637   1.930   7.189 -0.2072 -0.6023  0.1121
  721MOL0     H95111   9.455   2.019   7.330  1.5618  0.7004 -0.0612
  721MOL0     H95112   9.460   1.857   7.407  1.0422  0.0330 -0.3991
  721MOL0     H95113   9.406   1.731   7.224  1.1186 -0.1037  0.9234
  721MOL0     H95114   9.431   1.872   7.116  0.4232 -2.1071 -0.3128
  721MOL0     H95115   9.205   1.853   7.320  0.8019  0.1579  1.2896
  721MOL0     H95116   9.245   1.993   7.231 -3.6201 -0.5116 -0.5337
  721MOL0     H95117   9.190   1.858   7.008  2.0837 -2.2054  0.0535
  721MOL0     H95118   9.059   1.899   7.117  0.9710  0.8196 -0.9054
  721MOL0     H95119   9.029   1.691   7.029  0.2629  2.6386 -0.3428
  721MOL0     H95120   9.050   1.676   7.202 -0.1860  2.0597  1.2508
  721MOL0     H95121   9.168   1.521   7.000 -3.4024 -1.0043  2.0800
  721MOL0     H95122   9.301   1.632   7.050  0.8014 -1.9003 -0.7120
  721MOL0     H95123   9.139   1.437   7.234 -0.4784  0.5797 -0.6908
  721MOL0     H95124   9.265   1.563   7.279  0.2558 -0.3914 -1.2489
  721MOL0     H95125   9.490   1.484   7.278 -0.2696 -0.2381 -0.8137
  721MOL0     H95126   9.632   1.212   7.398 -1.7056 -0.3518 -0.1841
  721MOL0     H95127   9.681   1.328   7.269  1.0953  1.8228 -0.3815
  721MOL0     H95128   9.602   1.023   7.259  1.1876 -2.3795 -2.7670
  721MOL0     H95129   9.772   1.103   7.257 -0.6876 -1.2472  3.0547
  721MOL0     H95130   9.585   1.068   7.039 -0.8859  1.6075  1.5962
  721MOL0     H95131   9.653   1.221   7.053 -2.0512 -0.9427 -3.9111
  721MOL0     H95132   9.819   0.964   7.023 -0.8153 -0.1873 -1.1155
  721MOL0     H95133   9.896   1.114   7.092  1.9466  0.2319 -0.8568
  721MOL0     H95134   9.899   1.267   6.706 -1.0191 -0.9926 -0.5860
  721MOL0     H95135  10.119   1.351   6.655 -1.2457  0.7839 -0.1156
  721MOL0     H95136  10.571   1.293   6.893 -1.0126 -4.0480  2.7271
  721MOL0     H95137  10.813   1.329   6.908 -1.5528  1.3390 -0.5086
  721MOL0     H95138  11.045   1.243   6.549 -2.9051  1.0946  1.3084
  721MOL0     H95139  11.084   1.096   6.651  0.7383 -0.0914  0.1047
  721MOL0     H95140  11.218   1.373   6.632 -1.6795 -0.1447  0.7163
  721MOL0     H95141  11.301   1.216   6.603  0.4498 -0.9642  1.5685
  721MOL0     H95142  11.311   1.177   6.837 -1.3781 -0.8473 -1.8798
  721MOL0     H95143  11.224   1.335   6.873  1.7888  0.9911 -0.0476
  721MOL0     H95144  11.503   1.293   6.744  1.2063  1.0183  0.7570
  721MOL0     H95145  11.431   1.448   6.793  1.1149 -0.2827  0.8066
  721MOL0     H95146  11.513   1.211   6.955  0.5081 -0.9461 -2.0200
  721MOL0     H95147  11.419   1.349   7.029 -1.6711  1.9532 -1.8507
  721MOL0     H95148  11.613   1.495   6.968  1.2483  0.1873 -1.8719
  721MOL0     H95149  11.707   1.366   6.910  1.7887 -1.7233  1.4285
  721MOL0     H95150  11.612   1.274   7.172  0.2010  0.4210  0.3394
  721MOL0     H95151  11.767   1.267   7.088  0.5551 -1.9901  1.2009
  721MOL0     H95152  11.777   1.369   7.298 -1.5751 -2.6301  0.1643
  721MOL0     H95153  11.660   1.504   7.262  0.0387  1.1112 -1.7772
  721MOL0     H95154  10.867   1.109   6.541 -0.6596 -1.3133 -0.1550
  721MOL0     H95155  10.625   1.052   6.544 -1.4776 -0.5635  0.9601
  721MOL0     H95156  10.293   1.058   6.905 -0.2365 -0.2852  1.3627
  721MOL0     H95157  10.073   0.970   6.968  0.1698  2.5803  4.9031
  721MOL0     H95158   9.845   1.962   7.592  0.1004  0.3800  0.8022
  721MOL0     H95159  10.105   1.984   7.579  0.7366  2.4869  0.0788
  721MOL0     H95160  10.442   2.091   7.385 -0.3740 -2.1322  1.5858
  721MOL0     H95161  10.669   2.152   7.336  2.3952 -0.2443  0.9503
  721MOL0     H95162  10.950   1.806   7.201  3.5172 -2.7127  1.8060
  721MOL0     H95163  10.941   1.858   7.370 -5.3835 -1.1507 -0.5881
  721MOL0     H95164  11.087   2.047   7.303 -5.1639  0.7079 -1.8959
  721MOL0     H95165  11.176   1.883   7.289 -0.3747  0.3221  1.2272
  721MOL0     H95166  11.059   2.057   7.070 -1.5861 -1.0773  1.4789
  721MOL0     H95167  11.145   1.905   7.036  0.8869  1.1547 -2.2692
  721MOL0     H95168  11.353   2.033   7.139 -1.6666 -2.7278 -0.7767
  721MOL0     H95169  11.291   2.082   6.984 -0.3799  0.7884 -0.6114
  721MOL0     H95170  11.212   2.436   7.179  3.9345  0.7766  1.8203
  721MOL0     H95171  10.754   1.740   7.244 -0.4715 -1.8775  3.1880
  721MOL0     H95172  10.513   1.697   7.253 -0.0683  0.3715 -0.4887
  722MOL0     O95173  10.625  10.362   7.989 -0.0746 -0.0274  0.2757
  722MOL0     C95174  10.631  10.402   7.875  0.4291 -0.5354 -0.1687
  722MOL0     O95175  10.542  10.377   7.771  0.4566 -0.9585 -0.5150
  722MOL0     C95176  10.409  10.348   7.810  0.2061  0.0505  0.2520
  722MOL0     C95177  10.340  10.259   7.732  0.2046 -0.4093 -0.3489
  722MOL0     C95178  10.198  10.235   7.757  0.2296 -0.2383 -0.6807
  722MOL0     C95179  10.131  10.290   7.866  0.3275  0.5870  0.4237
  722MOL0     O95180   9.996  10.263   7.874 -0.1443 -0.2061 -0.0415
  722MOL0     C95181   9.941  10.255   7.999  0.0712 -0.5205  0.2507
  722MOL0     C95182   9.841  10.139   7.991  0.2878  0.4267 -0.2371
  722MOL0     C95183   9.720  10.146   8.074  1.0295  0.3698 -0.8867
  722MOL0     C95184   9.615  10.041   8.049  0.1110 -0.2520 -0.0257
  722MOL0     C95185   9.483  10.068   8.130  0.2715  0.8344 -0.0621
  722MOL0     C95186   9.400  10.177   8.068 -0.1339 -0.0707  0.4963
  722MOL0     C95187   9.264  10.190   8.135 -0.2034 -0.2768  0.4225
  722MOL0     C95188   9.236  10.321   8.212  1.5591 -0.1868 -0.3157
  722MOL0     N95189   9.345  10.336   8.307 -0.5880 -0.0741 -0.4635
  722MOL0     C95190   9.470  10.382   8.285 -0.3539 -0.2589 -1.2639
  722MOL0     C95191   9.536  10.352   8.400 -0.2646  0.3321 -0.0848
  722MOL0     C95192   9.677  10.400   8.449 -0.5943  0.3081  0.0721
  722MOL0     C95193   9.795  10.370   8.355 -0.3754 -0.0127  0.3470
  722MOL0     C95194   9.915  10.425   8.413  0.2131 -0.1959  0.0475
  722MOL0     C95195  10.040  10.395   8.327 -0.7358 -0.6958 -0.4286
  722MOL0     O95196  10.162  10.427   8.408  0.5258  0.2526 -0.2339
  722MOL0     C95197  10.218  10.546   8.361 -0.5953  0.9464 -0.2776
  722MOL0     C95198  10.161  10.671   8.361  0.2697 -0.0918 -0.4354
  722MOL0     C95199  10.238  10.781   8.317  0.3620  1.0638  0.0458
  722MOL0     C95200  10.368  10.765   8.266 -0.4265 -0.1136 -0.7277
  722MOL0     C95201  10.451  10.876   8.213  0.3060  0.6605  0.3050
  722MOL0     O95202  10.559  10.833   8.153 -0.7122  0.1545  0.3536
  722MOL0     C95203  10.661  10.923   8.136  0.4741 -0.7646 -0.4806
  722MOL0     C95204  10.799  10.882   7.990 -0.1293  0.9794 -0.6570
  722MOL0     C95205  10.992  10.979   7.996 -0.0071  0.5278  0.3189
  722MOL0     C95206  11.034  11.113   8.151 -0.2036 -0.1535 -0.3124
  722MOL0     O95207  11.165  11.157   8.163  0.1770 -0.0829 -0.1007
  722MOL0     C95208  11.199  11.214   8.289 -0.7360 -0.0900  0.3303
  722MOL0     C95209  11.349  11.205   8.310  1.0310  0.0994 -0.5140
  722MOL0     C95210  11.384  11.267   8.440 -0.0578 -0.8913 -0.0744
  722MOL0     C95211  11.531  11.251   8.462  0.6008 -0.0852 -0.4106
  722MOL0     C95212  11.551  11.279   8.607 -0.5769  0.6574  0.0806
  722MOL0     C95213  11.690  11.264   8.675 -0.0712 -0.1793  0.3862
  722MOL0     C95214  11.688  11.227   8.823 -0.5129 -0.0964 -0.5028
  722MOL0     C95215  11.833  11.218   8.869 -0.6258 -0.5768  0.2699
  722MOL0    Cl95216  11.829  11.132   9.026 -0.2827 -0.3546  0.1559
  722MOL0     C95217  10.890  11.157   8.292  0.0915 -0.6965 -0.0100
  722MOL0     C95218  10.699  11.064   8.284  0.1097  0.3167 -1.3961
  722MOL0     O95219  10.418  10.990   8.230 -0.3813 -0.6380 -0.2770
  722MOL0     C95220  10.417  10.631   8.267 -0.0347  0.3272  0.5456
  722MOL0     C95221  10.347  10.523   8.314 -0.6321 -0.0912  0.1642
  722MOL0     N95222   9.445  10.309   8.500 -0.6000 -0.8350  0.3158
  722MOL0     N95223   9.334  10.292   8.436  1.0877 -0.4243 -0.5177
  722MOL0     C95224  10.207  10.370   7.948  0.0195  0.2679  0.3260
  722MOL0     C95225  10.341  10.407   7.921  0.2986  0.8513  0.0354
  722MOL0     C95226  10.758  10.469   7.839 -0.2386  0.4506  0.7139
  722MOL0     C95227  10.787  10.494   7.700 -1.2724  0.1894 -0.8382
  722MOL0     C95228  10.906  10.567   7.668 -0.2595 -0.5187 -0.1027
  722MOL0     C95229  10.987  10.614   7.764 -0.2234  0.8014  0.2912
  722MOL0     O95230  11.091  10.700   7.726  0.7545 -0.1420  0.5419
  722MOL0     C95231  11.198  10.734   7.808 -0.0383 -0.1123 -0.2622
  722MOL0     C95232  11.273  10.843   7.717  0.2104 -0.3361  0.1949
  722MOL0     C95233  11.424  10.874   7.756 -0.4044 -0.5058  0.6130
  722MOL0     C95234  11.490  10.994   7.684  0.2130 -0.6966 -0.5417
  722MOL0     C95235  11.440  11.124   7.736  0.2479 -0.2573 -0.0409
  722MOL0     C95236  11.402  11.233   7.769 -0.4251 -0.5137  0.4430
  722MOL0     C95237  10.970  10.582   7.899  1.1525 -0.6632  0.2843
  722MOL0     C95238  10.854  10.510   7.931  0.2369  0.6921  0.5875
  722MOL0     H95239  10.383  10.221   7.640 -1.3425  2.0210 -2.2150
  722MOL0     H95240  10.138  10.169   7.695 -0.4706 -1.4129  1.1447
  722MOL0     H95241   9.888  10.346   8.028 -1.6714 -2.1350  2.4379
  722MOL0     H95242  10.021  10.225   8.068  0.2993 -2.5182 -0.8055
  722MOL0     H95243   9.901  10.054   8.027 -1.6454 -1.2509 -0.7901
  722MOL0     H95244   9.821  10.124   7.885 -0.9689 -0.1652  0.0743
  722MOL0     H95245   9.670  10.240   8.049  1.0032  0.3290 -0.9848
  722MOL0     H95246   9.753  10.135   8.178  2.3958 -4.2804 -1.6045
  722MOL0     H95247   9.599  10.059   7.942  0.5306 -0.2312 -0.0877
  722MOL0     H95248   9.646   9.939   8.073  0.8375 -0.1772 -0.6206
  722MOL0     H95249   9.502  10.084   8.236  0.9812  0.3324 -0.1124
  722MOL0     H95250   9.423   9.977   8.139 -1.7321  2.0730 -0.1603
  722MOL0     H95251   9.374  10.151   7.965  1.1655  1.3378 -0.2281
  722MOL0     H95252   9.450  10.273   8.050 -0.5915  0.4812  1.9629
  722MOL0     H95253   9.189  10.177   8.056  0.2600 -0.6032  0.0327
  722MOL0     H95254   9.250  10.106   8.204 -0.0137 -0.8943 -0.2784
  722MOL0     H95255   9.137  10.313   8.256  0.6413  3.2736 -1.4207
  722MOL0     H95256   9.220  10.405   8.143  1.8157  1.8829  2.0021
  722MOL0     H95257   9.502  10.433   8.195  0.5739 -1.0255 -1.3777
  722MOL0     H95258   9.697  10.357   8.547  1.1788  1.2705  0.1603
  722MOL0     H95259   9.674  10.508   8.459 -1.8401  0.4029 -0.9642
  722MOL0     H95260   9.786  10.399   8.250 -1.4652 -0.6583  0.2453
  722MOL0     H95261   9.798  10.261   8.339 -1.8871 -0.1278  0.7263
  722MOL0     H95262   9.892  10.531   8.414  0.3675 -0.1471  1.6389
  722MOL0     H95263   9.924  10.397   8.518 -1.6355  3.0152  1.2062
  722MOL0     H95264  10.039  10.450   8.232 -1.6413  1.3421  0.6998
  722MOL0     H95265  10.051  10.290   8.300 -0.2312 -0.6890 -0.2618
  722MOL0     H95266  10.062  10.698   8.397  0.2627  0.1718 -0.6468
  722MOL0     H95267  10.182  10.874   8.329 -2.6745 -0.5424 -0.6827
  722MOL0     H95268  10.768  10.803   7.922 -0.2865 -0.2637  0.7909
  722MOL0     H95269  11.071  10.952   7.927 -0.2280  2.6587 -0.8694
  722MOL0     H95270  11.141  11.169   8.370 -0.9581  1.6791  1.2002
  722MOL0     H95271  11.175  11.320   8.278 -2.4590 -0.6385 -2.1956
  722MOL0     H95272  11.392  11.256   8.224 -0.8722  0.9475 -1.0325
  722MOL0     H95273  11.390  11.104   8.310 -1.2626 -0.9095 -1.1824
  722MOL0     H95274  11.323  11.207   8.509 -1.3602 -1.2629 -1.4804
  722MOL0     H95275  11.354  11.373   8.446  1.0484 -0.5453 -0.5092
  722MOL0     H95276  11.569  11.152   8.434 -1.9931 -1.0168 -0.9086
  722MOL0     H95277  11.575  11.327   8.397 -1.6877  2.3661  0.7134
  722MOL0     H95278  11.490  11.210   8.666 -1.2858 -1.2497 -2.7225
  722MOL0     H95279  11.522  11.384   8.620 -2.3078  0.0134  1.7888
  722MOL0     H95280  11.747  11.357   8.664  0.6038 -0.4433  1.4631
  722MOL0     H95281  11.751  11.186   8.629 -1.6817 -1.6659  0.6717
  722MOL0     H95282  11.627  11.306   8.869  3.0431  3.0319 -0.7050
  722MOL0     H95283  11.634  11.133   8.842  3.3404 -2.3116  0.5322
  722MOL0     H95284  11.882  11.316   8.882 -3.9550  1.1482  0.9816
  722MOL0     H95285  11.893  11.158   8.800  0.3356 -1.6270  1.9672
  722MOL0     H95286  10.919  11.215   8.379  1.6069 -0.9229 -0.3382
  722MOL0     H95287  10.617  11.082   8.353  2.2289 -0.7747  1.6357
  722MOL0     H95288  10.518  10.602   8.243 -0.3118 -0.3070  0.1190
  722MOL0     H95289  10.385  10.422   8.325  0.0129  0.0728 -0.5092
  722MOL0     H95290  10.163  10.431   8.027  1.7992  0.6752  1.0552
  722MOL0     H95291  10.410  10.463   7.983  2.6853 -3.1344  1.3781
  722MOL0     H95292  10.717  10.459   7.625 -0.7911  0.8376 -1.6071
  722MOL0     H95293  10.938  10.588   7.566 -1.3884 -0.8178 -0.5304
  722MOL0     H95294  11.254  10.643   7.830  0.8871  0.9772  2.3106
  722MOL0     H95295  11.179  10.781   7.905 -1.1500  0.3683 -0.6958
  722MOL0     H95296  11.266  10.826   7.609 -4.5231 -1.6008  0.4837
  722MOL0     H95297  11.221  10.937   7.737  0.9794  0.5414 -1.7119
  722MOL0     H95298  11.497  10.796   7.733  3.5446  3.0849 -0.3067
  722MOL0     H95299  11.431  10.892   7.863 -1.6657 -2.1214  1.0204
  722MOL0     H95300  11.597  11.003   7.708 -0.2770 -0.5275  1.7848
  722MOL0     H95301  11.479  10.985   7.575  2.0795 -5.0050 -0.5740
  722MOL0     H95302  11.362  11.332   7.776 -2.3625 -1.2804  1.0000
  722MOL0     H95303  11.039  10.624   7.971 -1.6798 -0.6283  3.1802
  722MOL0     H95304  10.818  10.498   8.033  1.0453  1.7000  1.0112
  723MOL0     O95305   8.998   7.565   7.347  0.3543  1.1542  0.1247
  723MOL0     C95306   9.034   7.668   7.294 -0.5395 -0.0021 -0.3865
  723MOL0     O95307   8.957   7.752   7.219  0.4581  0.1731 -0.4855
  723MOL0     C95308   8.823   7.724   7.202 -0.3272 -0.8555 -0.7894
  723MOL0     C95309   8.732   7.697   7.307  0.2145 -1.0202 -0.1681
  723MOL0     C95310   8.604   7.644   7.286  0.6401 -0.1772  0.0088
  723MOL0     C95311   8.565   7.602   7.156 -0.4759  1.2840  0.8232
  723MOL0     O95312   8.454   7.530   7.122  0.1251 -0.5773 -0.6493
  723MOL0     C95313   8.344   7.616   7.140 -0.0370  0.0661  0.0271
  723MOL0     C95314   8.267   7.605   7.001  0.7331  0.0836 -0.7261
  723MOL0     C95315   8.136   7.683   7.016  0.0984  0.3541  0.4867
  723MOL0     C95316   8.059   7.685   6.885 -0.2884  0.3261  1.0830
  723MOL0     C95317   7.904   7.701   6.902  0.5485 -0.1340 -0.1098
  723MOL0     C95318   7.831   7.679   6.774  0.5893  0.7889  1.5838
  723MOL0     C95319   7.684   7.655   6.796 -0.6907 -0.4341 -0.2316
  723MOL0     C95320   7.613   7.617   6.665 -0.5074  0.5154 -0.1375
  723MOL0     N95321   7.463   7.608   6.680  0.3958  0.3969 -0.0770
  723MOL0     C95322   7.394   7.530   6.767 -0.7733  0.7965  0.8285
  723MOL0     C95323   7.265   7.542   6.743  0.9924 -0.0412 -0.4997
  723MOL0     C95324   7.165   7.455   6.805  0.9421 -0.2449  0.4907
  723MOL0     C95325   7.030   7.527   6.836  0.4245 -0.1191 -0.3176
  723MOL0     C95326   6.937   7.419   6.893  0.9370  0.6562  0.9833
  723MOL0     C95327   6.868   7.332   6.780  0.1434  0.1744 -1.4114
  723MOL0     O95328   6.781   7.402   6.698 -0.4371  0.4080 -1.1142
  723MOL0     C95329   6.650   7.410   6.746  0.8591 -0.6272 -0.0502
  723MOL0     C95330   6.554   7.304   6.733 -0.7156 -0.5849  0.5068
  723MOL0     C95331   6.423   7.323   6.777  0.0441 -0.3420  0.1067
  723MOL0     C95332   6.392   7.445   6.845  0.3549  0.4448 -0.6529
  723MOL0     C95333   6.256   7.481   6.883 -0.4442  1.4415  0.6278
  723MOL0     O95334   6.231   7.605   6.944  0.7343 -0.5129  0.4610
  723MOL0     C95335   6.098   7.623   6.980  0.8485 -0.0532  0.1136
  723MOL0     C95336   6.004   7.707   6.914 -0.2835 -1.2848  1.1220
  723MOL0     C95337   5.872   7.723   6.954 -0.0891 -0.7168  0.0634
  723MOL0     C95338   5.825   7.657   7.066  0.3344 -0.3100 -0.8520
  723MOL0     O95339   5.696   7.666   7.105 -0.0362  0.6396 -0.1983
  723MOL0     C95340   5.633   7.793   7.082 -0.1376 -0.0180 -0.2255
  723MOL0     C95341   5.491   7.794   7.138  1.0177  0.4083 -0.7804
  723MOL0     C95342   5.412   7.675   7.077  0.6592  0.8124 -0.0466
  723MOL0     C95343   5.263   7.682   7.098 -0.3661 -0.5906 -0.0782
  723MOL0     C95344   5.217   7.648   7.242 -0.0646 -0.3428  0.1365
  723MOL0     C95345   5.068   7.617   7.236 -0.7808 -0.5764 -0.2988
  723MOL0     C95346   5.019   7.553   7.366 -0.1309  0.2589 -0.3315
  723MOL0     C95347   4.863   7.533   7.360 -0.9945  0.1368  0.2857
  723MOL0    Cl95348   4.793   7.561   7.513 -0.6949 -0.4049 -0.0071
  723MOL0     C95349   5.917   7.578   7.137  0.5191 -0.5042  0.4695
  723MOL0     C95350   6.049   7.555   7.089  0.0285 -0.3581  0.8860
  723MOL0     O95351   6.174   7.391   6.870 -0.0516  0.2570  0.7339
  723MOL0     C95352   6.492   7.531   6.876  0.2418  0.1683  0.2845
  723MOL0     C95353   6.620   7.521   6.818  0.5650 -0.5278  0.0780
  723MOL0     N95354   7.248   7.627   6.634  0.4433  1.2860 -0.4020
  723MOL0     N95355   7.366   7.668   6.604 -0.4160  0.5995 -0.1704
  723MOL0     C95356   8.652   7.628   7.047 -0.1252  0.2646 -0.5982
  723MOL0     C95357   8.772   7.697   7.076  0.3507  0.8286 -0.1960
  723MOL0     C95358   9.177   7.699   7.297 -0.0740 -1.1491 -0.1269
  723MOL0     C95359   9.219   7.831   7.263  0.6147 -1.0843  0.6654
  723MOL0     C95360   9.350   7.865   7.282 -0.3609  0.7320  0.4676
  723MOL0     C95361   9.447   7.784   7.341  0.0334  1.3027 -0.4233
  723MOL0     O95362   9.572   7.826   7.378  0.1680  0.0102 -0.3402
  723MOL0     C95363   9.656   7.749   7.469 -0.6561  0.1382 -0.0475
  723MOL0     C95364   9.785   7.704   7.404  0.1384  0.2211  0.1117
  723MOL0     C95365   9.855   7.827   7.346 -0.4759  0.4017  0.2929
  723MOL0     C95366   9.997   7.796   7.288  0.8984 -0.5236 -0.3607
  723MOL0     C95367   9.992   7.729   7.156  0.1310  0.1892 -0.0372
  723MOL0     C95368   9.959   7.689   7.049  1.2654 -0.2563 -0.7529
  723MOL0     C95369   9.413   7.644   7.351  0.3708  0.0593 -0.0824
  723MOL0     C95370   9.275   7.601   7.330 -0.1012  0.3451 -0.1605
  723MOL0     H95371   8.767   7.708   7.409 -1.4642  0.4954  0.2925
  723MOL0     H95372   8.526   7.606   7.351 -2.3413 -0.8277 -3.5713
  723MOL0     H95373   8.369   7.713   7.183 -1.0933  0.2493  0.2594
  723MOL0     H95374   8.284   7.574   7.221 -0.7815  1.4185  0.2125
  723MOL0     H95375   8.242   7.499   6.990 -4.1705  0.7304  1.3698
  723MOL0     H95376   8.330   7.634   6.916  3.5864 -1.8529  0.5687
  723MOL0     H95377   8.160   7.785   7.048 -1.3134  1.2795 -1.2056
  723MOL0     H95378   8.066   7.640   7.088 -2.6961 -1.0385 -2.7936
  723MOL0     H95379   8.096   7.772   6.829  1.3186 -0.2949  1.1352
  723MOL0     H95380   8.073   7.598   6.822 -1.8329  0.7515  0.0895
  723MOL0     H95381   7.876   7.804   6.926  1.5768  0.5074 -1.5229
  723MOL0     H95382   7.855   7.639   6.977 -0.2203  1.6755  0.9657
  723MOL0     H95383   7.866   7.591   6.720  1.1150  1.8616  0.0889
  723MOL0     H95384   7.836   7.772   6.716 -0.8541  0.1667  0.3551
  723MOL0     H95385   7.688   7.573   6.869  1.8501 -2.7189 -2.7181
  723MOL0     H95386   7.637   7.745   6.837  2.1214  0.4328  1.3531
  723MOL0     H95387   7.654   7.524   6.626  0.8542  1.7110 -1.7236
  723MOL0     H95388   7.630   7.698   6.593  0.1547  3.0460  2.6610
  723MOL0     H95389   7.440   7.464   6.840  0.1289  0.1501 -0.2889
  723MOL0     H95390   7.208   7.417   6.898  1.0954  1.1416  1.0098
  723MOL0     H95391   7.140   7.378   6.732  1.9199 -0.8302  0.7606
  723MOL0     H95392   6.983   7.555   6.741  0.4606  2.5423  0.3796
  723MOL0     H95393   7.043   7.613   6.903  0.1209 -0.6400  0.4221
  723MOL0     H95394   6.990   7.352   6.961 -0.7646 -1.6200  0.1705
  723MOL0     H95395   6.847   7.460   6.941  0.2709 -0.6416  0.8762
  723MOL0     H95396   6.813   7.253   6.831 -0.3678  1.7980  0.6970
  723MOL0     H95397   6.955   7.288   6.730  2.7930  1.3831  1.8065
  723MOL0     H95398   6.586   7.212   6.685  2.9872  0.9874 -0.3551
  723MOL0     H95399   6.349   7.248   6.752 -2.8906  2.4274 -0.0973
  723MOL0     H95400   6.034   7.761   6.824  1.3568 -0.0521  2.3624
  723MOL0     H95401   5.809   7.790   6.896  0.3257 -1.8175 -1.7258
  723MOL0     H95402   5.626   7.813   6.975  1.3858 -0.0572 -0.3507
  723MOL0     H95403   5.692   7.872   7.128 -2.4416  0.9304  1.2574
  723MOL0     H95404   5.431   7.884   7.119 -3.0995 -2.2730 -1.6551
  723MOL0     H95405   5.509   7.785   7.245  0.3431  3.2304 -0.3274
  723MOL0     H95406   5.454   7.580   7.112 -1.3201 -0.5190 -1.1078
  723MOL0     H95407   5.419   7.669   6.968 -1.1625 -0.6680 -0.1301
  723MOL0     H95408   5.221   7.779   7.068 -2.2901 -1.9983 -2.2428
  723MOL0     H95409   5.229   7.609   7.025  2.0781 -1.4279 -0.4698
  723MOL0     H95410   5.245   7.734   7.304 -1.3286 -0.7091  1.2548
  723MOL0     H95411   5.264   7.561   7.290 -0.9475 -0.7237  0.3334
  723MOL0     H95412   5.056   7.541   7.159 -2.0275  0.6587 -1.3544
  723MOL0     H95413   5.018   7.706   7.198 -0.1305 -0.6905 -1.4491
  723MOL0     H95414   5.057   7.452   7.385  1.6729  0.7612 -1.1146
  723MOL0     H95415   5.055   7.602   7.457  1.9468 -3.3668  0.9863
  723MOL0     H95416   4.853   7.428   7.330 -1.2673  0.6677 -1.6550
  723MOL0     H95417   4.817   7.600   7.286 -0.8113  1.7603  1.6023
  723MOL0     H95418   5.880   7.532   7.227 -0.3979 -0.5509  0.0738
  723MOL0     H95419   6.111   7.489   7.149  1.0689 -0.9854 -0.8116
  723MOL0     H95420   6.477   7.622   6.932 -1.1470 -0.6955  1.3720
  723MOL0     H95421   6.683   7.607   6.840 -4.2550  2.8709  2.3575
  723MOL0     H95422   8.616   7.593   6.950 -0.6089  2.2191 -1.1612
  723MOL0     H95423   8.837   7.704   6.990  2.9255 -1.3433  1.4107
  723MOL0     H95424   9.156   7.916   7.237  2.0846 -0.2527 -0.3327
  723MOL0     H95425   9.393   7.958   7.245  2.3114 -0.9334 -0.9672
  723MOL0     H95426   9.602   7.666   7.515 -0.6679  0.6252  0.8451
  723MOL0     H95427   9.681   7.822   7.546  1.7662 -0.3997 -0.2539
  723MOL0     H95428   9.845   7.646   7.475 -2.5740 -0.8383  1.6769
  723MOL0     H95429   9.759   7.643   7.317 -0.8278 -2.3351  2.0548
  723MOL0     H95430   9.872   7.881   7.439  2.3563  0.0304  0.0756
  723MOL0     H95431   9.794   7.884   7.274  0.0201 -0.4768 -0.8440
  723MOL0     H95432  10.044   7.894   7.277  1.0964 -0.2530  2.2287
  723MOL0     H95433  10.055   7.738   7.360  1.1192  1.1932  0.9285
  723MOL0     H95434   9.933   7.640   6.957  0.8119 -0.3847 -0.5560
  723MOL0     H95435   9.489   7.568   7.368  0.8988  0.4452 -0.6582
  723MOL0     H95436   9.243   7.500   7.354 -3.1188  1.0895 -0.5664
  724MOL0     O95437  10.879   9.789   4.599  0.1841  0.1132  0.4510
  724MOL0     C95438  10.946   9.797   4.492  0.1884 -0.6854 -0.2144
  724MOL0     O95439  10.901   9.856   4.368 -0.0623  0.2345  0.1896
  724MOL0     C95440  10.785   9.921   4.384 -0.0272  0.6092 -0.0200
  724MOL0     C95441  10.777  10.027   4.479  0.8186  0.3390 -0.2958
  724MOL0     C95442  10.666  10.103   4.484  0.0024  0.3717  0.3276
  724MOL0     C95443  10.554  10.082   4.397  0.4671 -0.4258 -0.2800
  724MOL0     O95444  10.446  10.174   4.419 -1.1088 -0.4515 -1.0132
  724MOL0     C95445  10.334  10.168   4.334  0.0668 -0.2760 -0.7189
  724MOL0     C95446  10.264  10.304   4.360 -0.7686 -0.1358 -0.1787
  724MOL0     C95447  10.155  10.314   4.258 -0.1246  0.6653 -1.0870
  724MOL0     C95448  10.050  10.422   4.292 -0.5777  1.0486 -0.0731
  724MOL0     C95449   9.940  10.434   4.174  0.0800  0.0784  0.4124
  724MOL0     C95450   9.990  10.489   4.044 -0.6294  0.2543  0.3814
  724MOL0     C95451  10.069  10.623   4.052  0.7587 -0.1861 -0.5148
  724MOL0     C95452  10.147  10.652   3.923  0.7872  0.4932  0.4659
  724MOL0     N95453  10.068  10.646   3.800 -0.4212 -0.0209  0.3652
  724MOL0     C95454   9.983  10.745   3.767 -0.0741 -0.0616  0.8496
  724MOL0     C95455   9.946  10.726   3.635  0.8575  0.6787  0.3027
  724MOL0     C95456   9.882  10.821   3.545  0.1091 -0.4649  0.0016
  724MOL0     C95457   9.871  10.779   3.395 -0.3781 -0.2371  0.1947
  724MOL0     C95458   9.734  10.821   3.333  0.3624 -0.6553 -0.1307
  724MOL0     C95459   9.628  10.720   3.365  0.2352  0.1966 -0.6825
  724MOL0     O95460   9.494  10.759   3.324  0.1047  0.2825  0.5342
  724MOL0     C95461   9.390  10.672   3.344 -0.1539 -0.8244 -0.1633
  724MOL0     C95462   9.263  10.715   3.313  0.2142 -0.0864  0.2562
  724MOL0     C95463   9.152  10.646   3.348  0.1146  0.0513  0.7125
  724MOL0     C95464   9.160  10.515   3.391  0.2712  0.9104 -0.2459
  724MOL0     C95465   9.044  10.429   3.403 -1.1090  0.4072 -0.6706
  724MOL0     O95466   9.071  10.297   3.438 -1.2496 -0.1755  0.3489
  724MOL0     C95467   8.968  10.219   3.479  0.2447 -0.5341  0.6409
  724MOL0     C95468   8.922  10.112   3.397 -0.0462 -1.1844  0.1173
  724MOL0     C95469   8.832  10.027   3.447 -0.0595  0.5822  0.1026
  724MOL0     C95470   8.782  10.041   3.573  0.5516 -0.2702  0.4728
  724MOL0     O95471   8.690   9.958   3.620 -0.5370  0.0713 -0.1315
  724MOL0     C95472   8.704   9.813   3.602  0.7153 -0.0807  0.0793
  724MOL0     C95473   8.607   9.745   3.708 -0.3015 -0.5536 -0.1932
  724MOL0     C95474   8.457   9.758   3.664 -0.4872 -0.6679  0.4972
  724MOL0     C95475   8.368   9.723   3.782 -0.1551 -0.7197 -0.5796
  724MOL0     C95476   8.223   9.700   3.732 -0.2185 -0.3136  0.3651
  724MOL0     C95477   8.120   9.699   3.845 -0.6379 -0.5429  0.5275
  724MOL0     C95478   7.999   9.639   3.780  0.6064 -0.1791  0.2022
  724MOL0     C95479   7.879   9.637   3.876  0.9740 -0.2080  0.0403
  724MOL0    Cl95480   7.742   9.548   3.799  0.1669  0.4121 -0.4544
  724MOL0     C95481   8.822  10.138   3.653 -0.1702 -0.6994  0.1351
  724MOL0     C95482   8.920  10.228   3.613  0.0221 -0.0877  0.8487
  724MOL0     O95483   8.933  10.476   3.382 -0.6632  0.3183  0.3399
  724MOL0     C95484   9.289  10.460   3.421 -0.0494 -1.0090 -1.3647
  724MOL0     C95485   9.403  10.544   3.402 -0.1358  0.4378  0.2214
  724MOL0     N95486  10.006  10.604   3.602  0.2328 -0.2521 -0.1975
  724MOL0     N95487  10.088  10.560   3.690  0.3986 -0.1924  0.2169
  724MOL0     C95488  10.564   9.988   4.288  0.3087 -0.4879  1.2632
  724MOL0     C95489  10.682   9.912   4.290  0.8721 -0.2163 -0.7417
  724MOL0     C95490  11.074   9.720   4.489  0.0456 -1.1197 -0.3841
  724MOL0     C95491  11.163   9.745   4.388 -0.4809  0.1300  0.8017
  724MOL0     C95492  11.274   9.656   4.374 -0.4142 -0.9720 -1.1173
  724MOL0     C95493  11.299   9.547   4.462 -0.6020 -0.7284 -0.3787
  724MOL0     O95494  11.411   9.471   4.456  0.2007 -0.3306  0.5325
  724MOL0     C95495  11.529   9.550   4.480 -0.1674  0.7719 -0.2611
  724MOL0     C95496  11.639   9.546   4.372 -0.1429  0.9787  0.5597
  724MOL0     C95497  11.727   9.417   4.393  0.3968 -0.4624  0.5878
  724MOL0     C95498  11.861   9.439   4.457  0.1372 -0.1834  0.8122
  724MOL0     C95499  11.939   9.528   4.375 -0.0298  0.3251  0.1469
  724MOL0     C95500  12.013   9.594   4.308  0.2377 -0.3366  0.4597
  724MOL0     C95501  11.199   9.518   4.554  0.0214 -0.2902  0.2003
  724MOL0     C95502  11.089   9.606   4.565  0.1255  0.3738 -0.3120
  724MOL0     H95503  10.860  10.048   4.545  1.8660  0.2203 -1.5385
  724MOL0     H95504  10.669  10.190   4.548 -0.4559  3.1450 -3.0978
  724MOL0     H95505  10.272  10.087   4.372  1.1183 -0.1901  1.2808
  724MOL0     H95506  10.361  10.152   4.229  3.3960 -0.1689 -0.0174
  724MOL0     H95507  10.329  10.392   4.350  0.0185 -0.2226  2.9567
  724MOL0     H95508  10.230  10.307   4.464 -0.0715  1.5511  0.0353
  724MOL0     H95509  10.107  10.218   4.240  0.3975 -0.0689  1.0491
  724MOL0     H95510  10.208  10.348   4.168  0.6329  2.0451 -0.1692
  724MOL0     H95511   9.999  10.394   4.385  2.3495  2.2264  2.0488
  724MOL0     H95512  10.105  10.516   4.304 -1.9660  2.0186 -0.9955
  724MOL0     H95513   9.859  10.503   4.200  0.2347  0.3973  0.0647
  724MOL0     H95514   9.894  10.336   4.159 -2.0721  1.0730  0.1185
  724MOL0     H95515   9.904  10.491   3.975  2.3999 -0.0377 -3.7760
  724MOL0     H95516  10.047  10.408   3.998 -3.5265 -0.8492 -1.5713
  724MOL0     H95517  10.001  10.706   4.076 -1.2611 -2.5926  2.9260
  724MOL0     H95518  10.146  10.621   4.129  0.3337 -3.0137 -0.0773
  724MOL0     H95519  10.227  10.578   3.914  0.7300  0.4243  0.5138
  724MOL0     H95520  10.186  10.752   3.946 -1.0431  1.5575 -0.7555
  724MOL0     H95521   9.963  10.831   3.830 -1.4264 -0.4787  1.0194
  724MOL0     H95522   9.943  10.912   3.553  0.4932 -0.7531  0.3940
  724MOL0     H95523   9.784  10.850   3.582  0.8437 -0.5872  2.1717
  724MOL0     H95524   9.886  10.672   3.380 -3.8161 -0.9108  0.6668
  724MOL0     H95525   9.948  10.829   3.335 -0.6224  1.7390  1.4361
  724MOL0     H95526   9.700  10.918   3.369  1.3348 -0.4124  0.1595
  724MOL0     H95527   9.737  10.822   3.224 -0.4288 -0.9522 -0.1610
  724MOL0     H95528   9.624  10.691   3.470 -1.9140  0.8938 -0.5240
  724MOL0     H95529   9.652  10.625   3.318  1.7794 -0.1405  0.7042
  724MOL0     H95530   9.248  10.812   3.266 -0.1065 -0.3720 -0.2347
  724MOL0     H95531   9.059  10.688   3.311 -0.6142 -2.1964 -0.1743
  724MOL0     H95532   8.958  10.101   3.296 -1.2123 -0.5672 -0.3808
  724MOL0     H95533   8.795   9.945   3.386 -3.1280  0.2372  2.1843
  724MOL0     H95534   8.808   9.785   3.619  1.2053  2.3361  1.6621
  724MOL0     H95535   8.664   9.771   3.509 -2.9220 -0.7434  1.7952
  724MOL0     H95536   8.629   9.779   3.810  2.5574  3.1208 -1.7804
  724MOL0     H95537   8.620   9.638   3.693 -0.4717 -0.9373  2.0441
  724MOL0     H95538   8.430   9.704   3.573 -1.6998 -0.7875  0.9057
  724MOL0     H95539   8.432   9.858   3.627 -0.2807 -1.6162 -2.5126
  724MOL0     H95540   8.411   9.636   3.833  1.0973 -1.0260 -2.0805
  724MOL0     H95541   8.371   9.809   3.849 -3.0126  0.4932 -1.8677
  724MOL0     H95542   8.224   9.605   3.678 -4.0717 -0.0866 -0.3520
  724MOL0     H95543   8.194   9.779   3.662 -1.4926  0.4315  1.6850
  724MOL0     H95544   8.114   9.798   3.892  0.3729 -1.0027  1.6677
  724MOL0     H95545   8.166   9.636   3.921  1.4984 -1.1317 -1.1354
  724MOL0     H95546   7.973   9.693   3.688 -0.5486 -3.0105 -1.2684
  724MOL0     H95547   8.029   9.539   3.748  0.9960 -1.0558  3.0200
  724MOL0     H95548   7.845   9.740   3.891 -2.2673 -1.1377  0.0423
  724MOL0     H95549   7.908   9.600   3.974  0.1868  0.6237  0.6034
  724MOL0     H95550   8.780  10.152   3.752 -0.9313 -1.4217 -0.0685
  724MOL0     H95551   8.959  10.304   3.680  2.4119  0.4590 -1.0331
  724MOL0     H95552   9.304  10.359   3.457 -0.7229 -0.9832 -1.0066
  724MOL0     H95553   9.498  10.508   3.440  0.0941 -0.0232 -0.7565
  724MOL0     H95554  10.495   9.989   4.205  1.7421  1.0673  0.0068
  724MOL0     H95555  10.691   9.837   4.213  0.9084 -3.1304  1.9005
  724MOL0     H95556  11.153   9.834   4.326  1.3054  1.8094  2.7551
  724MOL0     H95557  11.363   9.678   4.316  0.3004 -0.2890  0.2034
  724MOL0     H95558  11.576   9.533   4.577 -0.3624  0.6437 -0.1889
  724MOL0     H95559  11.503   9.656   4.472  1.5392  1.0864 -2.3026
  724MOL0     H95560  11.592   9.545   4.273  2.1348  1.5416 -0.6043
  724MOL0     H95561  11.705   9.634   4.370  0.9820  0.2017  1.9767
  724MOL0     H95562  11.740   9.371   4.295  0.4978  3.2339 -1.3143
  724MOL0     H95563  11.679   9.340   4.455  2.4093  0.1912  3.1231
  724MOL0     H95564  11.862   9.484   4.557 -0.7085 -1.3167  1.3473
  724MOL0     H95565  11.904   9.339   4.459 -1.3077 -0.8759 -0.6103
  724MOL0     H95566  12.083   9.649   4.249 -1.0807  3.1372  1.8038
  724MOL0     H95567  11.204   9.437   4.626 -3.0652  0.5376  1.5545
  724MOL0     H95568  11.012   9.579   4.637 -2.1985  4.3782 -0.9407
  725MOL0     O95569   4.098   0.469   6.682  0.4489  0.2485  0.5110
  725MOL0     C95570   4.083   0.453   6.558 -0.1669  0.0560  0.2150
  725MOL0     O95571   4.176   0.418   6.470 -0.2194  0.1530 -0.5961
  725MOL0     C95572   4.307   0.436   6.518  0.6585  0.5643 -0.6614
  725MOL0     C95573   4.388   0.330   6.524 -0.0917  0.7407  0.9224
  725MOL0     C95574   4.523   0.341   6.565  0.1683  1.0469  0.1451
  725MOL0     C95575   4.575   0.470   6.598  0.2125  0.0537  0.2217
  725MOL0     O95576   4.706   0.473   6.643  0.3512  0.5439  0.3389
  725MOL0     C95577   4.763   0.600   6.684 -0.2048  0.2996  0.6674
  725MOL0     C95578   4.912   0.559   6.716  0.6673  0.5211 -0.7097
  725MOL0     C95579   4.904   0.486   6.847  0.0934 -0.0306 -0.2619
  725MOL0     C95580   5.042   0.466   6.911  0.1535  0.4217  0.3140
  725MOL0     C95581   5.059   0.446   7.057  0.2285 -0.3181  0.3962
  725MOL0     C95582   4.951   0.349   7.118  0.0361 -0.6631  1.4431
  725MOL0     C95583   4.967   0.205   7.073  0.3815  0.2237  0.1374
  725MOL0     C95584   4.880   0.107   7.158 -0.7210 -0.0402  0.3645
  725MOL0     N95585   4.739   0.147   7.175 -0.4847  0.5259 -0.9124
  725MOL0     C95586   4.663   0.184   7.068  0.3720 -1.1107  0.0429
  725MOL0     C95587   4.544   0.223   7.126  0.1112  0.4340 -0.2105
  725MOL0     C95588   4.427   0.290   7.063 -0.5474 -0.0435 -0.8959
  725MOL0     C95589   4.463   0.430   7.008  0.1792 -0.7836 -0.5323
  725MOL0     C95590   4.349   0.467   6.917 -0.5055 -0.1578 -0.1934
  725MOL0     C95591   4.324   0.614   6.896  0.3782 -0.0627 -0.7651
  725MOL0     O95592   4.300   0.696   7.014  0.1072 -0.0583 -0.2280
  725MOL0     C95593   4.174   0.699   7.065 -0.3128 -0.4257  0.2717
  725MOL0     C95594   4.167   0.774   7.186 -0.4266 -0.2863 -0.8476
  725MOL0     C95595   4.045   0.794   7.255  1.4796  0.3303  0.8135
  725MOL0     C95596   3.924   0.744   7.206  0.8480  0.4829  0.3989
  725MOL0     C95597   3.800   0.751   7.268 -0.3494  0.8321 -0.4866
  725MOL0     O95598   3.684   0.743   7.195  0.2535  0.0553 -0.6117
  725MOL0     C95599   3.556   0.771   7.255 -0.3120  0.2837  0.2930
  725MOL0     C95600   3.499   0.687   7.353  0.6209 -0.3896  0.2236
  725MOL0     C95601   3.366   0.720   7.384 -0.4435 -0.5685 -1.1420
  725MOL0     C95602   3.301   0.831   7.331  0.3875  0.0938  0.0240
  725MOL0     O95603   3.168   0.843   7.365 -0.7786  0.9365 -0.5040
  725MOL0     C95604   3.104   0.964   7.324 -0.0038 -0.9410 -0.1111
  725MOL0     C95605   2.958   0.962   7.361 -0.0872  0.5466 -0.2472
  725MOL0     C95606   2.865   0.862   7.289  0.1102 -0.4833 -0.0319
  725MOL0     C95607   2.717   0.895   7.329  0.3400  1.3340  0.2261
  725MOL0     C95608   2.626   0.810   7.239 -0.2329 -0.3485 -0.2428
  725MOL0     C95609   2.475   0.831   7.263  0.4424 -0.2339 -0.7668
  725MOL0     C95610   2.392   0.738   7.173  0.0092  0.8509  0.0524
  725MOL0     C95611   2.266   0.803   7.113 -0.2982  0.1791  0.1603
  725MOL0    Cl95612   2.221   0.728   6.959 -0.3080  0.3343  0.0776
  725MOL0     C95613   3.364   0.910   7.238 -0.0567  0.4773  0.0874
  725MOL0     C95614   3.493   0.880   7.200  0.0652 -0.0213  0.4269
  725MOL0     O95615   3.806   0.761   7.390 -0.2146  0.4903 -0.1382
  725MOL0     C95616   3.926   0.675   7.087  0.1182 -0.1213  0.2014
  725MOL0     C95617   4.044   0.652   7.011 -0.8931 -0.2833 -0.1753
  725MOL0     N95618   4.554   0.193   7.263 -0.3533  0.5597 -0.3674
  725MOL0     N95619   4.669   0.149   7.292 -0.7065 -0.6177  0.5317
  725MOL0     C95620   4.495   0.588   6.591  0.6286  0.0174  0.1363
  725MOL0     C95621   4.359   0.569   6.557  0.3366 -0.6006  0.9130
  725MOL0     C95622   3.938   0.455   6.520 -0.2812  0.3660  0.7245
  725MOL0     C95623   3.839   0.507   6.601  1.0837 -0.6057 -0.0274
  725MOL0     C95624   3.710   0.526   6.556  0.9175  0.2922 -0.0695
  725MOL0     C95625   3.661   0.478   6.437 -0.1706  0.2588 -0.3851
  725MOL0     O95626   3.525   0.493   6.411  0.2695  0.1819 -0.1406
  725MOL0     C95627   3.465   0.424   6.303  0.7746 -0.2428  0.2156
  725MOL0     C95628   3.322   0.485   6.275  0.0369  0.1787 -0.1910
  725MOL0     C95629   3.324   0.627   6.225 -0.0791 -0.4827 -0.0608
  725MOL0     C95630   3.176   0.684   6.200 -0.2453 -0.0571 -0.0022
  725MOL0     C95631   3.193   0.821   6.165 -0.1332 -0.3390  0.3182
  725MOL0     C95632   3.213   0.934   6.129 -1.3784  0.7858  0.3840
  725MOL0     C95633   3.753   0.413   6.359 -0.7646 -0.2807  0.0965
  725MOL0     C95634   3.890   0.411   6.395 -0.3874 -0.1526  0.2539
  725MOL0     H95635   4.361   0.229   6.494 -0.7374  0.3574  2.6554
  725MOL0     H95636   4.583   0.250   6.563 -2.1781 -0.5903  0.7217
  725MOL0     H95637   4.707   0.627   6.774  1.5144 -3.2598  3.0609
  725MOL0     H95638   4.785   0.679   6.611 -1.7618  2.0434  1.9766
  725MOL0     H95639   4.969   0.652   6.731 -0.4937  1.2539 -0.6934
  725MOL0     H95640   4.960   0.507   6.633  0.0586 -0.3086 -0.5543
  725MOL0     H95641   4.867   0.384   6.830  1.5408 -0.7598  0.7406
  725MOL0     H95642   4.843   0.530   6.927  2.0725 -0.6923  1.7272
  725MOL0     H95643   5.070   0.370   6.867 -1.8456  0.2590 -0.7260
  725MOL0     H95644   5.113   0.544   6.882  1.3520  0.0173  1.9928
  725MOL0     H95645   5.045   0.542   7.107 -2.5315 -0.2772 -0.2631
  725MOL0     H95646   5.160   0.407   7.075  1.1769  0.0941 -3.1525
  725MOL0     H95647   4.852   0.383   7.089  1.5508  0.4158 -3.2599
  725MOL0     H95648   4.963   0.342   7.227 -2.4364 -4.1414  1.6464
  725MOL0     H95649   4.942   0.199   6.966  0.8457 -3.4327  0.1155
  725MOL0     H95650   5.069   0.178   7.101  0.2146  1.0251  1.6338
  725MOL0     H95651   4.924   0.108   7.258  1.2404  4.6897 -0.3037
  725MOL0     H95652   4.880   0.016   7.097 -2.6735 -0.2051  0.5360
  725MOL0     H95653   4.689   0.209   6.966 -0.0026  2.5649  0.6795
  725MOL0     H95654   4.351   0.298   7.141  0.7191 -0.3563  0.4112
  725MOL0     H95655   4.398   0.226   6.979 -1.6552  1.6247 -1.8575
  725MOL0     H95656   4.553   0.427   6.946  1.1342 -2.4229  0.8767
  725MOL0     H95657   4.474   0.501   7.091  2.8138  0.4203 -1.7948
  725MOL0     H95658   4.361   0.408   6.826 -1.9868 -2.0450  0.7508
  725MOL0     H95659   4.258   0.428   6.964 -0.8150 -1.2737 -1.6583
  725MOL0     H95660   4.241   0.621   6.825  0.3106  0.4097 -0.6395
  725MOL0     H95661   4.410   0.664   6.850  2.4661 -0.7604  2.0858
  725MOL0     H95662   4.259   0.821   7.221  0.6777 -2.4508 -0.6732
  725MOL0     H95663   4.050   0.849   7.349  2.1202  1.2351  0.2702
  725MOL0     H95664   3.560   0.604   7.388  1.5318 -0.7731 -2.1402
  725MOL0     H95665   3.298   0.662   7.446 -0.6500  1.6825  0.9125
  725MOL0     H95666   3.104   0.975   7.215 -3.0773  0.3897 -0.0966
  725MOL0     H95667   3.146   1.054   7.369 -3.4227  0.2006  1.1067
  725MOL0     H95668   2.924   1.064   7.341  2.2346  1.7098  1.3288
  725MOL0     H95669   2.955   0.937   7.467 -1.0935  3.5905  0.5440
  725MOL0     H95670   2.905   0.762   7.308  2.1363 -0.3280 -2.8303
  725MOL0     H95671   2.873   0.880   7.181  0.9912  0.0861  0.1178
  725MOL0     H95672   2.685   0.865   7.430 -0.2981  0.6532 -0.1683
  725MOL0     H95673   2.692   1.001   7.320  2.3876  1.9869  1.5827
  725MOL0     H95674   2.643   0.702   7.244  0.8459 -0.1903 -0.3685
  725MOL0     H95675   2.635   0.850   7.138 -0.1296  0.0078 -0.0943
  725MOL0     H95676   2.446   0.935   7.246  1.0746 -0.1885 -1.6573
  725MOL0     H95677   2.457   0.820   7.370 -0.0132  5.1070 -0.0222
  725MOL0     H95678   2.456   0.687   7.100 -0.0502  0.3819  0.3241
  725MOL0     H95679   2.351   0.657   7.234  2.7372 -1.7509 -1.2967
  725MOL0     H95680   2.295   0.908   7.097  1.9739 -0.4656 -0.2752
  725MOL0     H95681   2.193   0.799   7.194  2.1511 -2.6346  2.4291
  725MOL0     H95682   3.306   0.992   7.196  0.0988  1.5873  1.9134
  725MOL0     H95683   3.552   0.937   7.131  2.7601 -4.2333 -1.1465
  725MOL0     H95684   3.838   0.630   7.044 -0.0458  0.9497 -0.6158
  725MOL0     H95685   4.048   0.580   6.929 -0.1800 -1.2995  0.7231
  725MOL0     H95686   4.536   0.686   6.614  1.1460 -0.3802  0.9555
  725MOL0     H95687   4.300   0.660   6.554  2.5831  0.9223  0.3474
  725MOL0     H95688   3.872   0.539   6.699  2.8247  2.9191 -1.5734
  725MOL0     H95689   3.638   0.572   6.624 -0.0743 -2.0375  0.5523
  725MOL0     H95690   3.454   0.320   6.334 -2.0922 -0.4249 -1.0832
  725MOL0     H95691   3.523   0.437   6.211  2.9703  0.5943  1.6267
  725MOL0     H95692   3.269   0.417   6.208 -2.2174  1.4422  0.2169
  725MOL0     H95693   3.263   0.485   6.367  0.2879  1.9677  0.0043
  725MOL0     H95694   3.394   0.635   6.141  0.0060  3.4004  0.1580
  725MOL0     H95695   3.379   0.686   6.300  0.2156  0.7328 -1.1956
  725MOL0     H95696   3.118   0.627   6.127 -2.5251 -1.0085  2.3837
  725MOL0     H95697   3.120   0.682   6.294  0.6037 -1.0982  0.5026
  725MOL0     H95698   3.239   1.033   6.098  2.7415 -0.3946 -0.4738
  725MOL0     H95699   3.724   0.377   6.260  2.6419 -2.9342 -0.1484
  725MOL0     H95700   3.961   0.377   6.321 -0.0739  0.0562  0.4544
  726MOL0     O95701  10.414   6.451  10.783  0.0906  0.4204  0.7822
  726MOL0     C95702  10.417   6.466  10.901  0.0183 -0.9629  0.4124
  726MOL0     O95703  10.301   6.497  10.980  0.6269 -0.7403 -1.1847
  726MOL0     C95704  10.183   6.518  10.920 -0.4161  0.2389  0.1724
  726MOL0     C95705  10.127   6.440  10.820 -1.0834 -0.1873  1.6139
  726MOL0     C95706  10.017   6.486  10.750 -0.2410 -0.1225  0.1960
  726MOL0     C95707   9.948   6.600  10.803  0.4412  0.6645  0.9069
  726MOL0     O95708   9.832   6.630  10.720  0.6941  0.0503 -0.2144
  726MOL0     C95709   9.739   6.736  10.756 -0.0164 -0.0456  0.0606
  726MOL0     C95710   9.654   6.777  10.629 -0.1686  0.4947  0.0471
  726MOL0     C95711   9.527   6.855  10.654  0.2267  0.2165 -0.7139
  726MOL0     C95712   9.545   7.008  10.691  0.3321  0.2353  0.5604
  726MOL0     C95713   9.425   7.077  10.738 -0.1840 -0.7695 -0.4813
  726MOL0     C95714   9.451   7.233  10.778  0.7697  0.4170  0.6327
  726MOL0     C95715   9.539   7.257  10.898 -0.3883 -0.4848 -0.8221
  726MOL0     C95716   9.565   7.407  10.910 -0.1555  0.5522 -0.0493
  726MOL0     N95717   9.458   7.497  10.966  0.4648  0.5671 -0.9213
  726MOL0     C95718   9.341   7.529  10.897  0.1938 -0.0869  0.4082
  726MOL0     C95719   9.256   7.583  10.984 -0.8049 -0.5326 -0.3981
  726MOL0     C95720   9.111   7.619  10.957 -0.5345  0.6209  0.5041
  726MOL0     C95721   9.029   7.522  10.871  1.1265  0.3548 -0.3973
  726MOL0     C95722   9.022   7.382  10.931  0.3505  1.1167  0.5424
  726MOL0     C95723   8.931   7.283  10.839 -0.4872 -0.4819 -0.3494
  726MOL0     O95724   8.929   7.145  10.897  0.3513 -0.5051 -0.2164
  726MOL0     C95725   8.988   7.036  10.841  0.0064 -0.8247  0.2768
  726MOL0     C95726   9.030   7.033  10.711 -0.2666 -0.6993 -0.7558
  726MOL0     C95727   9.086   6.918  10.657  0.2713 -0.6162 -0.4116
  726MOL0     C95728   9.103   6.807  10.742  0.1508 -0.1336  1.5512
  726MOL0     C95729   9.173   6.686  10.694 -0.2921 -0.2642 -0.2387
  726MOL0     O95730   9.160   6.667  10.566 -1.0389  0.7795  0.1626
  726MOL0     C95731   9.212   6.550  10.514  0.4267 -0.0909 -0.3279
  726MOL0     C95732   9.116   6.453  10.495 -0.6042  0.6227 -0.1162
  726MOL0     C95733   9.151   6.332  10.444  0.2864  0.5637  0.8247
  726MOL0     C95734   9.276   6.296  10.410 -0.3089  0.0846  0.0753
  726MOL0     O95735   9.292   6.170  10.363 -0.0316 -0.1902 -0.1592
  726MOL0     C95736   9.423   6.135  10.310  0.1962 -0.0276  0.0122
  726MOL0     C95737   9.428   6.023  10.208  0.0249  0.7887 -0.0786
  726MOL0     C95738   9.569   5.976  10.182  0.2294  0.4132  0.6806
  726MOL0     C95739   9.651   6.059  10.077 -0.0134 -0.5169 -0.3364
  726MOL0     C95740   9.803   6.015  10.093 -0.4803  0.6522 -0.8698
  726MOL0     C95741   9.878   6.096   9.985 -0.1087 -0.2103  0.1573
  726MOL0     C95742  10.029   6.052   9.998  0.0552 -0.0940  0.4479
  726MOL0     C95743  10.101   6.135   9.893 -0.1328  0.1994  0.5032
  726MOL0    Cl95744  10.272   6.117   9.918  0.1055  0.1642 -0.4730
  726MOL0     C95745   9.383   6.393  10.427 -0.0474  0.0586 -0.7093
  726MOL0     C95746   9.344   6.520  10.476 -0.4425 -0.7353 -0.5143
  726MOL0     O95747   9.241   6.621  10.776  0.1034 -0.3202 -0.0570
  726MOL0     C95748   9.053   6.809  10.868  0.3036 -0.0871  0.6750
  726MOL0     C95749   8.999   6.926  10.922  1.0490 -0.1865  0.3739
  726MOL0     N95750   9.325   7.600  11.099 -0.0138  0.0026 -0.4807
  726MOL0     N95751   9.444   7.538  11.100  0.4863  0.2405 -0.6562
  726MOL0     C95752  10.005   6.674  10.907  0.0637 -0.5543 -0.4160
  726MOL0     C95753  10.128   6.639  10.957  0.5967  0.8326 -0.3129
  726MOL0     C95754  10.541   6.466  10.981  0.1728  0.8775 -0.2665
  726MOL0     C95755  10.654   6.413  10.922  0.1388 -0.6730 -0.4594
  726MOL0     C95756  10.770   6.390  11.006  0.0091 -0.4125 -0.3869
  726MOL0     C95757  10.765   6.428  11.146 -0.6465  0.5576 -0.5591
  726MOL0     O95758  10.873   6.425  11.229 -0.5665 -0.5233 -0.1187
  726MOL0     C95759  10.988   6.341  11.197  0.9418 -0.0196  0.6940
  726MOL0     C95760  11.094   6.351  11.306 -0.4449 -0.5696  0.2136
  726MOL0     C95761  11.157   6.499  11.307  0.1946 -0.5407  0.8117
  726MOL0     C95762  11.290   6.511  11.389  0.5380  0.5543 -0.0048
  726MOL0     C95763  11.300   6.428  11.513  0.0689 -0.0730 -0.3658
  726MOL0     C95764  11.283   6.360  11.613 -1.0248  0.0007 -0.2059
  726MOL0     C95765  10.652   6.489  11.195  0.6993  0.5591  0.3013
  726MOL0     C95766  10.539   6.512  11.119 -0.2782  0.2088  0.1208
  726MOL0     H95767  10.179   6.351  10.787  1.5514  1.1246  1.9470
  726MOL0     H95768   9.969   6.435  10.667 -1.3402  1.1276  0.0400
  726MOL0     H95769   9.802   6.822  10.780 -2.6608  2.9245 -2.6695
  726MOL0     H95770   9.676   6.712  10.841  2.2616  1.4294  2.3078
  726MOL0     H95771   9.626   6.683  10.580  0.0171  1.1347 -1.3540
  726MOL0     H95772   9.733   6.820  10.566  1.3491  0.6905  1.9827
  726MOL0     H95773   9.477   6.793  10.729  0.2768 -0.8693 -1.5501
  726MOL0     H95774   9.458   6.856  10.569 -0.5123 -1.0690 -0.1512
  726MOL0     H95775   9.619   7.016  10.770 -0.9623  3.4551  1.5767
  726MOL0     H95776   9.573   7.062  10.600 -5.2486  1.4653 -0.8220
  726MOL0     H95777   9.399   7.020  10.827 -0.7371  2.2061  1.4046
  726MOL0     H95778   9.345   7.089  10.665  1.3544  0.3488 -2.0876
  726MOL0     H95779   9.353   7.277  10.793  0.5376  0.6157 -1.1575
  726MOL0     H95780   9.485   7.283  10.686 -3.9244  1.8931 -0.5534
  726MOL0     H95781   9.504   7.201  10.985 -1.9203 -2.8023 -2.8190
  726MOL0     H95782   9.635   7.210  10.875 -1.7373 -1.8994 -4.1264
  726MOL0     H95783   9.591   7.464  10.821 -1.1210  2.3335  0.7407
  726MOL0     H95784   9.652   7.417  10.977 -1.0825 -1.1039  1.4890
  726MOL0     H95785   9.319   7.504  10.794  0.5181  1.7700 -0.1464
  726MOL0     H95786   9.115   7.718  10.910 -1.7337  0.4186 -0.0560
  726MOL0     H95787   9.063   7.627  11.055 -2.2750  0.0887 -0.2608
  726MOL0     H95788   9.074   7.504  10.773  0.8819  1.1817 -0.6661
  726MOL0     H95789   8.928   7.562  10.855  1.0642  3.0976  4.9009
  726MOL0     H95790   9.124   7.345  10.920  0.3131  1.5067 -1.7157
  726MOL0     H95791   8.998   7.371  11.037 -0.4135 -2.3665  0.1180
  726MOL0     H95792   8.984   7.279  10.743  1.1706 -0.0666  0.5028
  726MOL0     H95793   8.832   7.328  10.830  1.0716  3.1428 -1.0699
  726MOL0     H95794   9.029   7.122  10.650 -1.2388 -0.4464 -0.3960
  726MOL0     H95795   9.113   6.926  10.552  0.5723 -0.2317 -0.3093
  726MOL0     H95796   9.010   6.454  10.517 -1.0981 -2.7664 -1.6134
  726MOL0     H95797   9.077   6.255  10.423 -2.2670  2.4359  2.3743
  726MOL0     H95798   9.488   6.116  10.396 -0.4420  0.0145  0.5093
  726MOL0     H95799   9.458   6.223  10.256  1.6138 -1.1605 -1.0055
  726MOL0     H95800   9.382   6.051  10.113 -2.3384 -3.3907 -0.3947
  726MOL0     H95801   9.371   5.941  10.253  2.3118  0.1853  1.9233
  726MOL0     H95802   9.554   5.873  10.147 -0.0486 -0.6266  3.5801
  726MOL0     H95803   9.629   5.972  10.274 -1.7850 -2.1429  2.0208
  726MOL0     H95804   9.618   6.052   9.973 -0.0840 -1.4574 -0.2631
  726MOL0     H95805   9.641   6.161  10.114 -0.9806 -0.4463 -0.7721
  726MOL0     H95806   9.813   5.912  10.056  1.0494  1.2456 -2.2429
  726MOL0     H95807   9.843   6.009  10.195 -2.2462 -5.5896 -0.0813
  726MOL0     H95808   9.869   6.200  10.016  2.0310  0.8301 -2.2853
  726MOL0     H95809   9.829   6.080   9.889 -2.9679 -0.7787  1.6190
  726MOL0     H95810  10.070   6.085  10.094  1.4564  0.6557 -0.3786
  726MOL0     H95811  10.041   5.943   9.995  0.8083 -0.2635  4.3897
  726MOL0     H95812  10.071   6.239   9.907 -1.6156 -0.0059 -0.8255
  726MOL0     H95813  10.067   6.100   9.795 -3.8571 -2.9290  2.6103
  726MOL0     H95814   9.489   6.374  10.423 -0.3472 -1.9852 -0.0909
  726MOL0     H95815   9.427   6.583  10.505 -0.3058 -0.5120 -1.3620
  726MOL0     H95816   9.049   6.722  10.933 -1.4895  0.6082  1.5709
  726MOL0     H95817   8.962   6.920  11.023 -0.1782  0.7696 -0.0015
  726MOL0     H95818   9.945   6.761  10.933 -0.7935 -1.0091 -0.8275
  726MOL0     H95819  10.162   6.691  11.046  0.6186  1.1439 -0.5002
  726MOL0     H95820  10.662   6.371  10.822  2.9116 -2.3867  0.3777
  726MOL0     H95821  10.858   6.349  10.958  0.4547  1.4651 -1.2764
  726MOL0     H95822  11.027   6.391  11.108 -1.2387 -0.7717 -0.7846
  726MOL0     H95823  10.951   6.242  11.170 -2.8582  1.1490  0.9670
  726MOL0     H95824  11.042   6.337  11.401 -0.2258  0.4213  0.4806
  726MOL0     H95825  11.170   6.276  11.281 -1.3341 -1.8669  1.2138
  726MOL0     H95826  11.083   6.566  11.350  0.1907 -0.9705  1.4926
  726MOL0     H95827  11.180   6.542  11.209  1.2346  0.3266  1.4131
  726MOL0     H95828  11.368   6.472  11.323 -0.1717  0.1225 -0.6163
  726MOL0     H95829  11.298   6.619  11.404 -0.1204  0.5450  0.4302
  726MOL0     H95830  11.265   6.305  11.704  2.4140  0.1035  0.6730
  726MOL0     H95831  10.662   6.521  11.299  1.0016  1.1548  0.0946
  726MOL0     H95832  10.449   6.557  11.161 -0.2728  1.7060 -1.3667
  727MOL0     O95833   0.544   4.979   1.567  0.0912  0.2356 -0.1053
  727MOL0     C95834   0.518   4.868   1.518 -0.3637 -0.2533  0.4240
  727MOL0     O95835   0.396   4.811   1.508  0.4994  0.1829 -0.0390
  727MOL0     C95836   0.284   4.885   1.537  0.2575  0.0069  0.8026
  727MOL0     C95837   0.265   4.933   1.663  0.0976  0.7469  0.0905
  727MOL0     C95838   0.140   4.993   1.696  0.4326  0.5654  0.6172
  727MOL0     C95839   0.053   5.024   1.596 -0.3642  0.1373 -0.9079
  727MOL0     O95840  -0.062   5.081   1.629  0.6762 -0.5246  0.2335
  727MOL0     C95841  -0.144   5.022   1.727  0.6038  0.1252 -0.5486
  727MOL0     C95842  -0.285   5.069   1.698  0.5356  0.4369 -0.3401
  727MOL0     C95843  -0.342   4.984   1.572  0.7004  0.2629  1.1758
  727MOL0     C95844  -0.479   5.034   1.514 -0.0952  0.6252  0.2072
  727MOL0     C95845  -0.511   4.975   1.377 -0.0175  0.2088 -0.5093
  727MOL0     C95846  -0.646   5.036   1.320  0.1597  0.2686 -0.6355
  727MOL0     C95847  -0.665   4.967   1.178  1.0117 -0.4382 -0.1142
  727MOL0     C95848  -0.771   5.061   1.100  0.6333  0.8799  0.0171
  727MOL0     N95849  -0.902   5.067   1.169 -0.4908 -1.2873  0.4956
  727MOL0     C95850  -0.979   4.962   1.204  0.1472  0.0691 -0.4013
  727MOL0     C95851  -1.088   5.011   1.277  0.0069  0.1038  0.4501
  727MOL0     C95852  -1.218   4.937   1.306  0.3697  0.3826 -0.2229
  727MOL0     C95853  -1.334   5.033   1.293 -0.0313 -0.1869  0.0619
  727MOL0     C95854  -1.351   5.092   1.151 -0.1076 -0.1495 -0.8280
  727MOL0     C95855  -1.499   5.086   1.105  0.0300  0.5327  0.3553
  727MOL0     O95856  -1.556   4.951   1.098  0.1542  0.2024 -0.6432
  727MOL0     C95857  -1.674   4.938   1.028 -0.7535 -0.4174 -0.0148
  727MOL0     C95858  -1.754   5.046   0.986  1.0064 -0.1861 -0.6746
  727MOL0     C95859  -1.883   5.018   0.942 -0.6824 -0.0306 -0.7374
  727MOL0     C95860  -1.932   4.890   0.932  0.4441 -0.4182  0.4106
  727MOL0     C95861  -2.074   4.857   0.871  0.2198  0.5977  0.6570
  727MOL0     O95862  -2.152   4.966   0.842  0.4057  0.1693  0.0536
  727MOL0     C95863  -2.278   4.974   0.781 -0.6637  0.3979 -0.1137
  727MOL0     C95864  -2.353   4.859   0.738  0.4184 -0.6117  0.4851
  727MOL0     C95865  -2.477   4.869   0.679  0.6883 -0.4520  0.6908
  727MOL0     C95866  -2.544   4.996   0.675  0.5332 -0.2889 -0.1687
  727MOL0     O95867  -2.668   5.023   0.630  0.4026  0.3621 -0.0221
  727MOL0     C95868  -2.742   4.903   0.607  0.3136  0.7790 -0.0791
  727MOL0     C95869  -2.877   4.940   0.540  0.4430  0.0924 -0.2207
  727MOL0     C95870  -2.946   4.806   0.497 -0.3780  0.2950  0.0596
  727MOL0     C95871  -3.078   4.830   0.419 -0.5021 -0.0043  0.3922
  727MOL0     C95872  -3.153   4.709   0.379  0.4101 -0.4684  0.5286
  727MOL0     C95873  -3.267   4.731   0.283 -0.4113 -0.0038 -0.1785
  727MOL0     C95874  -3.241   4.794   0.145  0.0156 -0.1316  0.1760
  727MOL0     C95875  -3.169   4.700   0.041  0.4374 -0.0586  0.1856
  727MOL0    Cl95876  -3.231   4.539   0.014 -0.2458  0.0825 -0.3712
  727MOL0     C95877  -2.465   5.109   0.726  0.2129 -0.2018  0.6819
  727MOL0     C95878  -2.333   5.098   0.777  0.0566 -0.9302  0.0536
  727MOL0     O95879  -2.115   4.738   0.861 -0.8123  0.5728 -0.0935
  727MOL0     C95880  -1.850   4.784   0.967 -0.2322  0.0294  0.1723
  727MOL0     C95881  -1.719   4.810   1.015  0.6932 -0.1349  0.4001
  727MOL0     N95882  -1.059   5.140   1.295  0.1005  1.0977 -0.0317
  727MOL0     N95883  -0.944   5.175   1.236  0.0296 -1.2537 -0.3416
  727MOL0     C95884   0.078   4.981   1.461 -0.1241  0.2403 -0.3757
  727MOL0     C95885   0.193   4.915   1.431  0.8747  0.1352  0.2458
  727MOL0     C95886   0.625   4.808   1.440  0.2143  0.1593  0.7066
  727MOL0     C95887   0.737   4.884   1.392 -0.2123 -0.0405  0.3713
  727MOL0     C95888   0.843   4.827   1.327  0.3972  0.9277  0.3163
  727MOL0     C95889   0.838   4.688   1.292 -0.0050 -0.3347 -0.4816
  727MOL0     O95890   0.930   4.614   1.219  0.2825  0.0791 -0.2796
  727MOL0     C95891   1.072   4.656   1.228 -0.0332 -0.3469 -0.5452
  727MOL0     C95892   1.175   4.550   1.182 -0.3042  0.5426 -0.1110
  727MOL0     C95893   1.317   4.605   1.182  0.5687  0.2407 -0.3543
  727MOL0     C95894   1.410   4.545   1.297  0.1696  0.0779  0.4967
  727MOL0     C95895   1.545   4.596   1.295  0.2886  0.8137 -1.3639
  727MOL0     C95896   1.653   4.647   1.288  0.0854 -0.1179 -0.3438
  727MOL0     C95897   0.727   4.613   1.331  0.1743  0.5874 -0.7796
  727MOL0     C95898   0.617   4.672   1.403 -0.2086  0.0814 -0.3396
  727MOL0     H95899   0.339   4.916   1.741  0.1035  1.8828  0.3455
  727MOL0     H95900   0.122   5.033   1.795 -1.2442  0.3937  0.4246
  727MOL0     H95901  -0.114   5.060   1.825 -0.5279  0.7029 -0.4034
  727MOL0     H95902  -0.136   4.913   1.727  1.1571  0.0851  2.3931
  727MOL0     H95903  -0.277   5.175   1.675 -1.6406  0.7528  0.1451
  727MOL0     H95904  -0.340   5.058   1.792 -0.6035  3.8938 -0.4647
  727MOL0     H95905  -0.360   4.882   1.608 -1.3119  0.2011  0.1324
  727MOL0     H95906  -0.266   4.978   1.494 -0.9681  2.0151 -0.7026
  727MOL0     H95907  -0.557   4.998   1.583  0.9002 -3.1087 -0.4369
  727MOL0     H95908  -0.479   5.143   1.500 -1.3355  0.4148 -1.7806
  727MOL0     H95909  -0.515   4.866   1.385 -0.4063  0.3722  3.2440
  727MOL0     H95910  -0.427   5.003   1.313 -0.5250 -2.7939 -2.7191
  727MOL0     H95911  -0.638   5.145   1.313  0.0895  0.3672  0.5157
  727MOL0     H95912  -0.732   5.009   1.383  0.3605  1.5056  0.2157
  727MOL0     H95913  -0.571   4.963   1.122  1.6823  3.1943  0.4555
  727MOL0     H95914  -0.704   4.867   1.196  0.5692 -0.1066  0.8740
  727MOL0     H95915  -0.789   5.032   0.997 -0.5234  2.5519 -0.2921
  727MOL0     H95916  -0.743   5.166   1.085 -0.2418  1.1659  0.3410
  727MOL0     H95917  -0.966   4.860   1.169 -0.8099  0.3621 -1.6840
  727MOL0     H95918  -1.214   4.881   1.400  1.4019  0.1218 -0.4052
  727MOL0     H95919  -1.236   4.860   1.230  1.1471  0.0262 -0.0589
  727MOL0     H95920  -1.314   5.119   1.357  0.7793 -1.4576  1.5892
  727MOL0     H95921  -1.428   4.989   1.330  0.5158 -2.1803 -0.8031
  727MOL0     H95922  -1.316   5.195   1.148 -0.9844  0.2670  1.3307
  727MOL0     H95923  -1.288   5.036   1.081 -2.3924 -4.2786  0.0737
  727MOL0     H95924  -1.494   5.126   1.003 -0.7575  2.0535  0.8843
  727MOL0     H95925  -1.565   5.145   1.169  1.7870  2.6961  0.3043
  727MOL0     H95926  -1.717   5.148   0.981 -2.7383  1.4083  0.5026
  727MOL0     H95927  -1.954   5.093   0.910 -0.4450 -0.4344 -2.3482
  727MOL0     H95928  -2.317   4.757   0.735 -1.3429 -1.2419 -1.1129
  727MOL0     H95929  -2.525   4.782   0.636 -1.6547  1.4935 -0.9767
  727MOL0     H95930  -2.770   4.854   0.701  2.4118 -0.8090 -0.2096
  727MOL0     H95931  -2.690   4.828   0.547 -2.0263 -0.6101 -0.4704
  727MOL0     H95932  -2.842   4.987   0.448  1.9423 -2.6087 -1.1510
  727MOL0     H95933  -2.948   5.002   0.597 -2.6360 -0.0695 -3.5339
  727MOL0     H95934  -2.971   4.744   0.584 -2.3044  0.0038 -0.6667
  727MOL0     H95935  -2.872   4.758   0.432 -1.9909  1.3072 -2.6651
  727MOL0     H95936  -3.139   4.902   0.474 -0.1392 -0.9942  2.1998
  727MOL0     H95937  -3.058   4.892   0.332  1.0775 -0.5504  0.3147
  727MOL0     H95938  -3.193   4.657   0.466 -0.2461  1.5784  1.4916
  727MOL0     H95939  -3.091   4.634   0.328 -2.6238 -2.1421 -0.9308
  727MOL0     H95940  -3.348   4.787   0.332 -0.9060  0.8350 -1.8706
  727MOL0     H95941  -3.318   4.636   0.265  1.6338 -1.3674  0.8944
  727MOL0     H95942  -3.333   4.831   0.099 -0.1117  0.2421  0.7319
  727MOL0     H95943  -3.176   4.882   0.156  2.6895 -2.0601  0.9650
  727MOL0     H95944  -3.065   4.683   0.070  0.5611  0.7453  0.2481
  727MOL0     H95945  -3.170   4.746  -0.058  0.4816  0.3220  0.3598
  727MOL0     H95946  -2.525   5.198   0.741  1.0881  0.2405  1.7184
  727MOL0     H95947  -2.282   5.182   0.822 -1.1024 -0.6524  0.8912
  727MOL0     H95948  -1.874   4.680   0.948  1.3164  0.2906 -4.4553
  727MOL0     H95949  -1.666   4.722   1.049  0.8033  1.1279  3.9923
  727MOL0     H95950   0.010   5.019   1.386 -1.0340 -0.4905  0.0551
  727MOL0     H95951   0.212   4.885   1.329 -0.4418  0.6000 -0.1519
  727MOL0     H95952   0.738   4.990   1.417  4.5422  1.2120 -3.5296
  727MOL0     H95953   0.933   4.881   1.298  2.6302 -3.5557 -2.1893
  727MOL0     H95954   1.084   4.686   1.333 -2.4044  2.0965 -0.8668
  727MOL0     H95955   1.088   4.742   1.162  0.4021  1.8202  2.1947
  727MOL0     H95956   1.169   4.471   1.257 -2.3107  1.0024  0.2686
  727MOL0     H95957   1.152   4.502   1.086  0.6432 -0.0650 -0.0479
  727MOL0     H95958   1.319   4.713   1.201  0.7134  0.7165 -2.7611
  727MOL0     H95959   1.347   4.596   1.077 -1.1808  2.4292 -1.1242
  727MOL0     H95960   1.366   4.566   1.395 -1.9943  1.1593 -0.6295
  727MOL0     H95961   1.424   4.437   1.283  4.0577  0.5885 -0.6621
  727MOL0     H95962   1.739   4.693   1.245 -0.8772  0.3563 -1.8243
  727MOL0     H95963   0.718   4.510   1.298 -1.2122  0.6782 -0.7752
  727MOL0     H95964   0.542   4.598   1.430 -1.0163  0.1456 -2.2518
  728MOL0     O95965   9.909   9.753   9.936  0.0998 -1.1538 -0.5295
  728MOL0     C95966   9.909   9.875   9.919 -0.9996 -0.2419  0.8818
  728MOL0     O95967   9.830   9.944   9.827  0.9435 -0.0388  0.4258
  728MOL0     C95968   9.744   9.861   9.758  0.6123 -0.1566 -0.0722
  728MOL0     C95969   9.628   9.808   9.809  0.2525 -0.9046 -0.6968
  728MOL0     C95970   9.526   9.752   9.729 -0.1007  0.5029  0.0651
  728MOL0     C95971   9.543   9.736   9.592  0.0870 -0.8705 -0.2230
  728MOL0     O95972   9.434   9.687   9.521  0.3983 -0.4133  0.6180
  728MOL0     C95973   9.477   9.630   9.388  0.1269  0.4961 -0.2108
  728MOL0     C95974   9.350   9.594   9.319  0.1165  0.3166 -0.1319
  728MOL0     C95975   9.279   9.719   9.263  0.8978 -0.0299  0.1956
  728MOL0     C95976   9.140   9.669   9.225 -0.3671  0.6360 -0.5627
  728MOL0     C95977   9.057   9.792   9.199 -0.7643 -1.0425  0.2717
  728MOL0     C95978   8.924   9.761   9.123  0.1171 -0.0873  0.8278
  728MOL0     C95979   8.816   9.705   9.212 -0.4258 -0.5832 -0.0775
  728MOL0     C95980   8.679   9.766   9.179  0.6929 -0.3025 -0.7776
  728MOL0     N95981   8.635   9.732   9.041  0.0032 -0.1486  0.1567
  728MOL0     C95982   8.628   9.602   8.998 -0.2665 -0.8082  0.0822
  728MOL0     C95983   8.581   9.611   8.873 -0.6184  1.1418 -0.4356
  728MOL0     C95984   8.555   9.499   8.777  0.0337 -0.0376  1.1891
  728MOL0     C95985   8.432   9.420   8.815 -0.7897  0.7724 -0.4766
  728MOL0     C95986   8.303   9.500   8.817  0.5038 -0.0803  0.0474
  728MOL0     C95987   8.180   9.407   8.812 -0.0137 -0.0894  0.0269
  728MOL0     O95988   8.166   9.329   8.931  0.2629 -0.4404 -0.2954
  728MOL0     C95989   8.052   9.258   8.922  0.8873 -0.3400 -0.1652
  728MOL0     C95990   8.052   9.118   8.886 -0.0858 -0.7345 -0.4097
  728MOL0     C95991   7.932   9.055   8.868  0.1855 -0.9605 -0.1902
  728MOL0     C95992   7.811   9.115   8.873 -0.5999 -0.6092  0.1565
  728MOL0     C95993   7.681   9.052   8.850  0.3905  0.0051  0.4430
  728MOL0     O95994   7.577   9.132   8.842  0.2251  0.4877  0.1012
  728MOL0     C95995   7.450   9.079   8.833  0.8853  0.5362 -0.6622
  728MOL0     C95996   7.355   9.144   8.753  0.0548 -0.2572 -0.4490
  728MOL0     C95997   7.225   9.096   8.738 -0.0982  0.8636  0.9116
  728MOL0     C95998   7.180   8.981   8.796 -0.3149 -0.4829 -1.0956
  728MOL0     O95999   7.053   8.938   8.776 -1.0768  0.5559  0.7969
  728MOL0     C96000   6.955   9.021   8.723  0.5431  0.3526 -0.2198
  728MOL0     C96001   6.820   8.940   8.736 -0.5745 -0.0579  0.2763
  728MOL0     C96002   6.701   9.007   8.655  0.4923 -0.0173 -0.0325
  728MOL0     C96003   6.690   9.161   8.677  1.1301  0.2978 -1.4597
  728MOL0     C96004   6.567   9.220   8.602 -0.1668 -0.1463 -0.0196
  728MOL0     C96005   6.570   9.369   8.630 -0.4051  0.7875  0.0276
  728MOL0     C96006   6.474   9.458   8.563 -0.3067 -0.1705  0.4499
  728MOL0     C96007   6.482   9.612   8.602 -0.0640  0.4443 -0.1792
  728MOL0    Cl96008   6.355   9.712   8.517  0.1519  0.1550 -0.4369
  728MOL0     C96009   7.264   8.921   8.893  0.1106  1.2237 -0.0853
  728MOL0     C96010   7.397   8.964   8.896 -1.1619  0.7953 -0.2016
  728MOL0     O96011   7.676   8.928   8.843 -0.5171 -1.0462  0.0670
  728MOL0     C96012   7.811   9.253   8.910  0.5885  0.6445 -0.7721
  728MOL0     C96013   7.927   9.322   8.938 -0.9998 -0.6912  0.3640
  728MOL0     N96014   8.574   9.741   8.837  0.0854 -1.3863  0.0810
  728MOL0     N96015   8.607   9.816   8.937 -0.2752 -0.9274  0.7454
  728MOL0     C96016   9.662   9.792   9.542 -0.6623 -0.1082  0.4008
  728MOL0     C96017   9.759   9.851   9.621 -0.1052 -0.6648 -0.3868
  728MOL0     C96018  10.004   9.956   9.993 -0.3540 -0.2365 -0.4649
  728MOL0     C96019  10.126   9.908  10.038 -0.4636 -0.8197  0.8915
  728MOL0     C96020  10.213   9.994  10.118  0.3089 -0.0458  0.7199
  728MOL0     C96021  10.181  10.123  10.154  0.0010  0.3774  0.4368
  728MOL0     O96022  10.261  10.184  10.250  0.1447 -0.3240  0.5660
  728MOL0     C96023  10.254  10.329  10.259  0.0162  0.1715  0.5093
  728MOL0     C96024  10.362  10.389  10.353  0.1002 -0.1456  0.1513
  728MOL0     C96025  10.422  10.523  10.301 -0.2686 -0.0125 -0.8441
  728MOL0     C96026  10.494  10.602  10.416  0.9640 -0.1472 -0.0919
  728MOL0     C96027  10.624  10.543  10.454  0.0751  0.4181 -0.0126
  728MOL0     C96028  10.729  10.485  10.493  0.4468 -0.3531 -0.1636
  728MOL0     C96029  10.066  10.175  10.090  0.2135  0.0808 -0.3360
  728MOL0     C96030   9.983  10.095  10.021  0.3701  0.4434  0.6396
  728MOL0     H96031   9.623   9.826   9.915  2.0927  1.9984 -1.0172
  728MOL0     H96032   9.434   9.716   9.773 -0.7182  1.1246 -0.7013
  728MOL0     H96033   9.540   9.542   9.398  2.1485  1.7353 -1.3009
  728MOL0     H96034   9.523   9.711   9.331  1.1293 -1.0086 -1.6267
  728MOL0     H96035   9.286   9.535   9.384  0.5404 -0.3725 -0.3310
  728MOL0     H96036   9.380   9.535   9.232  1.4721 -1.3155  1.3778
  728MOL0     H96037   9.337   9.753   9.177  1.4550 -2.4500 -0.4704
  728MOL0     H96038   9.273   9.799   9.337 -0.7875  1.3652 -1.3556
  728MOL0     H96039   9.132   9.596   9.144  1.5900  2.7769 -2.8445
  728MOL0     H96040   9.094   9.624   9.314 -1.2378 -0.6762 -1.6424
  728MOL0     H96041   9.117   9.866   9.145  0.6176 -1.1562  1.6112
  728MOL0     H96042   9.043   9.840   9.296  0.9555  0.1488 -0.0363
  728MOL0     H96043   8.946   9.684   9.048 -0.7333  0.4628  0.0025
  728MOL0     H96044   8.892   9.847   9.064  1.2087 -0.5046 -0.4213
  728MOL0     H96045   8.819   9.595   9.210 -0.5866 -0.5914  0.0769
  728MOL0     H96046   8.843   9.739   9.312  1.8003 -1.2581 -0.3964
  728MOL0     H96047   8.692   9.875   9.177 -0.4296 -0.1488 -0.1263
  728MOL0     H96048   8.609   9.747   9.260  1.5822  0.8828  0.3165
  728MOL0     H96049   8.649   9.515   9.060 -0.7990  0.7396  2.5688
  728MOL0     H96050   8.639   9.430   8.781  1.3597  1.0333 -3.2014
  728MOL0     H96051   8.546   9.518   8.670 -1.7042  0.1984  1.3447
  728MOL0     H96052   8.447   9.382   8.916  2.3590 -0.3663 -1.2617
  728MOL0     H96053   8.418   9.333   8.751 -0.4045  0.8975 -0.7357
  728MOL0     H96054   8.297   9.559   8.910 -0.6278 -1.7844  1.1212
  728MOL0     H96055   8.306   9.573   8.735  2.2714  3.2664  2.8108
  728MOL0     H96056   8.190   9.336   8.730 -1.9019 -1.0044  0.5185
  728MOL0     H96057   8.087   9.459   8.788 -1.3011 -2.6831 -1.0051
  728MOL0     H96058   8.147   9.066   8.882  1.9881  2.3236  3.0149
  728MOL0     H96059   7.920   8.950   8.845 -0.8920 -1.0578  0.6795
  728MOL0     H96060   7.393   9.229   8.697  1.2616  0.2471  1.0438
  728MOL0     H96061   7.165   9.148   8.663 -2.5550 -2.4533  0.3128
  728MOL0     H96062   6.972   9.066   8.625 -0.0801 -0.7833 -0.8677
  728MOL0     H96063   6.945   9.110   8.786  0.2096  1.0418 -1.2385
  728MOL0     H96064   6.802   8.942   8.844  2.3407 -0.2879  0.8416
  728MOL0     H96065   6.840   8.838   8.703  2.9375 -0.0055  1.8755
  728MOL0     H96066   6.607   8.959   8.681  0.8865 -1.4874 -1.2051
  728MOL0     H96067   6.707   8.996   8.546 -1.6748  0.4715 -0.2337
  728MOL0     H96068   6.687   9.183   8.784 -3.3502 -0.8068 -1.1690
  728MOL0     H96069   6.779   9.211   8.636 -0.2385  1.6836 -2.8780
  728MOL0     H96070   6.475   9.167   8.629 -0.0488 -0.0851  0.5160
  728MOL0     H96071   6.580   9.200   8.495 -0.5782  0.3438 -0.1672
  728MOL0     H96072   6.666   9.401   8.590 -0.8241  0.8249 -0.9863
  728MOL0     H96073   6.552   9.381   8.737 -3.8344 -1.4071 -0.1394
  728MOL0     H96074   6.490   9.448   8.455 -1.3121  1.6211  0.0870
  728MOL0     H96075   6.375   9.413   8.577 -0.5936 -0.3641 -1.8890
  728MOL0     H96076   6.581   9.656   8.580 -0.5200  2.0669  0.8169
  728MOL0     H96077   6.463   9.618   8.709  0.6849 -0.4906  0.0218
  728MOL0     H96078   7.248   8.837   8.960 -0.5926  1.4109 -0.0173
  728MOL0     H96079   7.465   8.921   8.969 -0.5071 -0.6785 -1.6173
  728MOL0     H96080   7.715   9.303   8.925  1.0560  1.0553  0.9689
  728MOL0     H96081   7.915   9.429   8.957 -4.5858 -0.7602 -0.7534
  728MOL0     H96082   9.685   9.789   9.436 -3.6096  1.0081 -0.3824
  728MOL0     H96083   9.845   9.887   9.565  0.4976 -1.1037  0.2473
  728MOL0     H96084  10.142   9.808  10.001  0.2669  0.5021 -2.7698
  728MOL0     H96085  10.310   9.950  10.137  0.2381 -1.0684 -1.0382
  728MOL0     H96086  10.161  10.345  10.315 -0.5479  1.7404 -0.7859
  728MOL0     H96087  10.241  10.379  10.163 -0.3259  0.2729  0.6060
  728MOL0     H96088  10.316  10.412  10.449  0.7185 -0.5609  0.5575
  728MOL0     H96089  10.438  10.311  10.369  0.4485  0.6610  2.9212
  728MOL0     H96090  10.332  10.583  10.289 -1.1533 -0.9990  0.5341
  728MOL0     H96091  10.479  10.514  10.208 -1.7283  1.4239 -1.9379
  728MOL0     H96092  10.506  10.706  10.384 -2.5961 -0.1360 -1.9204
  728MOL0     H96093  10.439  10.599  10.511  1.6619  1.9394  0.4189
  728MOL0     H96094  10.814  10.426  10.518  1.6555  1.1298 -0.5638
  728MOL0     H96095  10.032  10.277  10.103 -0.5702  0.3724 -3.6088
  728MOL0     H96096   9.885  10.133   9.994  0.3716 -1.5034 -2.6294
  729MOL0     O96097   6.288   4.005   5.706  0.3850 -0.7256  0.1683
  729MOL0     C96098   6.319   4.121   5.697 -0.4483  0.8149  0.5886
  729MOL0     O96099   6.246   4.219   5.651 -0.4300 -0.4516  0.2508
  729MOL0     C96100   6.113   4.188   5.618  0.6044  0.0851 -0.4882
  729MOL0     C96101   6.075   4.098   5.518  0.0551  0.1517 -0.2718
  729MOL0     C96102   5.940   4.065   5.498  1.1753  0.3988 -0.0141
  729MOL0     C96103   5.840   4.116   5.577  0.5861 -0.7685  0.3976
  729MOL0     O96104   5.701   4.079   5.562  0.0445  1.0912  0.2572
  729MOL0     C96105   5.641   4.087   5.430 -0.2027  0.2417  0.1185
  729MOL0     C96106   5.515   3.996   5.433  0.1196 -1.0520  0.1212
  729MOL0     C96107   5.407   4.040   5.517 -0.7688 -0.3665  0.4667
  729MOL0     C96108   5.302   3.929   5.529  0.0100 -0.5585 -0.6646
  729MOL0     C96109   5.164   3.973   5.535  1.0978  0.2014  0.8540
  729MOL0     C96110   5.073   3.854   5.561  0.0294 -0.0687  0.2049
  729MOL0     C96111   4.926   3.897   5.550 -0.4271  0.1596 -0.2077
  729MOL0     C96112   4.846   3.786   5.613  0.1813 -0.1701 -0.2810
  729MOL0     N96113   4.713   3.789   5.537  0.5511  0.6047  0.0332
  729MOL0     C96114   4.673   3.709   5.428 -0.7977 -1.1839  0.3302
  729MOL0     C96115   4.555   3.767   5.383 -0.4566 -0.2415 -0.8706
  729MOL0     C96116   4.478   3.707   5.265  0.3074  0.4841 -0.6538
  729MOL0     C96117   4.324   3.699   5.284 -0.7682  0.4777  0.3388
  729MOL0     C96118   4.275   3.635   5.155 -1.0299  0.4688  0.6412
  729MOL0     C96119   4.129   3.598   5.142 -0.6510  0.4187 -0.0282
  729MOL0     O96120   4.051   3.717   5.133  0.9415  0.3793  0.2096
  729MOL0     C96121   3.913   3.714   5.145 -0.1054  1.2076 -0.2050
  729MOL0     C96122   3.846   3.822   5.102 -0.5862 -0.2996 -0.8808
  729MOL0     C96123   3.702   3.830   5.112  0.3511  0.1016 -0.5784
  729MOL0     C96124   3.635   3.724   5.178 -0.9470  1.4488  0.6672
  729MOL0     C96125   3.491   3.724   5.194  0.1433  0.0672 -0.8620
  729MOL0     O96126   3.433   3.846   5.189 -0.4917  0.3832  0.3974
  729MOL0     C96127   3.314   3.865   5.250  0.3231  0.2820  0.0729
  729MOL0     C96128   3.295   3.834   5.381  0.3198 -0.1659 -0.4131
  729MOL0     C96129   3.166   3.846   5.438  0.4113 -0.0027 -0.6385
  729MOL0     C96130   3.051   3.884   5.369  0.5124  0.0330 -0.0548
  729MOL0     O96131   2.925   3.902   5.434 -1.1845  0.7529  0.4136
  729MOL0     C96132   2.831   3.995   5.380 -0.0598  0.9113 -0.4336
  729MOL0     C96133   2.763   4.061   5.501 -0.3935  0.0720  0.4726
  729MOL0     C96134   2.860   4.151   5.578  0.5525  0.6154 -0.0370
  729MOL0     C96135   2.799   4.204   5.711  0.6186 -0.2048  0.6621
  729MOL0     C96136   2.914   4.276   5.795 -0.2809  0.8419  0.3215
  729MOL0     C96137   3.054   4.212   5.827 -0.2690 -0.3532 -0.1144
  729MOL0     C96138   3.041   4.071   5.872  0.3143  0.4146 -0.4672
  729MOL0     C96139   3.177   4.013   5.902 -0.3582  0.1331  0.4301
  729MOL0    Cl96140   3.283   4.090   6.020 -0.0532 -0.0051 -0.1514
  729MOL0     C96141   3.072   3.917   5.235  0.5261  0.0723 -0.5772
  729MOL0     C96142   3.199   3.908   5.176  0.3742 -1.2016  0.3539
  729MOL0     O96143   3.440   3.625   5.244 -0.4184 -0.0296 -0.1176
  729MOL0     C96144   3.703   3.608   5.225 -0.3004 -0.4486 -0.0757
  729MOL0     C96145   3.844   3.604   5.200 -0.5357 -0.6581 -1.1627
  729MOL0     N96146   4.527   3.876   5.460  0.2975 -0.5229 -0.8845
  729MOL0     N96147   4.613   3.887   5.550 -1.1138  0.0697 -0.8744
  729MOL0     C96148   5.880   4.206   5.671  0.8780 -0.0190  0.4139
  729MOL0     C96149   6.008   4.245   5.689 -0.6611 -0.4069 -0.1213
  729MOL0     C96150   6.453   4.154   5.746 -0.5779 -0.2650  0.2784
  729MOL0     C96151   6.510   4.285   5.770 -0.0853 -0.2307 -0.0868
  729MOL0     C96152   6.635   4.293   5.828  0.2318  1.1785  1.4072
  729MOL0     C96153   6.711   4.180   5.863 -0.2396 -0.0150 -0.1832
  729MOL0     O96154   6.826   4.209   5.942 -0.1085 -0.6847 -0.0530
  729MOL0     C96155   6.942   4.128   5.920 -0.1552  0.0943  0.1157
  729MOL0     C96156   7.053   4.216   5.867 -0.3241  0.3082  0.4173
  729MOL0     C96157   7.045   4.231   5.714 -0.6143 -0.3398  0.2159
  729MOL0     C96158   7.151   4.327   5.659  0.1595  0.3915  0.5245
  729MOL0     C96159   7.150   4.462   5.718  0.4627 -0.7179  0.1360
  729MOL0     C96160   7.165   4.581   5.738  0.3605  0.7134  0.3377
  729MOL0     C96161   6.666   4.052   5.826 -0.3821 -0.5763  0.4760
  729MOL0     C96162   6.534   4.040   5.766 -0.2326 -0.8210 -0.3863
  729MOL0     H96163   6.145   4.049   5.450 -2.3774 -1.0179 -2.0592
  729MOL0     H96164   5.928   3.993   5.417 -3.1098 -1.3810  1.8753
  729MOL0     H96165   5.709   4.042   5.357  1.2777 -1.1147  2.2119
  729MOL0     H96166   5.608   4.188   5.406  0.6689  0.9740  1.8160
  729MOL0     H96167   5.546   3.894   5.457 -0.7800 -1.9573 -2.2674
  729MOL0     H96168   5.470   3.986   5.333 -2.7866 -2.0516  1.4192
  729MOL0     H96169   5.355   4.127   5.476  0.0984  1.1843  2.5007
  729MOL0     H96170   5.450   4.068   5.613 -0.8376 -2.0982  1.0314
  729MOL0     H96171   5.321   3.879   5.433  3.0063 -0.6403 -0.1026
  729MOL0     H96172   5.322   3.867   5.616 -1.2021  0.4470  0.3669
  729MOL0     H96173   5.140   4.017   5.439  2.8593  0.1284  0.3319
  729MOL0     H96174   5.155   4.040   5.621 -0.5201 -1.1060  1.7789
  729MOL0     H96175   5.086   3.838   5.669 -0.3709  1.1368  0.4449
  729MOL0     H96176   5.106   3.771   5.498  0.1686 -1.2484  1.7638
  729MOL0     H96177   4.909   3.990   5.604  0.7846  0.2964 -0.0443
  729MOL0     H96178   4.895   3.906   5.446 -1.4463 -2.7604 -0.2478
  729MOL0     H96179   4.844   3.807   5.720 -0.5173  0.3093 -0.3846
  729MOL0     H96180   4.898   3.693   5.587 -2.3050 -1.8745  0.4061
  729MOL0     H96181   4.727   3.629   5.379 -1.9813  0.1051 -3.4463
  729MOL0     H96182   4.528   3.610   5.254 -0.3165  0.2715 -1.7400
  729MOL0     H96183   4.492   3.760   5.170  1.2526  2.2412  0.4183
  729MOL0     H96184   4.279   3.797   5.303  1.1384  1.2225  1.2968
  729MOL0     H96185   4.302   3.636   5.370 -0.1966 -0.8883 -0.4837
  729MOL0     H96186   4.302   3.686   5.062 -0.8791 -4.1541 -2.1908
  729MOL0     H96187   4.339   3.549   5.135  0.1530  1.4674 -0.0334
  729MOL0     H96188   4.103   3.535   5.227 -1.0236  1.1083  0.3733
  729MOL0     H96189   4.119   3.547   5.045  0.4602  2.0842 -1.0762
  729MOL0     H96190   3.899   3.904   5.053 -2.1697  2.6973  2.0280
  729MOL0     H96191   3.649   3.917   5.075 -1.0168  0.7493  2.5740
  729MOL0     H96192   3.375   3.801   5.446  1.8469  3.2479 -0.3204
  729MOL0     H96193   3.151   3.809   5.538  0.0873 -1.3613 -1.1693
  729MOL0     H96194   2.751   3.945   5.326  1.9899 -0.3251 -2.5393
  729MOL0     H96195   2.888   4.067   5.320 -0.0018  0.4463 -0.9503
  729MOL0     H96196   2.739   3.980   5.571  1.4200 -2.9466 -2.1728
  729MOL0     H96197   2.682   4.126   5.466 -0.5677 -0.8180 -0.8256
  729MOL0     H96198   2.881   4.231   5.506 -0.1045  0.2481 -0.6552
  729MOL0     H96199   2.952   4.099   5.603  1.2231  1.8123  0.0387
  729MOL0     H96200   2.719   4.273   5.682  0.7037 -1.0933 -1.9546
  729MOL0     H96201   2.749   4.121   5.760 -1.6137 -0.2840 -1.5167
  729MOL0     H96202   2.865   4.286   5.892 -0.5025  2.3081  0.0838
  729MOL0     H96203   2.942   4.375   5.756  0.8929 -0.6018 -2.8183
  729MOL0     H96204   3.114   4.275   5.893 -0.3284  0.8357 -1.1569
  729MOL0     H96205   3.116   4.208   5.738 -0.3154 -1.0170 -0.1216
  729MOL0     H96206   2.975   4.072   5.960  1.1706  0.5268  0.1876
  729MOL0     H96207   2.997   4.009   5.794  0.3470  1.0369 -0.9881
  729MOL0     H96208   3.234   3.999   5.810  0.7498  0.2884  1.0719
  729MOL0     H96209   3.144   3.916   5.938 -3.7690  0.4896 -1.3594
  729MOL0     H96210   2.993   3.931   5.162 -1.8641 -0.2556  1.7981
  729MOL0     H96211   3.221   3.935   5.073  4.6230  2.1655  1.8018
  729MOL0     H96212   3.653   3.536   5.289 -0.3033  0.5906  1.1098
  729MOL0     H96213   3.897   3.516   5.235  0.7485  0.5192 -0.0224
  729MOL0     H96214   5.809   4.253   5.738 -0.1412  1.4349 -1.5797
  729MOL0     H96215   6.015   4.323   5.765 -0.1423 -2.0534  1.6031
  729MOL0     H96216   6.430   4.357   5.751 -1.9777 -2.1637  0.2008
  729MOL0     H96217   6.672   4.394   5.844  0.0512  1.7422 -1.2858
  729MOL0     H96218   6.926   4.042   5.854 -1.0019  0.3029  0.0372
  729MOL0     H96219   6.975   4.084   6.015  0.4609  1.2400  0.4539
  729MOL0     H96220   7.036   4.314   5.914 -2.4009  0.3280 -0.2469
  729MOL0     H96221   7.154   4.191   5.901  0.6022  1.0417 -1.6473
  729MOL0     H96222   6.949   4.278   5.691  0.8931  2.1967 -1.4504
  729MOL0     H96223   7.057   4.135   5.663  0.0811  0.7482 -1.8420
  729MOL0     H96224   7.247   4.276   5.675 -1.3234 -4.0099 -2.5833
  729MOL0     H96225   7.142   4.346   5.552 -0.5569  0.0892  0.5271
  729MOL0     H96226   7.174   4.677   5.784 -0.4554  0.9140  0.0896
  729MOL0     H96227   6.703   3.959   5.869  2.2299  0.5074  0.7150
  729MOL0     H96228   6.499   3.937   5.762  0.3190 -0.9730 -2.0974
  730MOL0     O96229   4.617   7.837   5.294 -0.2593 -1.2331 -0.7952
  730MOL0     C96230   4.638   7.761   5.206  0.5255 -0.0568  0.6084
  730MOL0     O96231   4.561   7.648   5.186  0.5780  0.9799 -0.6684
  730MOL0     C96232   4.452   7.617   5.265 -0.1799  0.0258  0.3234
  730MOL0     C96233   4.434   7.482   5.308 -0.3614  0.4780 -0.4305
  730MOL0     C96234   4.329   7.454   5.396  0.5644 -0.1335 -0.1155
  730MOL0     C96235   4.242   7.555   5.441 -0.1747 -0.4624  0.1666
  730MOL0     O96236   4.156   7.512   5.543  0.2939 -0.3245  0.2958
  730MOL0     C96237   4.082   7.603   5.618  0.3300  0.0268 -0.3469
  730MOL0     C96238   3.955   7.660   5.541 -0.2398 -0.5678  0.3063
  730MOL0     C96239   3.900   7.777   5.614  0.2625  0.2495 -0.0510
  730MOL0     C96240   3.752   7.834   5.587 -0.2200 -0.0129 -0.1445
  730MOL0     C96241   3.644   7.721   5.600  0.6845 -0.0111 -0.3516
  730MOL0     C96242   3.497   7.770   5.605 -0.7076 -0.0805  0.6214
  730MOL0     C96243   3.403   7.659   5.634  0.0901 -0.6747  0.3419
  730MOL0     C96244   3.260   7.727   5.633  0.1704 -0.6148  0.0408
  730MOL0     N96245   3.234   7.809   5.749  0.3874  0.1231 -0.3347
  730MOL0     C96246   3.194   7.748   5.868  1.0543 -0.0036  1.2279
  730MOL0     C96247   3.134   7.852   5.937 -0.4177  0.3484 -0.4901
  730MOL0     C96248   3.057   7.855   6.065 -0.3212 -0.3439  0.3941
  730MOL0     C96249   2.921   7.793   6.058  0.7057 -0.8097  0.2999
  730MOL0     C96250   2.924   7.643   6.018  0.3022  0.8619 -0.4342
  730MOL0     C96251   2.787   7.585   6.043  0.7920  0.2398  0.0823
  730MOL0     O96252   2.786   7.441   6.017  0.2360 -0.2028  0.2146
  730MOL0     C96253   2.672   7.371   6.046  0.0311  0.4274  0.0020
  730MOL0     C96254   2.668   7.263   6.135  0.9063  0.5581  0.2366
  730MOL0     C96255   2.549   7.183   6.137  0.0397  0.2195  0.0058
  730MOL0     C96256   2.435   7.219   6.054 -0.2973  0.5201 -0.8710
  730MOL0     C96257   2.302   7.145   6.083  0.2257 -1.3744  0.1225
  730MOL0     O96258   2.297   7.038   6.170  0.3820  0.6526 -0.2147
  730MOL0     C96259   2.182   6.985   6.211  0.0893 -0.8214  0.7058
  730MOL0     C96260   2.126   7.040   6.336 -0.5244  0.5043  0.4975
  730MOL0     C96261   2.012   6.984   6.394 -1.0890 -0.3263  0.6092
  730MOL0     C96262   1.951   6.875   6.329 -0.5749  0.4018 -0.0568
  730MOL0     O96263   1.845   6.818   6.392  0.1730  0.2410  0.1609
  730MOL0     C96264   1.762   6.732   6.318  0.7540 -0.7405  0.5004
  730MOL0     C96265   1.647   6.677   6.403 -0.4630 -0.1409 -0.0748
  730MOL0     C96266   1.552   6.599   6.323  0.2994  0.5269  0.8341
  730MOL0     C96267   1.420   6.566   6.395 -0.2335 -0.4383 -0.0006
  730MOL0     C96268   1.336   6.445   6.328 -0.0092 -0.1670 -0.0138
  730MOL0     C96269   1.220   6.408   6.407  0.2580 -0.4622  0.2574
  730MOL0     C96270   1.102   6.505   6.394  0.0604 -0.1344 -0.0592
  730MOL0     C96271   0.974   6.430   6.451 -0.5702 -0.5916 -0.6656
  730MOL0    Cl96272   1.005   6.396   6.625 -0.7623 -0.2829 -0.2767
  730MOL0     C96273   2.015   6.821   6.210  0.2559 -0.4423 -0.9853
  730MOL0     C96274   2.120   6.882   6.144  0.0770 -1.1561  0.9405
  730MOL0     O96275   2.207   7.209   6.036 -0.5325  0.5257 -0.2699
  730MOL0     C96276   2.441   7.341   5.980  0.1282  0.0964  0.5410
  730MOL0     C96277   2.559   7.409   5.976  0.4787  0.1277 -1.2302
  730MOL0     N96278   3.131   7.963   5.863 -0.0539  0.2697  0.6009
  730MOL0     N96279   3.195   7.938   5.752 -0.1693  1.0479  0.2728
  730MOL0     C96280   4.257   7.688   5.394  0.2830  0.9768  0.4226
  730MOL0     C96281   4.359   7.718   5.305 -0.0802 -0.2207 -0.4830
  730MOL0     C96282   4.749   7.790   5.111 -0.8619 -1.0982 -0.1724
  730MOL0     C96283   4.748   7.743   4.982 -0.3575  0.4164 -0.1353
  730MOL0     C96284   4.860   7.758   4.889 -0.1627  0.3910 -0.1217
  730MOL0     C96285   4.976   7.816   4.934 -0.2547 -0.7981 -0.3949
  730MOL0     O96286   5.087   7.835   4.845 -0.5324  0.4846 -0.1244
  730MOL0     C96287   5.220   7.874   4.893  0.6414 -0.4586 -0.0183
  730MOL0     C96288   5.210   8.026   4.862 -0.7567 -0.1965  0.4028
  730MOL0     C96289   5.204   8.055   4.706 -0.9837 -0.3211 -0.5714
  730MOL0     C96290   5.310   8.155   4.665  0.2131  0.1071  0.3475
  730MOL0     C96291   5.445   8.098   4.680 -0.8028 -0.8214 -0.0576
  730MOL0     C96292   5.561   8.063   4.680 -0.0935  0.4641 -0.6595
  730MOL0     C96293   4.973   7.880   5.063 -0.4303 -0.8665  0.4002
  730MOL0     C96294   4.857   7.865   5.150  0.1188 -0.1762  0.1952
  730MOL0     H96295   4.502   7.402   5.282 -0.8643 -0.2578  0.4753
  730MOL0     H96296   4.316   7.354   5.437 -0.4395  0.3247  0.7414
  730MOL0     H96297   4.156   7.681   5.643  1.0172 -0.3619 -1.1147
  730MOL0     H96298   4.059   7.557   5.714 -0.5567 -0.0356 -0.5882
  730MOL0     H96299   3.883   7.578   5.533  0.9584 -1.9023  2.2448
  730MOL0     H96300   3.981   7.700   5.442 -0.4689  0.3352  0.6017
  730MOL0     H96301   3.978   7.851   5.598  0.9793 -0.4722  0.0207
  730MOL0     H96302   3.894   7.750   5.719 -0.8592 -1.3900 -0.4807
  730MOL0     H96303   3.731   7.915   5.657  2.1733 -0.3927  1.1054
  730MOL0     H96304   3.749   7.883   5.489 -2.2206 -0.4253 -0.3312
  730MOL0     H96305   3.663   7.663   5.690 -1.8788  0.0868  0.3269
  730MOL0     H96306   3.649   7.648   5.518 -2.8020 -1.1804  0.2917
  730MOL0     H96307   3.480   7.807   5.503 -0.7250 -1.0861  0.2549
  730MOL0     H96308   3.482   7.846   5.682 -2.7050  1.7781 -1.4436
  730MOL0     H96309   3.406   7.601   5.542 -0.0475 -1.1102  0.6123
  730MOL0     H96310   3.434   7.605   5.724 -2.4544 -2.1215  0.4435
  730MOL0     H96311   3.180   7.652   5.638 -1.2550  0.8114 -0.2828
  730MOL0     H96312   3.257   7.785   5.540  4.1036  0.0549  0.1579
  730MOL0     H96313   3.191   7.643   5.896  0.8929 -0.4491 -0.3853
  730MOL0     H96314   3.060   7.960   6.097  0.3296  0.1926 -1.2930
  730MOL0     H96315   3.122   7.799   6.132  1.1994 -0.4492 -1.1009
  730MOL0     H96316   2.859   7.847   5.986  0.9149 -1.6612 -0.5480
  730MOL0     H96317   2.885   7.817   6.158 -3.0446  1.3904 -1.3647
  730MOL0     H96318   2.952   7.625   5.914  1.5927  0.4532 -0.0357
  730MOL0     H96319   3.002   7.592   6.076 -0.2584  0.3295 -0.1336
  730MOL0     H96320   2.718   7.649   5.987  0.2004  1.2342  1.8497
  730MOL0     H96321   2.760   7.589   6.149  0.8340  1.4636  0.0592
  730MOL0     H96322   2.757   7.252   6.195 -0.4115  0.9167  2.3798
  730MOL0     H96323   2.540   7.093   6.197 -1.4463 -2.5209 -3.9017
  730MOL0     H96324   2.188   7.115   6.384  1.3056 -0.2074 -0.6136
  730MOL0     H96325   1.969   7.021   6.487  0.3101 -0.7414  1.4500
  730MOL0     H96326   1.812   6.648   6.269 -0.8340 -1.8468  0.6864
  730MOL0     H96327   1.720   6.789   6.234  0.4725  0.8576  1.6863
  730MOL0     H96328   1.588   6.757   6.449  0.2984 -0.3921  1.4097
  730MOL0     H96329   1.689   6.628   6.491  1.9158 -2.1196 -2.1455
  730MOL0     H96330   1.607   6.511   6.289  2.7594  0.7260  3.8579
  730MOL0     H96331   1.531   6.648   6.228  1.9042  0.2460  0.3033
  730MOL0     H96332   1.444   6.532   6.496 -2.7689 -0.0182  0.8115
  730MOL0     H96333   1.355   6.654   6.401 -2.2617 -1.9149  1.1297
  730MOL0     H96334   1.393   6.353   6.308  1.1555 -0.0099  2.1992
  730MOL0     H96335   1.306   6.486   6.231  1.1014  1.9295  0.4760
  730MOL0     H96336   1.247   6.400   6.513 -1.3206 -0.7375  0.6621
  730MOL0     H96337   1.187   6.308   6.380  1.8212 -0.5714 -1.3824
  730MOL0     H96338   1.118   6.605   6.436 -1.1959  0.1197 -0.1293
  730MOL0     H96339   1.074   6.524   6.290  0.3677  0.6392 -0.0062
  730MOL0     H96340   0.952   6.335   6.401 -0.1804 -0.3479 -1.3148
  730MOL0     H96341   0.886   6.495   6.440 -1.1179 -0.4333  3.2331
  730MOL0     H96342   1.992   6.728   6.159 -1.3391  0.1790 -1.4672
  730MOL0     H96343   2.149   6.849   6.045 -0.3969  1.1226 -0.0151
  730MOL0     H96344   2.351   7.378   5.932  2.1133  1.5832 -2.3712
  730MOL0     H96345   2.565   7.498   5.915 -0.6443  1.1271  0.0574
  730MOL0     H96346   4.188   7.767   5.418  0.8655  2.3826 -2.1462
  730MOL0     H96347   4.366   7.815   5.257  1.8249  0.7482  1.5748
  730MOL0     H96348   4.659   7.688   4.953 -0.3602  0.6557 -0.5809
  730MOL0     H96349   4.856   7.713   4.791 -1.5511  3.6365 -1.7104
  730MOL0     H96350   5.307   7.838   4.838  0.9710  1.6709 -0.9646
  730MOL0     H96351   5.229   7.857   5.001 -2.5216 -0.2453  0.3746
  730MOL0     H96352   5.126   8.062   4.921  0.5065  0.4069  1.9309
  730MOL0     H96353   5.294   8.073   4.915 -1.6011  2.3617 -0.3742
  730MOL0     H96354   5.106   8.099   4.683 -0.1916  0.9694 -1.6131
  730MOL0     H96355   5.210   7.968   4.640  3.7527  0.2309 -1.2197
  730MOL0     H96356   5.299   8.178   4.558 -0.4741 -1.9171 -0.0619
  730MOL0     H96357   5.308   8.246   4.725 -0.3880 -1.2920  2.5588
  730MOL0     H96358   5.665   8.036   4.691 -0.1666  0.7006  0.7956
  730MOL0     H96359   5.061   7.927   5.107 -0.4861  0.1738 -0.5521
  730MOL0     H96360   4.868   7.909   5.249 -0.8309 -1.2702  0.8117
  731MOL0     O96361   2.187   9.080   0.550  0.0213  0.6738 -0.1080
  731MOL0     C96362   2.202   8.994   0.638 -0.8400  0.5040 -0.5692
  731MOL0     O96363   2.101   8.944   0.720 -0.7446  0.7139  0.1011
  731MOL0     C96364   1.972   8.983   0.687  0.3356  0.0469  0.4147
  731MOL0     C96365   1.918   8.974   0.558 -0.6222 -0.0279  0.3520
  731MOL0     C96366   1.784   8.988   0.526 -0.4901 -0.3345 -0.6268
  731MOL0     C96367   1.697   9.014   0.627  0.6480  0.7878  0.0781
  731MOL0     O96368   1.570   9.051   0.579 -0.1014  0.0341 -0.2595
  731MOL0     C96369   1.458   9.065   0.673 -0.3716 -0.0448  1.3667
  731MOL0     C96370   1.436   9.210   0.708  0.3267 -0.6906  0.2022
  731MOL0     C96371   1.391   9.299   0.588 -0.4885  0.2333  0.8432
  731MOL0     C96372   1.348   9.435   0.628 -1.4090 -0.4797 -0.4014
  731MOL0     C96373   1.201   9.433   0.670 -0.3591  0.2044  0.0529
  731MOL0     C96374   1.146   9.578   0.676  0.3184  0.1467 -0.3578
  731MOL0     C96375   0.996   9.591   0.711 -0.2294  0.2094  0.2346
  731MOL0     C96376   0.948   9.725   0.772 -0.0801 -0.1742  0.6851
  731MOL0     N96377   0.812   9.758   0.727 -0.4713  0.0648  0.2337
  731MOL0     C96378   0.697   9.733   0.796 -0.7193 -0.7167 -1.3624
  731MOL0     C96379   0.596   9.758   0.713  0.0114  0.4533 -0.6041
  731MOL0     C96380   0.449   9.754   0.749  1.3186  1.3140  0.0126
  731MOL0     C96381   0.367   9.630   0.714 -1.2715 -0.0201 -0.0120
  731MOL0     C96382   0.225   9.660   0.757 -0.2624  0.8144 -0.3792
  731MOL0     C96383   0.158   9.779   0.685  0.1143  0.3541  0.3162
  731MOL0     O96384   0.182   9.893   0.776  1.0468  0.2887  0.1983
  731MOL0     C96385   0.089   9.992   0.785  0.4425  0.6607  0.1383
  731MOL0     C96386   0.131  10.122   0.770  1.1594 -0.9348  0.0763
  731MOL0     C96387   0.041  10.231   0.765  0.6097 -0.2554  1.3538
  731MOL0     C96388  -0.098  10.203   0.768  0.2217 -0.1296 -0.0194
  731MOL0     C96389  -0.196  10.316   0.754  0.6351  0.4130 -0.3691
  731MOL0     O96390  -0.319  10.294   0.699  0.3489  0.0796  0.4750
  731MOL0     C96391  -0.421  10.386   0.691  0.6875  0.1596 -0.3319
  731MOL0     C96392  -0.410  10.520   0.707  0.5745 -0.5465 -0.5715
  731MOL0     C96393  -0.515  10.602   0.661 -0.5792 -0.6020 -0.7050
  731MOL0     C96394  -0.633  10.547   0.603  0.0649 -0.3467  0.2558
  731MOL0     O96395  -0.747  10.620   0.561  0.4405 -0.6721  0.6630
  731MOL0     C96396  -0.723  10.763   0.535  0.7388  0.3286 -0.0373
  731MOL0     C96397  -0.852  10.825   0.472  0.7216  0.6912  0.7423
  731MOL0     C96398  -0.814  10.904   0.346 -0.4861  0.9809  0.5270
  731MOL0     C96399  -0.954  10.941   0.294  0.3096 -0.3579  0.3516
  731MOL0     C96400  -0.949  10.971   0.139  0.1624 -0.3641  0.0459
  731MOL0     C96401  -1.076  11.055   0.104 -0.0737  0.2882 -0.5969
  731MOL0     C96402  -1.185  10.946   0.079  0.3499 -0.1702  0.0832
  731MOL0     C96403  -1.326  11.008   0.060  0.7986 -0.8495 -0.4054
  731MOL0    Cl96404  -1.347  11.117  -0.079  0.6437 -0.0558  0.5256
  731MOL0     C96405  -0.635  10.415   0.584  0.5704  0.2803 -0.3699
  731MOL0     C96406  -0.532  10.331   0.632  0.4357  0.1163 -0.2878
  731MOL0     O96407  -0.159  10.421   0.806  0.2133  0.4311  0.2420
  731MOL0     C96408  -0.140  10.073   0.786  0.1598 -0.4473  0.6715
  731MOL0     C96409  -0.052   9.968   0.783 -0.1862  0.1530 -0.0058
  731MOL0     N96410   0.648   9.800   0.593  0.0262  0.2266 -0.1301
  731MOL0     N96411   0.775   9.802   0.608  0.0198  0.7201  0.3703
  731MOL0     C96412   1.742   9.025   0.762  0.1080  0.6412  0.3695
  731MOL0     C96413   1.879   9.012   0.792  0.0264 -0.5817 -0.1143
  731MOL0     C96414   2.340   8.931   0.658  0.4406  0.8921 -1.0724
  731MOL0     C96415   2.364   8.851   0.778 -0.3389 -0.4297 -0.0629
  731MOL0     C96416   2.496   8.794   0.800 -1.3133  0.2408 -0.8574
  731MOL0     C96417   2.584   8.804   0.690 -0.3919 -0.5404  0.0231
  731MOL0     O96418   2.707   8.740   0.675  0.1784 -0.1347  0.2615
  731MOL0     C96419   2.745   8.654   0.780 -0.0322 -0.2915 -0.0586
  731MOL0     C96420   2.865   8.570   0.746  0.2670 -0.3434  0.8119
  731MOL0     C96421   2.893   8.468   0.852  0.1520 -0.2573  1.0190
  731MOL0     C96422   3.016   8.377   0.811 -0.1530  0.4396 -0.3590
  731MOL0     C96423   3.145   8.430   0.853 -0.9729 -0.8643 -0.6094
  731MOL0     C96424   3.250   8.469   0.900 -0.8712  0.7614 -0.7299
  731MOL0     C96425   2.558   8.889   0.586 -0.4269 -0.6238  0.0781
  731MOL0     C96426   2.438   8.950   0.560 -0.1037 -0.0461 -0.6292
  731MOL0     H96427   1.978   8.939   0.474  0.2006  1.3066  0.3496
  731MOL0     H96428   1.758   9.009   0.423  2.0901 -0.5178 -1.3848
  731MOL0     H96429   1.492   9.004   0.757  0.5190  2.4916  2.9649
  731MOL0     H96430   1.366   9.021   0.632 -0.1023  0.9254 -0.3744
  731MOL0     H96431   1.523   9.244   0.765 -1.2802  0.8208  1.8744
  731MOL0     H96432   1.355   9.211   0.782 -0.6957 -2.2584 -0.8276
  731MOL0     H96433   1.310   9.254   0.529  0.1622 -1.1719  0.9748
  731MOL0     H96434   1.479   9.316   0.525 -0.3247 -0.9557  0.7237
  731MOL0     H96435   1.410   9.468   0.711 -0.6101 -1.8180 -0.4394
  731MOL0     H96436   1.366   9.493   0.537  1.3710 -0.4772  0.0760
  731MOL0     H96437   1.191   9.388   0.769  0.2589 -1.7400 -0.7156
  731MOL0     H96438   1.143   9.377   0.595  0.4882  0.8952 -1.1501
  731MOL0     H96439   1.161   9.622   0.576 -0.5946  2.0772  0.3005
  731MOL0     H96440   1.200   9.631   0.754  1.4488 -1.1003 -0.2642
  731MOL0     H96441   0.943   9.570   0.617  1.3844  2.3658 -1.2462
  731MOL0     H96442   0.973   9.510   0.781 -0.5167 -1.5774 -1.7864
  731MOL0     H96443   1.016   9.806   0.744  1.5838 -1.7274  0.0077
  731MOL0     H96444   0.944   9.718   0.881  0.0913 -0.6005  0.6642
  731MOL0     H96445   0.680   9.693   0.895 -0.9702  2.5446  0.0332
  731MOL0     H96446   0.404   9.839   0.698 -1.1028 -1.1992 -2.3964
  731MOL0     H96447   0.439   9.761   0.857 -1.1896  0.1687 -0.0817
  731MOL0     H96448   0.408   9.552   0.778 -0.9208  0.9520  0.9814
  731MOL0     H96449   0.368   9.600   0.609 -1.8653 -1.1331  0.2839
  731MOL0     H96450   0.169   9.571   0.730  0.6366  0.2007 -0.2580
  731MOL0     H96451   0.224   9.659   0.866 -0.1670 -1.2683 -0.3715
  731MOL0     H96452   0.053   9.752   0.676  0.9702 -3.0697 -0.8246
  731MOL0     H96453   0.200   9.797   0.585 -0.5251  0.0002 -0.0180
  731MOL0     H96454   0.234  10.131   0.738  1.3322  0.6627  0.9662
  731MOL0     H96455   0.074  10.330   0.736  0.7318 -1.1894 -2.3007
  731MOL0     H96456  -0.325  10.572   0.749  0.3937  0.1395 -1.0396
  731MOL0     H96457  -0.505  10.707   0.685  2.5070 -0.4762 -2.0090
  731MOL0     H96458  -0.631  10.772   0.476  0.1333 -0.9687 -1.2429
  731MOL0     H96459  -0.710  10.818   0.628 -1.4534 -0.7835  0.9959
  731MOL0     H96460  -0.899  10.894   0.543  2.1303  1.1126  1.3117
  731MOL0     H96461  -0.915  10.737   0.455  3.2962 -1.1679  0.3380
  731MOL0     H96462  -0.769  10.835   0.275 -1.9020  3.2096 -2.7745
  731MOL0     H96463  -0.761  10.998   0.359  2.3076 -0.1156 -1.8283
  731MOL0     H96464  -1.035  10.869   0.306  0.7215 -0.6151  1.7979
  731MOL0     H96465  -0.977  11.032   0.350 -1.6402 -1.0454  0.7288
  731MOL0     H96466  -0.944  10.885   0.072  0.8277  0.6789 -1.3130
  731MOL0     H96467  -0.867  11.042   0.121 -0.9132  0.4634 -1.9110
  731MOL0     H96468  -1.061  11.115   0.014  0.8493  0.3058 -0.4374
  731MOL0     H96469  -1.107  11.120   0.187  0.3762 -2.1598  1.6312
  731MOL0     H96470  -1.171  10.886  -0.012 -1.4899 -2.2184  1.0504
  731MOL0     H96471  -1.190  10.873   0.160 -4.0197  1.2540  1.3790
  731MOL0     H96472  -1.352  11.072   0.144  1.3906 -1.2374  0.0835
  731MOL0     H96473  -1.405  10.933   0.056 -0.2079  0.2143 -0.8087
  731MOL0     H96474  -0.722  10.362   0.547  0.5474 -0.7082  1.0070
  731MOL0     H96475  -0.534  10.224   0.611 -1.7288  0.3291 -1.5263
  731MOL0     H96476  -0.247  10.058   0.772  0.1981  0.6562 -1.0409
  731MOL0     H96477  -0.093   9.868   0.770 -0.3717 -0.0572  1.9125
  731MOL0     H96478   1.679   9.047   0.847 -0.2544 -1.5597  0.7335
  731MOL0     H96479   1.918   9.027   0.892 -0.0092 -0.5652 -0.1027
  731MOL0     H96480   2.277   8.839   0.841 -2.7825  1.4103 -2.7888
  731MOL0     H96481   2.513   8.728   0.885 -2.5514 -0.7616 -1.3431
  731MOL0     H96482   2.666   8.584   0.809 -0.1955 -0.9924 -2.0301
  731MOL0     H96483   2.771   8.711   0.870 -2.3105  1.2789 -0.3143
  731MOL0     H96484   2.852   8.506   0.657  3.8633 -0.3884  0.1522
  731MOL0     H96485   2.952   8.633   0.723  0.1928 -0.9130 -1.2812
  731MOL0     H96486   2.809   8.412   0.895 -0.7968 -0.7795 -1.3285
  731MOL0     H96487   2.926   8.528   0.937 -0.8824 -1.9834  2.7153
  731MOL0     H96488   3.013   8.274   0.846  2.3795  0.2603 -0.4675
  731MOL0     H96489   3.021   8.378   0.701 -0.9251 -1.5696 -0.4417
  731MOL0     H96490   3.341   8.516   0.933 -0.9304  1.2622 -1.2678
  731MOL0     H96491   2.633   8.898   0.508  1.3456 -0.6716  1.6999
  731MOL0     H96492   2.413   9.004   0.469  3.4374  2.2535 -0.4390
  732MOL0     O96493   2.168   4.775   7.783 -0.1592 -0.6841 -1.2613
  732MOL0     C96494   2.125   4.674   7.723 -0.6378  0.2418  0.0121
  732MOL0     O96495   1.998   4.631   7.721  0.1078 -0.0922 -0.9705
  732MOL0     C96496   1.895   4.716   7.764 -0.2923 -0.1568  0.3356
  732MOL0     C96497   1.892   4.854   7.770  0.3020  0.4046 -0.3248
  732MOL0     C96498   1.782   4.924   7.822 -0.1275 -0.3485 -0.2287
  732MOL0     C96499   1.681   4.850   7.880  0.1672  0.0397 -0.1702
  732MOL0     O96500   1.582   4.929   7.920  1.0567 -0.2764  0.0335
  732MOL0     C96501   1.455   4.869   7.953  0.8661  0.4589 -0.0932
  732MOL0     C96502   1.366   4.987   7.986 -0.0869 -0.2548  0.1115
  732MOL0     C96503   1.234   4.970   8.067 -0.1727  0.6892 -0.5259
  732MOL0     C96504   1.157   5.106   8.058 -0.1748 -1.0151  1.7209
  732MOL0     C96505   1.046   5.106   8.155 -0.5479  0.0611  0.4794
  732MOL0     C96506   0.992   5.252   8.181 -0.0919  0.4318  0.5024
  732MOL0     C96507   0.865   5.272   8.098 -0.0087  0.1040  0.0789
  732MOL0     C96508   0.812   5.416   8.124 -0.2566  0.1933  0.7965
  732MOL0     N96509   0.666   5.427   8.087  0.4425  0.4634 -0.5803
  732MOL0     C96510   0.564   5.441   8.177 -0.5645  0.1283  0.4798
  732MOL0     C96511   0.447   5.439   8.102  0.1735  0.8258 -0.2754
  732MOL0     C96512   0.305   5.411   8.151  0.5107  0.9474  0.6073
  732MOL0     C96513   0.211   5.503   8.084  0.3434  0.0116 -0.5241
  732MOL0     C96514   0.079   5.479   8.162 -0.5922  0.6071  0.2838
  732MOL0     C96515  -0.031   5.580   8.128 -0.0693 -0.5663  0.8923
  732MOL0     O96516  -0.143   5.562   8.213 -0.1103  0.3586 -0.1232
  732MOL0     C96517  -0.266   5.601   8.173 -0.4886 -0.7348 -1.0310
  732MOL0     C96518  -0.299   5.735   8.161 -1.1826  0.0632 -0.4371
  732MOL0     C96519  -0.437   5.783   8.136  0.5288 -0.3278  0.4210
  732MOL0     C96520  -0.537   5.694   8.134  1.3697  1.2345 -0.4514
  732MOL0     C96521  -0.684   5.727   8.125 -0.4907  0.1041  0.0043
  732MOL0     O96522  -0.708   5.863   8.092  0.1395 -0.1209  0.0775
  732MOL0     C96523  -0.839   5.909   8.073 -0.4984  0.0805  0.2615
  732MOL0     C96524  -0.869   5.968   7.951 -0.0906 -0.3410 -0.7394
  732MOL0     C96525  -0.995   6.013   7.920  0.3607  0.4574  0.6200
  732MOL0     C96526  -1.103   5.995   8.006 -0.5916  0.6518  0.3510
  732MOL0     O96527  -1.227   6.045   7.961  0.1497 -0.1132  0.3537
  732MOL0     C96528  -1.338   6.009   8.049 -0.1099 -0.5831  1.0207
  732MOL0     C96529  -1.418   6.136   8.069  0.5098 -0.2153 -0.5881
  732MOL0     C96530  -1.532   6.108   8.170 -0.1408  0.7187 -0.2769
  732MOL0     C96531  -1.646   6.027   8.100 -0.0462 -0.7011 -0.1406
  732MOL0     C96532  -1.762   6.004   8.185  0.1829 -0.5260 -0.8653
  732MOL0     C96533  -1.862   6.122   8.172 -0.3926 -0.2466 -0.9287
  732MOL0     C96534  -1.985   6.091   8.261 -1.1297  0.1117  0.3822
  732MOL0     C96535  -2.082   6.008   8.180 -0.2667 -0.6673 -0.6571
  732MOL0    Cl96536  -2.206   5.941   8.299  0.2719  0.0194 -0.2318
  732MOL0     C96537  -1.074   5.937   8.129  1.3271  0.3421  0.0445
  732MOL0     C96538  -0.944   5.894   8.163  0.3914 -0.0341 -0.0782
  732MOL0     O96539  -0.778   5.646   8.147 -0.3419  0.1674 -0.2182
  732MOL0     C96540  -0.500   5.560   8.147  0.2940 -0.2350  0.3780
  732MOL0     C96541  -0.371   5.513   8.161 -0.1892  0.2988 -0.2880
  732MOL0     N96542   0.475   5.426   7.973 -0.3062  0.1163  0.1261
  732MOL0     N96543   0.602   5.435   7.967  0.3363  1.0298  0.3208
  732MOL0     C96544   1.688   4.717   7.886 -0.2470 -0.0931  0.3038
  732MOL0     C96545   1.794   4.643   7.831 -0.0505 -0.1814  0.2260
  732MOL0     C96546   2.228   4.612   7.647  0.0042 -0.0296  0.4647
  732MOL0     C96547   2.367   4.655   7.660  0.7460 -0.0382 -0.0748
  732MOL0     C96548   2.465   4.586   7.593  0.1399  0.1775  0.7286
  732MOL0     C96549   2.438   4.482   7.509  0.9694 -0.0579  0.4375
  732MOL0     O96550   2.521   4.416   7.431 -0.2404 -0.0786  0.2506
  732MOL0     C96551   2.649   4.476   7.401 -0.4152  0.3055 -0.2140
  732MOL0     C96552   2.764   4.433   7.498 -0.1126  0.9546 -0.1272
  732MOL0     C96553   2.763   4.281   7.516  0.3295 -0.0809  0.5211
  732MOL0     C96554   2.885   4.240   7.601  0.1151  0.3834 -0.5198
  732MOL0     C96555   3.005   4.248   7.510 -0.2284  0.2547  0.1598
  732MOL0     C96556   3.094   4.261   7.430 -0.4982 -0.8798 -0.1773
  732MOL0     C96557   2.305   4.449   7.488  0.2283 -0.0227 -0.0737
  732MOL0     C96558   2.203   4.506   7.555  0.6794  0.4768 -0.5930
  732MOL0     H96559   1.979   4.912   7.741 -0.2732 -0.4656 -4.2414
  732MOL0     H96560   1.774   5.032   7.820 -0.7674 -0.3962 -1.2211
  732MOL0     H96561   1.475   4.808   8.041  0.9763 -0.0079 -0.4336
  732MOL0     H96562   1.402   4.805   7.881 -2.0684  1.0308  1.3972
  732MOL0     H96563   1.330   5.021   7.888 -1.7333 -0.8007  0.4926
  732MOL0     H96564   1.430   5.066   8.028  1.7586 -0.3039 -2.3849
  732MOL0     H96565   1.269   4.952   8.169 -1.1355 -0.7406 -0.4263
  732MOL0     H96566   1.178   4.882   8.038 -0.5748  0.3543  1.1533
  732MOL0     H96567   1.230   5.185   8.078  0.4911 -1.6223  1.7318
  732MOL0     H96568   1.119   5.131   7.959  3.0251  3.0234  1.1968
  732MOL0     H96569   1.091   5.058   8.243  1.0490  1.0552  0.2451
  732MOL0     H96570   0.972   5.036   8.114  1.4422 -3.3175  2.1397
  732MOL0     H96571   1.069   5.326   8.158  0.2414 -0.1621 -0.3695
  732MOL0     H96572   0.967   5.262   8.287 -0.0762 -0.5295  0.6054
  732MOL0     H96573   0.886   5.264   7.991 -1.2022 -1.6053 -0.0689
  732MOL0     H96574   0.784   5.210   8.136  0.0082 -0.9528 -1.4923
  732MOL0     H96575   0.873   5.490   8.072 -3.6873  1.8835 -1.1607
  732MOL0     H96576   0.809   5.440   8.231 -1.1377 -0.5515  0.9464
  732MOL0     H96577   0.583   5.418   8.281  2.3029 -5.3359 -0.8858
  732MOL0     H96578   0.299   5.417   8.260 -2.7626 -0.9850  0.6722
  732MOL0     H96579   0.275   5.308   8.129  4.3141 -0.1626 -0.0705
  732MOL0     H96580   0.196   5.481   7.978 -0.2130 -2.1091 -0.0378
  732MOL0     H96581   0.236   5.610   8.090  2.1395 -0.2513 -2.1721
  732MOL0     H96582   0.048   5.379   8.132 -0.7555  0.9358 -0.6922
  732MOL0     H96583   0.094   5.485   8.270 -2.7932  3.2992  0.5257
  732MOL0     H96584  -0.049   5.561   8.022  2.2175 -1.8025  0.6658
  732MOL0     H96585   0.010   5.681   8.128 -1.5542  0.1497 -1.9924
  732MOL0     H96586  -0.219   5.808   8.176 -1.3361  0.5436 -1.8356
  732MOL0     H96587  -0.471   5.884   8.115  0.0371 -0.9126 -1.8385
  732MOL0     H96588  -0.791   5.982   7.877 -0.0567 -2.2974 -1.1268
  732MOL0     H96589  -1.007   6.059   7.822 -1.6772  2.1928  1.5957
  732MOL0     H96590  -1.320   5.968   8.149  2.2251 -4.3219 -0.7091
  732MOL0     H96591  -1.406   5.940   7.998 -0.5711 -0.4467  1.4505
  732MOL0     H96592  -1.459   6.183   7.979  0.7660  0.2594 -0.4598
  732MOL0     H96593  -1.350   6.206   8.118 -1.4271  0.2055  1.7036
  732MOL0     H96594  -1.569   6.207   8.197 -1.2968 -0.1214  1.4679
  732MOL0     H96595  -1.490   6.059   8.258  0.2949 -0.9207 -1.3457
  732MOL0     H96596  -1.684   6.079   8.011  0.0965 -0.6071 -0.1466
  732MOL0     H96597  -1.600   5.932   8.074  0.4413 -0.2925 -0.8028
  732MOL0     H96598  -1.737   5.989   8.290  1.3297 -1.6095 -1.2810
  732MOL0     H96599  -1.791   5.908   8.142  1.6918 -0.9118 -1.0763
  732MOL0     H96600  -1.882   6.148   8.067 -0.5442 -1.7492 -1.2987
  732MOL0     H96601  -1.811   6.207   8.217 -0.1905 -1.2293  0.7659
  732MOL0     H96602  -1.949   6.035   8.348  2.7859 -4.7489 -3.7385
  732MOL0     H96603  -2.030   6.186   8.292  0.1216  0.8761 -0.0855
  732MOL0     H96604  -2.028   5.924   8.134  1.2034 -1.6138  2.4914
  732MOL0     H96605  -2.137   6.063   8.104  0.1739 -1.9056 -1.9149
  732MOL0     H96606  -1.146   5.915   8.207 -2.3040 -1.7299 -3.4835
  732MOL0     H96607  -0.928   5.843   8.257  2.1939 -2.0159 -1.3670
  732MOL0     H96608  -0.576   5.482   8.142 -1.6803  1.3515  2.9704
  732MOL0     H96609  -0.334   5.412   8.175  2.2096  1.5455  4.5903
  732MOL0     H96610   1.615   4.651   7.932  1.3653 -0.0418  3.1871
  732MOL0     H96611   1.798   4.535   7.841 -1.2980 -0.0416  2.9799
  732MOL0     H96612   2.387   4.744   7.720 -0.3325  0.9137 -1.0733
  732MOL0     H96613   2.569   4.615   7.608 -0.3144  2.4578 -0.1403
  732MOL0     H96614   2.647   4.585   7.402 -0.2140  0.3118  0.8408
  732MOL0     H96615   2.673   4.438   7.302 -3.2547 -0.5494 -0.6541
  732MOL0     H96616   2.854   4.488   7.467 -1.0475  2.5850 -0.1039
  732MOL0     H96617   2.739   4.468   7.599  2.5198 -2.2658  1.8327
  732MOL0     H96618   2.759   4.231   7.418 -3.3511 -1.4743  1.2232
  732MOL0     H96619   2.673   4.245   7.567  1.8723 -2.9294  1.4653
  732MOL0     H96620   2.901   4.311   7.683  0.4983  1.4770 -1.5057
  732MOL0     H96621   2.881   4.138   7.641  0.2179  0.4877 -0.2401
  732MOL0     H96622   3.181   4.278   7.371  1.0841 -1.4972  1.8707
  732MOL0     H96623   2.290   4.377   7.409 -1.0372 -1.1298  1.1250
  732MOL0     H96624   2.100   4.472   7.541  1.8308 -3.6601 -0.3116
  733MOL0     O96625   3.651  10.866   3.815 -0.4595  0.1729 -0.5659
  733MOL0     C96626   3.726  10.921   3.896 -0.6854  0.1862 -0.1182
  733MOL0     O96627   3.728  10.902   4.034  0.5096 -1.0591  0.2038
  733MOL0     C96628   3.633  10.810   4.083 -0.5456 -0.1723  0.5553
  733MOL0     C96629   3.496  10.791   4.049 -0.0820 -0.8426 -0.0292
  733MOL0     C96630   3.423  10.703   4.129 -0.2583 -0.9437  0.1413
  733MOL0     C96631   3.477  10.638   4.243 -0.4654 -0.5771 -0.2851
  733MOL0     O96632   3.403  10.557   4.327 -0.5901  0.5594  0.0663
  733MOL0     C96633   3.274  10.605   4.357  0.6082 -0.1586  0.5629
  733MOL0     C96634   3.234  10.533   4.483  0.2191 -0.3120 -0.2874
  733MOL0     C96635   3.124  10.613   4.552  0.3749 -0.1877 -0.8750
  733MOL0     C96636   3.001  10.622   4.460 -0.0935 -0.0955 -0.4729
  733MOL0     C96637   2.870  10.664   4.527 -0.2732 -0.0850  0.0839
  733MOL0     C96638   2.753  10.652   4.436  0.7324 -0.6547  0.6365
  733MOL0     C96639   2.623  10.695   4.502 -0.1262 -0.4945  0.0702
  733MOL0     C96640   2.576  10.598   4.606 -0.4686  0.1450  0.5279
  733MOL0     N96641   2.462  10.654   4.686  0.2426  0.2096 -0.5476
  733MOL0     C96642   2.464  10.701   4.814  0.1471 -0.4642  0.2912
  733MOL0     C96643   2.339  10.742   4.849 -0.6170 -0.1560  0.0663
  733MOL0     C96644   2.300  10.761   4.988 -0.2599 -0.1524  0.0772
  733MOL0     C96645   2.153  10.783   4.998 -0.6142 -0.2952 -0.2516
  733MOL0     C96646   2.127  10.791   5.155  0.1283  0.3956 -0.0146
  733MOL0     C96647   1.982  10.815   5.191 -0.2719 -0.6055  0.1082
  733MOL0     O96648   1.899  10.742   5.091  0.4969  0.2577  0.3996
  733MOL0     C96649   1.756  10.743   5.104 -0.5609 -0.2398  0.0621
  733MOL0     C96650   1.689  10.778   5.226  0.1639  1.8227  0.6755
  733MOL0     C96651   1.547  10.760   5.230 -0.3040 -0.0403 -1.5469
  733MOL0     C96652   1.473  10.710   5.123 -0.4228  0.3268  0.6919
  733MOL0     C96653   1.327  10.687   5.144 -0.1895  0.4272 -0.0436
  733MOL0     O96654   1.267  10.740   5.248 -0.0761  0.8083 -0.3239
  733MOL0     C96655   1.140  10.704   5.278 -0.4067  0.8458  0.3370
  733MOL0     C96656   1.047  10.804   5.289  0.7054 -0.2965 -0.2728
  733MOL0     C96657   0.913  10.771   5.325 -0.2943 -0.9025 -0.0590
  733MOL0     C96658   0.879  10.638   5.332  0.3312 -0.0011 -1.1575
  733MOL0     O96659   0.746  10.610   5.349  1.1723  0.2516 -0.1296
  733MOL0     C96660   0.714  10.477   5.415 -0.3561 -0.5167  0.4218
  733MOL0     C96661   0.588  10.480   5.505  0.5391 -0.0216  0.6339
  733MOL0     C96662   0.460  10.530   5.434  0.3616  0.1834 -0.2995
  733MOL0     C96663   0.347  10.473   5.517  0.6736 -0.1855  0.2297
  733MOL0     C96664   0.199  10.499   5.468 -0.6914 -0.3898  0.0383
  733MOL0     C96665   0.153  10.642   5.502  0.2564  0.6459  0.8296
  733MOL0     C96666   0.006  10.656   5.531  0.0073  0.0138  0.2052
  733MOL0     C96667  -0.099  10.593   5.435 -0.6675  0.5444  0.9037
  733MOL0    Cl96668  -0.078  10.673   5.273 -0.2049  0.0015 -0.0190
  733MOL0     C96669   0.982  10.541   5.323  0.6698  0.6549  0.4997
  733MOL0     C96670   1.112  10.568   5.302  0.6130  0.3560 -1.2288
  733MOL0     O96671   1.275  10.612   5.057  0.2098 -0.7956  0.2213
  733MOL0     C96672   1.541  10.681   5.003 -0.6860 -0.4333 -0.3512
  733MOL0     C96673   1.681  10.709   4.997  0.7549 -0.3782  0.7555
  733MOL0     N96674   2.264  10.725   4.737 -0.6328 -0.0454  0.0255
  733MOL0     N96675   2.330  10.667   4.643 -0.1933  0.0888  0.2514
  733MOL0     C96676   3.614  10.660   4.269  0.3593 -0.1647 -0.2001
  733MOL0     C96677   3.688  10.742   4.186 -0.0866  0.5474  0.2066
  733MOL0     C96678   3.846  10.989   3.842 -0.2971  0.4138 -0.4709
  733MOL0     C96679   3.944  11.036   3.927 -0.3793 -0.3426  0.5963
  733MOL0     C96680   4.054  11.105   3.877  0.4536  0.4102  0.8966
  733MOL0     C96681   4.066  11.127   3.738 -0.4584  0.5290  0.9534
  733MOL0     O96682   4.173  11.194   3.665  0.2579 -0.0379 -0.7058
  733MOL0     C96683   4.276  11.233   3.754 -0.3113 -0.4302 -0.0064
  733MOL0     C96684   4.394  11.270   3.666  0.1711  0.8118 -0.0845
  733MOL0     C96685   4.453  11.161   3.566 -0.2013 -0.5045  0.1050
  733MOL0     C96686   4.477  11.015   3.624 -1.1350 -0.0216 -0.9622
  733MOL0     C96687   4.519  11.010   3.768 -0.5528  0.0137  0.5360
  733MOL0     C96688   4.561  11.004   3.884  0.1706  0.4670  0.2303
  733MOL0     C96689   3.971  11.073   3.650  0.0493 -0.3522 -0.5802
  733MOL0     C96690   3.862  10.997   3.701  0.4813 -0.2221  0.1692
  733MOL0     H96691   3.439  10.845   3.974 -0.3047 -0.8252  0.1510
  733MOL0     H96692   3.317  10.698   4.107 -0.2623  3.7064 -2.2265
  733MOL0     H96693   3.202  10.581   4.279  0.1914 -1.1881  1.2398
  733MOL0     H96694   3.275  10.714   4.369  0.0267 -0.2324  1.3314
  733MOL0     H96695   3.323  10.538   4.545  0.3861 -0.3107 -0.5268
  733MOL0     H96696   3.207  10.429   4.459  0.5118 -0.6908  0.9667
  733MOL0     H96697   3.163  10.710   4.584 -0.4224 -0.2003  0.1926
  733MOL0     H96698   3.103  10.560   4.645 -2.7959  0.2459 -1.2382
  733MOL0     H96699   3.026  10.693   4.381  1.7991  0.6930  0.7771
  733MOL0     H96700   2.986  10.519   4.427 -0.8538 -0.9998  2.4283
  733MOL0     H96701   2.877  10.770   4.552 -0.2953 -0.5036  1.9765
  733MOL0     H96702   2.856  10.606   4.618 -0.7048  3.4152  2.4221
  733MOL0     H96703   2.743  10.549   4.400 -1.0228 -1.8347  4.0312
  733MOL0     H96704   2.771  10.717   4.350  2.5020  0.1831  1.5924
  733MOL0     H96705   2.634  10.791   4.552 -2.1127 -2.0963  4.0505
  733MOL0     H96706   2.551  10.707   4.421  0.8298  1.5726 -0.5275
  733MOL0     H96707   2.655  10.603   4.681  1.3189  0.8951 -1.3047
  733MOL0     H96708   2.560  10.498   4.564 -0.2013 -0.4139  1.7063
  733MOL0     H96709   2.552  10.697   4.878  1.4135  2.0042 -1.1104
  733MOL0     H96710   2.339  10.853   5.032  1.4062  1.4551 -4.2522
  733MOL0     H96711   2.321  10.674   5.052 -0.4659  1.3197  2.2511
  733MOL0     H96712   2.109  10.693   4.955 -0.6542  0.0124 -0.8654
  733MOL0     H96713   2.117  10.865   4.934 -0.3457 -0.3929 -0.5323
  733MOL0     H96714   2.151  10.688   5.184 -3.0211 -0.5159 -0.2176
  733MOL0     H96715   2.184  10.868   5.207  0.4962 -0.2321  0.5186
  733MOL0     H96716   1.956  10.921   5.196 -1.7231 -0.9955  2.2465
  733MOL0     H96717   1.962  10.770   5.288 -1.0079  2.9307  1.7433
  733MOL0     H96718   1.746  10.810   5.312  0.6938 -1.2852  1.5894
  733MOL0     H96719   1.503  10.796   5.323  3.3967  4.4896 -1.1878
  733MOL0     H96720   1.079  10.908   5.291 -0.4702  0.1251 -1.6160
  733MOL0     H96721   0.847  10.855   5.338  1.8028  0.8039  0.2407
  733MOL0     H96722   0.794  10.455   5.487 -2.6629 -0.3596  3.2002
  733MOL0     H96723   0.700  10.404   5.335  0.4702  1.5289 -1.7083
  733MOL0     H96724   0.609  10.537   5.596  4.1861  0.4900 -0.3931
  733MOL0     H96725   0.570  10.374   5.526 -0.6051  0.4659  2.3077
  733MOL0     H96726   0.448  10.481   5.338  0.3124  0.8755 -0.6566
  733MOL0     H96727   0.450  10.639   5.424  1.8609  0.8571  3.6037
  733MOL0     H96728   0.358  10.364   5.521  1.1150 -0.1932 -0.7948
  733MOL0     H96729   0.357  10.508   5.620 -0.5706  0.1735  0.2407
  733MOL0     H96730   0.138  10.433   5.531  2.5930  0.0076  4.0438
  733MOL0     H96731   0.188  10.475   5.362  3.2890  0.2148 -0.6760
  733MOL0     H96732   0.169  10.702   5.412  1.1492 -1.1202 -0.2514
  733MOL0     H96733   0.212  10.675   5.588  1.6425 -0.8122  0.4876
  733MOL0     H96734  -0.005  10.631   5.636  0.1971  1.5188  0.6042
  733MOL0     H96735  -0.009  10.764   5.537 -1.9926 -0.3260  2.6203
  733MOL0     H96736  -0.204  10.596   5.464 -0.0885  1.1094  3.0995
  733MOL0     H96737  -0.082  10.486   5.420 -1.4250  0.4327  0.8083
  733MOL0     H96738   0.957  10.436   5.311 -2.3831  1.2387  1.0027
  733MOL0     H96739   1.186  10.489   5.300 -0.8363 -1.0586 -3.0107
  733MOL0     H96740   1.492  10.646   4.913 -0.0749  0.3951 -1.0183
  733MOL0     H96741   1.728  10.686   4.902 -0.5113  0.1824 -0.0383
  733MOL0     H96742   3.652  10.601   4.352 -1.8619 -1.2649  0.1192
  733MOL0     H96743   3.796  10.751   4.187  0.2164 -1.9169 -1.2579
  733MOL0     H96744   3.928  11.028   4.034 -1.1095 -2.1170  0.3963
  733MOL0     H96745   4.126  11.149   3.944 -1.4443  3.8050  0.9214
  733MOL0     H96746   4.304  11.148   3.817  0.1421  0.1688  0.6138
  733MOL0     H96747   4.243  11.311   3.822  0.1429 -1.6000  1.6340
  733MOL0     H96748   4.368  11.362   3.612  2.1810  0.8137 -1.1895
  733MOL0     H96749   4.475  11.297   3.734  2.5479  0.7400 -2.6818
  733MOL0     H96750   4.547  11.186   3.516  1.3459 -1.0164  2.5805
  733MOL0     H96751   4.380  11.161   3.484  1.5851  2.2832 -1.6204
  733MOL0     H96752   4.383  10.958   3.624  0.2345 -2.5866  2.2518
  733MOL0     H96753   4.542  10.964   3.553 -0.7576  2.6394 -2.6776
  733MOL0     H96754   4.591  10.982   3.985 -1.4779  0.4943  0.7655
  733MOL0     H96755   3.987  11.087   3.544  0.8011 -0.0091 -0.4301
  733MOL0     H96756   3.792  10.944   3.637  3.2481 -2.4282 -1.2578
  734MOL0     O96757   4.618   6.166   5.899  0.2292  0.1593 -0.1096
  734MOL0     C96758   4.646   6.285   5.912  0.5558  0.3543 -0.0010
  734MOL0     O96759   4.626   6.350   6.026 -0.8881 -0.1746  0.0128
  734MOL0     C96760   4.572   6.294   6.138 -0.1126 -0.0420 -0.4773
  734MOL0     C96761   4.641   6.299   6.256  0.4142 -0.2691 -0.6932
  734MOL0     C96762   4.584   6.247   6.367 -1.1014 -0.2688 -0.6830
  734MOL0     C96763   4.458   6.192   6.373  0.1409 -0.9026  0.7678
  734MOL0     O96764   4.406   6.156   6.492  0.4002  0.3141 -0.1653
  734MOL0     C96765   4.306   6.056   6.492  0.1331 -0.0167 -0.9402
  734MOL0     C96766   4.284   6.008   6.641  0.5822  0.9904 -0.3215
  734MOL0     C96767   4.183   5.886   6.641 -0.6837 -0.9383 -0.0195
  734MOL0     C96768   4.084   5.905   6.752 -0.0762 -0.0594 -0.1099
  734MOL0     C96769   3.958   5.825   6.715 -0.0412  0.7347 -0.2780
  734MOL0     C96770   3.851   5.851   6.832  0.2873  0.3935  0.0418
  734MOL0     C96771   3.710   5.873   6.771 -0.9941 -0.1623 -0.1070
  734MOL0     C96772   3.615   5.759   6.771  0.9352  0.7254 -0.3987
  734MOL0     N96773   3.475   5.813   6.772 -0.7094 -0.3881 -0.4479
  734MOL0     C96774   3.419   5.877   6.661 -0.4064  0.0538  0.2512
  734MOL0     C96775   3.295   5.929   6.705 -0.7926 -0.1129  0.1132
  734MOL0     C96776   3.205   6.025   6.637 -0.6317 -0.6697 -0.1276
  734MOL0     C96777   3.094   5.964   6.556  0.4429 -0.3610  0.5007
  734MOL0     C96778   3.000   6.082   6.521  0.2291  0.4228  0.0214
  734MOL0     C96779   3.017   6.115   6.375 -0.2673 -0.3727 -0.0220
  734MOL0     O96780   2.934   6.231   6.324 -0.0843  0.0968 -0.1105
  734MOL0     C96781   2.803   6.228   6.346  0.5164  0.0551 -0.3977
  734MOL0     C96782   2.743   6.353   6.349 -0.8151 -0.5049 -0.2141
  734MOL0     C96783   2.599   6.365   6.361  0.0313 -0.0781  0.9481
  734MOL0     C96784   2.516   6.253   6.378  0.1939  0.8313 -0.2769
  734MOL0     C96785   2.366   6.262   6.382 -0.6202  0.0244  0.2479
  734MOL0     O96786   2.296   6.153   6.423 -1.2989  0.3611 -0.4161
  734MOL0     C96787   2.166   6.145   6.445 -0.2160  0.1483 -0.1160
  734MOL0     C96788   2.107   6.059   6.541  0.0989  1.1738 -0.1883
  734MOL0     C96789   1.966   6.036   6.535  0.1836  0.0556  0.1123
  734MOL0     C96790   1.881   6.121   6.453  0.1364  0.4546  0.1613
  734MOL0     O96791   1.740   6.103   6.455 -1.1719 -0.1531 -0.2174
  734MOL0     C96792   1.685   6.130   6.580  0.0154 -0.3029  0.3436
  734MOL0     C96793   1.536   6.156   6.574  0.5156 -0.5815  0.4438
  734MOL0     C96794   1.468   6.013   6.564  1.1015  0.1670  0.5821
  734MOL0     C96795   1.307   6.039   6.560 -0.9575  0.4440 -0.1797
  734MOL0     C96796   1.201   5.923   6.543 -0.0983 -0.1332  0.6686
  734MOL0     C96797   1.054   5.974   6.539 -0.2216  0.2778  0.2831
  734MOL0     C96798   0.967   5.848   6.558 -0.0398  1.0104 -0.1389
  734MOL0     C96799   0.830   5.864   6.494  0.4583  0.0362  0.1163
  734MOL0    Cl96800   0.779   5.683   6.488  0.2182 -0.4043 -0.5080
  734MOL0     C96801   1.940   6.210   6.367 -0.3082 -0.1465 -0.1050
  734MOL0     C96802   2.078   6.216   6.361  0.7269  0.1141  0.3306
  734MOL0     O96803   2.318   6.371   6.355 -0.4563  0.2529 -0.2270
  734MOL0     C96804   2.579   6.125   6.391  0.3563 -0.3039 -0.2391
  734MOL0     C96805   2.717   6.111   6.378  0.5611 -0.8749 -0.6590
  734MOL0     N96806   3.287   5.904   6.838 -0.2356  0.3894  0.2066
  734MOL0     N96807   3.395   5.833   6.873 -0.2938 -0.8382 -0.2218
  734MOL0     C96808   4.387   6.197   6.257 -0.3493 -0.7374  0.0992
  734MOL0     C96809   4.446   6.241   6.140 -0.3641 -0.8300  1.0029
  734MOL0     C96810   4.703   6.349   5.791  0.2629  0.0592  0.6785
  734MOL0     C96811   4.732   6.275   5.674  0.0965 -0.2664 -0.3233
  734MOL0     C96812   4.799   6.335   5.570  0.2199  0.0855  1.2053
  734MOL0     C96813   4.841   6.472   5.566 -0.5988  0.4952  0.0278
  734MOL0     O96814   4.905   6.529   5.460  1.2553 -0.8212  0.3006
  734MOL0     C96815   4.990   6.448   5.380  0.0512  0.5683 -0.3224
  734MOL0     C96816   5.120   6.511   5.330 -0.7229  0.7167 -0.6671
  734MOL0     C96817   5.226   6.505   5.437 -0.2119 -0.1530  1.0884
  734MOL0     C96818   5.361   6.557   5.395  0.3716 -0.6901  0.0655
  734MOL0     C96819   5.348   6.690   5.328 -0.5227 -0.2019  0.0929
  734MOL0     C96820   5.329   6.796   5.266  0.5933  0.9361  0.6055
  734MOL0     C96821   4.817   6.539   5.684  0.2658  0.3221 -0.7966
  734MOL0     C96822   4.736   6.490   5.789 -0.4082  0.4545  0.0675
  734MOL0     H96823   4.739   6.345   6.259 -0.7272  2.2586  1.1332
  734MOL0     H96824   4.649   6.262   6.452  0.3898  0.4310 -1.8983
  734MOL0     H96825   4.326   5.967   6.432 -3.2337 -2.1994  0.8322
  734MOL0     H96826   4.209   6.095   6.459  1.2573  1.4915 -2.7128
  734MOL0     H96827   4.253   6.098   6.695  1.7263  0.9743  0.3970
  734MOL0     H96828   4.383   5.979   6.678  0.5497  0.9150 -0.2934
  734MOL0     H96829   4.232   5.795   6.675 -0.5363  0.8172  5.4218
  734MOL0     H96830   4.128   5.879   6.547 -3.2309  3.3205  0.8663
  734MOL0     H96831   4.135   5.884   6.847  2.0721 -1.2245 -1.4588
  734MOL0     H96832   4.048   6.007   6.762 -0.1229 -0.2666  2.6799
  734MOL0     H96833   3.977   5.717   6.709 -0.2323  0.5761  1.4128
  734MOL0     H96834   3.922   5.849   6.614 -1.4733 -3.3952 -0.9432
  734MOL0     H96835   3.886   5.937   6.891 -0.0859  1.3330 -1.0816
  734MOL0     H96836   3.874   5.765   6.897  2.9035  0.2870 -0.8897
  734MOL0     H96837   3.667   5.954   6.830  1.6015  1.5127 -0.3693
  734MOL0     H96838   3.721   5.916   6.670 -1.6988 -0.6552 -0.3997
  734MOL0     H96839   3.625   5.710   6.868 -0.9692 -0.6702 -0.8526
  734MOL0     H96840   3.645   5.690   6.691 -0.3664 -0.8756  0.4376
  734MOL0     H96841   3.461   5.884   6.562 -0.6456  0.9680  0.2040
  734MOL0     H96842   3.272   6.090   6.580 -0.4239  0.3573  1.2499
  734MOL0     H96843   3.164   6.095   6.710  0.3055 -0.2041 -0.0359
  734MOL0     H96844   3.040   5.888   6.613 -1.3371  0.6342  0.2188
  734MOL0     H96845   3.139   5.909   6.473  2.6733  0.1275  1.3039
  734MOL0     H96846   2.894   6.061   6.538  0.3822 -1.1584 -0.7627
  734MOL0     H96847   3.025   6.165   6.586  0.1783 -0.3368  1.0297
  734MOL0     H96848   2.997   6.026   6.316 -1.4319  0.8458 -1.5786
  734MOL0     H96849   3.122   6.142   6.364 -0.8330  2.7372  1.0822
  734MOL0     H96850   2.810   6.431   6.315  4.0647 -4.3959 -0.8246
  734MOL0     H96851   2.544   6.459   6.357 -1.6577 -1.0853 -1.2809
  734MOL0     H96852   2.159   5.998   6.614  0.2392 -1.5841 -2.4277
  734MOL0     H96853   1.916   5.961   6.594 -1.2794 -0.1376 -1.3096
  734MOL0     H96854   1.724   6.225   6.620  0.4905 -0.3176 -0.0730
  734MOL0     H96855   1.699   6.055   6.658  0.2744  0.6189  1.2117
  734MOL0     H96856   1.505   6.209   6.483 -0.4096 -4.9626 -2.0866
  734MOL0     H96857   1.499   6.215   6.658  0.6284 -1.2500  0.9776
  734MOL0     H96858   1.501   5.943   6.642 -2.1527 -1.9096  0.3030
  734MOL0     H96859   1.495   5.964   6.470 -0.1840  0.0156  0.2775
  734MOL0     H96860   1.276   6.089   6.653 -0.9791  1.4821 -0.7343
  734MOL0     H96861   1.286   6.109   6.479  1.3048  2.5255  0.9216
  734MOL0     H96862   1.202   5.848   6.622 -6.4811 -3.5065 -1.7113
  734MOL0     H96863   1.236   5.866   6.457  0.7338  1.9417 -0.4475
  734MOL0     H96864   1.041   6.038   6.450  0.2242  0.2291  0.1824
  734MOL0     H96865   1.027   6.029   6.630 -2.4212 -4.3641  2.7668
  734MOL0     H96866   1.016   5.765   6.506  0.4706  1.0633  0.2412
  734MOL0     H96867   0.956   5.814   6.662  0.8439  1.3564  0.0816
  734MOL0     H96868   0.831   5.909   6.394  0.6305  3.6906  1.5973
  734MOL0     H96869   0.771   5.932   6.556  3.5811 -0.0361  3.4781
  734MOL0     H96870   1.884   6.261   6.290  0.7203  0.6278 -0.3513
  734MOL0     H96871   2.116   6.270   6.274  1.5094  0.6505  0.9840
  734MOL0     H96872   2.516   6.037   6.402  0.1263 -0.3422 -1.6155
  734MOL0     H96873   2.751   6.008   6.377 -2.3686 -1.9269 -1.2161
  734MOL0     H96874   4.288   6.151   6.264  0.0269 -1.5558  0.2151
  734MOL0     H96875   4.392   6.253   6.046  0.5192  0.5812  0.6368
  734MOL0     H96876   4.708   6.170   5.657 -2.6980  0.6995 -3.4029
  734MOL0     H96877   4.813   6.282   5.476 -0.5052  0.5486  0.8345
  734MOL0     H96878   4.935   6.429   5.287 -0.7626 -2.7974  0.7000
  734MOL0     H96879   5.012   6.356   5.435 -1.9088 -0.5205 -1.2656
  734MOL0     H96880   5.149   6.453   5.243 -0.7851 -0.1985 -0.0926
  734MOL0     H96881   5.102   6.611   5.290  1.0673  1.3446  0.0232
  734MOL0     H96882   5.241   6.398   5.452  2.7751  0.3473  2.3334
  734MOL0     H96883   5.190   6.555   5.527  0.8295  0.7700  1.0283
  734MOL0     H96884   5.422   6.571   5.485  1.0794 -0.8958 -0.3703
  734MOL0     H96885   5.408   6.481   5.332  1.1951 -0.6848  0.6493
  734MOL0     H96886   5.320   6.884   5.206  0.3331  1.6310  1.6456
  734MOL0     H96887   4.853   6.640   5.699  0.2065 -0.1093  3.4481
  734MOL0     H96888   4.718   6.545   5.881 -3.5246 -1.2856  0.6385
  735MOL0     O96889   7.147   0.974  10.649 -0.1548 -0.1293  0.1992
  735MOL0     C96890   7.046   0.950  10.715  0.0728 -0.3587 -0.1592
  735MOL0     O96891   7.006   1.018  10.824 -0.2504 -0.7665  0.7070
  735MOL0     C96892   7.077   1.137  10.853  0.3490 -0.1320 -1.0460
  735MOL0     C96893   7.019   1.257  10.803 -0.3878 -1.1356 -0.2872
  735MOL0     C96894   7.071   1.381  10.839 -0.9441  0.4556  0.5810
  735MOL0     C96895   7.170   1.391  10.928  0.3615  0.3664  0.6248
  735MOL0     O96896   7.205   1.520  10.956  0.0433 -0.1061  0.6097
  735MOL0     C96897   7.319   1.542  11.040 -1.3294 -0.0487  0.8154
  735MOL0     C96898   7.358   1.695  11.053 -0.5721 -0.1408  0.2998
  735MOL0     C96899   7.466   1.704  11.171  0.2156  0.1864 -0.0177
  735MOL0     C96900   7.501   1.845  11.216 -0.3250  0.0740 -0.0295
  735MOL0     C96901   7.609   1.849  11.324  0.1082 -0.4851  0.2299
  735MOL0     C96902   7.676   1.984  11.320 -0.7948 -0.0401  0.2473
  735MOL0     C96903   7.787   1.963  11.416 -0.6408  0.3529  0.2286
  735MOL0     C96904   7.898   2.072  11.404 -0.7332 -0.0031 -0.4426
  735MOL0     N96905   8.005   2.055  11.495 -0.3846 -0.3525  0.0749
  735MOL0     C96906   7.999   2.067  11.627  0.1573 -0.4097 -0.0841
  735MOL0     C96907   8.120   2.031  11.677  0.5015  0.9062  0.6160
  735MOL0     C96908   8.150   2.015  11.818  0.1524 -0.1521  0.0728
  735MOL0     C96909   8.031   2.014  11.910  0.2166 -0.5729 -0.1568
  735MOL0     C96910   7.941   1.895  11.903 -0.2953  0.3054  0.4676
  735MOL0     C96911   7.857   1.884  12.031 -0.7247 -0.8765  0.5948
  735MOL0     O96912   7.726   1.840  12.000 -0.5323 -0.2499 -0.2922
  735MOL0     C96913   7.699   1.706  11.987  0.0838  0.2352 -0.7843
  735MOL0     C96914   7.571   1.672  11.966 -0.2346  0.5478  0.1465
  735MOL0     C96915   7.524   1.544  11.934 -0.4567 -0.1383 -0.1570
  735MOL0     C96916   7.609   1.434  11.930  0.4456  0.2910 -0.3067
  735MOL0     C96917   7.558   1.295  11.901 -1.3961 -0.3153  0.7546
  735MOL0     O96918   7.426   1.282  11.896  0.0663 -0.4092 -0.1021
  735MOL0     C96919   7.377   1.169  11.863 -0.4048  0.0569  0.6280
  735MOL0     C96920   7.379   1.048  11.940 -1.0109 -0.0907  0.3312
  735MOL0     C96921   7.291   0.940  11.909  0.1922 -0.2935  0.4642
  735MOL0     C96922   7.197   0.947  11.796  0.2636  0.0941 -0.3122
  735MOL0     O96923   7.104   0.848  11.765 -0.4053  0.2210 -0.4302
  735MOL0     C96924   7.064   0.743  11.862 -0.2028  0.8299 -0.1890
  735MOL0     C96925   6.966   0.644  11.791  0.6789 -0.0018 -0.0619
  735MOL0     C96926   6.843   0.608  11.886 -0.0092 -0.1983 -0.4474
  735MOL0     C96927   6.742   0.515  11.827 -0.9868  0.5860 -1.1259
  735MOL0     C96928   6.618   0.473  11.920 -0.2233  0.1870  0.0474
  735MOL0     C96929   6.513   0.577  11.941 -0.6279 -0.4146  1.0767
  735MOL0     C96930   6.440   0.621  11.817 -0.3158  0.4318 -0.0880
  735MOL0     C96931   6.298   0.668  11.860  0.0626  0.7125  0.5132
  735MOL0    Cl96932   6.200   0.734  11.724 -0.4678  0.1977 -0.2524
  735MOL0     C96933   7.203   1.064  11.725 -0.7932 -0.5293  0.7746
  735MOL0     C96934   7.289   1.168  11.750 -0.3935 -0.6171 -1.3509
  735MOL0     O96935   7.638   1.209  11.865 -0.4299 -0.2500  0.1480
  735MOL0     C96936   7.744   1.468  11.955 -0.0063 -0.0830 -0.5634
  735MOL0     C96937   7.787   1.601  11.987 -0.1138 -0.3735  0.9141
  735MOL0     N96938   8.208   2.015  11.568 -0.2301  0.1845  0.3256
  735MOL0     N96939   8.137   2.030  11.463 -0.0964 -0.3669  0.2725
  735MOL0     C96940   7.216   1.272  10.989 -0.4199  0.6893  0.4516
  735MOL0     C96941   7.177   1.144  10.942  0.1987 -0.0260  0.1132
  735MOL0     C96942   6.983   0.821  10.686  0.4862 -0.9679 -0.7240
  735MOL0     C96943   7.027   0.731  10.592 -0.6718  0.0625  1.0858
  735MOL0     C96944   6.952   0.615  10.555 -0.0256 -0.3552 -0.3549
  735MOL0     C96945   6.845   0.582  10.632  0.4150  0.7870  0.7114
  735MOL0     O96946   6.778   0.466  10.609  0.2050 -0.5753  0.1656
  735MOL0     C96947   6.637   0.483  10.585  0.1185 -0.2981 -0.4461
  735MOL0     C96948   6.590   0.384  10.486 -0.1733  0.9139  0.2267
  735MOL0     C96949   6.572   0.242  10.534 -0.3852  0.2238 -0.3379
  735MOL0     C96950   6.559   0.142  10.418 -0.9534  1.1485 -0.3134
  735MOL0     C96951   6.423   0.123  10.374  0.2845  1.0649 -0.1607
  735MOL0     C96952   6.301   0.119  10.340 -0.1612  0.8596  0.0996
  735MOL0     C96953   6.802   0.675  10.726  0.6745  0.2524 -0.5355
  735MOL0     C96954   6.869   0.793  10.760 -0.3790  0.2203 -0.0374
  735MOL0     H96955   6.940   1.246  10.729 -2.7505  1.3696  1.6669
  735MOL0     H96956   7.051   1.467  10.775 -0.3877 -1.6342 -2.6611
  735MOL0     H96957   7.411   1.490  11.012 -0.4057  1.2282  1.4342
  735MOL0     H96958   7.293   1.505  11.140 -2.2203 -0.3759  0.4825
  735MOL0     H96959   7.274   1.755  11.089  1.8854  1.9683  2.8805
  735MOL0     H96960   7.393   1.741  10.960 -0.1744  1.9980  1.4429
  735MOL0     H96961   7.553   1.648  11.136 -0.4436 -0.2773 -0.9717
  735MOL0     H96962   7.422   1.646  11.253 -0.2965 -1.8700 -1.6650
  735MOL0     H96963   7.529   1.905  11.129  0.0417  0.3023  0.2401
  735MOL0     H96964   7.413   1.886  11.267 -0.0141 -1.0135  1.4312
  735MOL0     H96965   7.684   1.770  11.314  1.2777  0.4303  1.4961
  735MOL0     H96966   7.559   1.821  11.417  0.8117 -3.3718 -0.1746
  735MOL0     H96967   7.611   2.066  11.351  1.8214  2.1530  0.2803
  735MOL0     H96968   7.720   2.011  11.223  1.7121  3.1570  2.0893
  735MOL0     H96969   7.747   1.968  11.518  0.3410 -1.1703  0.7251
  735MOL0     H96970   7.837   1.868  11.397  0.5718  0.7176  1.3948
  735MOL0     H96971   7.851   2.168  11.426  1.8608  1.6475 -1.5326
  735MOL0     H96972   7.940   2.091  11.304 -0.1938 -0.0371 -0.2252
  735MOL0     H96973   7.912   2.091  11.688  1.5692  2.1834  1.0696
  735MOL0     H96974   8.203   2.108  11.843  1.3138 -0.7120 -0.2640
  735MOL0     H96975   8.213   1.926  11.827  0.9137  0.4109  0.4520
  735MOL0     H96976   7.976   2.108  11.910  3.3201  1.3655  0.1433
  735MOL0     H96977   8.077   2.023  12.009  2.5860  1.7626 -1.3672
  735MOL0     H96978   7.881   1.893  11.812 -1.3361  0.5488  1.1336
  735MOL0     H96979   8.005   1.806  11.897  1.6854  1.4981  2.3989
  735MOL0     H96980   7.836   1.982  12.075  3.0133 -0.3949  1.6726
  735MOL0     H96981   7.906   1.834  12.115  0.4050  1.4002  1.3801
  735MOL0     H96982   7.494   1.747  11.952 -0.8518 -0.0152  0.4368
  735MOL0     H96983   7.420   1.532  11.904 -1.3650  0.5305  2.4626
  735MOL0     H96984   7.451   1.050  12.021 -1.5859  0.8961  0.8349
  735MOL0     H96985   7.305   0.843  11.955 -2.4011 -1.5394 -1.1881
  735MOL0     H96986   7.010   0.794  11.942 -1.4562  1.6464 -1.4918
  735MOL0     H96987   7.147   0.685  11.903 -1.3455  2.1946  4.6348
  735MOL0     H96988   7.023   0.559  11.751  2.0884  1.3127 -0.9230
  735MOL0     H96989   6.920   0.691  11.704 -2.3986 -2.5194 -0.0013
  735MOL0     H96990   6.794   0.700  11.919  0.2566 -0.0985 -0.3281
  735MOL0     H96991   6.875   0.570  11.983  1.1297  0.1063 -0.6907
  735MOL0     H96992   6.701   0.559  11.736 -1.1259  7.3138  1.6282
  735MOL0     H96993   6.793   0.423  11.796 -2.3199 -1.1757  1.5551
  735MOL0     H96994   6.663   0.464  12.019 -1.1822 -1.9776  0.3415
  735MOL0     H96995   6.574   0.374  11.899  2.0729 -0.9615  0.3095
  735MOL0     H96996   6.553   0.673  11.976  0.5633  0.0172 -1.3104
  735MOL0     H96997   6.436   0.543  12.011 -2.3135  2.3929  0.7497
  735MOL0     H96998   6.494   0.699  11.763  1.6384 -1.7620 -1.4826
  735MOL0     H96999   6.426   0.533  11.754  0.4797 -0.3737  0.8390
  735MOL0     H97000   6.313   0.762  11.915  2.6581  0.0739  0.9987
  735MOL0     H97001   6.257   0.586  11.920 -0.1723 -1.0712 -1.9080
  735MOL0     H97002   7.132   1.081  11.645 -0.2351 -0.1481  0.3467
  735MOL0     H97003   7.285   1.251  11.681 -1.0841  0.9162  0.4419
  735MOL0     H97004   7.830   1.402  11.944  0.4746  0.0115  1.9984
  735MOL0     H97005   7.893   1.610  12.005  0.1220 -1.3701  0.1086
  735MOL0     H97006   7.297   1.262  11.061  1.2012 -1.9112 -1.5505
  735MOL0     H97007   7.229   1.054  10.975 -0.8448  0.0873  2.1819
  735MOL0     H97008   7.116   0.758  10.537 -2.2789  2.8639 -0.3909
  735MOL0     H97009   6.985   0.558  10.468  0.4980 -2.7309  1.3100
  735MOL0     H97010   6.614   0.582  10.546 -0.1123  0.1183  0.6998
  735MOL0     H97011   6.580   0.471  10.678  0.7674  0.7507  0.1097
  735MOL0     H97012   6.501   0.422  10.435  1.7592  4.1509 -1.0592
  735MOL0     H97013   6.665   0.370  10.407  0.1041 -2.2380  0.9145
  735MOL0     H97014   6.480   0.249  10.593  0.7289  0.8710  1.3803
  735MOL0     H97015   6.645   0.210  10.608  0.0245  0.6536 -0.5507
  735MOL0     H97016   6.617   0.175  10.331  0.1191  0.0020 -0.0719
  735MOL0     H97017   6.592   0.043  10.451 -2.3483  1.4731  2.3259
  735MOL0     H97018   6.200   0.114  10.305 -0.4755  0.5529  1.0217
  735MOL0     H97019   6.710   0.665  10.784  0.2976  1.5900 -0.8710
  735MOL0     H97020   6.831   0.846  10.847 -1.3088 -0.9562  0.3012
  736MOL0     O97021   6.944   8.890   3.725 -0.3158 -0.6400  0.3910
  736MOL0     C97022   6.997   8.775   3.729 -0.4471 -0.3665  0.0628
  736MOL0     O97023   7.124   8.743   3.711  0.5265  0.4828 -0.1938
  736MOL0     C97024   7.228   8.827   3.752 -0.1314  0.2199 -0.0136
  736MOL0     C97025   7.359   8.779   3.728  0.4744  0.1552 -0.4863
  736MOL0     C97026   7.475   8.855   3.764 -0.0936 -0.0846 -0.0847
  736MOL0     C97027   7.454   8.986   3.810  1.3501 -0.5808  0.4681
  736MOL0     O97028   7.560   9.075   3.845 -0.7839 -0.2081  0.1387
  736MOL0     C97029   7.696   9.026   3.824  0.4656 -0.1095  0.9116
  736MOL0     C97030   7.788   9.150   3.857  0.1585  0.0625  0.7447
  736MOL0     C97031   7.938   9.106   3.863 -0.0908 -0.0360 -0.0354
  736MOL0     C97032   8.025   9.229   3.860 -0.1164 -0.1467  0.7017
  736MOL0     C97033   8.175   9.198   3.886  0.5525  0.4881 -0.0668
  736MOL0     C97034   8.250   9.324   3.932  0.4589  0.6380  0.2071
  736MOL0     C97035   8.390   9.283   3.985  0.6403  0.3818  0.9600
  736MOL0     C97036   8.494   9.274   3.874  0.2283 -0.6919 -0.3468
  736MOL0     N97037   8.621   9.225   3.933 -0.0597 -0.0044 -0.4572
  736MOL0     C97038   8.750   9.232   3.885  0.5414 -0.4841 -0.4211
  736MOL0     C97039   8.820   9.145   3.965  0.9161  0.9626  0.3213
  736MOL0     C97040   8.972   9.124   3.965 -0.0204 -0.4603 -0.9344
  736MOL0     C97041   9.022   9.112   3.822 -0.9367  0.0233  0.1257
  736MOL0     C97042   9.157   9.039   3.805  0.5816  0.4350 -0.7614
  736MOL0     C97043   9.268   9.105   3.882 -0.6302  0.0877 -0.0430
  736MOL0     O97044   9.397   9.067   3.820  0.0306  0.1240  0.2989
  736MOL0     C97045   9.514   9.119   3.881  0.6134  0.9735 -0.3077
  736MOL0     C97046   9.633   9.057   3.836  0.5864 -0.5498  0.3413
  736MOL0     C97047   9.755   9.106   3.884  0.3587 -0.6082  0.7231
  736MOL0     C97048   9.761   9.215   3.970 -0.0953  1.5925 -0.2964
  736MOL0     C97049   9.893   9.256   4.017  0.1624 -0.0592 -0.4162
  736MOL0     O97050   9.996   9.175   3.985  0.1159  0.4509 -0.4890
  736MOL0     C97051  10.122   9.217   4.013 -0.6434 -0.1401  0.3423
  736MOL0     C97052  10.224   9.189   3.914  0.2387  0.1307 -0.3405
  736MOL0     C97053  10.360   9.230   3.932  0.0982  0.2859 -0.4956
  736MOL0     C97054  10.393   9.288   4.053  0.2906 -0.2412  0.6046
  736MOL0     O97055  10.516   9.343   4.088  0.4631 -0.2766 -0.2964
  736MOL0     C97056  10.635   9.331   4.016  0.2943  0.1742 -0.7230
  736MOL0     C97057  10.715   9.456   4.043  0.7656  0.0120  0.1365
  736MOL0     C97058  10.870   9.443   4.003 -0.5251  0.0774 -0.1389
  736MOL0     C97059  10.940   9.572   4.004  0.1952 -0.6457 -0.6509
  736MOL0     C97060  11.083   9.561   3.938 -0.0660 -0.1718 -0.5696
  736MOL0     C97061  11.200   9.527   4.040 -0.5439  0.0897  0.5515
  736MOL0     C97062  11.330   9.540   3.964 -0.7412  0.4446  0.3636
  736MOL0     C97063  11.383   9.396   3.913  0.2363  0.5050 -0.1037
  736MOL0    Cl97064  11.427   9.312   4.069 -0.1270 -0.1832  0.0782
  736MOL0     C97065  10.302   9.308   4.156  0.9840  0.0521  0.6568
  736MOL0     C97066  10.162   9.272   4.133 -0.2984  0.4439 -0.4873
  736MOL0     O97067   9.905   9.362   4.084  0.2225 -0.1679  0.6970
  736MOL0     C97068   9.645   9.259   4.028  0.2050 -0.5178  0.2097
  736MOL0     C97069   9.522   9.215   3.978 -0.0613  0.3858 -0.4022
  736MOL0     N97070   8.736   9.088   4.059  1.1477 -0.1014 -0.3855
  736MOL0     N97071   8.618   9.136   4.037 -0.4835  0.1892  0.6144
  736MOL0     C97072   7.327   9.034   3.832 -0.2593  0.0816 -0.2204
  736MOL0     C97073   7.214   8.950   3.813 -0.7554 -0.1269  0.2983
  736MOL0     C97074   6.907   8.667   3.765  0.3632 -0.4221  0.0679
  736MOL0     C97075   6.937   8.535   3.730 -0.5336  0.4848  0.7428
  736MOL0     C97076   6.839   8.438   3.755  0.7825 -0.0577  0.4586
  736MOL0     C97077   6.716   8.479   3.812 -0.1579 -0.0370  0.5270
  736MOL0     O97078   6.628   8.378   3.839  0.4041  0.4102  0.4179
  736MOL0     C97079   6.482   8.386   3.795  0.1222  0.0875 -0.9744
  736MOL0     C97080   6.385   8.431   3.907  0.6101  0.3997 -0.8660
  736MOL0     C97081   6.253   8.495   3.856 -0.1144  0.2655 -0.2991
  736MOL0     C97082   6.279   8.641   3.802 -0.3178 -0.0919 -0.5870
  736MOL0     C97083   6.330   8.727   3.907  0.0326  0.2901  0.3849
  736MOL0     C97084   6.351   8.800   4.002  0.2060 -0.5764 -0.0164
  736MOL0     C97085   6.690   8.610   3.844  0.6461 -0.2416 -0.0853
  736MOL0     C97086   6.786   8.705   3.832  0.0350  0.2334  0.9395
  736MOL0     H97087   7.365   8.685   3.675 -2.8771 -0.2290 -0.4051
  736MOL0     H97088   7.573   8.809   3.752  0.9676  1.4385  2.0157
  736MOL0     H97089   7.714   8.995   3.720 -2.4618  0.0873  0.2624
  736MOL0     H97090   7.725   8.942   3.888  3.3812 -0.0655 -0.2135
  736MOL0     H97091   7.756   9.189   3.954 -0.9416 -1.6697  1.1168
  736MOL0     H97092   7.761   9.222   3.780 -1.7184  0.3463  1.6249
  736MOL0     H97093   7.960   9.063   3.764  0.3282 -1.0840  0.4958
  736MOL0     H97094   7.966   9.035   3.941 -0.1461 -0.5635 -0.4835
  736MOL0     H97095   8.002   9.295   3.775  1.5559  0.6458  0.8389
  736MOL0     H97096   7.991   9.280   3.950 -0.3429 -0.7970  0.9877
  736MOL0     H97097   8.222   9.150   3.800  0.9958 -1.7108  1.3308
  736MOL0     H97098   8.181   9.116   3.958 -0.2187  0.7751  0.3419
  736MOL0     H97099   8.188   9.369   4.009 -1.4931 -1.1758 -0.2178
  736MOL0     H97100   8.262   9.396   3.851 -0.3821 -1.5057 -1.9306
  736MOL0     H97101   8.421   9.362   4.053 -2.8419  2.3566  0.5054
  736MOL0     H97102   8.389   9.186   4.037  1.0799 -0.6019 -0.7991
  736MOL0     H97103   8.502   9.370   3.822 -1.3239 -0.0018  0.6364
  736MOL0     H97104   8.456   9.208   3.795 -1.5646  0.2625 -0.3366
  736MOL0     H97105   8.788   9.298   3.807 -0.2174 -0.5193 -0.8330
  736MOL0     H97106   8.993   9.029   4.016 -0.3662 -2.2282 -3.8352
  736MOL0     H97107   9.020   9.212   4.008  0.8233 -1.1744 -0.3759
  736MOL0     H97108   9.047   9.216   3.797  3.5218 -0.5930  1.2981
  736MOL0     H97109   8.955   9.069   3.747  0.1697  1.0601 -1.5421
  736MOL0     H97110   9.145   8.931   3.810 -1.0520  0.5222 -2.0299
  736MOL0     H97111   9.182   9.052   3.699 -0.2683  0.1765 -0.9971
  736MOL0     H97112   9.263   9.069   3.984 -1.1150 -0.3176 -0.2069
  736MOL0     H97113   9.256   9.214   3.880  1.6885  0.6162  4.3153
  736MOL0     H97114   9.654   8.976   3.767  0.8623 -0.3150  0.1450
  736MOL0     H97115   9.849   9.066   3.847  0.0016 -0.2423 -0.6469
  736MOL0     H97116  10.194   9.159   3.814 -0.2031  2.2034 -0.8817
  736MOL0     H97117  10.424   9.249   3.846  1.2421 -0.2539  0.2165
  736MOL0     H97118  10.618   9.336   3.908  0.1633  1.6911 -0.6643
  736MOL0     H97119  10.684   9.237   4.042 -0.0590 -1.2055 -4.4562
  736MOL0     H97120  10.702   9.494   4.144 -1.7826  1.2051 -0.5566
  736MOL0     H97121  10.668   9.536   3.985  0.8527 -0.7997 -1.0933
  736MOL0     H97122  10.874   9.416   3.897 -2.1244  0.9088 -0.4322
  736MOL0     H97123  10.917   9.373   4.073 -1.0856  2.1338  2.4552
  736MOL0     H97124  10.877   9.643   3.950 -2.0026 -0.9222  1.3552
  736MOL0     H97125  10.949   9.607   4.107 -4.6794 -3.9717  1.2987
  736MOL0     H97126  11.079   9.655   3.882 -0.9942 -1.4448 -2.7786
  736MOL0     H97127  11.068   9.486   3.860 -1.0019  1.7794 -2.3864
  736MOL0     H97128  11.177   9.422   4.062  0.5489 -0.3094 -0.1089
  736MOL0     H97129  11.204   9.576   4.137 -2.3312 -2.8432  2.2863
  736MOL0     H97130  11.313   9.596   3.871 -0.3165  0.7322  0.4587
  736MOL0     H97131  11.414   9.585   4.017  1.6914 -1.4826 -1.5971
  736MOL0     H97132  11.463   9.403   3.839  0.9712  0.8562  0.7064
  736MOL0     H97133  11.307   9.340   3.857 -0.3054  0.4389  0.6725
  736MOL0     H97134  10.341   9.355   4.245 -4.1079  4.4855  1.0752
  736MOL0     H97135  10.093   9.283   4.216 -1.6492 -0.3126 -1.4758
  736MOL0     H97136   9.651   9.337   4.103 -0.0573 -0.2591 -0.0331
  736MOL0     H97137   9.431   9.268   4.004 -1.1723 -0.4252 -2.4370
  736MOL0     H97138   7.314   9.134   3.874  0.1019  0.4205 -0.8982
  736MOL0     H97139   7.117   8.992   3.837 -0.0795  0.0439  3.0520
  736MOL0     H97140   7.033   8.504   3.689  0.3473  4.2143 -0.4181
  736MOL0     H97141   6.848   8.331   3.740 -1.1733 -0.2694  0.5789
  736MOL0     H97142   6.441   8.287   3.774  0.8134 -0.6388  0.8722
  736MOL0     H97143   6.476   8.458   3.713  3.0927  2.8005  0.9306
  736MOL0     H97144   6.360   8.339   3.959 -3.7045  0.4595 -2.4189
  736MOL0     H97145   6.427   8.500   3.981 -2.2971  2.7982 -1.2426
  736MOL0     H97146   6.181   8.501   3.938 -0.7424 -0.4132 -0.7886
  736MOL0     H97147   6.214   8.438   3.770 -0.8508  2.7835 -1.7429
  736MOL0     H97148   6.348   8.652   3.718  0.3654  1.3593  0.1273
  736MOL0     H97149   6.185   8.687   3.768  0.3241  0.6244 -1.4396
  736MOL0     H97150   6.352   8.872   4.081 -1.2383  0.6223 -1.0168
  736MOL0     H97151   6.605   8.639   3.905 -2.1409 -2.3818 -2.6397
  736MOL0     H97152   6.773   8.808   3.863  1.9165  0.1624  2.1130
  737MOL0     O97153   1.621   2.556   6.714 -0.2139 -0.0855 -0.2251
  737MOL0     C97154   1.683   2.451   6.705  0.1163 -0.0476 -0.4207
  737MOL0     O97155   1.652   2.328   6.744  0.4541 -0.4627 -0.6455
  737MOL0     C97156   1.532   2.275   6.761  0.3024 -0.4422 -0.0461
  737MOL0     C97157   1.505   2.164   6.841  0.4401  0.0789 -0.3260
  737MOL0     C97158   1.376   2.104   6.856 -0.0493 -0.5609  0.0581
  737MOL0     C97159   1.263   2.163   6.795 -0.5795  0.4228 -0.0254
  737MOL0     O97160   1.139   2.109   6.818  0.6053 -0.2534 -0.1802
  737MOL0     C97161   1.043   2.107   6.714  0.3470 -0.2588  0.0173
  737MOL0     C97162   0.972   1.973   6.726 -0.1047  1.6518  0.4799
  737MOL0     C97163   0.881   1.956   6.606 -1.1225 -0.4282  0.2982
  737MOL0     C97164   0.785   1.838   6.624 -0.8198  0.4313 -0.3140
  737MOL0     C97165   0.651   1.850   6.541  0.1518 -0.9368  0.4763
  737MOL0     C97166   0.574   1.722   6.517  1.0313 -0.5210 -0.0843
  737MOL0     C97167   0.506   1.674   6.646 -0.3090 -0.4591 -0.8392
  737MOL0     C97168   0.389   1.755   6.694  0.7111 -1.0999  0.3634
  737MOL0     N97169   0.295   1.774   6.580  0.0661 -0.9148 -0.3109
  737MOL0     C97170   0.223   1.671   6.535  0.3089  0.1543  1.0376
  737MOL0     C97171   0.142   1.732   6.436 -0.7226 -0.1797 -0.4765
  737MOL0     C97172   0.049   1.653   6.345 -0.3545  0.4679  0.2768
  737MOL0     C97173  -0.062   1.587   6.415 -0.6040  0.0857 -0.1233
  737MOL0     C97174  -0.171   1.683   6.467  0.0754  0.3292  0.0699
  737MOL0     C97175  -0.302   1.610   6.477 -0.1293  0.7235  0.3860
  737MOL0     O97176  -0.339   1.552   6.349 -0.1546 -0.0120  0.3033
  737MOL0     C97177  -0.462   1.490   6.341  0.6064  0.2636 -0.8993
  737MOL0     C97178  -0.483   1.457   6.209  0.1552 -0.3427 -0.1481
  737MOL0     C97179  -0.600   1.389   6.172  0.0383  0.8195 -0.2470
  737MOL0     C97180  -0.693   1.353   6.271 -0.3738  0.0189  0.4443
  737MOL0     C97181  -0.823   1.299   6.235  1.1043 -0.0383  0.8445
  737MOL0     O97182  -0.894   1.252   6.344  0.4534  0.7403 -0.1003
  737MOL0     C97183  -1.034   1.222   6.334 -0.1812 -0.5546 -0.2860
  737MOL0     C97184  -1.130   1.303   6.271  0.1419 -0.6426 -0.4597
  737MOL0     C97185  -1.264   1.264   6.267 -0.0442  0.0661  1.2751
  737MOL0     C97186  -1.313   1.144   6.332  0.2320 -0.4889  0.6497
  737MOL0     O97187  -1.447   1.126   6.339 -0.3224 -0.4350  0.2132
  737MOL0     C97188  -1.496   1.002   6.376 -0.3063 -0.3671 -0.4799
  737MOL0     C97189  -1.548   1.026   6.518 -0.9646  0.0262 -0.1651
  737MOL0     C97190  -1.607   0.904   6.586 -0.3379 -0.2221 -0.3189
  737MOL0     C97191  -1.741   0.860   6.527 -0.0896  0.9701  0.0602
  737MOL0     C97192  -1.868   0.954   6.539  0.4524  0.5101  0.0810
  737MOL0     C97193  -1.996   0.886   6.480  0.1608 -0.3508 -0.2917
  737MOL0     C97194  -2.115   0.969   6.476  0.4013  0.6103  0.4440
  737MOL0     C97195  -2.238   0.897   6.408 -0.0312  0.4527 -0.2996
  737MOL0    Cl97196  -2.226   0.837   6.236 -0.0280 -0.0387 -0.4113
  737MOL0     C97197  -1.215   1.072   6.404  0.1189 -0.8556  0.5215
  737MOL0     C97198  -1.077   1.111   6.405 -0.0948 -0.4440 -0.5346
  737MOL0     O97199  -0.865   1.305   6.117 -0.1238  0.1725 -0.1196
  737MOL0     C97200  -0.660   1.381   6.404  0.7293 -0.2286 -0.0976
  737MOL0     C97201  -0.550   1.453   6.435 -0.4955 -0.0591 -0.0301
  737MOL0     N97202   0.165   1.861   6.424  0.0271 -0.7878 -0.2482
  737MOL0     N97203   0.247   1.887   6.529  0.4419  0.0817  0.0426
  737MOL0     C97204   1.286   2.273   6.711  0.1918  0.6211 -0.1056
  737MOL0     C97205   1.419   2.328   6.699 -0.4504  0.1746 -0.4802
  737MOL0     C97206   1.831   2.472   6.688  0.4364  0.4904  0.0077
  737MOL0     C97207   1.881   2.566   6.598  0.3342 -0.7746  0.7939
  737MOL0     C97208   2.016   2.592   6.576  0.3132  0.0552  0.3585
  737MOL0     C97209   2.115   2.517   6.644  0.2535  0.3716 -0.4507
  737MOL0     O97210   2.256   2.529   6.629  0.0673 -0.0889  0.2564
  737MOL0     C97211   2.310   2.644   6.553  0.9668  0.3939 -0.0915
  737MOL0     C97212   2.458   2.644   6.574  0.2518 -0.7164  0.0054
  737MOL0     C97213   2.509   2.519   6.502  0.3900 -0.2415  0.4381
  737MOL0     C97214   2.576   2.565   6.373  0.8582  0.2947  0.7776
  737MOL0     C97215   2.710   2.629   6.392 -0.0646  0.9353  1.0532
  737MOL0     C97216   2.825   2.670   6.429  1.3956 -1.2337 -0.1992
  737MOL0     C97217   2.070   2.428   6.739  0.7684 -1.0744 -0.5718
  737MOL0     C97218   1.933   2.406   6.762 -0.5857  0.1808  0.7401
  737MOL0     H97219   1.584   2.130   6.907  0.9716 -1.4467 -1.6783
  737MOL0     H97220   1.361   2.025   6.928 -0.6529 -0.0849  0.4688
  737MOL0     H97221   1.078   2.104   6.611 -1.1012 -3.8223 -0.5278
  737MOL0     H97222   0.981   2.193   6.740 -0.2085 -0.0474 -1.8621
  737MOL0     H97223   0.917   1.964   6.821  0.9258 -1.7891  0.8899
  737MOL0     H97224   1.038   1.887   6.715 -3.6823 -1.4105  0.7748
  737MOL0     H97225   0.935   1.943   6.512 -0.6948 -1.4790  0.6768
  737MOL0     H97226   0.813   2.042   6.599 -0.5871 -0.0915 -1.0660
  737MOL0     H97227   0.830   1.743   6.595 -3.4150 -1.4921  1.4712
  737MOL0     H97228   0.766   1.819   6.730 -2.2942  1.8032 -0.3013
  737MOL0     H97229   0.682   1.889   6.444 -1.4928  0.5109  0.4700
  737MOL0     H97230   0.584   1.921   6.590  1.0492 -2.1736  3.7224
  737MOL0     H97231   0.649   1.649   6.487  1.5615 -0.1544  0.3229
  737MOL0     H97232   0.510   1.727   6.429  1.7099  0.7630 -0.5264
  737MOL0     H97233   0.475   1.571   6.627  1.3734 -1.2966  0.6494
  737MOL0     H97234   0.580   1.657   6.725 -0.9258 -3.9788 -0.8605
  737MOL0     H97235   0.430   1.851   6.728 -0.0218 -0.0666 -1.4684
  737MOL0     H97236   0.337   1.717   6.782  0.0716 -2.3031 -0.5142
  737MOL0     H97237   0.226   1.564   6.553  1.9944  0.3582  2.2996
  737MOL0     H97238   0.109   1.586   6.283  1.5406  0.7892  1.6725
  737MOL0     H97239  -0.009   1.715   6.276 -0.8886 -0.2459  0.0749
  737MOL0     H97240  -0.023   1.531   6.501 -1.3886  0.6160  0.5842
  737MOL0     H97241  -0.099   1.507   6.350 -1.6176 -0.6010  1.2565
  737MOL0     H97242  -0.132   1.720   6.562 -2.0712 -2.9772  2.4323
  737MOL0     H97243  -0.183   1.769   6.400  1.0093 -0.5747 -1.3120
  737MOL0     H97244  -0.382   1.665   6.527 -2.1663 -1.2325 -0.5711
  737MOL0     H97245  -0.287   1.525   6.544 -1.4874  0.2560  0.1226
  737MOL0     H97246  -0.413   1.477   6.128  2.1529 -0.4141  1.4594
  737MOL0     H97247  -0.612   1.362   6.067  1.1678 -3.4128  0.4974
  737MOL0     H97248  -1.104   1.400   6.228  4.8744 -0.4387  2.1515
  737MOL0     H97249  -1.336   1.323   6.211  1.9566  2.3125  0.8773
  737MOL0     H97250  -1.427   0.917   6.378 -1.1273 -1.0763 -1.3708
  737MOL0     H97251  -1.581   0.982   6.310 -1.2401  1.9030 -0.0451
  737MOL0     H97252  -1.617   1.109   6.502 -1.6388 -0.5196 -0.1545
  737MOL0     H97253  -1.465   1.066   6.578 -0.0163 -0.1727 -1.3056
  737MOL0     H97254  -1.615   0.922   6.693 -0.7728 -5.3310  0.7590
  737MOL0     H97255  -1.527   0.830   6.577 -1.7334 -1.8910  0.3251
  737MOL0     H97256  -1.714   0.827   6.426  5.1973  1.2222  1.1188
  737MOL0     H97257  -1.766   0.770   6.585  1.1404  1.0588  0.7532
  737MOL0     H97258  -1.845   1.045   6.483 -0.0878 -0.4295 -1.7452
  737MOL0     H97259  -1.876   0.980   6.645  1.5415  2.8843 -0.3656
  737MOL0     H97260  -2.018   0.795   6.537 -0.4058 -0.4588 -0.6806
  737MOL0     H97261  -1.969   0.856   6.378  1.7230  2.0445 -0.6627
  737MOL0     H97262  -2.149   0.995   6.577 -0.3160  0.7707  0.1680
  737MOL0     H97263  -2.078   1.051   6.413  1.5984 -0.6063 -0.4758
  737MOL0     H97264  -2.327   0.959   6.417  1.5400  2.8486 -0.4060
  737MOL0     H97265  -2.265   0.814   6.474 -0.8819  1.1346  0.2374
  737MOL0     H97266  -1.243   0.985   6.461  1.9542 -2.3059 -0.6525
  737MOL0     H97267  -1.013   1.046   6.463  0.8233  0.0536 -0.9690
  737MOL0     H97268  -0.724   1.350   6.486 -0.2933 -0.6907 -1.0500
  737MOL0     H97269  -0.514   1.468   6.537 -0.9895 -1.8455  0.4404
  737MOL0     H97270   1.200   2.310   6.657 -0.8654 -0.5596  0.7066
  737MOL0     H97271   1.424   2.407   6.624  1.2919  1.5426  0.9918
  737MOL0     H97272   1.810   2.642   6.565  0.2884  0.8506  4.1376
  737MOL0     H97273   2.030   2.666   6.497 -1.9647  0.0846 -0.0702
  737MOL0     H97274   2.265   2.727   6.607 -2.7862 -1.3734 -0.1387
  737MOL0     H97275   2.286   2.636   6.446 -0.4323 -1.2431  0.2850
  737MOL0     H97276   2.499   2.743   6.550 -2.6256  1.2408  2.3388
  737MOL0     H97277   2.486   2.638   6.679 -2.3341 -0.7791  0.7474
  737MOL0     H97278   2.422   2.454   6.487 -2.8021  3.4203  1.2408
  737MOL0     H97279   2.590   2.475   6.560  0.8967 -0.1022 -0.1530
  737MOL0     H97280   2.591   2.480   6.306 -0.5452  0.7327 -0.1341
  737MOL0     H97281   2.511   2.630   6.315  0.6686 -1.5604 -1.2181
  737MOL0     H97282   2.917   2.709   6.470  0.2144  1.0024  0.5078
  737MOL0     H97283   2.131   2.371   6.808  0.9302 -1.2603 -0.8630
  737MOL0     H97284   1.883   2.336   6.828 -0.6016  0.3893  0.9504
  738MOL0     O97285   4.748   9.097  11.040 -0.1565  0.0748 -0.0345
  738MOL0     C97286   4.757   9.096  10.921  0.7023 -0.4982 -0.2588
  738MOL0     O97287   4.647   9.105  10.830 -1.0607  0.2816  0.5588
  738MOL0     C97288   4.513   9.085  10.863 -0.7674 -0.2690  0.2448
  738MOL0     C97289   4.413   9.118  10.768  0.3141 -0.0450  1.0104
  738MOL0     C97290   4.270   9.086  10.789 -0.6641 -0.9393  0.0979
  738MOL0     C97291   4.239   9.014  10.903  0.5033  0.3067 -0.4718
  738MOL0     O97292   4.110   8.970  10.926 -0.3496 -0.2520 -0.0234
  738MOL0     C97293   4.000   9.059  10.902  0.5763  0.6708  1.3515
  738MOL0     C97294   3.879   9.012  10.992 -0.2865  0.2365 -0.3784
  738MOL0     C97295   3.763   9.113  10.999 -0.6819 -0.0178  0.0002
  738MOL0     C97296   3.654   9.071  11.099  0.3426 -0.1758 -0.1908
  738MOL0     C97297   3.691   9.103  11.246  0.1997 -0.3472 -0.1741
  738MOL0     C97298   3.605   9.027  11.351 -0.1057  0.1065  0.4104
  738MOL0     C97299   3.458   9.070  11.339 -0.4958  0.1316 -0.6095
  738MOL0     C97300   3.376   9.010  11.454 -1.2079  0.6822  0.8896
  738MOL0     N97301   3.251   9.090  11.462 -0.1026  0.0137  0.3152
  738MOL0     C97302   3.224   9.219  11.474  0.2098 -0.1335 -0.2458
  738MOL0     C97303   3.088   9.232  11.461 -0.0969  0.2744 -0.3786
  738MOL0     C97304   3.012   9.365  11.476 -0.3497  0.0302  0.0868
  738MOL0     C97305   2.954   9.389  11.615 -0.0365  1.1161  0.1474
  738MOL0     C97306   2.911   9.527  11.646 -0.3434  0.0429  1.1354
  738MOL0     C97307   2.791   9.581  11.569  0.3118 -0.4707 -0.4280
  738MOL0     O97308   2.810   9.608  11.431  0.1895  0.8069  0.0161
  738MOL0     C97309   2.697   9.638  11.363  0.2662 -0.2317  0.5066
  738MOL0     C97310   2.696   9.742  11.269  0.4146  0.9802 -0.4406
  738MOL0     C97311   2.580   9.812  11.223 -1.0956 -1.2189 -0.4793
  738MOL0     C97312   2.455   9.774  11.265 -0.1100 -0.4513 -0.5690
  738MOL0     C97313   2.334   9.842  11.227  0.0286 -0.3438 -0.1646
  738MOL0     O97314   2.339   9.976  11.207  0.4091 -0.7052  0.0096
  738MOL0     C97315   2.234  10.046  11.155  0.3631 -0.3426 -0.4544
  738MOL0     C97316   2.097  10.022  11.175 -0.3457  0.3324 -0.6095
  738MOL0     C97317   2.001  10.097  11.122  0.2528 -0.2544  0.3591
  738MOL0     C97318   2.036  10.204  11.036  0.3592  0.3281 -0.2318
  738MOL0     O97319   1.951  10.291  10.982  0.4519 -0.3138 -0.2164
  738MOL0     C97320   1.938  10.409  11.064  0.3419  0.2692 -0.4120
  738MOL0     C97321   1.810  10.412  11.141  0.7677  0.2653 -0.7832
  738MOL0     C97322   1.689  10.456  11.056 -0.9738  0.4775  0.0745
  738MOL0     C97323   1.688  10.608  11.037  0.6181  1.0670 -0.1920
  738MOL0     C97324   1.564  10.671  10.974 -0.0815 -0.4399  0.5765
  738MOL0     C97325   1.482  10.738  11.086  0.2072 -0.4099  0.0234
  738MOL0     C97326   1.354  10.817  11.049 -0.0631  0.0705 -0.9987
  738MOL0     C97327   1.261  10.730  10.959  0.3334  0.4962 -0.0238
  738MOL0    Cl97328   1.231  10.558  11.010 -0.1042  0.2795 -0.0061
  738MOL0     C97329   2.177  10.227  11.018  0.2549 -0.1449  0.5408
  738MOL0     C97330   2.277  10.148  11.070 -0.5743  0.4511  0.3519
  738MOL0     O97331   2.240   9.770  11.211  0.9274  0.1186  1.3891
  738MOL0     C97332   2.453   9.662  11.348 -0.2373  0.5855 -0.5731
  738MOL0     C97333   2.563   9.591  11.400 -0.2814 -0.7146  0.5596
  738MOL0     N97334   3.037   9.107  11.433  0.6753  0.0965 -0.5243
  738MOL0     N97335   3.135   9.030  11.426  0.3318 -0.7119  0.5945
  738MOL0     C97336   4.336   8.974  10.995  0.0977  0.2719 -0.0098
  738MOL0     C97337   4.471   9.016  10.980  0.0634 -0.1368 -0.5178
  738MOL0     C97338   4.888   9.109  10.859 -0.7878 -1.1579 -0.7326
  738MOL0     C97339   5.002   9.114  10.948 -0.5840 -0.2028  0.7152
  738MOL0     C97340   5.129   9.126  10.892 -0.0745 -0.3411 -0.6526
  738MOL0     C97341   5.150   9.136  10.760  0.1617  0.3123 -0.4427
  738MOL0     O97342   5.277   9.159  10.721 -0.2622 -0.4855  0.4069
  738MOL0     C97343   5.324   9.095  10.604  0.6094 -0.4178  0.8322
  738MOL0     C97344   5.466   9.140  10.557  0.1563 -0.1450 -0.4053
  738MOL0     C97345   5.563   9.109  10.665 -0.5393  0.8023  0.0399
  738MOL0     C97346   5.706   9.160  10.628 -0.4598  0.5614  0.3190
  738MOL0     C97347   5.788   9.074  10.539 -0.1512  0.8689  0.2884
  738MOL0     C97348   5.840   8.974  10.478  0.0087 -0.6435 -0.0896
  738MOL0     C97349   5.044   9.123  10.672 -0.5941  0.3910  0.1955
  738MOL0     C97350   4.912   9.107  10.719  0.2408 -0.0990 -0.2564
  738MOL0     H97351   4.446   9.163  10.675 -0.1859  1.2502  1.4371
  738MOL0     H97352   4.199   9.117  10.712 -0.5355 -0.1351  0.2905
  738MOL0     H97353   3.977   9.060  10.795  1.6417 -0.5711  1.0928
  738MOL0     H97354   4.015   9.164  10.929 -0.5463  1.2914 -0.2494
  738MOL0     H97355   3.910   9.016  11.097  0.0974  0.9767 -0.5100
  738MOL0     H97356   3.835   8.918  10.959  1.4463  0.2040 -2.9038
  738MOL0     H97357   3.718   9.140  10.904  0.6400 -2.2435 -1.3525
  738MOL0     H97358   3.802   9.211  11.027 -3.1091  1.0138  0.0267
  738MOL0     H97359   3.568   9.135  11.077  1.2138  1.0505 -0.1427
  738MOL0     H97360   3.635   8.963  11.090  0.6856 -0.4149  1.5279
  738MOL0     H97361   3.679   9.212  11.256 -1.4988 -0.4229 -1.0741
  738MOL0     H97362   3.792   9.067  11.267 -0.6630 -2.8036 -0.0109
  738MOL0     H97363   3.658   9.055  11.443 -0.4780  2.7323 -0.0901
  738MOL0     H97364   3.618   8.921  11.330 -0.8191  0.5257 -2.5733
  738MOL0     H97365   3.474   9.177  11.358  0.2168 -0.0023 -0.4417
  738MOL0     H97366   3.418   9.057  11.238  2.3376 -1.4447 -1.6345
  738MOL0     H97367   3.428   9.020  11.550 -0.4008 -0.4020  0.5806
  738MOL0     H97368   3.366   8.903  11.433  0.5956  0.0540  2.8450
  738MOL0     H97369   3.297   9.299  11.481  1.8168 -1.5821 -0.0179
  738MOL0     H97370   2.937   9.358  11.397  0.4118  0.3584 -0.6763
  738MOL0     H97371   3.077   9.445  11.440  1.1026 -1.2567 -0.2715
  738MOL0     H97372   3.030   9.362  11.689 -0.9210 -2.4631 -0.0479
  738MOL0     H97373   2.866   9.324  11.619 -0.1809  1.2783 -0.3441
  738MOL0     H97374   2.887   9.507  11.751 -0.3257 -2.5141  0.7120
  738MOL0     H97375   3.002   9.588  11.647  0.5350 -1.2194  0.9366
  738MOL0     H97376   2.744   9.666  11.619 -1.9234  0.5016 -3.8400
  738MOL0     H97377   2.724   9.494  11.575  0.8477 -0.8978 -0.4914
  738MOL0     H97378   2.787   9.795  11.242 -0.0787  1.5459 -1.0407
  738MOL0     H97379   2.598   9.890  11.150  0.0847 -1.2595 -0.2532
  738MOL0     H97380   2.055   9.942  11.234  2.0402 -0.6227 -0.0765
  738MOL0     H97381   1.898  10.063  11.130  0.6477 -3.2581 -3.8676
  738MOL0     H97382   1.936  10.499  11.001 -0.8873  0.6307  0.1055
  738MOL0     H97383   2.025  10.416  11.130  1.0861  0.5459 -1.4061
  738MOL0     H97384   1.826  10.478  11.227  2.0567 -1.1608  0.1162
  738MOL0     H97385   1.777  10.312  11.168 -1.1627  0.1581 -3.1628
  738MOL0     H97386   1.598  10.417  11.102 -1.0474 -1.1029 -1.3085
  738MOL0     H97387   1.708  10.410  10.959 -0.3802  0.6272  0.1165
  738MOL0     H97388   1.718  10.664  11.127  1.0068  0.8954 -0.2135
  738MOL0     H97389   1.768  10.616  10.963  2.4773 -0.9437  1.4432
  738MOL0     H97390   1.513  10.604  10.905 -0.2114  0.7589 -0.5338
  738MOL0     H97391   1.610  10.749  10.912 -0.8692  0.6387  1.3309
  738MOL0     H97392   1.549  10.804  11.142 -0.1376  2.7309 -2.9261
  738MOL0     H97393   1.444  10.661  11.154  1.6859 -0.7692  0.4944
  738MOL0     H97394   1.295  10.843  11.137 -1.4311  0.5941 -2.0346
  738MOL0     H97395   1.389  10.907  10.998 -0.6762  2.3751  2.3814
  738MOL0     H97396   1.316  10.731  10.864 -0.1913  0.3772 -0.3350
  738MOL0     H97397   1.166  10.775  10.932  0.2088  0.6599  0.6844
  738MOL0     H97398   2.207  10.313  10.958  0.2410  0.0651  0.8337
  738MOL0     H97399   2.379  10.174  11.043  0.2900  0.3486  3.2055
  738MOL0     H97400   2.356   9.616  11.368  0.4230 -0.6293 -0.0751
  738MOL0     H97401   2.549   9.510  11.471  0.5585 -0.8811  0.5428
  738MOL0     H97402   4.311   8.913  11.081  1.4616 -0.6322 -0.2301
  738MOL0     H97403   4.546   8.980  11.049  3.7551 -1.4075 -4.7236
  738MOL0     H97404   4.995   9.115  11.056  0.2404 -0.8248  0.7886
  738MOL0     H97405   5.221   9.123  10.949  0.3295 -0.0520 -1.2699
  738MOL0     H97406   5.253   9.108  10.523  0.2266 -1.4603  0.9852
  738MOL0     H97407   5.319   8.986  10.613  0.4084 -0.3684  1.3527
  738MOL0     H97408   5.500   9.094  10.463 -0.0732 -3.1353  0.8671
  738MOL0     H97409   5.478   9.247  10.537 -1.7362  0.0351 -0.7411
  738MOL0     H97410   5.560   9.002  10.688  0.7404  0.1386 -2.4694
  738MOL0     H97411   5.543   9.174  10.750  1.7216  3.6248 -1.4077
  738MOL0     H97412   5.704   9.262  10.588  0.6518 -0.1493 -1.7247
  738MOL0     H97413   5.760   9.149  10.723  4.9179 -0.3592 -2.4594
  738MOL0     H97414   5.898   8.896  10.433  1.1472  0.0427  0.1542
  738MOL0     H97415   5.067   9.117  10.566  0.1431 -2.8831  0.4465
  738MOL0     H97416   4.826   9.086  10.657  0.9872 -5.4272  0.0260
  739MOL0     O97417   5.477   0.042   2.250 -0.1593  0.0998 -0.2461
  739MOL0     C97418   5.524   0.155   2.256 -0.2635 -0.2447 -1.3775
  739MOL0     O97419   5.451   0.274   2.293 -0.6073  0.4867 -0.7196
  739MOL0     C97420   5.309   0.259   2.300  0.7991 -0.2485 -0.9563
  739MOL0     C97421   5.231   0.366   2.244  0.3033  0.0437 -0.1677
  739MOL0     C97422   5.092   0.377   2.262  1.0426  0.2158 -0.9047
  739MOL0     C97423   5.019   0.282   2.327 -0.4872  0.1194 -0.8486
  739MOL0     O97424   4.884   0.307   2.341  0.0585  0.1522  0.2647
  739MOL0     C97425   4.796   0.208   2.377  0.7503  0.3301 -0.3165
  739MOL0     C97426   4.775   0.180   2.527  0.1097 -0.2060  0.2474
  739MOL0     C97427   4.664   0.072   2.525  0.1843  0.2546 -0.1330
  739MOL0     C97428   4.650   0.017   2.660 -0.2266  0.4787 -0.0244
  739MOL0     C97429   4.532  -0.079   2.675 -0.7784 -0.4551 -0.4090
  739MOL0     C97430   4.534  -0.140   2.812  0.1564  1.4357  0.4718
  739MOL0     C97431   4.412  -0.224   2.834 -0.1958 -0.8149 -0.4228
  739MOL0     C97432   4.412  -0.359   2.752 -0.1128 -0.1661 -0.1452
  739MOL0     N97433   4.276  -0.416   2.758  0.3373  0.7642  0.0499
  739MOL0     C97434   4.157  -0.363   2.711  0.9510  0.0501 -0.6477
  739MOL0     C97435   4.059  -0.449   2.748 -0.3580  0.3238 -0.2997
  739MOL0     C97436   3.921  -0.440   2.697 -0.3263 -0.2545  0.6310
  739MOL0     C97437   3.837  -0.542   2.766 -0.2312 -0.2674 -0.4770
  739MOL0     C97438   3.694  -0.541   2.714 -0.0657  0.7975  0.6115
  739MOL0     C97439   3.590  -0.598   2.806 -0.0566  0.1731 -0.1278
  739MOL0     O97440   3.572  -0.521   2.930  0.4711 -0.3202  0.4629
  739MOL0     C97441   3.449  -0.500   2.993  0.2917 -0.1004  0.3120
  739MOL0     C97442   3.326  -0.557   2.951 -0.3536  0.5186 -0.3774
  739MOL0     C97443   3.211  -0.535   3.029  0.4743 -0.4911  0.4940
  739MOL0     C97444   3.205  -0.441   3.133 -0.0944  0.3728  0.1667
  739MOL0     C97445   3.078  -0.427   3.208  0.4811 -0.0616  0.3215
  739MOL0     O97446   2.965  -0.459   3.135  0.3619  0.6795 -0.6625
  739MOL0     C97447   2.841  -0.418   3.182 -0.1812  0.0030 -0.1759
  739MOL0     C97448   2.765  -0.515   3.252 -0.3145  0.1317 -1.2717
  739MOL0     C97449   2.636  -0.484   3.301  0.2856 -0.0949  0.3637
  739MOL0     C97450   2.587  -0.360   3.271  0.1962  0.5799 -0.0202
  739MOL0     O97451   2.466  -0.331   3.329  0.0736  0.2975 -0.9085
  739MOL0     C97452   2.370  -0.259   3.250  0.6153  0.1423 -0.6788
  739MOL0     C97453   2.264  -0.241   3.352 -0.0657 -0.3633  0.8308
  739MOL0     C97454   2.127  -0.240   3.292  0.2538 -0.5607 -0.6736
  739MOL0     C97455   2.018  -0.188   3.385 -0.2791  0.9157  0.3359
  739MOL0     C97456   1.888  -0.167   3.299  0.2885 -0.4120 -1.1111
  739MOL0     C97457   1.764  -0.146   3.394  0.1539 -0.3920  0.1315
  739MOL0     C97458   1.743  -0.007   3.445 -0.0969  0.2730  1.3897
  739MOL0     C97459   1.605   0.013   3.509  0.2910  0.1587 -0.0247
  739MOL0    Cl97460   1.572   0.182   3.550 -0.5275 -0.1486  0.1477
  739MOL0     C97461   2.656  -0.265   3.195 -0.2502  0.2807  0.5095
  739MOL0     C97462   2.778  -0.302   3.143 -0.8269 -0.4002 -0.1478
  739MOL0     O97463   3.082  -0.390   3.329 -0.3291 -0.1492  0.2656
  739MOL0     C97464   3.329  -0.378   3.176  0.4924  0.9007  0.1669
  739MOL0     C97465   3.444  -0.404   3.092 -0.9789 -0.4815  1.6386
  739MOL0     N97466   4.117  -0.553   2.829 -0.4143 -0.3923 -0.2445
  739MOL0     N97467   4.245  -0.533   2.830  0.3124 -0.7343  0.1606
  739MOL0     C97468   5.094   0.172   2.381  0.8413  0.5900  0.5414
  739MOL0     C97469   5.234   0.160   2.374 -0.3884 -0.5430  1.9998
  739MOL0     C97470   5.667   0.177   2.223 -0.1742  0.2209 -0.7406
  739MOL0     C97471   5.728   0.302   2.261 -0.2992 -0.4373  0.8274
  739MOL0     C97472   5.858   0.329   2.227 -0.0538 -0.3661 -0.5597
  739MOL0     C97473   5.945   0.225   2.187 -0.2060 -0.1158  0.4799
  739MOL0     O97474   6.074   0.274   2.162 -0.1018 -0.0265  0.9641
  739MOL0     C97475   6.196   0.200   2.124  1.1922  0.5721  0.3622
  739MOL0     C97476   6.256   0.130   2.245 -0.0722  0.1776  0.3686
  739MOL0     C97477   6.231   0.206   2.374  0.1936 -0.1370 -0.0877
  739MOL0     C97478   6.330   0.170   2.487  0.7644 -0.7463 -0.5756
  739MOL0     C97479   6.326   0.284   2.576 -0.0884 -0.3468  0.1115
  739MOL0     C97480   6.338   0.383   2.653 -0.0063  0.2204  1.4986
  739MOL0     C97481   5.895   0.099   2.166  0.5281 -0.8951 -0.5965
  739MOL0     C97482   5.756   0.079   2.187  0.0175  1.3824 -0.3523
  739MOL0     H97483   5.280   0.443   2.186  1.8562 -1.1651 -0.5066
  739MOL0     H97484   5.039   0.459   2.214 -0.4617 -0.5863 -0.6752
  739MOL0     H97485   4.806   0.123   2.309 -1.5731  0.4759 -0.9068
  739MOL0     H97486   4.698   0.241   2.341  0.4497  1.6256  1.5130
  739MOL0     H97487   4.742   0.270   2.579  0.4311 -1.1430  2.1660
  739MOL0     H97488   4.868   0.143   2.570  1.2431  0.2964 -1.6702
  739MOL0     H97489   4.688  -0.013   2.461  1.3733 -0.9288  1.7879
  739MOL0     H97490   4.571   0.124   2.503 -0.4912 -1.0255 -0.3643
  739MOL0     H97491   4.747  -0.024   2.689  0.3531  1.6007 -0.2938
  739MOL0     H97492   4.626   0.100   2.728 -0.3005 -1.5072  2.5113
  739MOL0     H97493   4.549  -0.166   2.611 -1.2179 -0.8995  0.0773
  739MOL0     H97494   4.440  -0.024   2.654 -0.3447  0.8052  0.8491
  739MOL0     H97495   4.545  -0.072   2.896 -0.4338 -0.2783  1.9925
  739MOL0     H97496   4.619  -0.209   2.813  1.7061  3.2363 -0.3188
  739MOL0     H97497   4.384  -0.243   2.938 -3.5829  1.0303 -0.8573
  739MOL0     H97498   4.326  -0.166   2.799 -0.0389 -0.8987 -0.9535
  739MOL0     H97499   4.492  -0.421   2.794  2.1633  4.1928  2.7082
  739MOL0     H97500   4.429  -0.347   2.645 -1.6587  1.7156 -0.2328
  739MOL0     H97501   4.152  -0.270   2.654  1.7519 -1.0236 -2.5467
  739MOL0     H97502   3.920  -0.440   2.588  1.2776  0.0358  0.5974
  739MOL0     H97503   3.878  -0.345   2.728  0.7313  0.0303  1.2997
  739MOL0     H97504   3.842  -0.512   2.871  1.6902 -2.4020  0.1125
  739MOL0     H97505   3.886  -0.640   2.767 -2.6271 -1.6090 -2.4031
  739MOL0     H97506   3.671  -0.434   2.711 -0.8690  0.6188  0.0328
  739MOL0     H97507   3.686  -0.585   2.614 -0.5371  2.3867 -0.0914
  739MOL0     H97508   3.612  -0.699   2.840  0.0200 -0.5737 -2.2285
  739MOL0     H97509   3.496  -0.607   2.750  1.5617  2.8798 -3.6899
  739MOL0     H97510   3.322  -0.638   2.879 -0.5833  1.9516 -2.0449
  739MOL0     H97511   3.123  -0.584   2.989  0.0572  2.4880 -2.7688
  739MOL0     H97512   2.807  -0.612   3.280 -1.9092 -0.9062 -2.2935
  739MOL0     H97513   2.572  -0.558   3.347  1.8742  0.2557  3.4524
  739MOL0     H97514   2.335  -0.329   3.174 -1.6611 -2.4506  2.4325
  739MOL0     H97515   2.403  -0.160   3.218 -2.8882  1.2651 -1.2074
  739MOL0     H97516   2.284  -0.151   3.411 -0.4746  0.1194  0.2518
  739MOL0     H97517   2.267  -0.321   3.426  3.6060 -1.2836 -0.1307
  739MOL0     H97518   2.100  -0.339   3.253  1.9577 -1.5976  0.6396
  739MOL0     H97519   2.121  -0.155   3.224  0.2108  2.7752  3.1305
  739MOL0     H97520   2.004  -0.256   3.469  1.4171 -2.1300 -1.6756
  739MOL0     H97521   2.053  -0.090   3.420 -0.3349  0.9809  0.2113
  739MOL0     H97522   1.867  -0.249   3.230  0.5438 -0.0040 -1.6755
  739MOL0     H97523   1.906  -0.075   3.244 -2.3700  0.7447 -0.2110
  739MOL0     H97524   1.769  -0.213   3.480  0.3691 -1.5679 -0.7565
  739MOL0     H97525   1.680  -0.181   3.333  0.2174  0.0046 -0.1885
  739MOL0     H97526   1.820   0.022   3.517  0.0918  0.8879  0.9486
  739MOL0     H97527   1.754   0.063   3.361  0.7022 -1.8793 -0.4374
  739MOL0     H97528   1.606  -0.048   3.600  0.1641 -0.1378 -0.2184
  739MOL0     H97529   1.523  -0.022   3.446  1.2768 -0.4349 -1.0235
  739MOL0     H97530   2.609  -0.171   3.167 -0.6874  0.5041  1.9126
  739MOL0     H97531   2.829  -0.246   3.066 -0.3043 -2.9122 -1.7632
  739MOL0     H97532   3.337  -0.310   3.260 -1.3161  2.6986 -1.0475
  739MOL0     H97533   3.534  -0.344   3.098 -0.7265 -0.7400  0.5795
  739MOL0     H97534   5.039   0.094   2.433  1.4225  0.7815  1.4485
  739MOL0     H97535   5.280   0.080   2.431  1.5157 -1.4454 -0.6050
  739MOL0     H97536   5.667   0.380   2.304 -0.0946 -0.8637  1.9280
  739MOL0     H97537   5.885   0.434   2.233 -2.4854  0.2946  0.1023
  739MOL0     H97538   6.261   0.279   2.087 -1.4561  3.1137  0.7863
  739MOL0     H97539   6.158   0.136   2.044 -3.3078  3.5208 -0.2197
  739MOL0     H97540   6.228   0.024   2.255  1.1131 -0.3535 -1.4805
  739MOL0     H97541   6.362   0.122   2.220  0.2668 -1.0532  2.0000
  739MOL0     H97542   6.128   0.203   2.411  0.3303 -2.7157  0.2460
  739MOL0     H97543   6.250   0.312   2.353  1.4333 -0.1861  0.7221
  739MOL0     H97544   6.290   0.083   2.541 -1.2079 -0.1692 -1.0210
  739MOL0     H97545   6.435   0.152   2.460  1.6669  2.1400  0.6337
  739MOL0     H97546   6.348   0.469   2.714 -0.4004  1.0584  0.4154
  739MOL0     H97547   5.967   0.027   2.129  2.1998 -0.0311  0.7732
  739MOL0     H97548   5.722  -0.024   2.180 -1.4411  1.6864  1.4727
  740MOL0     O97549  10.348   9.661   4.941  1.5164  0.6325  0.8077
  740MOL0     C97550  10.355   9.545   4.905 -0.3294  0.4989 -0.2031
  740MOL0     O97551  10.268   9.451   4.912 -0.1069  0.0673 -0.1701
  740MOL0     C97552  10.135   9.481   4.918 -0.9686 -0.1472  0.1187
  740MOL0     C97553  10.047   9.400   4.977  0.4574  0.7342  0.1421
  740MOL0     C97554   9.908   9.414   4.993  0.9599 -0.0003  0.2659
  740MOL0     C97555   9.856   9.537   4.931  0.3097  0.5645  1.1126
  740MOL0     O97556   9.719   9.572   4.933 -0.1554  0.1979 -0.5887
  740MOL0     C97557   9.636   9.468   4.966  0.2277 -0.2596  1.0788
  740MOL0     C97558   9.498   9.536   4.973 -0.1531 -0.2807 -0.3923
  740MOL0     C97559   9.389   9.438   4.990  0.6806  0.7893 -0.8631
  740MOL0     C97560   9.361   9.359   4.866 -0.5175  0.3617 -0.5442
  740MOL0     C97561   9.218   9.301   4.863  1.1244 -0.1027  0.2263
  740MOL0     C97562   9.185   9.207   4.980  0.0702 -0.0340  0.2074
  740MOL0     C97563   9.040   9.169   4.991  0.2568 -0.2728  0.1938
  740MOL0     C97564   8.957   9.275   5.077  0.0889  0.2962 -0.1416
  740MOL0     N97565   8.818   9.235   5.091  0.6726  0.4934 -0.4348
  740MOL0     C97566   8.717   9.264   5.004  0.9682  0.0238 -0.9099
  740MOL0     C97567   8.609   9.223   5.075 -0.3146 -0.0095 -0.0643
  740MOL0     C97568   8.472   9.219   5.028 -0.0371 -0.2616  1.0184
  740MOL0     C97569   8.411   9.080   5.032  0.4189  0.1361  0.0769
  740MOL0     C97570   8.262   9.096   5.010 -0.4805 -0.0411 -0.9591
  740MOL0     C97571   8.178   8.991   4.932 -0.9088 -0.6212  0.3307
  740MOL0     O97572   8.062   9.053   4.900  0.1835 -0.0941  0.7761
  740MOL0     C97573   7.953   9.015   4.968 -0.4311 -0.5125 -0.7158
  740MOL0     C97574   7.882   8.904   4.930  0.7655  0.3517  0.1312
  740MOL0     C97575   7.749   8.887   4.980 -0.9343 -0.7987  0.1106
  740MOL0     C97576   7.693   8.984   5.069  0.5553  0.1958  0.1159
  740MOL0     C97577   7.549   8.964   5.114  0.1696 -0.1718 -0.4109
  740MOL0     O97578   7.498   9.054   5.200  0.4842  0.0777 -0.6007
  740MOL0     C97579   7.360   9.043   5.239 -0.2875 -0.6254  0.2085
  740MOL0     C97580   7.317   9.174   5.273  0.4918 -0.2254  0.0011
  740MOL0     C97581   7.183   9.202   5.282 -0.3960 -0.4400  1.4038
  740MOL0     C97582   7.089   9.100   5.281  0.4207 -0.8770 -0.1681
  740MOL0     O97583   6.963   9.139   5.301 -0.0004  0.3343  0.0979
  740MOL0     C97584   6.859   9.062   5.231  0.3851 -0.1173 -0.0483
  740MOL0     C97585   6.732   9.161   5.207 -0.1477 -0.0577  0.4687
  740MOL0     C97586   6.626   9.114   5.099  0.7564  0.5365  0.0203
  740MOL0     C97587   6.645   9.156   4.949  0.2713  0.1223 -0.0794
  740MOL0     C97588   6.736   9.050   4.876  1.4265 -0.4757  0.2092
  740MOL0     C97589   6.748   9.093   4.729 -0.5660  1.0670  0.9944
  740MOL0     C97590   6.820   8.974   4.648  0.1240  0.6618 -0.8721
  740MOL0     C97591   6.971   8.982   4.630 -0.9196  0.2971  0.0495
  740MOL0    Cl97592   7.017   9.116   4.520  0.3722 -0.1153 -0.1193
  740MOL0     C97593   7.126   8.972   5.260 -0.2411  0.7293  0.0280
  740MOL0     C97594   7.263   8.935   5.237 -0.0620  0.2104 -0.5095
  740MOL0     O97595   7.504   8.856   5.082 -0.4776 -0.0380  0.6039
  740MOL0     C97596   7.771   9.094   5.108 -0.4215 -0.2088  0.7549
  740MOL0     C97597   7.902   9.109   5.057 -0.0904 -1.0885 -0.4049
  740MOL0     N97598   8.653   9.168   5.189  0.2544  0.2306 -0.0794
  740MOL0     N97599   8.778   9.161   5.196  0.7238 -0.3677  0.6381
  740MOL0     C97600   9.941   9.621   4.854  0.3908 -0.6779 -0.4461
  740MOL0     C97601  10.081   9.590   4.842 -0.0052 -0.1537 -0.5891
  740MOL0     C97602  10.496   9.499   4.873  0.0735  0.8911 -0.0539
  740MOL0     C97603  10.543   9.371   4.886 -0.8632 -0.9526  1.1552
  740MOL0     C97604  10.667   9.332   4.875 -0.4728 -0.9756 -0.3282
  740MOL0     C97605  10.766   9.427   4.832 -0.3708  0.9281 -0.3089
  740MOL0     O97606  10.899   9.404   4.831 -0.4259 -0.2056 -0.3587
  740MOL0     C97607  10.929   9.266   4.844 -0.4090 -0.3920 -0.0064
  740MOL0     C97608  11.070   9.237   4.822 -0.4823  0.3211  0.2181
  740MOL0     C97609  11.176   9.282   4.922  0.0674  0.8822  0.3732
  740MOL0     C97610  11.317   9.253   4.872  0.1252  0.1173  0.4779
  740MOL0     C97611  11.405   9.293   4.980 -0.4894 -0.1415 -0.7867
  740MOL0     C97612  11.501   9.333   5.036 -0.0938  0.0069 -0.2140
  740MOL0     C97613  10.722   9.559   4.809 -0.5444  0.0714 -0.3885
  740MOL0     C97614  10.588   9.595   4.836  0.7048  0.0994 -0.0727
  740MOL0     H97615  10.082   9.309   5.025 -1.3309 -1.2895 -2.0984
  740MOL0     H97616   9.854   9.349   5.061 -1.5734  2.5019  0.8359
  740MOL0     H97617   9.654   9.420   5.062 -0.5799  0.8426  1.8051
  740MOL0     H97618   9.644   9.391   4.888  1.7493  1.1182 -0.2021
  740MOL0     H97619   9.491   9.612   4.895 -1.8146 -0.7497 -0.7309
  740MOL0     H97620   9.502   9.596   5.065  2.2566 -1.3791  0.3237
  740MOL0     H97621   9.300   9.501   4.995  0.1415  0.1597 -2.1622
  740MOL0     H97622   9.398   9.380   5.082  2.4069  0.1131 -1.4081
  740MOL0     H97623   9.380   9.425   4.780 -0.6266  0.7245 -0.2945
  740MOL0     H97624   9.428   9.273   4.861 -1.9409 -0.7994 -0.2188
  740MOL0     H97625   9.207   9.236   4.776  0.9950 -2.4478  1.9077
  740MOL0     H97626   9.145   9.382   4.865  2.7647  1.4222  0.9226
  740MOL0     H97627   9.209   9.269   5.067  0.0082  0.6317 -0.2443
  740MOL0     H97628   9.252   9.121   4.974 -1.2912 -1.0420 -1.3479
  740MOL0     H97629   8.996   9.168   4.891  2.7145 -3.7673 -1.0475
  740MOL0     H97630   9.036   9.074   5.046 -0.7623 -2.2216 -2.9866
  740MOL0     H97631   8.955   9.373   5.028 -3.3035  0.2048 -0.3989
  740MOL0     H97632   9.012   9.290   5.170  0.9571 -2.2989 -0.1539
  740MOL0     H97633   8.709   9.317   4.910 -1.9957  2.5572  0.5836
  740MOL0     H97634   8.457   9.255   4.926 -1.6954  1.4497  1.8114
  740MOL0     H97635   8.404   9.276   5.091 -2.2722 -0.7595 -0.8375
  740MOL0     H97636   8.432   9.029   5.127 -2.5920 -0.4301  0.5169
  740MOL0     H97637   8.459   9.009   4.964  1.4771 -1.8252  2.6947
  740MOL0     H97638   8.224   9.097   5.113  0.5270 -1.7998 -0.5202
  740MOL0     H97639   8.251   9.188   4.952 -2.7535 -1.8781 -3.7495
  740MOL0     H97640   8.157   8.898   4.986 -1.6763 -0.0730  1.0000
  740MOL0     H97641   8.232   8.966   4.840  3.8893 -3.0319  3.3889
  740MOL0     H97642   7.925   8.838   4.855  1.5795 -0.4864  1.3039
  740MOL0     H97643   7.699   8.805   4.930  1.7516 -1.9294 -0.8772
  740MOL0     H97644   7.394   9.247   5.294  0.9403 -1.1784  1.9050
  740MOL0     H97645   7.149   9.303   5.301 -1.5000 -0.0291 -2.0392
  740MOL0     H97646   6.833   8.976   5.292  2.4306  1.4153  3.2554
  740MOL0     H97647   6.881   9.037   5.127  1.9493  1.3630 -0.1213
  740MOL0     H97648   6.765   9.255   5.161  0.4077 -0.6059 -0.2848
  740MOL0     H97649   6.676   9.183   5.298 -0.6799 -2.2149  0.6981
  740MOL0     H97650   6.528   9.153   5.129  0.2784 -1.7997  1.8025
  740MOL0     H97651   6.618   9.006   5.113  0.4478  0.8408  2.6704
  740MOL0     H97652   6.548   9.154   4.898  1.6169 -2.3096 -2.8997
  740MOL0     H97653   6.692   9.254   4.939  0.7937 -0.0901  0.3008
  740MOL0     H97654   6.688   8.952   4.885  0.8592 -0.2376 -0.1839
  740MOL0     H97655   6.838   9.046   4.915  0.8338  1.1810  2.1381
  740MOL0     H97656   6.814   9.180   4.726 -0.8889  1.2863 -1.1655
  740MOL0     H97657   6.651   9.129   4.693  0.2362  3.4666  1.0721
  740MOL0     H97658   6.794   8.884   4.704 -2.4035  0.6427 -1.9587
  740MOL0     H97659   6.768   8.959   4.553  1.2509 -0.2670 -1.3639
  740MOL0     H97660   7.011   8.882   4.610 -0.0339  0.5423  0.5384
  740MOL0     H97661   7.018   9.008   4.725  0.3388 -0.4875 -0.3304
  740MOL0     H97662   7.054   8.891   5.263 -0.0621  0.5315 -0.9084
  740MOL0     H97663   7.290   8.831   5.218 -0.7635 -0.2474  0.8460
  740MOL0     H97664   7.740   9.172   5.177  2.1901  0.5950  1.1116
  740MOL0     H97665   7.945   9.206   5.080 -2.1539  0.0820 -1.1590
  740MOL0     H97666   9.903   9.707   4.801 -2.2060  0.8115  3.4087
  740MOL0     H97667  10.139   9.661   4.783 -2.1987  1.8706 -0.4429
  740MOL0     H97668  10.469   9.298   4.918 -2.6279 -0.6524 -1.8060
  740MOL0     H97669  10.696   9.231   4.904 -2.7651 -2.0508 -1.5605
  740MOL0     H97670  10.875   9.212   4.766 -1.3895 -0.5783  0.7833
  740MOL0     H97671  10.910   9.233   4.946  2.3560  1.6997  1.3116
  740MOL0     H97672  11.084   9.129   4.812 -0.8367  0.3902 -1.2108
  740MOL0     H97673  11.110   9.270   4.726  0.6068 -3.0957 -0.6483
  740MOL0     H97674  11.156   9.238   5.020 -1.5098 -0.1536 -0.3583
  740MOL0     H97675  11.166   9.391   4.930 -1.4591  1.4223 -4.9347
  740MOL0     H97676  11.322   9.153   4.828 -0.8624 -0.1702  0.9716
  740MOL0     H97677  11.332   9.323   4.789 -1.2825 -0.5670 -0.4059
  740MOL0     H97678  11.584   9.377   5.087 -1.7786  0.8415  1.9460
  740MOL0     H97679  10.794   9.638   4.791  0.1316 -1.1368 -3.7435
  740MOL0     H97680  10.559   9.699   4.822  2.0327  0.4264 -0.5365
  741MOL0     O97681   5.104   2.716   0.657 -0.8428 -0.0079  0.1770
  741MOL0     C97682   5.191   2.769   0.726 -0.7948 -0.2727  0.0490
  741MOL0     O97683   5.168   2.880   0.807  0.1914 -0.1975  0.2249
  741MOL0     C97684   5.045   2.932   0.845 -0.0372  1.1084 -0.2432
  741MOL0     C97685   4.917   2.884   0.809  0.2103 -0.3155 -0.2691
  741MOL0     C97686   4.803   2.929   0.875  0.2485  0.2313 -0.2970
  741MOL0     C97687   4.804   3.034   0.968  0.2054 -0.0574 -0.2718
  741MOL0     O97688   4.693   3.081   1.031  0.8296 -0.0361  0.0724
  741MOL0     C97689   4.566   3.099   0.956 -1.2174  0.0406  0.6325
  741MOL0     C97690   4.459   3.117   1.053 -0.5052 -0.2372  0.9849
  741MOL0     C97691   4.318   3.154   0.988 -0.7500  0.7164  0.5279
  741MOL0     C97692   4.323   3.291   0.920 -0.8951  0.3214 -0.6103
  741MOL0     C97693   4.196   3.315   0.836  0.6635 -1.0115  0.5931
  741MOL0     C97694   4.079   3.351   0.930 -0.0964 -0.7906 -0.6510
  741MOL0     C97695   3.961   3.409   0.855 -1.2576 -0.2264  0.2954
  741MOL0     C97696   3.925   3.330   0.730  0.2469  0.1506 -1.3932
  741MOL0     N97697   3.802   3.372   0.673 -0.4494 -0.3204 -0.2105
  741MOL0     C97698   3.769   3.377   0.539 -0.8297  0.0333  0.2754
  741MOL0     C97699   3.638   3.401   0.544  0.8157  0.1407 -0.1498
  741MOL0     C97700   3.553   3.429   0.426 -0.0141 -0.5981 -0.3429
  741MOL0     C97701   3.505   3.302   0.358  0.5639 -0.7639  0.2441
  741MOL0     C97702   3.509   3.315   0.202 -0.6962  0.1499 -0.4076
  741MOL0     C97703   3.439   3.438   0.148 -0.3865  0.5028  0.6135
  741MOL0     O97704   3.312   3.467   0.213 -0.0765 -0.1307 -0.2900
  741MOL0     C97705   3.202   3.393   0.194 -0.8408 -0.4003  0.2996
  741MOL0     C97706   3.149   3.356   0.073  0.3945 -0.8316  0.0687
  741MOL0     C97707   3.024   3.281   0.083  0.0168 -0.1248  0.5658
  741MOL0     C97708   2.964   3.230   0.192 -0.0802  0.4315 -0.3639
  741MOL0     C97709   2.845   3.149   0.182  1.1908  0.4509  0.0783
  741MOL0     O97710   2.825   3.072   0.304  0.6095 -0.4276  0.4800
  741MOL0     C97711   2.694   3.025   0.335  0.4228  0.9472 -0.7982
  741MOL0     C97712   2.586   3.114   0.318  0.2536 -0.1978  0.2966
  741MOL0     C97713   2.458   3.078   0.349  0.1248 -0.1522 -0.3899
  741MOL0     C97714   2.431   2.959   0.411  0.3735  0.4554 -0.5763
  741MOL0     O97715   2.304   2.904   0.428  0.2523  0.2841  0.1489
  741MOL0     C97716   2.191   2.996   0.439  0.9409  0.9114 -0.2560
  741MOL0     C97717   2.065   2.910   0.439 -0.5604 -0.7470  1.1296
  741MOL0     C97718   2.004   2.897   0.582  0.7420  0.5855  0.6340
  741MOL0     C97719   1.867   2.836   0.592 -0.4770  0.1762 -0.4895
  741MOL0     C97720   1.864   2.689   0.557  0.2530  0.8575 -0.3180
  741MOL0     C97721   1.720   2.623   0.552  0.1209 -0.2883 -0.3794
  741MOL0     C97722   1.653   2.587   0.689  0.3172 -0.8634 -0.0721
  741MOL0     C97723   1.515   2.555   0.677 -0.2079 -0.4871  0.1337
  741MOL0    Cl97724   1.411   2.694   0.673 -0.1898 -0.0987  0.3107
  741MOL0     C97725   2.537   2.876   0.448 -0.0380 -0.4996  0.0387
  741MOL0     C97726   2.667   2.912   0.404 -0.7839  0.0635 -0.7389
  741MOL0     O97727   2.770   3.141   0.082  0.3302  0.0344 -0.0987
  741MOL0     C97728   3.016   3.270   0.316  0.1961 -0.7140 -0.0202
  741MOL0     C97729   3.137   3.347   0.311  0.4009  1.0052  0.4628
  741MOL0     N97730   3.590   3.402   0.675  0.2524 -0.5457 -0.2543
  741MOL0     N97731   3.694   3.380   0.752 -0.8094  0.3605  0.2235
  741MOL0     C97732   4.926   3.104   0.988  0.7687  1.1591  0.7456
  741MOL0     C97733   5.045   3.045   0.929  0.0084 -0.5916 -0.5345
  741MOL0     C97734   5.329   2.724   0.704 -0.9217  0.6537 -0.5960
  741MOL0     C97735   5.428   2.757   0.804 -0.3142 -0.0035 -0.4418
  741MOL0     C97736   5.555   2.694   0.793  0.1799 -0.4179 -0.0794
  741MOL0     C97737   5.586   2.614   0.677  0.3696 -0.5252 -0.8669
  741MOL0     O97738   5.712   2.564   0.651 -0.6064  0.4306  0.0563
  741MOL0     C97739   5.834   2.630   0.689 -0.1367 -0.1099 -0.8859
  741MOL0     C97740   5.952   2.642   0.589  1.7422 -0.1785 -0.7184
  741MOL0     C97741   5.906   2.663   0.456 -0.4870 -0.0228 -0.1507
  741MOL0     C97742   5.808   2.773   0.423  0.9217 -0.9773  0.2945
  741MOL0     C97743   5.759   2.769   0.283 -0.0750 -0.1411 -1.3388
  741MOL0     C97744   5.705   2.739   0.177 -0.2064 -0.1898 -0.5690
  741MOL0     C97745   5.490   2.592   0.584 -0.4249  0.5838  0.5336
  741MOL0     C97746   5.358   2.632   0.601  0.4838 -0.4500  0.0827
  741MOL0     H97747   4.893   2.798   0.748 -0.0026 -2.5866  2.7930
  741MOL0     H97748   4.704   2.886   0.862 -0.3873  1.3405  0.6802
  741MOL0     H97749   4.542   3.001   0.912  1.6411 -0.8924  0.9585
  741MOL0     H97750   4.578   3.184   0.890 -0.6587  0.0170  0.7050
  741MOL0     H97751   4.496   3.195   1.120  1.9712  0.6816 -1.2973
  741MOL0     H97752   4.446   3.019   1.101  0.5569 -1.4676 -1.0805
  741MOL0     H97753   4.237   3.160   1.061 -1.6618 -1.5789 -0.2091
  741MOL0     H97754   4.298   3.081   0.910 -0.3310 -0.2319  1.2814
  741MOL0     H97755   4.330   3.365   1.000  0.2923 -2.5094  2.1218
  741MOL0     H97756   4.411   3.291   0.856  0.2252 -0.8595  0.8624
  741MOL0     H97757   4.181   3.227   0.773 -0.3095 -1.3721  1.2957
  741MOL0     H97758   4.217   3.403   0.774 -5.3929  0.3223 -0.2155
  741MOL0     H97759   4.102   3.417   1.013  0.2785  1.5187 -2.5019
  741MOL0     H97760   4.053   3.251   0.968  2.7293 -1.2191  0.3276
  741MOL0     H97761   3.883   3.410   0.931 -2.3150  1.6670 -0.7222
  741MOL0     H97762   3.986   3.511   0.823 -2.4070 -0.0013  0.0821
  741MOL0     H97763   3.913   3.226   0.760  0.8325  0.6134  0.6534
  741MOL0     H97764   3.997   3.341   0.649  0.4689 -0.4022 -1.2733
  741MOL0     H97765   3.828   3.381   0.447 -0.3070  4.4235  0.5704
  741MOL0     H97766   3.615   3.493   0.362 -0.4567 -0.0134 -0.1938
  741MOL0     H97767   3.467   3.489   0.457  0.8622  0.0861  0.8532
  741MOL0     H97768   3.405   3.277   0.396  0.7145 -1.2652  0.3149
  741MOL0     H97769   3.573   3.220   0.381  1.5504 -0.7596 -2.3201
  741MOL0     H97770   3.612   3.313   0.167  0.2297  1.8185  1.9571
  741MOL0     H97771   3.466   3.226   0.156 -1.9882  1.1783 -1.2862
  741MOL0     H97772   3.423   3.418   0.042  1.8772  1.3203  0.0619
  741MOL0     H97773   3.504   3.525   0.156 -1.1976  1.0342  1.7807
  741MOL0     H97774   3.167   3.384  -0.031 -2.2787 -4.8610 -1.7413
  741MOL0     H97775   2.978   3.236  -0.004 -0.4133  1.3695 -0.0059
  741MOL0     H97776   2.601   3.206   0.263  1.6536 -1.6604 -1.9029
  741MOL0     H97777   2.374   3.142   0.325  1.1386  1.3276 -0.1628
  741MOL0     H97778   2.181   3.067   0.356 -0.6881  0.3909 -0.5463
  741MOL0     H97779   2.198   3.047   0.536  3.1869 -1.9577  1.2253
  741MOL0     H97780   2.077   2.808   0.399 -0.4399 -0.3512  0.1364
  741MOL0     H97781   1.991   2.951   0.370  1.0297  0.9435  0.3475
  741MOL0     H97782   1.995   3.000   0.619 -1.2876  0.8492 -0.4471
  741MOL0     H97783   2.074   2.841   0.644 -0.2356 -1.1025  0.2597
  741MOL0     H97784   1.840   2.849   0.698 -1.3299  0.1042 -0.6847
  741MOL0     H97785   1.797   2.893   0.530  0.9272 -0.5269 -2.8433
  741MOL0     H97786   1.918   2.635   0.635  0.5616  1.2332 -0.2706
  741MOL0     H97787   1.915   2.659   0.465  1.9830 -1.1391  1.1945
  741MOL0     H97788   1.747   2.539   0.487  1.0466  0.6440 -1.2516
  741MOL0     H97789   1.658   2.701   0.507  2.1596  3.2177  2.3055
  741MOL0     H97790   1.700   2.498   0.731  0.5748 -1.2432 -1.1541
  741MOL0     H97791   1.666   2.669   0.760  2.2819 -1.0104 -0.2098
  741MOL0     H97792   1.480   2.515   0.773  0.3022  1.2470  1.0843
  741MOL0     H97793   1.498   2.489   0.592  2.1657 -0.2811 -0.5769
  741MOL0     H97794   2.507   2.786   0.500 -3.2240  0.8662  0.7809
  741MOL0     H97795   2.756   2.856   0.432  1.8914  4.2921  0.2015
  741MOL0     H97796   2.969   3.246   0.411  2.4391  3.3461  2.3828
  741MOL0     H97797   3.189   3.363   0.405 -0.2211  3.1072  0.5169
  741MOL0     H97798   4.929   3.185   1.059 -1.3123  0.8820  1.2145
  741MOL0     H97799   5.139   3.095   0.952 -1.8111  1.7887  2.5227
  741MOL0     H97800   5.406   2.800   0.901  1.9191  0.7084 -0.1853
  741MOL0     H97801   5.615   2.710   0.882  0.6578 -2.1916 -0.0393
  741MOL0     H97802   5.864   2.599   0.790 -3.2817  2.6023  1.1301
  741MOL0     H97803   5.813   2.737   0.702 -1.9262 -0.3579 -1.4900
  741MOL0     H97804   6.031   2.711   0.618  1.7036 -0.9714  1.4786
  741MOL0     H97805   5.990   2.539   0.591 -2.6941 -2.0822 -0.9600
  741MOL0     H97806   5.856   2.570   0.428  0.7868 -0.5747 -0.6846
  741MOL0     H97807   5.987   2.690   0.387 -0.2153  2.3949  1.0221
  741MOL0     H97808   5.725   2.772   0.494  0.6800  0.0327  0.0340
  741MOL0     H97809   5.858   2.869   0.435  1.2212 -0.8225 -1.9005
  741MOL0     H97810   5.634   2.707   0.104 -1.4185  0.6470  0.2024
  741MOL0     H97811   5.509   2.519   0.505  2.5634  1.0207  0.7176
  741MOL0     H97812   5.276   2.602   0.536 -1.8302  4.8496  0.0665
  742MOL0     O97813   1.630  10.942   5.530 -0.1497 -0.6628  0.5383
  742MOL0     C97814   1.671  10.947   5.646 -0.7072  0.1500  0.1575
  742MOL0     O97815   1.597  10.934   5.762 -0.3372  0.1827  0.0028
  742MOL0     C97816   1.468  10.881   5.757 -1.2141 -1.0116 -0.4034
  742MOL0     C97817   1.379  10.909   5.862  0.8305 -0.1583 -0.7047
  742MOL0     C97818   1.257  10.851   5.857  0.1283  0.1056  0.1907
  742MOL0     C97819   1.215  10.781   5.750  0.0733  0.0465 -0.2353
  742MOL0     O97820   1.094  10.711   5.765 -0.1371  0.1310  0.9690
  742MOL0     C97821   0.993  10.744   5.667 -0.9571  0.0090 -0.7574
  742MOL0     C97822   0.919  10.874   5.704  0.2951  0.5825  0.1700
  742MOL0     C97823   0.820  10.851   5.820  0.2587  0.3013  0.2064
  742MOL0     C97824   0.679  10.835   5.773  0.1111 -0.9658  0.0285
  742MOL0     C97825   0.576  10.775   5.874 -0.3367 -0.5891 -0.1778
  742MOL0     C97826   0.436  10.762   5.809 -0.4874 -0.0270  0.7250
  742MOL0     C97827   0.322  10.711   5.897 -0.5286  0.5971 -0.1708
  742MOL0     C97828   0.319  10.557   5.912  0.0318  0.0299  0.0679
  742MOL0     N97829   0.265  10.495   6.031  0.3719 -0.4180  0.2486
  742MOL0     C97830   0.184  10.555   6.121 -0.1729 -0.5325 -0.4544
  742MOL0     C97831   0.140  10.459   6.205 -0.4046  0.7090  0.5604
  742MOL0     C97832   0.054  10.479   6.328  0.0757 -0.4824  0.4627
  742MOL0     C97833   0.120  10.448   6.466 -0.3081 -0.3737 -0.1935
  742MOL0     C97834   0.220  10.549   6.512 -0.3264 -0.3105 -0.4960
  742MOL0     C97835   0.158  10.678   6.588 -0.3473  0.0252 -0.1467
  742MOL0     O97836   0.096  10.631   6.705  0.0020  0.7662  0.0092
  742MOL0     C97837  -0.030  10.589   6.704  0.1188 -0.6364 -0.5278
  742MOL0     C97838  -0.124  10.599   6.603 -0.0589 -0.3805  1.2916
  742MOL0     C97839  -0.244  10.534   6.607 -0.2050 -0.1062  0.1768
  742MOL0     C97840  -0.284  10.458   6.719 -0.1766 -0.2921 -0.4254
  742MOL0     C97841  -0.403  10.381   6.719 -0.0703 -0.0044  0.4835
  742MOL0     O97842  -0.494  10.412   6.623 -0.1141  0.0452  0.2464
  742MOL0     C97843  -0.629  10.381   6.638  0.4101  0.3419  0.4978
  742MOL0     C97844  -0.700  10.382   6.758  0.2556 -0.5210 -0.5057
  742MOL0     C97845  -0.842  10.358   6.768 -0.7090  1.2181 -0.3285
  742MOL0     C97846  -0.906  10.329   6.646 -0.7040  0.4942 -0.2963
  742MOL0     O97847  -1.038  10.289   6.635 -0.0700  0.6806 -0.5298
  742MOL0     C97848  -1.061  10.161   6.702  0.2804  0.4249  0.4309
  742MOL0     C97849  -1.196  10.141   6.661  0.1197  0.8273 -0.4752
  742MOL0     C97850  -1.250  10.004   6.706  0.7960 -0.6782  0.0928
  742MOL0     C97851  -1.183   9.890   6.633  0.7645 -0.2021  0.4762
  742MOL0     C97852  -1.251   9.752   6.659  0.2987 -0.3417 -0.2326
  742MOL0     C97853  -1.361   9.721   6.548 -0.1940  0.3867  0.1382
  742MOL0     C97854  -1.458   9.606   6.587  0.2336  0.2378 -0.0612
  742MOL0     C97855  -1.538   9.643   6.722 -0.0308 -0.4951  0.1970
  742MOL0    Cl97856  -1.684   9.537   6.737  0.6456  0.3564 -0.1590
  742MOL0     C97857  -0.828  10.328   6.526  0.2799 -0.3629 -0.4271
  742MOL0     C97858  -0.694  10.369   6.520 -0.2920 -0.3761  0.7734
  742MOL0     O97859  -0.425  10.305   6.810 -0.0325 -0.4399  0.2701
  742MOL0     C97860  -0.187  10.453   6.825  0.3401 -0.1674 -0.4551
  742MOL0     C97861  -0.065  10.514   6.815 -0.4621 -0.5530 -0.3481
  742MOL0     N97862   0.185  10.336   6.160  0.3294  0.4340 -0.2964
  742MOL0     N97863   0.262  10.360   6.056  0.2492  0.4843  0.6876
  742MOL0     C97864   1.304  10.754   5.643  0.2574  0.2698 -0.4842
  742MOL0     C97865   1.430  10.804   5.644 -0.2125 -0.4474 -0.7037
  742MOL0     C97866   1.806  11.008   5.670  0.2506  0.3033 -0.0331
  742MOL0     C97867   1.901  11.016   5.564  0.1525 -0.6086  0.5481
  742MOL0     C97868   2.028  11.062   5.596 -0.4923  0.7435 -0.3056
  742MOL0     C97869   2.066  11.104   5.720  0.4452  0.1186  0.0257
  742MOL0     O97870   2.195  11.145   5.726 -0.6836  0.1236  0.0064
  742MOL0     C97871   2.257  11.187   5.844 -0.6321 -0.1633  0.1675
  742MOL0     C97872   2.230  11.332   5.860  0.3521 -0.0192 -0.4042
  742MOL0     C97873   2.286  11.425   5.755  0.3469 -0.4046 -0.2550
  742MOL0     C97874   2.185  11.437   5.638 -0.1259  0.1527 -0.1442
  742MOL0     C97875   2.062  11.508   5.676 -0.5044  0.3914 -0.3655
  742MOL0     C97876   1.966  11.581   5.694 -0.8980  0.2843  0.5653
  742MOL0     C97877   1.974  11.107   5.826  0.0111 -0.2687  0.5096
  742MOL0     C97878   1.848  11.065   5.793  0.6322 -0.2718  0.6469
  742MOL0     H97879   1.398  10.961   5.956 -0.0368 -1.0483 -0.0077
  742MOL0     H97880   1.189  10.870   5.940  3.1363  0.6998  2.7611
  742MOL0     H97881   0.917  10.666   5.656 -2.2495  1.2015 -0.4995
  742MOL0     H97882   1.037  10.758   5.567 -3.0177  1.5035 -1.5098
  742MOL0     H97883   0.866  10.910   5.616  0.4154  0.1610 -0.0758
  742MOL0     H97884   0.993  10.949   5.735  1.8862 -1.4499  1.5926
  742MOL0     H97885   0.819  10.942   5.880  3.1234  2.7863 -3.1074
  742MOL0     H97886   0.850  10.761   5.875  1.3261 -1.5006 -3.0776
  742MOL0     H97887   0.646  10.928   5.726  2.0770 -0.3134 -0.1542
  742MOL0     H97888   0.683  10.760   5.694  2.2833 -0.0756 -0.7674
  742MOL0     H97889   0.557  10.856   5.944 -0.0206  1.5501 -2.4230
  742MOL0     H97890   0.612  10.682   5.918 -1.5579  0.2085  2.7853
  742MOL0     H97891   0.449  10.702   5.719  0.9966  2.1250 -0.5940
  742MOL0     H97892   0.417  10.863   5.771 -0.0840 -0.1215  0.2600
  742MOL0     H97893   0.332  10.774   5.986  0.7895  0.3548 -0.1364
  742MOL0     H97894   0.224  10.728   5.849 -0.4833  1.1328 -0.0785
  742MOL0     H97895   0.419  10.518   5.892 -0.3894 -0.0115 -2.2775
  742MOL0     H97896   0.247  10.519   5.838  0.0662 -0.5338  0.3202
  742MOL0     H97897   0.155  10.659   6.125 -3.9488 -1.4765  1.6670
  742MOL0     H97898  -0.038  10.420   6.330  0.4936 -1.1157  1.9090
  742MOL0     H97899   0.028  10.585   6.322  2.3218  0.1273  0.5548
  742MOL0     H97900   0.175  10.356   6.443 -0.2812 -1.6969  4.2938
  742MOL0     H97901   0.049  10.419   6.544  0.4877 -1.6743  0.0814
  742MOL0     H97902   0.287  10.496   6.579 -1.1543 -0.3937  0.2825
  742MOL0     H97903   0.279  10.583   6.426 -0.8388  0.7587 -0.4427
  742MOL0     H97904   0.088  10.733   6.524  0.1132 -2.5570 -3.0918
  742MOL0     H97905   0.239  10.747   6.611  1.0949 -0.0956 -4.1142
  742MOL0     H97906  -0.101  10.643   6.507  0.8079  0.1355  1.7323
  742MOL0     H97907  -0.312  10.520   6.524  1.7973 -1.4057 -1.3211
  742MOL0     H97908  -0.646  10.408   6.849 -0.3548 -1.4738  0.1540
  742MOL0     H97909  -0.902  10.373   6.857  0.5788 -1.7930  1.1855
  742MOL0     H97910  -1.049  10.167   6.811  1.6548 -0.7620  0.3806
  742MOL0     H97911  -0.997  10.080   6.665  1.0222  1.1525  0.1155
  742MOL0     H97912  -1.213  10.159   6.555 -3.5333 -1.3687 -0.4405
  742MOL0     H97913  -1.248  10.215   6.723  0.8043  2.6063 -1.9699
  742MOL0     H97914  -1.359  10.017   6.702  1.0916  3.3429  0.3581
  742MOL0     H97915  -1.228   9.981   6.811 -2.9090  2.2753  1.7627
  742MOL0     H97916  -1.181   9.917   6.527  1.4813 -0.9503  0.2873
  742MOL0     H97917  -1.080   9.890   6.672  0.4145 -0.3322  1.4452
  742MOL0     H97918  -1.303   9.757   6.756  1.9875 -2.6646  0.9118
  742MOL0     H97919  -1.173   9.678   6.680  1.1870  1.0060  1.5113
  742MOL0     H97920  -1.295   9.692   6.465 -1.9198 -3.7340 -0.0359
  742MOL0     H97921  -1.416   9.814   6.532 -1.8619 -0.7303 -0.9868
  742MOL0     H97922  -1.534   9.587   6.511  1.8096  0.4707 -1.7644
  742MOL0     H97923  -1.399   9.515   6.603  2.8213  1.5488 -1.4570
  742MOL0     H97924  -1.559   9.749   6.709  2.0740 -0.3002 -2.7893
  742MOL0     H97925  -1.463   9.639   6.802  3.0030 -0.7510 -2.4252
  742MOL0     H97926  -0.878  10.301   6.434 -0.6252  0.5428 -0.2275
  742MOL0     H97927  -0.639  10.397   6.430  3.5755 -0.0992  2.9942
  742MOL0     H97928  -0.199  10.392   6.914 -0.2273  0.4808 -0.0758
  742MOL0     H97929   0.004  10.503   6.898 -0.8830 -1.7413 -0.1326
  742MOL0     H97930   1.285  10.701   5.550 -0.6577  1.2979 -0.9041
  742MOL0     H97931   1.496  10.777   5.562 -1.1143 -2.6817 -0.7585
  742MOL0     H97932   1.884  10.958   5.475 -0.5862  0.8578 -0.3144
  742MOL0     H97933   2.106  11.072   5.520  0.8524 -0.9638  0.7827
  742MOL0     H97934   2.364  11.175   5.826 -0.5266  3.8618 -3.7048
  742MOL0     H97935   2.238  11.134   5.938  0.2726 -0.8967 -0.0498
  742MOL0     H97936   2.122  11.339   5.873  0.4447 -0.8371  0.9344
  742MOL0     H97937   2.267  11.362   5.959 -4.5572  0.5619  1.5205
  742MOL0     H97938   2.387  11.403   5.720 -0.3766 -0.0917 -2.7688
  742MOL0     H97939   2.301  11.522   5.803  1.8645 -0.7862  0.0887
  742MOL0     H97940   2.237  11.484   5.554 -0.8631 -0.8625 -1.2037
  742MOL0     H97941   2.165  11.337   5.599  0.6859 -0.5810  1.2453
  742MOL0     H97942   1.887  11.653   5.703 -1.8214 -0.3656 -1.7047
  742MOL0     H97943   2.006  11.126   5.928  0.9350 -1.6854  0.5037
  742MOL0     H97944   1.787  11.055   5.882  2.3944  1.4758  2.1424
  743MOL0     O97945   1.292   9.601   1.742  0.6184 -0.6232 -0.1013
  743MOL0     C97946   1.327   9.610   1.621 -0.6727  0.4668 -0.7556
  743MOL0     O97947   1.249   9.584   1.514 -0.0120 -0.5089 -0.4611
  743MOL0     C97948   1.115   9.579   1.532  0.7968  0.1519  0.1579
  743MOL0     C97949   1.046   9.461   1.573 -0.4192  0.3115  0.0030
  743MOL0     C97950   0.911   9.449   1.594  0.1577 -0.0592  0.6699
  743MOL0     C97951   0.832   9.566   1.567  0.1605 -0.0462 -0.6075
  743MOL0     O97952   0.695   9.579   1.586 -0.5220  0.0065  0.6038
  743MOL0     C97953   0.617   9.457   1.578 -0.0557  0.5242 -0.0396
  743MOL0     C97954   0.473   9.500   1.594  0.6417  0.6623  0.6246
  743MOL0     C97955   0.374   9.388   1.565 -0.1306  0.0245  0.5697
  743MOL0     C97956   0.241   9.448   1.533 -0.0975  0.2487  0.0356
  743MOL0     C97957   0.140   9.335   1.497 -0.9643 -0.4525 -0.4146
  743MOL0     C97958   0.007   9.401   1.440 -0.8205 -0.7896 -0.0257
  743MOL0     C97959  -0.103   9.297   1.406 -0.4724  0.2036 -0.9482
  743MOL0     C97960  -0.065   9.196   1.304  0.3847 -0.3922 -0.3957
  743MOL0     N97961  -0.018   9.247   1.176  0.1571 -0.1820 -0.1034
  743MOL0     C97962  -0.104   9.319   1.092 -0.0576  0.0171  0.2212
  743MOL0     C97963  -0.034   9.341   0.975 -0.4615 -0.5948  0.0955
  743MOL0     C97964  -0.092   9.411   0.854  0.0100  0.5540 -0.1508
  743MOL0     C97965  -0.093   9.309   0.733 -0.5614  0.1479  0.3798
  743MOL0     C97966  -0.136   9.371   0.597 -0.3139  0.4497 -0.0112
  743MOL0     C97967  -0.129   9.267   0.482  0.7415  0.3343 -0.2746
  743MOL0     O97968  -0.239   9.176   0.513 -0.3242 -0.7647  0.9248
  743MOL0     C97969  -0.365   9.193   0.457  0.9896  0.1323 -0.0193
  743MOL0     C97970  -0.472   9.118   0.507  0.6663  0.3834  0.5080
  743MOL0     C97971  -0.603   9.131   0.456 -0.2509 -0.3268  0.4758
  743MOL0     C97972  -0.633   9.221   0.355 -0.5607 -0.4827  0.1071
  743MOL0     C97973  -0.770   9.228   0.303  0.0755  1.1579  0.1628
  743MOL0     O97974  -0.800   9.287   0.175  0.5807  0.8148  0.2262
  743MOL0     C97975  -0.929   9.296   0.126 -0.1962 -0.3151  0.5387
  743MOL0     C97976  -0.945   9.378   0.008  0.8930  0.4536 -1.0029
  743MOL0     C97977  -1.062   9.378  -0.058  0.5821 -0.7008  0.6999
  743MOL0     C97978  -1.172   9.302  -0.015 -0.2217 -0.4180  0.4532
  743MOL0     O97979  -1.282   9.301  -0.101 -0.3123 -0.1949 -0.1451
  743MOL0     C97980  -1.396   9.241  -0.059 -1.2079  0.7950  0.0179
  743MOL0     C97981  -1.491   9.259  -0.175 -0.3204  0.4110  0.3740
  743MOL0     C97982  -1.624   9.194  -0.161  0.3708  0.0014 -0.3037
  743MOL0     C97983  -1.699   9.192  -0.298 -0.1239 -1.2240 -0.1473
  743MOL0     C97984  -1.826   9.115  -0.267  0.4909 -0.9546 -0.5378
  743MOL0     C97985  -1.913   9.116  -0.390  0.3163  0.4103 -0.4011
  743MOL0     C97986  -2.044   9.034  -0.361  0.7312 -0.6310  0.7600
  743MOL0     C97987  -2.134   9.014  -0.491  0.6656 -0.3283 -0.0258
  743MOL0    Cl97988  -2.176   9.179  -0.537 -0.0648 -0.2416 -0.1814
  743MOL0     C97989  -1.154   9.213   0.098  0.3982  0.1132  0.3307
  743MOL0     C97990  -1.041   9.226   0.171 -0.2038 -0.6378  0.5063
  743MOL0     O97991  -0.851   9.206   0.391 -0.4866  0.6026 -0.0707
  743MOL0     C97992  -0.535   9.306   0.311 -0.0185 -0.6546  0.8188
  743MOL0     C97993  -0.403   9.294   0.361 -1.0780  0.2720 -0.2637
  743MOL0     N97994   0.098   9.309   0.998 -0.2795  0.0249 -0.0993
  743MOL0     N97995   0.105   9.250   1.113 -0.0160 -0.0798 -0.0872
  743MOL0     C97996   0.893   9.691   1.538 -0.9392  0.5900  1.1190
  743MOL0     C97997   1.031   9.688   1.508  0.1485  0.1020 -0.7475
  743MOL0     C97998   1.471   9.624   1.589  0.1769 -0.4680 -0.4616
  743MOL0     C97999   1.557   9.678   1.679  0.3031 -0.2012 -0.8525
  743MOL0     C98000   1.692   9.690   1.653  0.0077 -0.3645  0.7286
  743MOL0     C98001   1.739   9.633   1.532 -0.2675  0.6260  0.1039
  743MOL0     O98002   1.878   9.638   1.535  0.9671  0.2081 -0.6395
  743MOL0     C98003   1.940   9.524   1.585  0.2732 -0.6005 -0.2812
  743MOL0     C98004   2.087   9.515   1.541  0.1912 -0.8512  0.1915
  743MOL0     C98005   2.176   9.404   1.606  0.9579 -0.2414  1.3323
  743MOL0     C98006   2.159   9.380   1.756  0.3668 -0.0906 -0.0714
  743MOL0     C98007   2.273   9.303   1.806 -0.1599 -0.3464 -0.3459
  743MOL0     C98008   2.376   9.233   1.839  0.0282  0.2609  0.8017
  743MOL0     C98009   1.650   9.602   1.427 -0.1649 -0.2809  0.9048
  743MOL0     C98010   1.519   9.597   1.460  0.3234  1.2353 -0.3419
  743MOL0     H98011   1.117   9.382   1.596 -0.5609  0.0822 -0.3407
  743MOL0     H98012   0.875   9.351   1.624  0.6351 -0.5225 -0.2152
  743MOL0     H98013   0.634   9.405   1.672 -0.6399  0.4634  0.0326
  743MOL0     H98014   0.641   9.398   1.488 -1.6111  2.2551 -1.6827
  743MOL0     H98015   0.461   9.587   1.528 -1.5496  1.7646  2.3208
  743MOL0     H98016   0.454   9.528   1.698 -3.9260 -1.8152  0.6726
  743MOL0     H98017   0.351   9.327   1.654 -0.9553  0.5765  0.7531
  743MOL0     H98018   0.408   9.317   1.489 -0.8631 -0.2678  0.5064
  743MOL0     H98019   0.212   9.509   1.620  3.0484  1.6214  0.2883
  743MOL0     H98020   0.253   9.513   1.446 -2.2148 -1.0643 -1.3122
  743MOL0     H98021   0.120   9.270   1.584 -0.8720 -0.4071 -0.3587
  743MOL0     H98022   0.197   9.281   1.421  1.2757  0.2970  0.6394
  743MOL0     H98023   0.016   9.472   1.358  2.4179  0.7383  1.4704
  743MOL0     H98024  -0.042   9.454   1.523 -2.0641  0.1347 -1.3177
  743MOL0     H98025  -0.142   9.251   1.497 -0.7856  0.6789 -0.8408
  743MOL0     H98026  -0.179   9.359   1.360 -0.4642 -0.1325 -1.4237
  743MOL0     H98027  -0.159   9.148   1.279 -1.1920  2.7968 -1.1907
  743MOL0     H98028   0.011   9.123   1.331  1.3913 -0.1500 -2.3829
  743MOL0     H98029  -0.209   9.345   1.103  0.2126  2.3125 -1.6791
  743MOL0     H98030  -0.027   9.497   0.833 -0.4299  0.8054 -0.4898
  743MOL0     H98031  -0.194   9.448   0.866  0.0505  2.0084 -3.2988
  743MOL0     H98032  -0.157   9.222   0.745  0.5721 -0.8382 -0.4423
  743MOL0     H98033   0.009   9.274   0.714 -0.2556  0.1949  1.7809
  743MOL0     H98034  -0.227   9.431   0.592  0.6114  1.8973 -0.1157
  743MOL0     H98035  -0.057   9.440   0.564 -0.5457  1.2278  1.0135
  743MOL0     H98036  -0.039   9.207   0.494 -0.5411 -1.6397 -0.0978
  743MOL0     H98037  -0.135   9.305   0.379 -0.1918  2.6787  0.5601
  743MOL0     H98038  -0.436   9.047   0.582  1.4631 -1.0738 -1.1838
  743MOL0     H98039  -0.690   9.076   0.490  0.0952 -1.7446 -0.8597
  743MOL0     H98040  -0.852   9.426  -0.020  0.4790  1.2349 -1.0542
  743MOL0     H98041  -1.064   9.432  -0.152 -0.9230 -1.2874  0.3586
  743MOL0     H98042  -1.429   9.274   0.040 -0.4138 -4.5780  2.4527
  743MOL0     H98043  -1.378   9.133  -0.052 -1.5089  0.8545  2.4507
  743MOL0     H98044  -1.433   9.214  -0.256 -0.2424 -1.2703  1.3036
  743MOL0     H98045  -1.512   9.366  -0.184 -1.6291 -0.0114 -2.8854
  743MOL0     H98046  -1.678   9.247  -0.082 -0.6820 -0.1529 -0.9085
  743MOL0     H98047  -1.617   9.094  -0.119  2.2625 -0.2638 -1.1563
  743MOL0     H98048  -1.717   9.293  -0.335 -0.5517 -0.2440  2.4935
  743MOL0     H98049  -1.644   9.137  -0.374  1.2894  0.0473 -0.0904
  743MOL0     H98050  -1.883   9.166  -0.189  0.3172  1.3759 -2.0748
  743MOL0     H98051  -1.807   9.009  -0.248 -2.7747 -1.5605 -0.1402
  743MOL0     H98052  -1.857   9.068  -0.470  0.8597  0.3486  0.0144
  743MOL0     H98053  -1.942   9.214  -0.430 -2.5310 -0.9657 -2.0327
  743MOL0     H98054  -2.016   8.936  -0.320  3.2790  0.1326  1.0215
  743MOL0     H98055  -2.102   9.094  -0.290 -3.4291 -3.1955 -0.1601
  743MOL0     H98056  -2.221   8.951  -0.472  0.9460 -0.2803  1.5600
  743MOL0     H98057  -2.084   8.958  -0.570  0.0633 -0.2319 -0.4767
  743MOL0     H98058  -1.222   9.135   0.131  2.2280 -0.7952  2.1881
  743MOL0     H98059  -1.033   9.154   0.252  3.4255  1.6982  2.5337
  743MOL0     H98060  -0.547   9.391   0.245  3.8009  1.2789  2.3223
  743MOL0     H98061  -0.332   9.366   0.323 -1.2238  1.2502  1.2402
  743MOL0     H98062   0.835   9.782   1.528 -3.6903 -1.2154 -7.0309
  743MOL0     H98063   1.083   9.782   1.493 -0.0732  0.0564 -1.8540
  743MOL0     H98064   1.516   9.717   1.772  1.9550 -1.3071  0.3919
  743MOL0     H98065   1.751   9.729   1.735  0.3031 -0.5295  0.5971
  743MOL0     H98066   1.884   9.437   1.549  0.1113 -2.1271  3.1848
  743MOL0     H98067   1.936   9.526   1.695  1.8462  4.3132 -0.0780
  743MOL0     H98068   2.091   9.488   1.435  3.6050 -2.7643  0.6701
  743MOL0     H98069   2.132   9.613   1.559 -1.9155  0.5026 -1.3371
  743MOL0     H98070   2.277   9.441   1.584  0.3808 -0.5096 -2.5008
  743MOL0     H98071   2.163   9.306   1.559  1.0841 -0.4208  1.6649
  743MOL0     H98072   2.149   9.479   1.801  2.3534  0.0269  0.2136
  743MOL0     H98073   2.068   9.325   1.780 -0.3395  0.9599 -0.2910
  743MOL0     H98074   2.474   9.191   1.846  0.8302  1.9592  0.4317
  743MOL0     H98075   1.674   9.566   1.327 -2.5378 -1.0769  0.5667
  743MOL0     H98076   1.454   9.550   1.387 -1.7939  1.0727  1.5132
  744MOL0     O98077   7.517   9.464   0.341  0.7817  0.1393 -0.6826
  744MOL0     C98078   7.566   9.355   0.308  0.4963 -0.2851  0.4416
  744MOL0     O98079   7.493   9.251   0.261  0.2738  0.0178  0.3979
  744MOL0     C98080   7.361   9.280   0.231 -0.2247  0.4613  0.0181
  744MOL0     C98081   7.265   9.301   0.325 -0.1299  0.3960  0.6894
  744MOL0     C98082   7.130   9.312   0.276  0.7533  0.4335  0.1956
  744MOL0     C98083   7.094   9.316   0.145 -0.5838 -0.3605  0.1150
  744MOL0     O98084   6.970   9.352   0.111 -0.0053  0.5122  0.5014
  744MOL0     C98085   6.863   9.297   0.194 -0.2893 -0.2099 -0.9974
  744MOL0     C98086   6.732   9.334   0.130  0.0053 -0.0825 -0.6535
  744MOL0     C98087   6.686   9.478   0.137 -1.1103 -0.9303  0.1597
  744MOL0     C98088   6.576   9.505   0.035 -0.9031 -0.4475 -0.4501
  744MOL0     C98089   6.511   9.646   0.057  0.0539 -0.1384  0.0449
  744MOL0     C98090   6.398   9.652  -0.041  0.6922 -0.6952  0.6310
  744MOL0     C98091   6.287   9.753   0.002  0.4279 -0.1189 -0.2178
  744MOL0     C98092   6.177   9.760  -0.103  0.0694  0.8779  0.1985
  744MOL0     N98093   6.059   9.829  -0.059  0.5169  0.0112 -0.4385
  744MOL0     C98094   5.975   9.812   0.053 -0.7164  0.8513  0.1347
  744MOL0     C98095   5.886   9.907   0.054  0.1701  0.4708  0.1365
  744MOL0     C98096   5.781   9.937   0.158 -0.6156 -0.0868 -0.1633
  744MOL0     C98097   5.810  10.068   0.228  0.5949  0.4355  1.0822
  744MOL0     C98098   5.708  10.087   0.341  0.5406 -0.7636 -0.1783
  744MOL0     C98099   5.554  10.075   0.307 -0.3522  0.1324 -0.6571
  744MOL0     O98100   5.472  10.085   0.417 -0.2103  0.5794 -0.7112
  744MOL0     C98101   5.338  10.055   0.403 -0.2099  1.0234  1.0886
  744MOL0     C98102   5.261  10.068   0.516 -0.1462  0.5187 -0.5527
  744MOL0     C98103   5.131  10.030   0.522  0.4808 -0.3119  0.1163
  744MOL0     C98104   5.060   9.983   0.406 -0.3285  0.4167 -0.0837
  744MOL0     C98105   4.918   9.938   0.397 -0.3284 -0.0231 -0.5789
  744MOL0     O98106   4.852   9.925   0.513 -0.0659 -0.1256  0.7140
  744MOL0     C98107   4.742   9.843   0.499  0.3027 -1.2457 -0.6231
  744MOL0     C98108   4.724   9.731   0.570  1.2159  0.3528 -0.8828
  744MOL0     C98109   4.622   9.638   0.553 -0.2980 -0.5391  0.0924
  744MOL0     C98110   4.518   9.667   0.460 -0.0468 -0.1013  0.4067
  744MOL0     O98111   4.425   9.569   0.443 -0.3807 -0.0511 -0.3319
  744MOL0     C98112   4.300   9.606   0.382  0.7337 -0.3520 -0.8122
  744MOL0     C98113   4.207   9.483   0.358 -0.7430 -0.6350 -0.7967
  744MOL0     C98114   4.087   9.481   0.453 -0.2669 -0.1372 -0.5790
  744MOL0     C98115   3.990   9.363   0.422 -0.0584  0.3481  0.6004
  744MOL0     C98116   3.865   9.385   0.514  0.1348  0.2426  0.7940
  744MOL0     C98117   3.781   9.259   0.504 -0.3469 -0.3378  0.2659
  744MOL0     C98118   3.668   9.261   0.608 -0.3841 -0.4081  0.0691
  744MOL0     C98119   3.560   9.165   0.578  0.2483 -0.2831 -0.1734
  744MOL0    Cl98120   3.590   9.017   0.481  0.0588  0.1322 -0.1186
  744MOL0     C98121   4.529   9.785   0.391 -0.4630 -1.1951  0.2830
  744MOL0     C98122   4.631   9.881   0.419 -0.0929  0.5408 -0.4570
  744MOL0     O98123   4.874   9.917   0.284 -0.0187  0.8807 -0.1692
  744MOL0     C98124   5.137   9.971   0.290  0.2194 -0.0206 -0.5311
  744MOL0     C98125   5.273  10.006   0.281 -0.1865  0.1633 -0.0307
  744MOL0     N98126   5.911   9.987  -0.054  0.2506 -0.1596 -0.1319
  744MOL0     N98127   6.018   9.947  -0.116 -0.1673 -0.5376  0.0873
  744MOL0     C98128   7.196   9.284   0.047  0.2936  0.3024 -0.7858
  744MOL0     C98129   7.322   9.256   0.096 -0.5404 -0.2100 -0.1699
  744MOL0     C98130   7.707   9.333   0.356 -0.2272  0.5333 -0.0343
  744MOL0     C98131   7.768   9.214   0.336  0.2863  0.4347 -0.0640
  744MOL0     C98132   7.909   9.202   0.358 -0.2593  0.7023 -0.4030
  744MOL0     C98133   7.989   9.315   0.405 -0.8640 -0.1617 -0.6822
  744MOL0     O98134   8.120   9.302   0.420 -0.2538 -0.4298  0.5381
  744MOL0     C98135   8.191   9.415   0.481 -0.2649  1.2033  0.7539
  744MOL0     C98136   8.330   9.366   0.534  0.2249 -0.2972 -0.0545
  744MOL0     C98137   8.439   9.480   0.524 -0.3972 -0.2984 -0.4551
  744MOL0     C98138   8.574   9.434   0.604  0.5393  0.6229 -0.0788
  744MOL0     C98139   8.666   9.548   0.624  0.7850 -0.7920 -0.1952
  744MOL0     C98140   8.733   9.648   0.643 -0.1396 -0.3769  0.4214
  744MOL0     C98141   7.916   9.429   0.440  0.8743 -1.1332  0.0247
  744MOL0     C98142   7.782   9.443   0.404 -0.2097 -0.1334  0.3530
  744MOL0     H98143   7.293   9.303   0.429  3.5633  1.1999 -0.1833
  744MOL0     H98144   7.060   9.312   0.359  0.3886 -3.1628  0.0446
  744MOL0     H98145   6.863   9.341   0.294  0.3295  1.3334 -1.6541
  744MOL0     H98146   6.872   9.188   0.190  1.7095 -0.1988  1.3119
  744MOL0     H98147   6.654   9.271   0.174  0.6701 -2.1380 -2.2478
  744MOL0     H98148   6.746   9.300   0.027 -0.1958 -0.0825 -0.6807
  744MOL0     H98149   6.770   9.544   0.114 -1.4212 -0.6115 -0.0669
  744MOL0     H98150   6.648   9.505   0.236 -2.5306  1.7356 -1.0100
  744MOL0     H98151   6.623   9.494  -0.063  0.1684 -1.3874  0.1403
  744MOL0     H98152   6.511   9.419   0.052  1.6811 -2.1804  1.6148
  744MOL0     H98153   6.579   9.725   0.022  0.1378 -1.4157 -2.9890
  744MOL0     H98154   6.477   9.661   0.160 -1.9506  0.9429 -0.6992
  744MOL0     H98155   6.365   9.553  -0.075 -0.0449  0.4981 -2.4978
  744MOL0     H98156   6.443   9.694  -0.131  1.9368  3.1243  2.8217
  744MOL0     H98157   6.256   9.715   0.099  1.1591 -1.0358 -0.3234
  744MOL0     H98158   6.331   9.852   0.010  1.4868 -0.5339 -0.6989
  744MOL0     H98159   6.135   9.660  -0.122 -0.7124  0.4825  3.2837
  744MOL0     H98160   6.226   9.790  -0.195  1.4892 -0.1262  0.5817
  744MOL0     H98161   5.983   9.734   0.128 -0.8607  0.5326 -0.1822
  744MOL0     H98162   5.778   9.848   0.222  1.1473  0.6621  1.0372
  744MOL0     H98163   5.689   9.961   0.105 -1.0775 -0.9740  0.2058
  744MOL0     H98164   5.800  10.152   0.159 -1.0330 -0.0506  0.6741
  744MOL0     H98165   5.908  10.078   0.275  1.1018  1.3003 -0.1107
  744MOL0     H98166   5.734  10.033   0.432  1.2057  4.4772  3.1776
  744MOL0     H98167   5.720  10.190   0.375 -0.9690 -0.7688  0.4461
  744MOL0     H98168   5.536   9.975   0.266 -0.8342 -0.2429  0.4427
  744MOL0     H98169   5.531  10.144   0.225  1.7743 -1.2982 -2.5610
  744MOL0     H98170   5.315  10.097   0.606 -0.0622  0.2332 -0.5111
  744MOL0     H98171   5.072  10.040   0.613  2.5626 -3.1897  1.9642
  744MOL0     H98172   4.801   9.710   0.643  0.5119  2.9477  0.7170
  744MOL0     H98173   4.602   9.557   0.623 -0.0604 -1.4151 -0.8367
  744MOL0     H98174   4.327   9.641   0.282  2.4637 -0.8781 -0.5577
  744MOL0     H98175   4.247   9.684   0.438 -1.9915 -4.2861  2.7263
  744MOL0     H98176   4.268   9.393   0.357 -1.0998 -1.0449  2.4298
  744MOL0     H98177   4.157   9.489   0.261  0.5901 -0.0651 -1.4775
  744MOL0     H98178   4.043   9.581   0.454  2.4544  1.1454  0.1094
  744MOL0     H98179   4.120   9.464   0.556  1.2956 -1.9119 -1.3184
  744MOL0     H98180   3.966   9.359   0.316 -0.5183 -2.5502  0.7561
  744MOL0     H98181   4.048   9.275   0.450 -0.1061 -0.6550 -2.1715
  744MOL0     H98182   3.805   9.470   0.478 -0.5635  0.7531  2.9897
  744MOL0     H98183   3.897   9.407   0.617 -1.2343 -0.8266  1.4910
  744MOL0     H98184   3.840   9.168   0.517 -1.0802 -0.7743  0.6023
  744MOL0     H98185   3.738   9.273   0.405 -0.1960 -2.6906 -0.1825
  744MOL0     H98186   3.712   9.232   0.704 -0.1683  0.9284  0.3930
  744MOL0     H98187   3.616   9.357   0.618 -2.9102 -1.6944  0.1609
  744MOL0     H98188   3.480   9.225   0.532 -0.5440 -1.2010 -0.0290
  744MOL0     H98189   3.512   9.137   0.672 -1.0986 -0.2590 -0.8221
  744MOL0     H98190   4.450   9.823   0.327  1.5312 -0.2363 -1.7627
  744MOL0     H98191   4.627   9.983   0.385 -1.5291  0.1706 -1.5011
  744MOL0     H98192   5.073   9.940   0.208  0.3254  1.8820 -1.3714
  744MOL0     H98193   5.327   9.997   0.188 -3.4836  0.2407 -2.1006
  744MOL0     H98194   7.167   9.270  -0.056 -2.8000 -0.2202  0.0642
  744MOL0     H98195   7.396   9.209   0.032  0.7367  0.2639  0.9084
  744MOL0     H98196   7.713   9.127   0.301 -4.1470  3.0550 -0.2294
  744MOL0     H98197   7.972   9.118   0.331  2.1112  1.6180  1.8797
  744MOL0     H98198   8.140   9.467   0.563  1.1671 -0.5084  2.8299
  744MOL0     H98199   8.212   9.490   0.404  3.8672  0.2848  0.7491
  744MOL0     H98200   8.321   9.341   0.640  2.6050  1.1015  0.5414
  744MOL0     H98201   8.360   9.282   0.470  0.4330 -1.7233  1.8251
  744MOL0     H98202   8.390   9.567   0.568 -1.1966 -1.3181  0.7489
  744MOL0     H98203   8.458   9.504   0.419 -0.2362 -0.3119 -0.4294
  744MOL0     H98204   8.553   9.400   0.706  2.8322 -0.5482  0.0775
  744MOL0     H98205   8.632   9.365   0.542  2.5352  0.0496  2.2798
  744MOL0     H98206   8.787   9.739   0.661 -0.1687 -0.2391 -0.1473
  744MOL0     H98207   7.960   9.524   0.469  1.6338 -1.0353 -1.3837
  744MOL0     H98208   7.727   9.535   0.421  1.1429  1.2156 -1.9264
  745MOL0     O98209  10.128  10.693  10.391 -0.3923  0.0346  0.0557
  745MOL0     C98210  10.058  10.636  10.475  0.1305  0.3567 -0.0240
  745MOL0     O98211  10.082  10.627  10.605  0.8928  0.3381  0.6121
  745MOL0     C98212  10.149  10.731  10.665  0.7117 -0.0537  0.3337
  745MOL0     C98213  10.263  10.799  10.644  0.2377  0.0813  0.1897
  745MOL0     C98214  10.313  10.903  10.717  0.1618 -0.2985 -1.0169
  745MOL0     C98215  10.237  10.951  10.834  0.0443 -0.0424  1.3391
  745MOL0     O98216  10.277  11.067  10.896  0.0170  0.0186 -0.4043
  745MOL0     C98217  10.173  11.140  10.974 -1.1371 -0.7305 -0.3878
  745MOL0     C98218  10.239  11.271  11.030 -0.5099  0.2290 -0.7315
  745MOL0     C98219  10.289  11.359  10.918 -0.4790  0.6461  0.0434
  745MOL0     C98220  10.338  11.493  10.983  0.6225 -0.4510  0.0451
  745MOL0     C98221  10.408  11.586  10.883 -0.0254 -0.0987  0.4280
  745MOL0     C98222  10.553  11.547  10.862  0.6925  0.0567 -0.6907
  745MOL0     C98223  10.627  11.616  10.747 -0.9920 -0.4124  0.1972
  745MOL0     C98224  10.674  11.759  10.772  0.0707  0.6631  0.0094
  745MOL0     N98225  10.782  11.802  10.679  0.0276 -0.5562  0.6219
  745MOL0     C98226  10.778  11.787  10.542  0.4416 -0.8601  0.7584
  745MOL0     C98227  10.889  11.854  10.505  0.1914  0.6730 -0.6742
  745MOL0     C98228  10.903  11.881  10.361  0.6524 -0.6707  0.2486
  745MOL0     C98229  11.038  11.949  10.335  0.0229 -0.4423  0.3674
  745MOL0     C98230  11.061  11.943  10.182 -0.6156 -0.0192  0.2739
  745MOL0     C98231  11.031  12.073  10.101 -0.6706  0.6747  0.0331
  745MOL0     O98232  10.928  12.151  10.155  0.4546 -0.1489 -0.4077
  745MOL0     C98233  10.800  12.119  10.135  0.5510 -0.1728 -0.0921
  745MOL0     C98234  10.701  12.203  10.199 -0.1010 -0.3012  0.4360
  745MOL0     C98235  10.568  12.169  10.179  0.1046  0.4545 -0.9167
  745MOL0     C98236  10.530  12.071  10.087 -0.2425 -0.2351 -0.4046
  745MOL0     C98237  10.393  12.052  10.030  0.0084 -0.0377  0.3979
  745MOL0     O98238  10.365  11.924   9.990  0.2818 -0.2518  0.6234
  745MOL0     C98239  10.236  11.881   9.969 -0.2610 -0.7287 -0.8460
  745MOL0     C98240  10.159  11.859  10.076  0.7189  0.0155 -0.0579
  745MOL0     C98241  10.018  11.837  10.051 -0.6463 -0.2187  0.9344
  745MOL0     C98242   9.959  11.825   9.927 -0.0741 -0.0623  0.4544
  745MOL0     O98243   9.834  11.771   9.926  1.2675  0.3563  0.7582
  745MOL0     C98244   9.765  11.768   9.800  0.9239  0.0244 -0.3078
  745MOL0     C98245   9.616  11.771   9.827 -1.5192  0.6592  0.0781
  745MOL0     C98246   9.536  11.764   9.692 -0.3324 -0.7439  0.1288
  745MOL0     C98247   9.380  11.768   9.699 -0.0959  0.5723 -0.5378
  745MOL0     C98248   9.328  11.641   9.780  1.1651  0.0868 -0.2829
  745MOL0     C98249   9.357  11.497   9.711 -0.1147 -0.8209 -0.9698
  745MOL0     C98250   9.277  11.390   9.779 -0.0216 -0.3925 -0.2690
  745MOL0     C98251   9.290  11.380   9.932  0.5466 -0.6847 -0.3482
  745MOL0    Cl98252   9.452  11.333   9.980  0.2826  0.3384  0.0137
  745MOL0     C98253  10.045  11.823   9.819  0.0767 -0.5582 -0.8260
  745MOL0     C98254  10.187  11.852   9.838 -0.0627 -0.0707  0.2652
  745MOL0     O98255  10.317  12.149  10.015 -0.2814  0.0526  0.0498
  745MOL0     C98256  10.632  11.991  10.023  1.1843 -0.5664  0.3024
  745MOL0     C98257  10.764  12.011  10.050  0.1931 -0.1570  1.0826
  745MOL0     N98258  10.953  11.902  10.621 -0.0712  0.8373  0.3824
  745MOL0     N98259  10.884  11.879  10.724 -0.1113  0.2029  0.2440
  745MOL0     C98260  10.123  10.880  10.863 -0.1188  0.2678 -0.0372
  745MOL0     C98261  10.072  10.775  10.777 -0.4421 -0.1085 -0.0798
  745MOL0     C98262   9.948  10.547  10.423 -0.6433 -0.6925  0.5958
  745MOL0     C98263   9.889  10.454  10.508  0.1290  0.4468  0.6113
  745MOL0     C98264   9.797  10.355  10.460 -0.5407 -0.3838  0.0509
  745MOL0     C98265   9.739  10.369  10.327 -0.1886  0.2256 -0.1061
  745MOL0     O98266   9.633  10.288  10.288  0.6578 -0.1699 -0.6841
  745MOL0     C98267   9.607  10.246  10.152  0.5587  0.5605  0.5901
  745MOL0     C98268   9.611  10.089  10.139  1.1044 -0.5296  0.5954
  745MOL0     C98269   9.470  10.034  10.129 -0.2339 -0.2393  0.5863
  745MOL0     C98270   9.476   9.896  10.185 -0.5370 -0.2730  1.1038
  745MOL0     C98271   9.352   9.836  10.137 -0.1114  0.2301 -0.4457
  745MOL0     C98272   9.255   9.781  10.104 -0.6013 -0.2635  0.4816
  745MOL0     C98273   9.783  10.476  10.248  0.1152 -0.0556  0.0808
  745MOL0     C98274   9.883  10.563  10.290  0.1840 -0.8551  0.1758
  745MOL0     H98275  10.316  10.782  10.551 -1.8215  2.8631 -1.6525
  745MOL0     H98276  10.393  10.970  10.688 -2.4441  5.0206  2.5772
  745MOL0     H98277  10.150  11.081  11.063 -1.0840  0.3708  0.3817
  745MOL0     H98278  10.092  11.162  10.903 -1.1864 -1.9201 -0.7249
  745MOL0     H98279  10.325  11.236  11.089  0.1143  0.4445 -1.5021
  745MOL0     H98280  10.168  11.332  11.087 -1.0728 -2.5226  1.7615
  745MOL0     H98281  10.222  11.369  10.832  0.9668  0.7999 -1.1086
  745MOL0     H98282  10.375  11.321  10.862  0.1339  3.3174 -0.9790
  745MOL0     H98283  10.250  11.543  11.025 -1.3255 -2.7391 -1.1397
  745MOL0     H98284  10.412  11.483  11.064  0.2847 -1.5214  0.2319
  745MOL0     H98285  10.414  11.689  10.919  0.5874 -0.3848  1.1599
  745MOL0     H98286  10.355  11.576  10.787  2.2568  0.3256 -0.9354
  745MOL0     H98287  10.552  11.440  10.839  1.4782  0.2171 -1.5639
  745MOL0     H98288  10.613  11.559  10.952  1.9462 -0.9751 -1.3674
  745MOL0     H98289  10.719  11.560  10.726 -1.2147 -0.6086 -0.2765
  745MOL0     H98290  10.564  11.612  10.657  0.8878  1.4672 -1.2969
  745MOL0     H98291  10.715  11.754  10.873 -0.4145 -0.5583  0.1662
  745MOL0     H98292  10.590  11.829  10.775 -2.1456 -1.8011  0.0837
  745MOL0     H98293  10.712  11.727  10.480  0.5790 -2.6706  2.2743
  745MOL0     H98294  10.827  11.950  10.321  1.1530  0.0101  0.4441
  745MOL0     H98295  10.893  11.794  10.296 -3.5797  1.0319 -1.7571
  745MOL0     H98296  11.116  11.890  10.385 -0.8332  0.4538  2.9329
  745MOL0     H98297  11.040  12.051  10.374 -1.7980 -1.0683  2.3008
  745MOL0     H98298  11.165  11.918  10.162  0.3075  0.0189  4.1981
  745MOL0     H98299  11.004  11.858  10.143 -1.7620 -0.0844  1.9487
  745MOL0     H98300  11.010  12.050   9.996 -1.0677 -0.6437  0.3825
  745MOL0     H98301  11.124  12.130  10.099  0.6819 -1.3474  1.4029
  745MOL0     H98302  10.735  12.290  10.253 -1.5477  0.3778  0.3003
  745MOL0     H98303  10.484  12.224  10.220 -0.3694 -0.5615 -0.4864
  745MOL0     H98304  10.194  11.866  10.178  1.4538 -4.8892  0.2862
  745MOL0     H98305   9.958  11.835  10.141  2.0235  0.9861  2.9085
  745MOL0     H98306   9.793  11.675   9.749  1.5547  1.6876 -3.2425
  745MOL0     H98307   9.797  11.856   9.743 -0.4614 -0.0668 -1.2579
  745MOL0     H98308   9.589  11.856   9.890  0.0757  0.3449  1.2383
  745MOL0     H98309   9.598  11.684   9.891 -0.8330  1.5395  1.5097
  745MOL0     H98310   9.561  11.666   9.651  2.8825  0.3241 -0.7627
  745MOL0     H98311   9.567  11.844   9.624 -3.6358 -0.8480 -1.7036
  745MOL0     H98312   9.346  11.852   9.759  2.0344  0.4552  0.9701
  745MOL0     H98313   9.338  11.760   9.599  2.2859  4.5143 -2.0700
  745MOL0     H98314   9.219  11.648   9.790  0.8450 -0.8483 -2.4284
  745MOL0     H98315   9.361  11.657   9.882  2.9452  1.8587 -1.0824
  745MOL0     H98316   9.463  11.472   9.722  0.0513 -0.1496 -0.9715
  745MOL0     H98317   9.331  11.510   9.606 -0.9682 -0.7690 -0.7596
  745MOL0     H98318   9.172  11.414   9.758 -0.4220  0.4501  2.3161
  745MOL0     H98319   9.310  11.294   9.740  0.1681 -1.1019  1.5751
  745MOL0     H98320   9.214  11.311   9.970 -0.1366 -0.1913 -0.8076
  745MOL0     H98321   9.273  11.479   9.975 -3.4762 -0.2925 -2.3724
  745MOL0     H98322  10.011  11.797   9.719 -2.4865 -2.1232  0.3576
  745MOL0     H98323  10.255  11.855   9.754 -0.6668  0.0547 -0.2273
  745MOL0     H98324  10.607  11.921   9.944  1.7471 -1.0053  0.5030
  745MOL0     H98325  10.829  11.942   9.998 -1.0604 -0.9659  0.5367
  745MOL0     H98326  10.066  10.899  10.953 -2.8251  1.9092 -1.9375
  745MOL0     H98327   9.969  10.744  10.796 -0.0677 -0.3188  1.7385
  745MOL0     H98328   9.919  10.439  10.611 -0.2699  2.1284  1.0038
  745MOL0     H98329   9.748  10.284  10.525  0.0298  0.2831  1.2547
  745MOL0     H98330   9.686  10.287  10.089  0.6713 -0.7314 -0.1238
  745MOL0     H98331   9.516  10.289  10.110  0.7007 -1.3417 -1.8557
  745MOL0     H98332   9.654  10.063  10.041 -0.0987 -0.3733  0.0041
  745MOL0     H98333   9.667  10.052  10.225 -0.8785 -0.5668  1.9050
  745MOL0     H98334   9.429  10.040  10.028  2.6881 -3.1369 -0.9267
  745MOL0     H98335   9.410  10.090  10.202 -1.1979 -1.1928  0.5436
  745MOL0     H98336   9.568   9.847  10.149  0.0094  2.4318 -1.6165
  745MOL0     H98337   9.478   9.896  10.294  0.3752 -3.7262  1.2167
  745MOL0     H98338   9.167   9.724  10.080 -0.1622 -3.1221  4.5950
  745MOL0     H98339   9.736  10.491  10.152 -1.2601  0.5501  0.8124
  745MOL0     H98340   9.914  10.634  10.215  0.3314 -1.7082 -0.5860
  746MOL0     O98341   2.919   7.795   8.475 -0.3704 -0.0142 -0.0593
  746MOL0     C98342   2.997   7.704   8.457 -0.0263  0.1980  0.3140
  746MOL0     O98343   3.135   7.707   8.443 -0.0151 -0.3756  0.0870
  746MOL0     C98344   3.211   7.822   8.451  0.1370  0.2565  0.3398
  746MOL0     C98345   3.164   7.956   8.431 -0.5975  0.4910 -0.5018
  746MOL0     C98346   3.249   8.065   8.469 -0.7945  1.3030 -0.3336
  746MOL0     C98347   3.381   8.051   8.506 -0.4342 -0.1254 -0.1058
  746MOL0     O98348   3.469   8.149   8.548  0.2849  0.1747  0.0984
  746MOL0     C98349   3.480   8.264   8.456 -0.1119 -0.2538 -0.0402
  746MOL0     C98350   3.556   8.223   8.325 -0.0454  0.2313 -0.6466
  746MOL0     C98351   3.590   8.348   8.243 -0.1804  0.7610  0.7628
  746MOL0     C98352   3.626   8.305   8.103  0.4441  0.4054 -0.5951
  746MOL0     C98353   3.653   8.414   7.998 -0.3520  0.5415  0.5812
  746MOL0     C98354   3.548   8.531   7.984  0.6766 -0.8955  0.1916
  746MOL0     C98355   3.405   8.483   7.941  1.0366  0.1225 -0.2277
  746MOL0     C98356   3.314   8.605   7.941 -0.7909 -0.4057  0.0574
  746MOL0     N98357   3.182   8.574   7.979  0.0371  0.3181  0.0900
  746MOL0     C98358   3.081   8.509   7.904 -0.3319 -1.0183 -0.1236
  746MOL0     C98359   2.962   8.542   7.946  0.8765  1.0839  0.0131
  746MOL0     C98360   2.838   8.474   7.903  0.0882 -0.1714 -0.5666
  746MOL0     C98361   2.739   8.576   7.842 -0.6086 -0.7996  0.0828
  746MOL0     C98362   2.657   8.635   7.951  0.7005 -0.1929  0.5771
  746MOL0     C98363   2.600   8.773   7.888  0.3112  0.4537 -0.3728
  746MOL0     O98364   2.510   8.719   7.786  1.1260  0.4016 -0.1257
  746MOL0     C98365   2.382   8.687   7.819 -0.6944 -0.3080  0.5154
  746MOL0     C98366   2.326   8.698   7.950  0.3605 -0.0765  0.0157
  746MOL0     C98367   2.195   8.658   7.978  0.3544  0.2081  0.3273
  746MOL0     C98368   2.109   8.610   7.871 -0.4685 -0.9074 -1.0278
  746MOL0     C98369   1.964   8.572   7.899 -0.1072 -0.4233 -0.5046
  746MOL0     O98370   1.875   8.560   7.795 -0.0970  0.3613 -0.7698
  746MOL0     C98371   1.734   8.540   7.807 -0.7973  0.2524  0.9383
  746MOL0     C98372   1.648   8.608   7.720  0.6955  0.3485  0.0977
  746MOL0     C98373   1.511   8.573   7.718  0.0414 -0.1933  0.0049
  746MOL0     C98374   1.460   8.483   7.809  0.7360  0.1414 -0.2772
  746MOL0     O98375   1.320   8.480   7.807  0.4359 -0.0470 -0.5025
  746MOL0     C98376   1.254   8.395   7.885  0.0404 -0.1422  0.1433
  746MOL0     C98377   1.107   8.382   7.837 -0.6687  0.1123 -0.9107
  746MOL0     C98378   1.020   8.303   7.939 -0.4353  0.0610 -0.3239
  746MOL0     C98379   0.877   8.315   7.890 -0.8066 -0.1411 -0.3791
  746MOL0     C98380   0.777   8.274   8.007  0.0355 -0.5322  0.0921
  746MOL0     C98381   0.634   8.304   7.968 -0.6209 -0.4663  0.1634
  746MOL0     C98382   0.538   8.264   8.083  0.4108  0.9098  0.6307
  746MOL0     C98383   0.390   8.278   8.033  0.1376 -0.3264  0.1521
  746MOL0    Cl98384   0.336   8.167   7.902 -0.0036 -0.1044 -0.0849
  746MOL0     C98385   1.544   8.412   7.896 -0.3241  1.0320 -0.1407
  746MOL0     C98386   1.682   8.444   7.902 -1.0732 -0.1382  0.9153
  746MOL0     O98387   1.944   8.556   8.020  0.0561  0.5355 -0.0559
  746MOL0     C98388   2.168   8.583   7.745  0.8536 -0.0377 -0.5282
  746MOL0     C98389   2.302   8.625   7.719 -0.0290  0.4983 -0.2499
  746MOL0     N98390   2.987   8.618   8.060 -0.4390 -0.1428  0.6043
  746MOL0     N98391   3.111   8.627   8.084  0.1711  0.2859  0.7354
  746MOL0     C98392   3.434   7.918   8.491  0.4524  0.0427 -0.2203
  746MOL0     C98393   3.352   7.809   8.474  0.6822  0.1844  0.3976
  746MOL0     C98394   2.929   7.568   8.444 -1.2736  0.2865 -0.4329
  746MOL0     C98395   2.799   7.555   8.461 -0.1406  0.5029 -0.2317
  746MOL0     C98396   2.735   7.440   8.429  1.1139 -0.0523 -1.3151
  746MOL0     C98397   2.806   7.324   8.389 -1.1026 -0.2269 -0.1732
  746MOL0     O98398   2.731   7.214   8.352  0.1122 -0.5855  0.1195
  746MOL0     C98399   2.792   7.096   8.303 -0.2772  0.1359  0.4208
  746MOL0     C98400   2.828   7.122   8.165  0.0429  0.6191  0.7619
  746MOL0     C98401   2.840   6.987   8.092  1.0980  0.4525 -0.3512
  746MOL0     C98402   2.900   6.979   7.953 -0.1064 -0.0794  0.1840
  746MOL0     C98403   2.962   6.846   7.924 -0.4127  0.1015  0.0106
  746MOL0     C98404   2.991   6.731   7.883 -1.0316  0.0038  0.6643
  746MOL0     C98405   2.952   7.324   8.403  0.8106 -0.7042  1.4163
  746MOL0     C98406   3.007   7.453   8.433  0.8229  0.0123  0.9168
  746MOL0     H98407   3.064   7.997   8.423 -0.7574  1.0217  2.6886
  746MOL0     H98408   3.203   8.162   8.486 -1.7072  0.6993  0.8677
  746MOL0     H98409   3.537   8.342   8.507  3.8659 -1.3072 -2.4412
  746MOL0     H98410   3.382   8.301   8.424 -0.0089  1.2184  1.2389
  746MOL0     H98411   3.495   8.149   8.273 -1.7186  0.0258  1.4693
  746MOL0     H98412   3.650   8.173   8.351  0.9362  2.0207 -0.5555
  746MOL0     H98413   3.669   8.410   8.285  2.3289 -1.8310  0.1640
  746MOL0     H98414   3.497   8.404   8.228  0.2661  1.0289 -1.3770
  746MOL0     H98415   3.720   8.251   8.119  1.3887  2.7619  3.2879
  746MOL0     H98416   3.540   8.247   8.068 -1.3243  1.9469  0.9630
  746MOL0     H98417   3.671   8.375   7.898  1.1844  2.0389  0.2313
  746MOL0     H98418   3.751   8.447   8.034  0.5635 -1.4186 -0.0060
  746MOL0     H98419   3.589   8.600   7.909 -2.0411  0.3840 -0.2185
  746MOL0     H98420   3.546   8.586   8.078  2.3093  0.7690 -0.6773
  746MOL0     H98421   3.424   8.427   7.848  2.4244 -0.0848  0.1532
  746MOL0     H98422   3.365   8.416   8.017  0.0321  2.0711  1.0391
  746MOL0     H98423   3.306   8.643   7.839 -1.1237  1.1214  0.6300
  746MOL0     H98424   3.348   8.686   8.006 -2.6676 -0.7392  1.5522
  746MOL0     H98425   3.106   8.450   7.817 -0.3691 -2.7922  1.0049
  746MOL0     H98426   2.785   8.425   7.985  2.1367  1.5706  1.9460
  746MOL0     H98427   2.866   8.393   7.834  0.5280 -0.5673  0.0682
  746MOL0     H98428   2.677   8.519   7.772 -0.8755 -1.7345  1.0484
  746MOL0     H98429   2.793   8.650   7.782  1.0916  1.0132  3.5773
  746MOL0     H98430   2.582   8.563   7.985 -0.6215  1.8145  2.1401
  746MOL0     H98431   2.708   8.652   8.046  1.3635 -1.2516  0.4279
  746MOL0     H98432   2.685   8.829   7.848 -0.2885  2.1931  0.6751
  746MOL0     H98433   2.549   8.835   7.962 -3.0798 -0.1209 -2.0412
  746MOL0     H98434   2.397   8.728   8.026  0.7869 -0.2584 -0.2978
  746MOL0     H98435   2.152   8.669   8.077  1.2416  4.2097  0.4347
  746MOL0     H98436   1.690   8.685   7.657 -0.4031 -0.5220 -1.7926
  746MOL0     H98437   1.444   8.628   7.653  0.0628 -2.3818 -1.9872
  746MOL0     H98438   1.267   8.426   7.990 -2.5830  0.4288  0.3600
  746MOL0     H98439   1.297   8.294   7.879 -0.0931 -0.1998  0.1335
  746MOL0     H98440   1.109   8.327   7.743  0.5446 -2.8430  0.7005
  746MOL0     H98441   1.075   8.487   7.828  2.8512  1.6684  1.8739
  746MOL0     H98442   1.036   8.332   8.043  2.2709 -1.9799 -0.0568
  746MOL0     H98443   1.042   8.196   7.933 -5.6511 -1.3323 -0.0737
  746MOL0     H98444   0.854   8.421   7.873 -1.3645  0.0353  1.3154
  746MOL0     H98445   0.867   8.256   7.799 -2.1981  0.4660 -0.6544
  746MOL0     H98446   0.807   8.323   8.100  1.5491 -1.7319  0.2863
  746MOL0     H98447   0.785   8.165   8.019  1.6013 -0.7350 -2.2283
  746MOL0     H98448   0.603   8.260   7.873 -0.2943 -0.9702  0.2815
  746MOL0     H98449   0.618   8.412   7.960  0.7338 -0.2873 -0.4192
  746MOL0     H98450   0.557   8.157   8.099  0.9420  0.8244 -0.4798
  746MOL0     H98451   0.551   8.318   8.177 -1.0476  1.2489  0.6619
  746MOL0     H98452   0.384   8.381   7.997  3.3832  0.2715  0.9958
  746MOL0     H98453   0.323   8.282   8.119 -1.6511 -0.1707 -1.1667
  746MOL0     H98454   1.502   8.340   7.965  1.9050 -0.0710  0.1387
  746MOL0     H98455   1.741   8.393   7.977  0.1453  1.0576  0.8244
  746MOL0     H98456   2.112   8.549   7.659  2.0934  2.4474 -2.4663
  746MOL0     H98457   2.344   8.608   7.620 -0.2984 -1.3467 -0.0867
  746MOL0     H98458   3.538   7.891   8.504  0.2901  0.1357  1.4476
  746MOL0     H98459   3.389   7.708   8.466  1.1869  0.3406  0.7133
  746MOL0     H98460   2.740   7.643   8.484  1.1026  1.5244 -0.8097
  746MOL0     H98461   2.627   7.426   8.428  1.1958 -0.7125 -1.3368
  746MOL0     H98462   2.723   7.012   8.317  0.7362 -1.1512 -1.7555
  746MOL0     H98463   2.888   7.072   8.350  0.4003 -0.0310 -0.9978
  746MOL0     H98464   2.745   7.178   8.120 -1.6598 -1.4674  1.1535
  746MOL0     H98465   2.912   7.191   8.156  1.1611 -0.8545 -0.7114
  746MOL0     H98466   2.753   6.921   8.093  2.7522 -2.1123  4.4500
  746MOL0     H98467   2.904   6.928   8.158 -0.4536 -0.4122  0.4254
  746MOL0     H98468   2.826   6.993   7.874  0.5726 -1.8549 -0.8418
  746MOL0     H98469   2.973   7.060   7.940  1.6721 -1.2974  2.0968
  746MOL0     H98470   2.999   6.628   7.854 -1.8575 -0.1520  0.9454
  746MOL0     H98471   3.016   7.237   8.398 -0.9118 -1.9697 -1.6328
  746MOL0     H98472   3.115   7.454   8.435  0.8398  1.1283  0.1641
  747MOL0     O98473   2.501   2.018   9.605 -0.1139  0.0775  0.3812
  747MOL0     C98474   2.567   2.104   9.549  0.1857 -0.4303 -0.0668
  747MOL0     O98475   2.535   2.239   9.528 -0.3118 -0.3228  0.0453
  747MOL0     C98476   2.402   2.287   9.526  0.0725  0.8333 -0.0115
  747MOL0     C98477   2.371   2.396   9.444  0.3443  0.5946 -0.3464
  747MOL0     C98478   2.243   2.456   9.433 -1.1638  0.7510 -0.1864
  747MOL0     C98479   2.134   2.392   9.493 -0.2558  0.5848  0.2780
  747MOL0     O98480   2.019   2.455   9.472 -0.1808  0.5856  0.4257
  747MOL0     C98481   1.887   2.381   9.482 -0.3872  0.4980  0.1032
  747MOL0     C98482   1.771   2.475   9.440 -0.0470  0.0394  0.2622
  747MOL0     C98483   1.719   2.562   9.558 -0.2212  1.1568 -0.2436
  747MOL0     C98484   1.831   2.664   9.591  0.6916 -0.0794 -0.1400
  747MOL0     C98485   1.786   2.776   9.690 -0.0513 -0.6369  0.0815
  747MOL0     C98486   1.733   2.907   9.628  0.1642 -0.8117  0.0475
  747MOL0     C98487   1.612   2.901   9.527 -0.3231 -0.4136  0.5039
  747MOL0     C98488   1.489   2.863   9.603 -0.9956  0.1743  0.0754
  747MOL0     N98489   1.372   2.842   9.524  0.0456  0.6370  0.2315
  747MOL0     C98490   1.317   2.944   9.450  0.3702 -0.1294  0.8772
  747MOL0     C98491   1.208   2.889   9.385 -0.3613 -1.0797 -0.1890
  747MOL0     C98492   1.111   2.968   9.298  0.1102  0.0511  0.9932
  747MOL0     C98493   1.074   2.889   9.172 -0.8127  0.1208 -0.8901
  747MOL0     C98494   0.953   2.946   9.101  0.8846  0.0532  0.8108
  747MOL0     C98495   0.817   2.884   9.141  0.1686 -0.3417 -0.1360
  747MOL0     O98496   0.711   2.975   9.090  0.3810  0.2685 -0.2976
  747MOL0     C98497   0.577   2.944   9.089 -0.0160 -0.2520 -0.4954
  747MOL0     C98498   0.485   3.046   9.058 -0.2880  0.2499 -0.6353
  747MOL0     C98499   0.354   3.021   9.037  0.6884 -0.0050  1.2776
  747MOL0     C98500   0.309   2.887   9.038  0.1316  0.3601 -0.7627
  747MOL0     C98501   0.160   2.867   9.034 -0.1566 -0.6822  1.2063
  747MOL0     O98502   0.125   2.740   9.052  0.0222 -0.2575  0.7619
  747MOL0     C98503  -0.006   2.720   9.065 -0.0223 -0.6832  0.5367
  747MOL0     C98504  -0.055   2.651   9.170 -0.2280 -0.0079  0.2918
  747MOL0     C98505  -0.190   2.640   9.181 -0.3162  0.2476 -0.0907
  747MOL0     C98506  -0.278   2.670   9.084 -0.2347  0.2658  0.3477
  747MOL0     O98507  -0.413   2.657   9.099 -0.1728  0.6689  0.1901
  747MOL0     C98508  -0.522   2.672   9.009 -0.1729 -0.2870  0.5672
  747MOL0     C98509  -0.642   2.622   9.081 -0.6678 -0.5599  0.3306
  747MOL0     C98510  -0.778   2.635   9.011 -0.4062  0.8543  0.2205
  747MOL0     C98511  -0.884   2.562   9.097  1.1072 -0.7063 -0.0623
  747MOL0     C98512  -1.005   2.521   9.007  0.4509  0.4053 -0.6420
  747MOL0     C98513  -1.062   2.647   8.947 -0.4982 -0.4187 -0.1114
  747MOL0     C98514  -1.199   2.639   8.875 -0.2500  0.2055 -0.1314
  747MOL0     C98515  -1.301   2.568   8.962 -0.1310  0.0066 -0.4087
  747MOL0    Cl98516  -1.468   2.596   8.902  0.1083  0.0118 -0.4068
  747MOL0     C98517  -0.227   2.712   8.957 -0.0920 -0.0982 -0.2097
  747MOL0     C98518  -0.089   2.741   8.954  0.2758 -0.3941  0.0635
  747MOL0     O98519   0.083   2.963   9.029  0.4244 -0.5555 -0.1530
  747MOL0     C98520   0.394   2.781   9.073 -0.8967  0.9110  0.1985
  747MOL0     C98521   0.526   2.813   9.091 -0.6577 -0.1227 -0.1846
  747MOL0     N98522   1.192   2.761   9.437  0.2812 -0.0752  0.6570
  747MOL0     N98523   1.290   2.734   9.517 -0.2115 -0.3795 -0.2719
  747MOL0     C98524   2.160   2.282   9.577 -0.0787  0.2456  0.3907
  747MOL0     C98525   2.290   2.227   9.590 -0.0056  0.2672 -0.2973
  747MOL0     C98526   2.698   2.065   9.492 -0.1917 -0.1006 -0.7717
  747MOL0     C98527   2.724   1.938   9.466 -0.2292 -0.4833  1.0816
  747MOL0     C98528   2.856   1.902   9.434  0.0099 -0.6482  0.5225
  747MOL0     C98529   2.958   2.010   9.411  0.2484 -0.3098 -0.3088
  747MOL0     O98530   3.072   1.962   9.361  0.4614  0.4352  0.6403
  747MOL0     C98531   3.167   2.050   9.311 -1.1153 -0.3406  0.3316
  747MOL0     C98532   3.292   1.968   9.292  0.3107  0.1329  0.0705
  747MOL0     C98533   3.355   1.941   9.429  0.2461 -0.9610  0.0044
  747MOL0     C98534   3.432   2.056   9.487 -0.6509  0.0217  0.2197
  747MOL0     C98535   3.539   1.994   9.575  0.0237  0.4038  0.0034
  747MOL0     C98536   3.612   1.957   9.660  0.6229  0.6536  0.3022
  747MOL0     C98537   2.920   2.145   9.431  0.4044  0.1510  0.1293
  747MOL0     C98538   2.792   2.170   9.471 -0.5325  0.0602 -0.7674
  747MOL0     H98539   2.455   2.438   9.390  0.2670  1.5530  0.2568
  747MOL0     H98540   2.232   2.549   9.378 -1.9146  0.4803 -0.5148
  747MOL0     H98541   1.865   2.350   9.585  1.2612 -0.2398  0.2702
  747MOL0     H98542   1.881   2.291   9.419  0.2511 -1.9179  3.2391
  747MOL0     H98543   1.684   2.425   9.397 -0.0317  1.1645 -1.1877
  747MOL0     H98544   1.798   2.545   9.360 -3.7446  1.5662  0.1564
  747MOL0     H98545   1.703   2.499   9.646 -2.5693  2.2900  0.2033
  747MOL0     H98546   1.627   2.609   9.521 -2.2375 -0.9723  1.7638
  747MOL0     H98547   1.901   2.594   9.639  2.6037  0.1914 -2.3605
  747MOL0     H98548   1.864   2.708   9.496 -1.2971  1.2717 -0.2592
  747MOL0     H98549   1.873   2.802   9.752  1.1969 -1.1586 -1.3893
  747MOL0     H98550   1.710   2.737   9.758 -0.2902  0.5186  0.5076
  747MOL0     H98551   1.815   2.954   9.571 -1.2088  0.9127 -0.6114
  747MOL0     H98552   1.712   2.983   9.704  2.6388 -0.8528  0.8717
  747MOL0     H98553   1.604   3.001   9.484 -2.6212 -1.2102 -1.1040
  747MOL0     H98554   1.626   2.829   9.445  0.4879 -1.6772  1.6985
  747MOL0     H98555   1.458   2.930   9.684 -0.1561 -0.3226  0.8250
  747MOL0     H98556   1.517   2.767   9.646 -2.4876  0.3739  1.6216
  747MOL0     H98557   1.352   3.045   9.431 -1.7012  0.5589  0.5421
  747MOL0     H98558   1.140   3.072   9.280  2.5651 -0.3428  2.1792
  747MOL0     H98559   1.020   2.986   9.356  0.0023  2.6322  0.1876
  747MOL0     H98560   1.053   2.791   9.215 -2.3010  1.2178  1.0970
  747MOL0     H98561   1.164   2.879   9.111  0.3240 -1.3010  0.9084
  747MOL0     H98562   0.942   3.049   9.135 -3.2616 -0.4975  1.7648
  747MOL0     H98563   0.960   2.941   8.992 -0.2378  0.7905  0.6854
  747MOL0     H98564   0.808   2.866   9.249 -0.8038 -1.8420 -0.4229
  747MOL0     H98565   0.811   2.786   9.091 -0.5614  0.6649 -2.1254
  747MOL0     H98566   0.508   3.152   9.050 -2.6280  0.7701 -1.3722
  747MOL0     H98567   0.285   3.102   9.015 -0.7429 -1.5086  0.0289
  747MOL0     H98568   0.015   2.635   9.252 -0.3143  0.5151  0.4735
  747MOL0     H98569  -0.227   2.598   9.274  2.6530  1.4308  1.7660
  747MOL0     H98570  -0.496   2.611   8.922 -1.7162  0.1283 -0.2159
  747MOL0     H98571  -0.535   2.776   8.977 -0.7638 -0.6848 -0.5308
  747MOL0     H98572  -0.649   2.680   9.174 -0.8667 -0.1599  0.0710
  747MOL0     H98573  -0.623   2.518   9.109  1.1032 -0.2001  0.5637
  747MOL0     H98574  -0.756   2.583   8.917 -0.3451 -0.3685  0.9028
  747MOL0     H98575  -0.810   2.737   8.986  0.5809  0.8029 -1.4269
  747MOL0     H98576  -0.847   2.472   9.147  3.9212  0.0487 -0.5857
  747MOL0     H98577  -0.923   2.616   9.184 -3.4637 -2.3679 -0.8233
  747MOL0     H98578  -1.079   2.475   9.074  1.5902  0.0933  0.4552
  747MOL0     H98579  -0.973   2.458   8.924 -0.2136  1.7990 -1.9975
  747MOL0     H98580  -1.002   2.696   8.870 -1.2929  1.6818  0.5195
  747MOL0     H98581  -1.077   2.704   9.039 -1.1663  1.1460 -1.1496
  747MOL0     H98582  -1.231   2.743   8.860 -1.3549 -0.4956 -3.6548
  747MOL0     H98583  -1.190   2.579   8.784  3.7499 -0.0171  0.2193
  747MOL0     H98584  -1.292   2.601   9.066 -2.1267  2.5072 -0.9386
  747MOL0     H98585  -1.274   2.462   8.970 -1.3664 -0.3374 -0.6639
  747MOL0     H98586  -0.276   2.723   8.861  1.7045 -2.5633 -1.5331
  747MOL0     H98587  -0.061   2.786   8.860  2.5960 -0.4098  0.6875
  747MOL0     H98588   0.356   2.681   9.092 -1.9339  0.8575 -1.8194
  747MOL0     H98589   0.601   2.737   9.112 -0.1557  0.6057  0.7625
  747MOL0     H98590   2.070   2.235   9.616  0.2215 -2.3030 -1.7551
  747MOL0     H98591   2.298   2.150   9.666 -1.4166  0.3936  0.0140
  747MOL0     H98592   2.661   1.850   9.462 -0.2581 -0.5732  2.8274
  747MOL0     H98593   2.884   1.800   9.412  2.1337 -0.3919  1.7388
  747MOL0     H98594   3.190   2.137   9.374  2.3657  0.0822 -1.2858
  747MOL0     H98595   3.138   2.084   9.211  1.9246  1.1672 -0.1500
  747MOL0     H98596   3.271   1.871   9.245  2.9586  0.3151 -1.7450
  747MOL0     H98597   3.363   2.014   9.223 -0.3317 -0.3707 -0.9594
  747MOL0     H98598   3.434   1.866   9.416  0.1153 -0.8038 -2.0268
  747MOL0     H98599   3.276   1.908   9.496  0.7557  0.6318  1.4640
  747MOL0     H98600   3.462   2.126   9.408 -1.8864 -1.0979 -1.2972
  747MOL0     H98601   3.360   2.113   9.546 -0.9182 -2.2427  2.2405
  747MOL0     H98602   3.683   1.919   9.731  1.8408  1.7380 -0.2939
  747MOL0     H98603   2.995   2.219   9.407  1.1606 -0.8302 -0.5957
  747MOL0     H98604   2.765   2.274   9.482 -2.2232 -0.4692  0.4873
  748MOL0     O98605   9.563   0.892  10.645 -0.5128  0.2540  0.2296
  748MOL0     C98606   9.563   1.007  10.614 -0.3927  0.3601 -0.0555
  748MOL0     O98607   9.452   1.086  10.579 -0.3958  0.1960  0.6572
  748MOL0     C98608   9.342   1.012  10.548 -0.7671  0.2952 -0.8455
  748MOL0     C98609   9.213   1.032  10.611  0.3001  0.7505  0.3643
  748MOL0     C98610   9.095   0.966  10.578 -0.0166  0.1208  1.0605
  748MOL0     C98611   9.101   0.869  10.477  0.0356 -0.4943  0.9963
  748MOL0     O98612   8.999   0.792  10.435 -0.2013 -0.3783 -0.2882
  748MOL0     C98613   8.869   0.839  10.476  0.6260  0.5299  0.0869
  748MOL0     C98614   8.762   0.756  10.393  0.2021  0.6742  0.1875
  748MOL0     C98615   8.768   0.796  10.247  0.4199  0.2567  0.3133
  748MOL0     C98616   8.678   0.702  10.174  0.3532 -0.6464  0.0990
  748MOL0     C98617   8.528   0.718  10.189  0.5590  0.4254  0.2296
  748MOL0     C98618   8.477   0.857  10.180  0.2673 -0.1604  0.4413
  748MOL0     C98619   8.330   0.865  10.154  0.3632  0.0296  0.1065
  748MOL0     C98620   8.263   1.002  10.165  0.6883  0.5134 -0.0503
  748MOL0     N98621   8.321   1.110  10.083 -0.7310  0.1005  0.2149
  748MOL0     C98622   8.388   1.215  10.141 -0.4708 -0.2864  0.4469
  748MOL0     C98623   8.432   1.284  10.040 -0.3395 -0.3964 -0.6067
  748MOL0     C98624   8.489   1.422  10.051  0.4208 -0.6603 -0.1378
  748MOL0     C98625   8.631   1.436  10.007 -0.9065  0.2169 -0.3434
  748MOL0     C98626   8.719   1.375  10.120 -0.1358 -0.3443 -0.0965
  748MOL0     C98627   8.826   1.475  10.163  0.0620  0.8171  0.4570
  748MOL0     O98628   8.894   1.427  10.274 -0.2703 -0.3334 -0.1843
  748MOL0     C98629   9.023   1.390  10.261  0.5307  0.2888 -0.6745
  748MOL0     C98630   9.064   1.309  10.152 -0.1391  0.1855  0.3779
  748MOL0     C98631   9.198   1.280  10.127 -0.1910  0.2171  0.0339
  748MOL0     C98632   9.291   1.325  10.215  0.3370  0.1926  0.8115
  748MOL0     C98633   9.430   1.304  10.192  0.0928  0.3040  0.5460
  748MOL0     O98634   9.511   1.370  10.278 -0.4478  0.0840 -0.3338
  748MOL0     C98635   9.647   1.334  10.282 -0.7384  0.0897  0.4938
  748MOL0     C98636   9.691   1.205  10.271  0.1664  0.7302  0.3406
  748MOL0     C98637   9.833   1.180  10.289  0.4867  0.1013  0.1143
  748MOL0     C98638   9.929   1.288  10.300 -0.9546  0.1198 -0.7121
  748MOL0     O98639  10.065   1.287  10.302 -0.4969 -1.1184 -0.4049
  748MOL0     C98640  10.116   1.151  10.330  0.3375  0.0830  0.7465
  748MOL0     C98641  10.267   1.167  10.300  0.9277  0.5098  0.6733
  748MOL0     C98642  10.340   1.246  10.411 -0.8150  0.0364  0.0256
  748MOL0     C98643  10.485   1.246  10.380  0.5737  0.7810  1.2382
  748MOL0     C98644  10.551   1.354  10.470  0.3011  0.3652 -0.5652
  748MOL0     C98645  10.701   1.349  10.468  0.8882 -0.2305 -0.2580
  748MOL0     C98646  10.768   1.446  10.571  0.5707 -0.5412  0.9615
  748MOL0     C98647  10.782   1.595  10.558 -0.7550  0.9397  0.3068
  748MOL0    Cl98648  10.845   1.663  10.705 -0.1551  0.3251 -0.0138
  748MOL0     C98649   9.878   1.416  10.307  0.2464  0.3573  0.2851
  748MOL0     C98650   9.745   1.440  10.299  0.1877  0.3435  0.7039
  748MOL0     O98651   9.474   1.256  10.087  0.3727  0.5294  0.1772
  748MOL0     C98652   9.250   1.381  10.332 -0.8776 -0.8654 -0.2597
  748MOL0     C98653   9.117   1.419  10.354 -0.3837  0.6855  0.2485
  748MOL0     N98654   8.407   1.220   9.921  0.2912  0.3367  0.0530
  748MOL0     N98655   8.348   1.111   9.950  0.4459 -0.7905  0.3376
  748MOL0     C98656   9.224   0.843  10.415  0.3223 -0.3790 -0.1406
  748MOL0     C98657   9.343   0.906  10.457  0.4260 -0.3324  0.8715
  748MOL0     C98658   9.696   1.073  10.623  0.2536 -0.0514 -0.2123
  748MOL0     C98659   9.710   1.212  10.596  0.5427 -0.0370 -0.2667
  748MOL0     C98660   9.831   1.273  10.607  0.6581 -0.4764  0.1279
  748MOL0     C98661   9.946   1.200  10.647  0.1821 -0.6756 -0.0783
  748MOL0     O98662  10.068   1.256  10.673 -0.1851  0.7276  0.0632
  748MOL0     C98663  10.072   1.396  10.657 -0.3811  0.8914  0.2930
  748MOL0     C98664  10.217   1.443  10.701  0.0412 -0.7492 -0.0721
  748MOL0     C98665  10.221   1.591  10.674 -0.6983 -0.1021  1.0148
  748MOL0     C98666  10.368   1.639  10.671 -0.0683 -0.1048 -0.5152
  748MOL0     C98667  10.420   1.634  10.801  0.2157  0.5764  0.2407
  748MOL0     C98668  10.461   1.637  10.912  0.1882 -0.5217 -0.3207
  748MOL0     C98669   9.938   1.060  10.667  0.3267  0.0850  0.1126
  748MOL0     C98670   9.806   1.002  10.658 -1.4229  0.0523  0.6599
  748MOL0     H98671   9.211   1.110  10.686  3.6480  0.5245  0.8226
  748MOL0     H98672   9.008   0.991  10.638  1.0675 -0.2404  2.8463
  748MOL0     H98673   8.856   0.940  10.436 -2.5483 -0.4497 -1.6785
  748MOL0     H98674   8.849   0.837  10.583 -0.5044 -0.8911 -0.1226
  748MOL0     H98675   8.662   0.753  10.437  0.5666 -2.2079  1.0081
  748MOL0     H98676   8.777   0.648  10.404  1.1074  0.6357 -1.2362
  748MOL0     H98677   8.868   0.784  10.204  0.2766 -0.1800  0.1076
  748MOL0     H98678   8.743   0.903  10.248  2.3497  0.7680 -1.1139
  748MOL0     H98679   8.697   0.707  10.066 -0.2108 -0.8107 -0.0113
  748MOL0     H98680   8.709   0.607  10.217 -2.0733 -0.9896  1.2745
  748MOL0     H98681   8.483   0.665  10.273  3.2824 -4.1832 -0.8219
  748MOL0     H98682   8.480   0.668  10.105  1.0249  0.2448  0.0624
  748MOL0     H98683   8.524   0.900  10.091  0.3873 -2.7786 -0.8709
  748MOL0     H98684   8.507   0.910  10.271 -0.6427  0.4071  0.4192
  748MOL0     H98685   8.305   0.839  10.051  1.9238  2.8806 -1.1019
  748MOL0     H98686   8.273   0.803  10.224 -0.2670 -0.5919 -0.9349
  748MOL0     H98687   8.266   1.026  10.272  2.8564 -1.0303  0.2872
  748MOL0     H98688   8.157   0.986  10.141 -0.0002  1.5170  2.0569
  748MOL0     H98689   8.400   1.242  10.245 -1.4231  1.4680  0.1455
  748MOL0     H98690   8.481   1.460  10.153 -1.8020 -1.6860  0.1245
  748MOL0     H98691   8.427   1.496   9.999  0.9231  0.1246  0.3485
  748MOL0     H98692   8.648   1.543   9.990 -3.2361  0.2629 -3.2060
  748MOL0     H98693   8.647   1.397   9.906 -4.6002  0.0128 -0.9939
  748MOL0     H98694   8.664   1.343  10.209  0.4577 -1.8919 -0.2554
  748MOL0     H98695   8.781   1.299  10.072 -1.6459 -1.5131 -0.2842
  748MOL0     H98696   8.779   1.570  10.190  0.2956  0.3671  2.6102
  748MOL0     H98697   8.890   1.496  10.077 -1.8925  2.6856 -0.6573
  748MOL0     H98698   8.990   1.286  10.076  0.2182 -1.1818  0.4142
  748MOL0     H98699   9.239   1.223  10.044 -0.0750 -0.7457  0.7390
  748MOL0     H98700   9.638   1.112  10.255  1.8098 -0.0640 -0.7703
  748MOL0     H98701   9.867   1.077  10.285  0.3328 -0.0377  1.7772
  748MOL0     H98702  10.078   1.069  10.268 -4.6316  4.1919 -2.4347
  748MOL0     H98703  10.096   1.125  10.434 -5.3671  0.3997  0.0672
  748MOL0     H98704  10.285   1.211  10.201  1.8323 -2.2164 -0.4766
  748MOL0     H98705  10.312   1.068  10.288 -1.2222 -0.5880  1.1394
  748MOL0     H98706  10.332   1.190  10.505  0.7123 -0.5521 -0.1685
  748MOL0     H98707  10.303   1.349  10.423 -0.8357  0.1725 -1.1496
  748MOL0     H98708  10.527   1.146  10.394  2.9366  1.9448  3.3591
  748MOL0     H98709  10.496   1.280  10.277  1.0153  1.7971  1.6062
  748MOL0     H98710  10.520   1.337  10.574  0.9642  0.9921 -0.2537
  748MOL0     H98711  10.528   1.452  10.427 -0.2490  1.1462  1.4006
  748MOL0     H98712  10.741   1.367  10.367  1.3537  1.1625  0.1527
  748MOL0     H98713  10.749   1.254  10.492  3.2126  1.1481  0.9001
  748MOL0     H98714  10.714   1.448  10.667  1.8309  3.6274  1.7798
  748MOL0     H98715  10.872   1.415  10.584  0.6447 -0.5633  0.3570
  748MOL0     H98716  10.687   1.650  10.551 -0.8612  1.0454  2.1872
  748MOL0     H98717  10.844   1.622  10.472 -0.6439 -0.3241 -0.0309
  748MOL0     H98718   9.943   1.504  10.308  0.6902  0.0553 -1.0328
  748MOL0     H98719   9.716   1.544  10.301  2.3943  1.0161  0.2647
  748MOL0     H98720   9.318   1.395  10.416 -1.3495 -0.2241  0.0285
  748MOL0     H98721   9.077   1.460  10.446 -1.8685  0.0713 -0.0882
  748MOL0     H98722   9.219   0.770  10.334 -0.4677  2.8149 -3.2202
  748MOL0     H98723   9.435   0.890  10.400 -1.1937  0.7811 -2.2919
  748MOL0     H98724   9.626   1.278  10.576  3.2583  3.6743 -0.3680
  748MOL0     H98725   9.832   1.381  10.596  0.5656 -0.4270  0.5789
  748MOL0     H98726  10.014   1.453  10.731 -0.0474  2.1443 -0.3788
  748MOL0     H98727  10.045   1.419  10.554 -2.4299  1.6193  0.9298
  748MOL0     H98728  10.238   1.414  10.804  3.1076  1.1519 -0.0324
  748MOL0     H98729  10.290   1.391  10.638  0.6274  2.1687 -2.0525
  748MOL0     H98730  10.150   1.641  10.740 -0.0321 -0.2786  1.8965
  748MOL0     H98731  10.197   1.604  10.568  3.6662 -1.3385 -0.3665
  748MOL0     H98732  10.431   1.588  10.598  0.0417 -1.7261  0.6525
  748MOL0     H98733  10.357   1.741  10.632 -2.1489  0.3812  1.1191
  748MOL0     H98734  10.519   1.641  11.002  0.8585  1.5723 -0.7659
  748MOL0     H98735  10.012   0.985  10.690 -0.6178 -0.9290 -0.0778
  748MOL0     H98736   9.805   0.894  10.660  3.6554 -0.3342 -1.0849
  749MOL0     O98737   8.626  11.072  10.083 -0.2851 -0.4129 -0.9833
  749MOL0     C98738   8.654  11.065  10.206 -0.2450 -0.2297 -0.1657
  749MOL0     O98739   8.593  10.998  10.295  0.3303 -0.7141 -0.0209
  749MOL0     C98740   8.499  10.903  10.279  0.4732 -0.0752 -0.3925
  749MOL0     C98741   8.407  10.893  10.389 -0.3504 -0.0621  0.5626
  749MOL0     C98742   8.304  10.792  10.391  0.7515  0.2253  0.6450
  749MOL0     C98743   8.288  10.712  10.274  0.0688  0.6590 -0.1439
  749MOL0     O98744   8.190  10.624  10.240 -0.2523  0.1220 -0.6454
  749MOL0     C98745   8.086  10.599  10.338 -0.0683 -0.4826  0.2961
  749MOL0     C98746   8.011  10.472  10.302 -0.4838  0.1031  0.0405
  749MOL0     C98747   7.926  10.490  10.183 -0.3581  0.4592  0.1955
  749MOL0     C98748   7.898  10.353  10.120 -0.0699 -0.4555 -1.1400
  749MOL0     C98749   7.805  10.360  10.000 -0.2043 -0.4362 -0.6454
  749MOL0     C98750   7.815  10.235   9.915 -0.2133  0.7672  0.3608
  749MOL0     C98751   7.717  10.216   9.802 -0.1063 -0.8814  0.2134
  749MOL0     C98752   7.703  10.346   9.722 -0.0350  0.0921  0.8513
  749MOL0     N98753   7.611  10.335   9.605  1.0123 -0.3048  0.1013
  749MOL0     C98754   7.479  10.309   9.622 -0.0122 -0.0954 -0.7158
  749MOL0     C98755   7.418  10.309   9.500 -0.8078  0.9461  0.3909
  749MOL0     C98756   7.272  10.281   9.472  0.0857 -0.0419  0.5145
  749MOL0     C98757   7.207  10.393   9.392 -0.1840  0.4040 -0.0779
  749MOL0     C98758   7.061  10.360   9.358  1.2828  0.3341 -0.4657
  749MOL0     C98759   7.017  10.234   9.276 -0.5346 -0.1386  0.0768
  749MOL0     O98760   6.873  10.248   9.253  0.5329 -0.1269 -0.7684
  749MOL0     C98761   6.791  10.145   9.299 -0.3291  0.5369 -0.2536
  749MOL0     C98762   6.799  10.092   9.422 -0.1432  0.1392 -1.0290
  749MOL0     C98763   6.710   9.986   9.457  0.2677  0.6414  0.8522
  749MOL0     C98764   6.601   9.956   9.376 -0.9616  0.9436  0.7438
  749MOL0     C98765   6.506   9.855   9.425  0.5168  0.1096 -0.5372
  749MOL0     O98766   6.414   9.814   9.335  0.0324  0.3680  0.7416
  749MOL0     C98767   6.317   9.717   9.364 -0.0679 -0.6454  0.1662
  749MOL0     C98768   6.328   9.581   9.343  0.0487  0.4315 -0.2144
  749MOL0     C98769   6.225   9.494   9.376  0.7905  0.0220  0.1046
  749MOL0     C98770   6.103   9.541   9.425  0.5556  0.3752  0.5635
  749MOL0     O98771   6.009   9.441   9.443  0.5311  0.6701  0.1246
  749MOL0     C98772   5.882   9.502   9.490  0.3722  0.2114  0.7991
  749MOL0     C98773   5.779   9.391   9.485  0.3958 -0.8051 -0.4543
  749MOL0     C98774   5.659   9.399   9.386 -0.4389 -0.9210 -0.0999
  749MOL0     C98775   5.555   9.289   9.415  0.0588  0.3767 -0.0263
  749MOL0     C98776   5.444   9.287   9.303 -1.2752 -0.9072 -0.2585
  749MOL0     C98777   5.320   9.208   9.345 -0.9569 -0.2164 -0.3814
  749MOL0     C98778   5.217   9.194   9.224  0.0019  0.0265 -0.0781
  749MOL0     C98779   5.075   9.149   9.261 -0.5899 -0.1534  0.5189
  749MOL0    Cl98780   5.015   9.257   9.393  0.3542 -0.1745  0.0205
  749MOL0     C98781   6.089   9.678   9.446  0.2520 -0.0018 -0.0520
  749MOL0     C98782   6.202   9.760   9.427  0.8139 -0.7393 -0.3967
  749MOL0     O98783   6.527   9.792   9.529  0.6493  0.9847  0.2202
  749MOL0     C98784   6.593  10.019   9.255 -0.6532 -0.5484  0.5270
  749MOL0     C98785   6.689  10.116   9.210 -0.2825 -1.4988 -0.4456
  749MOL0     N98786   7.520  10.327   9.409 -0.2475 -0.4953 -0.2746
  749MOL0     N98787   7.633  10.358   9.469 -0.3590 -0.3826 -0.2051
  749MOL0     C98788   8.379  10.722  10.166  0.7396  0.1269 -0.0062
  749MOL0     C98789   8.486  10.813  10.175  0.8154 -0.1301  0.7305
  749MOL0     C98790   8.775  11.146  10.251  1.6373  0.5636  0.6059
  749MOL0     C98791   8.813  11.143  10.383  0.5398  0.5946  0.2374
  749MOL0     C98792   8.929  11.203  10.437 -0.0793  0.7657  1.2900
  749MOL0     C98793   9.016  11.273  10.348 -0.6128 -0.3079  0.1392
  749MOL0     O98794   9.136  11.336  10.390  0.6095  0.1583 -0.9558
  749MOL0     C98795   9.177  11.313  10.524 -0.2619 -0.6636  0.3597
  749MOL0     C98796   9.316  11.381  10.535 -0.4053  0.2257  0.7912
  749MOL0     C98797   9.423  11.311  10.443 -0.0312  0.3669 -0.4618
  749MOL0     C98798   9.517  11.423  10.396  0.0522  0.2604 -0.2178
  749MOL0     C98799   9.604  11.485  10.494  0.1397 -0.1684  0.4831
  749MOL0     C98800   9.685  11.545  10.552 -0.1559 -0.8880  0.0306
  749MOL0     C98801   8.982  11.277  10.210 -0.1084 -0.1318  0.1369
  749MOL0     C98802   8.868  11.218  10.161  0.8800  0.6881  0.5155
  749MOL0     H98803   8.416  10.943  10.485  2.2664 -1.3056  1.0550
  749MOL0     H98804   8.234  10.801  10.473  0.9253  1.2763  0.6912
  749MOL0     H98805   8.014  10.681  10.334 -1.0503 -1.3196  0.4231
  749MOL0     H98806   8.126  10.590  10.440 -2.4583  2.0370  1.5894
  749MOL0     H98807   7.950  10.439  10.386 -1.2932 -1.1817 -1.0167
  749MOL0     H98808   8.081  10.390  10.284 -1.0342 -0.6998  1.4238
  749MOL0     H98809   7.990  10.544  10.113 -1.6987 -1.3671 -2.5738
  749MOL0     H98810   7.837  10.551  10.206 -0.3308 -0.4292  3.0311
  749MOL0     H98811   7.991  10.304  10.090 -0.6360 -1.9158 -0.6109
  749MOL0     H98812   7.852  10.279  10.187  2.0522 -0.2061  0.6903
  749MOL0     H98813   7.820  10.450   9.939 -0.9318  0.5105  0.5350
  749MOL0     H98814   7.701  10.366  10.032 -1.2945  2.3607 -4.0288
  749MOL0     H98815   7.799  10.157   9.990 -0.2265  3.0392  2.8253
  749MOL0     H98816   7.918  10.222   9.881  0.8518  2.2974  2.7521
  749MOL0     H98817   7.744  10.132   9.736  1.6623  0.4632 -0.8776
  749MOL0     H98818   7.615  10.197   9.837 -0.5376  0.4668 -0.2528
  749MOL0     H98819   7.797  10.383   9.678 -1.5421  1.5875 -1.2830
  749MOL0     H98820   7.669  10.430   9.783 -0.1945  0.6174  0.0493
  749MOL0     H98821   7.447  10.302   9.725  1.9899  1.6570  0.1011
  749MOL0     H98822   7.217  10.272   9.566  0.3368 -1.2184  0.5597
  749MOL0     H98823   7.270  10.180   9.431  1.6633 -1.3717  3.4061
  749MOL0     H98824   7.268  10.413   9.304  3.4452 -3.4292  1.2532
  749MOL0     H98825   7.195  10.484   9.452 -2.5126 -1.7013  2.9961
  749MOL0     H98826   7.005  10.357   9.452 -0.7977  3.8828 -1.4091
  749MOL0     H98827   7.029  10.455   9.314  1.9617 -0.3204 -2.5177
  749MOL0     H98828   7.057  10.146   9.328  0.2415  0.7977  1.1078
  749MOL0     H98829   7.062  10.254   9.178 -0.5315  0.6975  0.2497
  749MOL0     H98830   6.870  10.134   9.492 -3.8053  4.9722  0.3643
  749MOL0     H98831   6.729   9.933   9.550 -1.4190 -0.2304  0.7372
  749MOL0     H98832   6.416   9.538   9.297  0.5576  0.7503  0.4532
  749MOL0     H98833   6.232   9.390   9.349  0.7824  0.9006 -3.7942
  749MOL0     H98834   5.863   9.587   9.424 -2.0505 -0.5133  0.4719
  749MOL0     H98835   5.887   9.548   9.589  1.1392  1.2943  0.2753
  749MOL0     H98836   5.728   9.400   9.582  0.9001  2.4670 -0.4044
  749MOL0     H98837   5.819   9.289   9.486  0.2965 -0.8482  0.9178
  749MOL0     H98838   5.700   9.393   9.285  0.7914  1.6428  0.1726
  749MOL0     H98839   5.610   9.497   9.385  2.0623  0.4043 -0.5356
  749MOL0     H98840   5.607   9.193   9.419 -1.5447 -0.5152 -0.0844
  749MOL0     H98841   5.520   9.304   9.517  1.1284 -1.4000  0.6547
  749MOL0     H98842   5.487   9.243   9.212 -1.6397  0.8792 -1.3390
  749MOL0     H98843   5.407   9.390   9.295  0.6193 -0.2415 -0.9171
  749MOL0     H98844   5.265   9.245   9.432 -2.2842 -0.0952 -1.2483
  749MOL0     H98845   5.353   9.109   9.379  2.2504  1.9909  3.8857
  749MOL0     H98846   5.206   9.297   9.190 -1.7618  0.1071  0.6038
  749MOL0     H98847   5.268   9.126   9.156  1.5991  0.8903  0.2085
  749MOL0     H98848   5.065   9.048   9.304 -3.7967  0.1778  0.8237
  749MOL0     H98849   5.012   9.163   9.173 -2.1896  0.1961  1.6696
  749MOL0     H98850   5.996   9.730   9.468 -0.2549 -0.0583 -1.8708
  749MOL0     H98851   6.199   9.864   9.457  0.5563 -0.7345 -0.4332
  749MOL0     H98852   6.516   9.991   9.183  1.7623 -1.0130 -2.0455
  749MOL0     H98853   6.690  10.164   9.113  0.9769  1.1779  0.7809
  749MOL0     H98854   8.367  10.659  10.078  0.7440  1.6187 -1.1233
  749MOL0     H98855   8.557  10.818  10.092 -2.7895 -0.0320 -2.6157
  749MOL0     H98856   8.757  11.088  10.457  0.7835 -2.1746 -1.4941
  749MOL0     H98857   8.946  11.178  10.541 -4.1290 -0.9343  1.7087
  749MOL0     H98858   9.183  11.206  10.547  1.8982 -0.9715 -1.3014
  749MOL0     H98859   9.115  11.368  10.597  0.9760  2.2607 -0.6387
  749MOL0     H98860   9.301  11.488  10.519  1.5671  0.6131  1.2606
  749MOL0     H98861   9.347  11.360  10.638 -0.9600  0.5044  1.0169
  749MOL0     H98862   9.378  11.266  10.354 -0.3587 -0.5903  0.1737
  749MOL0     H98863   9.487  11.236  10.491  4.1689  3.8743  0.1091
  749MOL0     H98864   9.584  11.374  10.324 -0.4381 -1.4309  0.4143
  749MOL0     H98865   9.465  11.502  10.343  1.3671  2.2414  1.2673
  749MOL0     H98866   9.778  11.577  10.593 -0.4458  1.0297 -0.6613
  749MOL0     H98867   9.056  11.319  10.143 -2.1366  0.5641 -1.8218
  749MOL0     H98868   8.859  11.205  10.054  3.4975  0.1439  0.3005
  750MOL0     O98869   9.764   1.208   5.528 -0.6473  0.3961  0.2768
  750MOL0     C98870   9.711   1.314   5.569 -0.0865 -0.2561 -0.3066
  750MOL0     O98871   9.587   1.322   5.632 -0.6280  0.1633  0.1248
  750MOL0     C98872   9.523   1.204   5.653  0.2277  0.1931  0.6965
  750MOL0     C98873   9.539   1.127   5.774 -0.3818 -0.3666  0.3052
  750MOL0     C98874   9.470   1.011   5.795 -0.4647 -0.5972  0.2423
  750MOL0     C98875   9.390   0.960   5.698 -0.0831  0.0213  0.5984
  750MOL0     O98876   9.333   0.842   5.714  0.6155  0.7448  0.0660
  750MOL0     C98877   9.260   0.829   5.840  0.2956 -0.4710 -0.5553
  750MOL0     C98878   9.145   0.931   5.849  0.6865 -0.1835 -0.0941
  750MOL0     C98879   9.041   0.938   5.734  0.0851 -0.4557 -0.3943
  750MOL0     C98880   8.976   0.802   5.722  0.3906  0.4631 -0.8434
  750MOL0     C98881   8.873   0.791   5.612  0.2900 -0.3539 -0.2265
  750MOL0     C98882   8.926   0.788   5.469 -0.0427 -0.2816  0.6854
  750MOL0     C98883   8.820   0.805   5.360 -0.5369  0.5407 -0.7269
  750MOL0     C98884   8.886   0.788   5.217 -0.2267  1.0847  1.1920
  750MOL0     N98885   9.016   0.860   5.208 -0.2279  0.2821 -0.8095
  750MOL0     C98886   9.134   0.803   5.212 -0.5974 -0.3134 -0.0418
  750MOL0     C98887   9.221   0.906   5.165 -0.0178  0.2551 -1.0686
  750MOL0     C98888   9.367   0.906   5.120  0.6923  0.4080  0.7850
  750MOL0     C98889   9.461   0.919   5.235  0.5424 -0.6214 -0.0649
  750MOL0     C98890   9.600   0.875   5.186 -0.0305 -1.6649 -0.7009
  750MOL0     C98891   9.709   0.952   5.265 -0.1163 -0.2004  1.1029
  750MOL0     O98892   9.836   0.922   5.201  0.0322 -0.0726  0.1620
  750MOL0     C98893   9.947   0.947   5.273  0.1038  0.6710  0.5083
  750MOL0     C98894  10.026   1.063   5.274 -0.2533 -0.7518  0.2609
  750MOL0     C98895  10.157   1.073   5.335  1.0062  0.3078  0.3911
  750MOL0     C98896  10.199   0.964   5.403 -0.4911  0.2138 -0.2335
  750MOL0     C98897  10.323   0.974   5.468  0.5083  0.4871 -0.1353
  750MOL0     O98898  10.348   0.880   5.569 -0.9837 -0.1110 -1.2474
  750MOL0     C98899  10.449   0.904   5.659  0.1836  0.7068  1.9213
  750MOL0     C98900  10.591   0.880   5.630  0.3292 -0.2443 -0.0062
  750MOL0     C98901  10.680   0.920   5.727 -0.0547 -0.9350  0.1443
  750MOL0     C98902  10.642   0.983   5.851 -0.6188 -1.1532  0.6763
  750MOL0     O98903  10.719   1.024   5.949 -0.6298  0.0147 -1.4940
  750MOL0     C98904  10.860   1.040   5.915 -0.0330 -0.2721  0.1644
  750MOL0     C98905  10.941   1.128   6.011  0.3567  0.0554  1.0069
  750MOL0     C98906  10.932   1.102   6.159 -0.1840 -0.8584  0.1122
  750MOL0     C98907  11.052   1.176   6.232  0.3249 -0.9346  0.9248
  750MOL0     C98908  11.179   1.090   6.234  0.1651  0.5837 -0.5125
  750MOL0     C98909  11.295   1.178   6.279  0.6911  0.7828  0.6510
  750MOL0     C98910  11.431   1.121   6.276 -0.1002 -0.2219  0.3536
  750MOL0     C98911  11.552   1.205   6.300 -0.2853  0.0717 -0.0401
  750MOL0    Cl98912  11.540   1.295   6.460 -0.3722  0.0857  0.2808
  750MOL0     C98913  10.502   1.005   5.870 -1.0675 -0.0039  0.5732
  750MOL0     C98914  10.405   0.954   5.778  0.2426 -0.1419 -0.3248
  750MOL0     O98915  10.391   1.068   5.439 -0.2147  0.4117 -0.0568
  750MOL0     C98916  10.123   0.843   5.412 -0.2930  0.2529 -0.4532
  750MOL0     C98917  10.000   0.839   5.346  0.1775  0.6557  0.3689
  750MOL0     N98918   9.148   1.025   5.164  0.3506  1.1210 -0.1416
  750MOL0     N98919   9.025   0.991   5.178  0.0092 -0.1265 -0.4844
  750MOL0     C98920   9.372   1.032   5.578 -0.0971 -0.0203 -0.6383
  750MOL0     C98921   9.424   1.158   5.559 -0.2005 -0.0253  0.9348
  750MOL0     C98922   9.789   1.442   5.571 -0.7619  0.8530  0.9980
  750MOL0     C98923   9.914   1.458   5.499  0.0556 -0.1969 -0.2819
  750MOL0     C98924   9.974   1.581   5.506  0.5111  0.3255  0.0899
  750MOL0     C98925   9.921   1.691   5.581 -0.0251  0.3290  0.4110
  750MOL0     O98926   9.975   1.806   5.616 -0.3772  0.0483  0.2239
  750MOL0     C98927  10.116   1.799   5.646 -0.1113  0.7625  0.7706
  750MOL0     C98928  10.148   1.912   5.749 -0.4589 -0.4080 -0.1197
  750MOL0     C98929  10.077   1.888   5.886  0.1995  0.2346  0.8724
  750MOL0     C98930  10.108   2.003   5.987 -0.2210 -0.2140  1.4916
  750MOL0     C98931  10.251   2.006   6.017 -0.0296  0.6209  0.3034
  750MOL0     C98932  10.373   2.017   6.026 -0.6384 -0.2193 -0.3854
  750MOL0     C98933   9.806   1.668   5.650  0.1544  0.3676  0.7135
  750MOL0     C98934   9.746   1.542   5.650 -0.2852  0.3590  0.7132
  750MOL0     H98935   9.610   1.155   5.852  0.6562 -1.7473 -0.0978
  750MOL0     H98936   9.490   0.949   5.882 -2.6162 -1.9075 -0.1286
  750MOL0     H98937   9.319   0.837   5.932 -0.3159 -2.6408  0.0824
  750MOL0     H98938   9.209   0.732   5.845  0.9038 -0.7540  0.3547
  750MOL0     H98939   9.202   1.023   5.841  2.3589 -1.0481  1.2871
  750MOL0     H98940   9.089   0.926   5.943 -1.8645 -1.6545 -1.5558
  750MOL0     H98941   9.090   0.970   5.641 -2.2508  0.5598 -1.3419
  750MOL0     H98942   8.960   1.009   5.756 -0.9215 -2.2108  2.0060
  750MOL0     H98943   9.056   0.731   5.698  1.2872  0.5975  1.4825
  750MOL0     H98944   8.947   0.757   5.817  0.8414  0.9952 -0.4451
  750MOL0     H98945   8.813   0.883   5.612  3.2388  1.7289 -0.0039
  750MOL0     H98946   8.805   0.708   5.633 -0.2228 -0.3151 -1.6430
  750MOL0     H98947   8.975   0.692   5.451 -0.9496 -0.3646 -1.6575
  750MOL0     H98948   9.001   0.866   5.451  0.7948 -1.5171 -1.6653
  750MOL0     H98949   8.733   0.739   5.371 -0.5878  0.8494  0.9892
  750MOL0     H98950   8.783   0.907   5.369  1.0939  1.0846  0.2861
  750MOL0     H98951   8.815   0.819   5.140  1.1671  0.6813 -0.3215
  750MOL0     H98952   8.925   0.686   5.205 -0.6753  0.4950  4.0744
  750MOL0     H98953   9.157   0.698   5.231  1.0497 -0.0054 -0.2107
  750MOL0     H98954   9.394   0.976   5.041  1.6542 -1.4660 -0.6425
  750MOL0     H98955   9.393   0.811   5.072 -0.2511  0.7827 -0.5321
  750MOL0     H98956   9.429   0.851   5.315  1.1717  3.4477  4.0294
  750MOL0     H98957   9.466   1.019   5.278  2.1801 -1.6646  2.4181
  750MOL0     H98958   9.617   0.771   5.213  0.2500 -1.2201  0.9355
  750MOL0     H98959   9.629   0.913   5.088  2.1799  0.8432  0.7801
  750MOL0     H98960   9.713   0.914   5.368 -0.4301 -0.1987  1.1176
  750MOL0     H98961   9.678   1.056   5.266  1.1300  0.3092 -2.2578
  750MOL0     H98962   9.986   1.147   5.218 -1.9654 -2.4250 -1.1845
  750MOL0     H98963  10.203   1.172   5.333 -0.8519  1.3467  3.0786
  750MOL0     H98964  10.618   0.836   5.534  2.2203 -0.3178  0.5230
  750MOL0     H98965  10.786   0.905   5.713  0.3901 -0.3946  2.4670
  750MOL0     H98966  10.851   1.088   5.817 -1.9093  0.7772  0.7908
  750MOL0     H98967  10.909   0.943   5.904 -0.9577 -0.7820  0.3967
  750MOL0     H98968  10.917   1.234   5.997 -0.1555 -0.2938 -1.1637
  750MOL0     H98969  11.045   1.118   5.979  0.3325 -1.3108  1.2883
  750MOL0     H98970  10.927   0.996   6.188  0.6093 -1.0332 -0.3530
  750MOL0     H98971  10.841   1.144   6.202  1.2790  1.5648  1.0477
  750MOL0     H98972  11.073   1.272   6.184 -1.1657  0.6129  3.1639
  750MOL0     H98973  11.019   1.198   6.334  3.0103 -0.4954  1.7610
  750MOL0     H98974  11.193   1.053   6.132  0.6058  0.1253 -0.2893
  750MOL0     H98975  11.159   1.006   6.301 -3.1258  2.0656  0.6113
  750MOL0     H98976  11.274   1.185   6.386 -2.5705 -4.6477  0.7646
  750MOL0     H98977  11.292   1.273   6.226  0.2152 -0.3880 -1.5367
  750MOL0     H98978  11.451   1.035   6.341  4.7547 -0.2195 -0.7927
  750MOL0     H98979  11.449   1.070   6.181 -0.4447  2.0842 -1.0280
  750MOL0     H98980  11.559   1.285   6.225  0.0998 -2.6508 -3.1628
  750MOL0     H98981  11.639   1.140   6.291 -0.4676 -0.2861  0.7749
  750MOL0     H98982  10.467   1.055   5.960 -0.0347  1.3927  0.2424
  750MOL0     H98983  10.301   0.967   5.806  0.7218 -0.1834  1.5818
  750MOL0     H98984  10.161   0.760   5.469 -0.7217  1.0034  0.9709
  750MOL0     H98985   9.936   0.752   5.357 -2.0179  2.2696  1.2890
  750MOL0     H98986   9.301   0.993   5.506 -0.2767  0.2299 -0.5967
  750MOL0     H98987   9.410   1.216   5.468 -0.4471 -0.5243  0.6487
  750MOL0     H98988   9.958   1.370   5.454  0.3302  0.9465 -2.3918
  750MOL0     H98989  10.074   1.588   5.463 -0.8291  0.6118 -3.2461
  750MOL0     H98990  10.172   1.820   5.554  1.2868 -0.6322  1.2602
  750MOL0     H98991  10.156   1.708   5.692  3.0065  1.5816 -0.0485
  750MOL0     H98992  10.255   1.913   5.774 -0.6104 -0.6609  0.5865
  750MOL0     H98993  10.112   2.008   5.711 -1.1154 -0.7841 -0.4622
  750MOL0     H98994  10.104   1.788   5.919  0.1706  0.2843  1.0508
  750MOL0     H98995   9.968   1.898   5.876  0.4460  3.1835  0.0762
  750MOL0     H98996  10.070   2.096   5.945 -1.7549 -1.2490  0.4639
  750MOL0     H98997  10.050   1.986   6.079 -4.4330  1.5072 -0.5638
  750MOL0     H98998  10.477   2.027   6.050 -0.9531  2.8242  0.1371
  750MOL0     H98999   9.762   1.744   5.713 -0.9027  0.5202 -0.1830
  750MOL0     H99000   9.654   1.530   5.706 -0.2342 -3.7450  0.2092
  751MOL0     O99001   2.389   4.024   8.639 -0.7638 -0.1624 -0.4529
  751MOL0     C99002   2.488   4.064   8.699  0.5628 -1.3044 -0.4590
  751MOL0     O99003   2.498   4.071   8.837  0.1676  0.1468 -0.0498
  751MOL0     C99004   2.382   4.055   8.907  0.0974  0.5047 -0.8474
  751MOL0     C99005   2.367   3.930   8.948 -1.1706 -0.3622  0.2005
  751MOL0     C99006   2.246   3.892   9.007 -0.5866 -0.2738  1.0622
  751MOL0     C99007   2.143   3.982   9.029  0.5115 -0.9272  0.3264
  751MOL0     O99008   2.026   3.918   9.082 -0.1869 -0.1299 -0.0559
  751MOL0     C99009   1.924   4.017   9.108  0.1743  0.4756 -0.0756
  751MOL0     C99010   1.815   3.952   9.194  0.7621  0.0015 -0.1070
  751MOL0     C99011   1.851   3.947   9.342 -0.5099 -0.2281 -0.3854
  751MOL0     C99012   1.844   4.079   9.406  0.5132  0.3549 -0.0386
  751MOL0     C99013   1.815   4.053   9.557 -0.6312 -1.0460 -0.2312
  751MOL0     C99014   1.928   3.981   9.637  0.1312 -0.3077  0.2503
  751MOL0     C99015   1.882   3.939   9.774 -0.9048  0.0575  0.3851
  751MOL0     C99016   1.995   3.886   9.861  0.2102  0.3877 -0.7342
  751MOL0     N99017   2.041   3.753   9.830 -0.8543  0.0262 -0.0457
  751MOL0     C99018   1.981   3.647   9.766 -0.5716  0.2801 -1.2420
  751MOL0     C99019   2.072   3.547   9.772 -0.5983  0.7748 -1.0165
  751MOL0     C99020   2.062   3.413   9.713  0.6989  0.3405 -0.2931
  751MOL0     C99021   1.988   3.307   9.800 -0.3613  0.1382 -0.1283
  751MOL0     C99022   2.043   3.309   9.943 -0.7473 -0.1549  0.3818
  751MOL0     C99023   2.195   3.283   9.944 -0.7017 -0.6900 -0.2485
  751MOL0     O99024   2.245   3.258  10.075  0.7086 -0.5861 -0.6254
  751MOL0     C99025   2.364   3.190  10.073 -0.5815 -0.6521 -0.1438
  751MOL0     C99026   2.452   3.168   9.959  0.6963 -0.6004  0.5071
  751MOL0     C99027   2.562   3.076   9.972 -0.2133 -0.2963  0.2862
  751MOL0     C99028   2.589   3.008  10.093 -0.1353  0.6405 -0.6122
  751MOL0     C99029   2.703   2.903  10.103 -0.5345 -0.8532  0.1150
  751MOL0     O99030   2.807   2.935  10.027  0.4299  0.1533 -0.0469
  751MOL0     C99031   2.927   2.868  10.039 -0.5688 -1.0557  0.5674
  751MOL0     C99032   2.944   2.754   9.966  1.2637 -0.0763  0.3095
  751MOL0     C99033   3.065   2.684   9.963  0.4793 -0.0290 -0.2723
  751MOL0     C99034   3.179   2.734  10.025  0.8279 -0.0144  0.0965
  751MOL0     O99035   3.300   2.679  10.027 -1.2604  0.0683 -0.1564
  751MOL0     C99036   3.355   2.652  10.155 -0.5131 -0.4815  0.7385
  751MOL0     C99037   3.294   2.538  10.232  0.8383 -0.2354  0.0206
  751MOL0     C99038   3.347   2.402  10.194 -0.4065  0.2471  0.4131
  751MOL0     C99039   3.309   2.342  10.058  1.2640  0.1054  0.2871
  751MOL0     C99040   3.370   2.210  10.006  0.9389 -0.1609  0.7598
  751MOL0     C99041   3.506   2.172  10.057 -0.5186 -0.0882 -0.7043
  751MOL0     C99042   3.545   2.027  10.040  0.1150  0.6904 -0.3428
  751MOL0     C99043   3.679   2.003  10.099 -0.3651 -0.1817 -0.2322
  751MOL0    Cl99044   3.799   2.097  10.017 -0.0096 -0.0129 -0.1785
  751MOL0     C99045   3.159   2.841  10.104 -0.1115  0.9488  0.2325
  751MOL0     C99046   3.037   2.905  10.115  0.8084  0.5348  0.5916
  751MOL0     O99047   2.704   2.813  10.184  0.6552 -0.2566 -0.0982
  751MOL0     C99048   2.499   3.035  10.199 -0.4941 -0.4719 -0.9828
  751MOL0     C99049   2.389   3.120  10.190 -1.1113 -0.8259 -0.3771
  751MOL0     N99050   2.185   3.598   9.829 -0.2235 -0.0293  0.1646
  751MOL0     N99051   2.161   3.712   9.877 -0.0614  0.2977  0.3120
  751MOL0     C99052   2.159   4.114   8.973  0.6442  0.4936  0.5491
  751MOL0     C99053   2.282   4.153   8.928  0.1744  0.6960  0.2132
  751MOL0     C99054   2.601   4.121   8.619  0.7241 -0.9761  0.1541
  751MOL0     C99055   2.713   4.198   8.677 -0.4883  0.3884  0.4192
  751MOL0     C99056   2.826   4.230   8.611 -0.2688 -0.1531 -0.2393
  751MOL0     C99057   2.837   4.191   8.476 -0.0353  0.0081 -0.6002
  751MOL0     O99058   2.946   4.212   8.394  0.5140  0.3912  0.1483
  751MOL0     C99059   3.075   4.234   8.443 -0.1838  0.3675 -0.4819
  751MOL0     C99060   3.140   4.103   8.485 -0.4542  0.6045 -0.3357
  751MOL0     C99061   3.288   4.113   8.545 -0.3320  0.6659  0.7945
  751MOL0     C99062   3.296   3.993   8.644  0.8145 -0.1231  0.0741
  751MOL0     C99063   3.429   4.009   8.708 -0.6280  0.5077 -0.4105
  751MOL0     C99064   3.536   4.005   8.771  1.2733 -0.3921  0.0279
  751MOL0     C99065   2.727   4.120   8.420  0.9885  0.0053 -0.5689
  751MOL0     C99066   2.612   4.077   8.489  0.4749  0.6758  0.2223
  751MOL0     H99067   2.448   3.859   8.938 -1.8415 -0.8285 -2.4801
  751MOL0     H99068   2.222   3.791   9.039 -0.5990 -1.7035 -2.8187
  751MOL0     H99069   1.876   4.042   9.013  0.3990  1.4939  0.0719
  751MOL0     H99070   1.953   4.110   9.158 -1.8632  2.0548 -1.6663
  751MOL0     H99071   1.801   3.847   9.166 -1.1228 -0.5385  2.5577
  751MOL0     H99072   1.716   3.996   9.175  0.5189  0.6038  2.2464
  751MOL0     H99073   1.944   3.900   9.376 -0.9407  1.0499  2.8296
  751MOL0     H99074   1.783   3.873   9.385 -0.9071  1.3516  1.8655
  751MOL0     H99075   1.942   4.128   9.401  1.0144 -0.3314  1.9458
  751MOL0     H99076   1.772   4.148   9.362  1.5863  1.2076 -0.5256
  751MOL0     H99077   1.723   3.994   9.555 -0.0080 -2.0705  0.2764
  751MOL0     H99078   1.784   4.142   9.612  1.0684 -0.2538 -0.4617
  751MOL0     H99079   2.016   4.044   9.656 -0.0593 -0.0967  0.4411
  751MOL0     H99080   1.956   3.887   9.588  0.3243 -0.4225  0.5825
  751MOL0     H99081   1.844   4.027   9.827 -0.1575 -1.1018  3.0104
  751MOL0     H99082   1.804   3.862   9.775  0.0541 -0.9835 -1.2825
  751MOL0     H99083   1.959   3.874   9.963  3.5358  0.1904  0.5290
  751MOL0     H99084   2.081   3.952   9.862  1.5610 -1.0794  3.8387
  751MOL0     H99085   1.882   3.636   9.721 -1.8504 -2.0412  1.7571
  751MOL0     H99086   2.158   3.373   9.678  1.2280  0.6436  0.7693
  751MOL0     H99087   1.998   3.423   9.625 -0.6946 -1.1780  0.5064
  751MOL0     H99088   2.008   3.212   9.750  3.2122  0.8600 -0.3034
  751MOL0     H99089   1.879   3.322   9.802 -1.1078 -3.9167 -1.2577
  751MOL0     H99090   2.020   3.405   9.991 -1.0195  0.4420 -0.9229
  751MOL0     H99091   1.995   3.228   9.999 -2.2550 -0.1705 -0.8851
  751MOL0     H99092   2.244   3.372   9.904 -2.0480  0.9738  1.6156
  751MOL0     H99093   2.212   3.194   9.883  0.8615  1.3782 -3.0758
  751MOL0     H99094   2.441   3.233   9.873 -2.0811  0.2071  1.3495
  751MOL0     H99095   2.623   3.062   9.883 -0.8645  1.1097 -0.4130
  751MOL0     H99096   2.866   2.711   9.905  0.3618 -0.0407  1.3960
  751MOL0     H99097   3.067   2.599   9.896 -2.2945 -1.4035  1.2277
  751MOL0     H99098   3.358   2.739  10.221 -0.9563  1.2108 -1.3786
  751MOL0     H99099   3.461   2.632  10.137 -0.4904  1.3241 -1.5551
  751MOL0     H99100   3.186   2.545  10.244  0.9524  0.2161  0.8692
  751MOL0     H99101   3.330   2.546  10.335  0.3264 -0.9351  0.2624
  751MOL0     H99102   3.314   2.327  10.266 -2.2558  1.1472  0.5574
  751MOL0     H99103   3.456   2.406  10.203 -0.4532  0.9183  0.7618
  751MOL0     H99104   3.201   2.322  10.055  1.2628 -0.2207 -3.8070
  751MOL0     H99105   3.332   2.402   9.970 -2.1835 -0.7190 -1.3519
  751MOL0     H99106   3.383   2.190   9.899  0.0675 -1.8011  0.9324
  751MOL0     H99107   3.302   2.129  10.033 -1.6871  1.5803 -0.1417
  751MOL0     H99108   3.510   2.181  10.166  0.6951  0.6406 -0.7899
  751MOL0     H99109   3.588   2.232  10.016  1.4317 -0.2450  2.5437
  751MOL0     H99110   3.473   1.962  10.089 -0.5580  0.8358 -1.1199
  751MOL0     H99111   3.543   2.000   9.934 -0.2362  2.9970 -0.9754
  751MOL0     H99112   3.717   1.900  10.094  2.6307  0.8217 -0.1967
  751MOL0     H99113   3.672   2.036  10.203 -1.4322 -2.7627  0.6159
  751MOL0     H99114   3.248   2.881  10.152  0.6911 -0.3741 -0.1007
  751MOL0     H99115   3.041   2.985  10.188 -0.4983 -1.0402  2.5319
  751MOL0     H99116   2.522   2.997  10.298 -0.2878 -1.3335 -1.3563
  751MOL0     H99117   2.318   3.123  10.272 -0.2455  0.3204  0.3512
  751MOL0     H99118   2.075   4.183   8.970  0.0728 -0.1157  1.6940
  751MOL0     H99119   2.292   4.249   8.880 -1.9231 -0.3457 -2.5846
  751MOL0     H99120   2.713   4.241   8.776  0.9595  1.1573  0.1223
  751MOL0     H99121   2.910   4.284   8.655 -1.1022 -0.2593  1.5742
  751MOL0     H99122   3.081   4.299   8.530 -4.9504 -1.1436  1.2864
  751MOL0     H99123   3.122   4.282   8.356  0.2237  1.1324  0.1546
  751MOL0     H99124   3.078   4.044   8.553 -2.1685  2.4807 -0.2162
  751MOL0     H99125   3.133   4.033   8.400  0.7774  0.9213 -0.7191
  751MOL0     H99126   3.308   4.202   8.605  2.8241  1.1252 -0.7135
  751MOL0     H99127   3.364   4.098   8.467 -1.8397 -2.9455 -0.2098
  751MOL0     H99128   3.222   3.997   8.725  1.9613  0.0915  1.1288
  751MOL0     H99129   3.283   3.900   8.587 -2.8238  0.6219 -0.5767
  751MOL0     H99130   3.633   3.987   8.813  0.4742 -0.4078  2.0150
  751MOL0     H99131   2.735   4.110   8.312  2.2914  2.1629 -0.7345
  751MOL0     H99132   2.536   4.012   8.445 -1.3929  1.3025  2.3161
  752MOL0     O99133   6.646   6.045   6.438  0.8780  0.0443 -0.0091
  752MOL0     C99134   6.662   5.979   6.334  0.3390  0.7404  0.3623
  752MOL0     O99135   6.556   5.908   6.261 -0.1706 -0.3242 -0.1577
  752MOL0     C99136   6.423   5.898   6.315 -0.4505  1.3648 -0.0765
  752MOL0     C99137   6.364   5.773   6.310  0.0641  0.7248 -0.5409
  752MOL0     C99138   6.233   5.749   6.359  1.2044  0.0085 -0.0864
  752MOL0     C99139   6.163   5.858   6.414 -0.2662  0.3314  0.3114
  752MOL0     O99140   6.032   5.840   6.453 -0.0484  0.7598 -0.5472
  752MOL0     C99141   5.928   5.938   6.425  0.5398 -0.2997 -0.8212
  752MOL0     C99142   5.803   5.864   6.355  0.5036 -0.1485 -0.4972
  752MOL0     C99143   5.678   5.853   6.460 -0.2044  0.1869 -0.5096
  752MOL0     C99144   5.563   5.795   6.381 -0.3124 -0.3263 -0.3490
  752MOL0     C99145   5.436   5.814   6.461 -0.3791 -0.1032 -0.2042
  752MOL0     C99146   5.324   5.741   6.401  0.1866  0.1307 -0.0800
  752MOL0     C99147   5.212   5.720   6.504 -0.7310  0.1130  0.3565
  752MOL0     C99148   5.163   5.847   6.563 -0.2660 -0.0719  0.1502
  752MOL0     N99149   5.043   5.824   6.646 -0.4740  0.3559  0.1382
  752MOL0     C99150   5.049   5.801   6.781  1.2490 -0.6676  0.2882
  752MOL0     C99151   4.917   5.788   6.826 -0.1867  1.0447 -0.4981
  752MOL0     C99152   4.862   5.758   6.969 -0.2468 -0.4909 -0.1360
  752MOL0     C99153   4.740   5.659   6.959  0.1720  0.8699  0.1709
  752MOL0     C99154   4.722   5.600   7.099 -0.2847 -0.0771 -0.2863
  752MOL0     C99155   4.583   5.544   7.129  0.0382 -0.3681  0.2315
  752MOL0     O99156   4.486   5.649   7.120  0.3146 -0.7721 -0.2260
  752MOL0     C99157   4.356   5.628   7.155 -0.7720  0.5027  0.3375
  752MOL0     C99158   4.311   5.504   7.212 -0.5722 -0.2872  0.8497
  752MOL0     C99159   4.177   5.486   7.248 -0.5952 -0.2950 -0.0173
  752MOL0     C99160   4.085   5.587   7.222 -0.0426 -0.1784  0.1464
  752MOL0     C99161   3.942   5.584   7.251  0.3961  0.8212  0.7919
  752MOL0     O99162   3.861   5.682   7.219  0.3873 -0.4750 -0.1673
  752MOL0     C99163   3.736   5.699   7.267  0.7052  0.2769 -0.6014
  752MOL0     C99164   3.685   5.645   7.396 -0.1952  0.0989  0.0365
  752MOL0     C99165   3.547   5.657   7.425 -0.0181 -0.6324  0.1179
  752MOL0     C99166   3.468   5.726   7.338  0.8248 -0.4588 -0.4068
  752MOL0     O99167   3.331   5.733   7.359 -0.1769 -0.0191  0.1377
  752MOL0     C99168   3.240   5.781   7.260  0.3538 -0.5934  0.2791
  752MOL0     C99169   3.101   5.806   7.323  0.0687  0.8226 -0.4163
  752MOL0     C99170   2.990   5.803   7.214  0.1314  0.8958 -0.1384
  752MOL0     C99171   2.855   5.801   7.276 -0.1221 -0.3159 -0.0471
  752MOL0     C99172   2.751   5.823   7.174  0.5202 -0.0096  0.4093
  752MOL0     C99173   2.615   5.811   7.245  0.5158 -0.2533  0.8265
  752MOL0     C99174   2.490   5.789   7.139  0.2772  0.6473 -0.5417
  752MOL0     C99175   2.361   5.788   7.218 -0.1414  0.0885 -0.1513
  752MOL0    Cl99176   2.315   5.951   7.289 -0.0991  0.4808  0.1585
  752MOL0     C99177   3.526   5.784   7.229 -1.3892  0.2214  0.2398
  752MOL0     C99178   3.654   5.771   7.190  0.2647  0.1197  0.7095
  752MOL0     O99179   3.908   5.470   7.289 -0.4840 -0.6397  0.1285
  752MOL0     C99180   4.133   5.704   7.164  0.7754  0.2168  0.0524
  752MOL0     C99181   4.270   5.725   7.132  1.7689 -0.8748  0.4325
  752MOL0     N99182   4.839   5.811   6.715 -0.1644  0.1338 -0.1721
  752MOL0     N99183   4.916   5.830   6.609  0.4473  0.1226 -0.2227
  752MOL0     C99184   6.221   5.975   6.417 -0.3244  0.2493  0.0214
  752MOL0     C99185   6.350   5.998   6.366 -1.2673 -0.2401 -0.2326
  752MOL0     C99186   6.799   5.945   6.296  0.2639 -0.1503  0.3964
  752MOL0     C99187   6.835   5.861   6.185 -0.4212 -0.6436  0.6435
  752MOL0     C99188   6.970   5.847   6.146 -0.2324  0.3957  0.0325
  752MOL0     C99189   7.071   5.914   6.215  0.0445 -0.3255 -0.7247
  752MOL0     O99190   7.206   5.914   6.186  0.5596 -0.3458  0.4578
  752MOL0     C99191   7.258   5.834   6.075  0.1817  0.1611 -0.1150
  752MOL0     C99192   7.405   5.832   6.114 -0.1556  0.0558 -0.2926
  752MOL0     C99193   7.479   5.962   6.079  0.5941  0.2681 -0.6425
  752MOL0     C99194   7.621   5.969   6.149  0.2868 -0.2307  0.7029
  752MOL0     C99195   7.693   6.092   6.121  0.5524 -0.3670  0.8782
  752MOL0     C99196   7.755   6.192   6.097  0.1342  0.6494 -0.9779
  752MOL0     C99197   7.035   5.992   6.332  0.0428  0.3633 -0.7858
  752MOL0     C99198   6.906   6.002   6.370  0.2482  0.6540  0.7507
  752MOL0     H99199   6.403   5.682   6.265  2.5625  1.8332 -0.7937
  752MOL0     H99200   6.194   5.649   6.349  1.9229 -0.2639 -0.2457
  752MOL0     H99201   5.956   6.012   6.350 -0.7730 -0.4903 -1.5375
  752MOL0     H99202   5.897   5.992   6.515 -0.3604 -0.6836 -0.8810
  752MOL0     H99203   5.839   5.768   6.318  2.4534  0.5959 -0.6680
  752MOL0     H99204   5.783   5.927   6.268 -2.9826 -1.2915 -0.6761
  752MOL0     H99205   5.657   5.956   6.491  3.8752  1.1760 -0.3450
  752MOL0     H99206   5.707   5.793   6.547 -0.9072  1.0836  0.3707
  752MOL0     H99207   5.549   5.834   6.280  2.1056 -0.6544 -0.8706
  752MOL0     H99208   5.597   5.692   6.366 -2.5798 -1.3379  0.9522
  752MOL0     H99209   5.408   5.919   6.475 -1.6814 -0.3706 -0.6731
  752MOL0     H99210   5.447   5.770   6.560  0.0820 -0.1268 -0.2613
  752MOL0     H99211   5.363   5.644   6.369 -0.1817 -0.0556  0.0338
  752MOL0     H99212   5.287   5.795   6.314  0.5143  0.0669 -0.2595
  752MOL0     H99213   5.138   5.669   6.442 -0.8211  2.2113 -1.3862
  752MOL0     H99214   5.241   5.657   6.588  0.0710  0.5463  0.4152
  752MOL0     H99215   5.138   5.908   6.476 -1.3581  0.0711  0.5608
  752MOL0     H99216   5.244   5.890   6.623  0.8103 -1.0656 -0.5233
  752MOL0     H99217   5.134   5.785   6.847  1.5556 -1.4654 -0.2947
  752MOL0     H99218   4.830   5.853   7.012  3.7488  1.2037 -0.4976
  752MOL0     H99219   4.946   5.729   7.032  0.2093  3.3703  1.3257
  752MOL0     H99220   4.750   5.594   6.872  3.4003 -2.3063  2.6139
  752MOL0     H99221   4.656   5.726   6.939 -1.7736 -0.9052  1.8955
  752MOL0     H99222   4.797   5.522   7.118 -0.8652 -1.8732 -4.2600
  752MOL0     H99223   4.740   5.677   7.174 -1.5570  0.3967 -0.4461
  752MOL0     H99224   4.572   5.503   7.230  1.3978  3.7316  2.2646
  752MOL0     H99225   4.562   5.470   7.052 -2.8476  0.8318 -0.2747
  752MOL0     H99226   4.377   5.421   7.237 -0.3852 -1.4077 -2.7101
  752MOL0     H99227   4.149   5.386   7.282  0.3852 -0.4127  0.4746
  752MOL0     H99228   3.747   5.590   7.467 -2.6675 -1.1144  1.3682
  752MOL0     H99229   3.526   5.615   7.523 -2.0181  0.1129  0.0403
  752MOL0     H99230   3.235   5.699   7.186  0.3921 -0.0617 -0.3189
  752MOL0     H99231   3.269   5.878   7.220 -4.8209  1.3950  0.5746
  752MOL0     H99232   3.091   5.901   7.376 -1.3574  1.1334 -1.2066
  752MOL0     H99233   3.077   5.722   7.388 -4.2640  0.4185 -2.2164
  752MOL0     H99234   2.984   5.713   7.152 -0.3176  1.3538 -0.7757
  752MOL0     H99235   3.012   5.885   7.146  4.6287  0.3299  0.3502
  752MOL0     H99236   2.847   5.703   7.324 -1.3527  0.0122  0.4322
  752MOL0     H99237   2.846   5.881   7.350 -0.2794 -0.4183  0.0455
  752MOL0     H99238   2.754   5.747   7.096  2.3709 -0.0034  0.4436
  752MOL0     H99239   2.755   5.923   7.128  2.4688 -0.5128 -0.6113
  752MOL0     H99240   2.591   5.890   7.317 -0.4774  0.6427 -0.4501
  752MOL0     H99241   2.622   5.713   7.294 -0.6571 -0.9271 -0.2924
  752MOL0     H99242   2.490   5.864   7.059 -0.3325  0.9494 -0.2660
  752MOL0     H99243   2.510   5.691   7.094 -2.0874 -1.2108  2.1476
  752MOL0     H99244   2.373   5.718   7.301 -0.9142 -1.4308 -1.2673
  752MOL0     H99245   2.273   5.753   7.163 -1.3011 -0.6278  2.0325
  752MOL0     H99246   3.470   5.840   7.154  0.9128  0.4050 -1.4754
  752MOL0     H99247   3.691   5.820   7.101 -2.4830  0.7097 -0.1695
  752MOL0     H99248   4.063   5.783   7.141  0.5426 -0.2793 -1.0079
  752MOL0     H99249   4.298   5.820   7.088 -0.3721 -0.5378 -0.2925
  752MOL0     H99250   6.168   6.061   6.457  1.1212  1.5308 -0.6736
  752MOL0     H99251   6.396   6.097   6.368 -0.3003 -0.6769  1.1122
  752MOL0     H99252   6.764   5.814   6.118 -1.7022  2.7242 -0.5915
  752MOL0     H99253   6.992   5.777   6.066 -1.5268 -2.7116  2.1641
  752MOL0     H99254   7.222   5.880   5.982 -2.2324  1.1534  1.2159
  752MOL0     H99255   7.217   5.733   6.071 -2.5698  1.2119 -0.8116
  752MOL0     H99256   7.423   5.830   6.222 -3.8437  4.1436  0.6753
  752MOL0     H99257   7.457   5.747   6.069  1.5911  1.3188 -0.7250
  752MOL0     H99258   7.425   6.055   6.101  0.0096 -0.3066  0.4329
  752MOL0     H99259   7.506   5.963   5.973  3.7588 -1.9876 -0.0035
  752MOL0     H99260   7.603   5.952   6.256  2.7748 -0.5635  1.1353
  752MOL0     H99261   7.683   5.883   6.123 -0.6179 -1.3239  1.9834
  752MOL0     H99262   7.809   6.280   6.072  0.1739  0.9255  0.0136
  752MOL0     H99263   7.110   6.038   6.396 -0.8227 -0.2110  0.6937
  752MOL0     H99264   6.885   6.062   6.458  2.2023 -0.2178  1.8725
  753MOL0     O99265  10.921   4.527   0.700 -0.1443 -0.1452  1.1789
  753MOL0     C99266  10.994   4.438   0.751 -0.1451 -0.4026  0.1425
  753MOL0     O99267  10.942   4.324   0.811  0.0563  0.0823 -0.3120
  753MOL0     C99268  10.817   4.269   0.785  0.7497 -0.5981 -0.0649
  753MOL0     C99269  10.747   4.208   0.889 -0.2137 -0.1993  0.7216
  753MOL0     C99270  10.619   4.152   0.873 -0.0887  0.2084  0.0413
  753MOL0     C99271  10.569   4.146   0.742 -0.2774  0.0070 -0.3841
  753MOL0     O99272  10.438   4.108   0.722  0.6248  0.3688  0.0236
  753MOL0     C99273  10.358   4.038   0.820 -0.8596  0.2916  1.5543
  753MOL0     C99274  10.228   4.021   0.750 -0.4894  0.0990 -0.5410
  753MOL0     C99275  10.143   3.915   0.828 -0.2052  0.2021  0.4734
  753MOL0     C99276  10.003   3.924   0.775  0.7093 -0.1299 -0.2270
  753MOL0     C99277   9.904   3.845   0.858 -0.6073  0.4849 -0.0165
  753MOL0     C99278   9.774   3.823   0.773 -0.5957  0.3905 -0.6736
  753MOL0     C99279   9.686   3.723   0.848  0.4375  0.1975 -0.4735
  753MOL0     C99280   9.560   3.687   0.770 -0.4294  0.7273  0.0157
  753MOL0     N99281   9.467   3.796   0.750 -0.2231  0.0982 -0.9221
  753MOL0     C99282   9.397   3.843   0.858 -1.3744 -0.9313  0.4599
  753MOL0     C99283   9.308   3.924   0.803 -0.0258  0.8546 -0.6593
  753MOL0     C99284   9.200   4.000   0.874  0.5046  0.1910 -0.2543
  753MOL0     C99285   9.076   3.898   0.888  0.4493  0.7677  0.8594
  753MOL0     C99286   9.003   3.870   0.758 -0.3184 -0.2809  0.0099
  753MOL0     C99287   8.857   3.829   0.765  0.0900  0.4816 -0.4133
  753MOL0     O99288   8.844   3.704   0.817  0.1956  0.3183  0.0134
  753MOL0     C99289   8.728   3.630   0.818 -0.4166 -0.4877 -0.1029
  753MOL0     C99290   8.606   3.691   0.779 -0.2906 -0.3651  0.0441
  753MOL0     C99291   8.490   3.611   0.776  0.1438 -0.2715 -0.0366
  753MOL0     C99292   8.491   3.482   0.823  0.5442  0.2539  0.4918
  753MOL0     C99293   8.360   3.419   0.848  0.0156  0.3776  0.3627
  753MOL0     O99294   8.248   3.471   0.795  0.2698  0.3074  0.5904
  753MOL0     C99295   8.122   3.419   0.799 -0.5556  0.3097 -0.2525
  753MOL0     C99296   8.094   3.281   0.778  0.5200  0.2150 -0.1690
  753MOL0     C99297   7.967   3.222   0.788  0.0775 -0.0055 -0.4781
  753MOL0     C99298   7.857   3.317   0.812 -0.0262  1.1104 -1.1329
  753MOL0     O99299   7.725   3.281   0.832 -0.3250  0.5523 -0.2638
  753MOL0     C99300   7.634   3.296   0.720 -0.4671 -0.0904 -0.9250
  753MOL0     C99301   7.492   3.263   0.772  0.3123 -0.6978  0.4379
  753MOL0     C99302   7.406   3.232   0.655  0.4580  0.5394  0.0864
  753MOL0     C99303   7.251   3.208   0.679  0.5058 -0.1805 -0.1883
  753MOL0     C99304   7.215   3.094   0.763  0.2352 -0.3306 -1.2027
  753MOL0     C99305   7.070   3.075   0.780  0.3693 -0.3483  0.2988
  753MOL0     C99306   7.040   2.961   0.874 -0.5490 -0.4348  0.4557
  753MOL0     C99307   6.897   2.914   0.869  0.6388 -0.8292 -0.0241
  753MOL0    Cl99308   6.774   3.047   0.881 -0.5273 -0.3500 -0.6741
  753MOL0     C99309   7.884   3.456   0.813  0.8210 -0.0925  0.2678
  753MOL0     C99310   8.014   3.502   0.806  0.7045  0.3713  0.5691
  753MOL0     O99311   8.359   3.320   0.922 -0.1481  0.2480 -0.2641
  753MOL0     C99312   8.602   3.422   0.865 -0.1906 -0.5076 -0.4304
  753MOL0     C99313   8.723   3.498   0.859 -0.4617 -0.5028 -0.3790
  753MOL0     N99314   9.333   3.931   0.666  0.4467 -0.3548 -0.5577
  753MOL0     N99315   9.424   3.847   0.640 -1.3395 -0.4419  0.4657
  753MOL0     C99316  10.639   4.200   0.635  1.1834  0.0571  0.0852
  753MOL0     C99317  10.761   4.264   0.654  0.6442  0.0134  1.1261
  753MOL0     C99318  11.139   4.460   0.774 -0.7185  0.6449  0.9459
  753MOL0     C99319  11.208   4.572   0.738  0.3425  0.3394  0.9287
  753MOL0     C99320  11.352   4.580   0.742  0.5439  0.0017  0.7193
  753MOL0     C99321  11.437   4.477   0.780  0.1831  0.5612  1.2466
  753MOL0     O99322  11.566   4.476   0.775 -0.0303  0.4382 -0.4485
  753MOL0     C99323  11.644   4.563   0.690 -0.4510  0.0822  0.8285
  753MOL0     C99324  11.791   4.534   0.688  0.0031  0.1802 -0.2665
  753MOL0     C99325  11.832   4.405   0.612  0.3144 -0.5031  0.0080
  753MOL0     C99326  11.985   4.394   0.617  0.2175 -0.1996 -0.8437
  753MOL0     C99327  12.027   4.301   0.510  0.7224 -0.9129  0.4365
  753MOL0     C99328  12.067   4.217   0.439 -0.2516  0.4734  0.0612
  753MOL0     C99329  11.362   4.369   0.826  0.2660  0.2353 -0.2796
  753MOL0     C99330  11.220   4.356   0.820 -1.0854  0.3794 -0.2968
  753MOL0     H99331  10.785   4.212   0.990  3.0022  0.7355 -0.3817
  753MOL0     H99332  10.575   4.117   0.965 -1.2434  0.3376 -0.4471
  753MOL0     H99333  10.346   4.101   0.908 -3.0223 -0.0667  1.5499
  753MOL0     H99334  10.400   3.942   0.851 -2.8346 -0.0700  3.3417
  753MOL0     H99335  10.240   4.000   0.643 -0.5684 -0.3587 -0.4637
  753MOL0     H99336  10.182   4.120   0.746  1.5757  1.1103 -0.4665
  753MOL0     H99337  10.137   3.946   0.932 -0.6077  0.7253  0.2954
  753MOL0     H99338  10.182   3.814   0.811  2.3002  1.1307  0.2255
  753MOL0     H99339   9.976   4.030   0.779  0.3672 -0.1651 -1.3899
  753MOL0     H99340   9.987   3.900   0.670 -3.3079  1.1140 -0.0665
  753MOL0     H99341   9.880   3.908   0.944 -2.3610 -0.3460  0.1364
  753MOL0     H99342   9.944   3.751   0.897 -2.0114 -0.1359 -0.0129
  753MOL0     H99343   9.807   3.766   0.686 -0.6158  0.4103 -0.6930
  753MOL0     H99344   9.729   3.915   0.736  2.4125  0.0931 -5.9963
  753MOL0     H99345   9.748   3.634   0.863  0.3951  0.2264 -0.1303
  753MOL0     H99346   9.654   3.768   0.942 -2.0334 -0.1166 -1.1120
  753MOL0     H99347   9.508   3.613   0.832  0.0729  0.3474 -0.0156
  753MOL0     H99348   9.585   3.653   0.669  0.8740 -1.2859  0.9460
  753MOL0     H99349   9.411   3.820   0.963  0.0111  1.0942  0.7904
  753MOL0     H99350   9.171   4.087   0.815 -1.9238  0.5305  1.3406
  753MOL0     H99351   9.229   4.051   0.966  1.1586  0.2128 -0.4619
  753MOL0     H99352   9.000   3.946   0.951  0.3172  4.0795 -1.5238
  753MOL0     H99353   9.103   3.803   0.934 -3.3220 -0.3496  1.0674
  753MOL0     H99354   8.999   3.961   0.698  2.7127 -0.6825 -0.9408
  753MOL0     H99355   9.049   3.790   0.698 -0.5799 -0.5358  0.1434
  753MOL0     H99356   8.801   3.830   0.671 -1.2245  1.2698  0.3459
  753MOL0     H99357   8.809   3.908   0.824 -0.2497 -0.7735  1.0473
  753MOL0     H99358   8.602   3.793   0.742 -0.4534  0.5864  2.4555
  753MOL0     H99359   8.394   3.653   0.748 -0.7314 -2.0127  0.2389
  753MOL0     H99360   8.169   3.203   0.767  0.6311 -0.1397  2.4616
  753MOL0     H99361   7.938   3.120   0.762 -1.9195  0.1241  0.9312
  753MOL0     H99362   7.653   3.221   0.643 -0.7478 -2.0642  0.8595
  753MOL0     H99363   7.654   3.393   0.672 -2.4535  1.6249  1.4995
  753MOL0     H99364   7.447   3.344   0.831 -2.0394 -1.6025  0.0159
  753MOL0     H99365   7.492   3.179   0.842  0.5768 -1.0457  0.0202
  753MOL0     H99366   7.460   3.154   0.600  0.6891  1.8212 -1.5820
  753MOL0     H99367   7.419   3.310   0.580  2.3860  0.1334 -0.0608
  753MOL0     H99368   7.205   3.296   0.724 -1.8707 -2.0523  1.3085
  753MOL0     H99369   7.214   3.178   0.580  0.0698  1.3418 -0.5151
  753MOL0     H99370   7.255   3.118   0.862 -0.9584 -1.3518 -0.4342
  753MOL0     H99371   7.262   3.005   0.721 -0.4080 -0.5182 -1.5382
  753MOL0     H99372   7.028   3.057   0.680  0.2913  0.4725  0.1751
  753MOL0     H99373   7.019   3.166   0.813  0.1912  0.3818 -1.8320
  753MOL0     H99374   7.102   2.872   0.858  1.2346  1.1842 -2.5802
  753MOL0     H99375   7.070   3.004   0.970 -0.7186 -1.4735  0.9920
  753MOL0     H99376   6.880   2.848   0.955  0.2542 -1.0468 -0.2640
  753MOL0     H99377   6.885   2.859   0.776 -1.5147  1.2027 -1.0467
  753MOL0     H99378   7.805   3.529   0.827  1.0910 -0.2000  2.8112
  753MOL0     H99379   8.042   3.601   0.841  1.3795  0.0314  1.0238
  753MOL0     H99380   8.597   3.327   0.917  0.0671  0.1994  0.9327
  753MOL0     H99381   8.808   3.457   0.913  0.2390 -1.7059 -2.3260
  753MOL0     H99382  10.589   4.191   0.539 -0.5454  2.3574  0.6953
  753MOL0     H99383  10.819   4.311   0.575  0.2683  0.8409  1.3350
  753MOL0     H99384  11.150   4.657   0.704  0.3514 -0.1566 -0.3607
  753MOL0     H99385  11.400   4.666   0.696 -0.1765 -1.1198 -2.4036
  753MOL0     H99386  11.619   4.659   0.734  0.2063 -0.2574  1.9763
  753MOL0     H99387  11.610   4.557   0.586 -3.2518  2.9302  1.4502
  753MOL0     H99388  11.846   4.615   0.638  1.6942 -0.9120 -0.2876
  753MOL0     H99389  11.823   4.529   0.792 -0.2412  0.9176 -0.1519
  753MOL0     H99390  11.797   4.429   0.511  0.0126  2.4836  0.7186
  753MOL0     H99391  11.782   4.315   0.649 -1.1608 -0.7081 -2.3041
  753MOL0     H99392  12.032   4.493   0.612  0.9677 -0.4240  1.0258
  753MOL0     H99393  12.020   4.350   0.711  1.5859  1.8521 -0.3414
  753MOL0     H99394  12.117   4.143   0.380 -0.4939  0.8282 -0.6146
  753MOL0     H99395  11.417   4.284   0.866 -0.2221  0.6062  1.2352
  753MOL0     H99396  11.188   4.260   0.859  2.4356 -1.1574 -0.8109
  754MOL0     O99397   6.505   4.582   8.285 -0.6888 -0.2267  0.2186
  754MOL0     C99398   6.493   4.464   8.248  0.4306 -0.2234  0.1227
  754MOL0     O99399   6.386   4.384   8.278  0.4276  0.4848 -0.0267
  754MOL0     C99400   6.263   4.445   8.294  0.1318  0.0261 -0.4690
  754MOL0     C99401   6.164   4.364   8.361 -0.7691  0.3427  1.2257
  754MOL0     C99402   6.028   4.415   8.376 -0.4941 -0.4272 -0.0695
  754MOL0     C99403   5.996   4.536   8.321 -0.1482  0.2118  0.2786
  754MOL0     O99404   5.871   4.590   8.308 -0.3255  0.9439 -0.9262
  754MOL0     C99405   5.819   4.640   8.438  0.3614  0.0681  0.8791
  754MOL0     C99406   5.880   4.773   8.480  0.4409 -0.2833  0.3493
  754MOL0     C99407   5.955   4.773   8.617  0.4182 -0.2934 -0.3496
  754MOL0     C99408   6.050   4.896   8.650 -0.8978  0.4569 -0.7009
  754MOL0     C99409   6.171   4.891   8.549 -0.2419 -0.0964  0.5120
  754MOL0     C99410   6.291   4.827   8.624  0.3333  0.0026  0.3426
  754MOL0     C99411   6.410   4.918   8.641  0.7257  0.5575 -0.1353
  754MOL0     C99412   6.481   4.933   8.505 -0.2688  0.3569 -0.1505
  754MOL0     N99413   6.620   4.981   8.523  0.1897 -0.2025  0.0698
  754MOL0     C99414   6.743   4.928   8.569  0.3515 -0.0868  0.2681
  754MOL0     C99415   6.837   5.026   8.568  0.6940 -1.1124  0.1041
  754MOL0     C99416   6.977   5.024   8.633 -0.3173  0.4314  0.3316
  754MOL0     C99417   6.958   5.015   8.783 -0.5617 -0.3102 -0.9980
  754MOL0     C99418   6.936   5.155   8.852 -0.2661 -0.0948 -0.7902
  754MOL0     C99419   6.790   5.201   8.852 -0.3928  1.2120  0.7494
  754MOL0     O99420   6.704   5.102   8.907  0.0294 -0.5523 -0.6030
  754MOL0     C99421   6.564   5.115   8.912 -1.0041 -0.7220 -1.1443
  754MOL0     C99422   6.489   5.228   8.857 -0.7967  0.7503 -0.1026
  754MOL0     C99423   6.354   5.223   8.867  0.1534 -0.2081  0.0392
  754MOL0     C99424   6.293   5.117   8.929 -0.0928 -0.0408  0.3133
  754MOL0     C99425   6.148   5.119   8.954  0.4367 -0.0462  0.9099
  754MOL0     O99426   6.086   5.241   8.938 -0.7855 -0.4963  0.3743
  754MOL0     C99427   5.946   5.237   8.957  0.3817  0.2071  1.4515
  754MOL0     C99428   5.869   5.247   8.840 -0.7159  0.0080 -0.2468
  754MOL0     C99429   5.729   5.239   8.851  0.8789 -0.2501  0.5271
  754MOL0     C99430   5.665   5.222   8.970  0.4097  0.9142 -0.3382
  754MOL0     O99431   5.528   5.209   8.974  0.9906  0.0249  0.7767
  754MOL0     C99432   5.468   5.234   9.104  0.2653 -0.0645 -0.0195
  754MOL0     C99433   5.317   5.252   9.097  0.6236  0.5183 -0.4627
  754MOL0     C99434   5.250   5.126   9.048  0.5187  0.2424 -0.6506
  754MOL0     C99435   5.102   5.147   9.079 -0.1882  0.4677 -0.2370
  754MOL0     C99436   5.018   5.038   9.024 -0.7535 -0.3076  1.3408
  754MOL0     C99437   4.873   5.062   9.056  0.3134  0.2632  0.0205
  754MOL0     C99438   4.834   5.056   9.209 -0.5187 -1.0471  0.0724
  754MOL0     C99439   4.689   5.067   9.242  0.4831  0.0843 -0.7125
  754MOL0    Cl99440   4.596   4.934   9.174 -0.5313  0.0769 -0.0229
  754MOL0     C99441   5.748   5.211   9.087  0.3583  0.1562 -0.3390
  754MOL0     C99442   5.885   5.217   9.081  0.2021  0.5209 -0.4529
  754MOL0     O99443   6.092   5.017   8.997 -0.1728  0.4966  0.5221
  754MOL0     C99444   6.360   5.013   8.992 -0.0606  0.3557  0.8098
  754MOL0     C99445   6.500   5.012   8.979  0.4870 -0.1394 -0.0809
  754MOL0     N99446   6.777   5.133   8.510 -0.2296  0.4883  0.0179
  754MOL0     N99447   6.651   5.111   8.500 -0.0138  0.1165  0.5814
  754MOL0     C99448   6.089   4.619   8.256 -0.2159  0.7260  0.0153
  754MOL0     C99449   6.220   4.568   8.238 -0.3287 -0.1992  1.2029
  754MOL0     C99450   6.624   4.399   8.202  1.1748 -0.4481 -0.5733
  754MOL0     C99451   6.619   4.280   8.131 -0.2279 -0.1432 -0.8288
  754MOL0     C99452   6.743   4.236   8.087 -0.0179 -0.4554  0.2342
  754MOL0     C99453   6.861   4.311   8.097  0.2595  0.4748  0.2324
  754MOL0     O99454   6.978   4.268   8.043 -0.2901 -0.5892  0.8930
  754MOL0     C99455   7.002   4.122   8.032 -1.1045 -0.4108  0.0474
  754MOL0     C99456   7.142   4.106   8.092  0.5768  0.8049  0.0246
  754MOL0     C99457   7.214   3.982   8.032  0.0596  0.4020  0.6080
  754MOL0     C99458   7.351   3.958   8.100 -0.5199 -0.0250 -0.0167
  754MOL0     C99459   7.439   3.885   8.013 -0.0607 -0.7682 -0.1315
  754MOL0     C99460   7.520   3.862   7.925 -0.0828  0.5172  0.0350
  754MOL0     C99461   6.858   4.430   8.156 -0.7353  0.0955  0.3236
  754MOL0     C99462   6.738   4.475   8.213 -0.8546 -0.5012 -0.5425
  754MOL0     H99463   6.175   4.260   8.393 -1.9338 -0.0182  0.5435
  754MOL0     H99464   5.950   4.362   8.430  0.2822 -2.9960 -1.3406
  754MOL0     H99465   5.840   4.576   8.524  2.4426  0.2665  0.5625
  754MOL0     H99466   5.711   4.655   8.432  0.5734  1.3007 -0.4824
  754MOL0     H99467   5.801   4.846   8.500  1.3250  0.8643 -0.1953
  754MOL0     H99468   5.950   4.807   8.403  3.0992 -0.6165  2.4547
  754MOL0     H99469   6.026   4.690   8.608  2.4242  1.5187 -2.5193
  754MOL0     H99470   5.882   4.765   8.698  1.1315  0.4306  0.3868
  754MOL0     H99471   5.989   4.986   8.646  0.4360  1.3608 -2.7887
  754MOL0     H99472   6.087   4.894   8.753 -0.4061 -1.3547 -0.8814
  754MOL0     H99473   6.195   4.989   8.507 -0.3790 -0.4781 -0.4869
  754MOL0     H99474   6.154   4.837   8.455  3.2189  0.3421 -0.5087
  754MOL0     H99475   6.335   4.748   8.562 -0.5007 -0.9283  0.9123
  754MOL0     H99476   6.266   4.804   8.728 -0.0444  1.7165  0.6634
  754MOL0     H99477   6.376   5.014   8.682 -1.0532  0.4578 -1.3027
  754MOL0     H99478   6.480   4.878   8.715  2.1068  1.9390 -0.6367
  754MOL0     H99479   6.428   5.001   8.438 -1.1738  1.0930  1.2584
  754MOL0     H99480   6.493   4.840   8.449 -1.1352  0.4172 -0.4402
  754MOL0     H99481   6.762   4.829   8.610  4.5036 -0.2760 -1.5755
  754MOL0     H99482   7.041   5.107   8.603 -0.0080 -0.5019 -1.7589
  754MOL0     H99483   7.026   4.929   8.611 -3.6519 -1.7763  1.6404
  754MOL0     H99484   7.047   4.971   8.830 -0.1252  0.8028 -0.7299
  754MOL0     H99485   6.874   4.952   8.813 -1.2450  1.4435  1.0521
  754MOL0     H99486   6.958   5.157   8.959  1.6866  0.1697 -1.1617
  754MOL0     H99487   7.005   5.233   8.817 -1.7113  0.6704 -2.0363
  754MOL0     H99488   6.752   5.227   8.753 -1.6897  3.9103  1.8770
  754MOL0     H99489   6.783   5.287   8.918  0.0564  1.2808  0.7116
  754MOL0     H99490   6.538   5.305   8.799 -0.3030 -0.6859 -1.6853
  754MOL0     H99491   6.290   5.294   8.817  0.3255 -0.6648 -0.8409
  754MOL0     H99492   5.911   5.267   8.742 -0.5317  0.6926 -0.0323
  754MOL0     H99493   5.666   5.238   8.763 -0.5117 -1.5487  1.5037
  754MOL0     H99494   5.518   5.314   9.160  2.5960 -1.0668 -0.5261
  754MOL0     H99495   5.485   5.144   9.164  2.3943  1.2876  1.5497
  754MOL0     H99496   5.293   5.332   9.025 -2.5464  1.4549  1.4504
  754MOL0     H99497   5.268   5.288   9.187  1.1181  3.6159 -1.2939
  754MOL0     H99498   5.291   5.038   9.099  2.1507 -0.1598 -2.5128
  754MOL0     H99499   5.267   5.106   8.942  1.2442 -4.1845  0.0672
  754MOL0     H99500   5.086   5.139   9.187  0.0190 -1.1560 -0.2966
  754MOL0     H99501   5.076   5.247   9.045 -1.9202 -0.1417 -0.8397
  754MOL0     H99502   5.059   4.939   9.046 -0.2462  0.0808  2.1852
  754MOL0     H99503   5.022   5.042   8.914 -3.4838 -1.1961  1.1415
  754MOL0     H99504   4.807   4.986   9.012 -0.3792  1.7862 -1.6837
  754MOL0     H99505   4.827   5.153   9.017 -2.1147  0.2688  2.5735
  754MOL0     H99506   4.873   4.968   9.261 -0.9190 -0.7825  0.8375
  754MOL0     H99507   4.880   5.136   9.267 -0.9370 -2.1925  2.0855
  754MOL0     H99508   4.650   5.156   9.192 -0.7310  1.8938  3.0726
  754MOL0     H99509   4.673   5.060   9.350  0.5732  0.2131 -0.6908
  754MOL0     H99510   5.707   5.193   9.186  0.4331  0.7814 -0.1941
  754MOL0     H99511   5.946   5.207   9.169  2.4037  0.0361 -1.9567
  754MOL0     H99512   6.317   4.931   9.047  1.5860 -1.3903 -0.3876
  754MOL0     H99513   6.561   4.938   9.030 -0.5136 -1.5430 -0.8290
  754MOL0     H99514   6.052   4.708   8.206 -1.4675  3.2221  4.7491
  754MOL0     H99515   6.292   4.629   8.184 -2.1054  0.5510 -0.4631
  754MOL0     H99516   6.523   4.232   8.121  0.4499 -2.1327  1.4361
  754MOL0     H99517   6.737   4.141   8.034 -2.6000  1.3445 -3.1285
  754MOL0     H99518   7.010   4.101   7.925  1.9733  3.4768 -0.7140
  754MOL0     H99519   6.933   4.056   8.086 -2.8306  1.6294  0.5121
  754MOL0     H99520   7.199   4.198   8.079 -1.8623  2.5670  1.0597
  754MOL0     H99521   7.130   4.082   8.198 -0.4136  0.4867 -0.1508
  754MOL0     H99522   7.220   3.998   7.924  2.1982  0.2313  0.6522
  754MOL0     H99523   7.154   3.891   8.041  0.3512 -0.3576 -3.2827
  754MOL0     H99524   7.402   4.049   8.130  2.1346 -2.2422  2.9142
  754MOL0     H99525   7.334   3.894   8.187 -1.8410 -0.4902 -0.5725
  754MOL0     H99526   7.593   3.832   7.853 -0.2841 -2.1975  0.8348
  754MOL0     H99527   6.945   4.495   8.162 -0.1712 -0.0751 -3.4939
  754MOL0     H99528   6.740   4.569   8.267  0.3144 -0.5225 -0.5360
  755MOL0     O99529   2.396   1.013   9.999  0.6107 -1.0923  0.1161
  755MOL0     C99530   2.456   1.120   9.967 -0.5935 -0.3334 -0.6047
  755MOL0     O99531   2.398   1.237   9.945 -0.0567  0.1131 -0.3377
  755MOL0     C99532   2.263   1.263   9.974  0.0024 -0.2386  0.0528
  755MOL0     C99533   2.184   1.218  10.083  0.2031 -0.6247  0.0011
  755MOL0     C99534   2.056   1.287  10.105  0.2239  0.4047  0.8906
  755MOL0     C99535   2.015   1.394  10.030  0.1468 -0.4347  0.1241
  755MOL0     O99536   1.904   1.465  10.084 -0.2594 -0.3725 -0.6553
  755MOL0     C99537   1.848   1.562  10.001  0.5932  0.0138  0.2924
  755MOL0     C99538   1.732   1.506   9.923 -0.7266  0.3119  0.1988
  755MOL0     C99539   1.616   1.608   9.933 -0.3223  0.7846  0.2170
  755MOL0     C99540   1.508   1.589   9.823  0.0110  0.9979  0.6543
  755MOL0     C99541   1.368   1.652   9.855 -0.5114 -0.2186  0.5221
  755MOL0     C99542   1.374   1.792   9.907  0.6171 -0.1136 -0.3441
  755MOL0     C99543   1.238   1.852   9.903 -0.4379 -0.0538 -0.2998
  755MOL0     C99544   1.247   2.004   9.944 -0.0657 -0.3873 -0.3677
  755MOL0     N99545   1.118   2.077   9.925 -0.5749  0.2408 -0.3459
  755MOL0     C99546   1.081   2.119   9.809 -0.1305  0.4521 -0.0330
  755MOL0     C99547   0.967   2.189   9.821 -0.8396  0.6613 -0.8167
  755MOL0     C99548   0.883   2.274   9.733 -0.3981 -0.4283 -1.1675
  755MOL0     C99549   0.736   2.232   9.722  0.7405 -0.4245 -0.2049
  755MOL0     C99550   0.705   2.092   9.650 -0.3904  1.3234 -0.0136
  755MOL0     C99551   0.561   2.056   9.652 -0.3520 -0.0380  0.4163
  755MOL0     O99552   0.499   2.120   9.538  0.0275  0.2620 -0.2109
  755MOL0     C99553   0.367   2.136   9.525 -0.1363  0.1385  0.2032
  755MOL0     C99554   0.261   2.090   9.608 -0.6130 -1.2333  1.6548
  755MOL0     C99555   0.131   2.118   9.580  0.1911  0.0188  0.0727
  755MOL0     C99556   0.091   2.203   9.476 -1.0369  0.1483 -0.2927
  755MOL0     C99557  -0.048   2.249   9.454  0.5646  0.8142 -0.6637
  755MOL0     O99558  -0.141   2.193   9.530 -0.1318  0.3361 -0.3175
  755MOL0     C99559  -0.272   2.234   9.517 -0.0418  0.0971 -0.2838
  755MOL0     C99560  -0.371   2.138   9.520 -0.2119  0.1994  0.4563
  755MOL0     C99561  -0.509   2.164   9.512  0.5266 -0.3935 -0.3889
  755MOL0     C99562  -0.550   2.295   9.514  0.5233 -1.2383  0.0875
  755MOL0     O99563  -0.686   2.324   9.497 -0.5954 -0.2876 -0.2997
  755MOL0     C99564  -0.730   2.438   9.575  0.2053  0.5949 -0.7429
  755MOL0     C99565  -0.879   2.438   9.626 -0.1300 -0.2236 -0.2159
  755MOL0     C99566  -0.969   2.460   9.506  0.1383  0.3186 -0.4557
  755MOL0     C99567  -1.120   2.465   9.547  1.1403 -0.2811 -0.5760
  755MOL0     C99568  -1.199   2.458   9.413  0.0428  0.6964 -0.0615
  755MOL0     C99569  -1.350   2.478   9.424  0.9529 -0.3043 -0.8517
  755MOL0     C99570  -1.406   2.369   9.518  0.4165  0.0844  0.6402
  755MOL0     C99571  -1.557   2.362   9.514  0.5511  0.7856 -0.1508
  755MOL0    Cl99572  -1.640   2.511   9.518  0.1752  0.2996  0.1246
  755MOL0     C99573  -0.460   2.392   9.508  0.5287  0.6413 -0.2337
  755MOL0     C99574  -0.322   2.375   9.512 -0.4829 -0.4345  0.5166
  755MOL0     O99575  -0.066   2.342   9.367 -0.5989  0.5391  0.5351
  755MOL0     C99576   0.198   2.252   9.392 -0.0212  0.3629  0.6395
  755MOL0     C99577   0.332   2.215   9.416  0.7101 -0.0211 -0.1157
  755MOL0     N99578   0.933   2.180   9.957 -0.3157  0.6970  0.5726
  755MOL0     N99579   1.026   2.109  10.015  0.5319  0.1684 -0.0319
  755MOL0     C99580   2.089   1.426   9.912 -1.0074  0.2753 -0.2095
  755MOL0     C99581   2.200   1.352   9.886 -0.2195  0.8194  0.2045
  755MOL0     C99582   2.610   1.115   9.944  1.4637  0.2698 -0.3597
  755MOL0     C99583   2.676   1.237   9.910  0.0133  0.1411  0.8587
  755MOL0     C99584   2.821   1.240   9.908  0.4209 -0.0089  0.6195
  755MOL0     C99585   2.894   1.134   9.944 -0.4650 -0.5174 -1.4047
  755MOL0     O99586   3.035   1.154   9.947  0.2890  0.3811  0.3654
  755MOL0     C99587   3.118   1.045   9.994 -0.0944  0.4058  0.2891
  755MOL0     C99588   3.266   1.081   9.999 -0.6456 -0.6289 -0.2291
  755MOL0     C99589   3.328   1.127   9.866  0.4361  0.9399 -1.1331
  755MOL0     C99590   3.474   1.153   9.885  0.6234 -0.1036 -0.2494
  755MOL0     C99591   3.539   1.199   9.764  0.4148  0.5833  0.2987
  755MOL0     C99592   3.609   1.216   9.661 -0.2408 -0.9456 -0.4115
  755MOL0     C99593   2.829   1.016   9.979  0.2259 -0.1043  0.2311
  755MOL0     C99594   2.689   1.004   9.969  0.1431  0.3463 -1.0767
  755MOL0     H99595   2.226   1.151  10.156 -2.1385 -0.8852  1.1947
  755MOL0     H99596   2.002   1.262  10.196  0.4413  1.2993  1.2684
  755MOL0     H99597   1.918   1.613   9.934 -1.9875  0.9721 -1.8568
  755MOL0     H99598   1.808   1.622  10.083  0.6904 -0.2598  0.5409
  755MOL0     H99599   1.693   1.415   9.969 -2.2137 -1.1272 -3.5121
  755MOL0     H99600   1.768   1.471   9.826 -0.0952 -1.1477  0.9370
  755MOL0     H99601   1.646   1.713   9.928 -1.7254  1.1608 -1.4060
  755MOL0     H99602   1.576   1.592  10.033  2.2669 -1.1026  1.0598
  755MOL0     H99603   1.546   1.626   9.728  1.4028  0.2132  0.8615
  755MOL0     H99604   1.482   1.483   9.817 -1.6103  1.2888  1.9423
  755MOL0     H99605   1.316   1.585   9.922  0.3712 -0.4049  1.0393
  755MOL0     H99606   1.313   1.653   9.760 -2.2929 -2.1716  1.4595
  755MOL0     H99607   1.438   1.863   9.854  2.0386 -0.1140  1.2959
  755MOL0     H99608   1.415   1.781  10.008 -0.2759  2.5029  0.3651
  755MOL0     H99609   1.207   1.855   9.799  0.3233  1.2356 -0.5053
  755MOL0     H99610   1.166   1.806   9.972 -1.1023 -1.1658 -1.6864
  755MOL0     H99611   1.317   2.057   9.878  1.0583  2.2086  2.6266
  755MOL0     H99612   1.282   2.010  10.048  1.8619 -0.0986 -0.9943
  755MOL0     H99613   1.145   2.125   9.721  1.8042  0.7261  1.3455
  755MOL0     H99614   0.925   2.281   9.632  0.0242  0.8163 -0.9238
  755MOL0     H99615   0.892   2.375   9.775  0.9359  0.7123 -3.9089
  755MOL0     H99616   0.679   2.312   9.675  1.8358  1.4129  1.4280
  755MOL0     H99617   0.682   2.229   9.817 -1.8794 -1.3215 -1.6331
  755MOL0     H99618   0.744   2.088   9.548 -0.2847  0.8850  0.0446
  755MOL0     H99619   0.763   2.010   9.693 -0.8977  0.5968 -0.7055
  755MOL0     H99620   0.512   2.092   9.743 -1.9956  1.1997 -0.8899
  755MOL0     H99621   0.552   1.947   9.643  0.3986  0.0705 -3.6413
  755MOL0     H99622   0.286   2.014   9.681  1.5220 -1.1284  1.1040
  755MOL0     H99623   0.050   2.079   9.641 -2.0018  1.5204 -1.7340
  755MOL0     H99624  -0.342   2.034   9.528 -1.2977 -0.0042  2.1992
  755MOL0     H99625  -0.579   2.082   9.518  0.5956 -0.3489  2.1905
  755MOL0     H99626  -0.710   2.534   9.527 -0.6910  0.3589 -1.6089
  755MOL0     H99627  -0.677   2.437   9.671  0.3262 -0.9698 -0.7985
  755MOL0     H99628  -0.890   2.518   9.700 -1.6183 -2.6790  2.3927
  755MOL0     H99629  -0.911   2.351   9.685 -4.7973  0.8353 -0.7749
  755MOL0     H99630  -0.944   2.370   9.449  4.5687  2.2361 -2.0363
  755MOL0     H99631  -0.930   2.543   9.446 -2.3043  0.5275 -1.9025
  755MOL0     H99632  -1.140   2.388   9.621  0.8959 -0.1847 -0.5425
  755MOL0     H99633  -1.141   2.562   9.593 -0.1364 -1.2052  0.8462
  755MOL0     H99634  -1.181   2.356   9.379 -1.3812  0.9360 -1.6636
  755MOL0     H99635  -1.167   2.541   9.349 -0.6730  2.5272  1.8444
  755MOL0     H99636  -1.406   2.489   9.331 -1.2986  1.1201  0.5635
  755MOL0     H99637  -1.367   2.577   9.469  2.7669  0.3762 -1.5720
  755MOL0     H99638  -1.369   2.271   9.489  2.3118  0.3492  1.9588
  755MOL0     H99639  -1.374   2.391   9.621  0.2223 -1.0419  0.9528
  755MOL0     H99640  -1.590   2.300   9.598  0.3489 -0.4223 -1.0968
  755MOL0     H99641  -1.605   2.320   9.425 -1.5021  1.2320  0.6783
  755MOL0     H99642  -0.507   2.490   9.504 -0.4355  0.1696 -1.1316
  755MOL0     H99643  -0.255   2.460   9.518  0.9149 -1.5093  0.6136
  755MOL0     H99644   0.186   2.315   9.304 -0.3818 -0.8625 -0.2192
  755MOL0     H99645   0.407   2.243   9.343  0.4857 -0.1522 -0.3997
  755MOL0     H99646   2.063   1.503   9.841  0.9524  2.1885  1.0496
  755MOL0     H99647   2.246   1.386   9.794  1.7797  5.3935  2.5806
  755MOL0     H99648   2.621   1.330   9.897  1.4239  1.0795  1.3096
  755MOL0     H99649   2.867   1.334   9.878 -2.3842  0.9463 -1.0907
  755MOL0     H99650   3.111   0.953   9.934  2.8335  1.5704 -2.0938
  755MOL0     H99651   3.084   1.025  10.096 -1.0900 -0.5080 -0.1909
  755MOL0     H99652   3.264   1.164  10.071 -0.0973 -0.8575  0.0578
  755MOL0     H99653   3.324   0.995  10.032 -1.0075  0.2997  3.2369
  755MOL0     H99654   3.278   1.222   9.844 -1.8441  0.5792  1.8491
  755MOL0     H99655   3.312   1.049   9.791  0.4630  0.5315 -0.7173
  755MOL0     H99656   3.490   1.217   9.972 -0.2394 -1.5940  1.0742
  755MOL0     H99657   3.531   1.064   9.914  0.3135 -0.8357 -1.7519
  755MOL0     H99658   3.678   1.244   9.583  0.3729 -0.7200  0.2029
  755MOL0     H99659   2.892   0.928   9.992  2.1048  0.3649 -3.9915
  755MOL0     H99660   2.637   0.912   9.991  0.7323  0.6664  2.0903
  756MOL0     O99661   4.794   1.214   4.574 -0.2726  0.2374 -0.4687
  756MOL0     C99662   4.861   1.276   4.502  0.3442 -0.0085  0.2786
  756MOL0     O99663   4.825   1.390   4.436 -0.8048 -0.0306  0.5930
  756MOL0     C99664   4.693   1.419   4.441  0.4889  0.2788 -0.0725
  756MOL0     C99665   4.654   1.508   4.541 -0.5359  0.8384 -0.1307
  756MOL0     C99666   4.521   1.553   4.537 -0.0989 -0.3551 -0.4327
  756MOL0     C99667   4.427   1.510   4.441  0.3873  0.5641 -0.0043
  756MOL0     O99668   4.296   1.553   4.461  0.1633  0.1594  0.2754
  756MOL0     C99669   4.197   1.450   4.462 -0.0759  1.5485 -0.6246
  756MOL0     C99670   4.102   1.483   4.581  0.4698  0.5294  0.0140
  756MOL0     C99671   3.995   1.381   4.593 -0.6749  0.1918 -0.1623
  756MOL0     C99672   3.907   1.396   4.720  1.2031  0.7440 -0.6181
  756MOL0     C99673   3.800   1.284   4.729  0.2944 -0.2367 -0.5004
  756MOL0     C99674   3.696   1.305   4.623 -0.4489  0.2246 -0.4657
  756MOL0     C99675   3.567   1.241   4.651  1.1208  0.1849  0.1392
  756MOL0     C99676   3.486   1.206   4.525 -0.6665  0.3336 -0.2186
  756MOL0     N99677   3.501   1.060   4.488  0.8786  0.0367 -0.2697
  756MOL0     C99678   3.433   0.965   4.562 -0.1600  0.1101  0.7280
  756MOL0     C99679   3.478   0.848   4.517 -0.1070  0.2507  0.6059
  756MOL0     C99680   3.435   0.714   4.575 -0.0164  0.0136 -0.1891
  756MOL0     C99681   3.393   0.610   4.466 -1.0271  0.1701  0.2588
  756MOL0     C99682   3.307   0.486   4.518  1.4373 -0.3332 -0.0801
  756MOL0     C99683   3.175   0.543   4.567  0.9690 -0.9670 -1.0711
  756MOL0     O99684   3.101   0.427   4.613 -0.3769  1.0558 -0.0334
  756MOL0     C99685   2.971   0.445   4.630  0.3670  0.4164 -0.1246
  756MOL0     C99686   2.908   0.566   4.668  0.2664 -0.1766 -0.0423
  756MOL0     C99687   2.769   0.579   4.671  0.5352  0.0629 -0.3419
  756MOL0     C99688   2.692   0.459   4.650  0.1306 -0.3992  0.0231
  756MOL0     C99689   2.548   0.459   4.674  0.3126  0.5415 -0.4819
  756MOL0     O99690   2.498   0.554   4.753  0.1363 -0.3148  0.5826
  756MOL0     C99691   2.368   0.562   4.791 -0.2475 -0.2066  1.2959
  756MOL0     C99692   2.345   0.679   4.862  0.3793 -0.3223  0.3535
  756MOL0     C99693   2.217   0.703   4.910 -0.4815  0.1877  0.0752
  756MOL0     C99694   2.109   0.615   4.907 -0.5776 -0.2984 -0.3856
  756MOL0     O99695   1.986   0.659   4.968 -0.3393  0.1117  0.5483
  756MOL0     C99696   1.897   0.552   4.982  0.2045 -0.9421 -0.9285
  756MOL0     C99697   1.796   0.616   5.070 -0.3927 -0.2865  0.1483
  756MOL0     C99698   1.668   0.531   5.083  0.4086  1.2102  0.1068
  756MOL0     C99699   1.579   0.540   4.955 -0.4168 -0.1346  0.0305
  756MOL0     C99700   1.431   0.518   4.984  0.1405 -0.4597  0.6991
  756MOL0     C99701   1.401   0.372   5.027 -0.0471  0.3451  0.0639
  756MOL0     C99702   1.255   0.325   5.036 -0.6960  0.3519  0.5253
  756MOL0     C99703   1.164   0.429   5.117  0.1183  0.0423 -0.6340
  756MOL0    Cl99704   1.017   0.344   5.150  0.2867 -0.1235 -0.0770
  756MOL0     C99705   2.141   0.497   4.848 -0.4536  0.5171  0.3011
  756MOL0     C99706   2.268   0.472   4.786  0.1987 -0.2819  0.9963
  756MOL0     O99707   2.483   0.375   4.613  0.7158 -0.0704  0.5212
  756MOL0     C99708   2.757   0.335   4.616  0.5204 -0.3537  0.4688
  756MOL0     C99709   2.895   0.331   4.614  0.2367 -0.7994 -0.2579
  756MOL0     N99710   3.572   0.876   4.419 -0.0042 -0.3226  0.6254
  756MOL0     N99711   3.589   1.009   4.396  0.0870 -0.3646 -0.2632
  756MOL0     C99712   4.472   1.428   4.339 -0.6958 -0.3842 -0.4101
  756MOL0     C99713   4.605   1.374   4.340  0.0825 -0.0442  0.2513
  756MOL0     C99714   4.997   1.239   4.480 -0.3368 -0.0006  0.3284
  756MOL0     C99715   5.085   1.315   4.395  0.2169 -0.6950 -0.9704
  756MOL0     C99716   5.219   1.288   4.394 -0.1962  0.4255  0.2524
  756MOL0     C99717   5.264   1.172   4.450 -0.3796  0.0820  0.1012
  756MOL0     O99718   5.397   1.142   4.415  0.0441  0.0998  0.1208
  756MOL0     C99719   5.472   1.038   4.491 -0.2976  0.1027  0.4573
  756MOL0     C99720   5.498   0.905   4.417  0.5915  0.7538  0.9218
  756MOL0     C99721   5.573   0.941   4.278 -0.5952  0.9244 -0.5559
  756MOL0     C99722   5.721   0.970   4.296 -0.8122  0.2331  0.0507
  756MOL0     C99723   5.803   0.861   4.350 -0.2395  0.1915 -0.2405
  756MOL0     C99724   5.864   0.775   4.403 -0.0899  0.0113  0.9034
  756MOL0     C99725   5.184   1.096   4.525  0.1488  0.8898  0.2045
  756MOL0     C99726   5.051   1.130   4.555  0.0124  0.4315 -0.4201
  756MOL0     H99727   4.742   1.532   4.600  0.0973  0.3973 -0.8626
  756MOL0     H99728   4.478   1.629   4.603  1.7071  0.2020  0.1465
  756MOL0     H99729   4.240   1.350   4.462 -1.7841  0.7513 -1.9913
  756MOL0     H99730   4.130   1.451   4.376 -1.7682 -1.4951  0.4965
  756MOL0     H99731   4.055   1.581   4.569 -3.2208 -0.8782  1.3506
  756MOL0     H99732   4.165   1.481   4.670 -1.0776 -2.8953  1.2168
  756MOL0     H99733   4.042   1.283   4.602  0.2896  0.2225 -3.5372
  756MOL0     H99734   3.939   1.379   4.499 -1.5515 -0.6989  0.3627
  756MOL0     H99735   3.974   1.400   4.806 -0.0897 -1.5946  0.5985
  756MOL0     H99736   3.856   1.492   4.711 -1.6332 -0.6080 -0.0615
  756MOL0     H99737   3.753   1.297   4.826 -1.3881  0.9584 -1.4267
  756MOL0     H99738   3.837   1.182   4.714  3.4734  0.7503 -0.1516
  756MOL0     H99739   3.739   1.264   4.531  0.7354 -0.7461  0.5025
  756MOL0     H99740   3.679   1.411   4.601  0.2273  0.7189  1.2987
  756MOL0     H99741   3.600   1.152   4.707 -2.0670 -0.4721  1.1804
  756MOL0     H99742   3.501   1.303   4.711 -0.6720  0.1443 -1.6888
  756MOL0     H99743   3.525   1.272   4.446 -1.0894  1.7061  0.6764
  756MOL0     H99744   3.381   1.234   4.540 -0.3310  1.9606 -0.7004
  756MOL0     H99745   3.359   0.978   4.641  1.7124  2.2776  2.2850
  756MOL0     H99746   3.345   0.739   4.632 -0.1068 -0.8084  0.0331
  756MOL0     H99747   3.512   0.675   4.642 -2.3104 -1.8725  1.5272
  756MOL0     H99748   3.486   0.573   4.422 -0.8314 -0.0710  0.8688
  756MOL0     H99749   3.330   0.655   4.388  0.5157 -1.8090 -2.3042
  756MOL0     H99750   3.287   0.422   4.431 -1.1943 -1.1349  1.0137
  756MOL0     H99751   3.356   0.437   4.602  1.2880  0.6542  0.6036
  756MOL0     H99752   3.116   0.585   4.486  0.0594 -3.9873 -2.1206
  756MOL0     H99753   3.203   0.599   4.657  1.3296 -2.6642 -0.0776
  756MOL0     H99754   2.978   0.649   4.679  1.9971 -1.5237 -0.4089
  756MOL0     H99755   2.731   0.679   4.691  0.9192  0.7041 -2.4851
  756MOL0     H99756   2.425   0.753   4.864 -0.5661  0.7190  1.2937
  756MOL0     H99757   2.210   0.789   4.976 -2.1884  1.8680 -2.1479
  756MOL0     H99758   1.940   0.460   5.022 -0.9824 -1.8907 -1.7470
  756MOL0     H99759   1.843   0.529   4.889 -1.0067 -1.8150 -0.0384
  756MOL0     H99760   1.768   0.720   5.049 -2.7982 -0.2567  2.9147
  756MOL0     H99761   1.843   0.613   5.168  4.5470  1.5699 -1.8265
  756MOL0     H99762   1.613   0.584   5.160 -0.3399 -0.0796  0.4775
  756MOL0     H99763   1.691   0.427   5.106  1.6205  0.8893 -2.2280
  756MOL0     H99764   1.581   0.641   4.914 -0.6307  1.5070  3.6771
  756MOL0     H99765   1.618   0.478   4.874 -1.0858  0.9149 -1.1347
  756MOL0     H99766   1.371   0.542   4.895 -1.2137  0.4705  1.8265
  756MOL0     H99767   1.405   0.594   5.058  1.6382  0.7786  0.0091
  756MOL0     H99768   1.451   0.365   5.124 -2.0051 -1.5690  1.0043
  756MOL0     H99769   1.456   0.309   4.956 -0.7652 -0.8579  0.5415
  756MOL0     H99770   1.216   0.315   4.935  0.9273  1.0314 -0.2004
  756MOL0     H99771   1.261   0.225   5.080  1.0860 -0.0056 -0.4406
  756MOL0     H99772   1.137   0.522   5.067  1.1961  1.2178  0.8374
  756MOL0     H99773   1.209   0.450   5.215 -1.1691  1.8254 -0.3807
  756MOL0     H99774   2.068   0.417   4.844  0.1145 -0.0300  0.8757
  756MOL0     H99775   2.265   0.383   4.725  1.6937 -0.7210  1.5082
  756MOL0     H99776   2.702   0.244   4.595  2.3966 -1.4577  0.1150
  756MOL0     H99777   2.948   0.240   4.588 -1.2578 -1.3728 -1.4751
  756MOL0     H99778   4.398   1.415   4.261 -3.7098  2.5777  1.7214
  756MOL0     H99779   4.644   1.321   4.254 -1.7379  0.5179 -0.9946
  756MOL0     H99780   5.052   1.402   4.339  2.6631 -0.0886 -1.5766
  756MOL0     H99781   5.291   1.348   4.340 -0.4777 -2.6014 -3.9876
  756MOL0     H99782   5.430   1.024   4.591 -2.5176  0.7980 -0.3223
  756MOL0     H99783   5.572   1.080   4.508 -0.3420  0.0098  0.9589
  756MOL0     H99784   5.548   0.827   4.476 -1.4887 -0.8724  0.6401
  756MOL0     H99785   5.402   0.857   4.397  0.3509  1.1682  1.0697
  756MOL0     H99786   5.519   1.019   4.224 -2.1737 -1.3232 -2.4264
  756MOL0     H99787   5.556   0.848   4.223  0.6701 -0.3973  1.1448
  756MOL0     H99788   5.766   0.989   4.198  2.1229 -0.4916  1.1629
  756MOL0     H99789   5.739   1.062   4.352  0.3898  1.3861 -2.1009
  756MOL0     H99790   5.922   0.692   4.439 -0.8968 -0.9569  0.0231
  756MOL0     H99791   5.236   1.017   4.578  0.0575  1.1925  0.7529
  756MOL0     H99792   4.995   1.064   4.620  1.3816  2.1020  2.6930
  757MOL0     O99793  10.379   3.370   1.785  0.1113  0.2218  0.4588
  757MOL0     C99794  10.459   3.276   1.797  0.9053 -0.4432 -0.2050
  757MOL0     O99795  10.426   3.149   1.825 -0.4442 -0.2835 -0.5831
  757MOL0     C99796  10.296   3.096   1.833 -0.1689  0.4294 -0.0781
  757MOL0     C99797  10.275   2.980   1.908  0.0705 -0.4578  0.2863
  757MOL0     C99798  10.142   2.946   1.943  0.1419  0.6611  0.3678
  757MOL0     C99799  10.038   2.989   1.873  0.7603  0.3448 -0.2049
  757MOL0     O99800   9.906   2.944   1.890 -0.3206  0.6167 -0.3687
  757MOL0     C99801   9.857   2.970   2.025 -0.3118  0.0919  0.3755
  757MOL0     C99802   9.724   2.898   2.067  0.5019  0.1795 -0.4262
  757MOL0     C99803   9.732   2.745   2.055 -0.5292 -0.3519 -0.4509
  757MOL0     C99804   9.595   2.687   2.046  0.1374 -0.0194  0.7256
  757MOL0     C99805   9.589   2.546   2.018  0.5416  0.8312 -0.5162
  757MOL0     C99806   9.607   2.443   2.138  0.6488 -0.0585  0.4146
  757MOL0     C99807   9.627   2.304   2.072  0.7644 -0.0005  0.1350
  757MOL0     C99808   9.717   2.215   2.163 -0.5436  1.4450  0.2310
  757MOL0     N99809   9.662   2.158   2.289  0.1614 -0.4551  0.5686
  757MOL0     C99810   9.740   2.147   2.394 -0.4538 -0.1193 -0.2583
  757MOL0     C99811   9.672   2.069   2.481  0.6438  0.1874 -0.5683
  757MOL0     C99812   9.719   2.006   2.607 -0.7091 -0.1045  0.7368
  757MOL0     C99813   9.607   1.960   2.693  1.4971  0.0854  0.7519
  757MOL0     C99814   9.649   1.858   2.803 -0.0214  0.7674  0.2158
  757MOL0     C99815   9.556   1.867   2.934 -0.7862  0.3404 -0.3752
  757MOL0     O99816   9.426   1.913   2.906  0.7283  1.2232  0.8135
  757MOL0     C99817   9.358   1.975   3.010 -0.5281  0.6809 -0.2568
  757MOL0     C99818   9.377   1.954   3.145 -0.5626  0.4885 -0.1613
  757MOL0     C99819   9.299   2.031   3.235 -1.1402  0.0643 -0.3311
  757MOL0     C99820   9.202   2.123   3.194  0.9539  0.0899  0.6170
  757MOL0     C99821   9.128   2.213   3.285 -0.6061  0.9008  0.1085
  757MOL0     O99822   9.028   2.287   3.229  0.0771 -0.1121 -0.2883
  757MOL0     C99823   8.930   2.332   3.313 -0.6128  0.0756 -0.1877
  757MOL0     C99824   8.906   2.277   3.443  0.3087 -0.1440  0.6581
  757MOL0     C99825   8.793   2.304   3.515 -1.0798  0.0594  0.3085
  757MOL0     C99826   8.696   2.386   3.469 -0.2310 -0.3931 -0.0859
  757MOL0     O99827   8.581   2.401   3.549 -0.5337  1.0583 -1.1111
  757MOL0     C99828   8.495   2.511   3.536  0.2560 -0.5311 -0.1807
  757MOL0     C99829   8.373   2.470   3.624 -0.0570 -0.1633 -0.1249
  757MOL0     C99830   8.280   2.585   3.645  0.6835  0.5581 -0.2849
  757MOL0     C99831   8.322   2.680   3.754  0.0453  0.4248  0.2243
  757MOL0     C99832   8.243   2.813   3.748 -0.4701 -0.3702 -0.0813
  757MOL0     C99833   8.103   2.815   3.771 -0.3868 -0.5876  0.7400
  757MOL0     C99834   8.057   2.964   3.794  0.7677  0.1869  0.7578
  757MOL0     C99835   7.897   2.958   3.804 -0.0255 -0.1788 -0.3188
  757MOL0    Cl99836   7.812   2.880   3.662  0.1872 -0.4888  0.0367
  757MOL0     C99837   8.724   2.453   3.344 -0.1936  0.6777  0.1048
  757MOL0     C99838   8.833   2.413   3.263 -0.4672 -0.3246 -0.6255
  757MOL0     O99839   9.179   2.236   3.398 -0.1149 -0.0898 -1.1721
  757MOL0     C99840   9.177   2.123   3.056  0.3503  0.8336  0.4134
  757MOL0     C99841   9.254   2.054   2.972 -0.9795  0.1442  0.3061
  757MOL0     N99842   9.547   2.038   2.425 -0.2762 -0.1931  0.5702
  757MOL0     N99843   9.542   2.096   2.308  0.3025 -0.1083 -0.0722
  757MOL0     C99844  10.061   3.091   1.782 -0.4373  0.5604 -0.6659
  757MOL0     C99845  10.185   3.144   1.760  0.1202  0.0414 -0.0362
  757MOL0     C99846  10.604   3.320   1.791 -0.1609  0.6660  0.6068
  757MOL0     C99847  10.703   3.227   1.747  0.0194 -0.2549 -0.1291
  757MOL0     C99848  10.836   3.256   1.747  0.0652 -0.1287  0.2284
  757MOL0     C99849  10.881   3.390   1.782 -1.2201  0.6361 -0.2741
  757MOL0     O99850  11.017   3.418   1.767 -0.0197  0.0922 -0.2771
  757MOL0     C99851  11.082   3.548   1.790  1.2759 -0.9668  0.2534
  757MOL0     C99852  11.233   3.525   1.776 -0.6656  0.4557 -0.3954
  757MOL0     C99853  11.297   3.457   1.907  0.4943 -0.1662  0.2421
  757MOL0     C99854  11.459   3.468   1.913 -0.5567 -0.5422  1.2426
  757MOL0     C99855  11.511   3.397   1.791 -0.4410 -0.5558 -0.5964
  757MOL0     C99856  11.532   3.344   1.682  0.2015 -0.4735 -0.2739
  757MOL0     C99857  10.779   3.483   1.828 -0.3799 -0.2470  0.6451
  757MOL0     C99858  10.645   3.447   1.827  0.1159 -0.7159  0.4040
  757MOL0     H99859  10.362   2.938   1.957 -1.9982 -2.1435  2.7073
  757MOL0     H99860  10.121   2.868   2.017  1.5376  0.8721  1.0125
  757MOL0     H99861   9.828   3.074   2.042 -1.2609  0.4090 -2.6139
  757MOL0     H99862   9.941   2.956   2.094 -0.4297  1.8542  0.9082
  757MOL0     H99863   9.648   2.938   2.000 -1.1258 -0.4034  1.0020
  757MOL0     H99864   9.694   2.926   2.168 -0.4840 -0.3278 -0.5623
  757MOL0     H99865   9.789   2.699   2.136 -0.7930 -0.4705 -0.3332
  757MOL0     H99866   9.796   2.710   1.973 -0.0853  1.0018 -0.7055
  757MOL0     H99867   9.548   2.703   2.144 -0.0807 -2.0894  1.0070
  757MOL0     H99868   9.540   2.754   1.980 -0.1372  1.0926  2.0274
  757MOL0     H99869   9.674   2.536   1.949  1.4329  2.7829  0.2363
  757MOL0     H99870   9.490   2.524   1.978  0.6817  0.1235 -0.4915
  757MOL0     H99871   9.512   2.444   2.193  0.1933 -1.8666 -0.2562
  757MOL0     H99872   9.690   2.467   2.205  1.0922 -0.4791  0.0315
  757MOL0     H99873   9.533   2.254   2.051  1.6979 -2.4208  1.3804
  757MOL0     H99874   9.677   2.303   1.974 -2.4061 -0.3431 -1.6221
  757MOL0     H99875   9.815   2.263   2.178  0.5198 -0.5674  0.0030
  757MOL0     H99876   9.739   2.130   2.098 -1.5709  1.3727 -0.0399
  757MOL0     H99877   9.837   2.194   2.401 -0.3737 -0.0855 -1.3755
  757MOL0     H99878   9.770   2.077   2.674 -0.0779  1.9533 -1.7663
  757MOL0     H99879   9.788   1.927   2.579  0.3548  0.6862  1.0548
  757MOL0     H99880   9.540   1.902   2.629  2.1840  2.5057 -2.3967
  757MOL0     H99881   9.549   2.041   2.738 -0.3986  0.4556 -2.1043
  757MOL0     H99882   9.649   1.755   2.765  0.0057  0.6973  0.4049
  757MOL0     H99883   9.755   1.865   2.829 -0.0218  1.4095  0.0731
  757MOL0     H99884   9.598   1.942   3.002 -1.0894  0.3528 -0.2027
  757MOL0     H99885   9.557   1.769   2.983  0.3732  0.0819 -0.8752
  757MOL0     H99886   9.462   1.894   3.177  1.1222  0.7582 -3.6387
  757MOL0     H99887   9.309   2.029   3.343 -1.2255 -0.6850 -0.3353
  757MOL0     H99888   8.979   2.222   3.502 -1.2921 -2.5469  0.5071
  757MOL0     H99889   8.791   2.265   3.616  0.4792  1.4888  0.9420
  757MOL0     H99890   8.466   2.528   3.432  2.1802 -2.7897 -1.1589
  757MOL0     H99891   8.553   2.593   3.579  0.2946 -0.9111  0.5047
  757MOL0     H99892   8.410   2.435   3.722 -0.1553  3.1123  1.1876
  757MOL0     H99893   8.310   2.396   3.573 -0.3534  0.2518 -0.3576
  757MOL0     H99894   8.184   2.549   3.685  2.2780 -2.1283  1.4825
  757MOL0     H99895   8.261   2.631   3.547 -1.5282  1.5887  0.5436
  757MOL0     H99896   8.303   2.630   3.850  1.6289  1.8092  1.3306
  757MOL0     H99897   8.430   2.695   3.745  0.3491 -1.3464  0.4828
  757MOL0     H99898   8.279   2.857   3.654  5.1525  3.1170  3.1768
  757MOL0     H99899   8.285   2.884   3.820 -3.4543  2.9037 -1.2458
  757MOL0     H99900   8.091   2.750   3.858  1.0310  0.9273  2.1207
  757MOL0     H99901   8.055   2.775   3.681 -1.5896  1.1547  0.5604
  757MOL0     H99902   8.096   3.018   3.881  0.3724  1.2885  0.2596
  757MOL0     H99903   8.081   3.016   3.701 -1.0105 -1.1516 -0.5356
  757MOL0     H99904   7.871   3.063   3.790  0.0820 -0.3888 -2.3544
  757MOL0     H99905   7.869   2.903   3.895  3.0378 -3.3200 -1.0902
  757MOL0     H99906   8.649   2.522   3.306 -2.1020 -0.2390  2.0190
  757MOL0     H99907   8.855   2.466   3.171  0.8561 -1.0207 -0.7281
  757MOL0     H99908   9.103   2.193   3.019  2.0357  3.4467  1.7255
  757MOL0     H99909   9.244   2.063   2.864 -0.5013 -3.5184 -0.1807
  757MOL0     H99910   9.972   3.131   1.733 -1.2850 -0.9648 -0.4250
  757MOL0     H99911  10.204   3.232   1.699 -1.0450 -0.0891 -0.6124
  757MOL0     H99912  10.687   3.122   1.727 -1.8726 -0.8199  3.5425
  757MOL0     H99913  10.910   3.184   1.713  1.4573 -0.3133  3.2654
  757MOL0     H99914  11.060   3.593   1.887 -1.0693 -2.0761  0.3124
  757MOL0     H99915  11.045   3.619   1.716 -2.2194 -2.8111  0.0421
  757MOL0     H99916  11.253   3.467   1.686 -0.4340 -2.1859  1.2344
  757MOL0     H99917  11.280   3.622   1.756  3.9415 -1.2236  0.9156
  757MOL0     H99918  11.269   3.352   1.902 -0.2525  0.0807 -2.3713
  757MOL0     H99919  11.247   3.509   1.989 -1.6416 -0.1595 -0.9874
  757MOL0     H99920  11.491   3.572   1.904  0.3799 -0.9212 -0.3367
  757MOL0     H99921  11.506   3.423   2.001  0.9987 -0.5668  0.4334
  757MOL0     H99922  11.546   3.300   1.585 -0.6594  1.5494 -1.3909
  757MOL0     H99923  10.807   3.587   1.838 -1.0304  0.3217 -2.4769
  757MOL0     H99924  10.573   3.527   1.841 -0.4593 -1.0031 -0.8412
  758MOL0     O99925   2.224   4.762   0.530 -0.0869 -0.6906  0.3723
  758MOL0     C99926   2.205   4.707   0.421 -0.1301 -0.1434  0.1970
  758MOL0     O99927   2.291   4.681   0.325 -0.1116  0.7449 -0.2462
  758MOL0     C99928   2.430   4.687   0.345  0.8537 -0.7330  0.6365
  758MOL0     C99929   2.495   4.728   0.224  1.2196 -0.7159 -0.0268
  758MOL0     C99930   2.633   4.712   0.220 -0.3770 -0.0789  0.2826
  758MOL0     C99931   2.705   4.685   0.333 -0.1387  0.2400 -0.1168
  758MOL0     O99932   2.845   4.675   0.321 -0.4792  0.2751 -0.1199
  758MOL0     C99933   2.921   4.642   0.438 -0.9975  0.0520  1.2610
  758MOL0     C99934   3.070   4.684   0.415  0.1750 -1.2130 -0.0118
  758MOL0     C99935   3.170   4.589   0.474 -0.2559  0.0568 -0.6297
  758MOL0     C99936   3.311   4.643   0.437  0.6525  0.1200 -0.3867
  758MOL0     C99937   3.411   4.555   0.506 -0.1042 -0.3364 -0.8178
  758MOL0     C99938   3.548   4.578   0.435 -0.2610 -0.8948 -0.3256
  758MOL0     C99939   3.662   4.497   0.497 -0.1709  0.7373 -1.0194
  758MOL0     C99940   3.788   4.569   0.513  0.6366  0.4951  0.6652
  758MOL0     N99941   3.898   4.477   0.529 -0.1566  0.5623 -0.0820
  758MOL0     C99942   3.964   4.431   0.640  0.3728 -0.0193  0.7359
  758MOL0     C99943   4.076   4.373   0.599 -1.1168 -0.2051 -0.5882
  758MOL0     C99944   4.185   4.315   0.690 -0.1130  0.6965  0.2492
  758MOL0     C99945   4.327   4.310   0.623  0.2481 -0.5182  0.0226
  758MOL0     C99946   4.384   4.436   0.561 -0.4515  0.9026 -0.6207
  758MOL0     C99947   4.357   4.562   0.651  1.2012  0.0265 -0.5997
  758MOL0     O99948   4.426   4.685   0.616  0.0326 -0.4595  0.3159
  758MOL0     C99949   4.558   4.681   0.648 -0.1801 -0.0754 -1.1827
  758MOL0     C99950   4.601   4.649   0.781 -1.2305 -0.4067  0.4261
  758MOL0     C99951   4.739   4.620   0.799  0.2687  0.5065  1.2962
  758MOL0     C99952   4.833   4.628   0.690 -0.5947 -0.0981  0.0948
  758MOL0     C99953   4.979   4.608   0.707 -0.4257  0.1130 -0.1040
  758MOL0     O99954   5.024   4.547   0.821 -0.4113  0.4140 -0.4428
  758MOL0     C99955   5.159   4.541   0.848  0.7055  0.1249  0.2515
  758MOL0     C99956   5.210   4.645   0.926 -0.7193 -0.5378 -0.1094
  758MOL0     C99957   5.341   4.639   0.972 -0.1980  1.1090 -0.7090
  758MOL0     C99958   5.421   4.527   0.941 -0.6583 -0.4248 -0.5621
  758MOL0     O99959   5.556   4.528   0.965  0.5024 -0.6507 -0.0048
  758MOL0     C99960   5.592   4.548   1.101  0.0290  0.0754 -0.0271
  758MOL0     C99961   5.650   4.693   1.131  0.4098 -0.0299 -0.4993
  758MOL0     C99962   5.749   4.694   1.249 -0.6271  0.5921  0.9036
  758MOL0     C99963   5.789   4.831   1.293 -0.5245 -0.3109 -0.7463
  758MOL0     C99964   5.931   4.841   1.338 -0.2896  0.3597  0.6501
  758MOL0     C99965   5.959   4.788   1.479  0.2722 -0.3816 -0.0025
  758MOL0     C99966   6.099   4.807   1.537  0.7491  0.5653  0.2925
  758MOL0     C99967   6.098   4.809   1.688 -0.4609 -0.0826 -0.5192
  758MOL0    Cl99968   6.263   4.861   1.740  0.5233 -0.0327  0.0037
  758MOL0     C99969   5.364   4.426   0.861 -0.2511 -0.1675 -0.0347
  758MOL0     C99970   5.235   4.431   0.814 -0.0279  0.0433  0.2671
  758MOL0     O99971   5.051   4.648   0.618 -1.2078  0.2576  0.1180
  758MOL0     C99972   4.783   4.672   0.569 -0.2359 -0.2792  0.1748
  758MOL0     C99973   4.655   4.694   0.551 -0.2329 -0.2396  0.4601
  758MOL0     N99974   4.084   4.385   0.460 -0.1737  0.4412 -0.0617
  758MOL0     N99975   3.977   4.444   0.422  0.9017 -0.3709 -0.1247
  758MOL0     C99976   2.642   4.654   0.453  0.8037  0.0563 -0.6371
  758MOL0     C99977   2.503   4.661   0.459 -0.2551  0.8407 -0.9799
  758MOL0     C99978   2.065   4.686   0.379  0.8636  0.8724 -0.0119
  758MOL0     C99979   2.030   4.633   0.249  0.6507  0.1489  0.6728
  758MOL0     C99980   1.892   4.603   0.222 -0.2690  0.1246  0.2537
  758MOL0     C99981   1.793   4.622   0.316  0.2122  0.2167  0.2329
  758MOL0     O99982   1.665   4.584   0.278  0.0893  0.3970  0.0108
  758MOL0     C99983   1.556   4.572   0.376 -1.2154  0.4820  0.6582
  758MOL0     C99984   1.425   4.515   0.319  0.2850 -0.2700 -0.6858
  758MOL0     C99985   1.434   4.368   0.275  0.0722  0.2489 -0.3595
  758MOL0     C99986   1.293   4.313   0.232  0.3005  0.5844 -0.6834
  758MOL0     C99987   1.200   4.328   0.351 -0.2146 -0.1197  0.1379
  758MOL0     C99988   1.127   4.370   0.441  0.0130  0.9153 -0.5425
  758MOL0     C99989   1.824   4.669   0.438  0.6597 -0.4978  0.1984
  758MOL0     C99990   1.957   4.702   0.470  0.3550 -0.0138 -0.8858
  758MOL0     H99991   2.440   4.762   0.137 -1.2229 -1.5919  1.1028
  758MOL0     H99992   2.689   4.728   0.129 -0.4299 -0.6579  0.1443
  758MOL0     H99993   2.918   4.533   0.451 -0.1168 -0.3538 -1.3448
  758MOL0     H99994   2.883   4.690   0.529 -0.7689 -1.0548  1.9657
  758MOL0     H99995   3.090   4.788   0.444  0.4829 -1.4573  0.7004
  758MOL0     H99996   3.092   4.688   0.309  0.1051  3.0465 -0.0511
  758MOL0     H99997   3.148   4.498   0.417 -2.5632  0.1258  0.0715
  758MOL0     H99998   3.144   4.563   0.577  1.1954 -0.9228 -0.4834
  758MOL0     H99999   3.324   4.632   0.329  2.8343  0.5715 -0.2191
  758MOL0     H    0   3.316   4.749   0.464 -0.0054  0.3777 -1.2495
  758MOL0     H    1   3.385   4.451   0.485  0.5841  0.0692 -4.4409
  758MOL0     H    2   3.425   4.582   0.611 -0.2779  3.6172 -1.6527
  758MOL0     H    3   3.564   4.685   0.444  2.5459 -1.2405 -0.4414
  758MOL0     H    4   3.537   4.552   0.329 -2.7114  2.2662 -0.9867
  758MOL0     H    5   3.630   4.461   0.595 -0.0816 -0.8928 -1.5643
  758MOL0     H    6   3.679   4.410   0.433 -0.3036  0.9905 -1.4015
  758MOL0     H    7   3.790   4.644   0.592  3.6838 -0.0620  1.2393
  758MOL0     H    8   3.799   4.626   0.421  0.1607 -1.9166 -0.9799
  758MOL0     H    9   3.938   4.435   0.745  3.1017  0.0736  1.4647
  758MOL0     H   10   4.156   4.212   0.713 -3.2200  0.8209 -2.3960
  758MOL0     H   11   4.204   4.366   0.785  0.5131 -0.2521  0.6377
  758MOL0     H   12   4.329   4.226   0.553 -0.2839 -2.2183  1.9585
  758MOL0     H   13   4.401   4.277   0.696  0.1555  1.4468  1.0728
  758MOL0     H   14   4.493   4.432   0.578 -0.3501  1.3160 -1.1689
  758MOL0     H   15   4.359   4.467   0.460  0.5081  1.5698 -0.6720
  758MOL0     H   16   4.371   4.542   0.758 -1.7249  0.4704 -0.0424
  758MOL0     H   17   4.250   4.581   0.634  1.0590 -1.8812 -2.1700
  758MOL0     H   18   4.535   4.641   0.867 -0.1706 -2.4688  1.1210
  758MOL0     H   19   4.774   4.588   0.896  2.1057 -0.1923  0.4397
  758MOL0     H   20   5.139   4.724   0.948 -0.6154 -0.9018  1.6755
  758MOL0     H   21   5.368   4.720   1.040  2.8300 -1.0154  0.8099
  758MOL0     H   22   5.660   4.468   1.133 -1.0026 -0.8691 -0.1242
  758MOL0     H   23   5.495   4.540   1.150 -2.6125 -0.9189 -4.7998
  758MOL0     H   24   5.566   4.755   1.161  1.7847  2.1937 -0.9835
  758MOL0     H   25   5.694   4.729   1.038 -0.7851  0.2729 -0.9577
  758MOL0     H   26   5.842   4.645   1.220 -0.1245  0.9625  1.8500
  758MOL0     H   27   5.715   4.632   1.332 -1.0234  0.1011  0.3844
  758MOL0     H   28   5.775   4.899   1.207 -0.5916 -2.1998 -2.2985
  758MOL0     H   29   5.717   4.847   1.373  1.0872 -0.8056  0.8528
  758MOL0     H   30   5.960   4.946   1.348 -0.0592  0.4945 -1.0658
  758MOL0     H   31   5.993   4.788   1.265 -0.7194  1.7771 -0.8116
  758MOL0     H   32   5.955   4.679   1.471 -0.9237 -0.6124  2.6485
  758MOL0     H   33   5.884   4.822   1.552 -0.2880 -4.3575  1.5642
  758MOL0     H   34   6.173   4.733   1.506  2.8958  2.6643  0.1876
  758MOL0     H   35   6.138   4.902   1.500  2.1630  0.6759  1.9383
  758MOL0     H   36   6.086   4.716   1.743  3.0054  1.0685  2.5953
  758MOL0     H   37   6.016   4.863   1.736 -1.9273 -2.5933 -0.0238
  758MOL0     H   38   5.436   4.351   0.828 -0.7670 -0.9129  0.4916
  758MOL0     H   39   5.185   4.350   0.762  1.0872 -0.7541  0.4156
  758MOL0     H   40   4.844   4.682   0.480 -0.8390  0.4813 -0.1612
  758MOL0     H   41   4.625   4.708   0.447  0.4570 -2.1125 -0.0306
  758MOL0     H   42   2.686   4.622   0.547 -0.2982 -1.1700 -0.5160
  758MOL0     H   43   2.457   4.637   0.554  4.2223 -0.3842  1.1398
  758MOL0     H   44   2.103   4.618   0.170 -1.6845 -1.5444 -1.3374
  758MOL0     H   45   1.871   4.569   0.120  1.4742 -1.5575  0.4034
  758MOL0     H   46   1.542   4.673   0.415  1.8951  0.2648  2.6622
  758MOL0     H   47   1.593   4.508   0.456  1.6651  0.7862 -0.3414
  758MOL0     H   48   1.349   4.521   0.397  0.1099  2.1474 -0.9644
  758MOL0     H   49   1.398   4.586   0.241  1.8299  2.7473  1.3440
  758MOL0     H   50   1.470   4.308   0.359 -2.5406  0.8540  1.3069
  758MOL0     H   51   1.499   4.348   0.189 -1.9015 -3.2481 -1.2379
  758MOL0     H   52   1.257   4.379   0.152 -2.7614  0.8275  0.7490
  758MOL0     H   53   1.284   4.209   0.201 -1.4784  1.0125 -1.7264
  758MOL0     H   54   1.080   4.403   0.531 -2.1587  2.0310 -1.9856
  758MOL0     H   55   1.746   4.682   0.512 -1.6873 -1.1032 -2.0110
  758MOL0     H   56   1.973   4.719   0.576  0.5559 -1.2724 -0.6952
  759MOL0     O   57   2.358  10.782  10.359 -0.2327  0.2825  0.5465
  759MOL0     C   58   2.329  10.747  10.243  0.1866  0.0643 -0.2343
  759MOL0     O   59   2.406  10.765  10.141 -0.5953 -0.1802  0.8623
  759MOL0     C   60   2.538  10.819  10.162  0.1168  1.1068  0.7506
  759MOL0     C   61   2.653  10.747  10.122  0.8602 -0.4814 -0.0599
  759MOL0     C   62   2.770  10.807  10.141 -0.7403  0.4240  0.4969
  759MOL0     C   63   2.791  10.934  10.221  0.0553  0.7153  0.2298
  759MOL0     O   64   2.920  10.969  10.248 -0.5102 -0.1820 -0.2604
  759MOL0     C   65   2.961  11.107  10.242  0.1986 -0.2316  0.4384
  759MOL0     C   66   3.108  11.117  10.288  0.4162  0.6109  0.8566
  759MOL0     C   67   3.121  11.109  10.440 -0.7050  0.2499  0.5430
  759MOL0     C   68   3.086  10.971  10.489  0.2986  0.8985 -0.9502
  759MOL0     C   69   3.123  10.962  10.639 -0.3240 -0.3569 -0.3413
  759MOL0     C   70   3.104  10.826  10.702 -0.7031  0.7033 -0.4528
  759MOL0     C   71   2.956  10.771  10.702 -1.1997  0.3676 -0.7646
  759MOL0     C   72   2.951  10.654  10.599 -0.9766 -0.4471  1.0779
  759MOL0     N   73   2.827  10.580  10.600 -0.1214 -0.7687  0.0579
  759MOL0     C   74   2.718  10.610  10.534 -0.0120 -0.2771  0.1322
  759MOL0     C   75   2.625  10.525  10.575  0.2559  0.9001  0.0736
  759MOL0     C   76   2.484  10.522  10.519  0.1885  0.0336 -1.2811
  759MOL0     C   77   2.400  10.407  10.564  0.9663 -0.5503 -0.1052
  759MOL0     C   78   2.262  10.424  10.488 -1.0354 -0.0600  0.4625
  759MOL0     C   79   2.182  10.301  10.540 -0.2565  0.2388  0.2956
  759MOL0     O   80   2.053  10.306  10.483 -0.3081  0.3119  0.9208
  759MOL0     C   81   1.946  10.260  10.558  0.3076 -0.1967 -0.5602
  759MOL0     C   82   1.822  10.297  10.510 -0.0136  0.7297  0.0270
  759MOL0     C   83   1.705  10.260  10.568  0.6021  0.4619 -0.4844
  759MOL0     C   84   1.710  10.177  10.685 -0.8383  0.4395  1.0928
  759MOL0     C   85   1.582  10.140  10.741  0.0501  0.3618 -0.1629
  759MOL0     O   86   1.471  10.184  10.686 -0.2613 -0.5209 -0.4655
  759MOL0     C   87   1.352  10.170  10.752  0.0857 -1.2651  0.1703
  759MOL0     C   88   1.338  10.205  10.887  0.0521  0.1692  0.0348
  759MOL0     C   89   1.213  10.205  10.946 -0.1670 -0.8238  0.4974
  759MOL0     C   90   1.098  10.174  10.869  0.3495  0.2265  0.5340
  759MOL0     O   91   0.969  10.179  10.912 -0.0444  0.2862  0.4705
  759MOL0     C   92   0.937  10.271  11.021 -0.2300  0.1696 -0.0187
  759MOL0     C   93   0.789  10.269  11.029 -0.1938  0.2585 -0.0441
  759MOL0     C   94   0.740  10.374  11.127 -0.2806 -0.1758 -0.9144
  759MOL0     C   95   0.589  10.394  11.134  0.0053  0.1299  0.2697
  759MOL0     C   96   0.570  10.534  11.189  0.9300 -0.3488  0.8553
  759MOL0     C   97   0.423  10.543  11.248  0.0808  0.7199  0.2441
  759MOL0     C   98   0.312  10.503  11.151  0.6134  0.0459 -0.4345
  759MOL0     C   99   0.175  10.513  11.217 -0.7243 -0.1910 -1.3702
  759MOL0    Cl  100   0.035  10.427  11.142 -0.0626  0.2957 -0.3629
  759MOL0     C  101   1.109  10.133  10.731 -0.5347  0.7807 -0.2078
  759MOL0     C  102   1.238  10.130  10.678 -0.0534  0.6267 -0.2704
  759MOL0     O  103   1.589  10.070  10.839 -0.0103 -1.2428 -0.4053
  759MOL0     C  104   1.837  10.134  10.729 -0.7822 -0.3168  0.7051
  759MOL0     C  105   1.954  10.177  10.661 -0.2443  0.0789  0.6035
  759MOL0     N  106   2.675  10.463  10.688  0.1097 -0.2911  0.6034
  759MOL0     N  107   2.802  10.498  10.701  0.1241 -0.5494 -0.5317
  759MOL0     C  108   2.668  11.003  10.248 -0.2976 -0.1339  0.3092
  759MOL0     C  109   2.546  10.947  10.216 -0.0861  0.9839  0.5380
  759MOL0     C  110   2.194  10.694  10.214  0.1626 -0.0039  0.6751
  759MOL0     C  111   2.151  10.667  10.082 -0.0597 -0.6584  1.3961
  759MOL0     C  112   2.017  10.633  10.053  0.5841  0.0878 -0.0807
  759MOL0     C  113   1.933  10.599  10.158  0.2020 -0.9073  0.0476
  759MOL0     O  114   1.813  10.565  10.120  0.1660  0.4867  0.2981
  759MOL0     C  115   1.702  10.561  10.207  0.6555  0.1824  0.0960
  759MOL0     C  116   1.584  10.503  10.124 -0.9109 -0.1738  0.2461
  759MOL0     C  117   1.607  10.364  10.054  0.1578 -0.9672 -0.1428
  759MOL0     C  118   1.622  10.258  10.162  0.2458  0.3534 -0.5169
  759MOL0     C  119   1.503  10.240  10.249 -0.1355 -0.2390 -0.0258
  759MOL0     C  120   1.403  10.234  10.325  0.0676 -0.0901  0.7305
  759MOL0     C  121   1.979  10.612  10.288 -0.1529 -0.7248  0.1949
  759MOL0     C  122   2.109  10.662  10.314 -0.6249 -0.4348  0.0604
  759MOL0     H  123   2.656  10.656  10.063 -0.5862  0.2637 -1.3445
  759MOL0     H  124   2.863  10.769  10.099 -1.5638 -2.4487  1.0064
  759MOL0     H  125   2.899  11.169  10.308  0.3335  0.7497 -0.3404
  759MOL0     H  126   2.947  11.152  10.143  3.7069  2.4254  0.9853
  759MOL0     H  127   3.143  11.217  10.261  2.1250 -0.7278 -2.5854
  759MOL0     H  128   3.179  11.047  10.243 -1.7319 -2.2865  1.6576
  759MOL0     H  129   3.059  11.188  10.482 -0.3860  0.9300 -0.2351
  759MOL0     H  130   3.228  11.118  10.464 -0.5097 -2.7203  1.1827
  759MOL0     H  131   2.977  10.961  10.491  0.4323 -0.7512 -0.1818
  759MOL0     H  132   3.134  10.888  10.436 -0.1610  0.2820 -0.4196
  759MOL0     H  133   3.069  11.036  10.699  1.3098  0.0206  0.7142
  759MOL0     H  134   3.229  10.984  10.653 -0.3672 -0.5923  0.4131
  759MOL0     H  135   3.142  10.839  10.803 -3.9027 -0.3495  1.0160
  759MOL0     H  136   3.165  10.754  10.647 -2.8430 -0.5830 -1.2899
  759MOL0     H  137   2.918  10.732  10.797  0.5186  2.0169  0.6641
  759MOL0     H  138   2.879  10.844  10.675 -1.9446  0.0663  0.4682
  759MOL0     H  139   3.030  10.580  10.612 -0.3792 -0.2869 -1.1988
  759MOL0     H  140   2.960  10.702  10.501 -0.2049  0.9820  1.8196
  759MOL0     H  141   2.716  10.680  10.452  3.1147 -0.3731 -0.1610
  759MOL0     H  142   2.479  10.518  10.410 -0.9578 -3.5779 -1.2254
  759MOL0     H  143   2.433  10.613  10.554 -1.2140 -1.0213 -0.4414
  759MOL0     H  144   2.389  10.409  10.673  1.5955 -1.3115 -0.0187
  759MOL0     H  145   2.436  10.311  10.525  1.4889 -0.9154  1.2094
  759MOL0     H  146   2.210  10.513  10.524 -0.7890 -0.6741  2.4705
  759MOL0     H  147   2.267  10.417  10.379 -1.5741 -0.3391  0.4535
  759MOL0     H  148   2.186  10.313  10.649  2.5011  4.5892 -0.0219
  759MOL0     H  149   2.219  10.204  10.506 -5.4442 -1.0727 -2.7124
  759MOL0     H  150   1.815  10.369  10.429 -1.7548  1.9271  1.1838
  759MOL0     H  151   1.614  10.305  10.529 -0.3517 -0.9642  0.0028
  759MOL0     H  152   1.413  10.235  10.960 -0.6277  2.0232 -0.0008
  759MOL0     H  153   1.203  10.246  11.046  1.4927 -1.1292  0.8190
  759MOL0     H  154   0.971  10.371  10.992 -3.1545  1.3005  0.1630
  759MOL0     H  155   0.990  10.248  11.115  0.4038 -1.8810 -0.8133
  759MOL0     H  156   0.743  10.173  11.056  0.2221 -0.0018 -0.2513
  759MOL0     H  157   0.756  10.293  10.927  1.8396 -0.1392 -0.8383
  759MOL0     H  158   0.798  10.466  11.109 -1.7106  0.7639 -0.8878
  759MOL0     H  159   0.758  10.337  11.229  2.3159 -0.5864 -1.4394
  759MOL0     H  160   0.537  10.382  11.038 -0.5509  1.8657  0.3036
  759MOL0     H  161   0.543  10.313  11.191 -0.7185 -0.1892 -0.7366
  759MOL0     H  162   0.580  10.599  11.101 -1.4558 -2.6624 -1.2935
  759MOL0     H  163   0.638  10.554  11.273  1.6669 -2.1401  0.7175
  759MOL0     H  164   0.414  10.645  11.285 -0.3824  0.9009 -0.3609
  759MOL0     H  165   0.421  10.478  11.337  1.5587  2.4459  1.6215
  759MOL0     H  166   0.316  10.556  11.055 -4.7262  0.6993 -0.6103
  759MOL0     H  167   0.317  10.396  11.129 -1.6357  0.0970 -1.5157
  759MOL0     H  168   0.167  10.622  11.216 -0.3672 -0.1116  0.3269
  759MOL0     H  169   0.184  10.475  11.320  1.3552 -2.0341 -2.1273
  759MOL0     H  170   1.021  10.094  10.682  1.3454 -1.9157 -1.6832
  759MOL0     H  171   1.245  10.097  10.574 -1.7945  0.0067 -0.2238
  759MOL0     H  172   1.836  10.068  10.816 -1.1436 -2.5058 -0.8537
  759MOL0     H  173   2.047  10.128  10.688  0.9535  2.2302  0.5461
  759MOL0     H  174   2.679  11.082  10.321  0.3803  0.0185  0.0569
  759MOL0     H  175   2.455  10.998  10.247  0.0295  0.4918  1.7753
  759MOL0     H  176   2.207  10.703   9.996 -0.7131 -1.8473  0.4479
  759MOL0     H  177   1.987  10.622   9.949  2.7534 -1.9198 -0.5950
  759MOL0     H  178   1.670  10.659  10.244 -3.6893 -1.2273  0.7463
  759MOL0     H  179   1.718  10.492  10.290 -1.9193  0.5116  0.9703
  759MOL0     H  180   1.492  10.492  10.182 -0.8149 -3.8233 -0.0227
  759MOL0     H  181   1.570  10.574  10.042 -0.3633 -2.6283 -2.1441
  759MOL0     H  182   1.691  10.369   9.984 -0.0388  1.2336 -0.3053
  759MOL0     H  183   1.526  10.339   9.986  0.2517 -2.6835  0.3468
  759MOL0     H  184   1.650  10.160  10.121 -2.7405 -1.1937  0.8317
  759MOL0     H  185   1.698  10.284  10.236 -2.2419  1.5673  1.7891
  759MOL0     H  186   1.323  10.226  10.396 -0.4429  0.0325  0.1695
  759MOL0     H  187   1.929  10.586  10.380  2.9222  1.4516  2.6847
  759MOL0     H  188   2.137  10.680  10.417 -4.0569 -0.6632  1.1463
  760MOL0     O  189   0.926   1.934   9.095  0.1981 -1.0680 -0.0033
  760MOL0     C  190   0.945   1.815   9.085 -0.9254 -0.1381  0.1872
  760MOL0     O  191   0.841   1.726   9.079  0.2685 -0.2976  0.1187
  760MOL0     C  192   0.714   1.761   9.045  0.2983 -0.8844  0.4688
  760MOL0     C  193   0.612   1.677   9.081  0.0966  0.2964  0.3032
  760MOL0     C  194   0.477   1.701   9.049  0.9435  0.6117 -0.2634
  760MOL0     C  195   0.441   1.816   8.974  0.2092 -0.3000  0.2441
  760MOL0     O  196   0.312   1.838   8.940  0.3789  0.7986  0.3384
  760MOL0     C  197   0.263   1.958   8.877 -0.7122  0.8536  1.3010
  760MOL0     C  198   0.108   1.968   8.886 -0.0019  0.5755  0.5392
  760MOL0     C  199   0.060   2.052   8.997 -0.2656  0.4126 -0.1021
  760MOL0     C  200  -0.082   2.089   8.982  0.0078 -0.1873  0.2340
  760MOL0     C  201  -0.126   2.201   9.081  0.2801 -0.0541  0.8876
  760MOL0     C  202  -0.254   2.271   9.031  0.4230 -0.3963 -0.8971
  760MOL0     C  203  -0.375   2.178   9.023 -0.1397  0.3573 -0.4864
  760MOL0     C  204  -0.447   2.137   9.156 -1.4345  0.3080  0.1814
  760MOL0     N  205  -0.587   2.117   9.135  0.4123 -0.5343 -0.2874
  760MOL0     C  206  -0.686   2.208   9.173  0.0161 -0.2360 -0.5063
  760MOL0     C  207  -0.801   2.134   9.159  0.2267 -0.6728  0.2095
  760MOL0     C  208  -0.930   2.190   9.215  0.3001 -0.3912  0.2559
  760MOL0     C  209  -1.050   2.191   9.112  0.3607 -0.5226  0.1051
  760MOL0     C  210  -1.136   2.064   9.110  0.1784  0.8653 -0.3854
  760MOL0     C  211  -1.264   2.058   9.013  0.4048 -0.3691 -0.1182
  760MOL0     O  212  -1.357   2.135   9.090 -0.1494 -0.5820  0.2440
  760MOL0     C  213  -1.490   2.134   9.057 -0.0085 -0.1381  0.4341
  760MOL0     C  214  -1.552   2.062   8.963  0.5739  0.4619 -0.2796
  760MOL0     C  215  -1.691   2.057   8.950 -0.3727  1.0114 -0.8690
  760MOL0     C  216  -1.774   2.132   9.031 -0.1293 -0.1646  0.5773
  760MOL0     C  217  -1.926   2.114   9.005 -0.0623  0.7472 -0.7960
  760MOL0     O  218  -1.948   2.038   8.890 -0.0408 -0.8172 -0.2291
  760MOL0     C  219  -2.080   2.019   8.869  0.2398  0.4964 -0.6118
  760MOL0     C  220  -2.112   1.885   8.886 -0.5385 -0.1246 -0.6298
  760MOL0     C  221  -2.243   1.842   8.862 -0.7667  0.4646 -0.0780
  760MOL0     C  222  -2.346   1.929   8.821  0.0521  0.1842  0.1524
  760MOL0     O  223  -2.470   1.879   8.806  0.8341 -0.3854  0.6030
  760MOL0     C  224  -2.579   1.977   8.808  0.1415 -0.9312 -1.2096
  760MOL0     C  225  -2.704   1.889   8.802 -0.1152  0.6016 -0.3250
  760MOL0     C  226  -2.825   1.981   8.824  0.4042  0.8790  0.9716
  760MOL0     C  227  -2.965   1.917   8.826  0.1337  1.1868 -0.4849
  760MOL0     C  228  -3.068   2.025   8.817 -0.1390  0.1029 -0.5782
  760MOL0     C  229  -3.203   1.970   8.863  0.0862 -0.8531  0.6254
  760MOL0     C  230  -3.306   2.072   8.823 -0.2033 -0.0360 -0.7992
  760MOL0     C  231  -3.435   2.071   8.904  0.7434 -0.4482 -0.6979
  760MOL0    Cl  232  -3.531   2.219   8.858  0.2157 -0.3850  0.0189
  760MOL0     C  233  -2.311   2.065   8.818  0.2447 -0.0682 -0.2949
  760MOL0     C  234  -2.180   2.109   8.829  0.1568  0.0609 -0.0881
  760MOL0     O  235  -2.012   2.154   9.085 -0.5744 -0.6736 -0.1780
  760MOL0     C  236  -1.714   2.221   9.123 -0.2567  0.7420 -0.2683
  760MOL0     C  237  -1.574   2.229   9.124 -0.1692 -0.5757 -0.3027
  760MOL0     N  238  -0.773   2.006   9.131 -1.2972  0.4546  0.2581
  760MOL0     N  239  -0.652   1.999   9.102 -0.3135 -0.0399  0.4648
  760MOL0     C  240   0.545   1.898   8.934 -0.1749  0.0019  0.0060
  760MOL0     C  241   0.672   1.870   8.964  0.5455 -0.3096  0.5289
  760MOL0     C  242   1.094   1.766   9.069  0.2441 -0.1454 -0.0684
  760MOL0     C  243   1.132   1.628   9.083 -0.7021 -0.1532 -0.2172
  760MOL0     C  244   1.264   1.592   9.052  0.8201 -0.4971 -0.1154
  760MOL0     C  245   1.350   1.681   8.999 -0.4046 -0.0291 -0.0567
  760MOL0     O  246   1.481   1.648   8.963  0.0384 -0.1321 -1.3264
  760MOL0     C  247   1.523   1.508   8.958  0.0030 -0.2084  0.1673
  760MOL0     C  248   1.561   1.423   9.083 -1.3730  0.6205  0.0605
  760MOL0     C  249   1.645   1.511   9.181 -0.7234 -0.2150  0.8545
  760MOL0     C  250   1.795   1.538   9.141  0.0645 -0.6085 -0.0318
  760MOL0     C  251   1.814   1.655   9.059 -0.9427  0.1550  0.3689
  760MOL0     C  252   1.833   1.734   8.972  0.3390  1.1177 -0.0633
  760MOL0     C  253   1.307   1.814   8.988 -0.3426 -0.5918 -1.1526
  760MOL0     C  254   1.188   1.863   9.031 -0.2303  0.4173 -0.3381
  760MOL0     H  255   0.645   1.591   9.139  2.6756 -0.8025 -2.5154
  760MOL0     H  256   0.400   1.631   9.080  3.5475 -0.8398  3.7723
  760MOL0     H  257   0.295   1.960   8.773 -1.3318 -2.0305  0.9699
  760MOL0     H  258   0.303   2.053   8.914 -1.2012  0.6706  2.3594
  760MOL0     H  259   0.071   1.865   8.887 -0.5719  0.7488 -0.6014
  760MOL0     H  260   0.076   2.012   8.791  1.1158 -4.7198 -2.7765
  760MOL0     H  261   0.119   2.144   9.001 -0.1071  0.3787 -1.3611
  760MOL0     H  262   0.084   1.993   9.086 -2.4717  0.5186  0.6422
  760MOL0     H  263  -0.097   2.134   8.884  0.7315  1.4577  0.8557
  760MOL0     H  264  -0.147   2.001   8.983 -1.8032  0.9635 -3.0632
  760MOL0     H  265  -0.047   2.277   9.086 -1.0469  1.4991 -0.5128
  760MOL0     H  266  -0.149   2.160   9.179  1.0090 -4.0914 -0.4745
  760MOL0     H  267  -0.248   2.306   8.928  1.8944  0.1982 -0.6298
  760MOL0     H  268  -0.278   2.355   9.096  3.1117  0.8914 -1.4091
  760MOL0     H  269  -0.453   2.244   8.985 -0.5093  0.3557  0.2538
  760MOL0     H  270  -0.345   2.087   8.971  0.1795  0.2080 -0.0468
  760MOL0     H  271  -0.424   2.195   9.246  1.6400 -1.5391  0.7362
  760MOL0     H  272  -0.402   2.041   9.183  0.6842  1.5479  1.3124
  760MOL0     H  273  -0.679   2.313   9.201 -1.3067 -0.4132  0.5789
  760MOL0     H  274  -0.909   2.295   9.238 -0.8078 -0.0993 -0.0031
  760MOL0     H  275  -0.954   2.142   9.310  1.3208  0.0805  0.7660
  760MOL0     H  276  -1.022   2.214   9.009 -0.3735 -2.6193 -0.6178
  760MOL0     H  277  -1.114   2.275   9.140 -1.4835 -1.2772 -1.6174
  760MOL0     H  278  -1.069   1.978   9.106 -0.7303  0.1191 -0.0811
  760MOL0     H  279  -1.190   2.065   9.205  0.3657 -1.9962 -0.1834
  760MOL0     H  280  -1.314   1.961   9.003 -0.5491  0.1910 -1.0306
  760MOL0     H  281  -1.246   2.106   8.916 -1.1158 -2.0163 -1.3062
  760MOL0     H  282  -1.503   1.988   8.901  1.3110 -1.2233  2.2006
  760MOL0     H  283  -1.729   2.007   8.862 -0.8033  1.1737 -0.7777
  760MOL0     H  284  -2.038   1.810   8.912 -2.4026 -2.0443 -0.5531
  760MOL0     H  285  -2.257   1.736   8.882 -1.6266  0.7089  0.6510
  760MOL0     H  286  -2.582   2.053   8.729  0.5553  2.2018  1.5547
  760MOL0     H  287  -2.572   2.034   8.901  3.1772 -2.4934 -0.3355
  760MOL0     H  288  -2.690   1.810   8.876 -0.8885  0.0417 -0.7535
  760MOL0     H  289  -2.722   1.849   8.701 -0.9640 -1.2352  0.4971
  760MOL0     H  290  -2.824   2.044   8.735  3.8430 -0.9822 -0.5188
  760MOL0     H  291  -2.803   2.046   8.909 -0.1487  2.0824  0.2267
  760MOL0     H  292  -2.966   1.846   8.743  0.6707 -0.3407  0.7718
  760MOL0     H  293  -2.974   1.867   8.923  0.0247  4.7302  1.5072
  760MOL0     H  294  -3.075   2.055   8.712 -2.4221  1.8925  0.0124
  760MOL0     H  295  -3.038   2.110   8.879  1.4783 -0.9828  0.2187
  760MOL0     H  296  -3.199   1.940   8.969  1.5494 -1.9680  0.2929
  760MOL0     H  297  -3.212   1.882   8.799 -2.5786  0.8385 -1.5392
  760MOL0     H  298  -3.271   2.174   8.841  2.4610 -0.7110 -1.7782
  760MOL0     H  299  -3.336   2.068   8.718 -3.5757  0.5546  0.0178
  760MOL0     H  300  -3.412   2.080   9.011  0.6510 -1.3500 -0.5949
  760MOL0     H  301  -3.492   1.977   8.900 -0.2127  0.1207 -0.7813
  760MOL0     H  302  -2.389   2.133   8.785  0.8155  0.0849 -1.3782
  760MOL0     H  303  -2.145   2.211   8.816 -3.6137  1.5124  0.0321
  760MOL0     H  304  -1.776   2.275   9.194 -0.6474 -0.6543  0.4918
  760MOL0     H  305  -1.533   2.304   9.190 -0.3099 -0.1613 -0.6779
  760MOL0     H  306   0.525   1.988   8.878 -1.4701  0.7271  1.5265
  760MOL0     H  307   0.739   1.947   8.926 -2.7694  2.5937 -0.0265
  760MOL0     H  308   1.064   1.546   9.104  0.2335 -2.2373 -4.3612
  760MOL0     H  309   1.294   1.492   9.081 -0.1987 -0.3331  1.6424
  760MOL0     H  310   1.615   1.512   8.899  0.1960  2.4778  0.5178
  760MOL0     H  311   1.454   1.445   8.902  2.1929 -2.8187  0.1864
  760MOL0     H  312   1.472   1.392   9.138  0.1251 -2.7576  0.8682
  760MOL0     H  313   1.621   1.337   9.051 -0.5396  1.8287 -1.7597
  760MOL0     H  314   1.639   1.451   9.272 -0.8289 -1.6643 -0.0811
  760MOL0     H  315   1.608   1.611   9.209  3.8087  1.3361  2.2855
  760MOL0     H  316   1.855   1.560   9.230 -4.9014  2.3512  3.0560
  760MOL0     H  317   1.831   1.449   9.088 -2.7422 -0.6096 -2.1554
  760MOL0     H  318   1.833   1.812   8.899 -1.9079  1.0953 -0.1591
  760MOL0     H  319   1.364   1.882   8.925 -0.1094  0.0747 -0.2497
  760MOL0     H  320   1.167   1.969   9.026 -1.5223  0.1771 -0.2940
  761MOL0     O  321   2.149   0.959   2.769 -0.1491 -0.3216  0.5779
  761MOL0     C  322   2.175   0.863   2.690  0.2549 -0.5861 -0.7648
  761MOL0     O  323   2.081   0.782   2.627  0.5535  0.2049 -0.1699
  761MOL0     C  324   1.947   0.811   2.649  0.3274 -0.2935  0.2080
  761MOL0     C  325   1.885   0.786   2.772 -0.0253 -0.0182  0.1815
  761MOL0     C  326   1.756   0.823   2.799 -0.7622  0.2633 -0.5343
  761MOL0     C  327   1.675   0.877   2.697  0.0442  0.1357 -0.5193
  761MOL0     O  328   1.538   0.894   2.709 -0.6669 -0.0272 -0.0030
  761MOL0     C  329   1.478   0.874   2.837 -0.4578  0.3879  0.2086
  761MOL0     C  330   1.455   0.721   2.833  0.5012 -0.4855 -0.8622
  761MOL0     C  331   1.341   0.660   2.729 -0.3577 -0.1114  0.0847
  761MOL0     C  332   1.198   0.697   2.760 -1.6276 -0.3914  0.3659
  761MOL0     C  333   1.139   0.606   2.868  0.7511  0.2612  1.1046
  761MOL0     C  334   1.122   0.463   2.836 -0.6351  0.4145  0.6670
  761MOL0     C  335   1.058   0.421   2.701  0.0896  0.0632  0.7950
  761MOL0     C  336   1.156   0.396   2.589  0.2234  0.4371  0.6520
  761MOL0     N  337   1.254   0.284   2.617 -0.1890  0.6298 -1.1297
  761MOL0     C  338   1.242   0.142   2.626  1.3809 -0.5754  0.1167
  761MOL0     C  339   1.357   0.093   2.673 -0.2783  0.3908 -0.8376
  761MOL0     C  340   1.391  -0.054   2.703 -0.0912 -0.5955 -0.4416
  761MOL0     C  341   1.534  -0.084   2.650 -0.5102 -0.0062  0.1477
  761MOL0     C  342   1.574  -0.225   2.685 -0.5769 -0.1204  0.5358
  761MOL0     C  343   1.700  -0.259   2.595 -0.8754 -0.1879 -0.2206
  761MOL0     O  344   1.740  -0.397   2.622 -0.3251  0.5427  0.6346
  761MOL0     C  345   1.864  -0.443   2.567  0.6299 -0.2821 -0.2521
  761MOL0     C  346   1.917  -0.564   2.595  0.9750  1.0390  0.2472
  761MOL0     C  347   2.046  -0.597   2.555  0.0340  0.0191 -0.0239
  761MOL0     C  348   2.127  -0.506   2.483 -1.2815 -1.0581 -0.7762
  761MOL0     C  349   2.264  -0.537   2.442  0.1214  0.9991 -0.5402
  761MOL0     O  350   2.335  -0.607   2.528  0.1259  0.0175 -0.0899
  761MOL0     C  351   2.452  -0.668   2.476 -0.2850 -0.1331  0.1064
  761MOL0     C  352   2.434  -0.784   2.391 -0.1700  0.0683 -0.3272
  761MOL0     C  353   2.548  -0.849   2.337  0.6031  1.1687 -0.2226
  761MOL0     C  354   2.677  -0.796   2.355  0.0885  0.6009  0.2964
  761MOL0     O  355   2.780  -0.858   2.287 -0.2753 -0.4711 -0.6143
  761MOL0     C  356   2.915  -0.806   2.307 -0.4322 -0.7338  0.5893
  761MOL0     C  357   3.016  -0.890   2.237  0.3748  0.5460 -0.2786
  761MOL0     C  358   3.160  -0.861   2.264  0.0209 -0.0706  0.1931
  761MOL0     C  359   3.255  -0.961   2.216  0.5896  0.3322 -0.0287
  761MOL0     C  360   3.399  -0.933   2.277  0.1935 -0.5191 -0.4478
  761MOL0     C  361   3.514  -1.009   2.217 -0.3402 -0.0937  0.2774
  761MOL0     C  362   3.640  -0.929   2.241 -0.5807 -0.1887 -0.6632
  761MOL0     C  363   3.759  -0.952   2.158  0.4927 -0.2490  0.0192
  761MOL0    Cl  364   3.713  -0.905   1.986 -0.4212  0.3704 -0.1865
  761MOL0     C  365   2.683  -0.683   2.437  0.6388  0.0499 -0.0719
  761MOL0     C  366   2.572  -0.622   2.501 -0.4620 -0.2710  0.2109
  761MOL0     O  367   2.305  -0.468   2.355 -0.3106  0.2278  0.2261
  761MOL0     C  368   2.067  -0.390   2.436  0.0328  0.3252  0.4565
  761MOL0     C  369   1.943  -0.352   2.491  0.7895 -0.6153  0.0039
  761MOL0     N  370   1.442   0.205   2.671  0.4005  0.0646  0.3724
  761MOL0     N  371   1.381   0.313   2.664  0.1505 -0.2942  0.3307
  761MOL0     C  372   1.727   0.908   2.575 -0.5923  0.6851  0.8414
  761MOL0     C  373   1.866   0.875   2.550  0.0066 -0.7418  0.3815
  761MOL0     C  374   2.317   0.826   2.660  0.9349 -0.1690  0.1626
  761MOL0     C  375   2.419   0.926   2.672 -0.1219 -0.1383 -0.0257
  761MOL0     C  376   2.560   0.903   2.650 -0.2602  0.2297 -0.8000
  761MOL0     C  377   2.583   0.777   2.597  0.3766  0.3891  0.2857
  761MOL0     O  378   2.708   0.729   2.568  0.3906 -1.0906 -0.0657
  761MOL0     C  379   2.818   0.824   2.570 -0.2908  0.8159 -0.7633
  761MOL0     C  380   2.948   0.745   2.561 -0.3605 -0.7071 -0.3070
  761MOL0     C  381   3.080   0.816   2.549  0.2929 -0.8919  0.6056
  761MOL0     C  382   3.117   0.902   2.671  0.3421  0.6786  0.4977
  761MOL0     C  383   3.177   0.820   2.766 -0.0514  0.5001 -0.7493
  761MOL0     C  384   3.229   0.728   2.828 -0.2587 -0.2484 -0.6477
  761MOL0     C  385   2.477   0.681   2.585 -0.3819  0.2535  0.3618
  761MOL0     C  386   2.350   0.694   2.625  0.3758  0.1886 -0.3146
  761MOL0     H  387   1.948   0.759   2.857  0.0445  1.0759  0.4859
  761MOL0     H  388   1.735   0.795   2.902  0.3515 -2.6360 -1.0049
  761MOL0     H  389   1.378   0.917   2.837 -1.9441 -2.3847 -4.1429
  761MOL0     H  390   1.532   0.902   2.928  0.2207 -1.1831  0.3333
  761MOL0     H  391   1.438   0.691   2.937 -0.3481  0.1507 -0.8073
  761MOL0     H  392   1.548   0.673   2.801  1.5563 -0.0770  1.3870
  761MOL0     H  393   1.347   0.551   2.718 -1.2000 -0.2702  1.0823
  761MOL0     H  394   1.369   0.688   2.627  2.7523  0.5378  0.9928
  761MOL0     H  395   1.198   0.804   2.780 -1.4348  0.1932 -2.4031
  761MOL0     H  396   1.123   0.692   2.680  0.0180  0.3616 -1.2889
  761MOL0     H  397   1.043   0.653   2.891  1.0846  0.7116  1.6346
  761MOL0     H  398   1.196   0.613   2.962  2.6199  0.5869 -0.0070
  761MOL0     H  399   1.057   0.416   2.910 -2.3846  0.7202 -0.5978
  761MOL0     H  400   1.220   0.414   2.841 -0.6607  0.2554 -0.2551
  761MOL0     H  401   0.989   0.336   2.714 -1.2760  0.9721 -0.1741
  761MOL0     H  402   0.993   0.506   2.680  0.5599  0.7410  2.0101
  761MOL0     H  403   1.211   0.488   2.568  0.4890  0.1024 -0.1571
  761MOL0     H  404   1.094   0.368   2.503 -0.7678 -1.5014  1.9162
  761MOL0     H  405   1.161   0.082   2.586 -0.8763  1.6921  0.9802
  761MOL0     H  406   1.322  -0.117   2.646 -1.7934 -0.0762  0.9700
  761MOL0     H  407   1.387  -0.074   2.810  0.4004 -1.5630 -0.5853
  761MOL0     H  408   1.601  -0.011   2.694 -0.0701  0.5300 -1.3392
  761MOL0     H  409   1.530  -0.065   2.542 -0.7003 -0.3220  0.0988
  761MOL0     H  410   1.597  -0.215   2.791 -2.2778  2.4551  0.7507
  761MOL0     H  411   1.497  -0.301   2.672  0.1760 -0.7053 -0.7308
  761MOL0     H  412   1.783  -0.189   2.612 -0.8404 -0.8266  2.8598
  761MOL0     H  413   1.674  -0.261   2.489  1.0150 -4.7326 -0.8027
  761MOL0     H  414   1.858  -0.635   2.652  0.1274  1.4225 -0.1413
  761MOL0     H  415   2.071  -0.700   2.575 -1.0055 -0.3246 -0.3955
  761MOL0     H  416   2.332  -0.821   2.378  0.5292 -3.0125  1.7211
  761MOL0     H  417   2.535  -0.932   2.269  1.8503  1.4213 -0.7990
  761MOL0     H  418   2.947  -0.809   2.411  1.4453  1.1221  0.1494
  761MOL0     H  419   2.929  -0.701   2.279 -0.2085 -0.7816  0.5137
  761MOL0     H  420   2.994  -0.884   2.130  0.5015  1.5799 -0.2582
  761MOL0     H  421   2.999  -0.990   2.278 -5.8929  1.5119  0.3564
  761MOL0     H  422   3.178  -0.850   2.372  0.9286  3.3021 -0.1694
  761MOL0     H  423   3.178  -0.764   2.216 -0.9750  0.5623  1.0473
  761MOL0     H  424   3.229  -1.061   2.252  0.8932 -0.1973 -1.2247
  761MOL0     H  425   3.248  -0.967   2.107 -1.5004  4.2988 -0.2803
  761MOL0     H  426   3.393  -0.943   2.385 -1.6652  0.2525 -0.4409
  761MOL0     H  427   3.422  -0.827   2.262 -0.8192  0.2473  2.6918
  761MOL0     H  428   3.508  -1.018   2.108  0.3544  1.8715  0.0315
  761MOL0     H  429   3.517  -1.114   2.248  0.0117 -0.3950 -0.7460
  761MOL0     H  430   3.620  -0.822   2.226  0.9660  0.0013 -1.5521
  761MOL0     H  431   3.664  -0.947   2.346 -1.8048 -1.2442 -0.5410
  761MOL0     H  432   3.788  -1.058   2.159 -0.4706 -0.5373 -0.5213
  761MOL0     H  433   3.829  -0.880   2.200 -0.7081  0.3566  1.0563
  761MOL0     H  434   2.778  -0.633   2.451  0.2997  0.3227  1.4033
  761MOL0     H  435   2.590  -0.528   2.552  2.9365  0.8325 -2.5814
  761MOL0     H  436   2.133  -0.327   2.376  1.1137  1.3777  2.6279
  761MOL0     H  437   1.904  -0.258   2.454 -0.3137 -0.2045  2.0781
  761MOL0     H  438   1.670   0.950   2.493  1.5527 -2.3253 -2.5085
  761MOL0     H  439   1.897   0.912   2.453 -0.3156  0.0244  0.5680
  761MOL0     H  440   2.393   1.031   2.681 -2.3380 -0.5279 -1.3036
  761MOL0     H  441   2.630   0.983   2.669 -1.4336  0.9854  0.5515
  761MOL0     H  442   2.815   0.884   2.662 -1.7299 -1.9966  1.1773
  761MOL0     H  443   2.813   0.889   2.483  1.6741 -0.3564 -1.8234
  761MOL0     H  444   2.952   0.675   2.645 -2.6198 -0.0246  0.4669
  761MOL0     H  445   2.943   0.672   2.480  3.3325 -0.5938 -0.7803
  761MOL0     H  446   3.076   0.884   2.463  0.2739  3.6329  3.8128
  761MOL0     H  447   3.156   0.742   2.523  4.9688  4.0626 -2.0970
  761MOL0     H  448   3.180   0.984   2.636 -0.1505  0.3541 -1.2536
  761MOL0     H  449   3.038   0.958   2.721  1.9416  2.9681  0.5756
  761MOL0     H  450   3.263   0.642   2.883  0.2573  0.5127  0.2471
  761MOL0     H  451   2.502   0.585   2.540  0.5686  1.2702 -1.3969
  761MOL0     H  452   2.272   0.619   2.617 -0.5411  0.6553  2.8690
  762MOL0     O  453  10.125   7.326   1.450 -0.3678 -0.2898  0.2424
  762MOL0     C  454  10.072   7.285   1.558 -0.5546  0.9341  0.2301
  762MOL0     O  455   9.945   7.233   1.573  0.2400  0.6371  0.4719
  762MOL0     C  456   9.868   7.180   1.467 -0.0094  0.7079  0.9465
  762MOL0     C  457   9.731   7.177   1.494  0.0051 -0.0206  0.7529
  762MOL0     C  458   9.643   7.119   1.399 -0.0207  0.1283 -0.3767
  762MOL0     C  459   9.682   7.067   1.275 -0.5061 -0.5335  0.5472
  762MOL0     O  460   9.579   7.018   1.197 -0.0863  0.6152 -0.1102
  762MOL0     C  461   9.601   6.924   1.100  0.0301  0.0693  1.0480
  762MOL0     C  462   9.472   6.833   1.090  0.0632 -0.1059 -0.4794
  762MOL0     C  463   9.339   6.901   1.087  0.4029  0.2312  0.6858
  762MOL0     C  464   9.235   6.815   1.146 -0.6916  0.1569 -0.2798
  762MOL0     C  465   9.086   6.868   1.133 -0.1085 -0.4163 -0.0252
  762MOL0     C  466   9.070   6.987   1.226 -0.2352  0.9255 -0.3758
  762MOL0     C  467   8.916   7.017   1.226 -0.4269  0.6732  0.8298
  762MOL0     C  468   8.834   6.930   1.330 -0.8583  1.1634  0.0357
  762MOL0     N  469   8.700   6.986   1.349  0.2570 -0.5632  0.5742
  762MOL0     C  470   8.678   7.101   1.421 -1.3268 -1.0419  0.4303
  762MOL0     C  471   8.553   7.093   1.456 -1.0433  0.0670  0.4372
  762MOL0     C  472   8.515   7.201   1.547 -0.4232  0.2665  0.0007
  762MOL0     C  473   8.392   7.154   1.623 -0.5182 -0.2251 -0.1074
  762MOL0     C  474   8.272   7.189   1.539  0.1824  0.7717 -0.3128
  762MOL0     C  475   8.141   7.144   1.610  0.0625 -0.2600  1.0450
  762MOL0     O  476   8.101   7.221   1.722  0.1739  0.6653  0.2753
  762MOL0     C  477   7.974   7.202   1.770  1.3380 -0.1340  0.7729
  762MOL0     C  478   7.909   7.314   1.831  0.4872 -0.4448  0.1936
  762MOL0     C  479   7.774   7.299   1.869 -0.2058 -0.2190 -0.7819
  762MOL0     C  480   7.698   7.180   1.868  0.9697  0.2906 -0.2042
  762MOL0     C  481   7.555   7.171   1.921 -0.4591  0.6546 -0.6874
  762MOL0     O  482   7.477   7.281   1.896  0.5148  1.2947  0.7880
  762MOL0     C  483   7.340   7.278   1.894  0.0692  0.6285  0.0227
  762MOL0     C  484   7.246   7.193   1.951 -0.2214  0.8405  0.2567
  762MOL0     C  485   7.111   7.205   1.905 -0.7511 -0.7794  0.2153
  762MOL0     C  486   7.066   7.319   1.838  0.3153 -0.3627  0.5504
  762MOL0     O  487   6.941   7.352   1.793 -0.0917 -0.4444  0.5645
  762MOL0     C  488   6.825   7.291   1.849 -0.0005 -0.2007 -0.5934
  762MOL0     C  489   6.765   7.185   1.750 -0.2881 -0.1828 -0.5733
  762MOL0     C  490   6.623   7.127   1.771  0.3596  0.3885 -0.3956
  762MOL0     C  491   6.641   7.039   1.896  0.0798  1.0063  0.2779
  762MOL0     C  492   6.523   6.934   1.909  0.1820  0.6484  0.5397
  762MOL0     C  493   6.376   6.994   1.895  0.5152  0.0355  0.4511
  762MOL0     C  494   6.337   7.078   2.019  0.6252  0.0845  0.2448
  762MOL0     C  495   6.183   7.105   2.025  0.0873  0.6884 -0.5289
  762MOL0    Cl  496   6.124   7.158   2.183  0.0273 -0.4978 -0.4541
  762MOL0     C  497   7.157   7.415   1.803 -0.8783 -0.0743  0.3188
  762MOL0     C  498   7.289   7.388   1.830  0.2607 -0.0111 -0.1735
  762MOL0     O  499   7.518   7.063   1.966  0.7383  0.7117 -0.0371
  762MOL0     C  500   7.764   7.071   1.817 -0.3382 -0.0702  0.1404
  762MOL0     C  501   7.896   7.083   1.756  0.0785 -0.5896 -0.3925
  762MOL0     N  502   8.487   6.996   1.386 -0.1434  0.2201 -0.0183
  762MOL0     N  503   8.578   6.930   1.319  1.2962 -0.0139 -0.4570
  762MOL0     C  504   9.823   7.064   1.254 -0.3631 -0.4656 -1.5766
  762MOL0     C  505   9.917   7.116   1.346  0.1488  0.1152 -0.0931
  762MOL0     C  506  10.155   7.270   1.669 -0.6332 -0.4208 -0.8189
  762MOL0     C  507  10.296   7.296   1.660 -0.5751  0.1894 -0.4646
  762MOL0     C  508  10.373   7.291   1.781 -0.4147  0.5166  0.4233
  762MOL0     C  509  10.318   7.250   1.902 -0.2292 -0.0796 -0.2255
  762MOL0     O  510  10.390   7.228   2.030  0.2682  0.2092 -0.1740
  762MOL0     C  511  10.528   7.220   2.030  1.0967 -0.2625 -0.1427
  762MOL0     C  512  10.566   7.103   2.118 -0.0283 -0.4813 -0.9386
  762MOL0     C  513  10.712   7.059   2.102 -0.3486 -0.1627  0.9869
  762MOL0     C  514  10.796   7.121   2.217 -0.2921 -0.6195  0.1113
  762MOL0     C  515  10.828   7.264   2.194 -0.3886 -0.3950  0.0122
  762MOL0     C  516  10.860   7.373   2.153  0.4199  0.1703  0.3170
  762MOL0     C  517  10.179   7.234   1.906  0.0475  0.1904  0.7464
  762MOL0     C  518  10.092   7.248   1.795  0.5782 -0.1561  0.0146
  762MOL0     H  519   9.689   7.214   1.587 -2.4251 -1.5174  0.3486
  762MOL0     H  520   9.538   7.116   1.426  0.1168 -0.0425  0.1476
  762MOL0     H  521   9.687   6.859   1.117 -0.6662 -0.6655  1.8388
  762MOL0     H  522   9.624   6.977   1.006  0.4414  1.7976  2.0704
  762MOL0     H  523   9.475   6.762   1.173 -1.0206 -0.8208 -1.0162
  762MOL0     H  524   9.483   6.770   1.000 -1.3897  0.1124 -0.8326
  762MOL0     H  525   9.309   6.924   0.984  1.1327 -1.2770  0.1187
  762MOL0     H  526   9.331   7.000   1.134 -1.7506  0.0776  0.7297
  762MOL0     H  527   9.228   6.721   1.090 -1.6092  0.6903 -1.0759
  762MOL0     H  528   9.254   6.792   1.251  0.1918  2.5741  0.1555
  762MOL0     H  529   9.026   6.779   1.158  0.6309 -0.6996  0.7813
  762MOL0     H  530   9.084   6.891   1.026 -0.8044 -0.2846  0.0151
  762MOL0     H  531   9.128   7.066   1.177 -0.7952  1.6905  0.1697
  762MOL0     H  532   9.114   6.968   1.324  1.9726  1.0145 -1.2835
  762MOL0     H  533   8.900   7.121   1.255 -0.1752  1.2094 -0.8441
  762MOL0     H  534   8.882   7.009   1.123  1.3625  2.0236  0.0663
  762MOL0     H  535   8.879   6.907   1.427 -1.8997 -0.9084  0.1068
  762MOL0     H  536   8.815   6.832   1.286 -1.9649 -0.2032  3.2137
  762MOL0     H  537   8.757   7.167   1.454  0.4144  0.9745 -6.2523
  762MOL0     H  538   8.501   7.293   1.489  1.3510  1.8697  1.9415
  762MOL0     H  539   8.583   7.219   1.631  0.1103  0.0796 -0.3960
  762MOL0     H  540   8.383   7.208   1.717 -2.7113 -2.8572  1.3406
  762MOL0     H  541   8.379   7.047   1.644 -3.1915  0.0011 -0.2590
  762MOL0     H  542   8.268   7.296   1.519  2.5576  0.4483 -3.1563
  762MOL0     H  543   8.268   7.140   1.441  5.2251 -1.8501  0.4228
  762MOL0     H  544   8.137   7.035   1.623 -1.8814 -0.4670 -0.7064
  762MOL0     H  545   8.073   7.165   1.527  0.7299  3.1716  1.2243
  762MOL0     H  546   7.953   7.413   1.829 -1.3440  0.4359  0.8027
  762MOL0     H  547   7.728   7.390   1.906 -0.2141 -1.1619  1.6666
  762MOL0     H  548   7.286   7.109   2.006  0.8936  0.4336 -1.1284
  762MOL0     H  549   7.061   7.113   1.933  3.1605 -2.7954  1.3301
  762MOL0     H  550   6.754   7.370   1.875 -1.0313 -1.5799  0.9486
  762MOL0     H  551   6.841   7.244   1.946  0.3148  1.7873  0.3584
  762MOL0     H  552   6.837   7.105   1.733 -0.5085 -0.4445 -0.2873
  762MOL0     H  553   6.738   7.243   1.662  2.0885 -0.2491 -1.4038
  762MOL0     H  554   6.595   7.060   1.689 -1.2391  0.8692 -0.2848
  762MOL0     H  555   6.547   7.204   1.783 -1.5915 -1.7270  1.9130
  762MOL0     H  556   6.732   6.978   1.901 -0.8669 -0.4255  0.7138
  762MOL0     H  557   6.644   7.104   1.985  2.3184  0.8725  0.3716
  762MOL0     H  558   6.534   6.877   2.002 -1.9466 -1.8232 -0.5998
  762MOL0     H  559   6.538   6.868   1.823  0.6239  0.8033  0.4980
  762MOL0     H  560   6.308   6.909   1.887  1.1372 -0.5837  1.5015
  762MOL0     H  561   6.381   7.050   1.801 -1.0014  0.0426  0.3452
  762MOL0     H  562   6.366   7.013   2.101 -0.1647 -1.9953 -1.0566
  762MOL0     H  563   6.396   7.170   2.010 -2.6086  2.1439 -1.6754
  762MOL0     H  564   6.133   7.015   1.988 -0.4682 -0.2156  2.2441
  762MOL0     H  565   6.158   7.177   1.947  1.0470  0.1256 -1.3916
  762MOL0     H  566   7.128   7.492   1.732 -0.6237 -0.3130 -0.0471
  762MOL0     H  567   7.367   7.459   1.802  0.0437  0.8783  1.3409
  762MOL0     H  568   7.712   6.975   1.814  0.2653 -0.4584  1.5195
  762MOL0     H  569   7.936   6.996   1.705  1.3826 -0.3665  0.2183
  762MOL0     H  570   9.864   7.039   1.157  2.4900  1.4111 -0.9902
  762MOL0     H  571  10.023   7.098   1.335 -0.1373 -0.4534 -2.5483
  762MOL0     H  572  10.346   7.316   1.566 -1.7806  0.9568 -0.9661
  762MOL0     H  573  10.480   7.302   1.768 -0.7293  0.4948 -3.3730
  762MOL0     H  574  10.566   7.315   2.070 -1.1455  0.4851  0.3937
  762MOL0     H  575  10.569   7.190   1.933 -2.0194  0.8945 -1.9554
  762MOL0     H  576  10.536   7.123   2.221 -5.0207 -4.0217 -1.2834
  762MOL0     H  577  10.507   7.013   2.094  2.2437 -3.2134  2.6554
  762MOL0     H  578  10.763   7.087   2.009  0.3836  0.6383  1.6039
  762MOL0     H  579  10.711   6.952   2.122  2.1026 -0.0803  1.8801
  762MOL0     H  580  10.750   7.114   2.316  2.6672  3.6594  2.1079
  762MOL0     H  581  10.891   7.067   2.222 -0.4104 -0.8729 -0.3616
  762MOL0     H  582  10.884   7.474   2.125 -1.3852  0.3886 -0.6272
  762MOL0     H  583  10.128   7.221   2.000 -2.0362  0.7356 -0.2615
  762MOL0     H  584   9.986   7.253   1.821  0.4604 -2.5343  0.2213
  763MOL0     O  585   3.857   8.730   8.447 -0.5986 -0.3879  0.5434
  763MOL0     C  586   3.886   8.849   8.470  0.0948 -0.4791  0.0978
  763MOL0     O  587   3.804   8.932   8.534  0.3440  0.1769  0.5488
  763MOL0     C  588   3.686   8.889   8.590 -0.1261 -0.0537  0.9148
  763MOL0     C  589   3.693   8.776   8.678  0.2064 -0.5095  1.0447
  763MOL0     C  590   3.576   8.709   8.718 -0.5923  0.5080 -0.1878
  763MOL0     C  591   3.452   8.762   8.687  0.1676 -0.5794  0.4849
  763MOL0     O  592   3.338   8.705   8.731  0.1046  0.5267  0.3701
  763MOL0     C  593   3.310   8.574   8.684  0.2678  0.8153  0.4911
  763MOL0     C  594   3.175   8.581   8.619  0.3677 -1.3770  0.4863
  763MOL0     C  595   3.055   8.610   8.718  0.4812 -0.4490  0.3075
  763MOL0     C  596   2.915   8.631   8.641 -0.1652  0.1588  0.2869
  763MOL0     C  597   2.794   8.600   8.731  0.6511 -0.8449 -0.0312
  763MOL0     C  598   2.663   8.571   8.653  0.5548  0.9478  1.3549
  763MOL0     C  599   2.541   8.517   8.742  0.2433  0.4307 -0.3456
  763MOL0     C  600   2.408   8.491   8.675 -0.4798 -0.4073 -0.4245
  763MOL0     N  601   2.307   8.594   8.672 -0.2899  0.1185 -0.7381
  763MOL0     C  602   2.315   8.725   8.621 -0.0061  0.2492  0.0812
  763MOL0     C  603   2.197   8.786   8.654 -0.2456 -0.0141  1.2020
  763MOL0     C  604   2.160   8.921   8.614 -0.6665  0.1649  0.2685
  763MOL0     C  605   2.173   9.037   8.710 -0.0910  0.0980 -1.0361
  763MOL0     C  606   2.316   9.109   8.727 -0.0389  0.5881 -0.0148
  763MOL0     C  607   2.422   9.011   8.770 -0.5984  0.5793  0.1642
  763MOL0     O  608   2.530   9.081   8.826 -0.1374 -0.1920  0.3334
  763MOL0     C  609   2.653   9.075   8.760  0.1104  0.8234 -0.0581
  763MOL0     C  610   2.764   9.074   8.844  0.7687 -0.4604 -0.2062
  763MOL0     C  611   2.889   9.056   8.791  0.0815 -0.2844 -0.3305
  763MOL0     C  612   2.909   9.054   8.647 -1.2555 -0.3083 -0.7417
  763MOL0     C  613   3.039   9.035   8.583 -0.4094  0.3717  0.5337
  763MOL0     O  614   3.034   8.993   8.456  0.5126 -0.5314 -0.6523
  763MOL0     C  615   3.142   8.974   8.375 -0.1357 -0.2122 -0.2463
  763MOL0     C  616   3.164   8.849   8.330 -0.4719  0.4574  0.2901
  763MOL0     C  617   3.291   8.818   8.276  0.1169 -0.8203 -0.3192
  763MOL0     C  618   3.387   8.913   8.250 -0.1211  1.0548  0.4200
  763MOL0     O  619   3.496   8.871   8.172 -0.2430  0.5910 -0.1466
  763MOL0     C  620   3.604   8.948   8.123  0.2707 -0.4227 -1.0441
  763MOL0     C  621   3.691   8.852   8.040 -0.1522 -0.2623 -0.1723
  763MOL0     C  622   3.825   8.913   7.998 -0.2457  0.3194 -0.2816
  763MOL0     C  623   3.916   8.805   7.937 -0.1635  0.8573  0.0282
  763MOL0     C  624   3.880   8.761   7.791 -0.0076  0.0306 -0.3215
  763MOL0     C  625   3.892   8.876   7.685  0.2219  0.1173  0.0799
  763MOL0     C  626   4.037   8.916   7.667 -0.0103 -0.6416  0.3104
  763MOL0     C  627   4.074   9.057   7.722  0.5126  1.2999 -0.2872
  763MOL0    Cl  628   4.257   9.045   7.761 -0.2778  0.0064  0.1154
  763MOL0     C  629   3.354   9.042   8.282  0.3382  0.1060  0.2290
  763MOL0     C  630   3.233   9.074   8.350 -0.9650  0.0791 -0.2165
  763MOL0     O  631   3.140   9.075   8.643 -0.3295 -0.1065 -0.0322
  763MOL0     C  632   2.788   9.062   8.567 -1.1517 -0.2367 -0.2654
  763MOL0     C  633   2.670   9.064   8.624 -0.0088 -0.3647  1.1124
  763MOL0     N  634   2.122   8.689   8.714  0.2675 -0.1302 -0.3367
  763MOL0     N  635   2.183   8.579   8.721  0.2340  0.4729 -0.0027
  763MOL0     C  636   3.444   8.872   8.604 -0.7593 -0.4806  0.8366
  763MOL0     C  637   3.561   8.939   8.553  0.9707 -0.4581 -0.4465
  763MOL0     C  638   4.016   8.909   8.422  0.4546 -0.2974 -0.2898
  763MOL0     C  639   4.101   8.823   8.366 -0.2461 -0.8038  0.1395
  763MOL0     C  640   4.205   8.873   8.301  0.8795  0.7004 -0.3358
  763MOL0     C  641   4.230   9.007   8.286 -0.4561 -0.2445  0.4529
  763MOL0     O  642   4.343   9.049   8.219  0.4916 -0.4058  0.2996
  763MOL0     C  643   4.371   8.998   8.086  0.8276 -0.1457 -0.6000
  763MOL0     C  644   4.502   8.919   8.075 -0.4158 -0.8204  0.3074
  763MOL0     C  645   4.569   8.932   7.933 -0.1851  0.0446  0.3295
  763MOL0     C  646   4.605   9.074   7.878 -0.2163 -0.1845  0.0560
  763MOL0     C  647   4.661   9.158   7.983 -0.8833  0.1269  0.4435
  763MOL0     C  648   4.720   9.237   8.054  0.5870 -1.4680  0.4826
  763MOL0     C  649   4.144   9.100   8.348  0.1191  1.1301  0.7533
  763MOL0     C  650   4.036   9.054   8.417 -0.6843  0.2639 -1.8642
  763MOL0     H  651   3.795   8.757   8.710  0.7144  1.8527  1.0701
  763MOL0     H  652   3.583   8.621   8.781 -0.0404 -0.4598 -1.5527
  763MOL0     H  653   3.300   8.518   8.777  3.3910  0.5925  0.8091
  763MOL0     H  654   3.398   8.536   8.632 -1.1959 -0.0243 -1.4716
  763MOL0     H  655   3.169   8.482   8.574 -1.9211 -1.5902  1.1597
  763MOL0     H  656   3.169   8.659   8.542 -0.5624 -0.0879  1.7972
  763MOL0     H  657   3.082   8.703   8.770  3.6598 -1.3375  0.4506
  763MOL0     H  658   3.036   8.534   8.795 -0.4768  0.7743  1.3453
  763MOL0     H  659   2.909   8.731   8.596 -0.3463 -0.2953 -0.7274
  763MOL0     H  660   2.917   8.550   8.567  0.9174  1.4856 -1.2094
  763MOL0     H  661   2.769   8.691   8.785 -0.3875  1.4973 -4.0883
  763MOL0     H  662   2.809   8.522   8.806 -4.6079 -2.3736 -0.2066
  763MOL0     H  663   2.685   8.508   8.567 -2.7384  0.8173  0.4460
  763MOL0     H  664   2.629   8.664   8.605  3.2631  1.2473 -0.1778
  763MOL0     H  665   2.570   8.418   8.778  0.0414  0.6588  0.4692
  763MOL0     H  666   2.533   8.589   8.825  0.3789  0.6688 -0.5385
  763MOL0     H  667   2.367   8.398   8.716  1.2032 -0.6504  0.8096
  763MOL0     H  668   2.433   8.482   8.569 -1.4566 -0.6845 -0.6401
  763MOL0     H  669   2.405   8.763   8.573  0.2913  0.3344  0.6842
  763MOL0     H  670   2.054   8.907   8.592 -0.0828 -2.4753 -1.3260
  763MOL0     H  671   2.201   8.960   8.520 -3.6552  1.4885 -0.6056
  763MOL0     H  672   2.142   9.007   8.810 -2.1636  3.3193 -0.5530
  763MOL0     H  673   2.097   9.113   8.687 -0.9745 -0.5397 -0.2885
  763MOL0     H  674   2.352   9.151   8.632  1.8638 -1.2169 -0.1604
  763MOL0     H  675   2.309   9.188   8.802  2.3196  1.4067 -0.5714
  763MOL0     H  676   2.452   8.941   8.692 -1.6286 -3.0418  2.7775
  763MOL0     H  677   2.379   8.943   8.844 -3.7927 -0.3072 -2.2661
  763MOL0     H  678   2.751   9.083   8.951  0.5618  0.1899 -0.2802
  763MOL0     H  679   2.982   9.064   8.847  0.1126 -1.1704 -0.2382
  763MOL0     H  680   3.090   8.774   8.354  0.1440 -0.5374 -0.8170
  763MOL0     H  681   3.320   8.719   8.240 -0.1351 -0.3663 -1.8262
  763MOL0     H  682   3.658   8.994   8.207 -0.2464 -0.2423 -0.8030
  763MOL0     H  683   3.570   9.025   8.053  0.3173 -0.1698 -0.7913
  763MOL0     H  684   3.629   8.825   7.954  0.8469  1.0208 -1.3410
  763MOL0     H  685   3.720   8.771   8.107  1.0376  1.0215  0.9444
  763MOL0     H  686   3.863   8.942   8.096 -1.5447 -3.8399  1.6786
  763MOL0     H  687   3.809   8.990   7.922  3.7491  0.7138 -0.9265
  763MOL0     H  688   4.020   8.838   7.944 -0.2241  1.1977 -0.6158
  763MOL0     H  689   3.911   8.724   8.010  0.8625  1.8095  1.1878
  763MOL0     H  690   3.778   8.723   7.787  0.0967 -0.4587  1.1128
  763MOL0     H  691   3.942   8.675   7.762 -0.9473 -0.1585 -1.9128
  763MOL0     H  692   3.826   8.959   7.712  1.4932  1.0121  0.5293
  763MOL0     H  693   3.868   8.835   7.586  0.5785  1.5871 -0.6451
  763MOL0     H  694   4.104   8.843   7.714 -0.5127 -0.6898  0.9589
  763MOL0     H  695   4.064   8.920   7.561 -1.2102  0.7058  0.0222
  763MOL0     H  696   4.016   9.072   7.813 -0.8989  1.5820 -1.1920
  763MOL0     H  697   4.038   9.133   7.651 -0.3799  0.6264 -0.5663
  763MOL0     H  698   3.429   9.117   8.258 -2.1004  1.9460 -2.2356
  763MOL0     H  699   3.205   9.175   8.378  0.1330 -0.2326  2.2325
  763MOL0     H  700   2.799   9.057   8.459  0.6297 -0.1028 -0.1276
  763MOL0     H  701   2.585   9.053   8.557  1.7848 -1.9676 -1.0456
  763MOL0     H  702   3.344   8.906   8.578  0.2154  2.4316  0.4474
  763MOL0     H  703   3.541   9.022   8.486 -2.1736  0.3111  1.2241
  763MOL0     H  704   4.090   8.715   8.373 -0.5931 -0.8075 -0.4471
  763MOL0     H  705   4.281   8.812   8.251  1.8686  0.6701  1.1538
  763MOL0     H  706   4.379   9.081   8.016 -0.3173 -0.8777 -1.6522
  763MOL0     H  707   4.284   8.933   8.069  0.3651  0.0783  0.7961
  763MOL0     H  708   4.577   8.951   8.148  0.8610 -2.6239 -0.1498
  763MOL0     H  709   4.476   8.816   8.103  2.3831 -1.0898  2.3189
  763MOL0     H  710   4.508   8.883   7.857 -0.8014  0.4967  0.5236
  763MOL0     H  711   4.662   8.875   7.932  2.4919  4.0014  0.4930
  763MOL0     H  712   4.684   9.063   7.804  0.1487 -2.1250  0.6801
  763MOL0     H  713   4.513   9.117   7.837  0.5722  1.3262 -0.2082
  763MOL0     H  714   4.777   9.317   8.096 -2.1814  0.9123  0.0756
  763MOL0     H  715   4.170   9.205   8.344  1.9749  0.7408  1.5741
  763MOL0     H  716   3.985   9.132   8.472  1.7958  0.4346  0.3509
  764MOL0     O  717   5.759   0.275   3.328  0.4082 -0.0332  0.4867
  764MOL0     C  718   5.778   0.278   3.206 -0.4838 -0.0874  0.2970
  764MOL0     O  719   5.694   0.237   3.114 -0.2259 -0.1578  0.9584
  764MOL0     C  720   5.575   0.186   3.152 -0.1089  1.1721  0.0723
  764MOL0     C  721   5.481   0.249   3.232  0.3976 -0.6257 -0.6993
  764MOL0     C  722   5.358   0.192   3.248 -0.3469 -0.3849 -0.1145
  764MOL0     C  723   5.326   0.072   3.190 -0.5045  1.0865 -0.9502
  764MOL0     O  724   5.201   0.008   3.212 -0.7599  0.0631 -0.3008
  764MOL0     C  725   5.090   0.089   3.225 -0.0970  0.9370 -0.1152
  764MOL0     C  726   5.035   0.105   3.372  0.4553 -0.8037  0.1504
  764MOL0     C  727   4.880   0.137   3.376 -0.6367 -0.8949 -0.2098
  764MOL0     C  728   4.849   0.251   3.276  1.0014  0.5288 -0.4837
  764MOL0     C  729   4.690   0.279   3.272  0.0669 -0.9263  0.3803
  764MOL0     C  730   4.614   0.280   3.410 -0.5630  0.1449  0.0214
  764MOL0     C  731   4.654   0.410   3.485 -0.5546  0.7617 -1.2681
  764MOL0     C  732   4.615   0.427   3.631 -0.0204 -0.8267 -0.0228
  764MOL0     N  733   4.487   0.364   3.662  0.1276  0.1050 -0.3825
  764MOL0     C  734   4.375   0.401   3.595  0.6543  0.5268  0.7877
  764MOL0     C  735   4.271   0.352   3.663 -0.3562  0.5388  0.4634
  764MOL0     C  736   4.127   0.358   3.633  0.1795  0.1820  0.1487
  764MOL0     C  737   4.066   0.226   3.588  0.1418 -0.3537 -0.8098
  764MOL0     C  738   4.118   0.183   3.454 -0.0151  0.3494  0.4506
  764MOL0     C  739   4.015   0.083   3.393 -0.1791  0.0769 -0.3197
  764MOL0     O  740   3.925   0.167   3.328  0.4113  0.9585  0.2067
  764MOL0     C  741   3.788   0.128   3.313 -0.4360 -0.3378 -0.4202
  764MOL0     C  742   3.731   0.010   3.365 -0.2375  0.2093  0.2713
  764MOL0     C  743   3.592  -0.014   3.341 -0.9618  0.6006 -0.3638
  764MOL0     C  744   3.502   0.079   3.285 -0.7242 -0.1383  0.2040
  764MOL0     C  745   3.355   0.051   3.256 -0.3485 -0.2427 -0.1469
  764MOL0     O  746   3.283   0.162   3.211  0.3743  0.1592  0.3227
  764MOL0     C  747   3.150   0.158   3.179  0.5314  0.0817 -0.1893
  764MOL0     C  748   3.101   0.241   3.081  0.1885 -0.4532 -0.5592
  764MOL0     C  749   2.957   0.245   3.046 -0.7400  0.6339  0.1664
  764MOL0     C  750   2.881   0.140   3.106 -0.6507 -0.3210  0.0155
  764MOL0     O  751   2.739   0.115   3.074  0.5016  0.2457 -0.2019
  764MOL0     C  752   2.668   0.208   2.996 -0.6982  0.0505  0.0832
  764MOL0     C  753   2.526   0.160   2.973 -0.1783  0.4228 -0.0780
  764MOL0     C  754   2.456   0.183   3.109  0.5558  0.2968 -0.0968
  764MOL0     C  755   2.310   0.130   3.092  0.2544 -0.8282  0.5436
  764MOL0     C  756   2.226   0.149   3.214 -0.7326  0.2282 -0.9514
  764MOL0     C  757   2.212   0.287   3.273 -0.1569  1.2818 -0.0711
  764MOL0     C  758   2.101   0.288   3.383 -1.0123  0.0684 -0.2603
  764MOL0     C  759   2.066   0.431   3.422  0.2873  0.4639 -0.7183
  764MOL0    Cl  760   1.901   0.424   3.493 -0.2762  0.1225 -0.0508
  764MOL0     C  761   2.932   0.061   3.205 -0.6455 -0.1615  0.3824
  764MOL0     C  762   3.067   0.065   3.234 -0.2730  0.5251 -0.2676
  764MOL0     O  763   3.313  -0.058   3.286  1.4757  0.0294  0.2236
  764MOL0     C  764   3.564   0.194   3.239 -0.4997 -0.0187  0.3576
  764MOL0     C  765   3.704   0.213   3.246  0.1276  0.5759 -0.0279
  764MOL0     N  766   4.336   0.288   3.773 -0.2591 -0.4931 -0.2425
  764MOL0     N  767   4.467   0.282   3.768  0.4983 -0.8411  0.9447
  764MOL0     C  768   5.413   0.020   3.101  0.1885  0.1172  0.3656
  764MOL0     C  769   5.533   0.082   3.073  0.5506 -0.1092 -0.8764
  764MOL0     C  770   5.904   0.328   3.149 -0.2456  0.0719  0.9504
  764MOL0     C  771   6.014   0.357   3.227  0.9342  0.2225 -0.2329
  764MOL0     C  772   6.132   0.401   3.176 -0.0037  0.3731  0.7248
  764MOL0     C  773   6.155   0.404   3.040 -0.3321  0.2162 -0.7226
  764MOL0     O  774   6.268   0.458   2.982 -0.4774  0.1130 -0.3398
  764MOL0     C  775   6.388   0.485   3.057 -0.3575  0.8595  0.2008
  764MOL0     C  776   6.507   0.527   2.964  0.3478 -0.3878 -0.0163
  764MOL0     C  777   6.473   0.660   2.902 -0.3956 -0.2821 -0.1011
  764MOL0     C  778   6.569   0.704   2.792 -0.2669  0.1296 -0.3290
  764MOL0     C  779   6.537   0.836   2.745 -0.4817 -0.3727 -0.7908
  764MOL0     C  780   6.509   0.939   2.693 -0.1607 -0.8014  0.5094
  764MOL0     C  781   6.053   0.372   2.957 -0.8930  0.1164 -0.7049
  764MOL0     C  782   5.929   0.350   3.009 -0.1836 -0.5200  0.2038
  764MOL0     H  783   5.491   0.348   3.276 -0.4698 -0.8063 -0.0743
  764MOL0     H  784   5.287   0.241   3.314  1.9740  0.7085  1.7247
  764MOL0     H  785   5.016   0.039   3.162 -1.3053 -0.5608  2.3250
  764MOL0     H  786   5.101   0.190   3.185 -2.0608  1.0176 -0.5596
  764MOL0     H  787   5.085   0.187   3.425 -1.0006 -0.4922  1.0914
  764MOL0     H  788   5.060   0.010   3.420  0.7485 -1.3656 -1.0690
  764MOL0     H  789   4.850   0.152   3.480 -0.3770  0.2716 -0.2938
  764MOL0     H  790   4.831   0.045   3.345  0.0685 -1.0917 -0.7585
  764MOL0     H  791   4.892   0.348   3.304  0.2319  0.3812  1.3877
  764MOL0     H  792   4.872   0.235   3.171  1.0448  1.9840 -0.7248
  764MOL0     H  793   4.647   0.195   3.216  1.3330 -2.8056  2.0718
  764MOL0     H  794   4.665   0.366   3.211  1.2982 -1.2982 -0.6966
  764MOL0     H  795   4.629   0.185   3.462 -0.0443  1.1866  1.8444
  764MOL0     H  796   4.504   0.279   3.406 -0.5821 -2.1367 -0.1755
  764MOL0     H  797   4.762   0.430   3.478 -0.4340  0.4643 -0.3980
  764MOL0     H  798   4.604   0.482   3.420  0.8195  1.1377 -1.9615
  764MOL0     H  799   4.621   0.534   3.652 -0.8650 -0.7692 -0.0698
  764MOL0     H  800   4.700   0.396   3.694  1.5744  5.7447  1.8051
  764MOL0     H  801   4.365   0.458   3.503 -0.9150 -0.8928  0.0168
  764MOL0     H  802   4.116   0.436   3.557 -0.5303  0.5631  0.6332
  764MOL0     H  803   4.078   0.404   3.720 -0.6411 -0.9638  0.3013
  764MOL0     H  804   3.958   0.234   3.571 -0.3124 -0.9114  1.4927
  764MOL0     H  805   4.091   0.152   3.665 -0.2315 -1.0214 -1.3124
  764MOL0     H  806   4.128   0.275   3.396  1.4799  1.5280  2.4581
  764MOL0     H  807   4.219   0.145   3.472 -0.1638 -0.9024 -1.0890
  764MOL0     H  808   3.974   0.021   3.474  3.8153  0.3117  2.1763
  764MOL0     H  809   4.064   0.025   3.314  1.4632 -0.8026  1.2735
  764MOL0     H  810   3.793  -0.072   3.400  0.7115 -0.0899 -1.9248
  764MOL0     H  811   3.558  -0.112   3.373  0.7174  0.5689  1.5673
  764MOL0     H  812   3.152   0.331   3.048 -1.7344  1.1049  0.4596
  764MOL0     H  813   2.921   0.306   2.964 -0.4013  0.9669  0.2633
  764MOL0     H  814   2.716   0.225   2.900 -2.7886  0.5590 -0.9329
  764MOL0     H  815   2.670   0.303   3.051  0.7496  0.7043 -1.0557
  764MOL0     H  816   2.508   0.057   2.940 -1.1774  0.4303  0.3903
  764MOL0     H  817   2.491   0.227   2.894 -1.1427 -1.2896 -1.1780
  764MOL0     H  818   2.466   0.290   3.125 -1.3153  0.8895 -2.3710
  764MOL0     H  819   2.503   0.119   3.185 -1.6694 -1.6238 -0.2168
  764MOL0     H  820   2.254   0.164   3.005 -0.0887 -1.5296  0.4869
  764MOL0     H  821   2.318   0.021   3.082 -4.6611 -1.4593  1.0469
  764MOL0     H  822   2.284   0.096   3.290  0.3425 -1.8730 -3.1349
  764MOL0     H  823   2.130   0.101   3.191 -0.8567 -1.0347  1.7178
  764MOL0     H  824   2.188   0.359   3.194  0.2143  1.2094 -0.2550
  764MOL0     H  825   2.304   0.323   3.320  1.2040 -0.3406 -1.3501
  764MOL0     H  826   2.011   0.235   3.352 -1.3294 -0.0533  0.8257
  764MOL0     H  827   2.138   0.244   3.476 -1.5171  2.8285  1.3522
  764MOL0     H  828   2.051   0.489   3.330  1.2872 -0.9943 -1.8422
  764MOL0     H  829   2.138   0.471   3.493 -1.6091 -0.4328  1.8315
  764MOL0     H  830   2.865  -0.003   3.261 -1.7959  0.2615 -0.4679
  764MOL0     H  831   3.099   0.007   3.321 -0.9912  0.8925  0.2568
  764MOL0     H  832   3.510   0.262   3.175  0.0879 -0.3381 -0.4893
  764MOL0     H  833   3.735   0.309   3.208 -1.8462  0.7982 -1.1685
  764MOL0     H  834   5.392  -0.071   3.045 -1.1271  0.3639  0.4301
  764MOL0     H  835   5.612   0.045   3.008 -0.0813 -1.9326 -0.6744
  764MOL0     H  836   5.996   0.356   3.334 -0.5945 -0.7572 -0.4719
  764MOL0     H  837   6.215   0.437   3.235 -1.2896  2.8981  1.1340
  764MOL0     H  838   6.419   0.404   3.124  0.5113  2.5025  1.8560
  764MOL0     H  839   6.376   0.568   3.126  0.5320 -0.9318  2.6684
  764MOL0     H  840   6.598   0.541   3.024 -0.2872 -0.2597  0.9234
  764MOL0     H  841   6.517   0.444   2.893 -2.1359 -1.6126  0.9549
  764MOL0     H  842   6.472   0.734   2.983  1.7916 -1.4421  1.0708
  764MOL0     H  843   6.374   0.651   2.855  1.0667 -1.5620 -3.1921
  764MOL0     H  844   6.664   0.713   2.845 -0.4621 -0.4108  0.1172
  764MOL0     H  845   6.570   0.624   2.717 -0.2273 -0.4783  0.3106
  764MOL0     H  846   6.467   1.025   2.644 -2.0923 -0.8251  2.0046
  764MOL0     H  847   6.067   0.365   2.849  2.6065 -4.5726 -0.2488
  764MOL0     H  848   5.849   0.333   2.937  0.6545 -1.0544 -0.6231
  765MOL0     O  849   9.856   2.166  10.186  0.4574 -0.2535  0.2515
  765MOL0     C  850   9.921   2.202  10.285 -0.5823  0.1449  1.2423
  765MOL0     O  851   9.875   2.242  10.405  0.6826 -0.2888  0.7572
  765MOL0     C  852   9.734   2.260  10.413 -0.3173 -0.3513  0.4030
  765MOL0     C  853   9.676   2.233  10.540 -0.3657  0.5583  0.4617
  765MOL0     C  854   9.539   2.255  10.566  0.4283 -0.0419 -0.1199
  765MOL0     C  855   9.457   2.311  10.461 -0.6189 -0.1431 -0.5508
  765MOL0     O  856   9.323   2.324  10.469 -0.0234  0.0379 -0.1272
  765MOL0     C  857   9.267   2.339  10.597  0.1676 -0.4306  0.3610
  765MOL0     C  858   9.120   2.356  10.586  0.8695  0.1256 -0.2870
  765MOL0     C  859   9.041   2.378  10.714  0.0188  0.2362  0.1636
  765MOL0     C  860   8.892   2.404  10.683 -0.4600 -0.7368 -0.7367
  765MOL0     C  861   8.806   2.382  10.814  0.5515 -0.2889 -0.2092
  765MOL0     C  862   8.657   2.404  10.788  0.8529 -0.5179 -0.8515
  765MOL0     C  863   8.570   2.360  10.909 -1.1335 -0.0194  0.0032
  765MOL0     C  864   8.612   2.449  11.035 -0.6360 -0.2201 -1.2296
  765MOL0     N  865   8.493   2.483  11.110  1.0219  0.3940 -0.9340
  765MOL0     C  866   8.436   2.406  11.210  0.6388  0.0108 -0.0481
  765MOL0     C  867   8.304   2.441  11.208 -0.3782 -0.8907 -0.3549
  765MOL0     C  868   8.206   2.349  11.266 -0.2536  1.0845 -0.8386
  765MOL0     C  869   8.058   2.388  11.241 -0.6878 -0.9763 -0.4072
  765MOL0     C  870   8.024   2.368  11.091 -0.3868 -0.0900  0.6576
  765MOL0     C  871   7.879   2.412  11.062 -0.3004  1.1723 -0.2905
  765MOL0     O  872   7.785   2.346  11.147 -0.9572  0.4438  0.7393
  765MOL0     C  873   7.668   2.289  11.105  0.7793 -0.3631 -0.3691
  765MOL0     C  874   7.556   2.280  11.201  1.0589  0.7241 -0.0705
  765MOL0     C  875   7.434   2.219  11.156  0.0995  0.3890 -0.1116
  765MOL0     C  876   7.421   2.157  11.035 -0.7729 -0.4959 -0.1796
  765MOL0     C  877   7.291   2.088  10.995 -0.2493 -1.0189 -0.3459
  765MOL0     O  878   7.287   2.047  10.862  0.2644  0.1696  0.0901
  765MOL0     C  879   7.168   1.995  10.818  0.0125 -0.0489 -0.0410
  765MOL0     C  880   7.069   2.075  10.763  0.9568  0.1740  0.3822
  765MOL0     C  881   6.953   2.015  10.705  0.2477 -0.1180  0.1713
  765MOL0     C  882   6.938   1.880  10.689 -0.4193  0.4038 -0.0247
  765MOL0     O  883   6.829   1.820  10.631  0.2221  0.3151 -0.3786
  765MOL0     C  884   6.690   1.862  10.658 -0.5270 -0.5457 -0.0382
  765MOL0     C  885   6.617   1.752  10.738  0.4404 -0.0540  0.6513
  765MOL0     C  886   6.477   1.788  10.796  0.0199 -0.1893  0.4690
  765MOL0     C  887   6.413   1.666  10.852  0.1360  0.7942 -0.3879
  765MOL0     C  888   6.256   1.684  10.857 -0.4216 -0.7570  0.0667
  765MOL0     C  889   6.187   1.578  10.946 -0.2168  0.1096  0.0514
  765MOL0     C  890   6.032   1.583  10.921 -0.2723 -0.2211  0.0114
  765MOL0     C  891   5.954   1.684  11.013  0.1425 -1.2270 -0.7773
  765MOL0    Cl  892   5.773   1.677  11.003 -0.0408  0.4116 -0.3897
  765MOL0     C  893   7.045   1.801  10.726  0.4267 -0.0694  0.1173
  765MOL0     C  894   7.156   1.860  10.797  1.0541 -0.2189 -0.6453
  765MOL0     O  895   7.194   2.075  11.067 -0.9379 -0.8138 -0.2223
  765MOL0     C  896   7.532   2.163  10.941  0.0693  0.5117 -0.6626
  765MOL0     C  897   7.652   2.218  10.982 -0.2914  0.3827  0.7875
  765MOL0     N  898   8.283   2.554  11.136 -0.3379  0.0115 -0.7552
  765MOL0     N  899   8.395   2.581  11.074 -0.9482 -0.3605  0.0171
  765MOL0     C  900   9.513   2.338  10.336  0.0485  0.0097  0.2864
  765MOL0     C  901   9.651   2.329  10.321 -0.5170 -0.3805  0.2418
  765MOL0     C  902  10.070   2.191  10.278  0.2973 -0.2428 -1.0701
  765MOL0     C  903  10.128   2.133  10.161 -0.3724 -0.7326 -0.7158
  765MOL0     C  904  10.265   2.108  10.150  1.0121  0.0374  0.2900
  765MOL0     C  905  10.348   2.147  10.254 -1.4944 -0.3373  0.0313
  765MOL0     O  906  10.485   2.135  10.259  0.6611  0.3984  0.2328
  765MOL0     C  907  10.549   2.081  10.147  1.0009  0.4681  0.1068
  765MOL0     C  908  10.703   2.089  10.170  0.2555  0.1099  0.0251
  765MOL0     C  909  10.741   1.969  10.254  0.7673  0.0707 -0.0807
  765MOL0     C  910  10.880   1.991  10.304  0.3851  1.0954 -0.1798
  765MOL0     C  911  10.896   2.112  10.389 -0.1346  0.3668  0.2350
  765MOL0     C  912  10.926   2.208  10.453  1.2053  0.7363  0.4284
  765MOL0     C  913  10.292   2.215  10.360 -0.1041  0.5914 -0.6355
  765MOL0     C  914  10.154   2.220  10.384  0.0488  0.0811 -0.6610
  765MOL0     H  915   9.733   2.193  10.624 -0.9851 -0.5053  0.3911
  765MOL0     H  916   9.503   2.234  10.666  0.4525 -0.9594 -0.2953
  765MOL0     H  917   9.315   2.420  10.654 -0.5100  2.1629 -2.4458
  765MOL0     H  918   9.283   2.246  10.652 -0.3039 -1.1145 -0.6323
  765MOL0     H  919   9.074   2.273  10.531  1.1040 -1.2890  1.5420
  765MOL0     H  920   9.104   2.441  10.519 -0.1068 -1.7221 -2.5317
  765MOL0     H  921   9.090   2.465  10.758  1.9663  0.3123 -1.9458
  765MOL0     H  922   9.040   2.292  10.781  1.8046 -0.0684 -0.1335
  765MOL0     H  923   8.870   2.505  10.645 -0.8198 -0.3948  0.3465
  765MOL0     H  924   8.870   2.331  10.604  2.6037  0.2473 -2.6706
  765MOL0     H  925   8.842   2.453  10.889 -1.3405  0.1526  0.3562
  765MOL0     H  926   8.816   2.278  10.849 -1.9095  0.2963  2.6976
  765MOL0     H  927   8.635   2.350  10.696 -0.1552  0.3729 -1.1459
  765MOL0     H  928   8.647   2.512  10.777 -0.5941 -0.7690 -2.3160
  765MOL0     H  929   8.470   2.391  10.880 -0.5348  1.4549 -0.5951
  765MOL0     H  930   8.577   2.251  10.913 -0.8434 -0.0676 -1.2693
  765MOL0     H  931   8.663   2.541  11.007  1.5154 -1.2924 -1.0132
  765MOL0     H  932   8.675   2.392  11.104 -0.8719  1.0776  0.0900
  765MOL0     H  933   8.476   2.314  11.251  1.6537  0.1166 -0.7484
  765MOL0     H  934   8.214   2.328  11.373  1.1368 -1.7577 -1.4142
  765MOL0     H  935   8.214   2.249  11.222  3.7255 -0.4561  2.6239
  765MOL0     H  936   8.043   2.490  11.276  1.5738 -0.7279 -0.0042
  765MOL0     H  937   7.993   2.313  11.288  3.8948 -3.0788  3.5052
  765MOL0     H  938   8.092   2.433  11.035  2.8851 -4.1333 -0.5560
  765MOL0     H  939   8.035   2.262  11.064 -0.8589  0.2908 -1.1983
  765MOL0     H  940   7.859   2.386  10.957 -0.4406  1.3510 -0.3081
  765MOL0     H  941   7.870   2.520  11.069  0.0454  1.3536 -1.9966
  765MOL0     H  942   7.546   2.341  11.290 -3.2087 -2.8492  2.2953
  765MOL0     H  943   7.360   2.204  11.234  1.4856  0.6668  1.3004
  765MOL0     H  944   7.076   2.183  10.765 -2.6350  0.5231  2.2779
  765MOL0     H  945   6.868   2.078  10.679 -0.3160 -1.7372 -2.2010
  765MOL0     H  946   6.640   1.903  10.570  1.5250 -1.8179 -1.9039
  765MOL0     H  947   6.695   1.952  10.721 -1.8096 -0.4054 -0.1079
  765MOL0     H  948   6.676   1.734  10.829 -0.1401 -1.6810  0.7298
  765MOL0     H  949   6.609   1.654  10.691  0.9184 -0.0846  0.6236
  765MOL0     H  950   6.411   1.821  10.715 -0.6491  2.0220  1.8416
  765MOL0     H  951   6.476   1.865  10.874 -2.1848 -1.7225  2.0853
  765MOL0     H  952   6.436   1.575  10.797 -1.1969  0.0007  0.3254
  765MOL0     H  953   6.442   1.652  10.956 -1.0735  2.3313  0.2150
  765MOL0     H  954   6.218   1.680  10.754 -2.1527  2.6083  0.4424
  765MOL0     H  955   6.240   1.783  10.900 -3.3388 -1.1078 -0.0160
  765MOL0     H  956   6.211   1.588  11.052 -1.0180 -1.3122  0.3969
  765MOL0     H  957   6.230   1.485  10.907 -1.3888  0.8698 -3.4302
  765MOL0     H  958   5.999   1.595  10.817 -2.1703 -2.9143  0.1865
  765MOL0     H  959   5.998   1.482  10.945  0.4034 -0.3091  0.6174
  765MOL0     H  960   5.987   1.788  11.005 -0.0662 -0.9364  1.6458
  765MOL0     H  961   5.991   1.649  11.109 -1.0882 -1.7596 -0.4698
  765MOL0     H  962   7.032   1.694  10.721 -3.1243  0.1400  1.3821
  765MOL0     H  963   7.242   1.799  10.823  3.0252  2.7755  0.4443
  765MOL0     H  964   7.532   2.113  10.845 -1.8981 -0.1346 -0.3614
  765MOL0     H  965   7.725   2.221  10.902 -2.1214  0.2440 -0.9693
  765MOL0     H  966   9.441   2.380  10.267 -1.2939 -1.7256  0.5440
  765MOL0     H  967   9.689   2.360  10.224  1.1068  2.0847  1.5753
  765MOL0     H  968  10.062   2.109  10.078  0.8510 -0.0941 -1.9272
  765MOL0     H  969  10.290   2.062  10.055  0.7766  1.7365 -0.6368
  765MOL0     H  970  10.533   2.150  10.063 -2.8472 -0.2385  0.0839
  765MOL0     H  971  10.512   1.981  10.120  2.9650  0.0258 -1.2016
  765MOL0     H  972  10.764   2.079  10.080  0.4500 -0.7186  0.2382
  765MOL0     H  973  10.720   2.189  10.211  0.7451  0.2376 -0.4829
  765MOL0     H  974  10.733   1.873  10.202 -3.1313  0.3202 -0.2346
  765MOL0     H  975  10.680   1.963  10.344 -0.5710 -1.1962 -1.0336
  765MOL0     H  976  10.916   1.908  10.365 -1.9775  1.4000  1.7983
  765MOL0     H  977  10.938   1.995  10.212  0.0043 -1.4068 -0.5824
  765MOL0     H  978  10.937   2.289  10.523  1.7010  0.3943  0.7612
  765MOL0     H  979  10.360   2.248  10.437  1.4406 -0.9521 -1.2592
  765MOL0     H  980  10.105   2.271  10.466 -1.9060 -1.3244 -0.8693
  766MOL0     O  981   1.630   9.865  11.276  0.1216  0.1452  0.1932
  766MOL0     C  982   1.695   9.915  11.365  0.0188  0.4890 -0.3463
  766MOL0     O  983   1.654  10.017  11.442  0.7994  0.5968 -0.3803
  766MOL0     C  984   1.542  10.088  11.409  0.3558  0.2861 -0.2128
  766MOL0     C  985   1.519  10.166  11.288 -0.1088 -0.9134 -0.5053
  766MOL0     C  986   1.403  10.242  11.276 -0.5978  0.6889  0.1812
  766MOL0     C  987   1.304  10.241  11.372 -1.1674  0.0369 -0.9101
  766MOL0     O  988   1.186  10.302  11.351 -0.2847  0.4693 -0.4538
  766MOL0     C  989   1.188  10.442  11.352  0.3871  1.1576  0.1446
  766MOL0     C  990   1.048  10.505  11.307  0.1350  0.9918  0.1872
  766MOL0     C  991   1.053  10.653  11.339  0.3224 -0.1295  0.6807
  766MOL0     C  992   0.955  10.740  11.256 -0.8590  0.9301  0.1113
  766MOL0     C  993   0.935  10.884  11.303  0.5835  0.0396  0.0175
  766MOL0     C  994   1.056  10.985  11.290  0.3873  0.0693 -0.1467
  766MOL0     C  995   1.001  11.127  11.315 -0.4089 -0.3212 -0.2914
  766MOL0     C  996   1.114  11.233  11.311 -0.0115  0.0389  0.1624
  766MOL0     N  997   1.126  11.268  11.172 -0.4884 -0.2186  0.4136
  766MOL0     C  998   1.031  11.331  11.091  0.1042  0.4477 -0.5058
  766MOL0     C  999   1.085  11.325  10.969  0.0972  0.5057 -0.1622
  766MOL0     C 1000   1.005  11.351  10.844 -0.7254  0.1171  0.7263
  766MOL0     C 1001   0.877  11.262  10.833 -0.8369 -0.0664 -1.3464
  766MOL0     C 1002   0.913  11.118  10.821  0.2822 -0.4691  0.4571
  766MOL0     C 1003   0.790  11.024  10.822 -0.6174  0.6210 -0.2992
  766MOL0     O 1004   0.845  10.895  10.817  0.5286  0.0245  0.2635
  766MOL0     C 1005   0.750  10.788  10.833 -0.7684  0.1385 -0.2031
  766MOL0     C 1006   0.615  10.808  10.861  0.0280 -0.4960  0.6734
  766MOL0     C 1007   0.512  10.714  10.844 -0.1277  1.4517  0.5029
  766MOL0     C 1008   0.557  10.583  10.811 -0.1353 -0.3837 -0.6268
  766MOL0     C 1009   0.454  10.478  10.774  0.2988 -0.8161 -0.3710
  766MOL0     O 1010   0.326  10.518  10.786 -0.7152 -0.6135 -0.2524
  766MOL0     C 1011   0.224  10.435  10.783  0.3005  0.5952 -0.2534
  766MOL0     C 1012   0.142  10.444  10.670 -0.9141  0.2264  0.9447
  766MOL0     C 1013   0.038  10.357  10.660 -0.0913  0.2649 -0.0962
  766MOL0     C 1014   0.015  10.259  10.753  0.0480  0.0632 -0.5269
  766MOL0     O 1015  -0.085  10.169  10.722 -0.5578 -0.2970  0.2350
  766MOL0     C 1016  -0.136  10.058  10.806  0.6408  0.6181  0.9050
  766MOL0     C 1017  -0.255  10.003  10.740  0.7040 -0.1517  0.4013
  766MOL0     C 1018  -0.363  10.105  10.692  0.2892  0.3169 -0.2579
  766MOL0     C 1019  -0.496  10.023  10.672 -0.3588  0.5846 -1.1683
  766MOL0     C 1020  -0.614  10.126  10.645 -0.2160  0.7408  0.9946
  766MOL0     C 1021  -0.745  10.045  10.632  0.0649 -0.2844  0.7651
  766MOL0     C 1022  -0.752  10.000  10.485 -0.1242 -1.1482  0.5170
  766MOL0     C 1023  -0.890   9.950  10.446 -0.3257  0.6416  0.7490
  766MOL0    Cl 1024  -0.905   9.783  10.523 -0.0249  0.3394 -0.0327
  766MOL0     C 1025   0.116  10.232  10.851 -0.2347 -0.3320 -0.3231
  766MOL0     C 1026   0.214  10.327  10.871 -1.0143 -0.2065 -0.3996
  766MOL0     O 1027   0.491  10.363  10.759  0.3280  0.3828 -0.5565
  766MOL0     C 1028   0.702  10.554  10.800  0.5382 -0.1660  0.0739
  766MOL0     C 1029   0.797  10.652  10.812  0.3437 -0.1591  0.5306
  766MOL0     N 1030   1.209  11.264  10.971 -0.2166 -0.0974 -0.0615
  766MOL0     N 1031   1.237  11.240  11.099  0.5055  0.0805  0.5160
  766MOL0     C 1032   1.328  10.160  11.482  0.4066 -0.0996 -0.2598
  766MOL0     C 1033   1.441  10.087  11.497 -1.1477 -0.1988  0.3218
  766MOL0     C 1034   1.828   9.849  11.407  0.0583  1.2192 -0.8291
  766MOL0     C 1035   1.923   9.898  11.500  0.2202  0.0098  0.5831
  766MOL0     C 1036   2.039   9.839  11.540  0.0728  0.2246 -1.0547
  766MOL0     C 1037   2.067   9.709  11.502 -0.3382 -0.3422  0.8412
  766MOL0     O 1038   2.175   9.643  11.542 -0.4321  0.1452  0.0479
  766MOL0     C 1039   2.252   9.694  11.655  0.3867  0.2319  0.7871
  766MOL0     C 1040   2.351   9.600  11.707  1.1530  1.2820 -0.1553
  766MOL0     C 1041   2.271   9.517  11.814  0.7461 -0.1397  0.4086
  766MOL0     C 1042   2.356   9.492  11.928 -1.1385 -0.0424 -1.1409
  766MOL0     C 1043   2.499   9.454  11.897  0.2957  0.2885  0.1595
  766MOL0     C 1044   2.595   9.399  11.861  0.4287  0.1003  0.7564
  766MOL0     C 1045   1.976   9.652  11.403  0.0695  0.3260 -0.5965
  766MOL0     C 1046   1.860   9.717  11.359 -0.2832 -0.9685 -0.4518
  766MOL0     H 1047   1.602  10.173  11.218 -0.7557 -1.4400 -1.3306
  766MOL0     H 1048   1.389  10.298  11.184 -1.1072 -1.4987 -1.1610
  766MOL0     H 1049   1.272  10.482  11.295  2.0317 -0.8033  1.0433
  766MOL0     H 1050   1.194  10.474  11.457 -2.7980 -0.0673  0.8006
  766MOL0     H 1051   0.973  10.440  11.354  0.2392 -0.6810 -1.8003
  766MOL0     H 1052   1.031  10.493  11.199  0.8434 -1.6386  0.2857
  766MOL0     H 1053   1.154  10.693  11.327  0.4016 -0.0128  1.6725
  766MOL0     H 1054   1.029  10.660  11.446  1.4775 -0.3497  0.9653
  766MOL0     H 1055   0.980  10.730  11.150 -1.5211 -1.7074  0.1411
  766MOL0     H 1056   0.859  10.688  11.255 -0.4307  0.0414 -2.5512
  766MOL0     H 1057   0.884  10.883  11.399 -1.5403 -0.0094 -1.0588
  766MOL0     H 1058   0.867  10.933  11.233  1.6843  1.8705  0.1478
  766MOL0     H 1059   1.102  10.977  11.191  0.4029 -1.4843 -0.0311
  766MOL0     H 1060   1.126  10.954  11.368 -1.0198 -2.4200  0.2344
  766MOL0     H 1061   0.921  11.160  11.248 -1.5997 -2.0821  0.2098
  766MOL0     H 1062   0.956  11.139  11.414 -0.5081 -1.5453 -0.1733
  766MOL0     H 1063   1.200  11.182  11.356 -0.0161  1.1904  1.5398
  766MOL0     H 1064   1.093  11.331  11.356 -2.0160  0.7401 -2.0983
  766MOL0     H 1065   0.931  11.361  11.118  0.7911  1.8798  0.5703
  766MOL0     H 1066   1.066  11.327  10.757 -0.9179  0.9185  0.3606
  766MOL0     H 1067   0.981  11.457  10.832 -1.2742 -0.0681  0.1179
  766MOL0     H 1068   0.824  11.305  10.748  3.2453  2.5032 -2.9263
  766MOL0     H 1069   0.814  11.283  10.920 -0.7541  0.9226 -1.5144
  766MOL0     H 1070   0.959  11.111  10.722  1.6128  1.7285  0.8395
  766MOL0     H 1071   0.987  11.095  10.898  3.0101 -0.4147 -1.9977
  766MOL0     H 1072   0.723  11.028  10.735 -0.0220 -4.3111 -1.2778
  766MOL0     H 1073   0.743  11.036  10.920 -1.6211 -2.2536 -0.3228
  766MOL0     H 1074   0.576  10.906  10.888  3.9910  0.6666  2.9677
  766MOL0     H 1075   0.408  10.738  10.825 -0.9856 -0.2500  2.6326
  766MOL0     H 1076   0.168  10.512  10.590 -0.1164  1.1476  1.9665
  766MOL0     H 1077  -0.024  10.358  10.570  0.7489  0.8306 -0.6893
  766MOL0     H 1078  -0.162  10.102  10.903 -1.5206 -0.0426  0.6608
  766MOL0     H 1079  -0.067   9.975  10.822 -0.0138  0.0781  0.9645
  766MOL0     H 1080  -0.311   9.932  10.802 -0.6240  0.5598  0.0562
  766MOL0     H 1081  -0.216   9.952  10.651  4.0151  0.0247  1.6185
  766MOL0     H 1082  -0.327  10.169  10.611 -0.4776  3.3196  1.6275
  766MOL0     H 1083  -0.377  10.170  10.779  2.9728 -1.7459  1.9248
  766MOL0     H 1084  -0.488   9.950  10.590  0.7372  0.9498 -1.4015
  766MOL0     H 1085  -0.516   9.971  10.766  2.5224  0.4072 -0.5642
  766MOL0     H 1086  -0.605  10.186  10.555 -0.1293  0.1644  0.6170
  766MOL0     H 1087  -0.607  10.194  10.731 -0.7480  0.9524  0.8752
  766MOL0     H 1088  -0.824  10.116  10.657 -1.8885 -2.6296  1.6095
  766MOL0     H 1089  -0.742   9.956  10.696  0.0125 -1.0558 -0.2740
  766MOL0     H 1090  -0.734  10.089  10.424  1.3958 -1.9908 -0.3367
  766MOL0     H 1091  -0.676   9.923  10.464 -0.0469 -0.7835 -0.6006
  766MOL0     H 1092  -0.891   9.931  10.338  1.4865 -2.2618  1.1284
  766MOL0     H 1093  -0.972  10.015  10.477  0.3187  0.6989  2.4435
  766MOL0     H 1094   0.105  10.144  10.914 -1.7727 -1.3122 -1.8634
  766MOL0     H 1095   0.293  10.323  10.946 -0.0708  2.5028 -1.1280
  766MOL0     H 1096   0.732  10.455  10.768  0.1196 -0.6613  1.1690
  766MOL0     H 1097   0.896  10.625  10.776 -0.1399 -0.2356 -0.8096
  766MOL0     H 1098   1.254  10.137  11.557 -0.8068 -3.4707 -2.2741
  766MOL0     H 1099   1.452  10.013  11.576  2.3302  0.2566  0.4544
  766MOL0     H 1100   1.880   9.993  11.530 -2.1879 -0.6225 -0.5655
  766MOL0     H 1101   2.108   9.887  11.607 -1.8374  0.3363  0.9379
  766MOL0     H 1102   2.192   9.742  11.733 -1.6921 -0.8938 -0.0622
  766MOL0     H 1103   2.305   9.782  11.617 -0.8123  0.1921 -1.0905
  766MOL0     H 1104   2.383   9.525  11.634  2.1749  0.1524  1.3864
  766MOL0     H 1105   2.440   9.658  11.734  0.9780  1.2568  0.4946
  766MOL0     H 1106   2.253   9.418  11.770  1.0560 -0.0477  0.0720
  766MOL0     H 1107   2.176   9.561  11.847 -0.1797  0.8965 -3.1187
  766MOL0     H 1108   2.364   9.586  11.983  0.3148 -0.6477 -0.2721
  766MOL0     H 1109   2.319   9.414  11.996 -0.4145  0.1244 -0.5497
  766MOL0     H 1110   2.680   9.344  11.827 -0.0891 -1.2425  1.5710
  766MOL0     H 1111   1.986   9.549  11.370 -1.0540  0.4723 -1.4510
  766MOL0     H 1112   1.791   9.687  11.281 -0.4360  1.1029 -1.1861
  767MOL0     O 1113   8.089   5.050  11.122 -0.1139 -0.7049  0.0649
  767MOL0     C 1114   8.148   5.073  11.225 -0.7125  0.2012 -0.4159
  767MOL0     O 1115   8.099   5.132  11.333  0.0438  0.3322  0.1959
  767MOL0     C 1116   7.981   5.198  11.333  0.2744 -0.0858 -0.6287
  767MOL0     C 1117   7.993   5.309  11.423 -0.6931 -0.5692 -0.5066
  767MOL0     C 1118   7.887   5.397  11.434 -0.5360 -0.0417  0.0389
  767MOL0     C 1119   7.761   5.375  11.366 -0.1975  0.0364  0.9236
  767MOL0     O 1120   7.660   5.461  11.381  0.3181 -0.8030  0.1577
  767MOL0     C 1121   7.635   5.547  11.259  0.2418  1.1320  0.9070
  767MOL0     C 1122   7.494   5.516  11.205 -1.1557  0.5706  0.3581
  767MOL0     C 1123   7.395   5.556  11.304 -0.1423 -0.1913  0.1618
  767MOL0     C 1124   7.253   5.551  11.247 -0.7093  0.0124 -0.7358
  767MOL0     C 1125   7.193   5.692  11.232  0.3703  0.3217 -1.3953
  767MOL0     C 1126   7.078   5.696  11.128 -0.0468 -1.0468  0.5339
  767MOL0     C 1127   7.029   5.837  11.092 -0.0834  0.0556 -0.3160
  767MOL0     C 1128   6.917   5.833  10.986  0.1057 -0.6199  0.4563
  767MOL0     N 1129   6.797   5.782  11.041 -0.5032 -0.1915 -0.0552
  767MOL0     C 1130   6.714   5.844  11.135  0.3184 -0.4774 -0.4754
  767MOL0     C 1131   6.616   5.753  11.157  0.4549  0.2150  0.2631
  767MOL0     C 1132   6.498   5.774  11.249  0.9079  0.1250 -0.6501
  767MOL0     C 1133   6.497   5.648  11.331  0.1607 -1.2032  0.1034
  767MOL0     C 1134   6.396   5.669  11.448 -0.0348 -0.7736 -0.1400
  767MOL0     C 1135   6.255   5.668  11.410  0.6070  0.1323 -0.0205
  767MOL0     O 1136   6.172   5.687  11.527 -0.3056 -0.2202 -0.1133
  767MOL0     C 1137   6.033   5.696  11.507 -0.5243  0.3486  0.0280
  767MOL0     C 1138   5.963   5.679  11.621  0.0176 -0.8392 -0.2335
  767MOL0     C 1139   5.831   5.711  11.629  0.8186  0.8539  1.1450
  767MOL0     C 1140   5.770   5.779  11.518 -0.8352 -0.4062 -0.5922
  767MOL0     C 1141   5.634   5.830  11.521 -0.2673  0.0214  0.3180
  767MOL0     O 1142   5.575   5.880  11.408 -0.1992  0.0711 -0.0687
  767MOL0     C 1143   5.449   5.922  11.418 -0.1617 -0.5436 -0.5984
  767MOL0     C 1144   5.389   5.999  11.519 -0.4776 -0.2453  0.4954
  767MOL0     C 1145   5.254   6.045  11.511 -0.3743 -0.4750 -0.3597
  767MOL0     C 1146   5.180   6.020  11.393  0.5126 -0.0137  0.3547
  767MOL0     O 1147   5.052   6.077  11.392 -0.7679 -0.1748  0.0668
  767MOL0     C 1148   4.976   6.078  11.268 -0.6117 -0.0717 -0.2692
  767MOL0     C 1149   4.837   6.107  11.287  0.7749  0.1585 -0.6832
  767MOL0     C 1150   4.767   6.115  11.151  0.1006  0.5487  0.5561
  767MOL0     C 1151   4.614   6.145  11.181 -1.2813 -0.7245 -0.8578
  767MOL0     C 1152   4.541   6.156  11.037 -1.2329  0.9652  0.5485
  767MOL0     C 1153   4.389   6.139  11.053 -0.0874 -0.3100 -0.5757
  767MOL0     C 1154   4.332   6.264  11.126  0.1191  0.9079  1.1128
  767MOL0     C 1155   4.213   6.246  11.214  0.1906  0.3820  1.1474
  767MOL0    Cl 1156   4.077   6.209  11.108  0.0395  0.4239 -0.5361
  767MOL0     C 1157   5.237   5.946  11.296  0.7176  0.2357  0.0511
  767MOL0     C 1158   5.370   5.897  11.300 -0.4898 -0.2638 -0.0777
  767MOL0     O 1159   5.577   5.825  11.628 -0.2710  0.3153  0.0535
  767MOL0     C 1160   5.848   5.803  11.406  0.4196 -0.3494 -0.3370
  767MOL0     C 1161   5.979   5.758  11.400  0.1452 -0.8533  0.5065
  767MOL0     N 1162   6.632   5.647  11.076 -0.9875  0.0445 -0.7248
  767MOL0     N 1163   6.743   5.656  11.014  0.1501  0.6914 -0.6743
  767MOL0     C 1164   7.744   5.261  11.287 -0.5492  0.5181 -0.5578
  767MOL0     C 1165   7.855   5.176  11.273 -0.3345 -0.0517  0.1590
  767MOL0     C 1166   8.285   5.008  11.224  0.4683  0.5376  0.1209
  767MOL0     C 1167   8.361   5.003  11.345  0.1398 -0.0240 -0.2393
  767MOL0     C 1168   8.490   4.952  11.356  0.0289  1.0491 -0.6341
  767MOL0     C 1169   8.553   4.902  11.236  0.3582  0.1282  0.3629
  767MOL0     O 1170   8.686   4.863  11.247  0.1417  0.2676  0.8049
  767MOL0     C 1171   8.749   4.783  11.145  0.0697  0.3891 -0.3599
  767MOL0     C 1172   8.833   4.877  11.054 -0.0476  0.1040  0.5330
  767MOL0     C 1173   8.874   4.813  10.915 -0.0046 -0.2268 -0.5408
  767MOL0     C 1174   8.761   4.804  10.812 -0.0296 -0.6165  0.7166
  767MOL0     C 1175   8.733   4.942  10.758  0.4284  0.3929  0.0391
  767MOL0     C 1176   8.715   5.052  10.714 -0.3594 -1.1208 -0.0080
  767MOL0     C 1177   8.480   4.901  11.114 -0.0718  0.0268 -0.0575
  767MOL0     C 1178   8.351   4.959  11.108 -0.1285 -0.4367 -1.0200
  767MOL0     H 1179   8.083   5.329  11.481 -2.1699 -1.5385  2.2747
  767MOL0     H 1180   7.900   5.471  11.512  0.6751  0.2493 -0.4260
  767MOL0     H 1181   7.716   5.522  11.189 -0.6567  2.1546 -0.5517
  767MOL0     H 1182   7.648   5.652  11.286  0.9193  1.7864 -1.6604
  767MOL0     H 1183   7.493   5.412  11.172 -0.1283  1.1411 -1.6730
  767MOL0     H 1184   7.486   5.575  11.113  1.0303  0.5925  0.1340
  767MOL0     H 1185   7.416   5.653  11.349 -1.4004  1.1489 -1.9503
  767MOL0     H 1186   7.392   5.484  11.387 -0.3131  1.7376  1.9198
  767MOL0     H 1187   7.263   5.502  11.149 -1.8847 -3.3737  0.6862
  767MOL0     H 1188   7.185   5.487  11.303  0.4187 -1.1250 -0.6106
  767MOL0     H 1189   7.276   5.756  11.202  2.2984 -1.9440 -1.1545
  767MOL0     H 1190   7.154   5.710  11.333  1.7312 -2.2283 -0.3203
  767MOL0     H 1191   6.994   5.637  11.167  0.3234 -1.7252  0.3169
  767MOL0     H 1192   7.105   5.645  11.036 -2.1418 -0.2586 -0.5822
  767MOL0     H 1193   6.991   5.894  11.177 -0.2351  1.2419 -1.1517
  767MOL0     H 1194   7.118   5.884  11.049 -2.6815  5.4860 -0.6102
  767MOL0     H 1195   6.948   5.769  10.903  1.6676  1.3641 -0.5755
  767MOL0     H 1196   6.898   5.928  10.935 -1.4800 -1.5989 -0.9189
  767MOL0     H 1197   6.731   5.942  11.176  0.4682 -0.0736 -1.4740
  767MOL0     H 1198   6.406   5.781  11.191  0.1703  2.6134  0.6659
  767MOL0     H 1199   6.511   5.860  11.315 -2.9927  1.2536 -1.1189
  767MOL0     H 1200   6.593   5.619  11.374 -1.2957 -2.4077  2.8535
  767MOL0     H 1201   6.461   5.557  11.283 -2.2073 -0.4092  0.2446
  767MOL0     H 1202   6.411   5.588  11.520 -1.9945 -2.0893 -1.1128
  767MOL0     H 1203   6.408   5.765  11.501  1.7251 -1.1808  0.2507
  767MOL0     H 1204   6.241   5.573  11.358 -1.0406  0.0339  0.5180
  767MOL0     H 1205   6.237   5.751  11.341 -0.2469  0.9977  1.1984
  767MOL0     H 1206   6.010   5.636  11.710  0.8437  0.7817  0.1450
  767MOL0     H 1207   5.787   5.713  11.728 -1.4528  0.9210  0.1979
  767MOL0     H 1208   5.449   6.026  11.605 -0.5154 -0.0903  0.4736
  767MOL0     H 1209   5.214   6.106  11.591  1.3010 -1.8431  1.6391
  767MOL0     H 1210   4.982   5.987  11.208 -0.1322  0.6253 -1.3060
  767MOL0     H 1211   5.022   6.160  11.212 -1.6621  0.8195  0.1359
  767MOL0     H 1212   4.817   6.199  11.344 -0.8625 -0.7700  0.3241
  767MOL0     H 1213   4.787   6.031  11.348 -0.7205  0.4288 -1.5236
  767MOL0     H 1214   4.762   6.023  11.092 -1.0172  0.9136  0.0392
  767MOL0     H 1215   4.811   6.185  11.079 -0.4713 -3.0854 -3.8182
  767MOL0     H 1216   4.570   6.070  11.247  0.4204 -0.8712  0.1864
  767MOL0     H 1217   4.611   6.247  11.220 -0.3815 -0.4760 -1.4113
  767MOL0     H 1218   4.574   6.075  10.971 -0.1043  1.6180  0.2774
  767MOL0     H 1219   4.550   6.253  10.987 -1.5803  1.6717  1.8211
  767MOL0     H 1220   4.370   6.048  11.112 -3.5676  0.3070 -0.5130
  767MOL0     H 1221   4.344   6.132  10.954 -0.8568 -2.3285 -0.1525
  767MOL0     H 1222   4.406   6.317  11.187  0.8179 -0.9160  1.9036
  767MOL0     H 1223   4.299   6.330  11.046 -0.5806 -0.9405 -0.1850
  767MOL0     H 1224   4.186   6.340  11.263 -1.6629 -0.9399  2.8547
  767MOL0     H 1225   4.228   6.159  11.280  1.2422 -2.4220 -2.4629
  767MOL0     H 1226   5.185   5.913  11.206  0.7034 -0.6490  0.3682
  767MOL0     H 1227   5.410   5.859  11.207 -0.1199  0.9293 -0.4106
  767MOL0     H 1228   5.818   5.856  11.316  2.0236  1.7513  0.2796
  767MOL0     H 1229   6.035   5.783  11.310 -2.9658  1.9136 -0.8724
  767MOL0     H 1230   7.654   5.240  11.230 -0.2833 -0.1012 -0.7578
  767MOL0     H 1231   7.849   5.085  11.213  1.0770  0.0589 -0.2012
  767MOL0     H 1232   8.317   5.055  11.430 -0.6194 -0.1474 -0.5495
  767MOL0     H 1233   8.554   4.951  11.443  0.0131  1.5202 -0.6156
  767MOL0     H 1234   8.670   4.725  11.097 -0.8690  2.2823 -1.1707
  767MOL0     H 1235   8.818   4.712  11.193 -2.9070 -2.1951  0.4607
  767MOL0     H 1236   8.778   4.969  11.036 -0.1847  0.4746  2.6328
  767MOL0     H 1237   8.925   4.909  11.104  0.1043  0.8170 -0.1760
  767MOL0     H 1238   8.930   4.719  10.921  0.3036 -0.2079 -2.3986
  767MOL0     H 1239   8.945   4.884  10.873  0.8274 -0.6542  0.1126
  767MOL0     H 1240   8.789   4.740  10.728  0.1498 -0.9602  1.0340
  767MOL0     H 1241   8.671   4.756  10.852 -3.5754  1.8020 -3.4176
  767MOL0     H 1242   8.718   5.156  10.690  2.3510 -1.5268 -1.9355
  767MOL0     H 1243   8.517   4.871  11.017  0.4546  1.1638 -0.2291
  767MOL0     H 1244   8.302   4.959  11.011 -0.8986  1.5966 -0.6707
  768MOL0     O 1245   1.843   0.901   5.961  0.4484 -0.0007  0.7398
  768MOL0     C 1246   1.883   0.934   6.073  0.3276 -0.1803  0.2271
  768MOL0     O 1247   1.800   0.954   6.185 -0.9201 -0.7397 -0.3662
  768MOL0     C 1248   1.669   0.926   6.196  0.2263 -0.6765 -0.2432
  768MOL0     C 1249   1.573   0.948   6.099 -0.0534  0.0579  0.2552
  768MOL0     C 1250   1.436   0.920   6.117 -0.4335  0.5931  0.3892
  768MOL0     C 1251   1.386   0.887   6.249 -0.4517 -0.9239  0.3890
  768MOL0     O 1252   1.250   0.856   6.279 -0.6297 -0.1343 -0.1016
  768MOL0     C 1253   1.139   0.901   6.211 -0.4485 -0.3991  0.4657
  768MOL0     C 1254   1.022   0.819   6.258  0.7781 -0.6096  0.1436
  768MOL0     C 1255   0.962   0.847   6.394 -0.7181  0.3899  0.5203
  768MOL0     C 1256   0.832   0.773   6.410  0.0915  1.1443 -0.1825
  768MOL0     C 1257   0.783   0.787   6.559  0.5517  0.7067 -0.3330
  768MOL0     C 1258   0.663   0.689   6.579 -1.1023 -0.5156 -0.0769
  768MOL0     C 1259   0.711   0.543   6.603 -0.4261  0.6229  0.9918
  768MOL0     C 1260   0.597   0.449   6.640  0.1950 -0.1875 -0.1175
  768MOL0     N 1261   0.514   0.503   6.750 -0.1964  0.4487 -0.4581
  768MOL0     C 1262   0.411   0.591   6.745 -0.2274  0.4092 -0.3724
  768MOL0     C 1263   0.383   0.611   6.883  0.4588  0.2011  0.7287
  768MOL0     C 1264   0.269   0.689   6.943 -0.0802 -0.6065  0.8258
  768MOL0     C 1265   0.144   0.600   6.971  0.3756 -0.9936 -0.1767
  768MOL0     C 1266   0.069   0.548   6.850  0.2878 -0.2162 -0.0877
  768MOL0     C 1267  -0.070   0.499   6.867  0.2173  0.3462  0.8363
  768MOL0     O 1268  -0.151   0.595   6.929  0.1778 -0.9000  0.2367
  768MOL0     C 1269  -0.280   0.560   6.944  0.1147 -0.4999 -1.1084
  768MOL0     C 1270  -0.366   0.659   6.992 -0.0158 -0.3882  0.1784
  768MOL0     C 1271  -0.489   0.623   7.037  0.7787  0.4055  0.4724
  768MOL0     C 1272  -0.542   0.491   7.029  0.1520 -0.3303  0.4219
  768MOL0     C 1273  -0.691   0.459   7.053 -0.4365 -1.2246 -0.1376
  768MOL0     O 1274  -0.748   0.343   7.009  0.1073  1.2495 -0.5546
  768MOL0     C 1275  -0.885   0.334   7.019 -0.1529  1.0826 -0.7194
  768MOL0     C 1276  -0.959   0.290   7.130 -0.2304  0.6049  0.0580
  768MOL0     C 1277  -1.095   0.266   7.123  0.7897 -0.0976  0.1044
  768MOL0     C 1278  -1.164   0.304   7.011 -0.3862  0.2299  0.8761
  768MOL0     O 1279  -1.299   0.294   7.006  0.4285  0.3382 -0.3792
  768MOL0     C 1280  -1.346   0.157   7.014  0.1293  0.4013  0.1402
  768MOL0     C 1281  -1.436   0.120   6.902  1.2245  0.0168 -0.1370
  768MOL0     C 1282  -1.590   0.161   6.935 -1.5397  0.3537  0.0318
  768MOL0     C 1283  -1.671   0.146   6.812 -0.3741 -1.2733  0.1847
  768MOL0     C 1284  -1.813   0.219   6.819  0.2274 -0.5139  0.8382
  768MOL0     C 1285  -1.903   0.193   6.939  1.0694  0.9169 -0.0458
  768MOL0     C 1286  -2.057   0.235   6.913 -0.9032  0.3603  0.0463
  768MOL0     C 1287  -2.128   0.265   7.039 -1.0701 -0.3285  0.3228
  768MOL0    Cl 1288  -2.099   0.165   7.177  0.0671  0.2472  0.2245
  768MOL0     C 1289  -1.096   0.352   6.900  0.2398 -0.6305  0.8142
  768MOL0     C 1290  -0.954   0.359   6.905  0.5752  0.2710 -0.1065
  768MOL0     O 1291  -0.759   0.557   7.095  0.1527  0.5993 -0.0838
  768MOL0     C 1292  -0.460   0.393   6.982 -0.2439 -0.3360  1.5577
  768MOL0     C 1293  -0.331   0.428   6.944  0.5836  0.8009 -0.0193
  768MOL0     N 1294   0.473   0.546   6.956  0.4247 -0.6587  0.4901
  768MOL0     N 1295   0.551   0.479   6.876 -1.0155  0.0260  0.3148
  768MOL0     C 1296   1.483   0.873   6.346  0.4307 -0.2280 -0.7132
  768MOL0     C 1297   1.623   0.885   6.328 -0.3452  0.2420 -0.6933
  768MOL0     C 1298   2.026   0.937   6.092  0.2417 -0.5990 -0.2893
  768MOL0     C 1299   2.127   0.932   5.993 -0.3984 -0.2163  0.0882
  768MOL0     C 1300   2.263   0.936   6.034  0.2840 -0.0375  0.8661
  768MOL0     C 1301   2.312   0.937   6.167  0.2211  1.0442  0.1813
  768MOL0     O 1302   2.453   0.945   6.196  0.1331 -0.5678 -0.2702
  768MOL0     C 1303   2.475   0.949   6.339 -0.0669 -0.3087 -0.5455
  768MOL0     C 1304   2.626   0.963   6.372  0.2863  0.2585  0.6143
  768MOL0     C 1305   2.708   0.842   6.321  0.2642  0.3248  0.5046
  768MOL0     C 1306   2.842   0.852   6.392 -0.8779 -0.7291  0.1307
  768MOL0     C 1307   2.912   0.976   6.365 -0.4204 -1.0368 -0.5160
  768MOL0     C 1308   2.969   1.090   6.350  0.0682  0.4511  0.3712
  768MOL0     C 1309   2.209   0.937   6.267 -0.6920 -0.3141  0.1055
  768MOL0     C 1310   2.074   0.940   6.228 -0.6729  0.7030 -0.1647
  768MOL0     H 1311   1.602   0.974   5.998  3.7185  1.0294  1.4359
  768MOL0     H 1312   1.376   0.903   6.028  0.5714 -2.2741  0.1635
  768MOL0     H 1313   1.144   0.899   6.102 -0.8783  3.4301  0.2115
  768MOL0     H 1314   1.113   1.006   6.232 -0.0171  0.3627 -2.3519
  768MOL0     H 1315   1.051   0.714   6.253 -1.2465 -1.1539 -2.4471
  768MOL0     H 1316   0.946   0.831   6.181  1.9240  0.9003 -0.8152
  768MOL0     H 1317   0.932   0.952   6.394 -0.6868  0.3994  0.2233
  768MOL0     H 1318   1.040   0.825   6.467  1.0307  1.8048 -0.8226
  768MOL0     H 1319   0.767   0.825   6.339 -0.3605  0.3530 -0.3568
  768MOL0     H 1320   0.852   0.672   6.376 -1.8988  0.8494 -0.6034
  768MOL0     H 1321   0.742   0.887   6.571  0.6243  1.0450 -2.3960
  768MOL0     H 1322   0.874   0.780   6.620  0.9393  2.1406 -0.7193
  768MOL0     H 1323   0.585   0.704   6.503  1.0589  2.4779 -1.9011
  768MOL0     H 1324   0.630   0.709   6.682 -2.5474 -3.1330  0.0514
  768MOL0     H 1325   0.753   0.505   6.510  1.7850 -2.3554  3.0005
  768MOL0     H 1326   0.792   0.540   6.676  0.5630  0.4424 -0.0857
  768MOL0     H 1327   0.645   0.364   6.688  3.0271  0.8837 -0.8585
  768MOL0     H 1328   0.543   0.418   6.550 -0.8717  0.8643  0.1343
  768MOL0     H 1329   0.356   0.614   6.654 -0.8587 -4.0740 -1.3566
  768MOL0     H 1330   0.245   0.776   6.881 -1.8104 -0.1329  2.1154
  768MOL0     H 1331   0.314   0.724   7.036  0.4186 -2.1805  1.2090
  768MOL0     H 1332   0.079   0.663   7.032  0.4506 -1.2719  0.1996
  768MOL0     H 1333   0.175   0.518   7.037  0.4795  0.0183  1.0627
  768MOL0     H 1334   0.059   0.632   6.781  2.1613  1.5087  1.6040
  768MOL0     H 1335   0.132   0.473   6.801 -0.5105  0.2431 -1.9045
  768MOL0     H 1336  -0.068   0.407   6.926 -1.3013  0.3441  0.9260
  768MOL0     H 1337  -0.103   0.471   6.767 -0.2336  0.1858  1.0262
  768MOL0     H 1338  -0.331   0.762   6.998  1.7932 -0.9575  0.0636
  768MOL0     H 1339  -0.561   0.693   7.079  0.2048 -0.8365  1.6315
  768MOL0     H 1340  -0.917   0.251   7.222 -1.0187 -3.1488 -0.9869
  768MOL0     H 1341  -1.154   0.233   7.208 -1.7662 -0.1942 -1.5804
  768MOL0     H 1342  -1.396   0.137   7.109 -0.4936  0.4963 -0.1640
  768MOL0     H 1343  -1.261   0.090   6.994 -0.4803 -0.5359  0.5947
  768MOL0     H 1344  -1.425   0.012   6.886 -0.1204  0.1183 -2.1761
  768MOL0     H 1345  -1.410   0.182   6.816 -0.8529 -0.5772 -1.2830
  768MOL0     H 1346  -1.579   0.266   6.961  0.6211 -0.1516  1.3864
  768MOL0     H 1347  -1.620   0.088   7.012  0.5983 -0.4081  0.1916
  768MOL0     H 1348  -1.609   0.172   6.726 -2.5714  1.3105 -0.7736
  768MOL0     H 1349  -1.696   0.042   6.789  2.4067 -1.6837 -1.3897
  768MOL0     H 1350  -1.862   0.191   6.725  0.7136 -0.5005  0.5784
  768MOL0     H 1351  -1.803   0.328   6.813 -0.9502 -0.4517 -1.1275
  768MOL0     H 1352  -1.871   0.242   7.032 -1.2702  0.4076  1.1003
  768MOL0     H 1353  -1.905   0.088   6.970  0.0927  1.4721  1.9644
  768MOL0     H 1354  -2.067   0.310   6.834 -0.2133  0.4763  0.0627
  768MOL0     H 1355  -2.095   0.135   6.888  0.2417 -0.0614 -0.0855
  768MOL0     H 1356  -2.234   0.275   7.016 -1.1261 -2.2992 -0.5756
  768MOL0     H 1357  -2.093   0.367   7.054 -2.4870  0.6936 -2.5230
  768MOL0     H 1358  -1.142   0.391   6.810  1.1953  1.6463  1.2386
  768MOL0     H 1359  -0.900   0.401   6.821  0.2033  5.0630  1.7610
  768MOL0     H 1360  -0.504   0.294   6.980 -3.3284  0.9499  0.3287
  768MOL0     H 1361  -0.280   0.342   6.903  1.2082 -0.7519  3.6870
  768MOL0     H 1362   1.445   0.843   6.444  0.4399 -0.4098 -0.7653
  768MOL0     H 1363   1.694   0.877   6.410 -2.3114  0.2627  1.0887
  768MOL0     H 1364   2.097   0.924   5.890  0.2326  1.4368 -0.2558
  768MOL0     H 1365   2.339   0.944   5.957 -0.9229  2.5906 -0.2020
  768MOL0     H 1366   2.442   0.854   6.381  1.3233 -0.4116  0.4047
  768MOL0     H 1367   2.414   1.022   6.393  1.2545 -0.4237  1.1822
  768MOL0     H 1368   2.654   1.054   6.318 -2.3676  0.7727 -0.0403
  768MOL0     H 1369   2.645   0.973   6.480  0.9574 -2.6619  0.8368
  768MOL0     H 1370   2.717   0.843   6.212  1.9975 -1.0289  0.5898
  768MOL0     H 1371   2.657   0.752   6.356  2.8791 -1.8277 -0.8214
  768MOL0     H 1372   2.820   0.852   6.499 -0.8995  2.7062  0.2543
  768MOL0     H 1373   2.915   0.771   6.379 -0.8037 -0.6132 -0.1751
  768MOL0     H 1374   3.036   1.173   6.360  1.3488 -0.6378  1.3704
  768MOL0     H 1375   2.225   0.921   6.373  1.8507 -0.3090 -0.2189
  768MOL0     H 1376   2.006   0.934   6.312 -0.0307  2.6277  0.5419
  769MOL0     O 1377  10.235   9.295   9.733  0.0304  0.2651 -0.7260
  769MOL0     C 1378  10.275   9.399   9.787  0.1039  0.3318  0.0100
  769MOL0     O 1379  10.191   9.487   9.851  0.0900  0.1778  0.2244
  769MOL0     C 1380  10.061   9.441   9.861 -0.0889  0.1548 -0.1179
  769MOL0     C 1381   9.963   9.495   9.774 -0.0285 -0.0999 -0.6561
  769MOL0     C 1382   9.831   9.438   9.776 -0.5856  0.5903 -0.1384
  769MOL0     C 1383   9.786   9.340   9.863  0.0935  0.1246  0.3034
  769MOL0     O 1384   9.662   9.279   9.855 -0.0683  1.1309 -0.7349
  769MOL0     C 1385   9.555   9.328   9.774 -0.7095 -0.4958 -0.3541
  769MOL0     C 1386   9.449   9.223   9.756 -0.1541 -0.1264 -0.0681
  769MOL0     C 1387   9.366   9.269   9.638  0.7861 -0.5673  0.4773
  769MOL0     C 1388   9.256   9.167   9.621  0.5403 -1.8506 -0.2582
  769MOL0     C 1389   9.184   9.204   9.495  0.1282 -0.1868 -0.6704
  769MOL0     C 1390   9.069   9.102   9.472  0.3402  0.3886  0.0715
  769MOL0     C 1391   8.984   9.146   9.366  0.0465 -0.4741  0.3978
  769MOL0     C 1392   8.873   9.044   9.318 -0.0984  0.6220 -0.7624
  769MOL0     N 1393   8.764   9.095   9.230 -0.4983 -0.7885  0.0508
  769MOL0     C 1394   8.634   9.110   9.282  0.1751 -0.0346  0.3490
  769MOL0     C 1395   8.572   9.175   9.178  0.7935 -0.9366 -0.3120
  769MOL0     C 1396   8.419   9.213   9.162 -0.1404  0.7102  0.7207
  769MOL0     C 1397   8.349   9.112   9.072  0.2028  0.4544 -0.5844
  769MOL0     C 1398   8.358   8.968   9.124  0.3170 -0.7123 -0.3150
  769MOL0     C 1399   8.311   8.955   9.269  0.5979  0.4782 -0.2816
  769MOL0     O 1400   8.172   8.985   9.286  0.2720  0.1612 -0.1755
  769MOL0     C 1401   8.081   8.881   9.253 -0.0185  0.3556  0.4654
  769MOL0     C 1402   7.991   8.897   9.148 -0.2188  0.0040 -0.1868
  769MOL0     C 1403   7.884   8.813   9.120  0.3221  0.0221  0.1156
  769MOL0     C 1404   7.875   8.691   9.181 -0.0484 -0.6942  0.4142
  769MOL0     C 1405   7.775   8.594   9.134 -1.2165 -0.5395  0.0059
  769MOL0     O 1406   7.686   8.642   9.047  0.9612  0.4535  0.3730
  769MOL0     C 1407   7.585   8.572   8.986 -0.5322  0.0954 -0.5053
  769MOL0     C 1408   7.531   8.636   8.870  0.7730  0.1417  0.1982
  769MOL0     C 1409   7.409   8.576   8.806 -0.6775 -0.1897 -0.5403
  769MOL0     C 1410   7.353   8.461   8.865 -1.0180 -1.2260 -1.0671
  769MOL0     O 1411   7.233   8.407   8.830  0.3956  0.8933  0.2607
  769MOL0     C 1412   7.193   8.402   8.691 -0.5234  0.3709 -0.2258
  769MOL0     C 1413   7.048   8.350   8.680  0.1663 -0.1829  0.2027
  769MOL0     C 1414   6.952   8.457   8.732  0.4374  0.4832 -0.5308
  769MOL0     C 1415   6.817   8.412   8.722  0.4926 -0.5795  0.4775
  769MOL0     C 1416   6.710   8.522   8.748 -0.0089 -0.0112 -0.2943
  769MOL0     C 1417   6.579   8.454   8.766  0.1051  0.5607 -0.1328
  769MOL0     C 1418   6.506   8.557   8.852  0.0230  0.3195  0.5413
  769MOL0     C 1419   6.382   8.601   8.782  0.6353 -0.2806 -0.0675
  769MOL0    Cl 1420   6.285   8.718   8.878 -0.4447 -0.7055  0.0288
  769MOL0     C 1421   7.419   8.398   8.974 -0.4410  0.3676 -0.0077
  769MOL0     C 1422   7.530   8.457   9.035  0.4757 -0.3123 -0.3563
  769MOL0     O 1423   7.790   8.477   9.171  0.6757  0.2515  0.1538
  769MOL0     C 1424   7.974   8.662   9.279  0.1861  0.6496  0.8393
  769MOL0     C 1425   8.071   8.755   9.312 -0.7848 -0.7239  0.4837
  769MOL0     N 1426   8.668   9.210   9.082 -0.5606  0.0153  0.1493
  769MOL0     N 1427   8.779   9.156   9.114 -0.5762  0.4017  0.0276
  769MOL0     C 1428   9.891   9.283   9.945 -0.7753  0.3342 -0.1582
  769MOL0     C 1429  10.022   9.329   9.938 -0.2888  0.3989  0.0277
  769MOL0     C 1430  10.422   9.438   9.777  0.4329  0.0201  0.1057
  769MOL0     C 1431  10.470   9.548   9.853  0.7233 -0.2538  1.1607
  769MOL0     C 1432  10.604   9.586   9.841 -0.5331  0.1009 -0.3959
  769MOL0     C 1433  10.696   9.509   9.764 -0.4087  0.1306  0.3120
  769MOL0     O 1434  10.821   9.568   9.754 -0.1856 -0.2965  0.0869
  769MOL0     C 1435  10.923   9.495   9.817 -0.4445  1.1217 -0.3229
  769MOL0     C 1436  11.063   9.535   9.762 -0.0251 -0.2517  0.0461
  769MOL0     C 1437  11.071   9.687   9.743  0.0805 -0.2046  0.7917
  769MOL0     C 1438  11.203   9.720   9.659  0.6681 -0.4906 -1.5043
  769MOL0     C 1439  11.315   9.722   9.745  0.8102  0.0049 -0.1520
  769MOL0     C 1440  11.395   9.729   9.833 -1.1744 -0.7218  0.7717
  769MOL0     C 1441  10.649   9.405   9.683 -0.5632 -0.5352  0.8886
  769MOL0     C 1442  10.508   9.375   9.692  0.4617  0.1989  0.7208
  769MOL0     H 1443   9.989   9.585   9.720  0.3122  2.1106  2.8520
  769MOL0     H 1444   9.753   9.485   9.716 -0.6280  1.4743  0.5900
  769MOL0     H 1445   9.602   9.346   9.677  3.9530  0.3161  1.7630
  769MOL0     H 1446   9.509   9.421   9.806  1.2124  0.6595 -0.7883
  769MOL0     H 1447   9.382   9.206   9.841 -0.0241  0.0442  0.0671
  769MOL0     H 1448   9.498   9.127   9.736 -0.1426  0.1675 -1.6092
  769MOL0     H 1449   9.429   9.283   9.550  3.0255 -1.9361  1.7629
  769MOL0     H 1450   9.324   9.367   9.661  1.0754 -0.5810  1.0916
  769MOL0     H 1451   9.296   9.065   9.621  2.0370 -1.3168  1.2159
  769MOL0     H 1452   9.181   9.178   9.700  1.7714 -0.1168  0.7573
  769MOL0     H 1453   9.262   9.203   9.418  1.0638 -0.1649  0.2500
  769MOL0     H 1454   9.133   9.300   9.511 -0.3157 -0.6380  0.8438
  769MOL0     H 1455   9.010   9.097   9.563 -0.8433 -1.8988 -0.7392
  769MOL0     H 1456   9.100   8.998   9.456 -1.7825 -0.3704  0.5825
  769MOL0     H 1457   8.939   9.243   9.389  4.1233  2.7564 -3.3977
  769MOL0     H 1458   9.050   9.172   9.282  0.4434 -0.1736  0.7994
  769MOL0     H 1459   8.838   8.979   9.398 -1.4683  0.9953 -1.0404
  769MOL0     H 1460   8.929   8.975   9.253  4.6640  0.8626  2.5774
  769MOL0     H 1461   8.591   9.067   9.372  1.3178 -1.7283  0.1199
  769MOL0     H 1462   8.413   9.310   9.112 -2.4853  0.4444  0.3723
  769MOL0     H 1463   8.371   9.220   9.260  0.5322 -1.7322  1.2922
  769MOL0     H 1464   8.390   9.113   8.970 -3.4658  2.4368 -2.2558
  769MOL0     H 1465   8.249   9.152   9.050  1.2070  4.5178  1.3315
  769MOL0     H 1466   8.304   8.909   9.049 -0.9053  1.1570 -0.9666
  769MOL0     H 1467   8.462   8.933   9.131  0.1092 -1.1731  0.6137
  769MOL0     H 1468   8.373   9.024   9.328 -0.5009  2.8938 -1.7636
  769MOL0     H 1469   8.336   8.855   9.305 -0.1471  0.4101  0.0832
  769MOL0     H 1470   7.990   8.995   9.101 -0.1495 -1.8802 -4.5511
  769MOL0     H 1471   7.815   8.844   9.042  0.9220  2.1023  0.3462
  769MOL0     H 1472   7.566   8.724   8.817  0.6886  1.0670  1.6163
  769MOL0     H 1473   7.361   8.636   8.729 -1.6721  1.0213  0.9579
  769MOL0     H 1474   7.251   8.319   8.650  0.4733  1.5735 -1.3313
  769MOL0     H 1475   7.203   8.503   8.649 -1.4432  0.8476  0.6512
  769MOL0     H 1476   7.030   8.260   8.740 -2.2516  0.5170  0.6099
  769MOL0     H 1477   7.016   8.327   8.578  1.1407  2.7261 -0.8453
  769MOL0     H 1478   6.954   8.552   8.678 -0.2001 -0.0879 -1.5694
  769MOL0     H 1479   6.980   8.472   8.837  3.6223  0.4581 -1.2642
  769MOL0     H 1480   6.797   8.368   8.624  1.4438  0.1376 -0.0499
  769MOL0     H 1481   6.800   8.333   8.796 -0.1576 -0.1745  0.7752
  769MOL0     H 1482   6.720   8.599   8.671 -1.1329 -0.2457 -0.6980
  769MOL0     H 1483   6.728   8.566   8.846 -0.1312  1.7166 -1.0141
  769MOL0     H 1484   6.584   8.356   8.814 -1.5358  0.0627 -0.9041
  769MOL0     H 1485   6.521   8.437   8.675 -1.5769 -1.5644  1.2565
  769MOL0     H 1486   6.468   8.505   8.940 -1.9585 -2.8983 -1.9691
  769MOL0     H 1487   6.563   8.643   8.888  2.3512 -0.9757  0.1531
  769MOL0     H 1488   6.328   8.512   8.749 -1.8829  1.0308  0.2650
  769MOL0     H 1489   6.404   8.646   8.685  0.7076  0.6883  0.3846
  769MOL0     H 1490   7.370   8.313   9.020 -1.0788 -0.5392 -2.2094
  769MOL0     H 1491   7.560   8.409   9.128 -0.7952  0.6030  0.5504
  769MOL0     H 1492   7.978   8.568   9.333 -0.1016 -0.0728 -0.3836
  769MOL0     H 1493   8.133   8.735   9.399 -0.9211  0.2610  0.8158
  769MOL0     H 1494   9.880   9.197  10.010  2.3014 -0.5841 -0.6890
  769MOL0     H 1495  10.090   9.275  10.004 -3.4479 -1.8965  1.6849
  769MOL0     H 1496  10.409   9.599   9.927  1.6341 -1.3834  2.7571
  769MOL0     H 1497  10.645   9.670   9.897 -3.1407  1.2683 -0.0797
  769MOL0     H 1498  10.907   9.392   9.784  0.9772  0.4439  0.9534
  769MOL0     H 1499  10.904   9.522   9.921 -0.7037  0.2344 -0.1282
  769MOL0     H 1500  11.144   9.494   9.823  0.8539  2.8960  1.1978
  769MOL0     H 1501  11.075   9.499   9.660  2.6952  0.8051 -0.0759
  769MOL0     H 1502  11.057   9.742   9.836 -4.1983  1.4483 -0.6064
  769MOL0     H 1503  10.987   9.717   9.679  1.0066 -0.5393 -0.6288
  769MOL0     H 1504  11.219   9.644   9.581  2.7031 -3.9050  1.8514
  769MOL0     H 1505  11.188   9.819   9.616 -0.9382 -0.7818 -1.6574
  769MOL0     H 1506  11.461   9.732   9.918 -0.7460  2.4285  0.4607
  769MOL0     H 1507  10.723   9.356   9.620  2.8613  2.3767  2.3038
  769MOL0     H 1508  10.469   9.290   9.636  0.3407 -0.4083  1.6959
  770MOL0     O 1509   4.616  10.319   1.769  0.3495  1.0191  0.1343
  770MOL0     C 1510   4.717  10.379   1.730 -0.1324  0.7628 -0.7463
  770MOL0     O 1511   4.736  10.513   1.745  0.1934 -0.0408 -0.0460
  770MOL0     C 1512   4.632  10.588   1.796  0.4318  0.1319  0.0299
  770MOL0     C 1513   4.655  10.679   1.905 -0.3022  0.3485 -0.0361
  770MOL0     C 1514   4.551  10.759   1.945 -0.1458 -0.4786 -0.9056
  770MOL0     C 1515   4.423  10.754   1.891  0.2007  0.1031  0.2891
  770MOL0     O 1516   4.335  10.827   1.952  0.0470  0.5822  0.4216
  770MOL0     C 1517   4.195  10.798   1.944 -0.1996 -0.2979 -0.0212
  770MOL0     C 1518   4.110  10.890   2.026 -0.5660  0.7848 -0.0686
  770MOL0     C 1519   3.964  10.841   2.018  0.0450 -1.2065  0.4067
  770MOL0     C 1520   3.893  10.899   2.146  0.2613 -0.4419 -0.0134
  770MOL0     C 1521   3.738  10.891   2.134  0.1306  0.5299 -0.4592
  770MOL0     C 1522   3.658  10.947   2.259 -0.0582 -0.6826 -0.2235
  770MOL0     C 1523   3.507  10.935   2.240  0.7950  1.0231  0.4953
  770MOL0     C 1524   3.442  10.919   2.378  0.2153 -0.3122  0.0414
  770MOL0     N 1525   3.300  10.884   2.376  0.1165 -0.1396  0.1870
  770MOL0     C 1526   3.198  10.944   2.457 -0.5759  0.1356  0.2521
  770MOL0     C 1527   3.082  10.888   2.422  1.0777  0.7033  0.3613
  770MOL0     C 1528   2.951  10.925   2.478  0.8156 -0.1162 -0.5313
  770MOL0     C 1529   2.929  11.078   2.466  0.1146 -0.3610 -0.4974
  770MOL0     C 1530   2.903  11.126   2.330 -0.7910  0.1849  0.2146
  770MOL0     C 1531   3.027  11.130   2.230  1.2395  0.3820  0.7691
  770MOL0     O 1532   3.030  11.244   2.141 -0.5808 -0.2837  0.1890
  770MOL0     C 1533   3.087  11.355   2.187 -0.4161 -0.0662  0.9160
  770MOL0     C 1534   2.998  11.467   2.197  0.4524  1.0126  0.4356
  770MOL0     C 1535   3.034  11.591   2.236  0.2440  0.2687 -0.1845
  770MOL0     C 1536   3.166  11.620   2.269  0.1266 -0.2732 -0.5149
  770MOL0     C 1537   3.213  11.755   2.299  0.5429  0.2181 -0.2685
  770MOL0     O 1538   3.344  11.761   2.335  0.1715 -0.3695 -0.0616
  770MOL0     C 1539   3.390  11.891   2.331 -1.2103  0.1039  1.2777
  770MOL0     C 1540   3.422  11.953   2.209  0.7537 -0.3007 -0.3252
  770MOL0     C 1541   3.461  12.092   2.206  0.7431 -0.7521 -0.9197
  770MOL0     C 1542   3.478  12.164   2.328  0.5446  0.3954  0.1676
  770MOL0     O 1543   3.522  12.297   2.342  0.1845 -0.3897  0.2000
  770MOL0     C 1544   3.644  12.328   2.272 -0.2135  0.6500  0.5174
  770MOL0     C 1545   3.620  12.429   2.158  0.4129 -0.2024 -1.3609
  770MOL0     C 1546   3.709  12.405   2.043  0.4864 -0.2279  0.2207
  770MOL0     C 1547   3.865  12.434   2.079  0.4549 -1.0749  0.3322
  770MOL0     C 1548   3.964  12.402   1.971 -0.2239 -0.6032 -0.4841
  770MOL0     C 1549   3.939  12.506   1.849  0.3156 -0.5081  0.3589
  770MOL0     C 1550   4.019  12.470   1.722 -0.2991 -0.0103  0.9201
  770MOL0     C 1551   4.166  12.484   1.747  0.7937  0.7215 -0.3182
  770MOL0    Cl 1552   4.266  12.468   1.602 -0.2080  0.5224 -0.4794
  770MOL0     C 1553   3.444  12.098   2.445  0.3639  1.0915 -0.1310
  770MOL0     C 1554   3.399  11.963   2.447 -0.3662 -0.7265  0.2046
  770MOL0     O 1555   3.129  11.843   2.306 -0.6844  1.1816 -0.0045
  770MOL0     C 1556   3.255  11.515   2.249  0.0050  0.1951 -0.8530
  770MOL0     C 1557   3.225  11.381   2.223 -0.5897 -1.0522  0.2230
  770MOL0     N 1558   3.104  10.791   2.325  0.0151 -0.6082 -0.4904
  770MOL0     N 1559   3.237  10.783   2.314 -0.0013  0.6202  0.2427
  770MOL0     C 1560   4.396  10.673   1.778 -0.0274  0.5893  0.4619
  770MOL0     C 1561   4.499  10.585   1.737 -0.1769  0.5471 -0.4118
  770MOL0     C 1562   4.822  10.311   1.663  0.2248  0.3768 -0.1906
  770MOL0     C 1563   4.816  10.171   1.650  0.1352 -0.3725  0.4375
  770MOL0     C 1564   4.918  10.095   1.596 -0.5634 -0.7066  0.1506
  770MOL0     C 1565   5.039  10.157   1.553  0.2175  0.3763 -0.0166
  770MOL0     O 1566   5.141  10.083   1.493 -0.4357  0.0511  0.1554
  770MOL0     C 1567   5.267  10.146   1.468  0.9390  0.8457  0.1710
  770MOL0     C 1568   5.275  10.195   1.328  0.3837  0.4866  0.3047
  770MOL0     C 1569   5.236  10.079   1.230 -0.9071 -0.9361  0.3743
  770MOL0     C 1570   5.338   9.971   1.210 -0.1116  0.7560  0.5168
  770MOL0     C 1571   5.466  10.017   1.150  0.6351  0.7549 -1.1685
  770MOL0     C 1572   5.573  10.068   1.113 -0.0388  0.4913  0.3685
  770MOL0     C 1573   5.041  10.298   1.553  0.7058  0.2763 -0.5969
  770MOL0     C 1574   4.942  10.372   1.612  0.5943  0.1967 -0.3280
  770MOL0     H 1575   4.756  10.683   1.944  0.5402 -3.3029 -1.3856
  770MOL0     H 1576   4.576  10.839   2.013 -1.3260 -0.9548  0.1088
  770MOL0     H 1577   4.182  10.698   1.987 -0.3374 -0.7069 -0.9818
  770MOL0     H 1578   4.157  10.809   1.842 -0.1686 -1.5385 -0.1842
  770MOL0     H 1579   4.126  10.990   1.984  0.9113  1.0041  0.9289
  770MOL0     H 1580   4.154  10.884   2.126 -2.8678 -2.9769  0.9152
  770MOL0     H 1581   3.948  10.733   2.010 -3.4410 -0.7702 -0.0903
  770MOL0     H 1582   3.918  10.894   1.935 -0.8283 -1.2000  0.8838
  770MOL0     H 1583   3.937  10.848   2.232  1.5112 -1.2182 -1.0678
  770MOL0     H 1584   3.934  11.000   2.151  1.5585 -1.0164  2.1578
  770MOL0     H 1585   3.715  10.785   2.118  1.4094 -0.1066  1.5362
  770MOL0     H 1586   3.709  10.949   2.046 -0.9791  1.4428  0.4763
  770MOL0     H 1587   3.679  11.053   2.275 -1.2735 -0.2575 -1.2053
  770MOL0     H 1588   3.687  10.888   2.346 -2.3857 -1.9252 -0.2138
  770MOL0     H 1589   3.460  11.020   2.188 -1.3031  0.4906  1.4239
  770MOL0     H 1590   3.479  10.851   2.175 -0.8392  2.4453 -0.7567
  770MOL0     H 1591   3.457  11.014   2.430  1.5866 -0.6428  0.2783
  770MOL0     H 1592   3.495  10.840   2.431  3.0364  0.7736 -0.9713
  770MOL0     H 1593   3.213  11.013   2.539  2.2205 -1.2009  0.9848
  770MOL0     H 1594   2.949  10.881   2.578  1.7383 -5.3597 -2.5420
  770MOL0     H 1595   2.869  10.873   2.429 -1.0477  3.4089 -1.5322
  770MOL0     H 1596   3.009  11.135   2.515 -1.5126  1.3281  0.3426
  770MOL0     H 1597   2.841  11.103   2.527  2.1384  1.9326  1.7141
  770MOL0     H 1598   2.822  11.067   2.287 -1.0828 -0.0117  1.0160
  770MOL0     H 1599   2.869  11.230   2.340 -0.4739  0.3529 -0.4138
  770MOL0     H 1600   3.022  11.036   2.174 -1.0793 -1.5863  3.9286
  770MOL0     H 1601   3.121  11.133   2.287  2.1127  2.7735 -0.6541
  770MOL0     H 1602   2.891  11.455   2.182  0.7332  1.8355 -3.0995
  770MOL0     H 1603   2.963  11.669   2.258  1.2672  0.9455  0.8133
  770MOL0     H 1604   3.403  11.890   2.122 -0.9686 -0.1672 -0.0723
  770MOL0     H 1605   3.489  12.145   2.115  0.9720 -0.5471 -0.7292
  770MOL0     H 1606   3.684  12.238   2.224 -2.3606 -0.4060  0.5686
  770MOL0     H 1607   3.714  12.376   2.340 -0.2534  0.9671  0.3400
  770MOL0     H 1608   3.616  12.529   2.201  1.8926 -1.1978  1.3762
  770MOL0     H 1609   3.517  12.412   2.123 -0.5193  1.6367  0.2504
  770MOL0     H 1610   3.678  12.464   1.957 -3.7395 -2.6425 -0.1714
  770MOL0     H 1611   3.696  12.299   2.022 -0.1530 -0.0554 -0.2823
  770MOL0     H 1612   3.874  12.539   2.108  2.3346 -1.4775  1.3619
  770MOL0     H 1613   3.892  12.386   2.173 -1.0474  0.7445  1.7704
  770MOL0     H 1614   3.951  12.297   1.941 -2.5514  0.2020 -2.5999
  770MOL0     H 1615   4.067  12.417   2.007 -0.2235 -1.4981 -0.0791
  770MOL0     H 1616   3.969  12.609   1.870 -0.0757 -0.3644  0.2287
  770MOL0     H 1617   3.832  12.502   1.823  0.6310  0.3983 -1.2043
  770MOL0     H 1618   3.979  12.372   1.694 -0.0561 -0.7711  3.0349
  770MOL0     H 1619   4.005  12.532   1.633  0.0157 -1.8575 -0.4651
  770MOL0     H 1620   4.193  12.410   1.823  0.0372 -1.4309 -2.0412
  770MOL0     H 1621   4.188  12.584   1.784  1.9647 -0.3750  2.1936
  770MOL0     H 1622   3.434  12.163   2.531 -0.8205  0.7047  0.0446
  770MOL0     H 1623   3.372  11.919   2.543 -2.3582 -0.8789 -0.3720
  770MOL0     H 1624   3.361  11.530   2.266  0.4872 -0.1516 -3.1674
  770MOL0     H 1625   3.302  11.305   2.221 -1.0076 -1.4683 -1.0056
  770MOL0     H 1626   4.301  10.669   1.726  0.7466  1.1923 -1.0707
  770MOL0     H 1627   4.485  10.514   1.656 -1.5504 -0.5249  0.6987
  770MOL0     H 1628   4.723  10.127   1.684 -0.2523  1.0099  1.2611
  770MOL0     H 1629   4.902   9.989   1.581 -0.9389 -0.5894 -0.3452
  770MOL0     H 1630   5.336  10.061   1.471  0.1145  0.1769  0.3725
  770MOL0     H 1631   5.294  10.220   1.544 -0.5690  0.7387  0.8506
  770MOL0     H 1632   5.205  10.278   1.313  1.4019  1.3880  0.4548
  770MOL0     H 1633   5.380  10.224   1.319  1.5194 -2.6449  1.7473
  770MOL0     H 1634   5.230  10.120   1.129  0.0294 -0.7259  0.3987
  770MOL0     H 1635   5.137  10.035   1.246 -0.6076 -1.6847  0.2116
  770MOL0     H 1636   5.369   9.929   1.306  3.7802 -0.6941 -1.1560
  770MOL0     H 1637   5.305   9.888   1.146 -0.0724  1.6043 -0.6458
  770MOL0     H 1638   5.668  10.113   1.092 -0.9903  1.9764 -0.9278
  770MOL0     H 1639   5.116  10.358   1.501  0.4915 -0.7175 -2.1279
  770MOL0     H 1640   4.946  10.481   1.605 -1.6907  0.3404 -0.1379
  771MOL0     O 1641   9.698   7.558   2.235  0.2252  0.0778  0.8849
  771MOL0     C 1642   9.748   7.551   2.347  0.0933 -0.4185 -0.1967
  771MOL0     O 1643   9.690   7.601   2.459  0.8907 -0.0810 -0.4162
  771MOL0     C 1644   9.575   7.666   2.455  0.0115  0.8254  0.1988
  771MOL0     C 1645   9.568   7.797   2.406  0.0255 -0.7679  0.9993
  771MOL0     C 1646   9.444   7.869   2.408 -0.0809 -1.1919  0.6457
  771MOL0     C 1647   9.337   7.808   2.470 -0.0529  0.5818  0.7548
  771MOL0     O 1648   9.215   7.866   2.479 -0.1970  0.5507 -1.1509
  771MOL0     C 1649   9.180   7.981   2.415  0.5756  0.2257  0.0936
  771MOL0     C 1650   9.181   7.977   2.263  0.1961 -0.1327  1.3257
  771MOL0     C 1651   9.089   7.857   2.204 -0.5239  0.4744 -0.2801
  771MOL0     C 1652   9.066   7.860   2.050  0.5968  0.1427  0.2178
  771MOL0     C 1653   8.985   7.735   2.010 -1.0922 -0.5819 -1.0523
  771MOL0     C 1654   8.983   7.738   1.854  0.1392  0.1391 -0.6388
  771MOL0     C 1655   8.864   7.821   1.801  0.0843  0.5932 -0.5790
  771MOL0     C 1656   8.725   7.780   1.867 -0.3840  0.0075  0.7626
  771MOL0     N 1657   8.694   7.635   1.851 -0.6119 -0.6560  0.1263
  771MOL0     C 1658   8.713   7.532   1.948  0.3989 -0.4901  0.3415
  771MOL0     C 1659   8.651   7.427   1.890  0.6072  0.0444 -0.2030
  771MOL0     C 1660   8.644   7.290   1.948 -0.2170  0.7718  0.2363
  771MOL0     C 1661   8.615   7.278   2.108  0.1686  0.0347  1.1675
  771MOL0     C 1662   8.473   7.329   2.143  0.6156 -0.1699  0.7222
  771MOL0     C 1663   8.455   7.319   2.304 -0.2283  0.3486  0.3156
  771MOL0     O 1664   8.319   7.364   2.338  0.2753  0.4377 -0.4664
  771MOL0     C 1665   8.263   7.309   2.450 -0.0140  0.8790 -0.4896
  771MOL0     C 1666   8.123   7.334   2.463  0.0581 -0.8806  0.0477
  771MOL0     C 1667   8.051   7.280   2.572 -0.2463 -0.5003  0.1228
  771MOL0     C 1668   8.112   7.221   2.684 -0.7786 -0.2896  0.0241
  771MOL0     C 1669   8.042   7.192   2.809  1.3623 -0.6247  0.2570
  771MOL0     O 1670   7.905   7.220   2.812 -0.7002 -0.4376  0.8040
  771MOL0     C 1671   7.841   7.234   2.937 -0.3604  0.5228 -0.3506
  771MOL0     C 1672   7.887   7.316   3.043 -0.1092 -0.4871  0.7350
  771MOL0     C 1673   7.799   7.332   3.156 -0.5776 -0.4485  0.4694
  771MOL0     C 1674   7.673   7.270   3.166  0.2467 -0.7412  1.2796
  771MOL0     O 1675   7.590   7.283   3.273  0.2679  0.2114  0.8529
  771MOL0     C 1676   7.572   7.418   3.314  0.1286 -0.2493 -0.0998
  771MOL0     C 1677   7.433   7.445   3.373 -0.4824 -0.1991  0.3932
  771MOL0     C 1678   7.421   7.418   3.529 -0.7005 -0.3724  0.8573
  771MOL0     C 1679   7.283   7.429   3.580  0.4532  0.5919 -0.2418
  771MOL0     C 1680   7.241   7.358   3.712  0.2155  0.0418  0.0665
  771MOL0     C 1681   7.097   7.377   3.750  0.0975  0.2845  0.9179
  771MOL0     C 1682   7.043   7.507   3.812  0.1502 -0.3990  0.1117
  771MOL0     C 1683   6.897   7.529   3.770  0.0981  0.0196 -0.2648
  771MOL0    Cl 1684   6.789   7.392   3.789  0.1876  0.0757  0.0148
  771MOL0     C 1685   7.635   7.180   3.067 -0.6139  0.4089  0.1143
  771MOL0     C 1686   7.716   7.168   2.961 -0.7660  0.1840  0.2389
  771MOL0     O 1687   8.107   7.145   2.905 -0.5715  0.2764  0.3493
  771MOL0     C 1688   8.249   7.187   2.672  0.2241 -0.2016 -0.2176
  771MOL0     C 1689   8.324   7.236   2.560  0.0504  0.1030 -0.0661
  771MOL0     N 1690   8.608   7.464   1.768 -0.3526 -0.2548  0.2060
  771MOL0     N 1691   8.620   7.593   1.755  0.0657  0.2043  0.4603
  771MOL0     C 1692   9.344   7.670   2.521  0.2190  0.6694  0.2049
  771MOL0     C 1693   9.463   7.605   2.518  0.5247  0.2754 -0.6965
  771MOL0     C 1694   9.894   7.518   2.364  0.6013 -0.1508  0.6366
  771MOL0     C 1695   9.955   7.438   2.267 -0.1917  0.2184 -1.1313
  771MOL0     C 1696  10.093   7.400   2.270  0.7653  0.3549  0.4080
  771MOL0     C 1697  10.163   7.449   2.382 -0.5370  0.7551 -0.5645
  771MOL0     O 1698  10.295   7.427   2.406  0.0199 -0.1626 -1.5775
  771MOL0     C 1699  10.379   7.397   2.297 -0.0868  0.0958 -0.0005
  771MOL0     C 1700  10.521   7.447   2.340  0.1892  0.2881  0.1130
  771MOL0     C 1701  10.588   7.357   2.453 -0.2256 -0.8328  0.5371
  771MOL0     C 1702  10.554   7.415   2.593 -0.0211 -0.3337 -0.4282
  771MOL0     C 1703  10.667   7.394   2.684 -0.2064 -0.1935  0.6670
  771MOL0     C 1704  10.757   7.401   2.763  0.2662  1.0234  0.1245
  771MOL0     C 1705  10.100   7.530   2.473  0.6602 -1.3255  0.0829
  771MOL0     C 1706   9.963   7.562   2.475 -0.7306  0.3363 -1.4699
  771MOL0     H 1707   9.662   7.826   2.361 -0.0442 -2.1982 -0.1341
  771MOL0     H 1708   9.442   7.973   2.377 -0.4362 -1.9275 -2.1160
  771MOL0     H 1709   9.250   8.061   2.440  0.9049  0.0535 -0.2670
  771MOL0     H 1710   9.081   8.016   2.446  0.7061  1.0584 -0.4108
  771MOL0     H 1711   9.282   7.961   2.224 -0.4136 -1.0156  0.0601
  771MOL0     H 1712   9.149   8.074   2.223 -1.5400 -0.4084  1.9853
  771MOL0     H 1713   8.994   7.856   2.257  0.3384 -1.2097  1.3435
  771MOL0     H 1714   9.135   7.766   2.244 -1.9736  1.5546  4.4180
  771MOL0     H 1715   8.998   7.942   2.024 -2.8197 -2.9310 -1.3828
  771MOL0     H 1716   9.160   7.861   1.993 -0.8953  1.5253 -2.4259
  771MOL0     H 1717   8.893   7.738   2.069  0.4927 -1.1639  1.6243
  771MOL0     H 1718   9.034   7.640   2.037 -1.8396 -0.6588  0.1110
  771MOL0     H 1719   8.986   7.634   1.822 -0.6247 -0.3312  0.7333
  771MOL0     H 1720   9.072   7.790   1.818 -1.0638  3.2425  0.5094
  771MOL0     H 1721   8.877   7.922   1.841 -1.3376  0.0039  1.5497
  771MOL0     H 1722   8.854   7.815   1.692 -1.5987 -0.9366 -0.3774
  771MOL0     H 1723   8.649   7.841   1.818  0.1565  2.6483  2.9349
  771MOL0     H 1724   8.726   7.805   1.973 -1.0418  1.4334  0.4600
  771MOL0     H 1725   8.772   7.543   2.039  1.0938  1.0117 -0.2517
  771MOL0     H 1726   8.744   7.249   1.943 -0.0272  0.8297  2.4052
  771MOL0     H 1727   8.578   7.226   1.889  0.9855  0.6187 -0.9901
  771MOL0     H 1728   8.694   7.328   2.164  2.3032  0.7833 -2.1973
  771MOL0     H 1729   8.626   7.172   2.131  0.7778 -0.2772 -0.3950
  771MOL0     H 1730   8.462   7.431   2.106 -3.1537 -0.1363  1.5707
  771MOL0     H 1731   8.396   7.274   2.088  0.6217  0.9208 -0.4045
  771MOL0     H 1732   8.535   7.382   2.344  2.9326 -1.0184 -3.2591
  771MOL0     H 1733   8.463   7.215   2.336 -0.5218  0.2033 -0.0878
  771MOL0     H 1734   8.064   7.385   2.388  2.1742  0.1366 -1.0182
  771MOL0     H 1735   7.944   7.298   2.586 -0.2700 -1.1643  0.8337
  771MOL0     H 1736   7.982   7.366   3.027  0.4506 -1.1832  1.8309
  771MOL0     H 1737   7.824   7.395   3.241 -2.5538 -1.4976  1.8988
  771MOL0     H 1738   7.589   7.485   3.229 -0.8477  0.3598  0.1749
  771MOL0     H 1739   7.645   7.441   3.392 -1.0473 -0.4157  1.0826
  771MOL0     H 1740   7.366   7.383   3.313  1.2379  0.3873 -2.2631
  771MOL0     H 1741   7.387   7.543   3.357 -2.3322 -1.3390 -1.8345
  771MOL0     H 1742   7.477   7.502   3.570  0.4415 -0.2708 -0.8001
  771MOL0     H 1743   7.465   7.322   3.559  2.9219  0.6433 -0.6523
  771MOL0     H 1744   7.265   7.537   3.587  1.4641  0.7349  0.3195
  771MOL0     H 1745   7.215   7.395   3.501 -1.1229  1.3174  0.7507
  771MOL0     H 1746   7.312   7.381   3.792 -0.1436  1.1968  0.0718
  771MOL0     H 1747   7.251   7.252   3.685  1.8507  0.5195 -1.4149
  771MOL0     H 1748   7.062   7.293   3.811 -2.2494 -0.9456 -1.8676
  771MOL0     H 1749   7.031   7.370   3.663 -1.2251  2.0992  1.7033
  771MOL0     H 1750   7.050   7.511   3.921 -2.4721  1.1790  0.2982
  771MOL0     H 1751   7.098   7.594   3.774 -1.2811  0.2071 -0.6359
  771MOL0     H 1752   6.906   7.557   3.665 -0.9286 -1.3621 -0.7617
  771MOL0     H 1753   6.846   7.611   3.822  1.6750 -0.2017  1.7399
  771MOL0     H 1754   7.543   7.123   3.064  0.3346 -1.1466 -0.7183
  771MOL0     H 1755   7.677   7.108   2.880  1.5991 -0.0369 -0.8196
  771MOL0     H 1756   8.305   7.136   2.750  0.6323  2.1791  1.1670
  771MOL0     H 1757   8.427   7.200   2.558 -0.1483 -0.6360  1.5953
  771MOL0     H 1758   9.263   7.621   2.574 -0.5680  1.4460 -0.2512
  771MOL0     H 1759   9.478   7.510   2.569 -2.3038  1.7698  3.5122
  771MOL0     H 1760   9.891   7.404   2.186 -0.4728  0.4952 -1.0268
  771MOL0     H 1761  10.137   7.333   2.198  0.6295 -2.0768  2.4509
  771MOL0     H 1762  10.347   7.434   2.200  3.2317  1.5624 -0.6697
  771MOL0     H 1763  10.380   7.291   2.271  0.7637  0.5697 -2.0712
  771MOL0     H 1764  10.587   7.458   2.254 -0.6582  0.0078 -0.5840
  771MOL0     H 1765  10.506   7.548   2.379 -0.0686  0.2181  0.1965
  771MOL0     H 1766  10.694   7.365   2.428 -0.7701  3.7350 -1.3600
  771MOL0     H 1767  10.571   7.250   2.436  1.4489 -1.2407  1.2453
  771MOL0     H 1768  10.529   7.521   2.593  1.9238  0.1591 -0.6519
  771MOL0     H 1769  10.470   7.360   2.636 -3.1840  1.0533 -4.2490
  771MOL0     H 1770  10.841   7.408   2.830  0.4678 -0.2613  0.0259
  771MOL0     H 1771  10.157   7.571   2.556 -0.8438  1.7677 -0.3012
  771MOL0     H 1772   9.926   7.622   2.557  2.0946  0.2418 -0.0001
  772MOL0     O 1773   3.128   9.956   4.263 -0.4419  0.2052  0.0223
  772MOL0     C 1774   3.181  10.067   4.263  0.3217  0.0413 -0.8301
  772MOL0     O 1775   3.133  10.171   4.348 -0.6981  0.4471  0.4004
  772MOL0     C 1776   3.021  10.140   4.415 -0.5313 -0.2960 -0.0773
  772MOL0     C 1777   2.908  10.226   4.400 -0.4927  1.2892 -0.2602
  772MOL0     C 1778   2.789  10.213   4.476  0.0986 -0.0738  0.2219
  772MOL0     C 1779   2.774  10.117   4.572  0.4290 -0.4972 -0.0964
  772MOL0     O 1780   2.656  10.115   4.639  0.2879 -0.1178 -0.1097
  772MOL0     C 1781   2.604   9.990   4.677  0.4203  0.3827 -0.0176
  772MOL0     C 1782   2.481  10.022   4.766 -0.0178 -1.1624  0.6536
  772MOL0     C 1783   2.357  10.059   4.679 -0.5173  0.5153 -0.2918
  772MOL0     C 1784   2.221  10.078   4.761  0.9367  0.1792  0.4675
  772MOL0     C 1785   2.114  10.104   4.655  1.0016 -0.3308 -0.5620
  772MOL0     C 1786   1.995  10.166   4.741 -1.2403 -0.1121  0.3520
  772MOL0     C 1787   1.875  10.203   4.652  0.3101  0.3806  0.1453
  772MOL0     C 1788   1.755  10.240   4.732  0.4489 -0.2448  0.0749
  772MOL0     N 1789   1.642  10.287   4.657  0.0936  0.8224  0.1929
  772MOL0     C 1790   1.610  10.416   4.643  0.7615  0.9281 -0.1677
  772MOL0     C 1791   1.485  10.417   4.579  0.2673  0.7178 -0.2946
  772MOL0     C 1792   1.387  10.526   4.549  0.3336 -0.0581 -0.4617
  772MOL0     C 1793   1.293  10.556   4.663  0.0194 -0.1346 -0.0723
  772MOL0     C 1794   1.209  10.677   4.636  0.0192  0.2094  0.4814
  772MOL0     C 1795   1.134  10.721   4.764 -0.5639 -0.0143 -0.2145
  772MOL0     O 1796   1.071  10.841   4.741  0.5146  1.0607  0.2333
  772MOL0     C 1797   0.979  10.879   4.843 -0.5247 -0.1290  0.4302
  772MOL0     C 1798   0.932  10.797   4.943  0.2294 -0.8109  0.2173
  772MOL0     C 1799   0.837  10.855   5.030 -0.7287 -0.8482  0.1792
  772MOL0     C 1800   0.797  10.988   5.024 -0.7473  0.3172  0.0188
  772MOL0     C 1801   0.692  11.037   5.116  0.1384 -0.3061  0.8485
  772MOL0     O 1802   0.624  10.950   5.187  0.6457  0.0724  0.0330
  772MOL0     C 1803   0.500  10.998   5.241  0.1381  0.4079  0.8568
  772MOL0     C 1804   0.475  10.966   5.373 -0.5749  0.1769  0.0339
  772MOL0     C 1805   0.346  10.993   5.419 -0.5695  0.2088  0.2378
  772MOL0     C 1806   0.245  11.042   5.333  0.3973  0.5366  0.3214
  772MOL0     O 1807   0.121  11.055   5.384 -0.1946 -0.4564 -0.0154
  772MOL0     C 1808   0.010  11.077   5.297 -0.0718 -0.0732 -0.3794
  772MOL0     C 1809  -0.115  11.074   5.381  0.1885  0.3937 -0.8041
  772MOL0     C 1810  -0.237  11.009   5.304  0.6732  0.3520 -0.1352
  772MOL0     C 1811  -0.282  11.119   5.206 -0.4450  0.1152  0.3029
  772MOL0     C 1812  -0.397  11.070   5.116  0.1486 -0.7177  0.3342
  772MOL0     C 1813  -0.526  11.053   5.201  0.5816  0.4960 -0.2779
  772MOL0     C 1814  -0.650  11.027   5.114  0.7625  0.0536  0.4654
  772MOL0     C 1815  -0.785  11.049   5.190 -0.4815 -0.0586 -0.1918
  772MOL0    Cl 1816  -0.807  10.919   5.307  0.2831 -0.2653  0.1815
  772MOL0     C 1817   0.272  11.071   5.196 -0.0253  0.3554 -0.6804
  772MOL0     C 1818   0.398  11.048   5.156  0.0846 -0.6250 -0.5288
  772MOL0     O 1819   0.658  11.153   5.094 -0.5242  0.3864 -0.0879
  772MOL0     C 1820   0.850  11.070   4.922 -0.2782 -0.1584 -0.1350
  772MOL0     C 1821   0.947  11.018   4.847 -0.5381  0.1651  0.5182
  772MOL0     N 1822   1.455  10.283   4.549  0.2829  0.4652 -0.5155
  772MOL0     N 1823   1.551  10.216   4.601  1.0465  0.2088  0.1448
  772MOL0     C 1824   2.892  10.047   4.613  0.0462 -0.9790  0.6867
  772MOL0     C 1825   3.009  10.058   4.528  0.2607  0.0310  0.6499
  772MOL0     C 1826   3.305  10.095   4.200 -0.0463  0.2582  0.4045
  772MOL0     C 1827   3.378  10.215   4.232 -0.0744 -0.4397 -0.5407
  772MOL0     C 1828   3.501  10.234   4.175 -0.2616  0.9375 -0.1169
  772MOL0     C 1829   3.563  10.145   4.095 -0.1837  0.1849 -1.4801
  772MOL0     O 1830   3.693  10.177   4.064 -0.0581  0.1300  0.1612
  772MOL0     C 1831   3.752  10.112   3.957  0.5707 -0.0008  0.6852
  772MOL0     C 1832   3.877  10.186   3.899 -0.3275 -0.4504  0.8701
  772MOL0     C 1833   3.915  10.129   3.767  0.2666 -0.0820  0.6337
  772MOL0     C 1834   4.021  10.217   3.703 -0.7203 -0.5773  0.5383
  772MOL0     C 1835   4.013  10.219   3.555  0.1747 -0.8827  0.3643
  772MOL0     C 1836   3.993  10.241   3.434 -0.2230 -0.0339 -0.0199
  772MOL0     C 1837   3.499  10.019   4.080 -0.7863  0.4965 -0.5599
  772MOL0     C 1838   3.372   9.994   4.126  0.2408 -0.2360 -0.1017
  772MOL0     H 1839   2.915  10.307   4.328  1.4115 -0.3261 -2.0056
  772MOL0     H 1840   2.708  10.282   4.454  0.3367  0.3631  0.6988
  772MOL0     H 1841   2.680   9.935   4.733 -0.6611  1.7005  2.9678
  772MOL0     H 1842   2.583   9.924   4.592  1.7113 -2.9505  2.0114
  772MOL0     H 1843   2.510  10.098   4.840  0.0381  1.0192 -1.5170
  772MOL0     H 1844   2.451   9.932   4.822 -0.5181 -0.5123  1.4566
  772MOL0     H 1845   2.352   9.993   4.592  1.0913  2.8256 -2.2750
  772MOL0     H 1846   2.368  10.157   4.632  3.3382  0.3439  0.0014
  772MOL0     H 1847   2.200   9.993   4.826 -0.0494  1.5765  2.0340
  772MOL0     H 1848   2.232  10.172   4.816 -1.0345  1.0477 -0.5244
  772MOL0     H 1849   2.081  10.010   4.608  0.7252  0.0358 -1.1180
  772MOL0     H 1850   2.136  10.177   4.577 -3.1830  3.1897  1.1215
  772MOL0     H 1851   2.034  10.263   4.774 -1.4211  0.5593 -1.3311
  772MOL0     H 1852   1.965  10.100   4.823  0.5293 -0.5133  0.7083
  772MOL0     H 1853   1.899  10.287   4.586  1.6453  2.7005  3.3115
  772MOL0     H 1854   1.850  10.119   4.588  0.7548 -0.1473  0.6452
  772MOL0     H 1855   1.772  10.308   4.816  1.3842 -3.4715  2.7253
  772MOL0     H 1856   1.712  10.155   4.786  0.1853 -0.1085  0.0812
  772MOL0     H 1857   1.653  10.513   4.665 -0.1788  1.8838 -2.2291
  772MOL0     H 1858   1.324  10.497   4.464 -0.7079 -0.1444  0.3165
  772MOL0     H 1859   1.450  10.610   4.517 -0.0966  0.3683 -0.2029
  772MOL0     H 1860   1.354  10.588   4.748  1.0474  0.7208 -1.0830
  772MOL0     H 1861   1.231  10.472   4.694  0.6547 -1.4569 -2.1941
  772MOL0     H 1862   1.274  10.756   4.597  0.9316 -0.7029  0.1126
  772MOL0     H 1863   1.136  10.652   4.558  2.6168  1.9470 -2.7975
  772MOL0     H 1864   1.194  10.726   4.855 -2.3746 -0.5308  1.0729
  772MOL0     H 1865   1.059  10.644   4.785 -0.2126 -0.7490 -1.5010
  772MOL0     H 1866   0.973  10.698   4.960  0.2291 -0.6928  0.9828
  772MOL0     H 1867   0.796  10.790   5.107  1.5867 -0.9098  1.4692
  772MOL0     H 1868   0.562  10.938   5.432 -1.1076  1.5340  1.5280
  772MOL0     H 1869   0.324  10.979   5.524  1.3904  1.5619  0.8747
  772MOL0     H 1870   0.007  10.994   5.226  1.5863 -0.6192  0.1623
  772MOL0     H 1871   0.024  11.178   5.256  0.8926  1.0264  2.4019
  772MOL0     H 1872  -0.137  11.178   5.408 -1.9498  0.5463 -2.8030
  772MOL0     H 1873  -0.091  11.012   5.467 -1.6650 -1.3625 -1.4810
  772MOL0     H 1874  -0.322  10.982   5.366 -0.9692  0.5260 -2.1812
  772MOL0     H 1875  -0.207  10.912   5.262 -0.2600 -0.2144  0.4732
  772MOL0     H 1876  -0.313  11.211   5.258 -0.7100 -0.5445  1.3630
  772MOL0     H 1877  -0.199  11.136   5.138 -0.4270 -0.2585  0.2308
  772MOL0     H 1878  -0.374  10.973   5.073 -1.3712 -1.3985  0.9953
  772MOL0     H 1879  -0.416  11.139   5.033  0.6095 -1.9344 -0.8230
  772MOL0     H 1880  -0.541  11.146   5.257  1.4762  0.1220  0.6121
  772MOL0     H 1881  -0.502  10.964   5.261 -0.3700  1.5165  1.7225
  772MOL0     H 1882  -0.654  11.092   5.026 -0.8760  2.8846  2.4634
  772MOL0     H 1883  -0.652  10.921   5.086  2.2258  0.4334 -1.2864
  772MOL0     H 1884  -0.865  11.023   5.121 -1.8214  2.0899  0.4368
  772MOL0     H 1885  -0.806  11.148   5.232 -1.8909 -0.5055  0.2043
  772MOL0     H 1886   0.193  11.100   5.127 -1.8302 -2.2362  0.1631
  772MOL0     H 1887   0.416  11.076   5.052 -0.2098 -2.0580 -0.9828
  772MOL0     H 1888   0.818  11.173   4.922  3.5821  1.2307  1.7580
  772MOL0     H 1889   0.995  11.084   4.775  1.8989 -0.8811  1.0848
  772MOL0     H 1890   2.885   9.975   4.693 -0.0627 -1.5704  0.1517
  772MOL0     H 1891   3.092  10.000   4.568  2.7129  2.2478 -0.8415
  772MOL0     H 1892   3.332  10.289   4.296 -0.8021 -1.5641  0.2829
  772MOL0     H 1893   3.561  10.323   4.192 -0.0994  1.2546 -2.1056
  772MOL0     H 1894   3.687  10.098   3.871  0.9538 -0.8911  0.5289
  772MOL0     H 1895   3.789  10.016   3.996  3.8586  0.9695  0.3006
  772MOL0     H 1896   3.841  10.288   3.884 -0.0416 -0.2955  1.2150
  772MOL0     H 1897   3.963  10.175   3.965  0.9085 -2.5648 -0.9510
  772MOL0     H 1898   3.826  10.115   3.705  1.2340 -1.1901 -0.5803
  772MOL0     H 1899   3.947  10.025   3.781 -2.3289 -0.8747  1.2025
  772MOL0     H 1900   4.015  10.322   3.731  2.1394 -0.6498  1.7569
  772MOL0     H 1901   4.124  10.190   3.728  0.4283  0.4146 -2.6426
  772MOL0     H 1902   3.974  10.265   3.332  3.1329 -1.5695 -1.1369
  772MOL0     H 1903   3.537   9.935   4.024 -2.6770 -1.1489  0.4927
  772MOL0     H 1904   3.318   9.900   4.123  1.8408 -1.1969  0.0857
  773MOL0     O 1905   1.292   7.771   1.664  0.1522  0.1094  0.1135
  773MOL0     C 1906   1.324   7.677   1.732 -0.3210  0.3565 -0.1254
  773MOL0     O 1907   1.441   7.628   1.761  0.2063 -0.3291  0.6154
  773MOL0     C 1908   1.568   7.669   1.731 -0.4661 -0.0616 -0.1422
  773MOL0     C 1909   1.598   7.759   1.629  0.3725  0.0186  0.1345
  773MOL0     C 1910   1.730   7.783   1.589 -0.1623  0.6152  0.4007
  773MOL0     C 1911   1.836   7.724   1.659 -0.0193 -0.2284 -0.1340
  773MOL0     O 1912   1.967   7.758   1.634  0.2722  0.6754 -0.2425
  773MOL0     C 1913   2.024   7.769   1.507  0.3657 -0.2874 -1.1386
  773MOL0     C 1914   2.179   7.787   1.523 -0.0952  0.2076 -0.1949
  773MOL0     C 1915   2.258   7.667   1.568 -0.0007  0.2170 -0.3672
  773MOL0     C 1916   2.403   7.699   1.596 -0.4289 -0.7008  0.3300
  773MOL0     C 1917   2.473   7.589   1.690 -0.3549 -0.1194 -0.1734
  773MOL0     C 1918   2.463   7.430   1.653 -0.4494 -0.0982 -0.3645
  773MOL0     C 1919   2.530   7.417   1.515  0.5432 -1.0025 -0.2222
  773MOL0     C 1920   2.531   7.270   1.471 -0.2010 -0.5852 -0.4596
  773MOL0     N 1921   2.405   7.242   1.397  0.4575  0.0199  0.3786
  773MOL0     C 1922   2.285   7.208   1.448 -0.2558  0.3234 -0.6715
  773MOL0     C 1923   2.193   7.227   1.352  0.6110  0.0708  0.3226
  773MOL0     C 1924   2.040   7.218   1.352  0.0143  0.9153 -0.2567
  773MOL0     C 1925   1.977   7.306   1.464  0.5716  0.5743  1.1531
  773MOL0     C 1926   1.817   7.295   1.457 -0.4109 -0.7205  0.0406
  773MOL0     C 1927   1.761   7.392   1.560  0.7035 -0.3568  0.2125
  773MOL0     O 1928   1.753   7.327   1.686  1.4709  0.9497 -0.0803
  773MOL0     C 1929   1.632   7.258   1.703  0.2768 -0.3700  0.0244
  773MOL0     C 1930   1.500   7.310   1.694  0.3909 -0.4164  0.0641
  773MOL0     C 1931   1.386   7.235   1.712 -0.2019  0.8218  0.2616
  773MOL0     C 1932   1.405   7.098   1.735  1.4715  1.4479 -0.4100
  773MOL0     C 1933   1.275   7.021   1.761 -0.3023  0.5386  0.2608
  773MOL0     O 1934   1.157   7.081   1.738 -0.8336  0.1635 -0.4067
  773MOL0     C 1935   1.043   7.006   1.764 -1.2201 -1.3040  0.0017
  773MOL0     C 1936   0.991   6.997   1.891  0.1525  0.8794 -0.5134
  773MOL0     C 1937   0.870   6.917   1.915  0.8773 -0.0781  0.4500
  773MOL0     C 1938   0.823   6.835   1.816 -0.2177 -0.6509  0.4295
  773MOL0     O 1939   0.724   6.748   1.853 -0.1640 -0.3013 -0.1466
  773MOL0     C 1940   0.679   6.654   1.750  1.0283 -0.4794  0.4467
  773MOL0     C 1941   0.569   6.564   1.819 -0.0350  0.0830 -0.1339
  773MOL0     C 1942   0.425   6.627   1.808  0.3846  0.0496 -0.0376
  773MOL0     C 1943   0.309   6.557   1.869  0.0264  0.9242  0.4285
  773MOL0     C 1944   0.316   6.529   2.017  0.8308  0.5346 -0.2045
  773MOL0     C 1945   0.310   6.663   2.101 -0.6555 -0.3216  1.1038
  773MOL0     C 1946   0.172   6.737   2.102 -0.0418  0.0662 -0.1403
  773MOL0     C 1947   0.167   6.843   2.211  0.0179 -0.0594  0.2323
  773MOL0    Cl 1948   0.019   6.940   2.186 -0.1599  0.5795 -0.0238
  773MOL0     C 1949   0.879   6.850   1.689  0.0310 -0.6957 -0.0546
  773MOL0     C 1950   0.985   6.936   1.662 -0.3912 -0.7872  0.2421
  773MOL0     O 1951   1.290   6.912   1.820 -0.0914 -1.0012  0.0359
  773MOL0     C 1952   1.531   7.041   1.742 -0.3434  0.5640  0.9183
  773MOL0     C 1953   1.643   7.125   1.735  0.2532 -1.5977 -0.6885
  773MOL0     N 1954   2.264   7.274   1.236  0.2622 -0.1762 -0.5635
  773MOL0     N 1955   2.378   7.287   1.264 -1.2837  0.0066 -0.1058
  773MOL0     C 1956   1.800   7.650   1.769 -0.5103 -0.3553 -0.3926
  773MOL0     C 1957   1.670   7.621   1.806  1.1725 -0.3564 -0.5882
  773MOL0     C 1958   1.217   7.598   1.792  0.5119  0.1673  1.0302
  773MOL0     C 1959   1.086   7.596   1.731 -0.0384 -0.2623  0.2770
  773MOL0     C 1960   0.978   7.531   1.785 -0.0039  0.4568 -0.2751
  773MOL0     C 1961   0.991   7.451   1.902  0.3287  0.7696  0.5227
  773MOL0     O 1962   0.885   7.385   1.947 -0.7815  0.0264  0.0044
  773MOL0     C 1963   0.885   7.301   2.063  0.2790 -0.3965  0.2240
  773MOL0     C 1964   0.778   7.201   2.058  1.0778  0.1948 -0.9567
  773MOL0     C 1965   0.635   7.242   2.097 -0.6742 -0.1735  0.4843
  773MOL0     C 1966   0.546   7.118   2.107 -0.6317 -0.2779  0.6647
  773MOL0     C 1967   0.409   7.153   2.128  0.2122  0.5096  0.2398
  773MOL0     C 1968   0.291   7.181   2.150 -0.4080 -0.3521  0.5367
  773MOL0     C 1969   1.112   7.458   1.968  0.4309 -0.4525 -0.0415
  773MOL0     C 1970   1.227   7.531   1.912  0.4386 -0.0870 -0.8367
  773MOL0     H 1971   1.519   7.815   1.579  0.7577 -0.3143 -0.8632
  773MOL0     H 1972   1.735   7.838   1.496 -1.0686 -3.4441 -2.3389
  773MOL0     H 1973   1.981   7.863   1.470 -0.8869 -0.9878 -1.5255
  773MOL0     H 1974   2.007   7.680   1.445 -0.3571 -0.0609 -1.2727
  773MOL0     H 1975   2.202   7.869   1.592 -0.9535  2.0793 -1.9992
  773MOL0     H 1976   2.220   7.826   1.429  0.9193 -0.8555 -0.2162
  773MOL0     H 1977   2.251   7.584   1.497 -2.4584  0.1094 -0.0659
  773MOL0     H 1978   2.205   7.630   1.656  0.6363 -0.6570 -0.3331
  773MOL0     H 1979   2.460   7.710   1.504 -3.0959 -0.2476 -1.3892
  773MOL0     H 1980   2.413   7.798   1.641 -2.5573 -0.9316  1.4398
  773MOL0     H 1981   2.435   7.614   1.789  0.7954  0.8912  0.0248
  773MOL0     H 1982   2.579   7.614   1.698 -0.8815  1.4514  4.0486
  773MOL0     H 1983   2.361   7.390   1.653 -0.7590  0.6090 -1.6759
  773MOL0     H 1984   2.502   7.369   1.734 -1.7273 -0.1765  0.2242
  773MOL0     H 1985   2.477   7.474   1.438  0.8088 -1.5378 -0.8090
  773MOL0     H 1986   2.636   7.443   1.522  0.6295 -1.7662  2.9981
  773MOL0     H 1987   2.535   7.197   1.552  1.0366  0.3926  0.3995
  773MOL0     H 1988   2.624   7.256   1.415  0.9529 -1.1753  1.5234
  773MOL0     H 1989   2.266   7.186   1.553 -0.3140  0.6008 -0.6216
  773MOL0     H 1990   2.014   7.113   1.370 -0.9205  0.7661 -2.2228
  773MOL0     H 1991   2.013   7.259   1.254 -0.2054  2.3213  0.3602
  773MOL0     H 1992   2.020   7.404   1.442  4.7425 -1.7778 -3.0386
  773MOL0     H 1993   2.011   7.267   1.561 -0.7019 -0.9527  1.0354
  773MOL0     H 1994   1.776   7.322   1.359 -0.1053 -1.6138 -0.3491
  773MOL0     H 1995   1.784   7.195   1.486 -2.6897 -0.3745 -1.1444
  773MOL0     H 1996   1.660   7.424   1.533  1.3995  0.8857 -1.0812
  773MOL0     H 1997   1.828   7.478   1.553  0.7665 -0.4479 -0.3818
  773MOL0     H 1998   1.489   7.412   1.659  1.5768 -0.4882 -0.5638
  773MOL0     H 1999   1.288   7.272   1.682 -0.4072 -0.0992 -0.2283
  773MOL0     H 2000   1.031   7.042   1.982 -0.6831 -1.0018  0.8590
  773MOL0     H 2001   0.837   6.916   2.018  1.9692  2.3733  0.8941
  773MOL0     H 2002   0.758   6.584   1.721  0.7491 -1.5079  2.0922
  773MOL0     H 2003   0.646   6.709   1.661 -1.4298 -0.1199  1.5097
  773MOL0     H 2004   0.590   6.560   1.926  1.1799  2.2096 -0.2216
  773MOL0     H 2005   0.574   6.461   1.784  3.9096 -1.4505  4.0084
  773MOL0     H 2006   0.414   6.649   1.702  0.5746 -1.3692 -0.3832
  773MOL0     H 2007   0.424   6.723   1.859  2.9636 -0.0919  0.4178
  773MOL0     H 2008   0.216   6.610   1.848  1.1401  2.0122 -2.3043
  773MOL0     H 2009   0.301   6.464   1.811  1.4961 -0.0579  1.7232
  773MOL0     H 2010   0.409   6.476   2.038  2.4675  2.4047 -2.2306
  773MOL0     H 2011   0.237   6.466   2.058  0.5463  2.7730  3.0404
  773MOL0     H 2012   0.376   6.737   2.057 -4.2407 -0.3632 -5.7496
  773MOL0     H 2013   0.346   6.648   2.203 -2.0262  0.7238  1.7715
  773MOL0     H 2014   0.160   6.795   2.011  1.6342 -1.1488 -1.1887
  773MOL0     H 2015   0.093   6.663   2.121  1.9817 -1.4854  3.2721
  773MOL0     H 2016   0.252   6.912   2.209 -0.1600  0.2026  1.1673
  773MOL0     H 2017   0.183   6.798   2.310  1.1803  0.9921  0.5527
  773MOL0     H 2018   0.840   6.809   1.596  0.0528  2.3215 -1.5042
  773MOL0     H 2019   1.030   6.950   1.564  0.3926  3.1963  0.9855
  773MOL0     H 2020   1.537   6.933   1.744 -3.3144  0.2856  0.1127
  773MOL0     H 2021   1.748   7.096   1.732  1.1917  1.5201 -1.2166
  773MOL0     H 2022   1.877   7.598   1.826 -1.7009  1.2221  2.9074
  773MOL0     H 2023   1.639   7.577   1.900 -1.2117  0.5574 -0.8748
  773MOL0     H 2024   1.083   7.646   1.634  2.2162 -0.2164  0.1919
  773MOL0     H 2025   0.882   7.532   1.734  0.9785 -2.8621 -2.5885
  773MOL0     H 2026   0.862   7.344   2.161  0.8626 -1.1406  0.6951
  773MOL0     H 2027   0.982   7.253   2.076  1.4971  1.3060 -1.8913
  773MOL0     H 2028   0.766   7.166   1.955 -1.2923 -0.0935 -0.6216
  773MOL0     H 2029   0.802   7.121   2.128 -2.4705 -1.5187 -1.4803
  773MOL0     H 2030   0.594   7.307   2.019 -0.3046  1.2522  1.4353
  773MOL0     H 2031   0.632   7.302   2.188 -1.0744  0.3110  0.1601
  773MOL0     H 2032   0.557   7.067   2.011  2.7749  0.3643  0.5853
  773MOL0     H 2033   0.581   7.056   2.190  2.8543  2.2686  1.2935
  773MOL0     H 2034   0.190   7.217   2.158 -0.5687 -0.4737 -0.7525
  773MOL0     H 2035   1.130   7.401   2.059  2.3467  0.7749  0.3894
  773MOL0     H 2036   1.318   7.530   1.973 -0.4117 -0.2144  0.4689
  774MOL0     O 2037   0.772   9.099   7.395  0.8057 -0.0361  0.0346
  774MOL0     C 2038   0.803   9.219   7.391 -0.6347  0.7151  0.0595
  774MOL0     O 2039   0.735   9.311   7.320  0.6871 -0.4924  0.2213
  774MOL0     C 2040   0.628   9.271   7.244 -0.0840  1.0702  0.0398
  774MOL0     C 2041   0.634   9.306   7.103 -0.1299  0.0482  0.4351
  774MOL0     C 2042   0.534   9.285   7.017  0.4647  0.4900 -0.1971
  774MOL0     C 2043   0.421   9.215   7.058 -0.0629  0.5867  0.8762
  774MOL0     O 2044   0.330   9.186   6.961  0.5534 -0.0667 -0.4421
  774MOL0     C 2045   0.260   9.064   6.965  0.9528 -0.3732  0.2185
  774MOL0     C 2046   0.280   9.002   6.827  0.1864  0.4954  0.6147
  774MOL0     C 2047   0.201   8.874   6.809 -0.2834  1.4920 -0.3738
  774MOL0     C 2048   0.057   8.903   6.739 -0.9040  0.4648 -1.4650
  774MOL0     C 2049  -0.034   8.774   6.711 -0.2255 -0.3501 -0.1140
  774MOL0     C 2050  -0.165   8.807   6.646  0.0666  1.1692 -0.0525
  774MOL0     C 2051  -0.237   8.672   6.618  0.1065 -0.9273  0.1370
  774MOL0     C 2052  -0.371   8.699   6.539 -0.7110  0.0330 -0.0682
  774MOL0     N 2053  -0.459   8.589   6.559  0.0416 -0.3641 -0.6444
  774MOL0     C 2054  -0.418   8.459   6.528 -0.3784 -0.4910 -0.4479
  774MOL0     C 2055  -0.534   8.390   6.553  0.6622 -0.2027 -0.3982
  774MOL0     C 2056  -0.548   8.241   6.561  0.8339 -0.8819 -0.5246
  774MOL0     C 2057  -0.547   8.166   6.422  0.2321  0.9068 -0.4274
  774MOL0     C 2058  -0.609   8.019   6.421 -0.5999 -0.2626 -1.1347
  774MOL0     C 2059  -0.754   8.016   6.421  0.1122  0.8117  0.5200
  774MOL0     O 2060  -0.798   7.881   6.424 -0.3529 -1.0547 -0.0647
  774MOL0     C 2061  -0.939   7.869   6.417  1.0102 -0.8642 -0.3931
  774MOL0     C 2062  -0.987   7.740   6.395 -0.1684  0.0656  0.3527
  774MOL0     C 2063  -1.123   7.715   6.394  0.3889 -0.2704  0.1555
  774MOL0     C 2064  -1.217   7.813   6.402 -1.0179 -0.3015  0.9942
  774MOL0     C 2065  -1.355   7.775   6.397 -0.7942  0.3778  0.5335
  774MOL0     O 2066  -1.442   7.880   6.429 -0.1013 -0.8580 -0.0528
  774MOL0     C 2067  -1.568   7.862   6.429  0.0451 -0.4555 -0.6675
  774MOL0     C 2068  -1.635   7.884   6.310 -0.4209 -0.7265  0.0798
  774MOL0     C 2069  -1.769   7.872   6.301  0.1090  0.9527 -0.3144
  774MOL0     C 2070  -1.850   7.843   6.412  0.0363  0.5586  0.6946
  774MOL0     O 2071  -1.983   7.844   6.384 -0.4279  0.4162  0.5123
  774MOL0     C 2072  -2.064   7.798   6.485  0.3365  0.0254 -0.3593
  774MOL0     C 2073  -2.208   7.787   6.450 -0.0671  0.4291 -0.0468
  774MOL0     C 2074  -2.304   7.751   6.564 -0.0411  0.7087 -0.2349
  774MOL0     C 2075  -2.457   7.770   6.547 -0.2603 -0.7038 -0.8624
  774MOL0     C 2076  -2.540   7.772   6.681 -0.8934  0.1449  1.3888
  774MOL0     C 2077  -2.696   7.779   6.671 -0.2983  0.1967  0.5570
  774MOL0     C 2078  -2.751   7.912   6.632  0.3264  0.2418 -0.2533
  774MOL0     C 2079  -2.907   7.920   6.645  0.4384 -0.4099 -0.2270
  774MOL0    Cl 2080  -2.967   7.918   6.822  0.3579 -0.2139 -0.0062
  774MOL0     C 2081  -1.790   7.832   6.536  0.8144 -0.4083 -0.6590
  774MOL0     C 2082  -1.651   7.844   6.542  0.5591 -0.2357  0.8010
  774MOL0     O 2083  -1.382   7.655   6.378  0.9682 -0.2260 -0.7050
  774MOL0     C 2084  -1.167   7.946   6.423 -0.0433 -0.9481 -0.3598
  774MOL0     C 2085  -1.028   7.974   6.433  0.4613 -0.5033 -0.1105
  774MOL0     N 2086  -0.639   8.475   6.591  1.0310  0.2440 -0.2886
  774MOL0     N 2087  -0.584   8.594   6.596 -0.5264  0.0032 -0.2341
  774MOL0     C 2088   0.413   9.169   7.191  0.9089  0.4924 -0.8418
  774MOL0     C 2089   0.506   9.195   7.289  0.2183 -0.6790 -0.3110
  774MOL0     C 2090   0.899   9.271   7.480 -0.4731  0.2694 -0.3220
  774MOL0     C 2091   0.929   9.409   7.503  0.3164  0.2111  0.5968
  774MOL0     C 2092   1.012   9.460   7.602 -0.2890 -0.0846 -0.3689
  774MOL0     C 2093   1.071   9.362   7.693  0.6701  0.1543 -0.0953
  774MOL0     O 2094   1.138   9.408   7.799  0.0153 -0.0939 -0.0592
  774MOL0     C 2095   1.167   9.322   7.909  0.4181 -0.2218  0.0847
  774MOL0     C 2096   1.207   9.393   8.041  0.6832 -0.0982  0.1184
  774MOL0     C 2097   1.090   9.476   8.110  0.1021 -0.3111  0.2744
  774MOL0     C 2098   1.034   9.592   8.024  0.4872  0.0008 -0.0091
  774MOL0     C 2099   0.945   9.687   8.092 -0.2946  0.2342 -0.9838
  774MOL0     C 2100   0.867   9.777   8.124  0.2049 -0.6825 -0.4119
  774MOL0     C 2101   1.038   9.227   7.675  0.1590 -0.4455 -0.1539
  774MOL0     C 2102   0.961   9.181   7.562  0.8406 -0.5425  0.2073
  774MOL0     H 2103   0.724   9.362   7.078  0.3368  0.4084  2.6569
  774MOL0     H 2104   0.533   9.317   6.913 -1.5062  0.8286 -0.1247
  774MOL0     H 2105   0.155   9.084   6.988  1.3149  0.9202  0.8582
  774MOL0     H 2106   0.297   8.993   7.039 -0.4722  0.0080  1.3322
  774MOL0     H 2107   0.389   8.992   6.832  0.3185  0.8195 -1.1451
  774MOL0     H 2108   0.258   9.067   6.742 -0.1383 -0.3163  0.0577
  774MOL0     H 2109   0.172   8.830   6.906 -3.6942  3.8250 -0.1909
  774MOL0     H 2110   0.260   8.797   6.758 -0.2519 -0.1738  1.9583
  774MOL0     H 2111  -0.006   8.970   6.798 -1.8442 -2.8224  1.6945
  774MOL0     H 2112   0.078   8.951   6.643  1.1321  1.6681 -0.4861
  774MOL0     H 2113  -0.047   8.719   6.804  2.5991 -2.1122 -0.6123
  774MOL0     H 2114   0.010   8.705   6.638  2.4288 -0.7571  1.7280
  774MOL0     H 2115  -0.154   8.857   6.550 -2.4703 -1.5973 -1.9370
  774MOL0     H 2116  -0.222   8.874   6.712 -0.1948  1.8288 -0.9354
  774MOL0     H 2117  -0.178   8.608   6.552 -0.4853 -1.6827  0.3287
  774MOL0     H 2118  -0.253   8.618   6.711 -3.0378  0.7257  0.6978
  774MOL0     H 2119  -0.363   8.721   6.432 -2.8144  0.6189 -0.1472
  774MOL0     H 2120  -0.411   8.791   6.581  0.5796 -0.2713  1.9441
  774MOL0     H 2121  -0.323   8.421   6.493  0.0957 -1.3025  1.5534
  774MOL0     H 2122  -0.637   8.221   6.622  0.6536 -1.3231 -0.9277
  774MOL0     H 2123  -0.467   8.215   6.630  0.9742  0.8958  0.0448
  774MOL0     H 2124  -0.448   8.165   6.376  0.3817  1.4221 -0.1289
  774MOL0     H 2125  -0.605   8.234   6.361  1.7140  3.2000  0.5858
  774MOL0     H 2126  -0.566   7.969   6.334 -1.0933 -1.0083 -0.9634
  774MOL0     H 2127  -0.577   7.958   6.506  0.1576  0.0966 -1.1502
  774MOL0     H 2128  -0.782   8.066   6.328 -0.7448  2.2847  1.5085
  774MOL0     H 2129  -0.792   8.077   6.504 -1.5404 -0.2400  0.5892
  774MOL0     H 2130  -0.914   7.660   6.397  0.0025  0.2294  1.4353
  774MOL0     H 2131  -1.151   7.610   6.388  0.6815 -0.2840 -1.4343
  774MOL0     H 2132  -1.568   7.904   6.227  3.3850 -1.0681  2.8515
  774MOL0     H 2133  -1.818   7.889   6.206  0.1448 -0.1284 -0.5271
  774MOL0     H 2134  -2.039   7.863   6.569 -0.3539  0.6034 -0.5956
  774MOL0     H 2135  -2.031   7.697   6.512  1.3359 -0.3787 -2.7971
  774MOL0     H 2136  -2.209   7.714   6.368  0.1767  0.4009 -0.0260
  774MOL0     H 2137  -2.247   7.878   6.403 -1.0648 -0.6706 -1.4424
  774MOL0     H 2138  -2.285   7.813   6.652 -1.9992 -1.3143  1.7182
  774MOL0     H 2139  -2.269   7.650   6.585 -0.8295  0.6205  0.6728
  774MOL0     H 2140  -2.469   7.866   6.496  0.5929 -0.2278 -0.1984
  774MOL0     H 2141  -2.493   7.694   6.477  0.4327 -1.5572 -0.3131
  774MOL0     H 2142  -2.515   7.866   6.730  1.1830  1.1876 -1.3833
  774MOL0     H 2143  -2.509   7.683   6.737  0.7414 -1.3420 -1.6368
  774MOL0     H 2144  -2.728   7.758   6.773 -1.0624  0.9273  0.4776
  774MOL0     H 2145  -2.726   7.703   6.599  1.5482 -2.9426  2.8952
  774MOL0     H 2146  -2.705   7.993   6.690  2.1743 -2.0397  1.7007
  774MOL0     H 2147  -2.722   7.931   6.529 -2.7217 -0.2859 -1.3279
  774MOL0     H 2148  -2.955   7.831   6.605  0.6392 -0.5905 -0.0680
  774MOL0     H 2149  -2.951   8.016   6.617  2.0504  0.7166  0.8892
  774MOL0     H 2150  -1.844   7.808   6.627  3.4030 -1.6317  0.6688
  774MOL0     H 2151  -1.598   7.833   6.636  3.0344  2.3034 -0.1577
  774MOL0     H 2152  -1.237   8.027   6.438  0.3304 -0.3331 -1.7642
  774MOL0     H 2153  -1.003   8.080   6.430 -1.7431  0.0437 -2.3478
  774MOL0     H 2154   0.327   9.126   7.241 -0.8058  0.7883 -3.3835
  774MOL0     H 2155   0.491   9.174   7.394  0.1572 -0.8072 -0.3456
  774MOL0     H 2156   0.867   9.480   7.450  0.6005 -0.3906 -0.5785
  774MOL0     H 2157   1.009   9.565   7.630 -0.4988 -0.3991  0.8199
  774MOL0     H 2158   1.246   9.256   7.872  2.3013  1.7384  0.3917
  774MOL0     H 2159   1.073   9.270   7.929  0.2467 -1.0621 -2.5480
  774MOL0     H 2160   1.243   9.320   8.113  2.8049  0.6991 -0.0444
  774MOL0     H 2161   1.284   9.465   8.012  1.0833 -0.6024 -0.0864
  774MOL0     H 2162   1.115   9.522   8.206 -2.4822  1.2786  0.2835
  774MOL0     H 2163   1.002   9.412   8.122 -0.4183  0.2327 -0.5630
  774MOL0     H 2164   1.109   9.652   7.971  1.6853 -1.9473 -0.6262
  774MOL0     H 2165   0.978   9.543   7.944  1.0051 -0.0232 -0.3656
  774MOL0     H 2166   0.794   9.856   8.124  2.0960  1.1497  0.6314
  774MOL0     H 2167   1.072   9.149   7.743 -3.3379 -3.0263 -1.1201
  774MOL0     H 2168   0.939   9.075   7.562  0.7436 -0.5309  0.8941
  775MOL0     O 2169   3.542   2.120   8.980 -0.3732  1.0367  0.8693
  775MOL0     C 2170   3.582   2.158   9.093 -0.2053 -0.1465  0.0568
  775MOL0     O 2171   3.510   2.248   9.182 -1.0453  0.1708  0.1693
  775MOL0     C 2172   3.394   2.310   9.159 -0.1142 -0.5055  0.0544
  775MOL0     C 2173   3.304   2.272   9.066 -0.1889 -0.1100  0.0348
  775MOL0     C 2174   3.192   2.356   9.045  0.7412 -0.2083 -0.1842
  775MOL0     C 2175   3.163   2.464   9.121  0.7340  0.4348 -0.2929
  775MOL0     O 2176   3.045   2.536   9.099 -0.3244  0.3483  0.3600
  775MOL0     C 2177   2.928   2.496   9.170  0.3354  0.2075  0.5065
  775MOL0     C 2178   2.851   2.378   9.091  1.0588  0.2765  0.3981
  775MOL0     C 2179   2.704   2.349   9.136  0.0199  0.3035  0.0263
  775MOL0     C 2180   2.626   2.275   9.015 -0.0050 -0.5007 -0.5004
  775MOL0     C 2181   2.572   2.369   8.899 -0.1037  0.8206 -0.0464
  775MOL0     C 2182   2.501   2.284   8.791 -0.5464 -0.2662  0.0772
  775MOL0     C 2183   2.380   2.198   8.833 -1.2012  0.0158  0.1777
  775MOL0     C 2184   2.419   2.052   8.851 -0.4037 -0.0345  0.2173
  775MOL0     N 2185   2.321   1.974   8.932 -0.0841 -0.4479 -0.2677
  775MOL0     C 2186   2.336   1.945   9.063  0.4395  0.2514 -1.6995
  775MOL0     C 2187   2.215   1.902   9.096  0.1479 -0.2924 -0.8750
  775MOL0     C 2188   2.183   1.858   9.237  0.7088 -0.3689  0.4406
  775MOL0     C 2189   2.136   1.967   9.331 -0.3374  0.2577 -0.1200
  775MOL0     C 2190   2.004   1.919   9.391  0.1294 -0.7279 -0.2446
  775MOL0     C 2191   1.889   1.938   9.299 -0.2195 -0.6556 -0.3896
  775MOL0     O 2192   1.875   2.078   9.275  0.0813 -0.0641 -0.8018
  775MOL0     C 2193   1.767   2.111   9.196  0.6514  0.9827 -0.3770
  775MOL0     C 2194   1.665   2.026   9.152 -0.0525 -0.7131  0.3588
  775MOL0     C 2195   1.568   2.087   9.074 -0.4099 -0.1810 -0.0867
  775MOL0     C 2196   1.569   2.221   9.040 -0.3398 -0.0702  0.2991
  775MOL0     C 2197   1.467   2.274   8.947 -0.4158 -0.3881  0.7527
  775MOL0     O 2198   1.449   2.412   8.954 -0.5514 -0.2356 -0.7210
  775MOL0     C 2199   1.325   2.471   8.926 -0.3502 -0.9147 -0.6869
  775MOL0     C 2200   1.194   2.409   8.914  0.4031  0.3253 -0.5550
  775MOL0     C 2201   1.077   2.483   8.901 -0.3318 -0.4865 -0.3984
  775MOL0     C 2202   1.083   2.624   8.888 -0.6154  0.5370  0.5171
  775MOL0     O 2203   0.981   2.709   8.877 -0.0817 -0.4351 -0.2496
  775MOL0     C 2204   0.856   2.652   8.823 -0.7240 -0.5348 -0.6555
  775MOL0     C 2205   0.782   2.774   8.760  0.2497 -0.0834 -0.6849
  775MOL0     C 2206   0.636   2.759   8.735 -0.9473  0.5271  0.0248
  775MOL0     C 2207   0.572   2.892   8.683  0.1718 -0.3217  0.8169
  775MOL0     C 2208   0.422   2.872   8.649  0.3750  0.3624 -0.2927
  775MOL0     C 2209   0.345   2.993   8.651  0.0023  0.3756  0.0161
  775MOL0     C 2210   0.192   2.952   8.666 -0.1337  0.3799  0.3905
  775MOL0     C 2211   0.112   3.082   8.671 -0.2780 -0.4498  0.0956
  775MOL0    Cl 2212  -0.063   3.033   8.669  0.2272  0.1276 -0.5506
  775MOL0     C 2213   1.212   2.683   8.897  0.2832  0.2670 -0.0784
  775MOL0     C 2214   1.329   2.612   8.910 -0.7393  0.4744 -0.2527
  775MOL0     O 2215   1.408   2.203   8.866 -0.2740  0.4069  0.3242
  775MOL0     C 2216   1.664   2.305   9.087 -0.9533  0.3038  0.2057
  775MOL0     C 2217   1.771   2.244   9.158  0.5624  0.4027  0.1446
  775MOL0     N 2218   2.120   1.903   8.993 -0.5230 -0.2480  0.6631
  775MOL0     N 2219   2.191   1.939   8.889 -0.1999 -0.4241 -0.4582
  775MOL0     C 2220   3.257   2.507   9.213 -0.0678  0.4687  0.4951
  775MOL0     C 2221   3.380   2.436   9.227  0.4427  0.1298 -0.1573
  775MOL0     C 2222   3.714   2.106   9.148 -0.0923 -0.4156 -0.1094
  775MOL0     C 2223   3.754   2.135   9.276  0.5084 -0.1532 -0.1409
  775MOL0     C 2224   3.861   2.066   9.326  0.6263 -0.0112 -0.6908
  775MOL0     C 2225   3.939   1.980   9.247  0.1035 -0.4841 -0.3163
  775MOL0     O 2226   4.042   1.906   9.307  0.7692 -0.2619 -0.5054
  775MOL0     C 2227   4.165   1.938   9.239 -0.4717  0.3843 -0.3849
  775MOL0     C 2228   4.277   1.849   9.307 -0.4761 -0.8580  0.2665
  775MOL0     C 2229   4.317   1.900   9.448  0.1164 -0.0440  0.8518
  775MOL0     C 2230   4.452   1.827   9.500  0.2871  0.0614 -0.7295
  775MOL0     C 2231   4.401   1.720   9.587 -0.6568  1.1649  0.2286
  775MOL0     C 2232   4.367   1.625   9.647  0.9672 -0.1656 -0.4760
  775MOL0     C 2233   3.910   1.955   9.118  0.1910 -0.1014 -0.9266
  775MOL0     C 2234   3.797   2.019   9.069  0.6010  0.0684  0.3248
  775MOL0     H 2235   3.320   2.182   9.007  0.5681 -0.2578  0.4545
  775MOL0     H 2236   3.118   2.339   8.968 -0.4208  0.3247  0.7748
  775MOL0     H 2237   2.858   2.580   9.172  1.5036  1.3135 -1.5668
  775MOL0     H 2238   2.950   2.468   9.273  2.9656 -0.2954 -0.1319
  775MOL0     H 2239   2.911   2.287   9.099  1.7041  0.5844 -0.7852
  775MOL0     H 2240   2.864   2.395   8.984  0.0029 -1.9186 -0.1485
  775MOL0     H 2241   2.649   2.442   9.156 -0.0824  0.3466 -0.4394
  775MOL0     H 2242   2.709   2.277   9.218  2.2563 -1.1302 -1.2635
  775MOL0     H 2243   2.688   2.196   8.972  0.6183  0.8576 -2.2247
  775MOL0     H 2244   2.537   2.228   9.058 -1.5863  1.1213 -1.8113
  775MOL0     H 2245   2.658   2.421   8.856  1.5012 -0.7605  1.1524
  775MOL0     H 2246   2.504   2.444   8.941 -3.1883 -1.2534 -0.9827
  775MOL0     H 2247   2.581   2.230   8.740  0.6151  2.3811 -1.0981
  775MOL0     H 2248   2.474   2.353   8.711  3.5888 -1.3429 -2.5975
  775MOL0     H 2249   2.324   2.224   8.924  0.7562 -0.1822  1.4922
  775MOL0     H 2250   2.310   2.195   8.749  0.0386 -2.1624 -0.8780
  775MOL0     H 2251   2.510   2.063   8.911 -0.3840  0.4703  0.0940
  775MOL0     H 2252   2.441   2.004   8.755 -2.8263  0.7799 -0.8069
  775MOL0     H 2253   2.417   1.971   9.132  2.1226  0.5647 -3.7010
  775MOL0     H 2254   2.271   1.810   9.283  2.2968 -0.1432 -2.1753
  775MOL0     H 2255   2.119   1.770   9.229  3.0500 -2.3345  1.8389
  775MOL0     H 2256   2.111   2.056   9.273  0.0449  1.0223  0.8476
  775MOL0     H 2257   2.217   1.991   9.402  0.2047  0.2670 -0.7301
  775MOL0     H 2258   2.034   1.816   9.414  0.6372 -0.5867 -0.2639
  775MOL0     H 2259   1.989   1.981   9.479  2.4811  0.6484 -0.7116
  775MOL0     H 2260   1.804   1.881   9.337  0.2505 -2.0460 -1.3312
  775MOL0     H 2261   1.912   1.907   9.197  2.3112  2.5695 -0.9896
  775MOL0     H 2262   1.662   1.922   9.183  1.2707 -0.6269  0.8487
  775MOL0     H 2263   1.491   2.025   9.030 -0.5357 -0.1552  0.0962
  775MOL0     H 2264   1.185   2.302   8.929  0.4924  0.2551 -0.9726
  775MOL0     H 2265   0.982   2.435   8.919 -1.0292  1.3061  0.9606
  775MOL0     H 2266   0.793   2.608   8.901 -0.9173  0.1092 -0.4370
  775MOL0     H 2267   0.874   2.572   8.751 -2.0493  0.4782 -2.1901
  775MOL0     H 2268   0.835   2.802   8.668  2.7663  2.1869  1.2922
  775MOL0     H 2269   0.786   2.864   8.822  0.9456  0.7118 -1.8421
  775MOL0     H 2270   0.588   2.733   8.830 -1.2183  1.1598  0.0683
  775MOL0     H 2271   0.636   2.672   8.668  4.2634  3.2730 -4.3618
  775MOL0     H 2272   0.586   2.971   8.758  0.7525 -1.8278  2.3694
  775MOL0     H 2273   0.621   2.919   8.589 -2.1298 -0.6940 -0.5785
  775MOL0     H 2274   0.371   2.801   8.715 -0.6658 -0.6849 -2.1372
  775MOL0     H 2275   0.410   2.822   8.553  0.5356  1.1751 -0.7514
  775MOL0     H 2276   0.363   3.048   8.558  0.4893  0.9382  0.4293
  775MOL0     H 2277   0.379   3.050   8.739 -1.0174  2.6507 -0.9781
  775MOL0     H 2278   0.170   2.896   8.575  1.3891  3.7464 -2.3035
  775MOL0     H 2279   0.179   2.889   8.755  0.5079  0.9337  0.8954
  775MOL0     H 2280   0.150   3.151   8.595  0.0796  0.8758  1.4317
  775MOL0     H 2281   0.122   3.137   8.765 -1.5517 -0.4984  0.2789
  775MOL0     H 2282   1.219   2.791   8.895 -1.0848  0.4068  1.2211
  775MOL0     H 2283   1.416   2.677   8.912 -1.3086  1.3977 -2.5267
  775MOL0     H 2284   1.663   2.409   9.059 -2.0084  0.7251  1.6742
  775MOL0     H 2285   1.860   2.300   9.186  0.8188  0.8586 -1.5129
  775MOL0     H 2286   3.229   2.600   9.260  0.6726  2.8807 -3.4191
  775MOL0     H 2287   3.441   2.473   9.309 -0.8471 -1.5012  1.6258
  775MOL0     H 2288   3.697   2.197   9.346  1.2808  0.0178  0.3475
  775MOL0     H 2289   3.868   2.067   9.435 -4.8303 -4.8728  0.1935
  775MOL0     H 2290   4.187   2.044   9.254  0.4322  0.4426 -1.8842
  775MOL0     H 2291   4.161   1.934   9.129 -1.9075  0.5132 -0.3581
  775MOL0     H 2292   4.240   1.746   9.318 -1.8696 -0.3059  0.9992
  775MOL0     H 2293   4.353   1.845   9.229 -1.5962  2.0473 -1.0862
  775MOL0     H 2294   4.230   1.879   9.511  1.1437  1.3092  2.8188
  775MOL0     H 2295   4.329   2.009   9.449 -1.7870  0.2162  0.4962
  775MOL0     H 2296   4.516   1.803   9.414  0.6714 -2.5437  0.1906
  775MOL0     H 2297   4.518   1.886   9.565 -0.1231  0.0874 -0.3339
  775MOL0     H 2298   4.336   1.547   9.714  1.8212  1.2618  1.7046
  775MOL0     H 2299   3.953   1.881   9.051  1.6743  0.9820 -1.2193
  775MOL0     H 2300   3.760   1.995   8.970  0.2659 -1.3795  0.7688
  776MOL0     O 2301   6.626   4.475  11.167 -0.8608  0.4909 -0.2268
  776MOL0     C 2302   6.616   4.586  11.224  1.0906 -0.0872  0.1588
  776MOL0     O 2303   6.496   4.638  11.269  0.6738 -0.6010 -0.0205
  776MOL0     C 2304   6.377   4.585  11.237  0.6057 -0.1846  0.3066
  776MOL0     C 2305   6.336   4.450  11.252 -0.2977 -0.3889  0.0364
  776MOL0     C 2306   6.208   4.409  11.216  0.4156 -1.1577 -0.7189
  776MOL0     C 2307   6.119   4.503  11.159  0.2929  0.1044  0.5952
  776MOL0     O 2308   5.987   4.479  11.129 -0.1964  0.2952 -0.4378
  776MOL0     C 2309   5.942   4.348  11.139  0.5007  0.4607  0.8879
  776MOL0     C 2310   5.801   4.350  11.070 -0.0297  0.2477 -0.2821
  776MOL0     C 2311   5.757   4.206  11.036  0.0933  0.1431 -0.4571
  776MOL0     C 2312   5.603   4.185  11.065  0.1666  0.3521 -0.8033
  776MOL0     C 2313   5.498   4.272  10.980  0.1859  0.1060 -1.6408
  776MOL0     C 2314   5.514   4.269  10.827  0.3158 -0.2309 -0.1418
  776MOL0     C 2315   5.387   4.341  10.770  0.2095 -1.1910  0.1182
  776MOL0     C 2316   5.274   4.244  10.760  0.9633  0.4125 -0.2492
  776MOL0     N 2317   5.152   4.288  10.685 -0.8573 -0.0449  0.2604
  776MOL0     C 2318   5.044   4.356  10.738  0.3050  0.0799 -0.4049
  776MOL0     C 2319   4.953   4.350  10.633  0.2497 -0.5184 -0.4419
  776MOL0     C 2320   4.805   4.396  10.631 -0.6585  0.5967 -0.1973
  776MOL0     C 2321   4.764   4.429  10.490 -0.4728 -0.2535  0.1076
  776MOL0     C 2322   4.624   4.490  10.485  0.2083  0.2357 -0.4794
  776MOL0     C 2323   4.590   4.487  10.337  0.6608  0.0218  0.4556
  776MOL0     O 2324   4.473   4.562  10.292 -0.3869  0.3062 -0.0107
  776MOL0     C 2325   4.353   4.504  10.304 -0.0281  0.6631 -1.0022
  776MOL0     C 2326   4.250   4.595  10.300  0.3639  0.3571  0.3415
  776MOL0     C 2327   4.117   4.554  10.303  0.3142  0.6725 -0.9616
  776MOL0     C 2328   4.084   4.416  10.296  0.0047 -0.6843 -0.5249
  776MOL0     C 2329   3.937   4.369  10.286 -0.0695 -0.1514  0.6629
  776MOL0     O 2330   3.915   4.248  10.325  1.1460  0.2786 -0.2967
  776MOL0     C 2331   3.786   4.204  10.330 -0.3337  0.1858 -0.3011
  776MOL0     C 2332   3.723   4.107  10.249  0.4495 -0.7390  0.7329
  776MOL0     C 2333   3.595   4.073  10.261 -0.0075 -0.0611  0.5256
  776MOL0     C 2334   3.522   4.128  10.368 -0.2631  0.2838  0.2956
  776MOL0     O 2335   3.395   4.091  10.385 -0.1688 -0.7626 -0.1785
  776MOL0     C 2336   3.300   4.144  10.294  0.9195 -0.7039  0.0424
  776MOL0     C 2337   3.268   4.287  10.322  0.3086  0.0541  0.3606
  776MOL0     C 2338   3.137   4.334  10.242  1.0418  0.9993  0.0621
  776MOL0     C 2339   3.131   4.480  10.232 -0.7649 -0.2327  0.1005
  776MOL0     C 2340   3.016   4.528  10.148  0.7636  0.5413  0.4843
  776MOL0     C 2341   2.888   4.466  10.192  0.6168 -0.8593 -1.0061
  776MOL0     C 2342   2.770   4.508  10.104 -1.2033  0.1449 -0.5426
  776MOL0     C 2343   2.707   4.642  10.141 -0.3804  0.3555 -0.1328
  776MOL0    Cl 2344   2.587   4.676  10.025  0.2727 -0.3252 -0.4327
  776MOL0     C 2345   3.574   4.212  10.461  0.7164  0.1035  0.5294
  776MOL0     C 2346   3.707   4.252  10.436 -1.0723 -0.2125 -0.1406
  776MOL0     O 2347   3.849   4.449  10.240  0.1087  0.5054  0.1223
  776MOL0     C 2348   4.189   4.323  10.314 -0.1461 -0.0127  0.3131
  776MOL0     C 2349   4.319   4.368  10.320 -0.0640 -0.4292 -0.4618
  776MOL0     N 2350   5.014   4.287  10.532 -0.3134 -0.4072  0.8090
  776MOL0     N 2351   5.137   4.261  10.561  0.2190 -0.0326  0.2544
  776MOL0     C 2352   6.154   4.641  11.141  0.2615  0.5786 -0.2429
  776MOL0     C 2353   6.284   4.684  11.179  0.4415  0.1568  0.1054
  776MOL0     C 2354   6.742   4.666  11.236 -0.3103 -0.7787  0.1253
  776MOL0     C 2355   6.869   4.608  11.224  0.7463 -0.0530  0.1215
  776MOL0     C 2356   6.986   4.680  11.240  0.5329  0.5986  0.2272
  776MOL0     C 2357   6.980   4.810  11.293 -0.9756 -0.1886 -0.4920
  776MOL0     O 2358   7.084   4.896  11.313  0.2301 -0.0403  1.0969
  776MOL0     C 2359   7.171   4.904  11.196  0.7094 -0.0543 -0.5033
  776MOL0     C 2360   7.216   5.045  11.162  0.1544  0.5162 -0.9346
  776MOL0     C 2361   7.327   5.050  11.062 -0.3822  0.1939  1.1834
  776MOL0     C 2362   7.461   5.004  11.109  0.0172 -0.2005  0.0896
  776MOL0     C 2363   7.570   5.036  11.019 -0.0563  0.4456  0.0616
  776MOL0     C 2364   7.674   5.035  10.955 -0.4143 -0.3674 -0.5152
  776MOL0     C 2365   6.853   4.865  11.320  0.2068 -0.2584 -0.3323
  776MOL0     C 2366   6.735   4.795  11.282 -0.3406  0.0124  0.8728
  776MOL0     H 2367   6.403   4.386  11.309  0.0888  2.2495  2.7863
  776MOL0     H 2368   6.173   4.313  11.254  2.0435 -0.5972  2.5489
  776MOL0     H 2369   5.949   4.311  11.242  0.7052  0.1343  0.7578
  776MOL0     H 2370   6.005   4.271  11.094 -0.1741 -1.0258  2.3403
  776MOL0     H 2371   5.811   4.416  10.983 -0.3399 -0.8136 -1.1344
  776MOL0     H 2372   5.728   4.401  11.135  3.0969  3.8703  0.7883
  776MOL0     H 2373   5.811   4.139  11.104  0.9410  0.0475 -1.2035
  776MOL0     H 2374   5.804   4.178  10.941  1.3468  2.1487 -0.4865
  776MOL0     H 2375   5.581   4.079  11.054 -1.1999  0.5730 -0.4123
  776MOL0     H 2376   5.583   4.196  11.172 -3.9128 -3.6980 -0.8605
  776MOL0     H 2377   5.515   4.374  11.015  2.3685 -0.7997  0.1685
  776MOL0     H 2378   5.401   4.248  11.023  0.7202  1.3818  0.4008
  776MOL0     H 2379   5.524   4.167  10.787 -0.1440  0.8523 -3.3280
  776MOL0     H 2380   5.605   4.323  10.800  0.5857 -0.1924  0.7969
  776MOL0     H 2381   5.355   4.427  10.829  1.1031 -0.9864  0.3077
  776MOL0     H 2382   5.402   4.374  10.667  3.6470  2.1922  1.4963
  776MOL0     H 2383   5.248   4.201  10.858 -3.1105  0.1004 -1.3069
  776MOL0     H 2384   5.312   4.166  10.693 -1.5055 -0.7639 -0.3861
  776MOL0     H 2385   5.036   4.413  10.831  0.5447  0.5036 -0.6389
  776MOL0     H 2386   4.814   4.486  10.694  0.0341  0.7665 -0.5285
  776MOL0     H 2387   4.739   4.324  10.680  0.5462  0.1703  0.8542
  776MOL0     H 2388   4.773   4.339  10.428  3.0439  0.0408  0.0347
  776MOL0     H 2389   4.834   4.503  10.451 -0.5910 -0.3546 -0.3090
  776MOL0     H 2390   4.556   4.428  10.544  0.2037 -1.1036 -1.8649
  776MOL0     H 2391   4.625   4.593  10.525  0.0574  0.7477 -1.7665
  776MOL0     H 2392   4.580   4.379  10.322 -0.2040  0.1333  0.1909
  776MOL0     H 2393   4.670   4.518  10.269  2.5047 -1.0194  2.0442
  776MOL0     H 2394   4.274   4.701  10.296  1.7060  0.2718  3.1714
  776MOL0     H 2395   4.044   4.633  10.308 -0.5127 -0.1730  2.3097
  776MOL0     H 2396   3.769   4.062  10.162 -4.8343 -0.9865 -2.3331
  776MOL0     H 2397   3.554   4.005  10.188  1.4434 -0.1664 -0.2414
  776MOL0     H 2398   3.207   4.087  10.301 -1.4170  2.8118  0.5918
  776MOL0     H 2399   3.342   4.155  10.194  3.0936  1.1280  1.0465
  776MOL0     H 2400   3.360   4.334  10.287  1.2259 -3.0933 -1.8348
  776MOL0     H 2401   3.250   4.306  10.428 -0.4925 -1.2673  0.4788
  776MOL0     H 2402   3.058   4.290  10.303 -0.1831  0.9080 -1.5425
  776MOL0     H 2403   3.123   4.294  10.141 -1.4564 -0.4604  0.9100
  776MOL0     H 2404   3.132   4.525  10.332 -2.7065 -0.9956  0.4916
  776MOL0     H 2405   3.226   4.518  10.192 -1.1959  0.5638 -0.1880
  776MOL0     H 2406   3.036   4.510  10.042  0.9678  2.3687  0.1739
  776MOL0     H 2407   3.014   4.637  10.156 -0.4682  0.4033  3.1176
  776MOL0     H 2408   2.869   4.487  10.298  4.1492 -1.2580 -0.1668
  776MOL0     H 2409   2.895   4.358  10.176  0.0108 -1.6169  2.9317
  776MOL0     H 2410   2.815   4.515  10.004  3.2357 -0.4874  1.1578
  776MOL0     H 2411   2.691   4.434  10.116 -0.4298 -0.4922  0.8423
  776MOL0     H 2412   2.783   4.719  10.160  0.5130 -0.9330  1.8447
  776MOL0     H 2413   2.654   4.638  10.236  0.7714  0.5648  0.5401
  776MOL0     H 2414   3.515   4.244  10.546  0.9167  4.2161 -0.6908
  776MOL0     H 2415   3.739   4.310  10.522  0.5381 -0.7639 -0.3314
  776MOL0     H 2416   4.179   4.215  10.315  1.5876 -0.2303 -1.0160
  776MOL0     H 2417   4.390   4.286  10.327  1.0201  0.5914  1.4366
  776MOL0     H 2418   6.078   4.715  11.117  0.5962  0.7315 -0.8288
  776MOL0     H 2419   6.321   4.785  11.162 -2.0006  0.8031 -2.1864
  776MOL0     H 2420   6.874   4.508  11.180  1.5693 -0.3158  0.7855
  776MOL0     H 2421   7.081   4.630  11.219  0.9080  0.0609  2.8024
  776MOL0     H 2422   7.125   4.862  11.107 -1.5238 -2.3092  1.5562
  776MOL0     H 2423   7.256   4.838  11.219  2.2387  1.4149 -1.6803
  776MOL0     H 2424   7.132   5.095  11.114  1.1962  2.2607 -1.0512
  776MOL0     H 2425   7.236   5.105  11.251  2.3801 -0.1802 -0.8850
  776MOL0     H 2426   7.326   5.158  11.042  0.8395  0.1766  0.9125
  776MOL0     H 2427   7.296   4.999  10.971 -1.3536 -0.2270  1.7395
  776MOL0     H 2428   7.481   5.061  11.200 -1.3428 -0.1989  0.4197
  776MOL0     H 2429   7.464   4.902  11.150 -0.7011 -0.0880  0.4341
  776MOL0     H 2430   7.773   5.044  10.917  2.3714 -2.1449  5.2356
  776MOL0     H 2431   6.856   4.964  11.364 -1.8285  1.0550 -2.8873
  776MOL0     H 2432   6.639   4.836  11.314 -0.6812 -1.0720  1.2993
  777MOL0     O 2433   1.454   5.085   9.860 -0.2415 -0.1836 -0.3703
  777MOL0     C 2434   1.440   5.150   9.961 -0.7726 -0.0366  0.2306
  777MOL0     O 2435   1.328   5.232   9.984  0.0909  0.0411  0.8026
  777MOL0     C 2436   1.228   5.280   9.891 -0.5580 -0.2507 -1.3376
  777MOL0     C 2437   1.146   5.381   9.945  0.2144 -0.6614  0.4782
  777MOL0     C 2438   1.050   5.454   9.863 -0.2032  0.3432 -0.9746
  777MOL0     C 2439   1.033   5.406   9.732 -0.4133  0.2367  0.8064
  777MOL0     O 2440   0.949   5.475   9.651 -0.1978 -0.8113 -0.1504
  777MOL0     C 2441   0.978   5.487   9.511 -0.2649  0.2213  0.2178
  777MOL0     C 2442   0.854   5.564   9.454  0.1997  0.8894 -0.0548
  777MOL0     C 2443   0.721   5.469   9.428 -1.0062  0.1756  0.6369
  777MOL0     C 2444   0.614   5.565   9.369  0.3627  0.2948 -0.0652
  777MOL0     C 2445   0.580   5.674   9.464  0.2646 -0.1480  0.1604
  777MOL0     C 2446   0.456   5.752   9.428 -0.1434  0.7967 -0.4864
  777MOL0     C 2447   0.432   5.861   9.530  0.4109 -0.4238 -0.4736
  777MOL0     C 2448   0.349   5.971   9.476  0.3918 -0.6912 -0.0040
  777MOL0     N 2449   0.208   5.935   9.507 -0.5478 -0.2517  0.8749
  777MOL0     C 2450   0.121   5.995   9.597 -0.6627 -0.0898  0.0900
  777MOL0     C 2451   0.000   5.939   9.564 -0.7248 -1.0781  0.1879
  777MOL0     C 2452  -0.123   5.989   9.635 -0.5539 -0.6261 -0.5355
  777MOL0     C 2453  -0.238   5.880   9.644  0.6004  0.0736 -0.1463
  777MOL0     C 2454  -0.352   5.927   9.727 -0.0064  0.0602  0.3737
  777MOL0     C 2455  -0.409   6.054   9.670  0.4172 -0.6685 -0.3410
  777MOL0     O 2456  -0.545   6.080   9.710 -0.2187  0.9531 -0.2255
  777MOL0     C 2457  -0.644   6.020   9.637  0.4144 -0.6534  0.3626
  777MOL0     C 2458  -0.632   5.933   9.521 -0.1820  0.2602 -0.3466
  777MOL0     C 2459  -0.739   5.872   9.470 -0.3486 -0.4239 -0.2880
  777MOL0     C 2460  -0.860   5.875   9.545 -0.1501 -0.6067  0.5288
  777MOL0     C 2461  -0.971   5.799   9.490 -0.2169 -0.0012 -0.0637
  777MOL0     O 2462  -1.088   5.844   9.537 -0.2623  0.0114  0.2283
  777MOL0     C 2463  -1.218   5.812   9.493 -0.0561  0.8928 -0.4326
  777MOL0     C 2464  -1.320   5.802   9.595  0.1778  0.2655 -0.3215
  777MOL0     C 2465  -1.452   5.796   9.552 -0.0745  0.7071  0.0136
  777MOL0     C 2466  -1.484   5.807   9.412  0.0090 -0.0695  0.2846
  777MOL0     O 2467  -1.618   5.787   9.387 -0.0293  0.0413 -0.2657
  777MOL0     C 2468  -1.663   5.811   9.248  0.2155  0.0773 -0.1361
  777MOL0     C 2469  -1.818   5.822   9.257  0.3574 -0.2820 -0.2933
  777MOL0     C 2470  -1.863   5.934   9.358 -0.1815  0.7285 -0.5882
  777MOL0     C 2471  -2.015   5.962   9.361 -0.6525 -0.3984  0.5251
  777MOL0     C 2472  -2.076   5.993   9.221 -0.1396 -0.3120 -0.4681
  777MOL0     C 2473  -2.209   6.067   9.239  0.0277 -0.3866  0.5041
  777MOL0     C 2474  -2.268   6.086   9.095  1.1548  0.2812  0.5737
  777MOL0     C 2475  -2.371   5.971   9.069  1.1287 -0.0823  0.2056
  777MOL0    Cl 2476  -2.513   6.033   9.160 -0.0122  0.2565 -0.0827
  777MOL0     C 2477  -1.387   5.800   9.318 -0.4618 -0.4879  0.3374
  777MOL0     C 2478  -1.248   5.803   9.359  0.6728 -0.2911  0.7714
  777MOL0     O 2479  -0.953   5.708   9.407 -0.4072  0.0471 -0.3180
  777MOL0     C 2480  -0.875   5.963   9.649 -0.6300  0.0599 -0.0268
  777MOL0     C 2481  -0.770   6.044   9.693  0.3455 -0.3666 -0.0104
  777MOL0     N 2482   0.007   5.870   9.442  0.2563 -0.2314  0.1381
  777MOL0     N 2483   0.133   5.865   9.408 -0.2562 -0.2563  0.3676
  777MOL0     C 2484   1.110   5.293   9.687  0.9640  0.9732 -0.3852
  777MOL0     C 2485   1.199   5.227   9.764 -0.5480  0.1407  0.0283
  777MOL0     C 2486   1.558   5.156  10.051  0.6373 -0.1846 -0.0926
  777MOL0     C 2487   1.682   5.097  10.024 -0.2538  0.4329 -0.0403
  777MOL0     C 2488   1.783   5.096  10.121  0.9204 -0.6611 -0.5714
  777MOL0     C 2489   1.770   5.162  10.240  0.6076 -0.6049 -0.0927
  777MOL0     O 2490   1.866   5.178  10.339  0.1073  0.1094  0.5569
  777MOL0     C 2491   2.001   5.121  10.339 -0.0639 -0.4569 -0.5902
  777MOL0     C 2492   2.067   5.169  10.464 -0.1233  0.3387  0.0209
  777MOL0     C 2493   2.220   5.127  10.470  0.4848  0.7182  0.2432
  777MOL0     C 2494   2.284   5.198  10.590 -0.2696 -0.8658 -0.2467
  777MOL0     C 2495   2.423   5.169  10.588 -0.9078  0.1898  0.8395
  777MOL0     C 2496   2.541   5.137  10.573  0.0754 -0.0868  0.2177
  777MOL0     C 2497   1.649   5.227  10.260  0.3711  0.4309 -0.5989
  777MOL0     C 2498   1.538   5.219  10.165 -0.5851  0.6676 -1.1205
  777MOL0     H 2499   1.171   5.410  10.046 -0.2897 -1.6210  0.8982
  777MOL0     H 2500   0.999   5.540   9.903  0.5022  0.1902  0.3187
  777MOL0     H 2501   0.979   5.389   9.462 -1.2160 -0.9550  2.3800
  777MOL0     H 2502   1.070   5.544   9.504  0.8134 -1.4487  0.0861
  777MOL0     H 2503   0.884   5.613   9.361  0.1988  1.2245  0.1199
  777MOL0     H 2504   0.843   5.648   9.524  1.9567  2.9220 -2.0484
  777MOL0     H 2505   0.692   5.427   9.525 -0.5817 -0.0243  0.6805
  777MOL0     H 2506   0.748   5.391   9.357 -0.7439 -0.3055  1.2575
  777MOL0     H 2507   0.647   5.598   9.270 -0.0147 -2.2994 -1.1388
  777MOL0     H 2508   0.523   5.506   9.353 -0.8141  0.5688  4.2349
  777MOL0     H 2509   0.665   5.743   9.459 -0.2347  0.4128 -2.6942
  777MOL0     H 2510   0.564   5.634   9.564  0.3995 -2.8409 -0.8075
  777MOL0     H 2511   0.371   5.683   9.426  1.5687 -1.4393 -0.1836
  777MOL0     H 2512   0.468   5.802   9.331 -1.2877  0.5884 -0.7501
  777MOL0     H 2513   0.388   5.819   9.621  0.0575 -0.8056 -0.8209
  777MOL0     H 2514   0.527   5.906   9.563 -0.6054  2.0424 -0.6483
  777MOL0     H 2515   0.358   5.986   9.368  2.8698  0.3202  0.2796
  777MOL0     H 2516   0.379   6.063   9.528 -0.4426  1.0076 -2.3877
  777MOL0     H 2517   0.141   6.074   9.669  0.9544 -1.4356  1.1930
  777MOL0     H 2518  -0.152   6.082   9.586  1.1206 -0.5791 -1.5261
  777MOL0     H 2519  -0.090   6.007   9.738 -0.0799  2.0387 -1.0763
  777MOL0     H 2520  -0.209   5.788   9.696 -0.0253  1.4439  2.7967
  777MOL0     H 2521  -0.276   5.869   9.542 -0.8385 -2.0023  0.5411
  777MOL0     H 2522  -0.427   5.848   9.733  1.8153 -2.4829 -4.3887
  777MOL0     H 2523  -0.313   5.934   9.829  3.5847 -0.0858 -0.8291
  777MOL0     H 2524  -0.413   6.058   9.561 -0.8255 -0.3426 -0.3011
  777MOL0     H 2525  -0.342   6.135   9.701 -0.5032 -0.9704  2.8320
  777MOL0     H 2526  -0.533   5.907   9.482  0.5706  0.5262  1.3157
  777MOL0     H 2527  -0.734   5.820   9.375  1.3159  1.7068 -1.4527
  777MOL0     H 2528  -1.286   5.801   9.698  0.0390 -0.6984 -0.2704
  777MOL0     H 2529  -1.531   5.808   9.626 -0.1384  0.1967  0.0314
  777MOL0     H 2530  -1.626   5.740   9.174  2.6420  2.8964 -1.8236
  777MOL0     H 2531  -1.636   5.914   9.224  1.2036  0.2992  1.6951
  777MOL0     H 2532  -1.856   5.726   9.296  1.7257 -1.3419 -1.4737
  777MOL0     H 2533  -1.859   5.838   9.157  1.9455 -0.3931 -0.9974
  777MOL0     H 2534  -1.807   6.025   9.334 -0.8201  1.1022 -0.6886
  777MOL0     H 2535  -1.844   5.900   9.460 -2.9063 -0.1403 -0.2892
  777MOL0     H 2536  -2.078   5.885   9.408 -1.5829  0.3210  0.4984
  777MOL0     H 2537  -2.030   6.051   9.423 -0.1193 -0.5314  0.8492
  777MOL0     H 2538  -2.088   5.899   9.166 -2.1620 -0.8534  0.7709
  777MOL0     H 2539  -2.012   6.066   9.171 -1.5981 -0.1189 -2.1560
  777MOL0     H 2540  -2.180   6.163   9.283  2.9626 -0.0998 -1.7249
  777MOL0     H 2541  -2.281   6.019   9.305 -0.4059 -0.2530  0.1303
  777MOL0     H 2542  -2.316   6.183   9.080  3.3019  1.2320 -0.5967
  777MOL0     H 2543  -2.181   6.081   9.028  2.5677  1.6706  2.1759
  777MOL0     H 2544  -2.330   5.874   9.098 -0.2657  0.2248  3.6657
  777MOL0     H 2545  -2.392   5.981   8.962  1.1063  2.6762  0.4058
  777MOL0     H 2546  -1.404   5.797   9.210 -4.5792 -1.5217  0.8753
  777MOL0     H 2547  -1.168   5.818   9.288  0.6999 -3.2424  0.0791
  777MOL0     H 2548  -0.971   5.971   9.700  0.4964 -0.0487  2.2549
  777MOL0     H 2549  -0.776   6.116   9.774 -1.4856  0.6536 -0.9859
  777MOL0     H 2550   1.109   5.255   9.585 -0.8195  0.4874 -0.2186
  777MOL0     H 2551   1.256   5.136   9.747  1.0546  0.1705  4.1564
  777MOL0     H 2552   1.693   5.044   9.930 -0.8585  0.0065  0.1259
  777MOL0     H 2553   1.868   5.031  10.107 -0.5795 -3.4259  1.9980
  777MOL0     H 2554   2.067   5.171  10.267  0.0767  2.9039  1.6764
  777MOL0     H 2555   2.004   5.012  10.327  1.6983 -0.4646 -0.3908
  777MOL0     H 2556   2.036   5.274  10.464 -2.0244 -0.1761  0.3341
  777MOL0     H 2557   2.008   5.122  10.544 -2.1585  1.3233 -0.8276
  777MOL0     H 2558   2.274   5.155  10.379  2.8917 -2.8459  0.3315
  777MOL0     H 2559   2.218   5.017  10.474 -2.6136  0.6110 -1.1585
  777MOL0     H 2560   2.269   5.306  10.582  1.2678 -0.6540 -0.5694
  777MOL0     H 2561   2.246   5.170  10.689  0.7926 -0.2493  0.3558
  777MOL0     H 2562   2.647   5.122  10.571  0.3716  1.8632 -0.1003
  777MOL0     H 2563   1.621   5.280  10.350  0.0447 -2.6317  1.2667
  777MOL0     H 2564   1.442   5.263  10.188 -0.8122 -0.6161  0.5068
  778MOL0     O 2565   8.474  10.290  11.146 -0.0942 -0.0585  0.2642
  778MOL0     C 2566   8.543  10.206  11.194 -0.2949  0.1073 -0.5303
  778MOL0     O 2567   8.508  10.095  11.251 -0.2359  0.2859 -0.3855
  778MOL0     C 2568   8.371  10.073  11.272  0.5686 -1.0258 -0.3345
  778MOL0     C 2569   8.308   9.944  11.262 -0.3599  0.1905  0.1711
  778MOL0     C 2570   8.172   9.921  11.294 -0.3304  0.0376 -0.6453
  778MOL0     C 2571   8.098  10.036  11.341  0.4286  0.9954  0.5606
  778MOL0     O 2572   7.968  10.026  11.378  0.4640  0.2687  0.8261
  778MOL0     C 2573   7.890   9.908  11.372 -0.3868 -0.3478 -1.3161
  778MOL0     C 2574   7.744   9.953  11.384  0.5719 -0.0241  0.4904
  778MOL0     C 2575   7.650   9.832  11.389  0.5469  0.2565 -0.5516
  778MOL0     C 2576   7.507   9.895  11.389 -0.1218 -0.3761 -0.1838
  778MOL0     C 2577   7.413   9.766  11.375 -0.4473 -0.1227  0.8528
  778MOL0     C 2578   7.260   9.800  11.365 -0.2258  0.4246  0.0096
  778MOL0     C 2579   7.187   9.663  11.319 -0.2748  0.9912 -0.1184
  778MOL0     C 2580   7.032   9.668  11.305  0.6785 -0.6730  0.0424
  778MOL0     N 2581   6.977   9.789  11.238 -1.4660  0.5150 -0.3815
  778MOL0     C 2582   6.951   9.911  11.284  0.0452  0.6810  0.1760
  778MOL0     C 2583   6.930   9.991  11.180 -0.2617 -1.1097 -0.3112
  778MOL0     C 2584   6.893  10.141  11.194  0.0493  0.0339  0.9302
  778MOL0     C 2585   6.742  10.156  11.190  0.7177 -0.6019 -1.1239
  778MOL0     C 2586   6.697  10.300  11.142 -0.8160  0.8442  0.5419
  778MOL0     C 2587   6.553  10.330  11.178 -0.2949 -0.0382  0.2021
  778MOL0     O 2588   6.469  10.264  11.078 -0.1679  0.6545  0.6512
  778MOL0     C 2589   6.331  10.270  11.095 -0.0899 -0.2001  0.0087
  778MOL0     C 2590   6.274  10.231  11.217  0.5238 -0.8435  0.5969
  778MOL0     C 2591   6.133  10.256  11.240  0.1540  0.2183 -0.6746
  778MOL0     C 2592   6.041  10.297  11.140 -0.0088  0.0264  0.8471
  778MOL0     C 2593   5.900  10.326  11.158 -0.3661 -0.2827  0.0338
  778MOL0     O 2594   5.828  10.310  11.044 -0.1602 -0.0741 -0.3525
  778MOL0     C 2595   5.699  10.311  11.067 -0.3101  0.3553 -0.7642
  778MOL0     C 2596   5.647  10.185  11.086  0.3272  0.4223 -0.3987
  778MOL0     C 2597   5.511  10.171  11.096  0.5342  0.0359 -0.4468
  778MOL0     C 2598   5.425  10.284  11.083  0.0783  0.2694  1.0798
  778MOL0     O 2599   5.288  10.293  11.097 -0.0140 -0.2818  1.0416
  778MOL0     C 2600   5.216  10.174  11.126 -0.9998 -0.2310  0.4668
  778MOL0     C 2601   5.061  10.195  11.128 -1.1377  0.2752  0.1605
  778MOL0     C 2602   4.996  10.073  11.186 -0.6882 -0.2141  0.1640
  778MOL0     C 2603   4.852  10.080  11.151  0.2021 -0.7560  0.1641
  778MOL0     C 2604   4.774   9.974  11.218 -0.4390  0.4944 -0.5418
  778MOL0     C 2605   4.628  10.012  11.214 -0.0291 -0.1080 -0.1772
  778MOL0     C 2606   4.536   9.906  11.272 -0.6410  0.9767  0.2011
  778MOL0     C 2607   4.386   9.925  11.250 -0.1554 -0.3736 -1.0738
  778MOL0    Cl 2608   4.316   9.767  11.275  0.0873 -0.1049 -0.5781
  778MOL0     C 2609   5.484  10.413  11.060  0.8436  0.7162  0.2626
  778MOL0     C 2610   5.623  10.422  11.056  0.3746 -0.5074  1.0196
  778MOL0     O 2611   5.866  10.369  11.273 -0.0165  0.0746  0.5390
  778MOL0     C 2612   6.098  10.323  11.014  0.3487 -0.5928 -0.0549
  778MOL0     C 2613   6.245  10.306  10.993 -0.0760 -0.3912  0.5562
  778MOL0     N 2614   6.935   9.916  11.062 -0.0868 -0.3733  0.5078
  778MOL0     N 2615   6.956   9.797  11.106 -0.2372 -0.0394  0.7494
  778MOL0     C 2616   8.158  10.163  11.361  1.3837  0.4450 -0.3393
  778MOL0     C 2617   8.296  10.173  11.330 -0.6625 -0.5421 -0.2573
  778MOL0     C 2618   8.683  10.227  11.193  0.4356 -1.0602  0.5140
  778MOL0     C 2619   8.775  10.142  11.255 -0.0675 -0.3303  0.1020
  778MOL0     C 2620   8.912  10.169  11.249  0.6238  0.1475 -0.8723
  778MOL0     C 2621   8.957  10.283  11.191  0.0344 -0.2482 -0.4866
  778MOL0     O 2622   9.086  10.315  11.175 -0.2926  0.1880 -0.1112
  778MOL0     C 2623   9.184  10.232  11.243 -0.0220 -0.4787 -0.3404
  778MOL0     C 2624   9.326  10.287  11.211 -0.4956  1.2227  0.2062
  778MOL0     C 2625   9.368  10.255  11.060  0.2014  0.0765  0.2732
  778MOL0     C 2626   9.500  10.322  11.011  0.0219  0.3123 -0.2384
  778MOL0     C 2627   9.528  10.301  10.870  0.3202 -1.1056 -0.1706
  778MOL0     C 2628   9.549  10.303  10.753 -0.2724  0.2326  0.1290
  778MOL0     C 2629   8.867  10.371  11.142  0.2870 -0.2655  0.0282
  778MOL0     C 2630   8.726  10.346  11.128  0.1208  0.3200 -0.5437
  778MOL0     H 2631   8.373   9.860  11.239 -0.4023  0.0547  0.5369
  778MOL0     H 2632   8.130   9.821  11.289  1.4947 -0.8263  0.3659
  778MOL0     H 2633   7.908   9.848  11.461 -0.7486  3.1305  1.3039
  778MOL0     H 2634   7.916   9.859  11.277  0.6660 -0.0127 -1.2108
  778MOL0     H 2635   7.718  10.017  11.299 -0.0403 -0.0333  0.6642
  778MOL0     H 2636   7.731  10.014  11.474  1.3888  0.7014  0.1219
  778MOL0     H 2637   7.655   9.785  11.488 -1.5059  2.3298  0.6409
  778MOL0     H 2638   7.665   9.761  11.307 -0.9089  1.1362 -1.6218
  778MOL0     H 2639   7.496   9.948  11.484  1.6312  0.5094 -0.4193
  778MOL0     H 2640   7.482   9.956  11.302 -2.7081  0.2853  0.9407
  778MOL0     H 2641   7.437   9.707  11.464  4.8682 -0.5083 -0.4887
  778MOL0     H 2642   7.432   9.693  11.295 -3.6638 -0.8482  0.6384
  778MOL0     H 2643   7.239   9.875  11.288  0.6963  0.3868 -0.2845
  778MOL0     H 2644   7.232   9.841  11.463  0.1587 -0.3525  0.4555
  778MOL0     H 2645   7.241   9.632  11.230  1.2460  1.6202  0.5502
  778MOL0     H 2646   7.200   9.588  11.399 -0.5486  1.8211  0.7214
  778MOL0     H 2647   7.005   9.662  11.411  2.9952 -0.4718  0.7024
  778MOL0     H 2648   6.991   9.580  11.256 -0.6869 -0.2665  0.4258
  778MOL0     H 2649   6.944   9.949  11.386  1.4831 -1.1634  1.0122
  778MOL0     H 2650   6.925  10.178  11.096 -2.3852 -0.1925 -0.0198
  778MOL0     H 2651   6.932  10.201  11.276  0.3704 -0.0794  0.8605
  778MOL0     H 2652   6.696  10.132  11.286 -1.4040  5.2048 -0.3140
  778MOL0     H 2653   6.692  10.084  11.124 -0.8414 -0.9048  0.3017
  778MOL0     H 2654   6.769  10.375  11.178 -0.7113  1.4669 -0.8796
  778MOL0     H 2655   6.708  10.311  11.033  0.8727  3.2166  0.8694
  778MOL0     H 2656   6.538  10.438  11.172  1.1967  0.1153 -1.6523
  778MOL0     H 2657   6.527  10.299  11.280 -0.2307 -1.9654 -0.3198
  778MOL0     H 2658   6.335  10.200  11.302  0.4085 -2.1632  0.2135
  778MOL0     H 2659   6.079  10.231  11.331 -1.0644  1.8415 -0.8970
  778MOL0     H 2660   5.709  10.096  11.093 -0.4268 -0.0185  0.8762
  778MOL0     H 2661   5.470  10.073  11.120 -1.5739  0.6474 -1.3047
  778MOL0     H 2662   5.254  10.123  11.215 -0.4056 -0.7096 -0.0540
  778MOL0     H 2663   5.248  10.105  11.047 -0.7307 -2.2918  2.2723
  778MOL0     H 2664   5.030  10.207  11.024  3.3988 -0.6113 -1.4914
  778MOL0     H 2665   5.034  10.282  11.189 -0.8446  1.0043 -0.7316
  778MOL0     H 2666   5.010  10.075  11.295  2.8227  2.9349 -0.1372
  778MOL0     H 2667   5.033   9.977  11.149 -1.0144 -0.4974  0.5641
  778MOL0     H 2668   4.814  10.182  11.166  1.2480 -0.6707  2.7374
  778MOL0     H 2669   4.838  10.071  11.043 -0.2909 -1.1083  0.2570
  778MOL0     H 2670   4.795   9.969  11.325 -1.1278 -0.6163 -0.4426
  778MOL0     H 2671   4.798   9.878  11.169  2.1994  0.7279  0.1433
  778MOL0     H 2672   4.600  10.022  11.109 -0.5003 -0.7293 -0.1165
  778MOL0     H 2673   4.617  10.102  11.275  1.2287  0.2425 -0.4368
  778MOL0     H 2674   4.567   9.809  11.232  1.5511  2.2554 -1.3798
  778MOL0     H 2675   4.552   9.910  11.380  0.4138 -1.6626  0.2240
  778MOL0     H 2676   4.358   9.967  11.152 -2.7644  1.5224  0.3327
  778MOL0     H 2677   4.350   9.998  11.323 -0.3524  1.4824 -2.9227
  778MOL0     H 2678   5.430  10.505  11.040 -0.9232 -0.1162  1.0148
  778MOL0     H 2679   5.685  10.506  11.026  1.8465 -1.6115  0.8130
  778MOL0     H 2680   6.051  10.343  10.919  0.7246  0.8101  0.0389
  778MOL0     H 2681   6.285  10.323  10.893  2.7831 -1.2996  1.4751
  778MOL0     H 2682   8.102  10.244  11.406  3.1208  0.9490  1.0824
  778MOL0     H 2683   8.341  10.272  11.335 -0.1502 -0.8155  1.1590
  778MOL0     H 2684   8.738  10.060  11.316 -0.0284 -0.1357  0.3945
  778MOL0     H 2685   8.981  10.094  11.287 -1.8404  0.0812  4.4184
  778MOL0     H 2686   9.174  10.125  11.224 -0.5380 -0.3878 -0.6153
  778MOL0     H 2687   9.165  10.247  11.350 -0.9363  1.8133 -0.7717
  778MOL0     H 2688   9.320  10.391  11.242 -2.2776  1.7027 -1.5281
  778MOL0     H 2689   9.398  10.224  11.265  1.4401  1.8630 -1.5156
  778MOL0     H 2690   9.285  10.296  11.001  1.5240 -1.8884 -3.2734
  778MOL0     H 2691   9.359  10.147  11.042 -0.8924 -0.5463  3.6858
  778MOL0     H 2692   9.501  10.431  11.026  2.5388  0.3141  0.1474
  778MOL0     H 2693   9.582  10.284  11.073  1.7126 -2.7920 -3.9265
  778MOL0     H 2694   9.568  10.289  10.648 -2.2385  0.3115 -0.2889
  778MOL0     H 2695   8.910  10.464  11.107  2.3360 -1.7003 -1.4785
  778MOL0     H 2696   8.669  10.418  11.070  0.0411 -1.0276 -2.2141
  779MOL0     O 2697   6.028   3.027   5.577 -1.0358  0.9855 -0.1191
  779MOL0     C 2698   6.057   3.107   5.491 -0.3796 -1.5165 -0.0353
  779MOL0     O 2699   5.970   3.183   5.412 -0.0052 -0.1018 -0.3820
  779MOL0     C 2700   5.840   3.139   5.402 -0.0069  0.5870  0.9079
  779MOL0     C 2701   5.808   3.014   5.365 -0.2467 -0.2355 -0.2627
  779MOL0     C 2702   5.675   2.973   5.374 -0.6945  0.3913 -1.0861
  779MOL0     C 2703   5.576   3.048   5.426  1.1828 -0.4491 -0.2279
  779MOL0     O 2704   5.442   2.999   5.414 -0.3762 -0.9199 -0.3549
  779MOL0     C 2705   5.344   3.026   5.515  0.1953 -1.1806  1.0916
  779MOL0     C 2706   5.231   2.943   5.474  0.2782  0.0980  1.1784
  779MOL0     C 2707   5.099   2.985   5.531 -1.1112 -0.8034  0.5639
  779MOL0     C 2708   4.991   2.884   5.499 -0.4540 -0.6744 -0.4709
  779MOL0     C 2709   4.867   2.923   5.560 -0.0910  0.6554 -0.3590
  779MOL0     C 2710   4.745   2.847   5.506  0.0663 -0.0299  0.3620
  779MOL0     C 2711   4.610   2.898   5.559  0.0438 -0.1415 -0.1862
  779MOL0     C 2712   4.492   2.823   5.514 -0.4422  0.1090 -0.3175
  779MOL0     N 2713   4.367   2.893   5.552  0.2550  0.5732 -0.6786
  779MOL0     C 2714   4.257   2.880   5.464 -0.0042 -1.4251  0.1494
  779MOL0     C 2715   4.146   2.921   5.536 -0.1238 -0.0581 -0.5581
  779MOL0     C 2716   4.012   2.942   5.474 -0.0388 -0.1375 -0.1768
  779MOL0     C 2717   3.932   2.804   5.461  0.4395 -0.1562 -0.1120
  779MOL0     C 2718   3.790   2.844   5.417 -0.0617  0.3287 -0.0981
  779MOL0     C 2719   3.725   2.729   5.322 -0.6379  0.7983 -0.6476
  779MOL0     O 2720   3.598   2.770   5.265 -0.1704  0.7801  0.7190
  779MOL0     C 2721   3.482   2.765   5.335 -0.1422  0.4238  0.7635
  779MOL0     C 2722   3.462   2.690   5.443  0.2683  0.2959  0.2250
  779MOL0     C 2723   3.343   2.697   5.516 -0.3106  0.1265  1.3986
  779MOL0     C 2724   3.247   2.793   5.466  0.5574  0.2546 -0.0892
  779MOL0     C 2725   3.113   2.795   5.534 -0.0058 -0.3563 -0.1420
  779MOL0     O 2726   3.001   2.843   5.461 -0.7010 -0.6599  0.0042
  779MOL0     C 2727   2.869   2.828   5.487  0.3608 -0.6851 -0.7387
  779MOL0     C 2728   2.777   2.874   5.391  0.8478  0.1406  0.0187
  779MOL0     C 2729   2.639   2.874   5.403 -0.1401  0.1779 -0.2085
  779MOL0     C 2730   2.584   2.829   5.528 -0.1198 -0.4333  0.4450
  779MOL0     O 2731   2.449   2.834   5.558  1.0946 -0.8712  0.0871
  779MOL0     C 2732   2.356   2.894   5.461 -0.0413  0.2343  0.3341
  779MOL0     C 2733   2.220   2.896   5.542 -0.7063 -0.1060 -0.6850
  779MOL0     C 2734   2.107   2.854   5.443  0.6316  0.3620 -0.5949
  779MOL0     C 2735   1.972   2.855   5.522  0.5820  0.4179  0.1549
  779MOL0     C 2736   1.848   2.820   5.451 -0.5105 -0.3822  1.2499
  779MOL0     C 2737   1.728   2.786   5.540  0.0458 -0.0755  0.2649
  779MOL0     C 2738   1.612   2.745   5.460 -0.1791 -0.3514 -0.4714
  779MOL0     C 2739   1.478   2.774   5.528 -0.2183 -0.3744 -0.0878
  779MOL0    Cl 2740   1.341   2.708   5.445  0.4645  0.1918 -0.0237
  779MOL0     C 2741   2.673   2.789   5.631  0.8665 -0.2728 -1.3413
  779MOL0     C 2742   2.810   2.775   5.604 -0.1496  0.9585  0.2597
  779MOL0     O 2743   3.111   2.737   5.643  0.0481  0.6013  0.2814
  779MOL0     C 2744   3.262   2.876   5.364 -0.3948  0.2723  0.4381
  779MOL0     C 2745   3.383   2.864   5.304 -0.0741 -0.3440 -0.4286
  779MOL0     N 2746   4.198   2.951   5.671  0.0296  0.3707 -0.1009
  779MOL0     N 2747   4.324   2.917   5.678  0.2180 -0.3695  0.1303
  779MOL0     C 2748   5.609   3.173   5.469 -0.2951 -0.4071  0.0977
  779MOL0     C 2749   5.741   3.228   5.449 -0.2895  0.2350  0.3310
  779MOL0     C 2750   6.208   3.147   5.485  0.5519 -1.2978  0.5994
  779MOL0     C 2751   6.301   3.067   5.536 -0.0736  0.6950  0.5507
  779MOL0     C 2752   6.438   3.107   5.537  0.1200 -0.1650  0.3918
  779MOL0     C 2753   6.474   3.225   5.473 -0.1600  0.1701 -0.0205
  779MOL0     O 2754   6.610   3.247   5.469 -0.4945  0.1775  0.0878
  779MOL0     C 2755   6.673   3.315   5.354 -0.0835 -0.3241  0.1049
  779MOL0     C 2756   6.765   3.423   5.410 -0.0937  0.2894 -0.3002
  779MOL0     C 2757   6.841   3.495   5.306 -0.0143 -0.4157  1.3450
  779MOL0     C 2758   6.744   3.608   5.246 -0.6125  1.1663 -0.1610
  779MOL0     C 2759   6.677   3.704   5.334  0.4851  0.2172 -0.0398
  779MOL0     C 2760   6.611   3.782   5.409  0.8970  0.6227  0.6931
  779MOL0     C 2761   6.370   3.308   5.417  0.1024  0.1611  0.0220
  779MOL0     C 2762   6.238   3.265   5.422 -0.3783 -0.4839 -0.0862
  779MOL0     H 2763   5.898   2.973   5.320  1.5294  0.4218  2.4294
  779MOL0     H 2764   5.654   2.870   5.348  1.5067  0.4371 -3.4170
  779MOL0     H 2765   5.317   3.130   5.538 -0.8048 -1.7810  2.7502
  779MOL0     H 2766   5.382   2.999   5.614  0.9995  3.0517  2.1726
  779MOL0     H 2767   5.243   2.836   5.495 -1.3540  0.0819  2.1638
  779MOL0     H 2768   5.219   2.943   5.365  3.2619 -1.2822  0.7481
  779MOL0     H 2769   5.075   3.079   5.480  2.0578 -0.0869  0.1868
  779MOL0     H 2770   5.103   2.995   5.640 -0.4538  1.6708  0.3749
  779MOL0     H 2771   4.984   2.874   5.390 -1.1001 -1.9910 -0.3188
  779MOL0     H 2772   5.028   2.789   5.538  1.2889  0.5307  0.9789
  779MOL0     H 2773   4.849   3.030   5.547 -2.1481  0.4172  0.0896
  779MOL0     H 2774   4.880   2.904   5.667 -2.4476  1.6163  0.1703
  779MOL0     H 2775   4.768   2.743   5.530 -2.2241 -0.5087  0.7340
  779MOL0     H 2776   4.740   2.856   5.397  0.2338 -1.0516  0.2556
  779MOL0     H 2777   4.620   2.898   5.668 -2.9584  2.9670  0.2542
  779MOL0     H 2778   4.591   3.000   5.526 -1.5320 -0.8734 -1.6654
  779MOL0     H 2779   4.514   2.726   5.558  1.1617  1.6625  2.5965
  779MOL0     H 2780   4.491   2.815   5.405 -0.7214 -0.6842 -0.2618
  779MOL0     H 2781   4.266   2.832   5.368  6.4225 -2.1585  0.6800
  779MOL0     H 2782   4.015   2.973   5.369 -1.2968  1.4182  0.2116
  779MOL0     H 2783   3.951   3.018   5.524 -1.1752  0.3905 -2.2360
  779MOL0     H 2784   3.934   2.758   5.560  1.1125  1.3301  0.5997
  779MOL0     H 2785   3.972   2.721   5.402 -0.5617 -0.1401 -0.8400
  779MOL0     H 2786   3.734   2.836   5.511  0.0283 -0.4500 -0.1052
  779MOL0     H 2787   3.791   2.946   5.378  5.0453 -0.2445 -2.1573
  779MOL0     H 2788   3.723   2.633   5.375  1.3304  0.9770 -0.1672
  779MOL0     H 2789   3.793   2.705   5.240 -0.1434 -0.4404  0.0923
  779MOL0     H 2790   3.536   2.617   5.473 -1.0018 -1.7241 -1.3462
  779MOL0     H 2791   3.316   2.623   5.591  1.1833 -0.0860  1.7584
  779MOL0     H 2792   2.810   2.928   5.303  1.3984  0.4135  0.3890
  779MOL0     H 2793   2.583   2.918   5.322 -1.3005 -1.5165 -0.3775
  779MOL0     H 2794   2.346   2.839   5.367 -0.3280  2.4653 -1.0227
  779MOL0     H 2795   2.384   2.999   5.448 -0.6784  0.1604 -2.3317
  779MOL0     H 2796   2.204   2.996   5.582 -2.4877 -1.0170  1.0421
  779MOL0     H 2797   2.218   2.833   5.631 -3.0805  1.2603  0.3433
  779MOL0     H 2798   2.121   2.755   5.399 -1.3169  0.1641 -0.8715
  779MOL0     H 2799   2.098   2.932   5.368 -0.8530 -0.4378 -1.2846
  779MOL0     H 2800   1.969   2.775   5.597  1.5090 -0.4752 -0.7400
  779MOL0     H 2801   1.962   2.951   5.574 -1.2046 -0.9004  2.4448
  779MOL0     H 2802   1.880   2.727   5.403  1.0964 -0.5835  2.6147
  779MOL0     H 2803   1.822   2.903   5.385 -1.1980  0.1152  2.1259
  779MOL0     H 2804   1.698   2.874   5.598 -1.4878 -0.1413 -0.3836
  779MOL0     H 2805   1.756   2.707   5.611  1.7122  0.8072  0.6408
  779MOL0     H 2806   1.626   2.788   5.360  1.7981  1.0894  0.3582
  779MOL0     H 2807   1.615   2.638   5.441 -2.5117 -0.7670  1.0214
  779MOL0     H 2808   1.465   2.880   5.550 -1.9633 -0.4722 -0.5188
  779MOL0     H 2809   1.489   2.731   5.628 -0.2668  0.0535  0.1053
  779MOL0     H 2810   2.620   2.760   5.721  1.8792  3.0779  0.5227
  779MOL0     H 2811   2.886   2.737   5.671 -0.2886 -0.5341 -0.3916
  779MOL0     H 2812   3.191   2.957   5.355 -0.1044  0.8389  2.5536
  779MOL0     H 2813   3.412   2.934   5.226 -0.2078 -0.4190 -0.5445
  779MOL0     H 2814   5.538   3.239   5.519 -0.0166  0.8027 -1.0351
  779MOL0     H 2815   5.763   3.329   5.480  0.5183 -0.0146  0.6038
  779MOL0     H 2816   6.290   2.973   5.590  3.4910 -0.7050 -0.8498
  779MOL0     H 2817   6.504   3.029   5.575 -1.7070 -3.2276 -2.1691
  779MOL0     H 2818   6.592   3.364   5.300  1.2022  1.3004 -0.4262
  779MOL0     H 2819   6.725   3.255   5.278 -0.3867  0.8806 -1.0867
  779MOL0     H 2820   6.701   3.495   5.461  0.5627  2.5833 -2.5197
  779MOL0     H 2821   6.835   3.383   5.484 -0.3541  0.0204 -0.1992
  779MOL0     H 2822   6.879   3.425   5.232 -0.0591 -1.5612  2.3741
  779MOL0     H 2823   6.930   3.547   5.345  1.1537  1.1518 -2.9076
  779MOL0     H 2824   6.805   3.656   5.169  2.0373 -3.6344 -1.4562
  779MOL0     H 2825   6.664   3.560   5.188 -2.3888  3.5575  0.1670
  779MOL0     H 2826   6.561   3.866   5.454  2.3555  1.3952  0.9094
  779MOL0     H 2827   6.391   3.404   5.371  1.1480  0.9355  1.9786
  779MOL0     H 2828   6.163   3.326   5.373  2.4190  2.8213 -0.6184
  780MOL0     O 2829   5.724   3.601   5.239 -0.7282  1.0433 -0.0381
  780MOL0     C 2830   5.826   3.533   5.209  0.2906  0.4587 -0.9879
  780MOL0     O 2831   5.819   3.419   5.140 -0.1961 -0.8087 -0.1336
  780MOL0     C 2832   5.699   3.401   5.082  0.1093 -0.1585  0.4760
  780MOL0     C 2833   5.619   3.295   5.125  0.7272 -0.2232 -0.4058
  780MOL0     C 2834   5.494   3.274   5.077  0.8171  0.0917 -0.1824
  780MOL0     C 2835   5.448   3.351   4.971  0.3429 -1.5962 -0.3574
  780MOL0     O 2836   5.322   3.318   4.914  0.0668 -0.0139  0.7385
  780MOL0     C 2837   5.285   3.365   4.780 -0.3371  0.7489 -0.8784
  780MOL0     C 2838   5.202   3.268   4.709  0.6284  0.0105  0.1135
  780MOL0     C 2839   5.062   3.273   4.770  0.6132  0.7659  0.2261
  780MOL0     C 2840   4.971   3.159   4.711  0.0993  0.8819  0.7644
  780MOL0     C 2841   4.823   3.200   4.715  0.6496  0.2445 -0.9360
  780MOL0     C 2842   4.754   3.085   4.645  0.1163  0.4073 -0.0295
  780MOL0     C 2843   4.604   3.105   4.648  0.4273 -0.1798 -0.7301
  780MOL0     C 2844   4.543   3.001   4.558  0.2645 -0.7019 -0.9134
  780MOL0     N 2845   4.393   3.001   4.551 -0.6439  0.6356 -0.7068
  780MOL0     C 2846   4.330   2.966   4.439 -0.3771  0.5887  0.9325
  780MOL0     C 2847   4.213   2.902   4.476  0.2482  0.0625  0.6531
  780MOL0     C 2848   4.110   2.820   4.389  0.5611  0.1364  0.7965
  780MOL0     C 2849   3.965   2.860   4.422  0.8220  0.3303 -0.6963
  780MOL0     C 2850   3.859   2.771   4.351  0.3980 -0.6401  0.2665
  780MOL0     C 2851   3.718   2.831   4.382 -0.1812  0.2794 -0.1925
  780MOL0     O 2852   3.639   2.845   4.262  0.6019  0.0825 -0.0153
  780MOL0     C 2853   3.505   2.844   4.263  0.2438  0.1935 -0.1250
  780MOL0     C 2854   3.424   2.830   4.144  0.3283  0.5785  0.7898
  780MOL0     C 2855   3.293   2.873   4.143  0.2336  1.0481 -0.4756
  780MOL0     C 2856   3.228   2.910   4.253 -0.2507 -0.2500 -0.2961
  780MOL0     C 2857   3.078   2.931   4.248 -1.3539 -0.5353 -0.3879
  780MOL0     O 2858   3.036   2.930   4.124  0.6284 -0.0968 -0.0470
  780MOL0     C 2859   2.900   2.919   4.095 -0.0597  0.3817  0.6724
  780MOL0     C 2860   2.851   2.836   3.991  0.2812  0.0766 -1.1995
  780MOL0     C 2861   2.723   2.837   3.950  0.1704  0.8061 -0.2237
  780MOL0     C 2862   2.635   2.933   4.011 -0.4463  0.0025 -0.0942
  780MOL0     O 2863   2.506   2.957   3.989  1.1331 -0.2637 -0.3560
  780MOL0     C 2864   2.435   2.856   3.909  0.0454  0.2413  0.1078
  780MOL0     C 2865   2.289   2.897   3.886  0.0509  1.0056  0.6806
  780MOL0     C 2866   2.278   3.035   3.819  0.9556  0.5159 -0.8639
  780MOL0     C 2867   2.127   3.063   3.793  0.3276 -0.0594  0.2600
  780MOL0     C 2868   2.099   3.179   3.690 -0.8795 -0.0797 -0.3141
  780MOL0     C 2869   1.952   3.175   3.647  0.7020 -0.0310 -0.0619
  780MOL0     C 2870   1.912   3.044   3.577  0.4203  0.3290  0.2634
  780MOL0     C 2871   1.792   3.057   3.475  0.2324  0.5769 -0.9860
  780MOL0    Cl 2872   1.863   3.086   3.310 -0.0227  0.4154  0.0320
  780MOL0     C 2873   2.684   3.017   4.115 -0.2551 -0.5940 -0.2098
  780MOL0     C 2874   2.813   3.003   4.154  0.4065 -0.0309  0.3920
  780MOL0     O 2875   3.014   2.945   4.350 -0.1773 -0.5316 -0.0302
  780MOL0     C 2876   3.303   2.927   4.370  0.7096  0.1850 -0.0919
  780MOL0     C 2877   3.439   2.895   4.376  0.6055  0.1730 -0.2737
  780MOL0     N 2878   4.200   2.903   4.613  0.3377  0.3085  0.5052
  780MOL0     N 2879   4.312   2.950   4.659  0.0621 -0.4118  0.0329
  780MOL0     C 2880   5.527   3.455   4.920  0.5070  1.0816  0.3917
  780MOL0     C 2881   5.654   3.476   4.972 -0.0961 -0.0793 -0.6644
  780MOL0     C 2882   5.959   3.596   5.230  0.2413  0.2280 -0.2600
  780MOL0     C 2883   5.975   3.728   5.273  0.0830  0.3512 -0.3262
  780MOL0     C 2884   6.100   3.794   5.275 -0.3521  0.5912  0.2193
  780MOL0     C 2885   6.214   3.723   5.239  0.0173 -0.3911  0.6641
  780MOL0     O 2886   6.331   3.801   5.251  0.0211 -0.2077 -0.0669
  780MOL0     C 2887   6.349   3.888   5.135  0.3670  0.7616  0.4651
  780MOL0     C 2888   6.424   4.019   5.171  0.4238 -0.0694  0.8044
  780MOL0     C 2889   6.367   4.084   5.297 -0.3814  0.3505 -0.6010
  780MOL0     C 2890   6.459   4.194   5.350  0.4603  0.3031 -0.0271
  780MOL0     C 2891   6.462   4.308   5.252 -0.1983  0.3603 -0.6868
  780MOL0     C 2892   6.478   4.398   5.172  0.0662 -0.2911  0.1516
  780MOL0     C 2893   6.200   3.586   5.203  0.1677  0.9200 -0.7059
  780MOL0     C 2894   6.076   3.530   5.189  0.2137  0.1271  0.7046
  780MOL0     H 2895   5.667   3.236   5.203  0.9091 -0.1269 -0.4444
  780MOL0     H 2896   5.440   3.187   5.112  2.0861 -0.2632  0.9873
  780MOL0     H 2897   5.371   3.378   4.714 -0.3743  1.6709 -0.7633
  780MOL0     H 2898   5.237   3.463   4.785 -0.4879  0.7199 -1.5992
  780MOL0     H 2899   5.250   3.171   4.723  0.3919  0.1452  2.2717
  780MOL0     H 2900   5.196   3.300   4.604 -2.2056 -1.4043 -0.2451
  780MOL0     H 2901   5.022   3.369   4.734 -0.1737  0.2042 -0.4367
  780MOL0     H 2902   5.074   3.271   4.879 -1.6004  1.3576  0.5285
  780MOL0     H 2903   4.996   3.140   4.606 -3.5636 -1.0693  0.0489
  780MOL0     H 2904   4.985   3.065   4.766  0.9089  1.3772  1.4209
  780MOL0     H 2905   4.801   3.296   4.667 -1.1444  0.7384  0.7591
  780MOL0     H 2906   4.793   3.204   4.820  0.7241 -1.0697 -0.8465
  780MOL0     H 2907   4.788   2.995   4.697  0.1512  0.1959 -0.4150
  780MOL0     H 2908   4.789   3.090   4.541  3.2096  3.5809  0.9683
  780MOL0     H 2909   4.558   3.093   4.746 -2.7226  1.8167 -1.8044
  780MOL0     H 2910   4.581   3.206   4.612 -0.2799  1.1699  3.0596
  780MOL0     H 2911   4.574   2.905   4.600  0.7630 -0.4695 -0.7425
  780MOL0     H 2912   4.572   3.011   4.453 -0.1507  1.6999 -0.8543
  780MOL0     H 2913   4.364   2.984   4.338 -0.6168  0.8295  0.8903
  780MOL0     H 2914   4.106   2.716   4.423 -1.8048  0.6401  2.3178
  780MOL0     H 2915   4.121   2.837   4.282 -0.1279 -2.9897  0.1241
  780MOL0     H 2916   3.951   2.960   4.379 -0.7930  0.5413  0.2490
  780MOL0     H 2917   3.951   2.852   4.530 -1.0780  0.4050 -0.9033
  780MOL0     H 2918   3.879   2.754   4.245 -0.0569 -2.7606  0.4713
  780MOL0     H 2919   3.854   2.671   4.397  0.5318 -2.0385 -2.5465
  780MOL0     H 2920   3.713   2.933   4.420 -1.7385  0.0028  0.3951
  780MOL0     H 2921   3.665   2.762   4.448 -1.2287  0.6012 -0.6743
  780MOL0     H 2922   3.457   2.789   4.049 -1.5408 -0.2132  0.4295
  780MOL0     H 2923   3.249   2.872   4.043 -2.4889 -1.4165  0.5693
  780MOL0     H 2924   2.924   2.771   3.946  0.6721 -0.3233 -0.0322
  780MOL0     H 2925   2.692   2.784   3.861 -1.8438  0.4322  0.6417
  780MOL0     H 2926   2.445   2.761   3.963  2.5166  2.7333  4.6537
  780MOL0     H 2927   2.487   2.834   3.816 -1.6841 -0.3196 -0.7649
  780MOL0     H 2928   2.241   2.902   3.984 -0.6972 -3.0359  0.6881
  780MOL0     H 2929   2.242   2.825   3.818 -0.7407  1.0481  1.1723
  780MOL0     H 2930   2.326   3.029   3.721 -2.2445 -0.4714 -2.4792
  780MOL0     H 2931   2.324   3.113   3.881 -2.9265  2.6880 -0.4469
  780MOL0     H 2932   2.081   2.966   3.768  0.4952 -0.5777  1.8687
  780MOL0     H 2933   2.086   3.099   3.887  1.3113  1.3801  0.1558
  780MOL0     H 2934   2.165   3.160   3.604  0.8387  2.5412  0.3096
  780MOL0     H 2935   2.128   3.281   3.714  1.8266 -0.6909 -0.6000
  780MOL0     H 2936   1.928   3.254   3.575 -2.7561  0.7748  1.7317
  780MOL0     H 2937   1.887   3.183   3.735 -0.2535  1.0226 -0.8310
  780MOL0     H 2938   1.999   2.994   3.532 -0.0454  0.2254 -0.5255
  780MOL0     H 2939   1.883   2.977   3.659 -0.7786  0.1966 -0.2587
  780MOL0     H 2940   1.723   3.140   3.492 -1.4965 -1.2013  1.2022
  780MOL0     H 2941   1.735   2.964   3.474  0.8819  0.1334  0.1778
  780MOL0     H 2942   2.621   3.084   4.172  1.6188 -0.1280  1.3919
  780MOL0     H 2943   2.855   3.071   4.228  0.5847  0.5389 -0.2268
  780MOL0     H 2944   3.251   2.971   4.455 -1.0753  0.8935 -1.4786
  780MOL0     H 2945   3.480   2.920   4.473 -1.1608 -1.6241  1.0265
  780MOL0     H 2946   5.487   3.528   4.851 -1.7093 -0.9117 -0.5879
  780MOL0     H 2947   5.703   3.569   4.944  0.4886  0.0456  0.6818
  780MOL0     H 2948   5.884   3.772   5.315 -2.5626 -3.9662 -0.9892
  780MOL0     H 2949   6.118   3.894   5.312 -0.4584  0.1281  1.5569
  780MOL0     H 2950   6.258   3.924   5.086  0.1486 -0.7860 -0.3249
  780MOL0     H 2951   6.404   3.835   5.057  1.7375 -0.8590  2.4210
  780MOL0     H 2952   6.531   4.001   5.184  1.1825  2.9981 -0.2646
  780MOL0     H 2953   6.404   4.092   5.092 -1.4391 -1.1676  0.1867
  780MOL0     H 2954   6.345   4.016   5.380  0.3322  0.1139 -0.5972
  780MOL0     H 2955   6.268   4.122   5.269  0.1089  1.2109 -1.2420
  780MOL0     H 2956   6.432   4.232   5.449 -3.4638  0.2571 -0.9137
  780MOL0     H 2957   6.558   4.150   5.364 -0.1628 -1.4774 -1.0070
  780MOL0     H 2958   6.485   4.473   5.095 -1.5311  1.5916  1.7376
  780MOL0     H 2959   6.288   3.523   5.198 -1.1111 -0.9438 -0.6619
  780MOL0     H 2960   6.068   3.429   5.151 -1.8533  1.5849 -3.4513
  781MOL0     O 2961   3.574   7.406   5.915  0.1857  0.1308 -0.5494
  781MOL0     C 2962   3.499   7.444   6.006 -0.9094  0.1095 -0.6050
  781MOL0     O 2963   3.505   7.565   6.063 -0.2789  0.0588 -0.3762
  781MOL0     C 2964   3.601   7.660   6.041 -0.1010 -0.8502 -0.4159
  781MOL0     C 2965   3.729   7.626   6.068 -0.1059 -0.1472 -0.8157
  781MOL0     C 2966   3.831   7.715   6.062 -0.1346 -0.6718 -0.6669
  781MOL0     C 2967   3.803   7.843   6.012 -0.3550 -0.2567 -0.4593
  781MOL0     O 2968   3.909   7.924   5.995  0.3580 -0.3553 -0.7296
  781MOL0     C 2969   3.906   8.018   5.893  1.1522  0.0450  0.4697
  781MOL0     C 2970   4.050   8.057   5.865 -1.7620  0.7058 -0.3401
  781MOL0     C 2971   4.095   8.141   5.993  0.2235  0.0861 -1.2101
  781MOL0     C 2972   4.222   8.201   5.967 -0.5830 -0.2889 -0.5418
  781MOL0     C 2973   4.303   8.258   6.081 -0.1614 -0.8254  0.4920
  781MOL0     C 2974   4.224   8.362   6.164  0.2300 -0.1129  0.0711
  781MOL0     C 2975   4.313   8.442   6.253 -0.5874 -0.1188 -0.1377
  781MOL0     C 2976   4.240   8.564   6.321  0.3299  0.2639 -0.8745
  781MOL0     N 2977   4.153   8.522   6.435 -0.1579 -0.1619 -0.0604
  781MOL0     C 2978   4.198   8.507   6.567  0.1335 -0.3751 -0.2553
  781MOL0     C 2979   4.095   8.447   6.628 -0.4103 -0.1158 -0.4022
  781MOL0     C 2980   4.081   8.435   6.773 -0.6563  0.0757  0.6417
  781MOL0     C 2981   3.943   8.457   6.844 -0.2261  0.4865  0.6540
  781MOL0     C 2982   3.933   8.396   6.986  0.2813 -0.6181  0.0890
  781MOL0     C 2983   3.808   8.442   7.059 -0.1737  0.1436 -0.3286
  781MOL0     O 2984   3.701   8.379   6.991 -0.1360  0.0872 -0.2660
  781MOL0     C 2985   3.570   8.390   7.035  0.4774 -0.6296  0.2901
  781MOL0     C 2986   3.530   8.461   7.147 -0.0309  0.5847 -0.1117
  781MOL0     C 2987   3.392   8.476   7.168  0.1883 -0.3042 -0.6340
  781MOL0     C 2988   3.291   8.416   7.086 -0.7554 -1.2748 -1.1297
  781MOL0     C 2989   3.150   8.410   7.128 -0.1209 -0.5320 -0.2484
  781MOL0     O 2990   3.065   8.328   7.058  0.4688 -0.1148  0.3763
  781MOL0     C 2991   2.927   8.337   7.058 -0.4088  0.4607  0.1851
  781MOL0     C 2992   2.854   8.458   7.068  0.1567 -0.8731 -0.1109
  781MOL0     C 2993   2.717   8.458   7.041 -0.4546 -0.6736 -0.2551
  781MOL0     C 2994   2.641   8.345   7.021  0.4595 -0.9004  1.1840
  781MOL0     O 2995   2.500   8.363   7.012  0.1362 -0.8616 -0.6639
  781MOL0     C 2996   2.419   8.267   6.964 -0.4587  1.2462 -0.2958
  781MOL0     C 2997   2.281   8.310   6.917  0.4631 -0.4745 -0.1459
  781MOL0     C 2998   2.204   8.398   7.019 -0.2335  0.2005 -0.2184
  781MOL0     C 2999   2.144   8.312   7.119 -0.0839  0.1435 -0.0506
  781MOL0     C 3000   2.101   8.383   7.251  0.4098  0.1542 -0.2828
  781MOL0     C 3001   1.976   8.478   7.241 -0.7259 -0.0374  0.2004
  781MOL0     C 3002   1.915   8.534   7.370  1.0162  0.7399  0.7644
  781MOL0     C 3003   1.866   8.416   7.456 -0.3819  0.9736 -0.0309
  781MOL0    Cl 3004   1.720   8.348   7.377 -0.1274 -0.1699  0.1116
  781MOL0     C 3005   2.709   8.225   7.004  0.0830  0.0830  0.0226
  781MOL0     C 3006   2.852   8.221   7.036  0.6122 -0.0093 -0.0418
  781MOL0     O 3007   3.119   8.502   7.200 -0.4983 -0.0254 -0.6628
  781MOL0     C 3008   3.336   8.350   6.975  0.3482  0.3482  0.2409
  781MOL0     C 3009   3.473   8.343   6.946  0.1870 -0.1072  0.6457
  781MOL0     N 3010   3.994   8.426   6.542  0.6698  0.3957 -0.1008
  781MOL0     N 3011   4.025   8.479   6.428  0.3418 -0.0830 -0.4935
  781MOL0     C 3012   3.668   7.887   5.993 -0.1621 -0.5268  0.0097
  781MOL0     C 3013   3.564   7.790   6.001  0.0396 -0.2873 -0.7675
  781MOL0     C 3014   3.394   7.362   6.064  0.3479 -0.2321 -0.2693
  781MOL0     C 3015   3.395   7.226   6.049 -0.3544 -1.2418  0.0256
  781MOL0     C 3016   3.282   7.153   6.074 -0.4095 -0.3729  0.7206
  781MOL0     C 3017   3.174   7.207   6.150 -0.6109  0.0117 -0.6358
  781MOL0     O 3018   3.053   7.147   6.173  0.2168  0.5034  0.4610
  781MOL0     C 3019   3.012   7.012   6.141 -0.2476 -0.1436  0.5238
  781MOL0     C 3020   3.073   6.910   6.236  1.0565  0.0438  1.0037
  781MOL0     C 3021   3.028   6.924   6.376 -0.5154  0.3587  0.5944
  781MOL0     C 3022   3.030   6.789   6.456 -0.4803  0.5471 -0.7200
  781MOL0     C 3023   2.999   6.802   6.600 -0.2682 -0.4831 -0.6529
  781MOL0     C 3024   2.996   6.833   6.719  0.7827  0.9990  0.9370
  781MOL0     C 3025   3.175   7.338   6.186 -0.8877  0.2402  0.0466
  781MOL0     C 3026   3.287   7.419   6.143  0.3550 -0.6148  0.2296
  781MOL0     H 3027   3.740   7.528   6.114  4.9146  1.0777  1.1268
  781MOL0     H 3028   3.930   7.682   6.089  0.9296  2.3962 -0.4244
  781MOL0     H 3029   3.857   8.103   5.942 -1.7726 -1.5715  0.5474
  781MOL0     H 3030   3.849   7.989   5.804  0.7493  2.3511 -0.0989
  781MOL0     H 3031   4.045   8.125   5.779  0.9471  0.0076 -1.1508
  781MOL0     H 3032   4.118   7.973   5.848  0.3432  2.0821  0.8121
  781MOL0     H 3033   4.105   8.065   6.071  0.7722  1.3041 -0.0504
  781MOL0     H 3034   4.020   8.216   6.017 -0.4669 -1.1377  0.6884
  781MOL0     H 3035   4.291   8.137   5.910  0.0297  0.2633 -0.4307
  781MOL0     H 3036   4.214   8.290   5.904  2.3640  0.4963  0.0588
  781MOL0     H 3037   4.394   8.298   6.036  1.2910 -1.4676  2.6762
  781MOL0     H 3038   4.333   8.175   6.146  0.9088 -0.8935 -0.0509
  781MOL0     H 3039   4.147   8.309   6.221 -2.9952  4.0020  0.0106
  781MOL0     H 3040   4.161   8.436   6.114 -1.4184 -0.7311  1.1539
  781MOL0     H 3041   4.359   8.372   6.323  2.2462  1.0316 -0.6973
  781MOL0     H 3042   4.391   8.490   6.194 -1.5579  1.4904 -0.2023
  781MOL0     H 3043   4.175   8.617   6.250 -1.2971 -0.2165  0.2108
  781MOL0     H 3044   4.315   8.632   6.361 -0.6616  1.9506 -1.7624
  781MOL0     H 3045   4.280   8.549   6.624 -1.2874 -0.2207  1.7694
  781MOL0     H 3046   4.153   8.495   6.830  1.8090  0.1954 -2.2953
  781MOL0     H 3047   4.127   8.338   6.793  1.1513  0.9102  0.7536
  781MOL0     H 3048   3.870   8.409   6.777  0.5261  2.2984 -1.6112
  781MOL0     H 3049   3.914   8.562   6.846 -0.6625  0.4810 -1.6761
  781MOL0     H 3050   3.929   8.287   6.989 -0.7921 -0.6823 -1.8624
  781MOL0     H 3051   4.010   8.427   7.057  0.1692 -4.0347  1.9180
  781MOL0     H 3052   3.803   8.550   7.043 -0.1938 -0.1275 -2.4299
  781MOL0     H 3053   3.800   8.418   7.165  0.1659  2.1512  0.1924
  781MOL0     H 3054   3.601   8.496   7.221 -1.5531  0.8321  1.2936
  781MOL0     H 3055   3.368   8.530   7.260 -1.3686  0.6013 -1.5358
  781MOL0     H 3056   2.891   8.559   7.073 -0.9701 -0.4930  1.5245
  781MOL0     H 3057   2.659   8.549   7.055 -1.4550 -1.7207  3.2569
  781MOL0     H 3058   2.412   8.199   7.049  0.3676  2.4535  0.7794
  781MOL0     H 3059   2.458   8.207   6.881 -1.1612 -0.8670  0.8503
  781MOL0     H 3060   2.222   8.219   6.902 -0.3681 -0.2806  1.7264
  781MOL0     H 3061   2.299   8.364   6.824  0.8780  0.1934  0.3181
  781MOL0     H 3062   2.125   8.454   6.969 -1.7287 -1.1281  0.5467
  781MOL0     H 3063   2.276   8.466   7.065 -1.3005  0.2634  1.4701
  781MOL0     H 3064   2.052   8.260   7.090  0.5354 -0.0743 -1.7169
  781MOL0     H 3065   2.215   8.236   7.153  0.6415  0.0614 -1.6524
  781MOL0     H 3066   2.189   8.425   7.301  1.6511 -1.8223 -0.7192
  781MOL0     H 3067   2.082   8.309   7.329  1.8311  1.0671  0.9826
  781MOL0     H 3068   1.899   8.422   7.187  1.0228 -0.8591 -1.5982
  781MOL0     H 3069   2.005   8.560   7.175 -1.9955  0.0492 -0.2858
  781MOL0     H 3070   1.995   8.587   7.423  2.8963  1.1526 -2.2631
  781MOL0     H 3071   1.834   8.606   7.353 -1.0036 -1.6947 -0.8225
  781MOL0     H 3072   1.848   8.447   7.560  0.6370  0.4596  0.3036
  781MOL0     H 3073   1.946   8.343   7.467 -0.5408  0.7146 -0.5649
  781MOL0     H 3074   2.664   8.129   6.981 -0.5302  0.6341 -1.1666
  781MOL0     H 3075   2.901   8.129   7.065  0.2220 -0.0629  0.4503
  781MOL0     H 3076   3.274   8.304   6.900  3.1060 -1.9440 -0.8001
  781MOL0     H 3077   3.502   8.294   6.854  0.1866  1.9409 -0.5054
  781MOL0     H 3078   3.644   7.989   5.965  0.6548  0.8963  3.8082
  781MOL0     H 3079   3.461   7.810   5.975 -0.6399 -1.6179  0.7303
  781MOL0     H 3080   3.476   7.180   5.992 -0.5987  0.6885 -2.0168
  781MOL0     H 3081   3.288   7.052   6.034  1.5711 -0.2985  0.7407
  781MOL0     H 3082   3.046   6.988   6.040  0.1070 -1.3365  0.9177
  781MOL0     H 3083   2.903   7.006   6.142 -0.2407 -0.2453  1.5018
  781MOL0     H 3084   3.054   6.808   6.201  0.0511 -0.0748  1.8442
  781MOL0     H 3085   3.182   6.920   6.229  0.9269  0.2774 -3.3011
  781MOL0     H 3086   2.925   6.958   6.368  0.0030  1.5669 -2.9696
  781MOL0     H 3087   3.085   7.007   6.420  1.4506 -1.3239  1.4077
  781MOL0     H 3088   2.967   6.714   6.408 -0.8842  0.3359  0.1200
  781MOL0     H 3089   3.134   6.755   6.445 -0.7907 -1.2177  1.1237
  781MOL0     H 3090   3.006   6.851   6.824  0.2828 -1.6292  1.5014
  781MOL0     H 3091   3.092   7.373   6.246  0.1573  0.6699  1.2673
  781MOL0     H 3092   3.293   7.525   6.163  1.9922 -1.0564  2.4120
  782MOL0     O 3093   6.456   7.350   0.899 -0.3516  0.0358 -0.5116
  782MOL0     C 3094   6.511   7.245   0.919 -0.6972  0.1128 -0.6351
  782MOL0     O 3095   6.448   7.126   0.948 -0.2715  0.8457  0.0158
  782MOL0     C 3096   6.315   7.104   0.969  1.3068 -0.3505  0.4134
  782MOL0     C 3097   6.276   6.970   1.003  0.3368 -0.0146  0.4119
  782MOL0     C 3098   6.136   6.934   1.017  0.6935  0.1908 -0.1535
  782MOL0     C 3099   6.044   7.025   1.028 -0.2052 -0.9195  0.2394
  782MOL0     O 3100   5.911   6.980   1.049 -0.0946  0.6338 -0.2070
  782MOL0     C 3101   5.809   7.061   1.102  0.0815 -0.3149 -0.2176
  782MOL0     C 3102   5.680   6.991   1.077  0.2560 -0.0986  0.4616
  782MOL0     C 3103   5.556   7.086   1.111  0.2501  0.4884 -0.5906
  782MOL0     C 3104   5.418   7.000   1.103 -0.3948 -0.1761 -0.5346
  782MOL0     C 3105   5.299   7.092   1.084 -0.8065 -0.2690 -0.7450
  782MOL0     C 3106   5.170   7.002   1.090  0.4532  0.2315  0.1277
  782MOL0     C 3107   5.051   7.099   1.113 -0.2345  0.6236  0.5719
  782MOL0     C 3108   4.927   7.028   1.104  1.1481  1.0852 -0.1322
  782MOL0     N 3109   4.813   7.116   1.102 -0.1673 -0.0988  0.2547
  782MOL0     C 3110   4.767   7.191   0.990 -0.0202 -0.5510 -0.4275
  782MOL0     C 3111   4.654   7.254   1.033  0.1502 -1.5792 -0.1100
  782MOL0     C 3112   4.576   7.343   0.939 -1.2106 -0.7748 -0.3109
  782MOL0     C 3113   4.425   7.356   0.963 -0.6933 -0.4174 -0.7176
  782MOL0     C 3114   4.359   7.216   0.936  0.1429 -0.4870 -0.9230
  782MOL0     C 3115   4.204   7.231   0.914 -0.1872  0.4933  0.8936
  782MOL0     O 3116   4.133   7.262   1.027  0.5460  0.1620  0.2016
  782MOL0     C 3117   4.000   7.211   1.041  0.2333  0.3230 -0.3226
  782MOL0     C 3118   3.935   7.102   0.970 -0.1216 -0.1557  0.0244
  782MOL0     C 3119   3.800   7.064   0.998 -0.1116  0.9589  0.1405
  782MOL0     C 3120   3.727   7.126   1.100 -0.3712  0.4359  0.5393
  782MOL0     C 3121   3.593   7.093   1.135  0.6727 -0.6228 -0.4329
  782MOL0     O 3122   3.546   6.967   1.088  0.0180 -1.0174  0.1441
  782MOL0     C 3123   3.416   6.931   1.070 -0.1531  0.5825 -0.3334
  782MOL0     C 3124   3.403   6.795   1.048 -0.0106 -0.0783  0.1048
  782MOL0     C 3125   3.279   6.746   1.017  0.2824 -0.7375 -0.1982
  782MOL0     C 3126   3.165   6.826   1.016  0.3981 -0.2855 -0.4056
  782MOL0     O 3127   3.041   6.771   1.002  0.7496  0.3187  0.1380
  782MOL0     C 3128   3.003   6.673   0.898 -0.3084 -0.2938  0.4998
  782MOL0     C 3129   2.859   6.629   0.886 -0.3398 -1.1416 -0.4881
  782MOL0     C 3130   2.769   6.737   0.940 -1.3534 -0.6261  0.2341
  782MOL0     C 3131   2.627   6.707   0.909 -0.3688 -0.1584 -0.3391
  782MOL0     C 3132   2.528   6.827   0.926 -0.2666 -0.9187 -0.3953
  782MOL0     C 3133   2.504   6.872   1.076 -0.7038  0.2139 -0.1973
  782MOL0     C 3134   2.425   7.001   1.096  0.3356  0.1784 -0.0927
  782MOL0     C 3135   2.274   6.981   1.056 -0.1794  0.8003 -0.4661
  782MOL0    Cl 3136   2.185   6.911   1.203 -0.2147  0.0518 -0.0446
  782MOL0     C 3137   3.177   6.965   1.042 -0.2493  0.9178  0.0006
  782MOL0     C 3138   3.305   7.016   1.068 -0.2397  0.3640  0.0478
  782MOL0     O 3139   3.526   7.169   1.207 -0.2608  0.9641 -0.0252
  782MOL0     C 3140   3.796   7.223   1.174 -0.3919 -0.4608 -0.2045
  782MOL0     C 3141   3.931   7.263   1.151  0.3554 -0.1226  0.3746
  782MOL0     N 3142   4.635   7.222   1.164  0.4792 -0.0563  0.0845
  782MOL0     N 3143   4.726   7.147   1.201  0.0003 -0.3202 -0.5083
  782MOL0     C 3144   6.075   7.161   1.018 -0.9710  0.5086  0.5865
  782MOL0     C 3145   6.210   7.205   0.983  0.7701  0.0039  0.6134
  782MOL0     C 3146   6.652   7.239   0.895 -0.5437  0.6163 -0.7114
  782MOL0     C 3147   6.724   7.361   0.876  0.8272 -0.5679 -0.3145
  782MOL0     C 3148   6.858   7.345   0.846 -0.5260  0.3660  1.0108
  782MOL0     C 3149   6.925   7.228   0.829  0.1366 -0.1470 -0.2401
  782MOL0     O 3150   7.042   7.226   0.778 -0.0236  0.0877 -0.2117
  782MOL0     C 3151   7.136   7.125   0.809 -0.4299  0.3340  0.0428
  782MOL0     C 3152   7.258   7.198   0.853 -0.4970 -0.1300 -0.1670
  782MOL0     C 3153   7.323   7.293   0.749  0.9008  0.4225 -0.8105
  782MOL0     C 3154   7.396   7.422   0.802  0.0393  0.0559  0.4506
  782MOL0     C 3155   7.515   7.398   0.886 -0.1196 -1.5706  0.0379
  782MOL0     C 3156   7.596   7.358   0.960 -0.4416  1.2298  0.3857
  782MOL0     C 3157   6.861   7.108   0.850  1.3491  0.6591  0.4990
  782MOL0     C 3158   6.724   7.109   0.890  0.1824 -0.7454  0.1443
  782MOL0     H 3159   6.353   6.893   1.005 -0.8399 -1.2261  0.8761
  782MOL0     H 3160   6.109   6.829   1.026  2.8151 -0.2892  1.2730
  782MOL0     H 3161   5.804   7.166   1.072 -0.8218  0.4080  2.2590
  782MOL0     H 3162   5.826   7.065   1.210  3.4017 -0.4778 -0.6436
  782MOL0     H 3163   5.670   6.889   1.117 -3.5262  0.1738  0.6229
  782MOL0     H 3164   5.660   6.970   0.972 -0.3337 -1.0735  0.7480
  782MOL0     H 3165   5.558   7.183   1.060  0.1137  0.5160 -0.5427
  782MOL0     H 3166   5.562   7.130   1.211 -1.4681  1.1420 -0.7416
  782MOL0     H 3167   5.428   6.930   1.020 -0.3092  0.6090 -1.1959
  782MOL0     H 3168   5.402   6.936   1.191  1.2190 -1.2685 -1.0012
  782MOL0     H 3169   5.304   7.147   0.989  0.2514 -0.4877 -0.8258
  782MOL0     H 3170   5.304   7.168   1.163  2.0228 -0.2641 -0.8157
  782MOL0     H 3171   5.178   6.920   1.161 -0.3525 -0.0818 -0.1267
  782MOL0     H 3172   5.161   6.955   0.992  2.5371 -0.6972  0.3346
  782MOL0     H 3173   5.055   7.169   1.197 -1.1300  3.5533 -1.6557
  782MOL0     H 3174   5.050   7.159   1.022  0.6319 -0.7124 -0.3471
  782MOL0     H 3175   4.924   6.939   1.169  2.6466 -0.4452 -2.0279
  782MOL0     H 3176   4.933   6.983   1.004  0.8242 -1.5923  0.9514
  782MOL0     H 3177   4.813   7.200   0.893  3.5222 -0.2600  1.1291
  782MOL0     H 3178   4.609   7.319   0.838 -1.2037  0.9512 -0.7393
  782MOL0     H 3179   4.617   7.441   0.962  3.8146 -2.6047 -0.2933
  782MOL0     H 3180   4.381   7.428   0.894 -1.9453  1.0283  1.4613
  782MOL0     H 3181   4.399   7.398   1.061  0.4926 -4.1092  1.3788
  782MOL0     H 3182   4.403   7.168   0.848  1.4994 -1.7475  0.3681
  782MOL0     H 3183   4.379   7.152   1.022 -4.3803  0.8975  1.5000
  782MOL0     H 3184   4.169   7.140   0.865 -0.1795 -0.8850  3.2718
  782MOL0     H 3185   4.176   7.310   0.844 -3.6787  0.3618  1.9767
  782MOL0     H 3186   3.993   7.050   0.894 -0.2811 -0.7827  0.3231
  782MOL0     H 3187   3.739   6.996   0.940  2.2443 -1.1833  0.0283
  782MOL0     H 3188   3.495   6.738   1.061  1.1824  1.5806 -0.6972
  782MOL0     H 3189   3.266   6.639   1.005  0.1732 -0.6693 -0.6917
  782MOL0     H 3190   3.070   6.588   0.906 -2.3424 -2.1010 -0.4723
  782MOL0     H 3191   3.026   6.723   0.803  0.1171  0.4073  0.9691
  782MOL0     H 3192   2.854   6.537   0.946  1.9269  0.1865  1.9418
  782MOL0     H 3193   2.842   6.608   0.780  2.3122 -0.5123 -1.1119
  782MOL0     H 3194   2.797   6.836   0.903  2.7497 -1.5550  0.3498
  782MOL0     H 3195   2.789   6.745   1.048  0.5476  0.9542 -0.1802
  782MOL0     H 3196   2.622   6.672   0.805 -0.0150 -0.0159 -0.4044
  782MOL0     H 3197   2.591   6.633   0.981  0.7367 -1.2244 -0.8452
  782MOL0     H 3198   2.432   6.787   0.892 -1.2457  2.2401 -1.7637
  782MOL0     H 3199   2.552   6.918   0.870  2.2262 -0.7867  0.7381
  782MOL0     H 3200   2.606   6.886   1.112 -0.2552 -1.0820 -0.9121
  782MOL0     H 3201   2.465   6.791   1.138  0.4773  0.9998  1.6406
  782MOL0     H 3202   2.438   7.025   1.203 -0.6641 -0.0905  0.0947
  782MOL0     H 3203   2.475   7.078   1.037  2.8585  0.0380  1.6736
  782MOL0     H 3204   2.261   6.915   0.970  1.7590 -0.1260 -0.0993
  782MOL0     H 3205   2.230   7.078   1.034  0.0804  0.6064 -1.9429
  782MOL0     H 3206   3.084   7.021   1.048 -0.0775  1.0664  2.5393
  782MOL0     H 3207   3.327   7.122   1.073  0.5113  0.1655  2.5136
  782MOL0     H 3208   3.746   7.269   1.258  1.1365 -4.5811  3.3787
  782MOL0     H 3209   3.976   7.343   1.208 -1.5537  0.4479  1.1661
  782MOL0     H 3210   5.997   7.234   1.033 -1.4518  0.9642 -3.1887
  782MOL0     H 3211   6.233   7.311   0.971  1.1753  0.0598  1.8030
  782MOL0     H 3212   6.682   7.460   0.891  2.0433  0.0487 -0.8067
  782MOL0     H 3213   6.920   7.429   0.815  2.2720 -0.2545  4.2492
  782MOL0     H 3214   7.161   7.063   0.723 -0.9353  1.9091 -1.2873
  782MOL0     H 3215   7.096   7.068   0.894 -0.6849  1.5198  0.7523
  782MOL0     H 3216   7.222   7.253   0.941  0.4581 -0.0619  0.1926
  782MOL0     H 3217   7.338   7.145   0.905  0.3506  1.1742 -0.0962
  782MOL0     H 3218   7.253   7.315   0.669 -1.0045 -3.2869 -0.3562
  782MOL0     H 3219   7.407   7.234   0.711  2.3382 -0.1598  2.8761
  782MOL0     H 3220   7.429   7.491   0.724  3.5456 -1.4785  0.4319
  782MOL0     H 3221   7.325   7.473   0.868 -0.0229 -3.6514  3.5947
  782MOL0     H 3222   7.668   7.300   1.016 -0.7664 -0.1223 -0.5472
  782MOL0     H 3223   6.895   7.005   0.846 -2.5682 -0.7957  0.3065
  782MOL0     H 3224   6.667   7.020   0.915 -2.6908 -0.3287 -3.9885
  783MOL0     O 3225   6.052   5.389   2.311 -0.7590  0.4823 -0.1959
  783MOL0     C 3226   6.082   5.286   2.366 -0.4818 -0.8612 -0.9577
  783MOL0     O 3227   5.991   5.187   2.401  0.2866  0.1598 -0.1556
  783MOL0     C 3228   5.856   5.200   2.388  0.0515 -0.4311  0.5763
  783MOL0     C 3229   5.788   5.151   2.273 -0.4724 -0.1399  0.1500
  783MOL0     C 3230   5.652   5.155   2.253  0.7730 -0.5273 -0.3635
  783MOL0     C 3231   5.571   5.209   2.352 -0.4193  0.1202  0.4390
  783MOL0     O 3232   5.434   5.218   2.315 -0.0058 -0.0641 -0.0103
  783MOL0     C 3233   5.352   5.282   2.412 -0.2728 -0.2129 -1.5841
  783MOL0     C 3234   5.207   5.313   2.360 -0.8906 -0.4466 -0.0430
  783MOL0     C 3235   5.140   5.419   2.446  0.2732 -0.1913  0.3186
  783MOL0     C 3236   5.006   5.449   2.384  0.9758 -0.4502 -0.0743
  783MOL0     C 3237   4.923   5.562   2.451 -0.1843 -0.4030  0.2664
  783MOL0     C 3238   4.891   5.543   2.606  0.3319 -1.0720  0.4845
  783MOL0     C 3239   4.817   5.669   2.663 -0.8533 -0.6197 -0.5772
  783MOL0     C 3240   4.776   5.645   2.808  0.1586  0.1931 -0.3552
  783MOL0     N 3241   4.754   5.774   2.871 -0.4501 -0.5269 -0.9375
  783MOL0     C 3242   4.642   5.805   2.945  0.1380  1.1293 -0.7649
  783MOL0     C 3243   4.679   5.924   3.007  0.9008  0.4974  0.3256
  783MOL0     C 3244   4.588   6.008   3.094 -0.3790  0.2983  0.0172
  783MOL0     C 3245   4.665   6.070   3.217 -0.0897  0.3749  0.8479
  783MOL0     C 3246   4.567   6.169   3.292 -0.3629  0.2296 -0.8447
  783MOL0     C 3247   4.545   6.312   3.232 -0.2452 -0.9593 -0.0933
  783MOL0     O 3248   4.465   6.385   3.324  0.1825  0.2921  0.2767
  783MOL0     C 3249   4.331   6.363   3.322 -0.1947  0.0154  0.3920
  783MOL0     C 3250   4.261   6.383   3.201 -0.2481  0.0640  0.2415
  783MOL0     C 3251   4.124   6.357   3.194 -1.2005 -0.0529  0.2050
  783MOL0     C 3252   4.041   6.319   3.305 -0.3244 -1.1362  0.0751
  783MOL0     C 3253   3.898   6.287   3.300  0.2943 -0.0202 -0.3584
  783MOL0     O 3254   3.825   6.270   3.412  0.1231 -0.5414  0.0679
  783MOL0     C 3255   3.687   6.274   3.408  0.1898 -0.0808 -0.0822
  783MOL0     C 3256   3.620   6.174   3.478  0.0811  0.2508 -0.6792
  783MOL0     C 3257   3.482   6.152   3.495 -1.0667  0.2768 -0.0105
  783MOL0     C 3258   3.396   6.252   3.441  0.2057  0.4266 -0.0655
  783MOL0     O 3259   3.256   6.233   3.459  0.7473 -0.0077  0.1086
  783MOL0     C 3260   3.177   6.296   3.358  0.4748 -0.0606  0.0827
  783MOL0     C 3261   3.036   6.232   3.377 -0.2792 -0.7934 -0.4181
  783MOL0     C 3262   2.937   6.305   3.270 -0.2993  0.1114 -0.0171
  783MOL0     C 3263   2.790   6.250   3.279  0.1925  0.7042 -0.0713
  783MOL0     C 3264   2.781   6.100   3.234  0.0212  0.3477  0.0282
  783MOL0     C 3265   2.665   6.081   3.137  1.1864  0.5340 -0.1999
  783MOL0     C 3266   2.629   5.938   3.096  0.1800  0.4581  0.0772
  783MOL0     C 3267   2.541   5.873   3.203  0.7806 -0.6023  0.5339
  783MOL0    Cl 3268   2.374   5.922   3.180 -0.2804 -0.2459  0.1213
  783MOL0     C 3269   3.460   6.361   3.374  0.7080  0.2365  0.4785
  783MOL0     C 3270   3.600   6.374   3.357  0.1788 -0.5818  0.5325
  783MOL0     O 3271   3.847   6.295   3.190  0.0752 -0.1482  0.1333
  783MOL0     C 3272   4.111   6.309   3.429  0.1823 -0.3961  0.1280
  783MOL0     C 3273   4.249   6.333   3.430  1.2243  0.5233 -0.2629
  783MOL0     N 3274   4.799   5.964   2.962  0.0685  0.3760 -0.1600
  783MOL0     N 3275   4.840   5.883   2.878 -0.1454  0.1771  0.1002
  783MOL0     C 3276   5.630   5.258   2.469 -0.4815 -0.8809  0.8602
  783MOL0     C 3277   5.775   5.256   2.486  0.4365 -0.6654 -1.3468
  783MOL0     C 3278   6.224   5.261   2.399  0.7081  0.3222  0.9374
  783MOL0     C 3279   6.253   5.147   2.480  0.8302 -0.5184 -0.3677
  783MOL0     C 3280   6.383   5.135   2.526  0.6209 -0.3655 -0.9850
  783MOL0     C 3281   6.481   5.225   2.496 -0.4634 -0.0690 -0.3594
  783MOL0     O 3282   6.604   5.201   2.550 -0.3463 -0.2846 -0.5046
  783MOL0     C 3283   6.721   5.174   2.466 -0.3468 -1.0168 -0.6716
  783MOL0     C 3284   6.845   5.240   2.532  0.6572 -0.3361 -0.0789
  783MOL0     C 3285   6.968   5.210   2.456 -0.6491 -0.7148  0.4781
  783MOL0     C 3286   7.086   5.290   2.509  0.2447 -0.3190  0.1696
  783MOL0     C 3287   7.214   5.220   2.537  0.0278 -0.3656 -0.2746
  783MOL0     C 3288   7.330   5.188   2.535 -0.6768 -0.5059 -0.3196
  783MOL0     C 3289   6.452   5.334   2.408  0.1262  0.4569  0.2793
  783MOL0     C 3290   6.318   5.360   2.368 -0.1600 -0.2560 -0.1649
  783MOL0     H 3291   5.856   5.110   2.199  1.5086  1.6262  0.8990
  783MOL0     H 3292   5.629   5.106   2.158 -1.9799  3.8025 -2.2605
  783MOL0     H 3293   5.392   5.379   2.443 -1.7272 -0.5226  1.7309
  783MOL0     H 3294   5.347   5.214   2.498  0.3415  1.4298 -0.2074
  783MOL0     H 3295   5.153   5.222   2.386 -1.0982 -0.4387 -0.4373
  783MOL0     H 3296   5.206   5.338   2.253  0.8210  2.0243  0.4463
  783MOL0     H 3297   5.197   5.511   2.464 -0.6277  0.1553  1.4918
  783MOL0     H 3298   5.128   5.375   2.545 -3.9535  2.5530  1.2671
  783MOL0     H 3299   5.016   5.485   2.281  0.5147  0.2973  0.1356
  783MOL0     H 3300   4.956   5.352   2.390 -1.2751  0.7193  1.8867
  783MOL0     H 3301   4.832   5.557   2.391 -0.1595  2.1229 -0.0667
  783MOL0     H 3302   4.966   5.662   2.443 -0.8726 -0.0690  0.6508
  783MOL0     H 3303   4.994   5.542   2.642  0.0343  1.2104  1.5606
  783MOL0     H 3304   4.852   5.445   2.634 -0.6639 -1.7023 -2.6817
  783MOL0     H 3305   4.884   5.755   2.651  0.4775 -1.7419 -1.5255
  783MOL0     H 3306   4.729   5.691   2.602  0.3388 -0.0928 -2.1631
  783MOL0     H 3307   4.859   5.592   2.856 -0.4568 -0.7110 -0.2701
  783MOL0     H 3308   4.690   5.580   2.826  0.5870 -0.0400  0.9649
  783MOL0     H 3309   4.549   5.751   2.955  0.1610  0.4758 -3.3246
  783MOL0     H 3310   4.498   5.949   3.112  0.0066  0.1842  1.6935
  783MOL0     H 3311   4.556   6.101   3.046  0.0801  0.8582  0.7789
  783MOL0     H 3312   4.761   6.121   3.201  0.0647  0.1410  1.0227
  783MOL0     H 3313   4.688   5.984   3.280  1.9393  0.2115 -0.0315
  783MOL0     H 3314   4.469   6.120   3.289  0.8142 -2.4533  0.9087
  783MOL0     H 3315   4.601   6.172   3.396 -3.1362  2.5640  0.1377
  783MOL0     H 3316   4.501   6.309   3.132  1.5663  1.1829 -1.0381
  783MOL0     H 3317   4.642   6.361   3.219 -1.5484  1.7850 -0.2378
  783MOL0     H 3318   4.319   6.408   3.113 -1.2310 -2.9076 -1.4177
  783MOL0     H 3319   4.084   6.369   3.094 -2.0357  1.8068  0.7187
  783MOL0     H 3320   3.672   6.091   3.524 -1.0519 -0.3208 -0.3944
  783MOL0     H 3321   3.456   6.068   3.558 -0.1003  1.8338  2.6189
  783MOL0     H 3322   3.211   6.285   3.254 -1.6845  4.0515 -1.3002
  783MOL0     H 3323   3.178   6.404   3.375  1.3438  0.0801 -0.7848
  783MOL0     H 3324   3.002   6.254   3.478 -0.8347  1.5916 -1.0674
  783MOL0     H 3325   3.047   6.124   3.362  0.3105 -1.0868  1.8648
  783MOL0     H 3326   2.973   6.279   3.171  2.6256 -5.3839  2.0652
  783MOL0     H 3327   2.934   6.413   3.287 -2.6710  0.6242 -2.8947
  783MOL0     H 3328   2.772   6.249   3.386  4.1225 -1.6263  0.7923
  783MOL0     H 3329   2.718   6.312   3.226 -0.9732 -0.5127  0.0313
  783MOL0     H 3330   2.779   6.039   3.324  0.2614 -0.3252 -0.4140
  783MOL0     H 3331   2.876   6.075   3.187  0.8351  0.6416  1.4840
  783MOL0     H 3332   2.696   6.143   3.053  2.2644  0.3819  0.0783
  783MOL0     H 3333   2.576   6.118   3.190  0.9562 -1.4158  0.8921
  783MOL0     H 3334   2.571   5.941   3.003  0.5767  0.9648 -0.1665
  783MOL0     H 3335   2.716   5.877   3.070 -0.5450 -1.6303  2.2562
  783MOL0     H 3336   2.579   5.902   3.302  0.4383  0.7851  0.2779
  783MOL0     H 3337   2.542   5.764   3.205 -1.2893 -0.6536  2.4633
  783MOL0     H 3338   3.389   6.440   3.349  1.1325  0.8018  1.0180
  783MOL0     H 3339   3.622   6.468   3.307 -2.9676  0.1704  0.3224
  783MOL0     H 3340   4.068   6.258   3.515 -1.0565 -1.5144 -1.0953
  783MOL0     H 3341   4.294   6.308   3.526  0.0216 -1.4932 -0.1708
  783MOL0     H 3342   5.562   5.285   2.549 -2.1636 -0.7083 -0.5807
  783MOL0     H 3343   5.813   5.296   2.579 -3.5661  0.6713 -0.0848
  783MOL0     H 3344   6.194   5.059   2.502 -0.1992  0.3352  0.4447
  783MOL0     H 3345   6.394   5.050   2.592  0.2345 -0.1669 -0.6523
  783MOL0     H 3346   6.705   5.223   2.370  0.6022 -0.5671 -0.6127
  783MOL0     H 3347   6.732   5.069   2.439  0.0370 -0.7766 -1.4813
  783MOL0     H 3348   6.824   5.347   2.540 -1.0730 -0.4689 -2.0082
  783MOL0     H 3349   6.853   5.203   2.634  1.1959  0.2515  0.0953
  783MOL0     H 3350   6.960   5.223   2.348  3.2097 -0.7541  0.0601
  783MOL0     H 3351   6.988   5.104   2.475  1.9248 -0.0759  1.8495
  783MOL0     H 3352   7.111   5.372   2.441  3.3324 -0.8253  0.5401
  783MOL0     H 3353   7.064   5.334   2.607  2.4443 -0.0619  0.6084
  783MOL0     H 3354   7.427   5.144   2.546 -0.5899  0.0648  1.4820
  783MOL0     H 3355   6.528   5.396   2.361 -2.1503  1.4942 -2.3095
  783MOL0     H 3356   6.294   5.453   2.318  1.0145 -0.4299 -1.0863
  784MOL0     O 3357   4.985   5.131   5.325 -0.1257  0.5662  0.7506
  784MOL0     C 3358   5.047   5.025   5.338 -0.2683 -0.0102  1.5164
  784MOL0     O 3359   4.993   4.899   5.372 -0.5302  0.4495  0.1864
  784MOL0     C 3360   4.860   4.879   5.381 -0.3023  0.0545 -0.5417
  784MOL0     C 3361   4.815   4.806   5.489 -0.5958 -0.2591  0.2585
  784MOL0     C 3362   4.678   4.766   5.494 -0.0315 -0.0798 -0.4904
  784MOL0     C 3363   4.584   4.809   5.395 -0.2615  0.7890  0.0654
  784MOL0     O 3364   4.455   4.759   5.384 -0.3069 -0.2598 -0.1395
  784MOL0     C 3365   4.452   4.630   5.429 -0.5041  0.8389  0.0427
  784MOL0     C 3366   4.318   4.565   5.391  0.5307  0.1138 -0.2352
  784MOL0     C 3367   4.190   4.662   5.414  0.1737  0.7746  0.2430
  784MOL0     C 3368   4.139   4.639   5.551  0.0093 -0.0521  0.1452
  784MOL0     C 3369   3.986   4.675   5.562  0.1389  0.4244 -0.5320
  784MOL0     C 3370   3.890   4.562   5.491  0.7150  0.2784 -0.9666
  784MOL0     C 3371   3.737   4.591   5.523  0.6965  0.5017 -0.5390
  784MOL0     C 3372   3.692   4.734   5.500 -0.9542 -0.1893  0.1527
  784MOL0     N 3373   3.560   4.757   5.553 -0.0962 -0.3615  0.1455
  784MOL0     C 3374   3.524   4.776   5.688 -0.7617  0.3836 -0.2198
  784MOL0     C 3375   3.391   4.799   5.677 -0.3819  0.2851 -0.2008
  784MOL0     C 3376   3.299   4.815   5.794 -0.5214  0.4600 -0.7151
  784MOL0     C 3377   3.225   4.686   5.830 -0.4066  0.2221 -0.0641
  784MOL0     C 3378   3.129   4.713   5.944 -0.2639  1.1322  0.2605
  784MOL0     C 3379   2.982   4.760   5.900 -0.5205 -0.6130  1.0310
  784MOL0     O 3380   2.897   4.645   5.890 -0.6387  0.5989  0.4095
  784MOL0     C 3381   2.768   4.661   5.932 -0.7685 -0.2138  0.9207
  784MOL0     C 3382   2.677   4.758   5.883  0.5680 -0.2029 -0.0691
  784MOL0     C 3383   2.545   4.762   5.917  0.3915  0.3071  0.0435
  784MOL0     C 3384   2.492   4.654   6.003 -0.3914  0.0616  0.1986
  784MOL0     C 3385   2.358   4.649   6.050 -0.7149  0.1554 -0.0575
  784MOL0     O 3386   2.267   4.709   5.961 -0.1466  0.2263 -0.2304
  784MOL0     C 3387   2.137   4.724   5.999 -0.9369 -0.6063 -0.2083
  784MOL0     C 3388   2.047   4.648   5.931  0.1106  0.2625 -0.1794
  784MOL0     C 3389   1.912   4.668   5.963 -0.0292  0.0769 -0.5479
  784MOL0     C 3390   1.873   4.758   6.056  0.2541  0.1569  0.2553
  784MOL0     O 3391   1.741   4.783   6.066 -0.4630 -0.1432 -0.7160
  784MOL0     C 3392   1.694   4.904   6.138  0.5241 -0.5190  0.2779
  784MOL0     C 3393   1.550   4.910   6.088 -0.0125  1.4483 -0.3229
  784MOL0     C 3394   1.469   4.807   6.171 -0.3580  0.5354  0.5640
  784MOL0     C 3395   1.319   4.835   6.164 -0.3388  0.0925  0.9817
  784MOL0     C 3396   1.238   4.722   6.237 -0.3530 -0.1767  1.0242
  784MOL0     C 3397   1.094   4.744   6.191 -0.1124 -0.7714  0.0513
  784MOL0     C 3398   1.000   4.661   6.267  0.6025  0.6441 -0.4441
  784MOL0     C 3399   0.868   4.741   6.294  1.4316  1.1056 -0.1548
  784MOL0    Cl 3400   0.775   4.776   6.149  0.0914  0.1597  0.5229
  784MOL0     C 3401   1.968   4.818   6.141  0.5404  0.3991  0.2900
  784MOL0     C 3402   2.096   4.793   6.116  0.2735 -0.9380 -0.3457
  784MOL0     O 3403   2.331   4.601   6.157  0.3397 -0.1872  0.2297
  784MOL0     C 3404   2.588   4.553   6.051  0.4361  0.2762 -0.1857
  784MOL0     C 3405   2.721   4.563   6.015 -0.0276  0.8741  0.3175
  784MOL0     N 3406   3.351   4.800   5.548  0.1632 -0.6790  0.0158
  784MOL0     N 3407   3.456   4.772   5.472  1.0154 -0.0722  0.0850
  784MOL0     C 3408   4.634   4.878   5.283  0.1873 -0.7783  0.8784
  784MOL0     C 3409   4.766   4.918   5.283 -0.0847  0.4489 -0.2702
  784MOL0     C 3410   5.190   5.041   5.320  0.1458 -0.1448  0.4149
  784MOL0     C 3411   5.252   5.154   5.270  0.3099 -1.2462 -0.3879
  784MOL0     C 3412   5.390   5.164   5.265 -0.5040 -0.7078  1.2422
  784MOL0     C 3413   5.479   5.071   5.310  0.0963  0.5480 -0.5095
  784MOL0     O 3414   5.617   5.078   5.302  0.5956 -0.0487 -0.4377
  784MOL0     C 3415   5.677   5.162   5.402 -0.2987 -0.3416  0.4111
  784MOL0     C 3416   5.793   5.232   5.328 -0.2508 -0.2063  0.6830
  784MOL0     C 3417   5.887   5.300   5.430  0.5966 -0.3994  0.3468
  784MOL0     C 3418   6.001   5.375   5.364  0.9162  0.0095  0.4543
  784MOL0     C 3419   6.071   5.448   5.463  0.0270 -1.1863 -0.2254
  784MOL0     C 3420   6.129   5.508   5.559  0.9256  0.1834 -0.7547
  784MOL0     C 3421   5.414   4.956   5.363  0.6730  0.0888 -0.3399
  784MOL0     C 3422   5.274   4.932   5.356  0.0777 -0.2729  0.1839
  784MOL0     H 3423   4.892   4.770   5.555 -0.6434  1.4510  1.3012
  784MOL0     H 3424   4.647   4.711   5.583  3.7503  1.2410  1.8788
  784MOL0     H 3425   4.454   4.626   5.538  1.0874 -0.9879  0.0041
  784MOL0     H 3426   4.531   4.571   5.382 -1.4526  1.0701 -1.9504
  784MOL0     H 3427   4.311   4.467   5.439  1.2424  0.4696  0.6225
  784MOL0     H 3428   4.319   4.559   5.282  2.4160 -1.3896 -0.1691
  784MOL0     H 3429   4.113   4.633   5.342 -0.5297  0.4234  1.1135
  784MOL0     H 3430   4.227   4.764   5.405 -0.1249  1.0117  1.6102
  784MOL0     H 3431   4.156   4.536   5.582  1.2776 -0.5511 -1.9805
  784MOL0     H 3432   4.200   4.703   5.616  1.0059 -0.9384  0.1199
  784MOL0     H 3433   3.965   4.776   5.526  2.8444  1.0642 -0.4934
  784MOL0     H 3434   3.953   4.676   5.666 -2.3778  1.4672 -1.2528
  784MOL0     H 3435   3.908   4.455   5.501 -3.9793 -0.8969 -2.6888
  784MOL0     H 3436   3.903   4.584   5.385  4.9798  0.1443 -0.6322
  784MOL0     H 3437   3.672   4.522   5.468  0.6269 -0.3285  0.5374
  784MOL0     H 3438   3.715   4.575   5.629  0.2607 -0.6627 -0.7876
  784MOL0     H 3439   3.713   4.760   5.396  2.8927  3.1092  1.4987
  784MOL0     H 3440   3.763   4.795   5.555  0.8782  0.0229 -2.2893
  784MOL0     H 3441   3.590   4.779   5.775 -0.4337  2.2185 -0.4871
  784MOL0     H 3442   3.222   4.890   5.772 -0.8446 -0.2890 -2.2506
  784MOL0     H 3443   3.351   4.853   5.883 -2.2969  1.0618  0.1127
  784MOL0     H 3444   3.291   4.601   5.850 -1.3890 -0.5502 -0.0323
  784MOL0     H 3445   3.156   4.663   5.748  0.5324 -0.3217 -0.7151
  784MOL0     H 3446   3.107   4.614   5.983 -0.7497  0.6704 -1.1502
  784MOL0     H 3447   3.169   4.775   6.026 -1.5129  3.1150 -0.5530
  784MOL0     H 3448   2.992   4.804   5.801 -0.9638 -0.5173  1.0255
  784MOL0     H 3449   2.945   4.841   5.964 -3.6644 -0.2902 -0.9672
  784MOL0     H 3450   2.723   4.833   5.819 -0.6235  1.4794  0.9703
  784MOL0     H 3451   2.481   4.839   5.875  0.2372  1.5812  2.4464
  784MOL0     H 3452   2.081   4.575   5.858  3.2089  0.6829  0.7055
  784MOL0     H 3453   1.822   4.625   5.921  0.9185 -1.3223 -1.2067
  784MOL0     H 3454   1.754   4.992   6.115  0.9115 -0.6118  0.9187
  784MOL0     H 3455   1.701   4.885   6.245  0.8059 -0.3069  0.2962
  784MOL0     H 3456   1.539   4.895   5.980  1.1269 -0.4191 -0.2208
  784MOL0     H 3457   1.505   5.009   6.103  1.9268  2.3399  0.0272
  784MOL0     H 3458   1.507   4.810   6.273  0.2237 -0.0663  0.3742
  784MOL0     H 3459   1.486   4.706   6.132  1.2377  1.0560 -0.1722
  784MOL0     H 3460   1.308   4.930   6.216  3.3136  0.9998  0.3740
  784MOL0     H 3461   1.282   4.851   6.062 -0.1286  0.1041  0.9082
  784MOL0     H 3462   1.246   4.739   6.345 -0.8064  1.6437  0.8075
  784MOL0     H 3463   1.267   4.620   6.212  0.4697  0.3586 -0.3177
  784MOL0     H 3464   1.098   4.717   6.085  3.0106  0.5854 -0.3105
  784MOL0     H 3465   1.074   4.851   6.192 -0.1808 -0.6311 -3.7049
  784MOL0     H 3466   0.981   4.567   6.215 -2.3846  0.3605  0.9249
  784MOL0     H 3467   1.042   4.638   6.365  2.2966  2.5119 -0.6745
  784MOL0     H 3468   0.896   4.833   6.346  0.6464  1.0495  0.3882
  784MOL0     H 3469   0.807   4.690   6.370  2.7403  3.2447  2.5351
  784MOL0     H 3470   1.937   4.891   6.215 -1.3669  1.3664 -1.3602
  784MOL0     H 3471   2.169   4.847   6.175 -3.0439 -2.1754  5.8279
  784MOL0     H 3472   2.560   4.470   6.116  0.3594 -0.5570 -1.2631
  784MOL0     H 3473   2.797   4.501   6.062 -0.4933 -0.3312 -0.4459
  784MOL0     H 3474   4.565   4.899   5.202 -0.3376  1.3557  1.8000
  784MOL0     H 3475   4.815   4.962   5.196 -0.5961  0.6393 -0.4615
  784MOL0     H 3476   5.195   5.244   5.252  1.4951 -0.0854  1.3323
  784MOL0     H 3477   5.431   5.256   5.225 -0.7797 -0.5695  1.2765
  784MOL0     H 3478   5.724   5.095   5.474  0.0570 -1.1868 -0.6041
  784MOL0     H 3479   5.602   5.229   5.448 -2.1561 -2.0398 -0.0083
  784MOL0     H 3480   5.859   5.159   5.281  1.0406  1.1470  0.3112
  784MOL0     H 3481   5.764   5.307   5.253  3.0126  0.2851 -0.2489
  784MOL0     H 3482   5.937   5.217   5.480 -1.3055 -1.1156  1.1739
  784MOL0     H 3483   5.831   5.363   5.499 -0.6837  2.1420 -2.7239
  784MOL0     H 3484   6.075   5.304   5.324  1.0296  2.2081 -3.8099
  784MOL0     H 3485   5.972   5.445   5.285  3.1797 -0.1395 -0.6051
  784MOL0     H 3486   6.170   5.548   5.649 -1.8935 -1.4930  1.4497
  784MOL0     H 3487   5.474   4.873   5.400 -0.4865 -0.9325 -0.6784
  784MOL0     H 3488   5.228   4.840   5.391 -1.1925  0.2336 -0.1167
  785MOL0     O 3489   7.363   4.443   8.113 -0.2710 -0.4392  0.9037
  785MOL0     C 3490   7.447   4.473   8.199 -0.5369  0.8421 -0.4595
  785MOL0     O 3491   7.426   4.463   8.339  0.2303 -0.0563 -0.1629
  785MOL0     C 3492   7.316   4.387   8.378 -0.1456 -0.6603 -0.0764
  785MOL0     C 3493   7.337   4.255   8.403  0.9151 -0.2712  0.0010
  785MOL0     C 3494   7.234   4.172   8.451 -0.0328  0.2002  0.3452
  785MOL0     C 3495   7.110   4.226   8.477 -0.6416  0.1292 -0.0218
  785MOL0     O 3496   7.008   4.158   8.540 -0.4196  0.1914  0.1832
  785MOL0     C 3497   6.891   4.154   8.459  0.5912  0.2936 -0.6052
  785MOL0     C 3498   6.778   4.076   8.534  0.4745  0.1172  0.2845
  785MOL0     C 3499   6.721   4.143   8.658  0.2214  0.3444 -0.3614
  785MOL0     C 3500   6.648   4.048   8.749  1.2763 -0.4507 -0.3483
  785MOL0     C 3501   6.569   4.129   8.859 -0.4951 -0.0322  0.5459
  785MOL0     C 3502   6.548   4.033   8.976  0.1273 -0.2962 -0.7055
  785MOL0     C 3503   6.463   4.100   9.087  0.3771 -0.6395 -0.5308
  785MOL0     C 3504   6.314   4.089   9.075 -0.1132 -0.5167  0.3059
  785MOL0     N 3505   6.247   4.166   9.183  0.1507  0.1562 -0.1610
  785MOL0     C 3506   6.240   4.112   9.305 -0.4916 -0.5159 -0.7330
  785MOL0     C 3507   6.197   4.218   9.384 -0.1671  0.1741 -0.4308
  785MOL0     C 3508   6.190   4.213   9.529 -0.9023 -0.2919 -0.4092
  785MOL0     C 3509   6.262   4.319   9.610 -0.1862 -0.1586  0.5907
  785MOL0     C 3510   6.198   4.461   9.606  0.1890 -0.0314  0.0171
  785MOL0     C 3511   6.081   4.486   9.702  0.9272  0.0553  0.6065
  785MOL0     O 3512   5.995   4.601   9.670  1.0576 -0.3132 -0.2276
  785MOL0     C 3513   5.864   4.596   9.713 -0.6147  0.2486  0.3123
  785MOL0     C 3514   5.766   4.669   9.642 -0.4061  0.2453 -0.0651
  785MOL0     C 3515   5.627   4.673   9.678 -0.1528 -0.4998 -0.7798
  785MOL0     C 3516   5.584   4.588   9.789  0.2141 -0.2348 -0.0842
  785MOL0     C 3517   5.439   4.582   9.827 -0.2631 -0.5026 -0.1071
  785MOL0     O 3518   5.345   4.642   9.743 -0.0241  0.1881  0.2441
  785MOL0     C 3519   5.210   4.631   9.771  0.1012 -0.0463 -0.2250
  785MOL0     C 3520   5.141   4.725   9.846  0.6707 -0.3725 -0.0887
  785MOL0     C 3521   5.009   4.710   9.879  0.8971  0.7103  0.5790
  785MOL0     C 3522   4.937   4.604   9.814 -0.4102  0.0222  0.2493
  785MOL0     O 3523   4.802   4.589   9.825 -0.2829 -0.0109  0.1458
  785MOL0     C 3524   4.755   4.565   9.955 -0.4902  0.3116 -0.4289
  785MOL0     C 3525   4.618   4.615   9.976  0.1470  0.0220  1.0989
  785MOL0     C 3526   4.525   4.544   9.879 -0.2992 -0.5049  0.3853
  785MOL0     C 3527   4.390   4.564   9.927 -0.0183  0.3555  0.0399
  785MOL0     C 3528   4.288   4.496   9.834 -0.0158  0.3050 -0.0003
  785MOL0     C 3529   4.154   4.469   9.905  0.2342 -0.1895  0.4118
  785MOL0     C 3530   4.058   4.372   9.827 -0.7116 -0.1759  0.1065
  785MOL0     C 3531   3.950   4.322   9.931 -0.3765  0.0006  0.1445
  785MOL0    Cl 3532   3.841   4.206   9.841 -0.2291 -0.5806  0.4334
  785MOL0     C 3533   5.006   4.507   9.747 -0.2707  0.5860  1.1667
  785MOL0     C 3534   5.143   4.515   9.720 -0.8362 -0.2692 -0.5841
  785MOL0     O 3535   5.412   4.520   9.932  0.2960  0.9508  0.1748
  785MOL0     C 3536   5.684   4.510   9.857  0.2498 -0.2787 -0.7458
  785MOL0     C 3537   5.819   4.511   9.817  0.7558  0.4359  0.3583
  785MOL0     N 3538   6.141   4.316   9.299 -0.2993 -0.1039 -0.2147
  785MOL0     N 3539   6.169   4.286   9.176 -0.2132  0.2157 -0.8716
  785MOL0     C 3540   7.094   4.362   8.463 -0.1542 -0.4417  0.2522
  785MOL0     C 3541   7.193   4.443   8.415 -0.3168 -0.0007  0.0476
  785MOL0     C 3542   7.572   4.542   8.160 -0.0032  0.2061 -0.5149
  785MOL0     C 3543   7.648   4.595   8.259 -0.0370 -0.0940 -0.8791
  785MOL0     C 3544   7.777   4.648   8.257  1.4234 -0.3020 -0.1902
  785MOL0     C 3545   7.836   4.654   8.131  0.3986  0.1525  0.0998
  785MOL0     O 3546   7.970   4.679   8.103 -0.3325 -1.0377 -0.2518
  785MOL0     C 3547   8.056   4.741   8.195  1.2917 -0.3979 -1.0315
  785MOL0     C 3548   8.143   4.640   8.266  0.9030 -0.0673 -0.1116
  785MOL0     C 3549   8.190   4.528   8.167  0.5466  0.1876 -0.7559
  785MOL0     C 3550   8.319   4.467   8.208 -1.1926 -0.4480 -0.2491
  785MOL0     C 3551   8.432   4.566   8.207  0.4041 -0.5815 -0.2182
  785MOL0     C 3552   8.530   4.631   8.182  0.3385  0.0332  0.1781
  785MOL0     C 3553   7.756   4.613   8.014 -0.0019  0.3697 -0.4753
  785MOL0     C 3554   7.624   4.558   8.032 -1.1678 -0.3858  0.6573
  785MOL0     H 3555   7.432   4.205   8.384  0.6185 -0.9088  0.1514
  785MOL0     H 3556   7.260   4.073   8.488  2.0166  1.3581  2.2754
  785MOL0     H 3557   6.928   4.098   8.373  0.4689  1.2041 -1.2656
  785MOL0     H 3558   6.865   4.254   8.425 -0.8415 -0.6471 -2.4730
  785MOL0     H 3559   6.816   3.976   8.555 -1.3490 -0.3730  1.5545
  785MOL0     H 3560   6.690   4.068   8.470  1.2285 -0.1179 -0.7355
  785MOL0     H 3561   6.672   4.239   8.644  1.6070  0.8340 -2.1260
  785MOL0     H 3562   6.806   4.185   8.712  0.9966 -0.9952 -0.4839
  785MOL0     H 3563   6.584   3.981   8.691  1.0777 -1.9411  1.4864
  785MOL0     H 3564   6.728   3.993   8.798  1.5455 -1.7333 -2.1637
  785MOL0     H 3565   6.485   4.186   8.819  0.1087  2.3167  2.4384
  785MOL0     H 3566   6.636   4.202   8.906  1.8308 -0.6438 -1.5748
  785MOL0     H 3567   6.642   3.997   9.019 -0.0854 -1.4407 -1.1438
  785MOL0     H 3568   6.496   3.944   8.937  0.1916 -0.1058 -1.2343
  785MOL0     H 3569   6.496   4.045   9.175  0.8318 -1.8083 -1.4010
  785MOL0     H 3570   6.488   4.204   9.109 -0.4069 -0.8644  1.6115
  785MOL0     H 3571   6.279   3.986   9.075  0.6877 -0.8109  1.4954
  785MOL0     H 3572   6.295   4.139   8.979  0.3467  2.0664  1.4639
  785MOL0     H 3573   6.297   4.026   9.339  0.2239 -0.5305 -1.9293
  785MOL0     H 3574   6.218   4.113   9.561  0.5823  0.4304  0.6569
  785MOL0     H 3575   6.088   4.238   9.563 -1.1457 -1.7743  0.0472
  785MOL0     H 3576   6.368   4.331   9.587  0.4404 -1.9446  2.2842
  785MOL0     H 3577   6.273   4.295   9.716 -0.0205 -0.0235  0.6050
  785MOL0     H 3578   6.276   4.535   9.626 -1.2164  2.0939 -1.8218
  785MOL0     H 3579   6.157   4.464   9.505 -1.0950 -2.8491  0.3587
  785MOL0     H 3580   6.108   4.501   9.807 -0.9705  1.1666  0.9674
  785MOL0     H 3581   6.021   4.394   9.700  0.6194  0.2700 -1.1967
  785MOL0     H 3582   5.803   4.725   9.556  1.2451 -1.2452 -0.3905
  785MOL0     H 3583   5.563   4.739   9.620 -2.0226 -0.4644  1.2130
  785MOL0     H 3584   5.198   4.808   9.885  2.7562 -2.4392  1.6167
  785MOL0     H 3585   4.961   4.785   9.940  2.1856  2.1980 -0.1817
  785MOL0     H 3586   4.816   4.625  10.023 -0.4924  0.4089 -0.5114
  785MOL0     H 3587   4.756   4.458   9.977 -3.4350 -0.2674 -2.5858
  785MOL0     H 3588   4.606   4.723   9.981 -0.0195 -0.0477  3.6093
  785MOL0     H 3589   4.599   4.580  10.079  1.9077  0.7705  1.7007
  785MOL0     H 3590   4.557   4.440   9.877  0.7335 -0.1925 -1.4727
  785MOL0     H 3591   4.527   4.573   9.773 -1.2235 -3.5334 -0.5380
  785MOL0     H 3592   4.397   4.519  10.026  0.3535 -0.8767 -0.5331
  785MOL0     H 3593   4.355   4.668   9.928 -1.3487 -0.0807  0.2688
  785MOL0     H 3594   4.315   4.393   9.811 -3.1702 -0.6191 -0.1330
  785MOL0     H 3595   4.280   4.557   9.744  1.8532  2.3009  1.0953
  785MOL0     H 3596   4.108   4.564   9.932 -1.1723 -0.2309 -1.6032
  785MOL0     H 3597   4.181   4.429  10.003 -0.9576  1.9912  1.7013
  785MOL0     H 3598   4.015   4.419   9.738  2.3933 -3.0818 -3.3104
  785MOL0     H 3599   4.103   4.280   9.786 -0.3548  0.6215 -1.3603
  785MOL0     H 3600   3.885   4.406   9.955 -1.7461 -1.3658  1.4836
  785MOL0     H 3601   3.994   4.278  10.020 -0.0892  0.3918  0.1946
  785MOL0     H 3602   4.959   4.413   9.719  1.6653  0.6059 -2.8945
  785MOL0     H 3603   5.214   4.444   9.678 -1.5979 -0.0616 -2.3204
  785MOL0     H 3604   5.643   4.458   9.943 -0.8208  0.3669 -0.8455
  785MOL0     H 3605   5.890   4.455   9.877 -0.1121 -0.4908  0.5404
  785MOL0     H 3606   7.006   4.422   8.484  1.8819  2.7113  0.3332
  785MOL0     H 3607   7.185   4.552   8.414  4.2627  0.5166 -0.4594
  785MOL0     H 3608   7.610   4.605   8.361  0.3783 -0.6404 -0.6618
  785MOL0     H 3609   7.835   4.692   8.338  4.6798 -1.5907 -1.6583
  785MOL0     H 3610   7.994   4.808   8.255 -1.2036 -3.0905 -0.3582
  785MOL0     H 3611   8.120   4.799   8.129  2.2710 -0.4015 -0.1062
  785MOL0     H 3612   8.230   4.690   8.309  0.7497  2.0965 -2.1066
  785MOL0     H 3613   8.085   4.592   8.345 -3.1249  1.0391 -2.1059
  785MOL0     H 3614   8.197   4.580   8.072 -0.0302 -0.8915 -1.4116
  785MOL0     H 3615   8.115   4.449   8.159  2.3117 -1.8120  0.9862
  785MOL0     H 3616   8.307   4.430   8.311  3.9764  0.5921  1.0191
  785MOL0     H 3617   8.347   4.392   8.134 -0.7566 -3.3418  2.5887
  785MOL0     H 3618   8.610   4.700   8.166 -1.4712  2.6186  1.7134
  785MOL0     H 3619   7.811   4.611   7.921  0.5769  0.0298 -0.1336
  785MOL0     H 3620   7.578   4.523   7.941  0.6058 -1.4592  0.1368
  786MOL0     O 3621   7.665   9.207  10.704 -0.5676  0.2003  0.2166
  786MOL0     C 3622   7.698   9.133  10.613 -0.2627  0.0612  0.1150
  786MOL0     O 3623   7.616   9.060  10.538  0.1253  0.1055 -0.6375
  786MOL0     C 3624   7.483   9.023  10.571 -0.7292 -0.0056  0.7116
  786MOL0     C 3625   7.424   8.937  10.474 -0.6821 -0.1760 -0.5883
  786MOL0     C 3626   7.287   8.906  10.486  1.1670 -0.5466 -0.4856
  786MOL0     C 3627   7.211   8.957  10.596  0.4071  0.4154 -0.0996
  786MOL0     O 3628   7.075   8.929  10.597  0.2575  0.1987  0.1351
  786MOL0     C 3629   6.994   8.970  10.705  0.0726 -0.0577 -0.9806
  786MOL0     C 3630   6.851   8.950  10.688  0.1915  0.2973 -0.0748
  786MOL0     C 3631   6.827   8.800  10.668 -0.0585  0.2074  0.2483
  786MOL0     C 3632   6.690   8.755  10.712 -0.1902  0.0017 -1.0151
  786MOL0     C 3633   6.680   8.603  10.737 -0.1153 -0.2830 -0.7796
  786MOL0     C 3634   6.741   8.517  10.630  0.3399 -0.2704  0.0837
  786MOL0     C 3635   6.683   8.379  10.634  0.4193  0.4556  0.1668
  786MOL0     C 3636   6.726   8.282  10.521 -0.6550 -0.6657 -0.7367
  786MOL0     N 3637   6.858   8.224  10.562 -0.1114 -0.4866  0.0848
  786MOL0     C 3638   6.881   8.136  10.663 -0.3527  0.6368  0.5197
  786MOL0     C 3639   7.014   8.110  10.648  0.6819 -0.8132 -0.2943
  786MOL0     C 3640   7.104   8.020  10.730 -0.5663 -0.5334  0.4883
  786MOL0     C 3641   7.092   7.870  10.703  0.0372  0.1981  0.2529
  786MOL0     C 3642   7.133   7.829  10.565 -0.2092 -0.8848 -0.2891
  786MOL0     C 3643   7.280   7.824  10.532 -0.0601 -0.0005 -1.0683
  786MOL0     O 3644   7.335   7.955  10.533  0.5523  0.3730  0.3784
  786MOL0     C 3645   7.473   7.959  10.534 -0.8036 -0.2646 -0.3443
  786MOL0     C 3646   7.549   7.978  10.414  0.1053  0.4070  0.4209
  786MOL0     C 3647   7.687   7.992  10.417 -0.7709 -0.6980 -0.0464
  786MOL0     C 3648   7.757   7.963  10.535 -0.3230  0.3227  0.0277
  786MOL0     C 3649   7.905   7.960  10.555  0.1001  0.1794 -0.1527
  786MOL0     O 3650   7.950   7.955  10.687  0.2710 -0.2503  0.3235
  786MOL0     C 3651   8.078   7.905  10.709  0.5093  0.0131  0.1767
  786MOL0     C 3652   8.125   7.939  10.837 -0.0369  0.6847  0.0903
  786MOL0     C 3653   8.245   7.887  10.884  0.0920  0.6841 -0.2035
  786MOL0     C 3654   8.317   7.808  10.804  0.5793  0.3555 -0.9787
  786MOL0     O 3655   8.424   7.759  10.869 -0.2631 -0.4283 -0.3300
  786MOL0     C 3656   8.492   7.659  10.795 -0.3354 -0.2127 -0.4947
  786MOL0     C 3657   8.625   7.635  10.870  0.7420 -0.3118  0.5475
  786MOL0     C 3658   8.713   7.757  10.886 -0.3392  0.1633  0.9606
  786MOL0     C 3659   8.761   7.821  10.749  0.4805  0.1857 -1.0516
  786MOL0     C 3660   8.851   7.942  10.781 -0.3679  1.0094 -0.4655
  786MOL0     C 3661   8.875   8.026  10.650  0.9224  1.4082  0.7579
  786MOL0     C 3662   8.970   8.140  10.674 -0.0433  0.9280 -0.0863
  786MOL0     C 3663   8.958   8.256  10.573  0.8894 -0.0436  0.2943
  786MOL0    Cl 3664   8.791   8.334  10.581  0.5973 -0.0997  0.3024
  786MOL0     C 3665   8.272   7.773  10.677 -0.1028 -0.1490  1.2126
  786MOL0     C 3666   8.153   7.823  10.634  0.7304  0.4305  0.3636
  786MOL0     O 3667   7.974   7.982  10.456  0.2859 -0.2911  0.1595
  786MOL0     C 3668   7.678   7.936  10.650  0.4384  0.0754  0.4749
  786MOL0     C 3669   7.537   7.938  10.648 -0.2446  1.0434  0.6635
  786MOL0     N 3670   7.065   8.182  10.543  0.1588 -0.6831  0.7073
  786MOL0     N 3671   6.972   8.256  10.494  0.3642 -0.4143  0.1306
  786MOL0     C 3672   7.279   9.024  10.700  0.5178 -0.1979 -0.6884
  786MOL0     C 3673   7.414   9.054  10.685 -0.3442 -0.1803  0.0417
  786MOL0     C 3674   7.840   9.114  10.586 -0.0763 -0.2341 -0.4461
  786MOL0     C 3675   7.949   9.164  10.667  0.3995  0.1869  0.3077
  786MOL0     C 3676   8.087   9.146  10.629 -0.3944 -0.6688 -0.8194
  786MOL0     C 3677   8.121   9.059  10.518 -0.5271 -0.5472  0.1581
  786MOL0     O 3678   8.254   9.027  10.498  0.4461 -0.9462 -1.1603
  786MOL0     C 3679   8.352   9.082  10.590  0.8463  0.1319  0.0718
  786MOL0     C 3680   8.497   9.035  10.556 -0.4398  0.2772  0.2933
  786MOL0     C 3681   8.542   9.096  10.426  0.0951 -0.6893 -0.3138
  786MOL0     C 3682   8.673   9.035  10.375 -0.2728 -0.5860 -0.1716
  786MOL0     C 3683   8.793   9.100  10.441 -0.2062 -0.1058 -0.0275
  786MOL0     C 3684   8.899   9.140  10.478  0.2912 -0.7836  0.8197
  786MOL0     C 3685   8.016   9.017  10.445 -0.4470  0.0824 -0.0024
  786MOL0     C 3686   7.881   9.048  10.469  0.3647 -0.6487 -0.4310
  786MOL0     H 3687   7.475   8.890  10.390  1.2529  1.9727 -0.7151
  786MOL0     H 3688   7.231   8.864  10.403 -0.9414  2.4220 -0.7540
  786MOL0     H 3689   7.012   9.075  10.731  0.7953 -0.2455 -0.7095
  786MOL0     H 3690   7.037   8.915  10.789 -0.2928 -0.3711 -0.9959
  786MOL0     H 3691   6.807   9.006  10.605  0.7222  0.6672 -0.1065
  786MOL0     H 3692   6.799   8.989  10.776 -0.4071  0.3109 -0.4290
  786MOL0     H 3693   6.912   8.743  10.706 -0.1026 -2.6313 -3.3318
  786MOL0     H 3694   6.839   8.780  10.561  4.3653  3.5491 -0.1730
  786MOL0     H 3695   6.644   8.800  10.800  0.0835 -3.0782  0.8579
  786MOL0     H 3696   6.628   8.792  10.630 -0.1655  1.5780 -0.3503
  786MOL0     H 3697   6.572   8.583  10.737 -0.2689  0.5094 -0.8973
  786MOL0     H 3698   6.719   8.566  10.833  1.3010  0.5021 -1.0340
  786MOL0     H 3699   6.850   8.508  10.639  0.5295  0.1791 -1.4565
  786MOL0     H 3700   6.717   8.547  10.528  0.7931 -0.6992 -0.1542
  786MOL0     H 3701   6.692   8.317  10.724  0.4106 -1.1934 -0.9187
  786MOL0     H 3702   6.579   8.397  10.605 -0.1374  4.2975  3.5939
  786MOL0     H 3703   6.747   8.335  10.428  3.7507 -0.6427  0.0703
  786MOL0     H 3704   6.664   8.194  10.501  0.1381 -1.7648  1.3432
  786MOL0     H 3705   6.821   8.082  10.735  0.3768 -1.9119 -0.6486
  786MOL0     H 3706   7.078   8.036  10.835  1.4842 -0.9637  1.1153
  786MOL0     H 3707   7.209   8.049  10.720 -1.0581  0.6710 -1.8306
  786MOL0     H 3708   6.985   7.849  10.717  0.1739  0.5428  1.9541
  786MOL0     H 3709   7.150   7.818  10.779  1.7097  1.5762 -0.0154
  786MOL0     H 3710   7.092   7.736  10.525 -3.5972  0.7166 -0.8921
  786MOL0     H 3711   7.091   7.900  10.493  2.5849  3.1768  1.6927
  786MOL0     H 3712   7.299   7.771  10.438  0.5892 -1.2915 -0.2479
  786MOL0     H 3713   7.323   7.760  10.610 -2.9572  1.0161  1.5648
  786MOL0     H 3714   7.500   7.981  10.318  0.6892 -0.4123  0.0845
  786MOL0     H 3715   7.744   8.018  10.328 -0.3585 -0.1909  0.3647
  786MOL0     H 3716   8.063   7.994  10.907  0.5596 -0.9260  1.9855
  786MOL0     H 3717   8.286   7.906  10.982  0.3588 -1.7821  0.2347
  786MOL0     H 3718   8.500   7.686  10.689 -7.3901 -1.7075 -1.9179
  786MOL0     H 3719   8.424   7.573  10.792  0.7247 -1.0765 -0.6628
  786MOL0     H 3720   8.690   7.565  10.816  1.6878  0.7424  0.2681
  786MOL0     H 3721   8.595   7.602  10.969 -1.3498 -1.3030 -0.3659
  786MOL0     H 3722   8.804   7.743  10.944  0.8336  2.5773 -0.1463
  786MOL0     H 3723   8.664   7.835  10.946 -0.9873  2.3251 -2.1341
  786MOL0     H 3724   8.818   7.738  10.705 -4.5830 -3.5327 -1.5176
  786MOL0     H 3725   8.679   7.843  10.681 -2.7406 -2.4610  1.6281
  786MOL0     H 3726   8.946   7.903  10.818  0.0495 -0.0059 -2.4850
  786MOL0     H 3727   8.807   8.007  10.857 -4.5981 -0.0363 -1.7880
  786MOL0     H 3728   8.775   8.057  10.619 -0.6729 -2.2653  1.6775
  786MOL0     H 3729   8.911   7.958  10.572 -1.2536 -1.6134  2.1874
  786MOL0     H 3730   8.966   8.178  10.776  3.5194  0.4152  0.3742
  786MOL0     H 3731   9.073   8.102  10.665 -0.0984  0.4357  1.2089
  786MOL0     H 3732   8.971   8.223  10.470  3.1596 -2.1250  1.1531
  786MOL0     H 3733   9.036   8.328  10.598  1.5226 -0.0158 -1.6183
  786MOL0     H 3734   8.330   7.717  10.604  1.6297  5.1234 -2.0306
  786MOL0     H 3735   8.107   7.790  10.542  0.3930  0.2945  0.5789
  786MOL0     H 3736   7.728   7.900  10.739  1.4971 -0.0135 -0.1317
  786MOL0     H 3737   7.489   7.919  10.744 -2.3791 -3.1284 -0.9307
  786MOL0     H 3738   7.236   9.043  10.798 -0.1858 -0.5716 -0.9134
  786MOL0     H 3739   7.475   9.078  10.772 -1.0537 -2.1532  1.1374
  786MOL0     H 3740   7.932   9.223  10.756  0.5631 -0.5876  0.8623
  786MOL0     H 3741   8.159   9.190  10.697 -1.6815 -0.7232  0.6203
  786MOL0     H 3742   8.329   9.050  10.692  1.0501 -3.2320 -0.8128
  786MOL0     H 3743   8.350   9.190  10.602  0.3661 -0.0326  1.5926
  786MOL0     H 3744   8.570   9.065  10.631 -0.0425  1.2826 -0.4690
  786MOL0     H 3745   8.494   8.928  10.533  1.3677  0.5364 -1.3824
  786MOL0     H 3746   8.550   9.205  10.434  1.4549 -0.7355 -0.7627
  786MOL0     H 3747   8.462   9.083  10.353  0.6926  3.9702 -2.1581
  786MOL0     H 3748   8.656   8.928  10.385  0.1441 -0.4831  2.1199
  786MOL0     H 3749   8.671   9.061  10.268 -0.8811  0.2946  0.0401
  786MOL0     H 3750   8.988   9.194  10.507 -0.1802 -0.4243  1.6430
  786MOL0     H 3751   8.035   8.945  10.366  0.8659  0.7371 -0.3181
  786MOL0     H 3752   7.811   9.009  10.396  1.4214  1.0407 -2.4591
  787MOL0     O 3753   3.148   1.939   1.307 -0.5063 -0.5722 -0.3092
  787MOL0     C 3754   3.176   1.856   1.221  0.4780  0.5555  0.9390
  787MOL0     O 3755   3.095   1.809   1.120 -0.0239 -0.4112  0.0341
  787MOL0     C 3756   2.963   1.847   1.103 -0.0081 -1.0182 -0.1742
  787MOL0     C 3757   2.906   1.794   0.983 -0.0444  0.2989  0.0027
  787MOL0     C 3758   2.775   1.827   0.946 -0.5112  0.5301 -1.0278
  787MOL0     C 3759   2.702   1.919   1.019  0.3984 -0.2380 -0.3301
  787MOL0     O 3760   2.574   1.946   0.976  0.7815  0.2341  0.7573
  787MOL0     C 3761   2.540   2.085   0.988 -1.1020 -0.5767 -0.2509
  787MOL0     C 3762   2.402   2.112   0.930 -0.9801  0.2495 -0.1377
  787MOL0     C 3763   2.292   2.067   1.029 -1.0862 -0.5021 -0.2307
  787MOL0     C 3764   2.157   2.152   1.002  0.1879 -0.3582 -0.1120
  787MOL0     C 3765   2.039   2.104   1.087  0.9155 -0.7427 -0.2963
  787MOL0     C 3766   1.964   1.993   0.994 -0.1527 -0.2299  0.1845
  787MOL0     C 3767   1.846   1.923   1.069  0.5094 -0.2642  0.1116
  787MOL0     C 3768   1.728   2.028   1.072  0.0524 -0.3793  0.1071
  787MOL0     N 3769   1.597   1.974   1.099  0.3704  0.2524 -0.1797
  787MOL0     C 3770   1.518   1.989   1.212 -0.1181  1.0969 -0.3260
  787MOL0     C 3771   1.408   1.914   1.189  0.1766 -0.3830  0.1780
  787MOL0     C 3772   1.311   1.864   1.295  0.5096 -0.4688 -0.0913
  787MOL0     C 3773   1.164   1.888   1.246 -0.3033  0.1630 -0.0821
  787MOL0     C 3774   1.062   1.896   1.361 -0.0080  0.1924 -0.1271
  787MOL0     C 3775   0.915   1.877   1.306 -0.5752 -0.1387  0.0176
  787MOL0     O 3776   0.886   1.743   1.263 -0.2478 -0.1993 -0.2554
  787MOL0     C 3777   0.761   1.711   1.221 -0.4050  1.4300 -0.7500
  787MOL0     C 3778   0.653   1.794   1.195 -0.0310  0.2899 -0.6081
  787MOL0     C 3779   0.532   1.743   1.147 -0.6107  0.5928  0.0145
  787MOL0     C 3780   0.519   1.608   1.125 -0.8288 -0.4427  0.4431
  787MOL0     C 3781   0.386   1.560   1.075  0.6714 -0.2224  0.1424
  787MOL0     O 3782   0.374   1.428   1.040  0.1617 -0.7709 -0.4841
  787MOL0     C 3783   0.249   1.376   1.005 -0.3311 -0.0390  0.4416
  787MOL0     C 3784   0.126   1.414   1.069  0.9303  1.0839 -0.2033
  787MOL0     C 3785   0.016   1.333   1.032  0.1306  0.2759 -0.3364
  787MOL0     C 3786   0.013   1.234   0.938 -0.3087 -0.5947 -0.5438
  787MOL0     O 3787  -0.109   1.178   0.922 -0.1508  0.1543  0.5993
  787MOL0     C 3788  -0.131   1.118   0.788  0.8352 -0.4852 -0.3598
  787MOL0     C 3789  -0.177   1.228   0.686 -0.2593 -0.6273 -0.1390
  787MOL0     C 3790  -0.288   1.172   0.588  0.0438 -0.5675  0.4814
  787MOL0     C 3791  -0.333   1.289   0.494  0.3096  0.7281 -1.3096
  787MOL0     C 3792  -0.462   1.231   0.425  1.0597 -0.4338 -0.4628
  787MOL0     C 3793  -0.522   1.339   0.324  0.2551  0.1079  0.8920
  787MOL0     C 3794  -0.584   1.470   0.391  0.2198  0.5590  0.3543
  787MOL0     C 3795  -0.624   1.564   0.283 -0.3962 -0.8986  0.1033
  787MOL0    Cl 3796  -0.481   1.657   0.214 -0.3446  0.5464 -0.3518
  787MOL0     C 3797   0.137   1.189   0.898 -0.3410 -0.3096  0.2368
  787MOL0     C 3798   0.258   1.257   0.930 -0.0930 -0.1752  0.1084
  787MOL0     O 3799   0.296   1.640   1.056 -0.4005 -1.0643 -0.1374
  787MOL0     C 3800   0.639   1.529   1.140 -0.1385  0.0846 -0.1456
  787MOL0     C 3801   0.761   1.573   1.193  0.3989  0.3059  0.9191
  787MOL0     N 3802   1.430   1.838   1.072 -0.5899  0.2103 -0.4238
  787MOL0     N 3803   1.544   1.873   1.024 -0.0460  1.2941  0.5534
  787MOL0     C 3804   2.757   1.965   1.144  0.0515 -0.2685  0.8961
  787MOL0     C 3805   2.883   1.924   1.189  0.3057  0.3932 -0.2416
  787MOL0     C 3806   3.309   1.796   1.223  0.0337 -0.5742  0.0270
  787MOL0     C 3807   3.421   1.841   1.306 -0.3105  0.0372  0.6751
  787MOL0     C 3808   3.543   1.779   1.294 -0.0077 -0.3569  0.8558
  787MOL0     C 3809   3.563   1.674   1.197 -0.1270 -0.1839 -0.3288
  787MOL0     O 3810   3.678   1.606   1.182  0.1636  0.1850 -0.3098
  787MOL0     C 3811   3.809   1.670   1.197 -0.4683  0.1583 -0.3634
  787MOL0     C 3812   3.883   1.606   1.317 -0.4157  0.3416 -0.3303
  787MOL0     C 3813   3.808   1.594   1.456  0.3292 -0.1454 -0.4507
  787MOL0     C 3814   3.781   1.444   1.493 -0.0350 -1.1525  0.5062
  787MOL0     C 3815   3.722   1.437   1.623  0.4437 -0.4036 -0.7093
  787MOL0     C 3816   3.678   1.423   1.738  0.8981  0.1238 -1.0063
  787MOL0     C 3817   3.448   1.627   1.128  0.1996  0.1409 -0.9651
  787MOL0     C 3818   3.324   1.684   1.139  0.9042 -0.1702 -0.2053
  787MOL0     H 3819   2.970   1.733   0.919  1.2996 -1.3270  2.7161
  787MOL0     H 3820   2.727   1.786   0.858  1.0450 -1.3058 -1.0978
  787MOL0     H 3821   2.610   2.155   0.941 -1.2699 -1.5457 -2.0432
  787MOL0     H 3822   2.545   2.112   1.094 -3.0394  1.6419 -0.6497
  787MOL0     H 3823   2.388   2.070   0.830 -1.6929  1.7487 -0.6966
  787MOL0     H 3824   2.403   2.221   0.921  1.6995  0.6389  3.0606
  787MOL0     H 3825   2.316   2.093   1.132 -1.2353  1.4573 -0.6487
  787MOL0     H 3826   2.274   1.960   1.014 -0.9216 -0.1987 -3.2235
  787MOL0     H 3827   2.192   2.249   1.038  0.6802 -0.8560  0.8048
  787MOL0     H 3828   2.126   2.155   0.898 -2.5806 -3.2246  0.4717
  787MOL0     H 3829   1.966   2.181   1.113  0.8173 -1.2731  1.0568
  787MOL0     H 3830   2.076   2.064   1.182 -0.3369  1.1961  1.0807
  787MOL0     H 3831   2.043   1.920   0.973  0.2542 -0.4104  2.2094
  787MOL0     H 3832   1.938   2.039   0.898  2.9408 -1.1257 -1.2100
  787MOL0     H 3833   1.820   1.834   1.012 -1.8944 -1.2475  2.4908
  787MOL0     H 3834   1.879   1.899   1.171 -0.5646 -0.3307  0.4553
  787MOL0     H 3835   1.718   2.065   0.970  1.4058  1.1184  0.4814
  787MOL0     H 3836   1.751   2.117   1.131  1.3046  0.1601 -1.1335
  787MOL0     H 3837   1.554   2.036   1.303  0.7287  0.2914 -0.2256
  787MOL0     H 3838   1.335   1.904   1.394  4.1391 -1.4493 -0.4530
  787MOL0     H 3839   1.313   1.756   1.312 -0.8373 -1.0180 -2.8705
  787MOL0     H 3840   1.131   1.807   1.180  2.5318 -1.0707 -0.1336
  787MOL0     H 3841   1.165   1.979   1.186 -1.4425 -0.1468 -0.6067
  787MOL0     H 3842   1.072   1.805   1.421 -1.1528  1.0231  1.3806
  787MOL0     H 3843   1.075   1.988   1.419  3.5728 -0.2479 -0.0029
  787MOL0     H 3844   0.911   1.941   1.218  3.3339 -0.2974 -0.4899
  787MOL0     H 3845   0.845   1.917   1.379  0.1488 -2.9661  2.4612
  787MOL0     H 3846   0.651   1.902   1.208 -2.3514  0.1895  0.2082
  787MOL0     H 3847   0.451   1.814   1.133 -0.8775  0.1847 -0.5654
  787MOL0     H 3848   0.103   1.492   1.141  1.8690 -0.1263  1.4871
  787MOL0     H 3849  -0.086   1.350   1.064  1.2666  2.7180  2.4547
  787MOL0     H 3850  -0.212   1.045   0.795 -1.0045  1.3498 -1.3445
  787MOL0     H 3851  -0.050   1.056   0.751  1.0415 -0.6014  0.2795
  787MOL0     H 3852  -0.091   1.253   0.624  0.6341  1.4658  1.7865
  787MOL0     H 3853  -0.213   1.320   0.734  0.1783 -0.4586 -0.1284
  787MOL0     H 3854  -0.375   1.130   0.640 -0.0191 -2.8393 -1.3294
  787MOL0     H 3855  -0.237   1.086   0.545 -1.1401 -2.7519  3.1465
  787MOL0     H 3856  -0.351   1.377   0.556  1.2529  0.6854 -0.9627
  787MOL0     H 3857  -0.263   1.301   0.411 -0.0589  0.1234 -1.7145
  787MOL0     H 3858  -0.538   1.199   0.497  1.2903 -2.4871 -1.0875
  787MOL0     H 3859  -0.442   1.132   0.385  0.1875 -1.2118  0.9542
  787MOL0     H 3860  -0.600   1.291   0.264  1.3097 -1.1585  0.4893
  787MOL0     H 3861  -0.442   1.366   0.254  1.7989 -0.9949  2.1747
  787MOL0     H 3862  -0.666   1.442   0.458 -0.4727 -1.0878 -1.1125
  787MOL0     H 3863  -0.496   1.517   0.436  1.5514 -0.9996 -0.5012
  787MOL0     H 3864  -0.688   1.642   0.327  0.2043  0.1804 -0.8809
  787MOL0     H 3865  -0.679   1.510   0.206 -1.0893 -1.3387  0.8861
  787MOL0     H 3866   0.146   1.096   0.843  1.8296  0.6488 -1.1705
  787MOL0     H 3867   0.357   1.222   0.904  0.6067  0.8467  1.2973
  787MOL0     H 3868   0.620   1.422   1.131  0.1488  0.1334 -1.5667
  787MOL0     H 3869   0.845   1.511   1.220 -0.8667 -2.1491 -0.3761
  787MOL0     H 3870   2.694   2.023   1.211  1.1077  2.2521 -0.1566
  787MOL0     H 3871   2.921   1.958   1.285 -0.3452  1.5781 -0.3750
  787MOL0     H 3872   3.428   1.926   1.373  2.3691 -0.0112  0.5713
  787MOL0     H 3873   3.618   1.813   1.365 -1.0295 -0.0294  1.8079
  787MOL0     H 3874   3.791   1.777   1.214  1.1428  0.7208 -1.8750
  787MOL0     H 3875   3.871   1.665   1.107  0.9240  0.7947  0.5157
  787MOL0     H 3876   3.937   1.514   1.290  0.3788  0.9622 -0.9278
  787MOL0     H 3877   3.961   1.680   1.334 -1.1432  1.6415 -2.2686
  787MOL0     H 3878   3.715   1.650   1.460  0.1681 -0.3483 -1.2556
  787MOL0     H 3879   3.873   1.636   1.534 -1.6199  2.7943 -0.2674
  787MOL0     H 3880   3.698   1.403   1.434 -0.6582 -2.2880  2.1056
  787MOL0     H 3881   3.871   1.385   1.476  1.5220  1.3041 -0.3573
  787MOL0     H 3882   3.631   1.429   1.834  0.0276  1.4136 -1.4793
  787MOL0     H 3883   3.466   1.540   1.066  0.5674  0.9841 -2.0598
  787MOL0     H 3884   3.240   1.652   1.078 -3.1740  1.3088  4.0738
  788MOL0     O 3885   3.930   3.848   7.310  0.0513  0.0725  0.3917
  788MOL0     C 3886   3.931   3.772   7.401  0.3122  0.8287 -0.4845
  788MOL0     O 3887   4.030   3.679   7.430  0.9714  0.1590  0.6900
  788MOL0     C 3888   4.138   3.675   7.333  0.3460 -0.5183 -0.3946
  788MOL0     C 3889   4.111   3.654   7.197  0.3327 -0.9780 -0.0301
  788MOL0     C 3890   4.212   3.621   7.106  0.1441 -0.1680 -1.3903
  788MOL0     C 3891   4.349   3.626   7.148 -0.0797  0.7620  0.3319
  788MOL0     O 3892   4.460   3.606   7.067 -0.4658 -0.2096  0.4940
  788MOL0     C 3893   4.436   3.617   6.928  0.0431 -0.0546  0.4179
  788MOL0     C 3894   4.569   3.644   6.839  0.2797 -0.4047  0.4000
  788MOL0     C 3895   4.647   3.510   6.811 -0.6690  0.8634  0.1117
  788MOL0     C 3896   4.780   3.544   6.743 -0.2156 -0.6535 -0.1645
  788MOL0     C 3897   4.838   3.427   6.666  0.5499  0.1472  0.4108
  788MOL0     C 3898   4.894   3.319   6.757 -0.4688  0.8139 -0.5666
  788MOL0     C 3899   4.962   3.203   6.677  0.4034  0.3107  0.5487
  788MOL0     C 3900   5.083   3.135   6.750 -0.0026  0.9644 -0.0679
  788MOL0     N 3901   5.039   3.079   6.879  0.7529  0.4092 -0.0623
  788MOL0     C 3902   5.069   3.136   7.000 -0.4684 -0.6350 -0.0214
  788MOL0     C 3903   5.005   3.056   7.091  0.5536  0.2906  0.4416
  788MOL0     C 3904   5.004   3.096   7.235 -0.1660 -0.0296  0.2871
  788MOL0     C 3905   4.992   3.251   7.253  0.2725 -0.1537 -0.0391
  788MOL0     C 3906   4.870   3.321   7.178  0.1355 -0.0311  0.3108
  788MOL0     C 3907   4.751   3.308   7.271  0.7969 -0.5738 -0.4068
  788MOL0     O 3908   4.779   3.376   7.398  0.7655  0.3319 -0.6860
  788MOL0     C 3909   4.680   3.374   7.493 -0.1861 -0.0147 -0.2784
  788MOL0     C 3910   4.547   3.346   7.472  0.0712  0.1392  0.1540
  788MOL0     C 3911   4.441   3.374   7.558 -0.6522  0.5986  0.1983
  788MOL0     C 3912   4.473   3.427   7.686  0.3571  0.4014  1.0802
  788MOL0     C 3913   4.370   3.444   7.786 -0.1345  1.0098  0.1111
  788MOL0     O 3914   4.240   3.411   7.751 -0.5126 -0.4363  0.2311
  788MOL0     C 3915   4.143   3.438   7.846 -0.1087  0.5751  0.0159
  788MOL0     C 3916   4.034   3.494   7.782  0.0704 -0.1707 -0.0507
  788MOL0     C 3917   3.927   3.523   7.860 -0.3019 -0.0811  0.0971
  788MOL0     C 3918   3.910   3.490   7.994  0.5063  0.1220  0.3473
  788MOL0     O 3919   3.796   3.529   8.053  0.0136  0.0989  0.0032
  788MOL0     C 3920   3.746   3.435   8.145  0.2386  0.1605 -0.5868
  788MOL0     C 3921   3.604   3.479   8.195  0.2371  0.2238 -0.1627
  788MOL0     C 3922   3.527   3.375   8.273  0.0455  0.3537 -0.0167
  788MOL0     C 3923   3.394   3.439   8.334 -0.4304 -1.1525  0.0930
  788MOL0     C 3924   3.318   3.327   8.407 -0.3188  0.0348 -0.1292
  788MOL0     C 3925   3.203   3.378   8.487 -0.7317  0.3367  0.8428
  788MOL0     C 3926   3.119   3.259   8.547 -0.5189 -0.0120 -0.1767
  788MOL0     C 3927   2.992   3.314   8.613 -0.1842  0.6658 -0.5748
  788MOL0    Cl 3928   2.858   3.216   8.531  0.7892 -0.0074  0.2958
  788MOL0     C 3929   4.024   3.428   8.055  0.9900 -0.6970 -0.2072
  788MOL0     C 3930   4.128   3.389   7.978  0.1155  0.3680  0.6473
  788MOL0     O 3931   4.403   3.497   7.892 -0.0840 -0.2120 -0.5323
  788MOL0     C 3932   4.605   3.451   7.710 -0.2872  1.1968 -0.1196
  788MOL0     C 3933   4.709   3.422   7.623 -0.8251 -0.4998  1.3530
  788MOL0     N 3934   4.944   2.945   7.031 -0.5103  0.2227 -0.0200
  788MOL0     N 3935   4.959   2.967   6.906  0.5622 -0.3330  0.2973
  788MOL0     C 3936   4.377   3.642   7.285 -0.0870 -0.6666  0.7099
  788MOL0     C 3937   4.272   3.664   7.379  0.2550 -0.4563  0.0932
  788MOL0     C 3938   3.817   3.776   7.497  0.3268  0.1735  0.4224
  788MOL0     C 3939   3.742   3.893   7.511  0.4367  0.8348  0.5556
  788MOL0     C 3940   3.650   3.910   7.616  0.0977  0.3797 -0.0736
  788MOL0     C 3941   3.612   3.804   7.709 -0.7002  0.0650  0.3318
  788MOL0     O 3942   3.524   3.832   7.807 -0.0694 -0.5941 -0.1020
  788MOL0     C 3943   3.487   3.731   7.895  0.8799  0.3271 -0.0534
  788MOL0     C 3944   3.414   3.801   8.008  0.0179  0.3242 -0.2812
  788MOL0     C 3945   3.498   3.878   8.110 -0.5513 -0.3702  0.2640
  788MOL0     C 3946   3.415   3.947   8.216  0.1465 -0.5746 -0.4062
  788MOL0     C 3947   3.354   4.074   8.180 -0.2536 -0.0106  0.0776
  788MOL0     C 3948   3.330   4.192   8.146  0.3545 -0.4330  0.5375
  788MOL0     C 3949   3.676   3.686   7.677 -0.5151  0.8916 -0.1132
  788MOL0     C 3950   3.766   3.668   7.574 -0.7788 -0.4571  0.1205
  788MOL0     H 3951   4.007   3.664   7.166 -0.5976  0.1004  3.0345
  788MOL0     H 3952   4.187   3.593   7.004  2.6849 -0.4466 -2.0065
  788MOL0     H 3953   4.373   3.705   6.910  1.9822  1.3362  0.0839
  788MOL0     H 3954   4.386   3.532   6.881  1.1104  0.7450 -2.3597
  788MOL0     H 3955   4.637   3.714   6.889 -2.4624  2.3653  0.5670
  788MOL0     H 3956   4.553   3.701   6.747  1.4669 -1.7458 -0.6868
  788MOL0     H 3957   4.585   3.451   6.743 -0.0662  2.5236 -1.9914
  788MOL0     H 3958   4.674   3.448   6.898  0.9946 -0.9076 -1.5783
  788MOL0     H 3959   4.769   3.620   6.665 -1.8530 -2.4296 -1.7515
  788MOL0     H 3960   4.832   3.585   6.830 -0.1065  0.0324 -0.5455
  788MOL0     H 3961   4.908   3.471   6.594 -1.2017  1.1819 -0.7424
  788MOL0     H 3962   4.753   3.383   6.612 -0.3095  1.2316  0.8455
  788MOL0     H 3963   4.816   3.268   6.814  0.1345  0.4454 -0.0638
  788MOL0     H 3964   4.968   3.362   6.824  0.0737  0.6310 -1.0423
  788MOL0     H 3965   4.887   3.125   6.660  0.3022  0.5986 -0.3608
  788MOL0     H 3966   4.987   3.233   6.575 -2.2896  1.7052  0.2050
  788MOL0     H 3967   5.161   3.211   6.763 -1.1426  2.1605  0.0288
  788MOL0     H 3968   5.125   3.050   6.697  1.0667 -3.1841  6.3716
  788MOL0     H 3969   5.129   3.224   7.020  2.0109 -2.3364  0.4203
  788MOL0     H 3970   5.107   3.083   7.269 -0.3913 -0.2297  0.8990
  788MOL0     H 3971   4.943   3.028   7.295 -0.0191 -0.6569 -0.2514
  788MOL0     H 3972   5.086   3.292   7.214 -1.2576  3.8890  0.0377
  788MOL0     H 3973   4.991   3.262   7.361  0.5671 -1.7009  0.1502
  788MOL0     H 3974   4.899   3.422   7.150  0.9946 -0.0624  1.0093
  788MOL0     H 3975   4.844   3.275   7.082 -1.0797 -2.1898  1.5822
  788MOL0     H 3976   4.730   3.204   7.300 -0.1662  0.5438  3.4067
  788MOL0     H 3977   4.657   3.346   7.228  0.0221 -1.2800  0.6067
  788MOL0     H 3978   4.518   3.310   7.374 -0.8732 -1.0462  0.8563
  788MOL0     H 3979   4.347   3.326   7.532 -0.6143  0.6957 -0.1262
  788MOL0     H 3980   4.043   3.518   7.677  0.6740 -1.2609 -0.2681
  788MOL0     H 3981   3.843   3.569   7.808 -1.1076 -1.1248  0.4282
  788MOL0     H 3982   3.816   3.441   8.229  0.7941 -1.5282 -0.8902
  788MOL0     H 3983   3.741   3.334   8.103 -1.1176  0.6754 -1.7336
  788MOL0     H 3984   3.533   3.512   8.119 -2.4532  0.9717  2.4605
  788MOL0     H 3985   3.618   3.568   8.257 -2.7319  0.1822  0.7480
  788MOL0     H 3986   3.597   3.327   8.342 -1.3379 -5.4929 -2.1202
  788MOL0     H 3987   3.498   3.295   8.204  0.4205 -0.4195  0.7011
  788MOL0     H 3988   3.414   3.533   8.386  0.7563 -0.0599 -2.1911
  788MOL0     H 3989   3.330   3.472   8.251 -0.1141  0.0661  0.3223
  788MOL0     H 3990   3.383   3.285   8.484 -0.8544  1.6568  1.2544
  788MOL0     H 3991   3.287   3.252   8.333 -2.2839  3.2787 -2.9049
  788MOL0     H 3992   3.143   3.445   8.424 -0.0624  2.0603  1.9687
  788MOL0     H 3993   3.247   3.444   8.562  1.4921  0.8579 -0.8121
  788MOL0     H 3994   3.076   3.201   8.465 -2.1224 -1.8489  1.8370
  788MOL0     H 3995   3.188   3.193   8.601 -1.3862 -0.5689  0.2711
  788MOL0     H 3996   2.983   3.422   8.596  1.7636  0.6590 -1.9702
  788MOL0     H 3997   2.986   3.291   8.720  1.2653 -2.7993 -1.1179
  788MOL0     H 3998   4.020   3.421   8.163  0.2580  4.8381  0.3855
  788MOL0     H 3999   4.213   3.328   8.007 -0.4227 -0.7029  0.0288
  788MOL0     H 4000   4.619   3.505   7.803  1.4812  0.0850  0.3118
  788MOL0     H 4001   4.811   3.442   7.656 -0.1006 -1.3633 -0.2657
  788MOL0     H 4002   4.479   3.632   7.322  0.9390 -1.6171 -2.1710
  788MOL0     H 4003   4.290   3.669   7.486  0.3221 -1.6752  0.1446
  788MOL0     H 4004   3.752   3.975   7.440  2.5320  1.2197  1.2064
  788MOL0     H 4005   3.598   4.005   7.627 -2.5503 -0.6482 -2.3733
  788MOL0     H 4006   3.566   3.670   7.940  0.4728  0.4264  0.8206
  788MOL0     H 4007   3.413   3.661   7.854  0.5396 -0.3359  1.6047
  788MOL0     H 4008   3.344   3.875   7.967 -0.0677 -0.1453 -1.0090
  788MOL0     H 4009   3.360   3.721   8.059 -0.7194  1.3757  0.6321
  788MOL0     H 4010   3.562   3.954   8.063 -1.5549  1.4269  1.6769
  788MOL0     H 4011   3.567   3.809   8.160 -1.5264 -0.8245  1.0155
  788MOL0     H 4012   3.340   3.880   8.258  0.0558 -0.7151 -0.7911
  788MOL0     H 4013   3.485   3.963   8.299  1.7894  1.2504 -2.0289
  788MOL0     H 4014   3.308   4.293   8.116 -2.9204 -1.6541 -1.6801
  788MOL0     H 4015   3.652   3.597   7.735  0.1938 -0.1963 -1.4440
  788MOL0     H 4016   3.811   3.570   7.577 -0.3465 -0.2343  1.8530
  789MOL0     O 4017   2.524   0.434   9.242 -0.4949 -0.2704  0.7114
  789MOL0     C 4018   2.495   0.508   9.336 -0.5493  0.8388 -0.3274
  789MOL0     O 4019   2.581   0.567   9.420 -0.0386 -0.6057  0.3880
  789MOL0     C 4020   2.709   0.593   9.383 -0.7195 -0.5078 -0.4775
  789MOL0     C 4021   2.724   0.670   9.268 -0.9978 -0.6804  0.5082
  789MOL0     C 4022   2.863   0.705   9.230  0.4143  0.6562 -0.5014
  789MOL0     C 4023   2.969   0.666   9.306 -0.4706 -0.4327 -1.0134
  789MOL0     O 4024   3.101   0.697   9.290  0.7665 -0.6673  0.8193
  789MOL0     C 4025   3.133   0.740   9.152  1.0738 -0.4647 -0.3987
  789MOL0     C 4026   3.288   0.750   9.144 -0.6119 -0.4607  1.1159
  789MOL0     C 4027   3.353   0.621   9.151 -0.4784  1.0078  0.2952
  789MOL0     C 4028   3.487   0.619   9.077 -0.7896  0.9780 -0.2207
  789MOL0     C 4029   3.587   0.504   9.112 -0.0140 -0.1374 -0.5620
  789MOL0     C 4030   3.523   0.364   9.093 -0.6306 -0.7700  0.7669
  789MOL0     C 4031   3.626   0.251   9.124 -0.6484  0.3385  0.4591
  789MOL0     C 4032   3.565   0.116   9.087  0.1026  0.3265 -0.4785
  789MOL0     N 4033   3.498   0.054   9.200 -0.3700 -0.6055  0.7838
  789MOL0     C 4034   3.409   0.113   9.295  0.3846  0.1734  0.0187
  789MOL0     C 4035   3.398   0.023   9.395 -0.3932 -0.4872 -0.1889
  789MOL0     C 4036   3.316   0.024   9.517  1.0829 -0.0223 -0.4149
  789MOL0     C 4037   3.194  -0.065   9.488  0.0793  1.0323  0.5157
  789MOL0     C 4038   3.110  -0.009   9.372 -0.1420  0.3932 -0.9669
  789MOL0     C 4039   2.985  -0.094   9.368 -0.7252  0.1842  0.1143
  789MOL0     O 4040   2.914  -0.047   9.268  0.0458  0.5811  0.4850
  789MOL0     C 4041   2.776  -0.044   9.276 -0.8050  0.0378  0.2765
  789MOL0     C 4042   2.695  -0.140   9.328  0.6243  0.3181 -1.0352
  789MOL0     C 4043   2.549  -0.131   9.341 -1.2314  0.8209  0.1086
  789MOL0     C 4044   2.484  -0.011   9.299 -0.0847  0.2186  0.9209
  789MOL0     C 4045   2.336   0.004   9.313 -1.3129  0.1454 -0.7786
  789MOL0     O 4046   2.281   0.107   9.246 -0.4038  0.2093 -0.0457
  789MOL0     C 4047   2.144   0.118   9.262 -0.0437  0.3192 -0.0048
  789MOL0     C 4048   2.069   0.164   9.156  0.6908  0.1341  0.3725
  789MOL0     C 4049   1.932   0.173   9.161 -0.7306  0.5393 -0.7875
  789MOL0     C 4050   1.864   0.156   9.286  0.4103  0.2594  0.1660
  789MOL0     O 4051   1.728   0.166   9.321  0.4223  0.0294 -0.0152
  789MOL0     C 4052   1.646   0.152   9.204 -0.1228 -0.2611  0.0938
  789MOL0     C 4053   1.515   0.082   9.245 -0.0083 -0.2092 -0.1431
  789MOL0     C 4054   1.434   0.003   9.140  0.9159 -0.7828 -0.4368
  789MOL0     C 4055   1.321   0.084   9.074  0.3476  0.2435  0.4112
  789MOL0     C 4056   1.224   0.015   8.979 -0.0433  0.3296  0.2027
  789MOL0     C 4057   1.133  -0.072   9.065  0.1978  0.2920 -0.1977
  789MOL0     C 4058   1.041  -0.153   8.969 -0.3062 -0.3815 -0.6956
  789MOL0     C 4059   0.953  -0.244   9.042  0.1307 -0.0347 -0.7623
  789MOL0    Cl 4060   0.875  -0.336   8.910  0.1454 -0.1035 -0.5976
  789MOL0     C 4061   1.943   0.120   9.398  1.2010 -0.6059  0.3128
  789MOL0     C 4062   2.076   0.100   9.380  0.1735  0.2352  0.0064
  789MOL0     O 4063   2.283  -0.089   9.373  1.3687 -0.2364  0.5332
  789MOL0     C 4064   2.567   0.088   9.241 -0.5866  0.4498 -0.5161
  789MOL0     C 4065   2.708   0.064   9.234  0.1163 -0.2707 -0.2019
  789MOL0     N 4066   3.482  -0.082   9.371 -0.2788 -0.0105  0.8101
  789MOL0     N 4067   3.541  -0.058   9.260 -0.2789  0.7089  0.0561
  789MOL0     C 4068   2.944   0.582   9.419  1.0247 -0.6790 -0.1616
  789MOL0     C 4069   2.818   0.547   9.462  0.1049 -0.1667 -0.1009
  789MOL0     C 4070   2.349   0.542   9.342 -0.3875  1.0218  0.6580
  789MOL0     C 4071   2.289   0.601   9.454  0.2742 -1.5604 -0.1581
  789MOL0     C 4072   2.154   0.621   9.457  0.3250 -0.9101  0.3219
  789MOL0     C 4073   2.070   0.570   9.361 -0.0335 -0.3162  0.2154
  789MOL0     O 4074   1.935   0.593   9.371  0.0010  0.1858 -0.2253
  789MOL0     C 4075   1.858   0.486   9.342 -0.2925 -0.3674 -0.3731
  789MOL0     C 4076   1.711   0.492   9.399 -0.2746 -0.3461  0.3721
  789MOL0     C 4077   1.723   0.473   9.552  0.4655  0.0046  0.1049
  789MOL0     C 4078   1.589   0.499   9.614 -0.9785  0.9441 -0.8593
  789MOL0     C 4079   1.582   0.469   9.762 -0.9204 -0.5223  0.8006
  789MOL0     C 4080   1.577   0.458   9.883  0.2990  0.3715  0.7667
  789MOL0     C 4081   2.129   0.501   9.254 -1.1870  0.3296  0.4282
  789MOL0     C 4082   2.262   0.480   9.255 -1.0606 -0.1182 -0.0071
  789MOL0     H 4083   2.645   0.709   9.205 -2.5461 -1.4799  1.8541
  789MOL0     H 4084   2.876   0.775   9.148  0.4685  3.4478  1.7168
  789MOL0     H 4085   3.099   0.844   9.154  0.1071 -0.7482  2.3316
  789MOL0     H 4086   3.080   0.686   9.073  1.3591  3.0614 -3.2477
  789MOL0     H 4087   3.320   0.808   9.231 -2.4718  2.7436 -0.1910
  789MOL0     H 4088   3.309   0.792   9.045 -3.9842 -1.1557 -0.0385
  789MOL0     H 4089   3.280   0.547   9.119 -1.1774  0.8678  2.1353
  789MOL0     H 4090   3.370   0.604   9.257 -1.7241 -0.0425  0.3445
  789MOL0     H 4091   3.469   0.631   8.970 -0.7221 -0.3068 -0.3968
  789MOL0     H 4092   3.540   0.705   9.118  3.0572 -0.7826 -1.0587
  789MOL0     H 4093   3.613   0.495   9.218  0.5313  0.2402 -0.6605
  789MOL0     H 4094   3.683   0.514   9.062  0.2509  0.8683  0.1350
  789MOL0     H 4095   3.500   0.345   8.988 -0.8444  0.6017  0.5519
  789MOL0     H 4096   3.426   0.349   9.142 -1.1404 -0.8561 -0.2422
  789MOL0     H 4097   3.721   0.263   9.070 -0.3780  1.5075  1.1576
  789MOL0     H 4098   3.662   0.268   9.225  0.5150 -0.3603  0.1896
  789MOL0     H 4099   3.644   0.053   9.045  0.8303 -0.0754  1.4372
  789MOL0     H 4100   3.491   0.123   9.006  1.7733 -1.1670 -2.2277
  789MOL0     H 4101   3.365   0.212   9.287  0.9627  0.3050 -2.5239
  789MOL0     H 4102   3.272   0.123   9.532  0.1263 -0.6895  1.6216
  789MOL0     H 4103   3.371   0.006   9.610  0.3393  3.3061  0.8109
  789MOL0     H 4104   3.133  -0.067   9.579  0.6080 -1.1464  0.8702
  789MOL0     H 4105   3.231  -0.167   9.481  1.0482  1.1654  2.8479
  789MOL0     H 4106   3.086   0.096   9.385 -0.5462  0.0601  1.4065
  789MOL0     H 4107   3.164  -0.019   9.278 -0.0892  0.4155 -0.9394
  789MOL0     H 4108   2.934  -0.071   9.462 -0.2938  0.5825  0.2513
  789MOL0     H 4109   3.011  -0.200   9.361  0.4821  0.3533  1.6609
  789MOL0     H 4110   2.751  -0.231   9.351  1.7630  1.5046  1.2062
  789MOL0     H 4111   2.497  -0.210   9.395  1.2813  0.6506  2.5262
  789MOL0     H 4112   2.124   0.187   9.066  0.2527 -1.1809 -0.2440
  789MOL0     H 4113   1.883   0.197   9.067  2.3192  0.1825 -2.5724
  789MOL0     H 4114   1.692   0.090   9.126 -1.4632 -1.9627  0.5841
  789MOL0     H 4115   1.631   0.252   9.162 -3.0968 -0.8486 -0.4645
  789MOL0     H 4116   1.457   0.155   9.301  0.1504  0.1774 -0.4727
  789MOL0     H 4117   1.549   0.010   9.319  2.5953  0.1873 -0.8449
  789MOL0     H 4118   1.385  -0.077   9.196 -0.7328 -0.8568 -1.8901
  789MOL0     H 4119   1.492  -0.054   9.066 -1.9518 -1.5606 -2.2763
  789MOL0     H 4120   1.257   0.124   9.154 -3.6041  0.0222 -2.3544
  789MOL0     H 4121   1.371   0.163   9.017  1.5598 -2.3119 -2.3143
  789MOL0     H 4122   1.287  -0.046   8.913 -3.0152 -0.6186 -1.9773
  789MOL0     H 4123   1.180   0.091   8.915 -0.3598  1.1848  1.3921
  789MOL0     H 4124   1.073  -0.004   9.127  1.4480  2.4070 -1.1759
  789MOL0     H 4125   1.187  -0.148   9.121 -2.9233 -2.0821 -0.1548
  789MOL0     H 4126   0.986  -0.072   8.921  3.4316  2.4276 -0.6848
  789MOL0     H 4127   1.093  -0.207   8.890  3.7821  0.5537  1.0955
  789MOL0     H 4128   0.883  -0.192   9.107  1.4968 -1.6002  2.1462
  789MOL0     H 4129   1.011  -0.305   9.111 -1.2879 -0.1583  0.3675
  789MOL0     H 4130   1.906   0.096   9.497  0.1146 -1.7986 -0.3513
  789MOL0     H 4131   2.129   0.084   9.473  0.9195  0.9165 -0.2926
  789MOL0     H 4132   2.520   0.175   9.196  0.2931  1.1956 -0.0220
  789MOL0     H 4133   2.767   0.147   9.198 -0.2214 -0.3214 -0.8904
  789MOL0     H 4134   3.033   0.541   9.466  0.6495 -0.5599  0.6798
  789MOL0     H 4135   2.802   0.479   9.545  3.1607 -0.0980  0.6662
  789MOL0     H 4136   2.356   0.638   9.531  0.8930 -2.8975 -0.0357
  789MOL0     H 4137   2.119   0.691   9.532 -0.4455 -0.0268 -0.8172
  789MOL0     H 4138   1.910   0.405   9.396 -0.5209  1.1340  2.2602
  789MOL0     H 4139   1.853   0.465   9.234 -1.0116  0.1491 -0.4421
  789MOL0     H 4140   1.652   0.579   9.371 -0.1525  0.4352  2.3807
  789MOL0     H 4141   1.658   0.403   9.365 -1.0984 -0.7887  2.6403
  789MOL0     H 4142   1.789   0.549   9.594 -0.3504  1.0539 -0.4561
  789MOL0     H 4143   1.762   0.375   9.582  0.2463  0.1248  0.7801
  789MOL0     H 4144   1.567   0.606   9.605  1.2994  1.6234  0.8487
  789MOL0     H 4145   1.526   0.429   9.559  1.0283 -0.6650 -1.2274
  789MOL0     H 4146   1.565   0.458   9.990 -0.8229  0.3994  0.6484
  789MOL0     H 4147   2.069   0.450   9.179 -1.1769 -0.8402  1.1926
  789MOL0     H 4148   2.302   0.427   9.169  2.2622  0.7108  0.8977
  790MOL0     O 4149   6.890   1.583   8.901 -0.0134 -0.0117 -0.8746
  790MOL0     C 4150   6.912   1.667   8.820  0.2035 -0.2534 -0.4910
  790MOL0     O 4151   6.829   1.734   8.747  0.0044  0.0200  0.2043
  790MOL0     C 4152   6.694   1.713   8.758  0.5845  0.1591 -0.0946
  790MOL0     C 4153   6.634   1.611   8.688  0.8485 -0.0771 -0.9213
  790MOL0     C 4154   6.494   1.591   8.683  0.1231  0.4949  0.2677
  790MOL0     C 4155   6.412   1.686   8.750  0.3875  1.1082 -0.1720
  790MOL0     O 4156   6.277   1.679   8.763  0.3702  0.1193  0.0164
  790MOL0     C 4157   6.212   1.609   8.653 -0.4328 -0.5926 -0.2908
  790MOL0     C 4158   6.070   1.649   8.647 -0.5409  0.2153  0.6281
  790MOL0     C 4159   6.000   1.602   8.778 -0.5361  0.6132 -0.9355
  790MOL0     C 4160   5.874   1.671   8.802  0.3504  0.5384 -0.1122
  790MOL0     C 4161   5.801   1.623   8.924 -0.1311  0.0343 -0.8376
  790MOL0     C 4162   5.667   1.700   8.947 -0.0105 -0.2060  0.4389
  790MOL0     C 4163   5.605   1.649   9.076 -0.2351  0.1904  0.6304
  790MOL0     C 4164   5.489   1.741   9.125  0.2859  0.1837 -0.9053
  790MOL0     N 4165   5.420   1.669   9.235 -0.1350 -0.3265 -0.4632
  790MOL0     C 4166   5.470   1.625   9.360 -0.3393  0.0529  0.9254
  790MOL0     C 4167   5.363   1.613   9.441 -0.8819  0.2662 -0.1339
  790MOL0     C 4168   5.355   1.554   9.586  0.1475 -1.1388  0.2174
  790MOL0     C 4169   5.326   1.653   9.695  0.1798  0.4525 -0.0246
  790MOL0     C 4170   5.284   1.576   9.827 -0.6395 -0.0818  0.5949
  790MOL0     C 4171   5.302   1.666   9.945  0.0988 -0.8105  0.7230
  790MOL0     O 4172   5.274   1.601  10.072  0.1267 -0.0031 -0.1431
  790MOL0     C 4173   5.142   1.575  10.104 -0.3448 -0.1970 -0.4751
  790MOL0     C 4174   5.112   1.462  10.188  0.1988 -0.5375  0.6379
  790MOL0     C 4175   4.990   1.423  10.232 -0.4464 -0.2068 -0.8056
  790MOL0     C 4176   4.877   1.493  10.178 -0.3025 -0.2593 -0.3387
  790MOL0     C 4177   4.743   1.459  10.220  0.5755  0.8235 -0.2699
  790MOL0     O 4178   4.644   1.505  10.141 -0.2885  0.3487 -0.3033
  790MOL0     C 4179   4.513   1.478  10.163 -0.3810  0.2690  0.1707
  790MOL0     C 4180   4.429   1.526  10.058  0.7053  0.1108 -0.2801
  790MOL0     C 4181   4.284   1.531  10.079 -0.0610  0.4643 -0.8746
  790MOL0     C 4182   4.224   1.480  10.197 -0.4508  0.0920  0.3121
  790MOL0     O 4183   4.092   1.465  10.200 -0.0030  0.3307  0.6437
  790MOL0     C 4184   4.051   1.328  10.199 -0.0698 -0.5807 -0.6716
  790MOL0     C 4185   4.070   1.260  10.062  0.2831  0.3194  0.2105
  790MOL0     C 4186   4.005   1.329   9.949  0.1482  0.1778  0.2238
  790MOL0     C 4187   3.993   1.237   9.817  0.4113  0.2889 -0.3465
  790MOL0     C 4188   4.128   1.161   9.782 -0.0370 -0.8445 -0.1018
  790MOL0     C 4189   4.236   1.255   9.721 -0.5995  0.2315 -0.1646
  790MOL0     C 4190   4.327   1.169   9.627  0.0265  0.1057  0.6492
  790MOL0     C 4191   4.419   1.258   9.546 -0.0140  0.0424  0.3870
  790MOL0    Cl 4192   4.485   1.188   9.387 -0.2013 -0.4107  0.1433
  790MOL0     C 4193   4.310   1.428  10.294  1.1154 -0.7752 -0.0026
  790MOL0     C 4194   4.445   1.428  10.276  0.3952  1.1411 -0.6485
  790MOL0     O 4195   4.726   1.390  10.319  0.4294  0.0504  0.3123
  790MOL0     C 4196   4.898   1.592  10.083  0.9646 -0.6987 -0.1822
  790MOL0     C 4197   5.027   1.641  10.054 -0.8888  1.1262 -0.7944
  790MOL0     N 4198   5.253   1.638   9.369  0.0996  0.4821  0.0932
  790MOL0     N 4199   5.284   1.656   9.247 -0.7942  0.1873 -0.4214
  790MOL0     C 4200   6.468   1.795   8.810  0.3556 -0.0273 -0.0596
  790MOL0     C 4201   6.603   1.799   8.825  0.5490 -0.1033  0.4905
  790MOL0     C 4202   7.056   1.677   8.782  0.1190 -0.4182  0.7887
  790MOL0     C 4203   7.159   1.645   8.870 -0.1536  0.1995 -0.1649
  790MOL0     C 4204   7.289   1.680   8.858 -0.5643  0.7589 -0.4980
  790MOL0     C 4205   7.325   1.761   8.749 -0.5183 -0.6111 -0.5970
  790MOL0     O 4206   7.456   1.793   8.740 -0.4301  1.0162 -0.1406
  790MOL0     C 4207   7.499   1.891   8.646  0.7195 -0.4059  0.1674
  790MOL0     C 4208   7.651   1.900   8.624  0.1772 -0.1149  0.1057
  790MOL0     C 4209   7.706   1.778   8.559  0.3738  0.7487  0.2140
  790MOL0     C 4210   7.851   1.753   8.606 -0.4077  0.0927  0.5129
  790MOL0     C 4211   7.877   1.610   8.624 -0.4651 -0.6125 -0.5719
  790MOL0     C 4212   7.910   1.495   8.634 -0.4634  1.1964  0.2401
  790MOL0     C 4213   7.218   1.802   8.654 -0.4502  0.0138 -0.7249
  790MOL0     C 4214   7.092   1.748   8.663  0.0524 -0.3646 -0.0086
  790MOL0     H 4215   6.707   1.539   8.651  1.1981 -0.1391 -0.1335
  790MOL0     H 4216   6.447   1.503   8.641  0.3586  1.0997 -1.3431
  790MOL0     H 4217   6.208   1.503   8.678 -2.1154 -0.4778  0.0513
  790MOL0     H 4218   6.260   1.631   8.558 -2.3022  2.5812 -0.6367
  790MOL0     H 4219   6.008   1.597   8.574 -3.3448  3.3556  0.5040
  790MOL0     H 4220   6.077   1.758   8.644  1.2908  0.1233 -0.1774
  790MOL0     H 4221   6.066   1.623   8.863 -0.6888  2.6036 -1.2665
  790MOL0     H 4222   5.995   1.493   8.780  0.7477  0.5426 -0.9122
  790MOL0     H 4223   5.886   1.779   8.813 -4.0825  1.3781 -1.4477
  790MOL0     H 4224   5.816   1.649   8.711  0.4013 -2.9334  0.5573
  790MOL0     H 4225   5.870   1.641   9.007  1.9390  1.9606 -2.8228
  790MOL0     H 4226   5.779   1.520   8.897 -1.7821  0.4559 -1.2286
  790MOL0     H 4227   5.603   1.685   8.860  1.6971 -0.7829 -0.7867
  790MOL0     H 4228   5.674   1.809   8.951 -2.7762  0.0803 -0.6229
  790MOL0     H 4229   5.568   1.548   9.057  1.2493 -0.6338  1.9020
  790MOL0     H 4230   5.673   1.632   9.160 -0.4175 -0.5169  0.6388
  790MOL0     H 4231   5.416   1.762   9.047 -1.5639 -1.0894  0.3884
  790MOL0     H 4232   5.533   1.835   9.161 -2.1464  1.7603 -1.8355
  790MOL0     H 4233   5.570   1.607   9.398 -1.3527 -3.5453  2.2792
  790MOL0     H 4234   5.446   1.496   9.605  0.6067 -0.3692  0.4142
  790MOL0     H 4235   5.276   1.479   9.591 -2.6274  1.6592  1.5383
  790MOL0     H 4236   5.233   1.700   9.663  0.2397 -1.6626 -3.8850
  790MOL0     H 4237   5.406   1.726   9.707 -2.7365  4.2244 -1.6131
  790MOL0     H 4238   5.179   1.546   9.816 -0.6374 -0.4145  1.4466
  790MOL0     H 4239   5.349   1.491   9.848 -0.0025  0.6429  1.5994
  790MOL0     H 4240   5.254   1.763   9.926  1.7949  0.4733  2.6484
  790MOL0     H 4241   5.407   1.695   9.944  0.0262 -0.2514  3.1938
  790MOL0     H 4242   5.194   1.401  10.225  0.9196 -0.9754 -1.5695
  790MOL0     H 4243   4.983   1.332  10.292  1.2707  0.2016  0.0864
  790MOL0     H 4244   4.481   1.571   9.975  2.5140 -1.4509 -0.0467
  790MOL0     H 4245   4.213   1.561  10.003 -2.1387  2.4278  1.6599
  790MOL0     H 4246   3.942   1.333  10.214  0.0783  0.0221  0.3286
  790MOL0     H 4247   4.095   1.268  10.279 -2.4665 -1.8553 -0.2151
  790MOL0     H 4248   4.033   1.157  10.055 -1.7627  1.0638 -0.5109
  790MOL0     H 4249   4.175   1.258  10.032  0.4266  0.6199  0.6903
  790MOL0     H 4250   4.060   1.418   9.916 -0.6032  0.2919 -0.7598
  790MOL0     H 4251   3.911   1.370   9.987  0.9705  2.6110 -0.1738
  790MOL0     H 4252   3.914   1.165   9.844 -0.6230  1.9636  1.3567
  790MOL0     H 4253   3.965   1.298   9.731  2.2840  1.6743 -0.0368
  790MOL0     H 4254   4.104   1.094   9.699  2.8373  1.0225 -2.6699
  790MOL0     H 4255   4.173   1.110   9.868  2.4737  1.7306  0.2585
  790MOL0     H 4256   4.286   1.301   9.807 -0.3952  1.5045 -0.9435
  790MOL0     H 4257   4.197   1.337   9.661 -0.2600  1.0400  0.6862
  790MOL0     H 4258   4.386   1.097   9.685 -3.0000 -0.9762  2.6532
  790MOL0     H 4259   4.259   1.113   9.562 -1.3500 -0.1406  2.2167
  790MOL0     H 4260   4.501   1.293   9.610 -0.4957  1.8037  0.0974
  790MOL0     H 4261   4.357   1.345   9.522  2.6401  2.6438  2.1248
  790MOL0     H 4262   4.264   1.390  10.385  1.2961  0.6005  0.6778
  790MOL0     H 4263   4.502   1.383  10.357  0.4639  0.4090 -1.0947
  790MOL0     H 4264   4.814   1.631  10.026 -1.5523 -2.3046  2.1973
  790MOL0     H 4265   5.035   1.717   9.977 -0.7202  0.5086 -1.3866
  790MOL0     H 4266   6.392   1.854   8.860 -2.7111 -2.5615 -1.3745
  790MOL0     H 4267   6.646   1.882   8.879  0.8465 -0.0324  0.1538
  790MOL0     H 4268   7.138   1.596   8.965 -0.3741 -0.0523 -0.3413
  790MOL0     H 4269   7.362   1.647   8.932  0.3298 -0.1630 -1.7486
  790MOL0     H 4270   7.474   1.987   8.693  1.1704  0.4405 -1.2686
  790MOL0     H 4271   7.444   1.875   8.553  1.4625  0.6607 -0.4713
  790MOL0     H 4272   7.667   1.988   8.561 -0.4456 -0.7317 -0.9454
  790MOL0     H 4273   7.703   1.925   8.717  2.0646 -4.8484  0.6132
  790MOL0     H 4274   7.717   1.793   8.451  0.1016 -3.0637 -0.4807
  790MOL0     H 4275   7.646   1.691   8.587  1.1493  0.3703  0.7400
  790MOL0     H 4276   7.921   1.797   8.534 -0.2342 -0.9326  0.0307
  790MOL0     H 4277   7.870   1.794   8.705 -2.9070  0.3444  0.9531
  790MOL0     H 4278   7.930   1.389   8.634 -2.9526  0.6473  1.0762
  790MOL0     H 4279   7.230   1.866   8.567 -4.0145 -0.8577 -2.0332
  790MOL0     H 4280   7.021   1.773   8.585 -0.2687 -1.5663 -0.1192
  791MOL0     O 4281   4.878   9.703   4.433 -0.6737 -0.0137 -0.0717
  791MOL0     C 4282   4.956   9.617   4.477  0.1690 -0.2814  0.1057
  791MOL0     O 4283   4.923   9.497   4.521 -0.9854 -0.1435  0.3232
  791MOL0     C 4284   4.796   9.464   4.493 -0.3633  0.3685 -0.3708
  791MOL0     C 4285   4.691   9.469   4.597 -0.0296  0.6026 -0.5221
  791MOL0     C 4286   4.562   9.415   4.582 -0.6448 -0.2514 -0.3014
  791MOL0     C 4287   4.523   9.361   4.470  0.5302  0.3820  0.8432
  791MOL0     O 4288   4.398   9.300   4.473  0.1723  0.3966 -0.0091
  791MOL0     C 4289   4.299   9.339   4.370  0.3061 -0.3185 -0.0536
  791MOL0     C 4290   4.171   9.263   4.376 -0.8824 -0.0398 -0.3717
  791MOL0     C 4291   4.086   9.305   4.498  0.4835  0.1229 -0.8132
  791MOL0     C 4292   3.952   9.226   4.541 -0.0045  0.5175  0.2096
  791MOL0     C 4293   3.865   9.201   4.413  1.7138  0.0186 -0.5094
  791MOL0     C 4294   3.723   9.184   4.425  0.4077  0.4480  0.3611
  791MOL0     C 4295   3.701   9.036   4.471  0.6999 -0.4639 -0.6627
  791MOL0     C 4296   3.560   8.992   4.497  0.5421 -0.1071 -0.4648
  791MOL0     N 4297   3.550   8.854   4.533 -0.7587  0.2496 -0.5778
  791MOL0     C 4298   3.519   8.757   4.449 -0.5039  0.6463 -0.7164
  791MOL0     C 4299   3.510   8.644   4.530  0.1579  0.2918  1.0787
  791MOL0     C 4300   3.464   8.513   4.470 -0.0768 -0.1801  0.1827
  791MOL0     C 4301   3.549   8.477   4.337  0.2496  0.5113 -0.2740
  791MOL0     C 4302   3.523   8.333   4.297  0.2979  0.4156  0.8121
  791MOL0     C 4303   3.606   8.237   4.383  0.1592  0.0749 -0.1432
  791MOL0     O 4304   3.555   8.106   4.360 -0.2961  0.7494 -0.0092
  791MOL0     C 4305   3.582   8.030   4.246  0.3021  0.4455  0.0783
  791MOL0     C 4306   3.712   8.008   4.211 -0.7047 -0.0272  0.1417
  791MOL0     C 4307   3.734   7.921   4.101  0.5830 -0.0228 -0.5186
  791MOL0     C 4308   3.637   7.848   4.037 -1.0373  1.5276 -0.0974
  791MOL0     C 4309   3.665   7.739   3.939  0.1591  0.0185  0.1005
  791MOL0     O 4310   3.562   7.702   3.858  0.4217  0.1406 -0.0903
  791MOL0     C 4311   3.586   7.645   3.734 -0.1629 -0.1500 -0.9365
  791MOL0     C 4312   3.643   7.519   3.738 -0.0744 -0.5254  1.0287
  791MOL0     C 4313   3.673   7.449   3.624 -0.1474  0.3907  0.5655
  791MOL0     C 4314   3.642   7.508   3.496  0.0631  0.7835  0.9117
  791MOL0     O 4315   3.678   7.431   3.387  0.2058 -0.5381 -0.0563
  791MOL0     C 4316   3.657   7.481   3.252 -0.2278  0.3021 -0.7490
  791MOL0     C 4317   3.711   7.383   3.146 -1.1208  0.4382 -0.0603
  791MOL0     C 4318   3.876   7.377   3.148  0.9618 -0.1211 -0.2461
  791MOL0     C 4319   3.948   7.499   3.079 -0.3048  0.8014  0.6514
  791MOL0     C 4320   4.103   7.479   3.088 -1.0613 -0.0399  0.7398
  791MOL0     C 4321   4.168   7.603   3.019 -0.3192  0.2181 -0.2868
  791MOL0     C 4322   4.319   7.594   3.022  0.1111  0.0898 -0.3130
  791MOL0     C 4323   4.368   7.719   2.933  0.2250 -0.1998 -0.9758
  791MOL0    Cl 4324   4.533   7.688   2.901 -0.6652 -0.0294 -0.1063
  791MOL0     C 4325   3.569   7.629   3.496 -0.4674  0.0373  0.3473
  791MOL0     C 4326   3.547   7.704   3.617  0.2453 -0.4753  0.4134
  791MOL0     O 4327   3.780   7.702   3.916  0.1979 -0.0389 -0.0823
  791MOL0     C 4328   3.508   7.869   4.079  0.1308 -0.6017  0.6449
  791MOL0     C 4329   3.479   7.965   4.182 -0.0102  1.0164 -0.4525
  791MOL0     N 4330   3.526   8.686   4.659  0.0269  0.1098  0.0327
  791MOL0     N 4331   3.565   8.812   4.660 -0.4723 -0.6433  0.6105
  791MOL0     C 4332   4.603   9.361   4.356  0.1787 -0.3070  0.1512
  791MOL0     C 4333   4.739   9.410   4.372  0.1596  0.1422  0.6247
  791MOL0     C 4334   5.097   9.658   4.488  0.3590  0.6401 -0.5583
  791MOL0     C 4335   5.196   9.559   4.510  0.0249 -0.1109  0.1215
  791MOL0     C 4336   5.332   9.597   4.533 -0.0342  0.0230 -0.0764
  791MOL0     C 4337   5.367   9.728   4.550  0.4062  0.0936  0.6566
  791MOL0     O 4338   5.497   9.762   4.576  0.4269  0.4447 -0.5491
  791MOL0     C 4339   5.552   9.850   4.474 -0.4978 -0.6277  0.1066
  791MOL0     C 4340   5.706   9.863   4.506 -0.1856  0.1020  0.0078
  791MOL0     C 4341   5.783   9.979   4.435  0.9373  0.0392 -0.1871
  791MOL0     C 4342   5.913  10.020   4.511  0.0526 -0.2522  0.3501
  791MOL0     C 4343   6.012  10.101   4.429  0.0010  1.1511  0.3160
  791MOL0     C 4344   6.100  10.167   4.375  0.5202  0.0634  0.6406
  791MOL0     C 4345   5.265   9.827   4.544 -0.1670 -0.0482 -0.6024
  791MOL0     C 4346   5.137   9.791   4.511  0.2472 -0.3743  0.2155
  791MOL0     H 4347   4.718   9.510   4.694 -1.4723  0.3751 -0.0082
  791MOL0     H 4348   4.500   9.426   4.669  2.5739 -1.6775  2.4052
  791MOL0     H 4349   4.341   9.324   4.270  1.4657  1.5113  0.1077
  791MOL0     H 4350   4.293   9.446   4.391 -0.0813 -0.8020  2.7014
  791MOL0     H 4351   4.196   9.158   4.394  0.3892  0.3633  0.3242
  791MOL0     H 4352   4.115   9.265   4.282 -0.8455 -0.5232 -0.4032
  791MOL0     H 4353   4.048   9.404   4.468  3.9694  1.7968 -0.1763
  791MOL0     H 4354   4.151   9.319   4.585 -0.4787  0.5646 -0.1403
  791MOL0     H 4355   3.978   9.126   4.576 -0.5072  0.4802  0.4899
  791MOL0     H 4356   3.891   9.280   4.615 -0.5364  0.2771 -0.0457
  791MOL0     H 4357   3.904   9.112   4.363 -0.3649 -0.9960 -0.4176
  791MOL0     H 4358   3.879   9.278   4.337  1.5023  1.0407  0.4662
  791MOL0     H 4359   3.683   9.203   4.325 -1.1162 -2.6618  0.2487
  791MOL0     H 4360   3.687   9.271   4.480 -1.7629 -0.2487  0.1630
  791MOL0     H 4361   3.759   8.974   4.401  1.1764  0.7207 -1.3583
  791MOL0     H 4362   3.745   9.032   4.571  0.9376  1.4383 -0.6446
  791MOL0     H 4363   3.498   9.026   4.413  0.5725  1.6143  0.1643
  791MOL0     H 4364   3.524   9.050   4.583 -1.3863 -2.9498  0.7874
  791MOL0     H 4365   3.510   8.766   4.342 -0.5627  1.4750 -0.6460
  791MOL0     H 4366   3.362   8.535   4.437  1.7290  1.2896 -5.6570
  791MOL0     H 4367   3.465   8.432   4.543 -3.1988  0.8422  1.5373
  791MOL0     H 4368   3.653   8.496   4.364  0.8380  0.2156 -2.1645
  791MOL0     H 4369   3.516   8.530   4.248 -2.9377  1.0732  1.1215
  791MOL0     H 4370   3.415   8.326   4.309  0.1611  2.0064  0.6679
  791MOL0     H 4371   3.542   8.312   4.191 -0.3224 -0.9396  0.9448
  791MOL0     H 4372   3.593   8.274   4.485 -1.6451  1.1282 -0.7040
  791MOL0     H 4373   3.713   8.247   4.363 -0.1728  1.8776 -1.2976
  791MOL0     H 4374   3.794   8.051   4.267 -0.1801 -0.0092 -0.6281
  791MOL0     H 4375   3.839   7.914   4.075  0.6892  0.2548 -0.1803
  791MOL0     H 4376   3.675   7.475   3.832  1.0364 -1.5218  0.1984
  791MOL0     H 4377   3.742   7.365   3.635 -1.3384 -0.6029  0.7296
  791MOL0     H 4378   3.715   7.572   3.238 -0.2191  0.2571 -1.0206
  791MOL0     H 4379   3.551   7.504   3.239 -0.3553  0.4516  0.4746
  791MOL0     H 4380   3.683   7.418   3.046 -1.9541  1.3099  0.4541
  791MOL0     H 4381   3.665   7.286   3.165 -2.9424  1.7415  3.1114
  791MOL0     H 4382   3.908   7.282   3.104 -1.9326 -1.4851  0.3474
  791MOL0     H 4383   3.903   7.364   3.253 -3.6682 -0.5751  1.1134
  791MOL0     H 4384   3.928   7.522   2.974  0.2841  0.0230  0.3583
  791MOL0     H 4385   3.946   7.594   3.133 -0.2200  1.5298 -0.6009
  791MOL0     H 4386   4.133   7.386   3.039  0.2932  0.5555  0.3974
  791MOL0     H 4387   4.127   7.483   3.194  0.5403  1.5074  0.3700
  791MOL0     H 4388   4.142   7.693   3.076 -1.9364 -0.8005  0.6893
  791MOL0     H 4389   4.127   7.621   2.920  0.1438 -1.4043 -0.8049
  791MOL0     H 4390   4.369   7.590   3.119  2.7249  0.8279 -1.5521
  791MOL0     H 4391   4.348   7.504   2.967  2.1384 -0.2252  1.1644
  791MOL0     H 4392   4.358   7.803   3.002  0.5714 -0.8582 -0.1054
  791MOL0     H 4393   4.315   7.730   2.838 -0.1062 -1.6451 -0.9765
  791MOL0     H 4394   3.535   7.681   3.407 -1.8623 -0.8990  0.2978
  791MOL0     H 4395   3.523   7.810   3.615 -0.4422 -0.6349 -0.1104
  791MOL0     H 4396   3.424   7.808   4.048 -0.7565  0.5061  0.8101
  791MOL0     H 4397   3.382   7.960   4.230  0.5230 -0.4450  0.5425
  791MOL0     H 4398   4.583   9.310   4.263 -1.4313  0.3727  0.0758
  791MOL0     H 4399   4.806   9.387   4.291 -1.3210  0.3724 -0.7110
  791MOL0     H 4400   5.161   9.457   4.517 -1.5709  0.3945 -0.0645
  791MOL0     H 4401   5.404   9.516   4.542  0.7302  0.7877  1.0241
  791MOL0     H 4402   5.505   9.948   4.480 -2.4387 -1.5230  0.2537
  791MOL0     H 4403   5.541   9.809   4.373  0.8219 -1.3328  0.2178
  791MOL0     H 4404   5.725   9.869   4.614  2.9195 -0.9360 -0.3963
  791MOL0     H 4405   5.743   9.764   4.480 -4.6965 -1.2698 -2.2877
  791MOL0     H 4406   5.709  10.059   4.427 -0.3631 -0.9501  1.2619
  791MOL0     H 4407   5.812   9.947   4.334 -1.0137 -2.4107 -0.0616
  791MOL0     H 4408   5.887  10.075   4.602 -1.4634  3.0214 -1.8811
  791MOL0     H 4409   5.953   9.918   4.517  2.5974  0.3094 -3.5436
  791MOL0     H 4410   6.175  10.236   4.345  1.6413 -1.1195  0.6311
  791MOL0     H 4411   5.293   9.929   4.566  0.4592 -0.8490  2.9588
  791MOL0     H 4412   5.060   9.869   4.513 -0.2981 -0.6514 -3.2223
  792MOL0     O 4413   4.388   6.517   3.690  0.0266  0.3770  0.5300
  792MOL0     C 4414   4.482   6.534   3.768  0.2094  0.6217 -0.5030
  792MOL0     O 4415   4.489   6.507   3.908  0.5477  0.3735  0.7175
  792MOL0     C 4416   4.375   6.482   3.969  0.5321 -0.6258  0.5146
  792MOL0     C 4417   4.379   6.528   4.091  0.5131  0.2181 -0.8463
  792MOL0     C 4418   4.278   6.506   4.184 -0.1077 -0.1760  0.5231
  792MOL0     C 4419   4.168   6.436   4.144  1.1088 -0.2004  0.8110
  792MOL0     O 4420   4.057   6.413   4.223 -0.3577  0.6451  0.1628
  792MOL0     C 4421   4.020   6.506   4.329  0.0698  0.7109 -0.1140
  792MOL0     C 4422   3.878   6.471   4.365 -0.1423 -0.3118  0.1364
  792MOL0     C 4423   3.836   6.562   4.487 -0.2598 -1.0232 -0.5039
  792MOL0     C 4424   3.685   6.561   4.522 -0.1082  0.4437  0.3716
  792MOL0     C 4425   3.644   6.656   4.629 -0.5160 -0.9055 -0.0280
  792MOL0     C 4426   3.498   6.613   4.660  0.0299  0.3652  0.0217
  792MOL0     C 4427   3.457   6.698   4.785 -0.2750  0.0715  0.4333
  792MOL0     C 4428   3.304   6.717   4.778  1.2350 -0.2633 -0.5855
  792MOL0     N 4429   3.273   6.802   4.892 -1.0429  0.1485  0.3460
  792MOL0     C 4430   3.169   6.782   4.984 -0.6917 -0.4653  0.7249
  792MOL0     C 4431   3.173   6.892   5.063  0.0392  0.2253 -0.5897
  792MOL0     C 4432   3.064   6.926   5.167 -0.1804 -0.3724  0.2670
  792MOL0     C 4433   2.963   7.014   5.085  0.5759 -0.1330  0.7810
  792MOL0     C 4434   2.879   7.106   5.170  0.7651 -0.3521 -0.6557
  792MOL0     C 4435   2.761   7.032   5.235  0.1820 -0.8127  0.4303
  792MOL0     O 4436   2.649   6.997   5.152 -0.9832  0.4007 -0.2417
  792MOL0     C 4437   2.534   6.961   5.222 -0.4213  0.2844  0.3507
  792MOL0     C 4438   2.526   6.848   5.308 -0.6732  0.4161 -0.5236
  792MOL0     C 4439   2.417   6.822   5.389  0.5971  0.0910 -1.0908
  792MOL0     C 4440   2.302   6.905   5.381 -0.3700  0.9462 -0.5091
  792MOL0     C 4441   2.183   6.870   5.459 -0.2814 -0.6029  1.4124
  792MOL0     O 4442   2.055   6.892   5.407 -0.8352  0.1958  0.5678
  792MOL0     C 4443   1.948   6.855   5.481 -0.1160  0.1510  0.2735
  792MOL0     C 4444   1.847   6.787   5.415 -0.0524  0.1254  0.1210
  792MOL0     C 4445   1.719   6.760   5.463  0.6783 -0.4798 -0.6665
  792MOL0     C 4446   1.697   6.822   5.585  0.1767  0.7416  0.2844
  792MOL0     O 4447   1.570   6.818   5.643 -0.1038  0.0052 -0.7563
  792MOL0     C 4448   1.525   6.690   5.683  0.4049 -0.1121  0.4406
  792MOL0     C 4449   1.379   6.684   5.706  0.6996 -0.1861  0.4127
  792MOL0     C 4450   1.298   6.704   5.574  0.7833  0.3725 -0.3201
  792MOL0     C 4451   1.153   6.741   5.603  0.4107 -0.1408 -0.5006
  792MOL0     C 4452   1.076   6.742   5.471  0.0682 -0.2012  0.0367
  792MOL0     C 4453   1.051   6.595   5.416 -0.1032 -0.7713 -1.1657
  792MOL0     C 4454   0.930   6.584   5.308  0.2980 -0.1505  0.3515
  792MOL0     C 4455   0.979   6.649   5.179  0.6380 -0.1017  1.4241
  792MOL0    Cl 4456   0.847   6.628   5.050 -0.2037 -0.5305  0.3281
  792MOL0     C 4457   1.792   6.895   5.656  0.0521  0.5447  0.3448
  792MOL0     C 4458   1.919   6.911   5.611  0.3915  0.9375  0.0986
  792MOL0     O 4459   2.206   6.829   5.569 -0.7795 -0.7010  1.0044
  792MOL0     C 4460   2.312   7.021   5.302  0.5380 -0.3934  0.3601
  792MOL0     C 4461   2.423   7.042   5.223  0.4621  0.5521  0.0376
  792MOL0     N 4462   3.267   6.980   5.020 -0.8636  0.3085  0.0042
  792MOL0     N 4463   3.327   6.932   4.916 -0.0407 -0.1696  0.7723
  792MOL0     C 4464   4.168   6.373   4.019  0.4371  0.6494 -0.1929
  792MOL0     C 4465   4.268   6.400   3.931 -0.0562  0.0253 -0.0236
  792MOL0     C 4466   4.588   6.625   3.724  0.1064 -0.5140  0.6960
  792MOL0     C 4467   4.623   6.622   3.589 -0.0407  0.0637 -0.8062
  792MOL0     C 4468   4.726   6.707   3.549  0.3786  0.3650  0.4733
  792MOL0     C 4469   4.797   6.790   3.630 -0.1600 -0.2835  0.1987
  792MOL0     O 4470   4.897   6.859   3.576  0.5886 -0.5237 -0.0568
  792MOL0     C 4471   4.920   6.998   3.615  1.1000 -0.2891 -1.1258
  792MOL0     C 4472   5.035   7.007   3.729 -0.1000 -0.4785 -0.0328
  792MOL0     C 4473   5.169   7.046   3.672  0.2110  0.3918  0.5460
  792MOL0     C 4474   5.245   6.930   3.602  0.3759  0.5399 -0.2324
  792MOL0     C 4475   5.346   6.969   3.515 -1.1647  0.4242  0.5480
  792MOL0     C 4476   5.439   7.019   3.460 -0.5896  0.5799  0.9419
  792MOL0     C 4477   4.753   6.793   3.768  0.7226  0.0972 -0.4737
  792MOL0     C 4478   4.652   6.715   3.814  0.1689  0.1784 -0.6905
  792MOL0     H 4479   4.460   6.591   4.126  0.8049  0.2979 -1.6434
  792MOL0     H 4480   4.288   6.542   4.286 -1.8628  0.5212  0.4973
  792MOL0     H 4481   4.035   6.603   4.281  0.1450  1.2574  0.9879
  792MOL0     H 4482   4.079   6.494   4.420 -1.2988  1.7444  0.9353
  792MOL0     H 4483   3.878   6.363   4.379  1.7737 -0.3727 -0.0398
  792MOL0     H 4484   3.812   6.490   4.280 -1.8773 -1.8695  1.0499
  792MOL0     H 4485   3.877   6.660   4.460 -1.6176 -0.3713 -0.3044
  792MOL0     H 4486   3.890   6.527   4.575 -1.6095 -2.1490 -0.0889
  792MOL0     H 4487   3.632   6.581   4.428  1.2735 -0.7051 -0.7052
  792MOL0     H 4488   3.658   6.462   4.559  1.6084 -0.8058 -1.4829
  792MOL0     H 4489   3.637   6.761   4.599 -1.4959 -1.0441 -0.3053
  792MOL0     H 4490   3.714   6.650   4.713 -0.1369  1.7336 -0.0618
  792MOL0     H 4491   3.496   6.505   4.671  0.2290  0.4553  1.0025
  792MOL0     H 4492   3.431   6.628   4.574  1.6093 -0.7487 -1.4756
  792MOL0     H 4493   3.476   6.639   4.875 -2.6880 -1.1974  0.1682
  792MOL0     H 4494   3.508   6.795   4.785 -1.4047  0.6843  0.2087
  792MOL0     H 4495   3.251   6.623   4.791 -2.4346  1.4631 -1.7197
  792MOL0     H 4496   3.265   6.779   4.696 -0.1416  1.7289  1.4445
  792MOL0     H 4497   3.093   6.706   4.999 -0.8762 -0.7480 -1.3624
  792MOL0     H 4498   3.105   6.974   5.256 -1.3663 -1.0665  1.2036
  792MOL0     H 4499   3.015   6.833   5.197 -0.3432 -0.6870 -0.9106
  792MOL0     H 4500   2.896   6.947   5.030  1.4324  0.3166 -0.8599
  792MOL0     H 4501   3.014   7.078   5.013 -0.4615  0.3736  0.4712
  792MOL0     H 4502   2.938   7.155   5.248 -1.4253  1.4705 -0.0192
  792MOL0     H 4503   2.853   7.183   5.096  0.7701  0.9519  0.6454
  792MOL0     H 4504   2.713   7.102   5.303 -2.3206  0.0469 -2.0107
  792MOL0     H 4505   2.788   6.942   5.290  0.5572 -1.7573 -1.2056
  792MOL0     H 4506   2.617   6.789   5.312 -0.8271  0.2336  0.6280
  792MOL0     H 4507   2.408   6.735   5.453 -1.4970 -1.0562 -2.7964
  792MOL0     H 4508   1.862   6.750   5.314 -1.1240  0.8977 -0.3347
  792MOL0     H 4509   1.642   6.719   5.399 -0.0097  1.2299 -0.9954
  792MOL0     H 4510   1.572   6.661   5.778 -1.3280 -0.9701  1.0789
  792MOL0     H 4511   1.558   6.615   5.610  2.0001 -0.7537  1.7420
  792MOL0     H 4512   1.346   6.762   5.776 -0.3586  0.9118 -1.2318
  792MOL0     H 4513   1.358   6.589   5.755  0.1886 -1.4434 -2.0955
  792MOL0     H 4514   1.300   6.618   5.507  0.7423  0.1900 -0.0886
  792MOL0     H 4515   1.341   6.788   5.519  0.8024 -0.8217 -2.2030
  792MOL0     H 4516   1.109   6.675   5.679 -2.8677  0.9914 -1.2504
  792MOL0     H 4517   1.161   6.840   5.649  5.1787 -0.1013 -0.9149
  792MOL0     H 4518   1.123   6.811   5.400 -1.1668 -0.6216 -1.2449
  792MOL0     H 4519   0.975   6.774   5.497 -0.6885 -1.9598 -0.5324
  792MOL0     H 4520   1.014   6.545   5.505  0.3399  1.4321  0.3366
  792MOL0     H 4521   1.145   6.553   5.379  1.5137  0.9123  0.7467
  792MOL0     H 4522   0.893   6.481   5.293  3.6587 -1.7273  1.8845
  792MOL0     H 4523   0.843   6.644   5.334  0.4228  0.8897 -1.4544
  792MOL0     H 4524   1.075   6.608   5.145  1.1481  3.4692 -2.2598
  792MOL0     H 4525   1.000   6.755   5.195  0.5629  0.3221 -0.9514
  792MOL0     H 4526   1.766   6.944   5.749 -0.0861  2.3550 -0.5932
  792MOL0     H 4527   2.004   6.960   5.656  0.4415  0.7768  0.1814
  792MOL0     H 4528   2.231   7.093   5.302 -0.7677 -1.2845  6.4258
  792MOL0     H 4529   2.417   7.133   5.165  1.7674  0.4861 -0.2397
  792MOL0     H 4530   4.092   6.302   3.988 -0.8333  0.9224  2.0680
  792MOL0     H 4531   4.283   6.341   3.841  1.5080 -2.3703  1.6921
  792MOL0     H 4532   4.567   6.568   3.514 -1.8609 -0.2797  0.7420
  792MOL0     H 4533   4.769   6.695   3.450  0.5376 -0.7571  0.6564
  792MOL0     H 4534   4.826   7.042   3.647  0.4504 -1.5845 -1.1771
  792MOL0     H 4535   4.951   7.056   3.527  1.4086 -0.0211 -0.8418
  792MOL0     H 4536   5.001   7.075   3.808  2.3947 -2.8418  3.2852
  792MOL0     H 4537   5.046   6.912   3.781  2.4832  0.2382  0.8328
  792MOL0     H 4538   5.224   7.088   3.756 -0.7549 -1.3806  2.1206
  792MOL0     H 4539   5.140   7.127   3.603 -0.2190  0.9246  1.3340
  792MOL0     H 4540   5.285   6.864   3.679 -2.3041 -1.4979 -0.4116
  792MOL0     H 4541   5.183   6.872   3.533  1.1332  1.1813 -1.4898
  792MOL0     H 4542   5.517   7.069   3.405  0.7783 -2.0023  0.3835
  792MOL0     H 4543   4.803   6.857   3.840 -4.0391  3.2564  0.4961
  792MOL0     H 4544   4.613   6.726   3.914  0.6220  0.2847 -0.5234
  793MOL0     O 4545  11.278   4.878   0.508 -0.3018  0.7973 -0.0458
  793MOL0     C 4546  11.317   4.828   0.400  0.7559 -0.1955  0.1264
  793MOL0     O 4547  11.235   4.815   0.282 -0.8898  0.8382  0.1103
  793MOL0     C 4548  11.098   4.793   0.286 -0.5233 -0.2340  0.3467
  793MOL0     C 4549  11.035   4.806   0.160 -0.2586  0.4837 -0.0162
  793MOL0     C 4550  10.899   4.773   0.143  0.7632 -0.3526 -0.0620
  793MOL0     C 4551  10.828   4.716   0.244  0.9891 -0.3563  0.4583
  793MOL0     O 4552  10.705   4.661   0.205  0.5618  0.0965 -0.0296
  793MOL0     C 4553  10.653   4.560   0.292  0.2488  0.4533 -0.7128
  793MOL0     C 4554  10.559   4.485   0.203 -0.1762  0.2854  0.3420
  793MOL0     C 4555  10.530   4.341   0.268  0.1297 -0.0103 -0.2304
  793MOL0     C 4556  10.472   4.243   0.158  0.1313 -0.3954  1.4400
  793MOL0     C 4557  10.451   4.097   0.202 -0.3083 -0.2172 -0.3567
  793MOL0     C 4558  10.379   4.071   0.336  0.3961 -0.1171  0.4341
  793MOL0     C 4559  10.289   3.950   0.328  0.5109  0.1046  0.7085
  793MOL0     C 4560  10.155   3.977   0.254 -0.2127 -0.5467  0.0510
  793MOL0     N 4561  10.040   3.882   0.248  0.2348  0.4332  0.1542
  793MOL0     C 4562   9.923   3.892   0.311  0.4775  0.2979 -0.7073
  793MOL0     C 4563   9.852   3.793   0.261  1.2055  0.4419  0.1915
  793MOL0     C 4564   9.717   3.761   0.320 -0.0583  1.1312  0.2315
  793MOL0     C 4565   9.630   3.685   0.220  0.1568  0.4730  0.2931
  793MOL0     C 4566   9.621   3.762   0.082 -0.1317 -0.7425 -0.0595
  793MOL0     C 4567   9.496   3.762  -0.000 -0.4442 -0.5389 -0.5569
  793MOL0     O 4568   9.454   3.617  -0.010 -0.2724  0.2926 -0.0457
  793MOL0     C 4569   9.319   3.582  -0.013  0.2643 -0.3641  0.1079
  793MOL0     C 4570   9.299   3.445   0.025  0.9182 -0.4191  0.2912
  793MOL0     C 4571   9.170   3.407   0.035  1.3319  0.8210 -0.2231
  793MOL0     C 4572   9.060   3.479  -0.001 -0.3046  0.2662  0.0743
  793MOL0     C 4573   8.934   3.419   0.019  0.3725 -0.4581 -0.1118
  793MOL0     O 4574   8.828   3.460  -0.054  0.5644  0.2259 -0.2500
  793MOL0     C 4575   8.708   3.392  -0.054  0.1773 -0.5176 -0.1615
  793MOL0     C 4576   8.713   3.256  -0.057  0.9236  0.3122  0.3330
  793MOL0     C 4577   8.590   3.183  -0.076  0.0685  0.2239  0.2350
  793MOL0     C 4578   8.468   3.258  -0.073 -0.1270 -0.5507  0.9995
  793MOL0     O 4579   8.342   3.207  -0.100 -0.1021  0.3236  0.2344
  793MOL0     C 4580   8.323   3.069  -0.066 -0.8033 -0.0276 -0.2283
  793MOL0     C 4581   8.172   3.052  -0.053 -0.3797 -0.2780 -0.3852
  793MOL0     C 4582   8.126   2.907  -0.056 -0.5894 -0.6799  0.9393
  793MOL0     C 4583   7.984   2.903  -0.001 -0.2800 -0.5831  0.5965
  793MOL0     C 4584   7.920   2.762   0.004 -0.0615  0.6055 -1.1813
  793MOL0     C 4585   7.793   2.753   0.081  0.4717 -0.2716  0.1837
  793MOL0     C 4586   7.728   2.613   0.092  0.2266  0.0324  0.0392
  793MOL0     C 4587   7.779   2.536   0.207  0.1416  0.0076 -0.6205
  793MOL0    Cl 4588   7.698   2.376   0.222  0.2126  0.4922 -0.0337
  793MOL0     C 4589   8.461   3.392  -0.053 -0.7069  0.2343  0.2167
  793MOL0     C 4590   8.590   3.459  -0.044  0.9797  0.7881 -0.5376
  793MOL0     O 4591   8.928   3.340   0.108 -0.2465 -0.0165 -0.7748
  793MOL0     C 4592   9.074   3.608  -0.046 -0.0393  0.3232  0.0067
  793MOL0     C 4593   9.209   3.669  -0.038  0.0480  0.1314  0.8597
  793MOL0     N 4594   9.931   3.716   0.173  0.4305  0.1583  0.0198
  793MOL0     N 4595  10.041   3.776   0.155 -0.4921  0.2272 -0.3910
  793MOL0     C 4596  10.884   4.725   0.376  0.0538 -0.3562 -0.7033
  793MOL0     C 4597  11.015   4.760   0.390  0.6227 -0.3590 -0.8520
  793MOL0     C 4598  11.461   4.787   0.394  1.7459 -0.9684 -0.7489
  793MOL0     C 4599  11.550   4.843   0.481 -0.2601 -0.0642  0.2866
  793MOL0     C 4600  11.690   4.826   0.479  0.4654  0.1925  0.3257
  793MOL0     C 4601  11.736   4.729   0.387 -0.0048 -0.4991  0.0915
  793MOL0     O 4602  11.871   4.703   0.387  0.6289  0.1793 -0.3985
  793MOL0     C 4603  11.912   4.615   0.277  0.2066 -0.6827  0.6148
  793MOL0     C 4604  12.064   4.609   0.277 -0.6541  0.4101  0.0619
  793MOL0     C 4605  12.117   4.605   0.136 -0.1909 -0.0278  0.3586
  793MOL0     C 4606  12.264   4.558   0.127  0.3724  0.1399 -0.0621
  793MOL0     C 4607  12.361   4.636   0.207  0.1397 -0.2071  0.2923
  793MOL0     C 4608  12.444   4.693   0.271 -0.2795 -0.0445 -0.3858
  793MOL0     C 4609  11.645   4.661   0.298  0.1713  0.4782 -0.4544
  793MOL0     C 4610  11.511   4.696   0.298  0.2225 -0.1258  0.8539
  793MOL0     H 4611  11.094   4.845   0.078 -1.0257  1.8846  0.0739
  793MOL0     H 4612  10.850   4.769   0.047  0.7927 -2.5840 -0.0347
  793MOL0     H 4613  10.604   4.614   0.374  4.8814  2.9271  0.7906
  793MOL0     H 4614  10.731   4.496   0.336 -0.0553  1.0005  0.6916
  793MOL0     H 4615  10.595   4.484   0.100 -1.6857 -1.3075 -0.2094
  793MOL0     H 4616  10.465   4.540   0.200  0.0466  0.8849  2.4437
  793MOL0     H 4617  10.458   4.356   0.349 -1.5868  2.2982 -2.0275
  793MOL0     H 4618  10.621   4.294   0.306  1.0579  1.3352 -0.6868
  793MOL0     H 4619  10.371   4.283   0.144 -0.9429 -1.9582  3.9598
  793MOL0     H 4620  10.540   4.239   0.072  0.0331 -0.1663  1.3506
  793MOL0     H 4621  10.551   4.053   0.207 -0.2526  0.0040  3.2898
  793MOL0     H 4622  10.405   4.041   0.120 -0.0016 -1.5437  0.3448
  793MOL0     H 4623  10.310   4.150   0.367 -1.9216 -1.9560  0.2382
  793MOL0     H 4624  10.456   4.058   0.412  0.0378  0.4318  0.9026
  793MOL0     H 4625  10.353   3.873   0.283 -0.2242 -0.6567  0.9349
  793MOL0     H 4626  10.271   3.903   0.425 -0.3774 -0.4104  0.3085
  793MOL0     H 4627  10.189   3.998   0.152  1.2260  0.1861  0.6524
  793MOL0     H 4628  10.114   4.070   0.295 -0.9454 -0.0627 -1.6758
  793MOL0     H 4629   9.886   3.966   0.382 -1.9898 -1.3166 -0.1833
  793MOL0     H 4630   9.654   3.846   0.345 -4.6071 -0.7243 -3.4074
  793MOL0     H 4631   9.732   3.701   0.411  0.4196  0.3735 -0.3278
  793MOL0     H 4632   9.527   3.679   0.257 -0.6631  0.0447 -1.8771
  793MOL0     H 4633   9.670   3.585   0.203 -0.9426 -0.0064  0.4387
  793MOL0     H 4634   9.642   3.865   0.111 -0.4991 -1.2104  2.0670
  793MOL0     H 4635   9.706   3.736   0.019  1.2197  0.4532  1.1889
  793MOL0     H 4636   9.514   3.806  -0.098  0.2419 -0.3763 -0.3595
  793MOL0     H 4637   9.413   3.809   0.055  0.5731  1.3512 -0.5634
  793MOL0     H 4638   9.382   3.377   0.042  2.2013  0.7919 -0.8302
  793MOL0     H 4639   9.155   3.303   0.065  1.3760  1.3056  1.6321
  793MOL0     H 4640   8.807   3.204  -0.072  0.6011  0.1770 -1.4008
  793MOL0     H 4641   8.593   3.077  -0.097 -3.4126 -0.4845  2.4847
  793MOL0     H 4642   8.380   3.026   0.018 -1.2048  0.2878  0.2067
  793MOL0     H 4643   8.351   2.992  -0.138  0.5884  0.5854 -0.3916
  793MOL0     H 4644   8.136   3.101  -0.143 -0.7890 -0.8172 -0.5184
  793MOL0     H 4645   8.131   3.093   0.040 -2.0096 -0.8614 -0.8154
  793MOL0     H 4646   8.177   2.837   0.011  2.2745  0.9999  0.6908
  793MOL0     H 4647   8.133   2.865  -0.156 -1.1348 -2.2469  1.5319
  793MOL0     H 4648   7.990   2.934   0.103  1.4388 -1.6821  0.8629
  793MOL0     H 4649   7.923   2.976  -0.056  1.0510  2.2314  2.5953
  793MOL0     H 4650   7.992   2.691   0.046 -0.4604  0.8883  0.0235
  793MOL0     H 4651   7.901   2.718  -0.095 -0.1693 -1.7548 -0.1816
  793MOL0     H 4652   7.724   2.809   0.019  0.2758 -1.6442 -0.8791
  793MOL0     H 4653   7.793   2.800   0.180 -2.4086 -2.5858  1.4276
  793MOL0     H 4654   7.624   2.638   0.114 -0.0319 -1.4123  0.5532
  793MOL0     H 4655   7.741   2.559  -0.002 -2.2710 -3.0427  1.2795
  793MOL0     H 4656   7.748   2.588   0.298  0.9837 -0.1760 -0.2271
  793MOL0     H 4657   7.887   2.526   0.194  0.2914 -0.3723  0.7599
  793MOL0     H 4658   8.362   3.436  -0.049 -1.0602 -0.6475  2.5905
  793MOL0     H 4659   8.595   3.568  -0.042  0.5505  0.9189 -2.9811
  793MOL0     H 4660   8.989   3.672  -0.065  0.4712  0.7307 -0.9836
  793MOL0     H 4661   9.223   3.774  -0.061  1.1541 -0.4795 -1.4909
  793MOL0     H 4662  10.821   4.709   0.463 -3.1750  1.1812 -2.5586
  793MOL0     H 4663  11.056   4.754   0.490 -4.0573  0.0031  1.3657
  793MOL0     H 4664  11.512   4.914   0.554 -0.9460  1.6131 -1.6249
  793MOL0     H 4665  11.766   4.886   0.528  2.7402 -1.8896 -0.4458
  793MOL0     H 4666  11.861   4.650   0.186 -0.6103  1.4694  1.8194
  793MOL0     H 4667  11.875   4.514   0.300  0.7581 -0.9155  0.4961
  793MOL0     H 4668  12.095   4.702   0.325 -0.5760 -0.8789  2.6864
  793MOL0     H 4669  12.095   4.531   0.347 -0.3520  0.4128 -0.0705
  793MOL0     H 4670  12.099   4.699   0.082  0.2388  0.1040  0.4421
  793MOL0     H 4671  12.061   4.535   0.074  0.2439 -0.0565 -0.0126
  793MOL0     H 4672  12.275   4.455   0.163  0.7114  0.9371  2.2861
  793MOL0     H 4673  12.291   4.559   0.021 -1.0053 -2.5724 -0.5253
  793MOL0     H 4674  12.524   4.737   0.327  1.5938 -2.4000 -1.0677
  793MOL0     H 4675  11.673   4.593   0.218 -1.3024 -0.6861 -0.0145
  793MOL0     H 4676  11.439   4.655   0.229 -2.2356  1.3925  2.3859
  794MOL0     O 4677   0.906   8.335   4.944 -0.1357  0.5686  0.5285
  794MOL0     C 4678   0.928   8.220   4.948  0.1281  0.4738 -0.1256
  794MOL0     O 4679   0.862   8.121   4.884  0.4938 -0.0770 -0.1870
  794MOL0     C 4680   0.735   8.152   4.839 -0.1404 -0.1288 -0.3156
  794MOL0     C 4681   0.712   8.099   4.709 -0.4662  0.7337  0.3786
  794MOL0     C 4682   0.585   8.120   4.654  0.2185 -0.5450 -0.4507
  794MOL0     C 4683   0.482   8.166   4.734  0.2030  0.3117  0.2954
  794MOL0     O 4684   0.354   8.178   4.688  0.0203  0.0759 -0.2129
  794MOL0     C 4685   0.300   8.094   4.585 -0.3428  0.5545  0.4172
  794MOL0     C 4686   0.149   8.083   4.572 -0.7316 -0.4842  0.3070
  794MOL0     C 4687   0.113   8.208   4.498 -0.6211 -0.0060  0.1813
  794MOL0     C 4688  -0.041   8.227   4.476  0.0258  0.2443 -0.3447
  794MOL0     C 4689  -0.080   8.351   4.397 -0.3010 -0.3121  0.1324
  794MOL0     C 4690  -0.226   8.363   4.386 -0.7201  0.2814  0.2756
  794MOL0     C 4691  -0.255   8.505   4.333  0.1353  0.6449 -0.0007
  794MOL0     C 4692  -0.402   8.518   4.350 -0.4857 -0.3560  0.4731
  794MOL0     N 4693  -0.463   8.622   4.278 -0.9676 -0.2206 -0.2306
  794MOL0     C 4694  -0.484   8.740   4.327  0.4347  0.6727  0.1179
  794MOL0     C 4695  -0.550   8.802   4.234  0.1184 -0.4422  0.3236
  794MOL0     C 4696  -0.595   8.941   4.244 -0.3102 -0.1820  0.4317
  794MOL0     C 4697  -0.721   8.963   4.171  0.6232 -0.1036 -1.1502
  794MOL0     C 4698  -0.833   8.868   4.212  0.0506 -0.2646  0.3058
  794MOL0     C 4699  -0.973   8.940   4.213  0.7210 -0.2691  0.0533
  794MOL0     O 4700  -1.073   8.852   4.245  0.4694 -0.1339 -0.2695
  794MOL0     C 4701  -1.205   8.889   4.246 -0.4978 -0.3904  0.2284
  794MOL0     C 4702  -1.267   8.939   4.359  0.6425  0.4038 -0.1938
  794MOL0     C 4703  -1.402   8.973   4.368  0.2160  0.0891 -1.3717
  794MOL0     C 4704  -1.488   8.952   4.261 -0.2900  0.1556  0.6955
  794MOL0     C 4705  -1.633   8.979   4.266  0.3099 -0.2295  0.2113
  794MOL0     O 4706  -1.713   8.943   4.158  0.2151  0.2323 -0.1177
  794MOL0     C 4707  -1.851   8.921   4.171  0.0833 -0.2733  0.0511
  794MOL0     C 4708  -1.943   8.971   4.267 -0.7000  1.2986 -0.1264
  794MOL0     C 4709  -2.077   8.923   4.269 -0.3305 -0.7295  0.4752
  794MOL0     C 4710  -2.124   8.842   4.159  0.3828 -0.3527  0.2280
  794MOL0     O 4711  -2.248   8.780   4.143 -0.6198  0.0557 -0.2519
  794MOL0     C 4712  -2.364   8.833   4.226  0.5736  0.3491 -0.1811
  794MOL0     C 4713  -2.490   8.750   4.177 -0.4861  0.8463 -0.2404
  794MOL0     C 4714  -2.615   8.797   4.254  0.1987 -0.5332 -0.0096
  794MOL0     C 4715  -2.737   8.699   4.247 -0.4186 -0.0680 -0.3087
  794MOL0     C 4716  -2.856   8.758   4.320 -0.5748 -0.0687 -0.4311
  794MOL0     C 4717  -2.968   8.654   4.351 -0.6263  0.8795  0.0771
  794MOL0     C 4718  -3.084   8.718   4.424 -0.4740 -0.7642 -0.5281
  794MOL0     C 4719  -3.201   8.624   4.481  0.1230 -0.3056  0.4675
  794MOL0    Cl 4720  -3.325   8.693   4.583 -0.2021 -0.2944 -0.0643
  794MOL0     C 4721  -2.028   8.795   4.065  0.0609 -0.1283 -0.3786
  794MOL0     C 4722  -1.894   8.839   4.066 -0.1018 -0.1752  0.5130
  794MOL0     O 4723  -1.675   9.026   4.374 -0.8289 -0.2012 -0.2731
  794MOL0     C 4724  -1.422   8.907   4.144  0.5180 -0.7860 -0.5550
  794MOL0     C 4725  -1.283   8.871   4.137 -0.3543 -0.9310  0.2052
  794MOL0     N 4726  -0.551   8.722   4.117  0.3230  0.7188  0.7358
  794MOL0     N 4727  -0.503   8.609   4.146 -0.2871 -0.0373  0.2622
  794MOL0     C 4728   0.506   8.207   4.863  0.9306  0.1784 -1.0447
  794MOL0     C 4729   0.633   8.212   4.910  0.2286  0.3099 -0.9526
  794MOL0     C 4730   1.052   8.187   5.015  0.9500  0.2062  0.2809
  794MOL0     C 4731   1.118   8.063   4.992 -0.7470  0.6672 -0.5877
  794MOL0     C 4732   1.238   8.027   5.045  0.1907  0.4128  0.4758
  794MOL0     C 4733   1.299   8.107   5.142  0.1376  0.5614 -0.0266
  794MOL0     O 4734   1.415   8.078   5.215 -0.1581  0.2128 -0.5021
  794MOL0     C 4735   1.459   7.944   5.208  0.2136  0.2975  0.0295
  794MOL0     C 4736   1.564   7.937   5.318 -0.0207  0.2037 -0.3593
  794MOL0     C 4737   1.597   7.788   5.329 -0.3033  0.4345 -0.4337
  794MOL0     C 4738   1.698   7.764   5.430 -0.2220 -0.6682  0.3157
  794MOL0     C 4739   1.747   7.626   5.433  0.4580  0.1372  0.2971
  794MOL0     C 4740   1.786   7.513   5.446  0.1125  0.6464  0.1799
  794MOL0     C 4741   1.240   8.234   5.164 -0.1434  0.7420 -0.6621
  794MOL0     C 4742   1.113   8.272   5.108 -0.7516 -0.8822 -0.3700
  794MOL0     H 4743   0.779   8.025   4.666  0.3764  0.7683  1.5887
  794MOL0     H 4744   0.575   8.100   4.548  1.7060 -0.2446 -0.6634
  794MOL0     H 4745   0.352   8.000   4.604  1.2228  0.9858 -1.4475
  794MOL0     H 4746   0.339   8.125   4.487 -1.6987  0.1324 -0.2681
  794MOL0     H 4747   0.107   8.084   4.673  0.2783 -2.9342  0.8270
  794MOL0     H 4748   0.118   7.993   4.517 -0.8146 -0.9343  1.0776
  794MOL0     H 4749   0.165   8.201   4.403 -2.5916 -4.7845 -0.8807
  794MOL0     H 4750   0.151   8.300   4.544 -0.2932  2.0048 -3.7173
  794MOL0     H 4751  -0.081   8.143   4.419  4.0899  0.2532 -3.5871
  794MOL0     H 4752  -0.073   8.248   4.579  2.0146  0.6549  0.2306
  794MOL0     H 4753  -0.040   8.331   4.297 -1.0822 -0.2955 -0.1924
  794MOL0     H 4754  -0.037   8.442   4.437 -2.1773  1.2629 -1.2210
  794MOL0     H 4755  -0.273   8.343   4.482 -0.3019 -0.3870  0.3463
  794MOL0     H 4756  -0.262   8.285   4.318 -1.6404 -1.5078  2.6918
  794MOL0     H 4757  -0.195   8.574   4.392  1.5350 -0.7138  0.2458
  794MOL0     H 4758  -0.224   8.523   4.230 -0.0521 -0.0007 -0.1797
  794MOL0     H 4759  -0.437   8.536   4.452 -2.7899  4.5189 -0.8409
  794MOL0     H 4760  -0.448   8.424   4.317 -2.3642  0.4194  0.7335
  794MOL0     H 4761  -0.459   8.773   4.427  1.6867 -0.7075  0.3078
  794MOL0     H 4762  -0.522   9.008   4.198 -2.6206  3.0049  0.9870
  794MOL0     H 4763  -0.606   8.971   4.348 -1.0655  2.3948 -0.3113
  794MOL0     H 4764  -0.695   8.953   4.065  3.5948 -1.1755 -0.4010
  794MOL0     H 4765  -0.741   9.065   4.205 -0.2155 -1.0513  1.4059
  794MOL0     H 4766  -0.836   8.780   4.148 -1.4420  0.6770 -0.9651
  794MOL0     H 4767  -0.823   8.832   4.315  1.2211  1.5827  0.8953
  794MOL0     H 4768  -1.005   8.989   4.121 -0.9760 -0.8037  0.3241
  794MOL0     H 4769  -0.967   9.022   4.286  1.8810 -1.7340  1.6704
  794MOL0     H 4770  -1.201   8.950   4.445 -0.1730 -1.6392  0.7729
  794MOL0     H 4771  -1.436   9.023   4.458  0.3532  0.0588 -1.3021
  794MOL0     H 4772  -1.906   9.036   4.345  0.5949  1.2742 -0.6846
  794MOL0     H 4773  -2.155   8.951   4.339 -1.7428  1.0137 -1.6205
  794MOL0     H 4774  -2.384   8.938   4.205 -3.2460 -0.7277 -3.2077
  794MOL0     H 4775  -2.338   8.823   4.332 -1.1639 -0.0414  0.2501
  794MOL0     H 4776  -2.476   8.642   4.189  0.5825  0.8254 -1.4629
  794MOL0     H 4777  -2.504   8.765   4.070 -2.1239  0.8304 -0.0492
  794MOL0     H 4778  -2.650   8.894   4.217 -0.3080 -0.6350  0.1910
  794MOL0     H 4779  -2.598   8.814   4.361  1.8994  0.0576 -0.3360
  794MOL0     H 4780  -2.748   8.670   4.143  0.8080 -1.6521 -0.0339
  794MOL0     H 4781  -2.712   8.607   4.301 -1.2329  0.5351  1.1572
  794MOL0     H 4782  -2.897   8.835   4.255  2.1941  1.6767 -0.2816
  794MOL0     H 4783  -2.812   8.795   4.413  1.9191  0.2143 -1.6329
  794MOL0     H 4784  -2.939   8.578   4.424 -1.7531 -1.4046 -1.7030
  794MOL0     H 4785  -2.999   8.600   4.261 -1.0738  0.3169  0.5534
  794MOL0     H 4786  -3.045   8.765   4.515 -0.3895 -2.6503  0.4621
  794MOL0     H 4787  -3.135   8.797   4.367 -1.9137 -0.0064  1.6710
  794MOL0     H 4788  -3.160   8.539   4.536 -3.7020 -3.4345 -1.0215
  794MOL0     H 4789  -3.252   8.577   4.396  2.4012 -1.8934 -0.1176
  794MOL0     H 4790  -2.067   8.723   3.993  0.2818  0.0226 -0.6525
  794MOL0     H 4791  -1.821   8.806   3.993 -0.5067  0.5612 -0.2379
  794MOL0     H 4792  -1.482   8.874   4.059  0.2847  2.0630 -1.5974
  794MOL0     H 4793  -1.242   8.820   4.050 -0.2967 -2.1436  0.9207
  794MOL0     H 4794   0.428   8.246   4.929  1.2244 -1.2164  0.1760
  794MOL0     H 4795   0.639   8.262   5.006 -1.3737 -2.4467  0.7253
  794MOL0     H 4796   1.078   8.002   4.911 -1.6080 -0.1246  0.3995
  794MOL0     H 4797   1.268   7.923   5.031 -1.6989 -0.2537  1.0601
  794MOL0     H 4798   1.514   7.931   5.114 -2.3945 -0.3236 -1.4902
  794MOL0     H 4799   1.383   7.866   5.222 -1.2014  1.5493 -0.4728
  794MOL0     H 4800   1.654   7.996   5.302 -0.1709  0.3342 -0.7294
  794MOL0     H 4801   1.505   7.960   5.408  0.7122 -1.4179  0.5740
  794MOL0     H 4802   1.634   7.752   5.233 -0.0043  3.7756 -1.6926
  794MOL0     H 4803   1.508   7.729   5.354  0.3271 -0.9645 -1.3785
  794MOL0     H 4804   1.774   7.837   5.403 -0.8876 -0.9562 -2.6527
  794MOL0     H 4805   1.659   7.788   5.530 -0.3332  1.1979 -0.1336
  794MOL0     H 4806   1.816   7.410   5.449 -0.0779  0.4850 -2.0467
  794MOL0     H 4807   1.284   8.302   5.237  1.4229 -1.1431  0.2437
  794MOL0     H 4808   1.085   8.371   5.140  3.9596  1.2224 -1.8006
  795MOL0     O 4809   0.571   7.059   5.620 -0.4275 -0.1990 -0.1397
  795MOL0     C 4810   0.594   7.145   5.708  0.2669 -0.1902 -0.8176
  795MOL0     O 4811   0.496   7.201   5.787 -0.0578 -0.2770 -0.5275
  795MOL0     C 4812   0.364   7.161   5.771 -0.3598  0.5610 -0.5406
  795MOL0     C 4813   0.323   7.033   5.750  0.4575  0.1134 -0.0141
  795MOL0     C 4814   0.182   7.008   5.727 -0.5886  0.5818 -0.0777
  795MOL0     C 4815   0.085   7.106   5.721  0.3119 -0.8690 -0.3985
  795MOL0     O 4816  -0.053   7.096   5.705 -0.8825  0.0563  0.3923
  795MOL0     C 4817  -0.100   6.969   5.734  0.3632 -0.8476  0.4105
  795MOL0     C 4818  -0.247   6.960   5.687  0.1987 -0.8202 -0.5290
  795MOL0     C 4819  -0.349   6.982   5.802 -0.9937  0.0695  0.3568
  795MOL0     C 4820  -0.490   6.932   5.760 -0.7790  0.0980 -0.2245
  795MOL0     C 4821  -0.580   6.933   5.883 -0.4512 -0.5247 -0.3014
  795MOL0     C 4822  -0.727   6.963   5.841  0.0106  0.6773  0.2351
  795MOL0     C 4823  -0.826   6.924   5.946 -0.1294  0.3590 -0.7730
  795MOL0     C 4824  -0.966   6.980   5.905 -0.7091  0.1423 -0.0226
  795MOL0     N 4825  -1.068   6.891   5.960  0.4218 -0.0324  0.6537
  795MOL0     C 4826  -1.130   6.912   6.075 -0.0909  0.2299 -0.9490
  795MOL0     C 4827  -1.218   6.806   6.083  0.6560 -0.1839 -0.2739
  795MOL0     C 4828  -1.304   6.749   6.189  0.4164 -0.0158 -0.0925
  795MOL0     C 4829  -1.454   6.739   6.161  0.1702 -0.0104  0.9579
  795MOL0     C 4830  -1.480   6.596   6.097 -0.6004  0.1004  0.0925
  795MOL0     C 4831  -1.618   6.552   6.103  0.7791  0.8549  0.4517
  795MOL0     O 4832  -1.702   6.627   6.014  0.1441 -0.0197  0.1435
  795MOL0     C 4833  -1.837   6.615   6.019 -0.1697  0.4608  0.3858
  795MOL0     C 4834  -1.915   6.685   5.927  0.6446  0.6165 -0.0518
  795MOL0     C 4835  -2.056   6.670   5.921  1.0375 -0.1185 -0.4040
  795MOL0     C 4836  -2.129   6.595   6.025 -0.3380  0.7735 -0.6819
  795MOL0     C 4837  -2.277   6.579   6.033  0.4948 -0.2551  0.3818
  795MOL0     O 4838  -2.332   6.508   6.141 -0.2805  0.1842  0.5255
  795MOL0     C 4839  -2.468   6.510   6.155  0.1124 -0.8788 -0.4280
  795MOL0     C 4840  -2.540   6.603   6.231 -0.2186 -0.2013  0.9528
  795MOL0     C 4841  -2.677   6.590   6.247 -0.0815  0.7519 -0.2915
  795MOL0     C 4842  -2.743   6.481   6.186  0.6239  0.0273  0.6291
  795MOL0     O 4843  -2.876   6.449   6.204 -0.5060 -0.3249 -0.1742
  795MOL0     C 4844  -2.962   6.561   6.160 -0.3239 -0.1205  0.7582
  795MOL0     C 4845  -3.114   6.526   6.195  1.0111  0.2350 -0.5581
  795MOL0     C 4846  -3.211   6.606   6.114  0.1129  0.1198  0.7797
  795MOL0     C 4847  -3.352   6.563   6.131  0.7370 -0.0784 -0.2360
  795MOL0     C 4848  -3.425   6.626   6.011 -0.4150 -0.1289 -0.1551
  795MOL0     C 4849  -3.573   6.585   6.004 -0.2412 -0.7605 -0.0991
  795MOL0     C 4850  -3.652   6.660   5.892  0.3059 -0.7407 -0.4350
  795MOL0     C 4851  -3.793   6.616   5.879 -0.5463  0.7309 -0.2454
  795MOL0    Cl 4852  -3.850   6.677   5.725  0.1449 -0.0681  0.1824
  795MOL0     C 4853  -2.678   6.398   6.093 -0.6698 -0.1232  0.0197
  795MOL0     C 4854  -2.540   6.413   6.078  0.2631 -0.6117 -0.2214
  795MOL0     O 4855  -2.339   6.638   5.941  0.3656  0.5644 -0.8641
  795MOL0     C 4856  -2.053   6.527   6.117  0.2002 -0.8154 -0.0834
  795MOL0     C 4857  -1.908   6.535   6.111 -0.6771 -0.9381  0.1109
  795MOL0     N 4858  -1.209   6.732   5.970  0.0175  0.8868  0.5922
  795MOL0     N 4859  -1.119   6.783   5.893 -0.0417 -0.1333 -0.2694
  795MOL0     C 4860   0.132   7.237   5.747  0.5824  0.0863 -0.3602
  795MOL0     C 4861   0.265   7.262   5.775 -0.8686  0.3770  0.0725
  795MOL0     C 4862   0.734   7.175   5.747  0.2153 -0.8972  0.3082
  795MOL0     C 4863   0.839   7.100   5.695  0.2782  0.1750  0.4133
  795MOL0     C 4864   0.974   7.130   5.732 -1.2332 -0.1223  0.2365
  795MOL0     C 4865   1.004   7.227   5.827  0.2670  1.0505  0.7199
  795MOL0     O 4866   1.133   7.245   5.864  0.3632  0.6627  0.2130
  795MOL0     C 4867   1.179   7.376   5.848 -0.9874 -0.1168  0.7911
  795MOL0     C 4868   1.333   7.374   5.840 -0.2348 -0.8798  0.3560
  795MOL0     C 4869   1.385   7.309   5.717  0.0626  0.0313  0.1889
  795MOL0     C 4870   1.531   7.321   5.716 -0.6817  0.1296  0.2086
  795MOL0     C 4871   1.589   7.261   5.596  0.4074  0.1132 -0.4417
  795MOL0     C 4872   1.647   7.198   5.510  0.5351  0.0855 -0.0953
  795MOL0     C 4873   0.895   7.296   5.882 -0.2342  0.2344 -0.4402
  795MOL0     C 4874   0.761   7.270   5.842 -0.6618 -0.7481 -0.0554
  795MOL0     H 4875   0.394   6.951   5.745  0.9695  0.4446  1.4010
  795MOL0     H 4876   0.159   6.902   5.730 -0.2538  0.5112  2.4299
  795MOL0     H 4877  -0.102   6.956   5.843 -2.3205 -0.7496  0.4594
  795MOL0     H 4878  -0.046   6.892   5.678  3.0884 -0.0800  1.8046
  795MOL0     H 4879  -0.262   6.854   5.666 -1.9014 -0.7168  0.1923
  795MOL0     H 4880  -0.271   7.027   5.604  0.6047  1.8312  1.3388
  795MOL0     H 4881  -0.360   7.086   5.834 -3.4789  0.1949 -0.7235
  795MOL0     H 4882  -0.318   6.920   5.887 -4.4193 -1.5281  0.5854
  795MOL0     H 4883  -0.521   6.996   5.677  0.6950  2.4022  0.8943
  795MOL0     H 4884  -0.477   6.833   5.715  1.6303 -1.0170  2.6161
  795MOL0     H 4885  -0.552   7.013   5.951  0.3280 -1.1288  0.1024
  795MOL0     H 4886  -0.562   6.839   5.936 -0.8192 -1.2655 -1.4529
  795MOL0     H 4887  -0.753   6.924   5.742  1.2650  0.7291 -0.1371
  795MOL0     H 4888  -0.719   7.071   5.830  1.7387  0.3498 -3.2420
  795MOL0     H 4889  -0.821   6.815   5.954 -0.6365  0.4394  1.0787
  795MOL0     H 4890  -0.794   6.950   6.047  1.2325 -2.0711 -0.5023
  795MOL0     H 4891  -0.970   6.986   5.795 -1.0642  1.2065  0.0424
  795MOL0     H 4892  -0.978   7.085   5.930 -1.0602  0.8203 -2.6770
  795MOL0     H 4893  -1.117   6.988   6.151 -1.2085  0.4004 -0.9032
  795MOL0     H 4894  -1.298   6.804   6.283  1.6767  0.2090 -0.2739
  795MOL0     H 4895  -1.262   6.653   6.221 -0.7010 -0.4885 -0.0113
  795MOL0     H 4896  -1.494   6.821   6.101  0.8767 -1.1190 -1.1264
  795MOL0     H 4897  -1.506   6.739   6.257  0.0117 -3.5464  1.0056
  795MOL0     H 4898  -1.456   6.605   5.991 -3.4799  0.6775 -0.5776
  795MOL0     H 4899  -1.426   6.520   6.154 -0.3536  2.1684  2.8217
  795MOL0     H 4900  -1.651   6.567   6.206 -0.8493  4.4987 -0.4308
  795MOL0     H 4901  -1.625   6.444   6.089 -1.5498  0.7912  1.6316
  795MOL0     H 4902  -1.858   6.737   5.851  2.8882  0.9249  1.7419
  795MOL0     H 4903  -2.111   6.736   5.854 -3.0612  0.3320  2.9634
  795MOL0     H 4904  -2.483   6.677   6.287  0.3389 -0.1954  0.3884
  795MOL0     H 4905  -2.736   6.631   6.328 -2.6281 -2.6003 -0.2218
  795MOL0     H 4906  -2.946   6.576   6.053 -3.4767 -0.4854  0.1188
  795MOL0     H 4907  -2.929   6.650   6.214 -0.1352 -0.4980  1.2744
  795MOL0     H 4908  -3.139   6.548   6.299 -2.1044 -1.5928 -0.7924
  795MOL0     H 4909  -3.138   6.420   6.181 -0.0253  0.2620  0.7817
  795MOL0     H 4910  -3.188   6.613   6.007  0.8492 -0.7796  0.8652
  795MOL0     H 4911  -3.203   6.705   6.159  3.8680  0.2639  0.1313
  795MOL0     H 4912  -3.348   6.453   6.124  0.1784 -0.0344 -1.6207
  795MOL0     H 4913  -3.392   6.600   6.225  3.9448  0.9710  0.8323
  795MOL0     H 4914  -3.386   6.589   5.915 -3.8488  0.2121 -1.8383
  795MOL0     H 4915  -3.399   6.731   5.998  1.4774 -0.4839  0.5429
  795MOL0     H 4916  -3.619   6.584   6.103  0.8994  0.6243  0.4890
  795MOL0     H 4917  -3.575   6.479   5.977 -3.3326 -0.7128 -0.4206
  795MOL0     H 4918  -3.652   6.767   5.917  0.3318 -0.6164 -0.9591
  795MOL0     H 4919  -3.592   6.649   5.802 -0.5073 -1.4063 -0.9027
  795MOL0     H 4920  -3.850   6.650   5.966 -0.9703 -5.9222  2.6899
  795MOL0     H 4921  -3.809   6.508   5.884  0.8609  0.4871 -0.5714
  795MOL0     H 4922  -2.722   6.311   6.048 -2.6218  0.7078  0.2306
  795MOL0     H 4923  -2.480   6.346   6.017 -1.2630  0.9083 -3.6806
  795MOL0     H 4924  -2.090   6.456   6.191  0.7470  0.3571  1.3684
  795MOL0     H 4925  -1.848   6.476   6.180  0.8924  2.5002  1.9014
  795MOL0     H 4926   0.058   7.316   5.742 -0.3569 -0.8338 -1.6414
  795MOL0     H 4927   0.304   7.358   5.807 -1.7354  0.6783  0.2619
  795MOL0     H 4928   0.823   7.026   5.616 -2.2073  1.0147  0.0483
  795MOL0     H 4929   1.054   7.072   5.687  2.5672  2.4344  2.9779
  795MOL0     H 4930   1.151   7.436   5.935  0.3676  0.9130  0.5473
  795MOL0     H 4931   1.142   7.416   5.753 -0.2775 -3.5934 -1.1238
  795MOL0     H 4932   1.373   7.475   5.852 -0.1486 -0.9291  0.4781
  795MOL0     H 4933   1.369   7.312   5.922  0.0809  0.1914  1.0464
  795MOL0     H 4934   1.343   7.348   5.624  2.3048 -2.4741 -2.0784
  795MOL0     H 4935   1.348   7.206   5.716 -2.5391  0.7786  3.1266
  795MOL0     H 4936   1.561   7.427   5.720 -2.4552  0.7365 -1.3525
  795MOL0     H 4937   1.579   7.254   5.788 -1.6082  0.3579  1.0569
  795MOL0     H 4938   1.706   7.154   5.433  1.6190  3.2338 -1.2308
  795MOL0     H 4939   0.911   7.370   5.959 -0.2041  0.5629 -0.7599
  795MOL0     H 4940   0.683   7.325   5.892 -1.0500 -1.5725  0.2575
  796MOL0     O 4941   2.385   5.946   1.204 -0.6148  0.3945  0.2619
  796MOL0     C 4942   2.420   6.033   1.282  0.0020  1.0602 -0.0350
  796MOL0     O 4943   2.364   6.035   1.410 -0.0934  0.3984  0.5716
  796MOL0     C 4944   2.250   5.962   1.443  0.3917  0.9569  0.9364
  796MOL0     C 4945   2.259   5.896   1.568  0.9150 -0.2442 -0.1397
  796MOL0     C 4946   2.144   5.825   1.605  1.0176  0.5122  0.0025
  796MOL0     C 4947   2.022   5.827   1.526 -0.0093  0.2467 -0.6410
  796MOL0     O 4948   1.916   5.750   1.572  0.7646 -0.4363  0.3342
  796MOL0     C 4949   1.784   5.768   1.508 -0.3738  0.1658  0.5297
  796MOL0     C 4950   1.667   5.737   1.600  0.0614 -0.8633 -0.2430
  796MOL0     C 4951   1.650   5.589   1.591 -0.1476 -0.2129  0.2904
  796MOL0     C 4952   1.536   5.555   1.696 -0.4233  0.8859  0.4669
  796MOL0     C 4953   1.522   5.406   1.727 -0.2287  0.5003  0.3051
  796MOL0     C 4954   1.613   5.337   1.839  0.6794 -0.3986  0.0540
  796MOL0     C 4955   1.570   5.202   1.902  0.5126 -0.0802  1.2132
  796MOL0     C 4956   1.419   5.187   1.938  0.3331  0.2791 -0.1289
  796MOL0     N 4957   1.375   5.284   2.039  0.2338  0.1986 -0.3316
  796MOL0     C 4958   1.329   5.252   2.160  0.3309  0.6248 -0.4285
  796MOL0     C 4959   1.275   5.356   2.228 -0.5687 -0.1000  0.1674
  796MOL0     C 4960   1.202   5.349   2.358 -0.0322  0.1218  1.0039
  796MOL0     C 4961   1.059   5.287   2.333  0.3337  0.2853  0.9492
  796MOL0     C 4962   0.980   5.232   2.455 -0.5883 -0.0133  0.8744
  796MOL0     C 4963   0.907   5.341   2.539  0.2241  0.4314  1.1212
  796MOL0     O 4964   0.813   5.406   2.454  0.3915  0.3916 -0.5166
  796MOL0     C 4965   0.680   5.366   2.445  0.3986 -0.1657  0.4386
  796MOL0     C 4966   0.627   5.250   2.504 -0.0361  0.2324  1.0996
  796MOL0     C 4967   0.488   5.241   2.504 -0.3560  0.9024 -0.4899
  796MOL0     C 4968   0.404   5.334   2.445  0.5908  0.3786 -0.6315
  796MOL0     C 4969   0.258   5.329   2.452  0.2949 -0.3250 -0.0848
  796MOL0     O 4970   0.198   5.267   2.556  0.0424 -0.0651  0.5096
  796MOL0     C 4971   0.062   5.264   2.570 -0.1849 -0.5077 -0.7461
  796MOL0     C 4972  -0.036   5.220   2.474  0.2417 -0.3655 -0.5843
  796MOL0     C 4973  -0.173   5.224   2.511 -0.4117 -0.6109 -1.0491
  796MOL0     C 4974  -0.218   5.253   2.650 -0.3412 -0.6997  0.5489
  796MOL0     O 4975  -0.350   5.251   2.676 -0.2837 -0.3592  0.2105
  796MOL0     C 4976  -0.391   5.243   2.806  0.3157 -0.1854  0.0393
  796MOL0     C 4977  -0.540   5.225   2.817  0.7445 -0.6932  0.6582
  796MOL0     C 4978  -0.599   5.189   2.955 -0.1585  0.4698  0.5949
  796MOL0     C 4979  -0.741   5.125   2.950 -0.1226 -0.2311  0.8296
  796MOL0     C 4980  -0.781   5.073   3.094 -0.2787 -0.5483  0.5903
  796MOL0     C 4981  -0.938   5.072   3.094 -1.0959 -0.3298 -0.3493
  796MOL0     C 4982  -0.995   4.994   3.213  0.2768 -0.4290 -1.1246
  796MOL0     C 4983  -1.145   4.975   3.210  0.9603  0.5567 -0.2943
  796MOL0    Cl 4984  -1.218   4.979   3.036 -0.1712  0.4115 -0.4722
  796MOL0     C 4985  -0.118   5.269   2.741  0.0953  0.0708  0.4411
  796MOL0     C 4986   0.017   5.286   2.702 -0.0174  0.0567  0.4116
  796MOL0     O 4987   0.192   5.372   2.355 -0.4061  0.4310 -0.0910
  796MOL0     C 4988   0.463   5.437   2.374 -0.0845 -0.2925  0.2996
  796MOL0     C 4989   0.600   5.458   2.366 -0.0568  0.2628  0.2869
  796MOL0     N 4990   1.291   5.462   2.139 -0.1980 -0.7053  0.8412
  796MOL0     N 4991   1.354   5.416   2.033 -0.5393  0.4033  0.3627
  796MOL0     C 4992   2.026   5.894   1.400  0.7869  0.2247  0.3156
  796MOL0     C 4993   2.140   5.955   1.353 -0.0453 -0.2244  0.0206
  796MOL0     C 4994   2.538   6.113   1.264 -0.0026  0.1675 -0.2346
  796MOL0     C 4995   2.543   6.238   1.338  0.1070 -0.2261 -1.0027
  796MOL0     C 4996   2.638   6.338   1.319  0.5040  0.8079 -0.4831
  796MOL0     C 4997   2.732   6.310   1.211 -0.7804 -0.5421 -0.0354
  796MOL0     O 4998   2.837   6.396   1.180  0.8160 -0.3066  0.5258
  796MOL0     C 4999   2.884   6.506   1.260  1.0643 -0.1163 -0.9095
  796MOL0     C 5000   2.977   6.459   1.375  0.8191 -0.9829 -0.6406
  796MOL0     C 5001   3.114   6.423   1.330 -0.9315 -0.2999 -0.2780
  796MOL0     C 5002   3.202   6.365   1.439 -0.3311  0.1455  0.0887
  796MOL0     C 5003   3.342   6.364   1.387  0.0550 -0.0576  0.3933
  796MOL0     C 5004   3.440   6.388   1.324  0.1303 -0.2473  0.5492
  796MOL0     C 5005   2.721   6.195   1.135  0.4290 -0.9182  0.1994
  796MOL0     C 5006   2.625   6.098   1.161 -0.0097  0.4732  0.4828
  796MOL0     H 5007   2.346   5.906   1.633  1.0980 -1.1874 -0.2354
  796MOL0     H 5008   2.139   5.772   1.700  1.9740 -4.7248 -2.5019
  796MOL0     H 5009   1.787   5.705   1.419  1.3723 -0.4837  1.0100
  796MOL0     H 5010   1.782   5.872   1.477 -0.7706 -0.4233 -1.5301
  796MOL0     H 5011   1.586   5.803   1.569  2.1703  1.0976 -1.9320
  796MOL0     H 5012   1.695   5.771   1.700 -0.5116  0.4128 -0.5030
  796MOL0     H 5013   1.744   5.536   1.608 -1.2321 -1.8803  1.3258
  796MOL0     H 5014   1.616   5.570   1.489  1.7575  2.1952 -0.9125
  796MOL0     H 5015   1.549   5.612   1.789  2.9062  0.4959  0.3744
  796MOL0     H 5016   1.444   5.591   1.650 -2.0873 -0.6006  2.4315
  796MOL0     H 5017   1.525   5.344   1.637 -0.1750  1.3298 -0.2635
  796MOL0     H 5018   1.422   5.379   1.762  0.3151 -0.4186  1.2391
  796MOL0     H 5019   1.615   5.403   1.926  2.0438 -1.8270  1.1767
  796MOL0     H 5020   1.716   5.327   1.803  0.5168  2.5398 -1.5080
  796MOL0     H 5021   1.604   5.120   1.837  3.8672  2.7255 -0.9296
  796MOL0     H 5022   1.627   5.197   1.995  0.8561  1.1662  1.0892
  796MOL0     H 5023   1.416   5.083   1.969 -0.9152  0.0893 -0.8073
  796MOL0     H 5024   1.355   5.182   1.849  0.4180  0.0863 -0.1771
  796MOL0     H 5025   1.338   5.150   2.197  0.1910  0.6155 -0.4183
  796MOL0     H 5026   1.188   5.443   2.412 -1.8058  0.2496  0.3682
  796MOL0     H 5027   1.250   5.273   2.420 -0.0164 -1.0950 -0.4479
  796MOL0     H 5028   1.062   5.204   2.262 -0.3415 -1.3360  2.7078
  796MOL0     H 5029   0.997   5.363   2.286  1.1289 -0.4365 -1.3905
  796MOL0     H 5030   0.907   5.156   2.426 -1.3077  1.6328 -2.0290
  796MOL0     H 5031   1.046   5.176   2.523 -1.1703  0.0121  1.4723
  796MOL0     H 5032   0.975   5.416   2.582  0.9222  0.8204 -0.5840
  796MOL0     H 5033   0.852   5.296   2.622  3.2793 -3.0866  1.4971
  796MOL0     H 5034   0.676   5.164   2.548 -1.1807 -0.8021  0.4055
  796MOL0     H 5035   0.447   5.151   2.548 -3.8190  1.5974 -1.9383
  796MOL0     H 5036  -0.014   5.186   2.373  0.9334 -0.6111 -0.3585
  796MOL0     H 5037  -0.250   5.201   2.438 -0.4889 -1.9189 -0.5895
  796MOL0     H 5038  -0.365   5.326   2.873  1.1804 -1.5190  1.4507
  796MOL0     H 5039  -0.344   5.157   2.856 -0.1151 -0.8153 -0.6178
  796MOL0     H 5040  -0.546   5.141   2.747 -0.6178  0.9591 -1.3361
  796MOL0     H 5041  -0.591   5.313   2.778 -1.3401 -2.0346  0.1585
  796MOL0     H 5042  -0.608   5.280   3.014  2.2869  1.3680 -0.3100
  796MOL0     H 5043  -0.525   5.137   3.016  2.2394  3.9766  0.9615
  796MOL0     H 5044  -0.797   5.217   2.930  0.6585  0.0570 -0.1294
  796MOL0     H 5045  -0.758   5.061   2.863 -0.2689  1.7931 -0.7183
  796MOL0     H 5046  -0.750   5.144   3.171 -1.5038 -0.7237  1.2701
  796MOL0     H 5047  -0.738   4.974   3.116 -0.3801 -0.5474  0.7891
  796MOL0     H 5048  -0.975   5.033   2.999 -0.4023  0.8685 -1.1209
  796MOL0     H 5049  -0.969   5.176   3.087  0.7077  0.1911 -1.2245
  796MOL0     H 5050  -0.959   4.892   3.229 -1.7074 -1.3396 -2.1830
  796MOL0     H 5051  -0.973   5.061   3.297 -0.3963 -0.2400 -1.0920
  796MOL0     H 5052  -1.193   5.055   3.268 -1.7277  1.8205 -3.8798
  796MOL0     H 5053  -1.166   4.879   3.258  2.7573  1.1790  1.8687
  796MOL0     H 5054  -0.145   5.289   2.844 -2.6987  1.5322 -0.4899
  796MOL0     H 5055   0.088   5.313   2.779 -1.6474 -0.8015  2.2806
  796MOL0     H 5056   0.396   5.507   2.326 -1.8455  0.7858  3.9224
  796MOL0     H 5057   0.651   5.533   2.308  0.9431  0.0484  0.8676
  796MOL0     H 5058   1.936   5.894   1.339  0.3005 -0.0546  1.0265
  796MOL0     H 5059   2.151   6.012   1.261  0.3253 -0.1099  0.1308
  796MOL0     H 5060   2.467   6.261   1.413  0.2140  1.3360 -1.3496
  796MOL0     H 5061   2.644   6.425   1.384  1.2112  0.5928 -0.2497
  796MOL0     H 5062   2.797   6.561   1.298 -0.5882 -2.3611 -1.2187
  796MOL0     H 5063   2.943   6.578   1.203 -2.1106  2.2617 -1.4725
  796MOL0     H 5064   2.985   6.542   1.447  1.2183 -0.2230 -1.5447
  796MOL0     H 5065   2.934   6.374   1.428 -1.2426 -0.5955 -1.6070
  796MOL0     H 5066   3.172   6.506   1.288  2.3495 -2.2564  0.0762
  796MOL0     H 5067   3.097   6.351   1.250  0.1272 -0.3640 -0.4563
  796MOL0     H 5068   3.193   6.429   1.527 -0.0307  0.8899 -0.4141
  796MOL0     H 5069   3.174   6.263   1.468  1.3074 -0.8573 -1.6493
  796MOL0     H 5070   3.512   6.421   1.252 -1.6766 -1.6802 -2.1128
  796MOL0     H 5071   2.803   6.181   1.065 -0.8461  1.7715 -2.0199
  796MOL0     H 5072   2.619   6.007   1.103 -1.2986  1.2035 -0.5949
  797MOL0     O 5073   3.160   9.376   6.953 -0.5835 -0.1287 -0.1227
  797MOL0     C 5074   3.137   9.350   7.072 -0.4956  0.1955 -0.0201
  797MOL0     O 5075   3.230   9.352   7.167 -0.5733 -0.0724 -1.0519
  797MOL0     C 5076   3.344   9.417   7.135 -0.8272 -0.4943 -0.5447
  797MOL0     C 5077   3.468   9.344   7.114  0.6981 -0.4310  0.3118
  797MOL0     C 5078   3.591   9.414   7.102  0.2489 -0.2779  0.7009
  797MOL0     C 5079   3.593   9.555   7.103  0.4140 -0.8397 -0.5408
  797MOL0     O 5080   3.702   9.637   7.089  0.0111  0.7423  0.1465
  797MOL0     C 5081   3.755   9.643   6.959 -0.3655  0.5902 -0.2319
  797MOL0     C 5082   3.911   9.609   6.957 -0.0482 -0.2727 -0.6210
  797MOL0     C 5083   3.991   9.708   7.032  0.4157 -0.5797 -0.5219
  797MOL0     C 5084   4.144   9.719   6.993  0.3821  0.4964 -0.0310
  797MOL0     C 5085   4.245   9.699   7.121 -0.0440 -0.0088 -0.3008
  797MOL0     C 5086   4.386   9.658   7.074  0.0726  0.4140 -0.8318
  797MOL0     C 5087   4.487   9.659   7.196 -0.2572  0.1033 -0.5404
  797MOL0     C 5088   4.624   9.602   7.169 -0.3063  0.8449  0.1075
  797MOL0     N 5089   4.717   9.682   7.262  0.4676 -0.7243  0.7522
  797MOL0     C 5090   4.767   9.802   7.225  0.5575 -0.9581 -0.1993
  797MOL0     C 5091   4.843   9.836   7.333 -0.6708  0.2070 -0.4266
  797MOL0     C 5092   4.926   9.959   7.345  0.4167  0.1910  0.2787
  797MOL0     C 5093   5.022   9.965   7.220 -0.9155 -0.2233  0.1622
  797MOL0     C 5094   5.138   9.869   7.213 -0.2947 -0.5133  0.4960
  797MOL0     C 5095   5.210   9.871   7.080 -0.5916  0.3911  0.2602
  797MOL0     O 5096   5.241  10.003   7.039  0.3926  0.1009  0.4874
  797MOL0     C 5097   5.358  10.054   7.073 -0.4160 -0.6630 -0.0195
  797MOL0     C 5098   5.461  10.045   6.984 -0.3575  0.4445  0.0438
  797MOL0     C 5099   5.585  10.105   7.012  0.3715  0.3751 -0.6278
  797MOL0     C 5100   5.611  10.159   7.134 -0.2080 -0.8536 -0.6266
  797MOL0     C 5101   5.743  10.209   7.174 -0.6053 -0.2435 -0.0073
  797MOL0     O 5102   5.735  10.292   7.284 -0.1987 -0.0684 -0.6380
  797MOL0     C 5103   5.847  10.347   7.338 -0.4045  0.9444  0.2261
  797MOL0     C 5104   5.887  10.475   7.306  1.3449 -0.3912 -0.1827
  797MOL0     C 5105   5.977  10.546   7.374 -0.5151  0.5344  0.0211
  797MOL0     C 5106   6.058  10.481   7.467 -0.1963 -0.7332 -0.1037
  797MOL0     O 5107   6.137  10.554   7.552 -0.4992  0.0430  0.6650
  797MOL0     C 5108   6.235  10.640   7.485 -0.0898 -0.2250  0.1958
  797MOL0     C 5109   6.372  10.592   7.518  0.3146  0.4000 -0.5107
  797MOL0     C 5110   6.406  10.621   7.663 -0.2667  0.8274 -0.4485
  797MOL0     C 5111   6.548  10.564   7.699  0.3017 -0.5018 -0.1068
  797MOL0     C 5112   6.583  10.611   7.842 -0.6556  0.4983 -0.6622
  797MOL0     C 5113   6.720  10.574   7.903 -0.1272 -0.3361 -0.5148
  797MOL0     C 5114   6.834  10.555   7.798  0.7770  0.4589  0.4517
  797MOL0     C 5115   6.977  10.521   7.848  0.0803  0.0844 -0.1156
  797MOL0    Cl 5116   7.100  10.524   7.718  0.0161  0.1043 -0.2316
  797MOL0     C 5117   6.043  10.340   7.496  1.1720  0.6587 -0.2384
  797MOL0     C 5118   5.933  10.271   7.422  0.3599 -0.1024  0.9198
  797MOL0     O 5119   5.843  10.183   7.104 -0.5564 -0.1574  0.5986
  797MOL0     C 5120   5.498  10.187   7.220  0.1680 -0.0482 -0.4395
  797MOL0     C 5121   5.376  10.130   7.188 -0.1081  0.9814  0.3244
  797MOL0     N 5122   4.839   9.737   7.433 -0.5557  0.0988  0.5118
  797MOL0     N 5123   4.748   9.651   7.389 -0.3719  0.3572 -1.3181
  797MOL0     C 5124   3.477   9.619   7.124  0.8255 -0.2009 -0.2687
  797MOL0     C 5125   3.347   9.562   7.140  0.5573  0.4429 -0.7691
  797MOL0     C 5126   3.002   9.299   7.096 -0.9658 -0.1578  0.4549
  797MOL0     C 5127   2.982   9.241   7.216 -0.4954 -0.3256  0.9273
  797MOL0     C 5128   2.856   9.178   7.235 -0.4614 -0.6887 -0.3727
  797MOL0     C 5129   2.751   9.174   7.146  0.0076  1.5633 -0.3301
  797MOL0     O 5130   2.645   9.118   7.191  0.1848 -0.0094 -0.7573
  797MOL0     C 5131   2.516   9.171   7.144 -0.6516 -0.1966 -0.2340
  797MOL0     C 5132   2.430   9.192   7.263  0.4662 -0.2559  0.3642
  797MOL0     C 5133   2.283   9.240   7.242 -0.3948  1.0225  0.0111
  797MOL0     C 5134   2.205   9.123   7.173  0.0041 -0.5507 -1.0715
  797MOL0     C 5135   2.056   9.158   7.189 -0.9358  0.7086  0.2408
  797MOL0     C 5136   1.940   9.178   7.197 -0.2360  0.0261  0.1753
  797MOL0     C 5137   2.779   9.237   7.026  1.1867 -0.0924  0.3762
  797MOL0     C 5138   2.898   9.294   6.996 -0.4361  0.3747  0.0079
  797MOL0     H 5139   3.458   9.236   7.109 -0.6230 -0.2939 -0.8453
  797MOL0     H 5140   3.687   9.363   7.107  0.5691  0.3023  0.5262
  797MOL0     H 5141   3.744   9.743   6.916  2.5512  0.8808 -0.5502
  797MOL0     H 5142   3.714   9.564   6.896  1.4856 -0.3881 -0.3094
  797MOL0     H 5143   3.938   9.605   6.851 -1.4482 -0.6993 -0.9856
  797MOL0     H 5144   3.925   9.507   6.995  0.9820 -0.1342 -0.6056
  797MOL0     H 5145   3.984   9.684   7.138 -0.1405  0.5804 -0.2740
  797MOL0     H 5146   3.935   9.801   7.013  1.8015  0.3999  0.0010
  797MOL0     H 5147   4.174   9.659   6.906 -2.1973 -0.1695 -0.5624
  797MOL0     H 5148   4.159   9.824   6.963  0.4208  0.7177  0.7425
  797MOL0     H 5149   4.197   9.619   7.178 -0.3230 -0.1918 -0.7815
  797MOL0     H 5150   4.258   9.784   7.189 -0.2181  1.3510 -1.8861
  797MOL0     H 5151   4.417   9.727   6.996 -1.0277  2.0814  0.1486
  797MOL0     H 5152   4.378   9.554   7.040 -2.6874 -0.2849  1.5242
  797MOL0     H 5153   4.493   9.766   7.215  3.3885  0.1611 -1.4215
  797MOL0     H 5154   4.449   9.602   7.281 -2.0001 -1.0961 -2.0287
  797MOL0     H 5155   4.647   9.600   7.062 -2.7982 -2.5899 -0.5399
  797MOL0     H 5156   4.612   9.501   7.207 -0.7311  0.9476  0.2556
  797MOL0     H 5157   4.729   9.861   7.142  0.7740  4.3437  2.9904
  797MOL0     H 5158   4.991   9.964   7.432 -1.3818  2.9569  1.6295
  797MOL0     H 5159   4.859  10.046   7.345 -2.7922 -2.0868 -1.2510
  797MOL0     H 5160   5.065  10.065   7.211 -2.2081  0.1787 -2.3846
  797MOL0     H 5161   4.958   9.961   7.131 -2.8388  1.7947  1.3676
  797MOL0     H 5162   5.210   9.890   7.293 -0.1023 -1.6259  0.6287
  797MOL0     H 5163   5.096   9.769   7.228 -1.1428 -0.2094  0.2099
  797MOL0     H 5164   5.161   9.813   7.001 -0.8479  0.3894  0.4216
  797MOL0     H 5165   5.302   9.812   7.091  0.6614  2.6220  3.1945
  797MOL0     H 5166   5.436  10.001   6.888  3.3800 -4.0260  0.7668
  797MOL0     H 5167   5.654  10.108   6.929 -0.5900  0.2229 -1.4576
  797MOL0     H 5168   5.838  10.528   7.225  2.6941  1.4502  0.1329
  797MOL0     H 5169   5.987  10.653   7.361  2.1226  0.5044  1.1204
  797MOL0     H 5170   6.232  10.743   7.521 -0.3471 -0.3683  0.5841
  797MOL0     H 5171   6.213  10.657   7.379 -0.6826  4.4137  0.8496
  797MOL0     H 5172   6.444  10.632   7.446  1.4526 -0.3744  0.1705
  797MOL0     H 5173   6.375  10.483   7.509 -0.2615  0.1295  2.0000
  797MOL0     H 5174   6.330  10.579   7.729  0.1842 -0.6915 -0.8441
  797MOL0     H 5175   6.409  10.728   7.686  3.4825  0.6615  0.4396
  797MOL0     H 5176   6.550  10.455   7.700  1.0006 -0.6405  4.6493
  797MOL0     H 5177   6.621  10.601   7.626  2.1486  2.0302  2.8124
  797MOL0     H 5178   6.500  10.589   7.911  0.3359  2.9420  1.4782
  797MOL0     H 5179   6.586  10.720   7.832 -0.6077  0.5851  0.2026
  797MOL0     H 5180   6.694  10.488   7.966  1.9907  2.0187  4.0286
  797MOL0     H 5181   6.753  10.651   7.974  0.9060 -0.1522 -1.1682
  797MOL0     H 5182   6.798  10.474   7.733  0.4441  0.5553  0.5149
  797MOL0     H 5183   6.841  10.642   7.731 -0.0359  0.4414  0.3225
  797MOL0     H 5184   6.966  10.422   7.892 -2.6625  0.5730  0.4682
  797MOL0     H 5185   7.004  10.592   7.927 -1.0529 -0.2561  0.5902
  797MOL0     H 5186   6.104  10.284   7.565  1.8131  1.0482 -0.4833
  797MOL0     H 5187   5.905  10.168   7.444 -1.5762  0.3473  0.7205
  797MOL0     H 5188   5.497  10.249   7.310 -2.6908 -0.9139  0.2362
  797MOL0     H 5189   5.296  10.141   7.259 -0.6494  1.2115 -0.3124
  797MOL0     H 5190   3.477   9.727   7.122 -0.2347 -0.0921  2.2917
  797MOL0     H 5191   3.253   9.611   7.164  1.5427  1.6864  0.6726
  797MOL0     H 5192   3.059   9.236   7.292  1.5672 -1.7810 -1.1524
  797MOL0     H 5193   2.841   9.140   7.336  0.0963  2.8241  1.1888
  797MOL0     H 5194   2.467   9.105   7.071 -2.0223  1.0164 -0.4459
  797MOL0     H 5195   2.551   9.270   7.112  3.0941 -1.3517 -0.2451
  797MOL0     H 5196   2.422   9.097   7.317  0.8223 -1.1655 -1.1321
  797MOL0     H 5197   2.486   9.266   7.321  0.7521  0.9213 -1.3426
  797MOL0     H 5198   2.286   9.333   7.185  0.9062  1.8441  1.3267
  797MOL0     H 5199   2.250   9.245   7.346 -0.3669 -3.9219  0.4632
  797MOL0     H 5200   2.216   9.105   7.066 -1.4305 -2.2604 -0.9907
  797MOL0     H 5201   2.233   9.027   7.217  1.2000 -0.7049 -2.1175
  797MOL0     H 5202   1.833   9.182   7.205 -0.2365 -1.7525  1.9654
  797MOL0     H 5203   2.700   9.237   6.951 -0.2950  2.5277  1.8025
  797MOL0     H 5204   2.914   9.342   6.900  3.4083  1.2400  0.9139
  798MOL0     O 5205   5.129   8.792   5.289  0.1702 -0.1634  0.4608
  798MOL0     C 5206   5.178   8.710   5.361  0.6347  0.1553 -0.0092
  798MOL0     O 5207   5.103   8.629   5.443  0.4514 -0.0596  0.1047
  798MOL0     C 5208   4.991   8.669   5.507 -0.8831 -0.0064 -0.9364
  798MOL0     C 5209   4.875   8.593   5.513  1.4217  0.0196  0.3208
  798MOL0     C 5210   4.766   8.622   5.594  0.2683 -0.7922  0.3830
  798MOL0     C 5211   4.759   8.748   5.662  0.2640 -0.0992  0.3797
  798MOL0     O 5212   4.644   8.794   5.728 -0.7273 -0.7627  0.3007
  798MOL0     C 5213   4.569   8.690   5.790 -0.1632  0.0475 -0.2148
  798MOL0     C 5214   4.469   8.753   5.882 -0.7339 -0.1450 -0.8304
  798MOL0     C 5215   4.354   8.828   5.802 -0.1293 -1.0202  0.0054
  798MOL0     C 5216   4.264   8.893   5.900 -0.4281  0.3603  0.5276
  798MOL0     C 5217   4.134   8.946   5.834 -0.2230  0.4754 -0.1905
  798MOL0     C 5218   4.027   8.962   5.949  0.5916 -1.3534 -0.1055
  798MOL0     C 5219   3.914   9.046   5.898 -0.0950 -0.7664 -0.3837
  798MOL0     C 5220   3.850   8.997   5.764  0.5956 -0.0903 -0.0258
  798MOL0     N 5221   3.752   9.093   5.710  0.0984  0.0155  0.0784
  798MOL0     C 5222   3.619   9.089   5.759 -1.2089 -0.3191  0.0235
  798MOL0     C 5223   3.572   9.217   5.723  0.4006 -0.2564  0.1047
  798MOL0     C 5224   3.439   9.274   5.745 -0.0784  0.2431  0.1238
  798MOL0     C 5225   3.333   9.222   5.651 -0.0456 -0.2969 -0.7781
  798MOL0     C 5226   3.200   9.301   5.676 -0.4333  0.3148 -0.3829
  798MOL0     C 5227   3.088   9.261   5.592 -0.5988 -0.5505  0.0058
  798MOL0     O 5228   3.059   9.122   5.612 -0.2031  0.0438 -0.2807
  798MOL0     C 5229   2.934   9.077   5.568  0.1645 -0.2151  0.5307
  798MOL0     C 5230   2.830   9.159   5.524 -0.2371  0.4190 -0.3544
  798MOL0     C 5231   2.706   9.106   5.491 -0.1412 -0.2073  0.1757
  798MOL0     C 5232   2.681   8.976   5.490  0.3161 -0.2098 -0.3925
  798MOL0     C 5233   2.545   8.925   5.480 -0.1623  0.1027 -0.2694
  798MOL0     O 5234   2.524   8.796   5.521 -0.1176 -0.0938  0.0110
  798MOL0     C 5235   2.399   8.733   5.510  0.2486 -0.1158 -0.8165
  798MOL0     C 5236   2.309   8.739   5.398 -0.4220 -0.6242  0.6610
  798MOL0     C 5237   2.186   8.675   5.395 -0.3931 -0.1242  0.5228
  798MOL0     C 5238   2.155   8.582   5.502 -0.0904 -0.4988  0.3400
  798MOL0     O 5239   2.030   8.527   5.512  0.5441  0.1984 -0.4146
  798MOL0     C 5240   1.922   8.628   5.523 -0.8687  0.5323  0.2772
  798MOL0     C 5241   1.871   8.667   5.658 -0.5757  0.3175 -0.1529
  798MOL0     C 5242   1.830   8.540   5.734  1.4287  0.3599  0.2056
  798MOL0     C 5243   1.827   8.547   5.884 -0.0595 -0.2468 -0.5540
  798MOL0     C 5244   1.801   8.410   5.942 -0.4095 -0.0920 -0.1129
  798MOL0     C 5245   1.803   8.427   6.096  0.8885 -0.0913  0.1182
  798MOL0     C 5246   1.783   8.290   6.157 -0.1186  0.2907  0.2253
  798MOL0     C 5247   1.637   8.242   6.168  0.2856  0.5525  1.4006
  798MOL0    Cl 5248   1.523   8.354   6.245 -0.0005 -0.2666 -0.1213
  798MOL0     C 5249   2.241   8.584   5.614 -0.3791 -0.4687  0.0492
  798MOL0     C 5250   2.361   8.646   5.616  1.0640 -0.1517 -0.7766
  798MOL0     O 5251   2.452   8.995   5.442 -0.7863 -0.2124 -0.6550
  798MOL0     C 5252   2.785   8.889   5.515 -0.6118  0.4151 -0.2958
  798MOL0     C 5253   2.906   8.943   5.570  0.1248  0.0959  0.1809
  798MOL0     N 5254   3.666   9.279   5.642  0.3099 -0.4664  0.0676
  798MOL0     N 5255   3.773   9.215   5.647  0.1218  0.5182  0.2979
  798MOL0     C 5256   4.867   8.838   5.645 -0.7029 -0.2766 -0.1956
  798MOL0     C 5257   4.985   8.789   5.573  0.2267 -0.7081  0.5322
  798MOL0     C 5258   5.328   8.678   5.351 -0.8154  1.1802 -1.0329
  798MOL0     C 5259   5.414   8.738   5.251  0.3902 -0.6742 -0.2553
  798MOL0     C 5260   5.556   8.713   5.251 -0.6187  0.3040  0.2751
  798MOL0     C 5261   5.607   8.639   5.361  0.3451 -0.0573 -0.3587
  798MOL0     O 5262   5.742   8.631   5.376 -0.0018 -0.3328 -0.2878
  798MOL0     C 5263   5.818   8.599   5.261 -0.6160 -0.2679 -0.5224
  798MOL0     C 5264   5.922   8.498   5.310 -0.1058  0.2300 -0.8187
  798MOL0     C 5265   6.015   8.434   5.206 -0.4777  0.1514  0.5923
  798MOL0     C 5266   5.943   8.346   5.109 -0.5475 -1.3025  0.1488
  798MOL0     C 5267   6.048   8.259   5.049 -0.2156 -0.7323  0.2367
  798MOL0     C 5268   6.129   8.174   5.017 -0.8451 -0.6171  0.2856
  798MOL0     C 5269   5.518   8.576   5.460 -0.2721  0.2285  0.9915
  798MOL0     C 5270   5.384   8.588   5.443  0.2338 -0.4833  0.0878
  798MOL0     H 5271   4.878   8.499   5.460  4.1353  0.1206  0.1779
  798MOL0     H 5272   4.684   8.551   5.596  1.0004 -1.6670 -0.0731
  798MOL0     H 5273   4.621   8.618   5.855 -0.9020  1.0599  1.5868
  798MOL0     H 5274   4.517   8.647   5.704 -0.6959  3.1580 -1.5441
  798MOL0     H 5275   4.527   8.822   5.944  0.4799 -0.4052 -1.6433
  798MOL0     H 5276   4.427   8.673   5.943 -1.5693  0.5864 -0.4252
  798MOL0     H 5277   4.297   8.759   5.740 -1.3427  0.1207 -0.1864
  798MOL0     H 5278   4.399   8.902   5.735  3.1619 -3.9900 -1.3458
  798MOL0     H 5279   4.228   8.815   5.967  1.0630  0.9296  2.0490
  798MOL0     H 5280   4.312   8.966   5.965  0.1128 -0.2891  0.8687
  798MOL0     H 5281   4.092   8.869   5.769 -1.4256  2.4452 -1.8650
  798MOL0     H 5282   4.149   9.031   5.767 -1.7846  1.6087  0.8420
  798MOL0     H 5283   4.070   9.026   6.026 -0.2005 -2.0468  0.9504
  798MOL0     H 5284   3.995   8.865   5.990 -3.2327 -2.1282 -4.1891
  798MOL0     H 5285   3.846   9.067   5.980 -0.9568  4.3000 -2.0495
  798MOL0     H 5286   3.953   9.148   5.884 -0.6186 -0.2285  1.7361
  798MOL0     H 5287   3.816   8.894   5.779  2.8480 -0.9273 -0.2900
  798MOL0     H 5288   3.922   8.993   5.682 -0.3218  1.7599 -0.9841
  798MOL0     H 5289   3.580   9.002   5.810  2.1512 -3.0358 -1.6909
  798MOL0     H 5290   3.442   9.382   5.729  0.7120  0.2225  0.0880
  798MOL0     H 5291   3.412   9.261   5.850 -0.2290 -0.8711 -0.0390
  798MOL0     H 5292   3.323   9.117   5.681  0.2053  0.4251  2.1455
  798MOL0     H 5293   3.363   9.230   5.546 -3.3749 -1.1573 -1.9001
  798MOL0     H 5294   3.183   9.301   5.784 -0.3770 -0.6642 -0.3643
  798MOL0     H 5295   3.203   9.409   5.658 -2.2419  0.9203  2.2983
  798MOL0     H 5296   3.123   9.262   5.489 -1.6176 -2.8347 -0.4335
  798MOL0     H 5297   3.004   9.330   5.604  0.3200  0.6532 -0.3202
  798MOL0     H 5298   2.834   9.267   5.511 -0.7903  0.8936  2.6772
  798MOL0     H 5299   2.626   9.173   5.460  0.7144  0.0547 -1.5836
  798MOL0     H 5300   2.329   8.803   5.313  0.3933 -1.1841  0.4273
  798MOL0     H 5301   2.123   8.701   5.311 -2.0602 -0.6682  1.5516
  798MOL0     H 5302   1.830   8.593   5.475 -1.0782  2.5199 -0.8779
  798MOL0     H 5303   1.945   8.717   5.464  1.8798 -0.4043 -0.2358
  798MOL0     H 5304   1.791   8.740   5.645  1.1850  2.2877 -0.4843
  798MOL0     H 5305   1.955   8.710   5.713  1.0229 -0.0291 -2.1899
  798MOL0     H 5306   1.897   8.460   5.702 -0.4001 -2.0204  1.9301
  798MOL0     H 5307   1.727   8.528   5.700  0.8696 -0.3286  2.0505
  798MOL0     H 5308   1.928   8.578   5.913 -0.9257  3.6643 -1.1867
  798MOL0     H 5309   1.751   8.619   5.915 -2.1007 -1.5761 -2.1833
  798MOL0     H 5310   1.876   8.338   5.909  1.4562  2.6742 -2.3196
  798MOL0     H 5311   1.710   8.359   5.909 -1.3321  0.5796  1.2878
  798MOL0     H 5312   1.726   8.500   6.125 -1.3500 -2.2210 -0.1874
  798MOL0     H 5313   1.900   8.470   6.122 -0.8803  2.3843  3.3399
  798MOL0     H 5314   1.832   8.211   6.098 -1.1445 -2.6768  3.0460
  798MOL0     H 5315   1.817   8.295   6.261 -1.4992  1.1286  0.6471
  798MOL0     H 5316   1.636   8.145   6.219 -0.0150 -1.9475 -2.9026
  798MOL0     H 5317   1.595   8.216   6.070  0.7938  2.3832  0.6601
  798MOL0     H 5318   2.218   8.520   5.699  2.3521  0.4955  1.6469
  798MOL0     H 5319   2.426   8.641   5.703  0.5313  3.4696 -0.0301
  798MOL0     H 5320   2.767   8.782   5.520  1.0494  0.1185  0.2423
  798MOL0     H 5321   2.980   8.866   5.591  0.6720  0.6386  0.2686
  798MOL0     H 5322   4.867   8.928   5.706 -0.8747  0.1842 -0.8682
  798MOL0     H 5323   5.050   8.876   5.568  1.1733 -1.3191  1.6918
  798MOL0     H 5324   5.368   8.813   5.188  1.8484 -0.2781 -0.9057
  798MOL0     H 5325   5.616   8.766   5.178 -1.7983 -0.4107 -1.2639
  798MOL0     H 5326   5.854   8.695   5.222 -1.2333 -0.1184 -0.7364
  798MOL0     H 5327   5.757   8.538   5.193 -2.1224  0.2426  0.3252
  798MOL0     H 5328   5.987   8.557   5.376  0.2838 -0.5339 -0.5024
  798MOL0     H 5329   5.878   8.426   5.380  1.0575  2.1319  2.0477
  798MOL0     H 5330   6.092   8.376   5.256  0.2019 -0.0825 -0.6966
  798MOL0     H 5331   6.068   8.512   5.151  2.3313 -2.4188 -0.6364
  798MOL0     H 5332   5.861   8.290   5.152  0.3654 -3.0024 -0.2261
  798MOL0     H 5333   5.890   8.401   5.031  0.0050 -0.2069  0.5249
  798MOL0     H 5334   6.193   8.094   4.984  1.9457  2.4111 -2.3550
  798MOL0     H 5335   5.561   8.516   5.539  1.5491  0.9839  0.6331
  798MOL0     H 5336   5.319   8.539   5.515  2.2690 -1.8889  1.0553
  799MOL0     O 5337   4.388   0.936   5.908  0.7909 -0.1880 -0.4041
  799MOL0     C 5338   4.307   1.006   5.849 -0.0298 -0.6668  0.6273
  799MOL0     O 5339   4.333   1.136   5.811 -0.4359 -0.6114 -0.4713
  799MOL0     C 5340   4.461   1.178   5.784 -0.0500  0.0799  0.1741
  799MOL0     C 5341   4.487   1.313   5.811  0.1145  0.1599  0.1409
  799MOL0     C 5342   4.618   1.359   5.788 -0.2354 -0.1215 -0.8026
  799MOL0     C 5343   4.720   1.282   5.735 -0.4296 -0.2111 -0.0943
  799MOL0     O 5344   4.850   1.323   5.728  0.0741 -0.2589 -0.1711
  799MOL0     C 5345   4.869   1.467   5.734  0.1526 -0.1106 -0.5090
  799MOL0     C 5346   5.010   1.501   5.701 -0.0540 -0.1776  0.5611
  799MOL0     C 5347   5.125   1.452   5.795 -0.0175 -0.0415 -0.4327
  799MOL0     C 5348   5.262   1.467   5.730  1.0799  0.3630 -0.4000
  799MOL0     C 5349   5.361   1.523   5.829  0.2247  0.6663  0.2556
  799MOL0     C 5350   5.348   1.679   5.841  0.1084  0.1004 -0.1484
  799MOL0     C 5351   5.447   1.761   5.763 -0.1888  0.4671 -0.5567
  799MOL0     C 5352   5.463   1.910   5.800  0.7059 -0.3079 -0.5949
  799MOL0     N 5353   5.345   2.001   5.790 -0.1613 -0.0989  0.6296
  799MOL0     C 5354   5.245   2.011   5.889  0.3920 -0.4375 -0.0901
  799MOL0     C 5355   5.164   2.111   5.848 -0.3005  0.4929  0.2487
  799MOL0     C 5356   5.040   2.164   5.927 -0.2774 -0.5590  0.1827
  799MOL0     C 5357   4.982   2.289   5.872  0.7656  0.2699 -0.5267
  799MOL0     C 5358   4.866   2.341   5.954 -0.2099 -0.6767 -0.2839
  799MOL0     C 5359   4.894   2.369   6.104 -0.0628 -0.8877 -0.7274
  799MOL0     O 5360   4.797   2.454   6.165 -0.5097 -0.3406  0.2716
  799MOL0     C 5361   4.665   2.412   6.166  1.0241  0.4957  0.0309
  799MOL0     C 5362   4.628   2.277   6.141 -0.1877  0.0109  0.5337
  799MOL0     C 5363   4.489   2.239   6.151 -0.1891  0.4249 -1.3398
  799MOL0     C 5364   4.391   2.342   6.173 -0.8087 -0.0302  0.1734
  799MOL0     C 5365   4.243   2.317   6.181  0.4531  0.1480  0.2085
  799MOL0     O 5366   4.147   2.410   6.223  0.5146 -0.3411 -0.0271
  799MOL0     C 5367   4.011   2.383   6.225 -0.0647 -0.1413 -0.7288
  799MOL0     C 5368   3.944   2.284   6.138  0.2109 -0.4653  0.8800
  799MOL0     C 5369   3.804   2.259   6.148 -0.1777  0.1963  0.4170
  799MOL0     C 5370   3.728   2.332   6.244  0.1059  0.2469  0.4808
  799MOL0     O 5371   3.590   2.323   6.229 -0.4465  0.2614 -0.0301
  799MOL0     C 5372   3.507   2.432   6.258  0.8308 -0.2814 -0.1626
  799MOL0     C 5373   3.361   2.413   6.216  0.0040 -0.0084 -0.0269
  799MOL0     C 5374   3.308   2.276   6.242  0.1324  0.6776 -0.1585
  799MOL0     C 5375   3.170   2.229   6.192  0.2070 -0.2815 -0.1715
  799MOL0     C 5376   3.061   2.337   6.207 -1.0994 -0.2944  1.0371
  799MOL0     C 5377   2.917   2.288   6.203 -0.0445 -0.7321 -0.4115
  799MOL0     C 5378   2.891   2.223   6.073  0.1838 -0.5127 -0.3117
  799MOL0     C 5379   2.743   2.195   6.049 -0.8054 -0.6187  0.1122
  799MOL0    Cl 5380   2.698   2.161   5.869 -0.0404 -0.3935  0.3079
  799MOL0     C 5381   3.788   2.423   6.334 -0.8004  0.4359 -0.2891
  799MOL0     C 5382   3.928   2.454   6.313 -1.0332 -0.1907  0.4562
  799MOL0     O 5383   4.217   2.209   6.137 -0.0369 -0.0138  0.0670
  799MOL0     C 5384   4.431   2.476   6.195  1.1004  1.3245  0.1148
  799MOL0     C 5385   4.571   2.507   6.196  0.5484 -0.7100 -0.2621
  799MOL0     N 5386   5.225   2.168   5.739  0.3220  1.0559  0.0825
  799MOL0     N 5387   5.319   2.102   5.700 -0.7697  0.4334 -0.6814
  799MOL0     C 5388   4.694   1.145   5.713 -0.4998 -0.8488  0.4522
  799MOL0     C 5389   4.568   1.093   5.747 -0.0893 -0.0655 -0.1924
  799MOL0     C 5390   4.184   0.949   5.801  0.3050  0.1792  0.3390
  799MOL0     C 5391   4.093   1.024   5.718 -0.1476 -0.4315  0.3258
  799MOL0     C 5392   3.964   0.975   5.684 -0.2725  0.0599 -0.0600
  799MOL0     C 5393   3.922   0.844   5.724 -0.0367 -0.0646 -0.0258
  799MOL0     O 5394   3.798   0.793   5.702 -0.5201  0.0919 -0.6650
  799MOL0     C 5395   3.722   0.848   5.594  0.5935  0.6340  0.3990
  799MOL0     C 5396   3.777   0.811   5.454 -0.4192  0.1949  0.1361
  799MOL0     C 5397   3.695   0.845   5.331  1.1540 -0.1941  0.7524
  799MOL0     C 5398   3.644   0.993   5.312 -0.1710  0.9318  0.2417
  799MOL0     C 5399   3.524   0.997   5.240  0.4960 -0.6736  0.5064
  799MOL0     C 5400   3.410   1.008   5.199 -0.2427 -0.7833  0.1783
  799MOL0     C 5401   4.013   0.780   5.805 -0.7390 -0.1386 -0.3703
  799MOL0     C 5402   4.141   0.826   5.837  0.0101  0.0247 -0.2512
  799MOL0     H 5403   4.413   1.386   5.843  0.1465  1.5776 -2.6836
  799MOL0     H 5404   4.640   1.458   5.827 -0.1721 -0.7616  0.8832
  799MOL0     H 5405   4.863   1.488   5.841  4.0687  2.0209 -0.4827
  799MOL0     H 5406   4.805   1.526   5.668  0.3403 -0.8351 -1.3527
  799MOL0     H 5407   5.024   1.610   5.699 -0.3510 -0.1401  0.4773
  799MOL0     H 5408   5.031   1.468   5.599 -1.5991  2.7179 -0.8364
  799MOL0     H 5409   5.114   1.347   5.822  2.8645 -0.0826  0.9883
  799MOL0     H 5410   5.116   1.512   5.886 -1.3274  0.3830 -0.8252
  799MOL0     H 5411   5.300   1.373   5.689  2.2655  1.0416 -0.9216
  799MOL0     H 5412   5.253   1.539   5.648 -1.1409  1.2509  0.5469
  799MOL0     H 5413   5.460   1.495   5.792 -1.2391 -1.3522 -2.5002
  799MOL0     H 5414   5.346   1.465   5.920  0.8734 -0.0621 -0.0802
  799MOL0     H 5415   5.354   1.713   5.945 -1.1189  0.8123 -0.2993
  799MOL0     H 5416   5.252   1.717   5.808  0.2605  0.7894  0.1819
  799MOL0     H 5417   5.548   1.723   5.784 -0.7130 -1.0533 -0.6546
  799MOL0     H 5418   5.425   1.755   5.656  0.0306  4.1630 -0.9259
  799MOL0     H 5419   5.532   1.954   5.727 -0.6631  1.6285 -0.8073
  799MOL0     H 5420   5.502   1.916   5.902 -3.0587 -3.9524  1.3441
  799MOL0     H 5421   5.226   1.938   5.968 -3.4902 -0.2114 -0.6126
  799MOL0     H 5422   5.080   2.183   6.027  2.4859 -0.6673 -0.8181
  799MOL0     H 5423   4.956   2.095   5.924 -1.8424  1.2516  0.2780
  799MOL0     H 5424   4.938   2.256   5.777 -0.9724  0.5119  0.1517
  799MOL0     H 5425   5.055   2.370   5.869  0.2873  0.8328  1.5715
  799MOL0     H 5426   4.814   2.427   5.911  0.5802  1.4616  2.6357
  799MOL0     H 5427   4.792   2.262   5.944 -0.7182 -0.2173 -0.1640
  799MOL0     H 5428   4.985   2.430   6.110 -1.3660  1.1274 -0.2697
  799MOL0     H 5429   4.909   2.276   6.160 -1.1058  0.9114  2.8533
  799MOL0     H 5430   4.701   2.198   6.127 -1.1739 -0.6324 -1.1488
  799MOL0     H 5431   4.456   2.136   6.145  0.1723  0.1820  0.3807
  799MOL0     H 5432   4.004   2.238   6.061  0.7776 -2.2575  2.3027
  799MOL0     H 5433   3.753   2.184   6.089  1.8604 -1.1479  0.2709
  799MOL0     H 5434   3.543   2.525   6.213 -1.9528  0.4809 -0.9729
  799MOL0     H 5435   3.504   2.441   6.367 -2.0972  1.5136 -0.2702
  799MOL0     H 5436   3.350   2.446   6.112 -0.8250 -0.6669 -0.1590
  799MOL0     H 5437   3.305   2.484   6.277 -1.6378 -2.5479  1.5947
  799MOL0     H 5438   3.300   2.272   6.351  2.0619  0.0279  0.0055
  799MOL0     H 5439   3.385   2.205   6.209  1.2347  1.2425  1.0856
  799MOL0     H 5440   3.168   2.195   6.088  1.8509 -2.4194  0.4173
  799MOL0     H 5441   3.144   2.153   6.267  1.2047 -0.2740  0.1980
  799MOL0     H 5442   3.072   2.418   6.134 -1.7290 -1.1616 -0.0541
  799MOL0     H 5443   3.075   2.398   6.296 -4.1579  2.0173  0.1045
  799MOL0     H 5444   2.851   2.375   6.209  0.1339 -0.5848 -0.5676
  799MOL0     H 5445   2.893   2.230   6.292 -0.0414  0.7149  0.5709
  799MOL0     H 5446   2.930   2.276   5.986 -0.3875  0.1378 -0.1868
  799MOL0     H 5447   2.948   2.129   6.072 -0.7283 -1.0885  0.2427
  799MOL0     H 5448   2.688   2.283   6.084  1.6527  1.6082 -1.2438
  799MOL0     H 5449   2.731   2.108   6.114  1.5601  0.3811  2.0640
  799MOL0     H 5450   3.737   2.478   6.412  0.4315 -0.1301  0.9494
  799MOL0     H 5451   3.974   2.537   6.367 -1.2578 -1.2985  2.4463
  799MOL0     H 5452   4.362   2.548   6.238 -0.2713 -0.5343  1.2103
  799MOL0     H 5453   4.603   2.605   6.232  0.7009 -0.7050 -0.4088
  799MOL0     H 5454   4.778   1.080   5.697 -0.3915 -1.5164  3.2162
  799MOL0     H 5455   4.549   0.986   5.745  0.9212 -0.2418 -0.7003
  799MOL0     H 5456   4.120   1.126   5.693 -0.5162 -0.5039 -0.4054
  799MOL0     H 5457   3.908   1.048   5.626 -0.4172 -0.5119 -0.6666
  799MOL0     H 5458   3.709   0.957   5.599  3.0969  0.9222  2.1997
  799MOL0     H 5459   3.621   0.808   5.612  0.9575 -1.1841 -1.1947
  799MOL0     H 5460   3.881   0.847   5.448  0.9011 -3.3795 -0.9771
  799MOL0     H 5461   3.796   0.704   5.459 -0.5679  0.1647  0.0534
  799MOL0     H 5462   3.605   0.786   5.353  0.4478 -1.0370 -3.5646
  799MOL0     H 5463   3.745   0.803   5.244  0.7588  0.1668  0.3458
  799MOL0     H 5464   3.630   1.049   5.405  0.2653 -0.1117  0.9603
  799MOL0     H 5465   3.722   1.041   5.253  0.6584 -0.2018  0.3727
  799MOL0     H 5466   3.308   1.015   5.167  0.6823 -0.9692 -3.1624
  799MOL0     H 5467   3.986   0.678   5.829  2.4675 -0.8086  0.9410
  799MOL0     H 5468   4.198   0.773   5.913 -0.3967  0.8898  0.6788
  800MOL0     O 5469   8.875  10.396   1.490 -0.0372 -0.3074  0.1634
  800MOL0     C 5470   8.903  10.456   1.589  0.3960  0.2384  0.0476
  800MOL0     O 5471   8.812  10.496   1.683  0.3234 -0.9964 -0.4355
  800MOL0     C 5472   8.683  10.468   1.668  0.1995  0.5451  0.2446
  800MOL0     C 5473   8.614  10.442   1.782  0.7685  0.3273  1.0270
  800MOL0     C 5474   8.470  10.417   1.773  0.0844 -0.5149  0.1590
  800MOL0     C 5475   8.401  10.435   1.654  0.4136  0.7740 -0.4912
  800MOL0     O 5476   8.266  10.411   1.657 -0.6884  0.0044 -1.0095
  800MOL0     C 5477   8.213  10.339   1.544 -0.6956 -0.3848 -0.4530
  800MOL0     C 5478   8.078  10.279   1.589  0.4480  0.3759  0.4606
  800MOL0     C 5479   7.979  10.390   1.590 -0.8599 -0.6124  0.7478
  800MOL0     C 5480   7.850  10.344   1.655  0.1389  0.6516 -0.0802
  800MOL0     C 5481   7.742  10.439   1.611  0.0718  0.3905 -0.2476
  800MOL0     C 5482   7.621  10.384   1.681 -0.6170 -0.0806  0.7841
  800MOL0     C 5483   7.500  10.471   1.649 -0.5041 -0.1048 -0.8367
  800MOL0     C 5484   7.370  10.425   1.712 -0.5320 -0.4378 -0.2031
  800MOL0     N 5485   7.257  10.499   1.654 -1.1092 -0.8460 -0.3779
  800MOL0     C 5486   7.136  10.458   1.608 -0.1164 -0.2705  0.6596
  800MOL0     C 5487   7.070  10.573   1.571  0.6850 -1.4443 -0.6519
  800MOL0     C 5488   6.929  10.602   1.509 -0.5897 -0.4754 -0.7556
  800MOL0     C 5489   6.827  10.568   1.611 -0.0421 -0.2713 -0.5563
  800MOL0     C 5490   6.692  10.595   1.575  0.3329 -0.0228  0.2909
  800MOL0     C 5491   6.598  10.591   1.692 -0.5879  0.3631  0.1414
  800MOL0     O 5492   6.478  10.656   1.651 -0.0319 -0.6031  0.4999
  800MOL0     C 5493   6.373  10.658   1.746 -0.2521 -0.1297  0.8301
  800MOL0     C 5494   6.349  10.563   1.851 -0.4751 -0.0205 -0.0175
  800MOL0     C 5495   6.238  10.575   1.939  0.3098 -0.3911  0.4038
  800MOL0     C 5496   6.145  10.679   1.921  0.7755 -0.1825 -0.5652
  800MOL0     C 5497   6.039  10.711   2.024  0.6535 -0.4299  0.1287
  800MOL0     O 5498   5.921  10.768   1.979  0.8433  0.4630 -0.5003
  800MOL0     C 5499   5.837  10.799   2.080  0.7583 -0.3340 -0.4724
  800MOL0     C 5500   5.714  10.728   2.106  0.0363 -0.4000  0.4962
  800MOL0     C 5501   5.622  10.763   2.205 -0.8186  1.0080  0.4544
  800MOL0     C 5502   5.653  10.874   2.286  0.2471  0.2514  0.5394
  800MOL0     O 5503   5.562  10.928   2.373  0.4281  0.6759 -0.4178
  800MOL0     C 5504   5.429  10.909   2.358  0.0225 -1.2175  0.4128
  800MOL0     C 5505   5.352  11.006   2.449 -0.1516  0.1507 -0.0067
  800MOL0     C 5506   5.204  10.940   2.468  0.5696  0.4835 -0.4668
  800MOL0     C 5507   5.102  11.048   2.446  0.1946 -0.3996  0.6557
  800MOL0     C 5508   4.960  10.997   2.481 -0.6847 -0.2987  0.1409
  800MOL0     C 5509   4.936  10.957   2.633 -0.1835 -0.6739  0.1852
  800MOL0     C 5510   4.794  10.909   2.653 -0.1129  0.5853 -0.0040
  800MOL0     C 5511   4.744  10.808   2.560  0.4274  0.0665  0.9855
  800MOL0    Cl 5512   4.675  10.875   2.408 -0.0798 -0.4811 -0.1222
  800MOL0     C 5513   5.772  10.947   2.264 -0.3264 -0.8431 -0.9527
  800MOL0     C 5514   5.865  10.907   2.165 -0.5741  0.2685 -0.8037
  800MOL0     O 5515   6.062  10.662   2.138 -0.4808  0.3552 -0.1031
  800MOL0     C 5516   6.162  10.762   1.813 -0.7624  0.0425  0.1379
  800MOL0     C 5517   6.277  10.755   1.729 -0.2459 -0.3631 -0.9968
  800MOL0     N 5518   7.151  10.688   1.599  0.6613 -0.4091 -0.6248
  800MOL0     N 5519   7.260  10.641   1.661  0.7929  0.1816 -0.0519
  800MOL0     C 5520   8.470  10.467   1.535 -0.4077  0.0540 -0.1647
  800MOL0     C 5521   8.610  10.493   1.544  0.5984 -0.2067 -1.1743
  800MOL0     C 5522   9.045  10.491   1.609 -0.7783 -0.0259 -0.1391
  800MOL0     C 5523   9.139  10.461   1.507  0.6781  0.8978 -0.4217
  800MOL0     C 5524   9.270  10.511   1.518  0.4197 -0.3493 -0.0992
  800MOL0     C 5525   9.307  10.586   1.622  0.2085  0.3515  0.1111
  800MOL0     O 5526   9.427  10.649   1.617 -0.3559 -0.2124 -0.0437
  800MOL0     C 5527   9.442  10.777   1.691  0.2629 -0.1806 -0.3149
  800MOL0     C 5528   9.593  10.820   1.702  0.6476 -0.3655 -0.1518
  800MOL0     C 5529   9.687  10.714   1.763 -0.3975 -0.6350  0.2142
  800MOL0     C 5530   9.834  10.742   1.739  0.0373 -0.6495 -0.7572
  800MOL0     C 5531   9.887  10.834   1.838  0.2539 -0.0642  0.3189
  800MOL0     C 5532   9.935  10.905   1.930  0.1521  0.1454  0.6271
  800MOL0     C 5533   9.216  10.618   1.723  0.1590 -0.3595 -1.4120
  800MOL0     C 5534   9.081  10.575   1.714 -0.7847 -0.1301 -0.8890
  800MOL0     H 5535   8.676  10.436   1.871  2.4093  0.3096 -0.0815
  800MOL0     H 5536   8.403  10.397   1.855 -2.2880 -1.4328 -1.8723
  800MOL0     H 5537   8.277  10.252   1.528 -1.0032 -0.4851 -1.1870
  800MOL0     H 5538   8.213  10.403   1.456 -0.9252 -0.3292 -0.4120
  800MOL0     H 5539   8.080  10.234   1.688 -0.2770  0.6210  0.5939
  800MOL0     H 5540   8.040  10.203   1.519  0.7819 -3.2374  3.8807
  800MOL0     H 5541   7.960  10.428   1.489 -0.2161  4.5020  2.2867
  800MOL0     H 5542   8.017  10.479   1.640 -0.2631  1.7776 -3.5132
  800MOL0     H 5543   7.831  10.242   1.622  0.9453  1.0636 -1.9129
  800MOL0     H 5544   7.865  10.342   1.764 -0.9953 -0.9954  0.0825
  800MOL0     H 5545   7.740  10.436   1.502 -0.1166 -2.6092 -0.2330
  800MOL0     H 5546   7.755  10.543   1.645 -1.2706  0.3165  0.5563
  800MOL0     H 5547   7.638  10.391   1.789 -0.9536 -0.3156  0.8529
  800MOL0     H 5548   7.606  10.280   1.651  0.3341 -0.3716  1.2819
  800MOL0     H 5549   7.518  10.577   1.665 -0.2454  0.2383 -3.0920
  800MOL0     H 5550   7.487  10.458   1.542 -0.3434  1.1392 -1.0194
  800MOL0     H 5551   7.371  10.433   1.821  1.2473 -0.5183 -0.1815
  800MOL0     H 5552   7.364  10.317   1.697 -0.2334 -0.2482 -1.8645
  800MOL0     H 5553   7.091  10.360   1.600 -1.7340  0.4737  0.0492
  800MOL0     H 5554   6.919  10.534   1.424  1.2802  1.4083 -2.6163
  800MOL0     H 5555   6.925  10.708   1.481 -0.3131  0.0635  1.1347
  800MOL0     H 5556   6.849  10.617   1.706 -0.7470 -0.2022 -0.4237
  800MOL0     H 5557   6.839  10.463   1.638 -3.1951  0.0364  2.6467
  800MOL0     H 5558   6.691  10.691   1.522  3.2445  0.1852  0.4540
  800MOL0     H 5559   6.658  10.516   1.507 -1.4919  0.9014  0.0503
  800MOL0     H 5560   6.637  10.645   1.778  0.4651 -1.4577  0.8720
  800MOL0     H 5561   6.590  10.484   1.716  3.7661 -0.2948 -0.5307
  800MOL0     H 5562   6.404  10.470   1.860 -5.5555 -3.5498 -1.4826
  800MOL0     H 5563   6.229  10.508   2.024 -1.8348 -0.2244  0.3681
  800MOL0     H 5564   5.693  10.645   2.039  0.8586  0.2861 -0.6415
  800MOL0     H 5565   5.522  10.722   2.218 -0.4150 -0.1179  0.1421
  800MOL0     H 5566   5.410  10.803   2.379  1.0255 -1.8107 -1.5076
  800MOL0     H 5567   5.410  10.931   2.252  0.1534  3.4384  1.1235
  800MOL0     H 5568   5.345  11.109   2.415 -2.6923 -0.0104 -0.1631
  800MOL0     H 5569   5.395  11.028   2.547 -2.7768  1.6603  0.9092
  800MOL0     H 5570   5.216  10.909   2.572  0.5848  1.7601 -0.0756
  800MOL0     H 5571   5.206  10.848   2.408  1.8403 -0.9843  1.7080
  800MOL0     H 5572   5.141  11.131   2.507  3.8474 -2.7582  1.8566
  800MOL0     H 5573   5.099  11.083   2.342  1.1035 -0.1077  0.7182
  800MOL0     H 5574   4.954  10.909   2.416 -1.5175  2.1372 -3.4473
  800MOL0     H 5575   4.887  11.073   2.452  1.3984  0.8274 -2.6595
  800MOL0     H 5576   4.950  11.037   2.706 -2.6108 -0.9269  1.0093
  800MOL0     H 5577   5.007  10.879   2.663  0.4114  0.2688  1.3264
  800MOL0     H 5578   4.782  10.867   2.753 -1.9364 -2.3107 -1.3132
  800MOL0     H 5579   4.735  10.999   2.635  1.8721  1.4507 -3.1551
  800MOL0     H 5580   4.667  10.757   2.618  0.9420 -3.1151 -0.8811
  800MOL0     H 5581   4.813  10.725   2.542 -0.1967 -0.5714  1.4783
  800MOL0     H 5582   5.780  11.042   2.316 -3.7666 -1.2146  0.5631
  800MOL0     H 5583   5.953  10.966   2.139  0.0023 -1.7542 -4.0779
  800MOL0     H 5584   6.085  10.833   1.782  1.2165  1.7548 -1.0950
  800MOL0     H 5585   6.299  10.836   1.660  2.9568 -2.0015 -2.0895
  800MOL0     H 5586   8.422  10.492   1.442  0.1733 -2.8899 -1.3687
  800MOL0     H 5587   8.667  10.522   1.457  0.8132 -2.0173 -1.6821
  800MOL0     H 5588   9.097  10.406   1.423  3.4049 -2.0003 -0.0896
  800MOL0     H 5589   9.334  10.508   1.431 -1.2458  2.4095 -1.5843
  800MOL0     H 5590   9.409  10.775   1.795  0.8498  3.1470  0.0417
  800MOL0     H 5591   9.379  10.854   1.646  0.9798  0.2552 -0.5968
  800MOL0     H 5592   9.625  10.836   1.599  0.2432 -0.3763 -0.2812
  800MOL0     H 5593   9.604  10.916   1.755  1.0587  0.4960 -1.7339
  800MOL0     H 5594   9.670  10.612   1.725  0.2939 -0.5212 -0.4239
  800MOL0     H 5595   9.672  10.704   1.871 -0.9778 -0.9648  0.1114
  800MOL0     H 5596   9.875  10.641   1.752 -0.1110 -0.5179  1.0033
  800MOL0     H 5597   9.849  10.772   1.635  0.4321 -0.7110 -0.7225
  800MOL0     H 5598   9.976  10.966   2.008  0.6286 -1.1824  1.4579
  800MOL0     H 5599   9.231  10.688   1.805 -1.5693  0.1188 -1.4789
  800MOL0     H 5600   9.012  10.601   1.794 -2.1497 -0.5958 -1.8823
  801MOL0     O 5601   2.660  10.735   6.872 -0.1579  0.0684 -0.0490
  801MOL0     C 5602   2.711  10.709   6.973 -0.3579 -0.3361 -0.2775
  801MOL0     O 5603   2.649  10.654   7.077 -0.4205  0.4825 -0.2184
  801MOL0     C 5604   2.518  10.640   7.084 -0.9138  0.1289 -0.0896
  801MOL0     C 5605   2.439  10.756   7.087 -0.0718 -0.8194  1.3461
  801MOL0     C 5606   2.298  10.757   7.055 -1.0156 -0.1116  0.4074
  801MOL0     C 5607   2.241  10.622   7.022 -0.2264 -0.3570  1.2780
  801MOL0     O 5608   2.115  10.601   6.965  0.1321  0.1887  0.2217
  801MOL0     C 5609   2.086  10.683   6.858  0.5170 -0.3795 -0.1061
  801MOL0     C 5610   1.975  10.640   6.766 -0.1892  0.7278 -0.1414
  801MOL0     C 5611   2.004  10.507   6.691 -0.8172 -0.4763 -0.3698
  801MOL0     C 5612   1.912  10.484   6.572  0.1063  0.3219  0.5863
  801MOL0     C 5613   1.923  10.345   6.503  0.0002 -0.2896  0.5385
  801MOL0     C 5614   1.851  10.336   6.370  0.8794  0.6509 -0.1092
  801MOL0     C 5615   1.703  10.296   6.375 -0.1914 -0.1873 -0.3446
  801MOL0     C 5616   1.666  10.153   6.409 -0.1216 -0.5956  0.0169
  801MOL0     N 5617   1.524  10.130   6.371  0.2050 -0.5421  0.7404
  801MOL0     C 5618   1.426  10.112   6.464 -0.3897  0.8563 -0.2880
  801MOL0     C 5619   1.312  10.068   6.396  0.4977 -0.5509 -0.6170
  801MOL0     C 5620   1.172  10.042   6.449 -0.3197 -0.1638  1.1562
  801MOL0     C 5621   1.165  10.016   6.594  0.5337  0.1680  0.2596
  801MOL0     C 5622   1.230   9.881   6.633  0.0384 -0.6677  0.2169
  801MOL0     C 5623   1.221   9.860   6.788  0.1488  0.1261 -0.4450
  801MOL0     O 5624   1.273   9.730   6.807  0.1124  0.0015 -0.9706
  801MOL0     C 5625   1.188   9.624   6.811  0.1928  0.0882  0.0652
  801MOL0     C 5626   1.193   9.529   6.713  0.2881 -0.7537  0.0692
  801MOL0     C 5627   1.091   9.432   6.697 -0.0545  0.1461 -0.3080
  801MOL0     C 5628   0.977   9.440   6.778  0.2636 -0.2099  0.8135
  801MOL0     C 5629   0.858   9.369   6.733 -0.0811  1.1976  0.9367
  801MOL0     O 5630   0.868   9.276   6.626  0.3687 -0.8316 -0.3458
  801MOL0     C 5631   0.754   9.192   6.617  0.6887 -0.1564  0.2789
  801MOL0     C 5632   0.717   9.092   6.707 -0.3770 -0.3882 -0.8996
  801MOL0     C 5633   0.611   9.003   6.679  0.3628  0.3721  0.1164
  801MOL0     C 5634   0.562   9.007   6.544 -0.1547  0.2450  0.2234
  801MOL0     O 5635   0.464   8.919   6.526 -0.0185  1.0350 -0.1895
  801MOL0     C 5636   0.382   8.921   6.413  1.2457 -0.0760  0.9314
  801MOL0     C 5637   0.310   8.787   6.410  0.2658 -0.3656 -0.5280
  801MOL0     C 5638   0.213   8.779   6.291  0.0146 -0.3243 -0.7396
  801MOL0     C 5639   0.128   8.662   6.290  0.1868  0.3245 -0.6592
  801MOL0     C 5640   0.208   8.538   6.237  0.2286  0.6531 -1.0916
  801MOL0     C 5641   0.146   8.396   6.264  0.9865  0.6998 -0.7679
  801MOL0     C 5642   0.014   8.384   6.194  0.4022  0.8623  0.6118
  801MOL0     C 5643  -0.100   8.374   6.301 -0.3052  0.0300  0.0482
  801MOL0    Cl 5644  -0.250   8.314   6.226  0.1088 -0.4113  0.1021
  801MOL0     C 5645   0.600   9.101   6.455 -0.3273 -0.0886  0.4728
  801MOL0     C 5646   0.688   9.196   6.495  0.1915 -0.2335 -0.0719
  801MOL0     O 5647   0.747   9.394   6.785 -0.1699  0.3927 -0.3163
  801MOL0     C 5648   0.964   9.532   6.879 -0.6790  0.7749  0.8733
  801MOL0     C 5649   1.080   9.628   6.895  0.6133 -0.0922  0.2751
  801MOL0     N 5650   1.352  10.041   6.272  0.0868  0.1539 -0.1695
  801MOL0     N 5651   1.473  10.071   6.255 -0.9437  0.2148  0.3152
  801MOL0     C 5652   2.319  10.512   7.030  0.1355 -0.0005  0.8005
  801MOL0     C 5653   2.461  10.517   7.057 -0.0100  0.0157 -1.2385
  801MOL0     C 5654   2.840  10.766   7.009 -0.6164 -0.2080  1.1741
  801MOL0     C 5655   2.891  10.882   6.931  0.1427  0.2956  0.5930
  801MOL0     C 5656   3.018  10.924   6.944  0.0281 -0.4505 -0.0898
  801MOL0     C 5657   3.110  10.858   7.029  0.5223  0.3454 -0.3656
  801MOL0     O 5658   3.241  10.888   7.037  0.2737 -0.2393 -0.3137
  801MOL0     C 5659   3.291  11.009   6.973 -0.5106 -0.4802 -0.7496
  801MOL0     C 5660   3.442  11.031   7.013  0.4399 -0.0142  0.5452
  801MOL0     C 5661   3.514  10.900   6.960  0.4240  0.2418 -0.3959
  801MOL0     C 5662   3.657  10.909   7.010  0.4994 -0.2730 -0.4578
  801MOL0     C 5663   3.725  10.796   6.964 -0.4867  0.1547  0.6809
  801MOL0     C 5664   3.769  10.712   6.893  0.2573  0.1239  0.5262
  801MOL0     C 5665   3.062  10.752   7.106 -0.3568  0.4751 -0.0909
  801MOL0     C 5666   2.927  10.717   7.099  0.6439  0.3925 -0.3853
  801MOL0     H 5667   2.501  10.845   7.080 -0.3954 -0.7155 -0.7247
  801MOL0     H 5668   2.238  10.847   7.066 -1.0417 -0.0773  0.0247
  801MOL0     H 5669   2.178  10.702   6.803  0.8729 -1.8605 -0.0731
  801MOL0     H 5670   2.055  10.779   6.900 -2.4632 -1.4696  0.4651
  801MOL0     H 5671   1.959  10.715   6.688 -2.4531  0.0962 -0.3634
  801MOL0     H 5672   1.878  10.639   6.817  0.4271 -0.1090  1.0643
  801MOL0     H 5673   1.984  10.431   6.768 -0.2517  1.0337  1.3440
  801MOL0     H 5674   2.111  10.499   6.672 -0.3926 -2.0204  2.1795
  801MOL0     H 5675   1.806  10.509   6.569  0.4542  1.8264 -2.8169
  801MOL0     H 5676   1.964  10.548   6.501  1.4854 -1.5162 -0.1528
  801MOL0     H 5677   1.885  10.267   6.571  2.0768 -1.2937  0.6387
  801MOL0     H 5678   2.030  10.329   6.486 -0.0177 -2.3975  1.9878
  801MOL0     H 5679   1.903  10.257   6.315 -3.0632 -3.1876  1.0976
  801MOL0     H 5680   1.853  10.431   6.317  0.9778  0.0679 -1.1915
  801MOL0     H 5681   1.671  10.362   6.457  1.4882 -0.1941  0.3568
  801MOL0     H 5682   1.655  10.322   6.281 -0.7200 -1.2816 -0.3972
  801MOL0     H 5683   1.684  10.139   6.516 -2.0191 -0.2645  0.4174
  801MOL0     H 5684   1.731  10.089   6.348 -0.1924  0.3011 -1.0498
  801MOL0     H 5685   1.433  10.123   6.572 -1.0823  2.0474 -0.3491
  801MOL0     H 5686   1.114   9.966   6.396 -0.8412  2.4994 -2.4498
  801MOL0     H 5687   1.119  10.136   6.436 -1.3953 -0.9565 -0.4428
  801MOL0     H 5688   1.057  10.014   6.612  0.6067 -2.3842  0.7531
  801MOL0     H 5689   1.220  10.096   6.645  2.3539 -0.9553  0.1368
  801MOL0     H 5690   1.185   9.799   6.578 -6.6722  3.4497 -1.5965
  801MOL0     H 5691   1.336   9.881   6.606  0.3743 -1.0900  1.4638
  801MOL0     H 5692   1.125   9.875   6.839 -0.6550 -2.1790 -1.1225
  801MOL0     H 5693   1.295   9.925   6.835  0.4690 -1.7043  1.7583
  801MOL0     H 5694   1.276   9.536   6.644  0.8997 -2.3440  0.5832
  801MOL0     H 5695   1.095   9.356   6.620 -0.6335 -0.3140  0.0994
  801MOL0     H 5696   0.779   9.084   6.796  0.0715 -2.7866 -1.3618
  801MOL0     H 5697   0.569   8.931   6.748  0.0185 -0.5398 -0.9973
  801MOL0     H 5698   0.444   8.918   6.323  0.2293  0.8511  0.1699
  801MOL0     H 5699   0.308   9.001   6.413 -0.2633 -1.4328  0.8356
  801MOL0     H 5700   0.255   8.773   6.503 -0.3373  1.0267 -0.6501
  801MOL0     H 5701   0.389   8.712   6.406  0.8102  0.0731  1.2281
  801MOL0     H 5702   0.267   8.801   6.199  3.5134  0.5668  1.3563
  801MOL0     H 5703   0.138   8.859   6.297 -2.3266 -2.2355 -2.4852
  801MOL0     H 5704   0.089   8.656   6.392  0.1397 -0.3876 -0.7130
  801MOL0     H 5705   0.053   8.693   6.217  1.9255  0.5739 -2.4203
  801MOL0     H 5706   0.306   8.539   6.287 -1.0306  3.6242  1.6656
  801MOL0     H 5707   0.230   8.548   6.130 -0.4251  0.6996 -1.2222
  801MOL0     H 5708   0.136   8.379   6.372  1.4037 -3.6826 -1.2153
  801MOL0     H 5709   0.213   8.321   6.222 -1.3671 -0.6114 -2.4096
  801MOL0     H 5710   0.007   8.481   6.144  1.4529  1.1844  1.0585
  801MOL0     H 5711   0.008   8.299   6.125 -0.7802  3.5294 -2.8389
  801MOL0     H 5712  -0.130   8.469   6.344 -0.1625  1.2633 -2.3725
  801MOL0     H 5713  -0.065   8.306   6.380 -0.1491  0.5114  0.3937
  801MOL0     H 5714   0.544   9.109   6.362  1.0677 -0.4827 -0.4211
  801MOL0     H 5715   0.708   9.278   6.427  0.8184 -0.1971  0.1397
  801MOL0     H 5716   0.885   9.530   6.953  1.2905 -0.1535  3.1090
  801MOL0     H 5717   1.053   9.697   6.975 -2.6292  1.8470 -2.2130
  801MOL0     H 5718   2.269  10.419   7.004 -1.3479  1.7736 -3.6044
  801MOL0     H 5719   2.527  10.431   7.059  2.2536  1.6703  0.5242
  801MOL0     H 5720   2.830  10.938   6.861  0.4774 -1.0757 -0.8467
  801MOL0     H 5721   3.061  11.012   6.896  3.1295 -1.5402  0.4530
  801MOL0     H 5722   3.232  11.096   7.003  1.2945  1.3169 -2.1438
  801MOL0     H 5723   3.276  11.011   6.864 -3.6733  1.5000 -0.3928
  801MOL0     H 5724   3.473  11.122   6.962 -0.3773  0.9966  1.7765
  801MOL0     H 5725   3.459  11.032   7.121 -0.5867  0.9379  0.7194
  801MOL0     H 5726   3.503  10.900   6.851 -0.0492 -4.6723 -0.5728
  801MOL0     H 5727   3.466  10.809   6.997  0.6306 -0.1289 -1.0208
  801MOL0     H 5728   3.699  11.003   6.974 -0.9278  1.1612  1.4107
  801MOL0     H 5729   3.667  10.904   7.119 -2.7384 -5.1548 -0.0279
  801MOL0     H 5730   3.795  10.629   6.831 -1.3801 -2.8481  3.4680
  801MOL0     H 5731   3.134  10.701   7.168 -2.6862 -2.9955  0.0273
  801MOL0     H 5732   2.905  10.644   7.177  1.2759  3.4716  2.9146
  802MOL0     O 5733   8.740   4.254   2.418  0.0772 -0.6437 -0.0750
  802MOL0     C 5734   8.840   4.213   2.466  0.3662  0.1732 -0.3363
  802MOL0     O 5735   8.881   4.237   2.590 -1.0415  0.2004  0.1675
  802MOL0     C 5736   8.823   4.330   2.672 -0.4825  0.1439 -0.3044
  802MOL0     C 5737   8.775   4.456   2.634  0.4213 -0.1326  1.1034
  802MOL0     C 5738   8.724   4.543   2.732 -0.7053  0.2838  0.5008
  802MOL0     C 5739   8.709   4.507   2.867 -0.2450  0.1885  0.7950
  802MOL0     O 5740   8.649   4.594   2.954  0.2762  0.0379  0.3019
  802MOL0     C 5741   8.518   4.564   2.991  0.0552 -0.4597 -0.5377
  802MOL0     C 5742   8.489   4.664   3.106  0.6763  0.4009  0.5636
  802MOL0     C 5743   8.361   4.642   3.182  0.2174 -0.4015 -0.2794
  802MOL0     C 5744   8.352   4.746   3.287  0.6312  0.1923  0.2037
  802MOL0     C 5745   8.213   4.772   3.331 -0.2754  0.2190 -0.1604
  802MOL0     C 5746   8.212   4.889   3.434  0.2194 -1.0568 -0.0550
  802MOL0     C 5747   8.245   5.025   3.388 -0.0505 -0.0983 -0.2173
  802MOL0     C 5748   8.145   5.090   3.298  1.2569  0.6333 -0.1378
  802MOL0     N 5749   8.149   5.038   3.158 -0.3894 -0.3096  0.7301
  802MOL0     C 5750   8.267   5.018   3.089  0.8033  0.3985 -0.5745
  802MOL0     C 5751   8.225   4.965   2.968  0.0611  0.7594  1.3518
  802MOL0     C 5752   8.311   4.941   2.846 -0.7329 -0.0115  0.6445
  802MOL0     C 5753   8.287   5.042   2.738 -0.1083  0.1181 -0.6182
  802MOL0     C 5754   8.369   5.025   2.613 -0.6886  0.5046  0.1914
  802MOL0     C 5755   8.396   5.161   2.550 -0.1112 -0.1457  0.8346
  802MOL0     O 5756   8.278   5.246   2.523 -0.1136  0.3868  0.4880
  802MOL0     C 5757   8.288   5.375   2.488 -0.5519 -0.2698 -0.0539
  802MOL0     C 5758   8.176   5.451   2.482  0.1851 -0.3941 -0.9643
  802MOL0     C 5759   8.173   5.582   2.450  0.0421  0.0550 -0.2885
  802MOL0     C 5760   8.290   5.650   2.414  0.4357  1.0578  0.0696
  802MOL0     C 5761   8.284   5.801   2.374  0.2936  0.0311 -0.0706
  802MOL0     O 5762   8.172   5.870   2.376  0.5218  0.0610 -0.2714
  802MOL0     C 5763   8.171   6.006   2.345  0.7257 -0.1094 -0.7434
  802MOL0     C 5764   8.196   6.109   2.440  0.1828  1.0720  0.3277
  802MOL0     C 5765   8.204   6.246   2.401 -0.1716 -0.4299  0.0734
  802MOL0     C 5766   8.198   6.281   2.266  0.7329 -0.5236  0.0230
  802MOL0     O 5767   8.207   6.417   2.234 -0.7248 -0.6091  0.0595
  802MOL0     C 5768   8.194   6.459   2.094 -0.8306  0.1348  0.4109
  802MOL0     C 5769   8.054   6.459   2.065  0.0207 -0.3320  0.2793
  802MOL0     C 5770   8.018   6.541   1.934  0.5235 -0.1602  0.0888
  802MOL0     C 5771   7.931   6.663   1.969  0.0841  0.1225 -0.7641
  802MOL0     C 5772   7.790   6.630   1.999 -0.6545 -0.7006 -0.3053
  802MOL0     C 5773   7.731   6.751   2.068  0.4877  0.4890  0.0825
  802MOL0     C 5774   7.587   6.727   2.096 -0.0692  0.0270 -0.2869
  802MOL0     C 5775   7.529   6.842   2.191 -0.8107 -0.0843  0.2475
  802MOL0    Cl 5776   7.525   6.790   2.361 -0.3046 -0.0713  0.1121
  802MOL0     C 5777   8.176   6.176   2.171 -0.3683  0.1761  0.0988
  802MOL0     C 5778   8.164   6.039   2.210  0.1643  0.3972 -0.5504
  802MOL0     O 5779   8.390   5.852   2.344 -0.2186  1.2055 -0.4493
  802MOL0     C 5780   8.410   5.573   2.406  0.5009  0.9508 -1.1683
  802MOL0     C 5781   8.405   5.430   2.433  0.4114 -1.3754  0.7415
  802MOL0     N 5782   8.089   4.949   2.970  0.4204  0.5404 -0.2098
  802MOL0     N 5783   8.046   4.993   3.084 -0.2502 -0.0282 -0.3901
  802MOL0     C 5784   8.760   4.383   2.909 -0.9402  0.5953  0.1622
  802MOL0     C 5785   8.830   4.300   2.812  0.8876 -0.0676  0.1165
  802MOL0     C 5786   8.923   4.135   2.373  0.1536  0.9933 -0.1258
  802MOL0     C 5787   8.861   4.082   2.254 -0.6076  0.8067 -0.6901
  802MOL0     C 5788   8.927   4.007   2.161 -0.0095 -0.7533  0.0743
  802MOL0     C 5789   9.063   3.987   2.166 -0.4703  0.4715 -0.9765
  802MOL0     O 5790   9.125   3.917   2.067  0.5377  0.0896  0.0295
  802MOL0     C 5791   9.225   4.002   2.004 -0.1992 -0.5517 -0.2641
  802MOL0     C 5792   9.307   3.923   1.892 -0.0356  0.2220 -0.7987
  802MOL0     C 5793   9.414   3.826   1.946 -0.2502 -0.4197  0.3201
  802MOL0     C 5794   9.475   3.754   1.829 -0.1404 -0.8680 -0.3312
  802MOL0     C 5795   9.550   3.633   1.866  0.5944 -0.1987  0.0518
  802MOL0     C 5796   9.608   3.538   1.910 -1.1538  0.8712  0.1274
  802MOL0     C 5797   9.132   4.038   2.276 -0.3510  0.3160 -0.4318
  802MOL0     C 5798   9.067   4.109   2.374 -0.1375  1.0557 -0.0254
  802MOL0     H 5799   8.778   4.485   2.530  2.2250 -5.0947 -0.5615
  802MOL0     H 5800   8.673   4.634   2.704 -0.4333  0.5014  0.7111
  802MOL0     H 5801   8.497   4.459   3.014 -1.5054  0.1231  0.8901
  802MOL0     H 5802   8.438   4.578   2.917  0.9486  1.3327 -1.2181
  802MOL0     H 5803   8.495   4.765   3.063  1.7364 -0.0272 -0.3252
  802MOL0     H 5804   8.571   4.639   3.173 -0.1698 -5.5619 -0.0729
  802MOL0     H 5805   8.367   4.545   3.233  2.4666 -1.2075 -1.9135
  802MOL0     H 5806   8.273   4.651   3.118 -0.5765 -0.5069  0.7767
  802MOL0     H 5807   8.420   4.720   3.369  0.4887  0.2806  0.3516
  802MOL0     H 5808   8.395   4.837   3.244 -0.1613  1.4884  2.0042
  802MOL0     H 5809   8.166   4.693   3.389 -1.9474 -0.4783 -2.3427
  802MOL0     H 5810   8.150   4.792   3.244  1.4091 -1.6510 -1.9153
  802MOL0     H 5811   8.278   4.863   3.518  1.1906  1.2605 -0.0286
  802MOL0     H 5812   8.109   4.890   3.472 -0.3219  1.3736 -1.3615
  802MOL0     H 5813   8.260   5.086   3.477  0.5507  1.1616 -1.1451
  802MOL0     H 5814   8.345   5.023   3.341  0.7170 -0.1752  1.3729
  802MOL0     H 5815   8.169   5.196   3.304 -0.0923  0.9204  0.5370
  802MOL0     H 5816   8.045   5.076   3.340  1.3665 -0.2315 -0.1358
  802MOL0     H 5817   8.370   5.030   3.120  0.3806 -0.2808  1.1873
  802MOL0     H 5818   8.305   4.848   2.789 -0.0838  0.6338 -0.5095
  802MOL0     H 5819   8.414   4.939   2.883 -1.2387 -1.4691  2.0857
  802MOL0     H 5820   8.302   5.141   2.782 -0.5487 -0.6581  1.3965
  802MOL0     H 5821   8.180   5.030   2.717 -0.9340  0.7951  2.6003
  802MOL0     H 5822   8.464   4.974   2.635 -1.0076 -0.2368 -0.1218
  802MOL0     H 5823   8.312   4.953   2.554  0.9489 -1.8404  1.3352
  802MOL0     H 5824   8.454   5.152   2.458  0.2168  1.3826  0.8595
  802MOL0     H 5825   8.460   5.224   2.613  0.4737  0.5235 -0.3820
  802MOL0     H 5826   8.083   5.398   2.500  1.0546 -1.7464 -0.2727
  802MOL0     H 5827   8.084   5.644   2.451 -0.6727 -0.8216 -2.7019
  802MOL0     H 5828   8.199   6.087   2.547 -1.1721 -0.5070  0.0839
  802MOL0     H 5829   8.232   6.319   2.476  1.5986 -1.5788  0.5888
  802MOL0     H 5830   8.251   6.396   2.025  0.6211  1.9943 -0.1936
  802MOL0     H 5831   8.225   6.564   2.085 -0.9340  0.2147  0.9752
  802MOL0     H 5832   7.999   6.495   2.152  0.1416  2.4677 -0.6948
  802MOL0     H 5833   8.025   6.356   2.044 -0.2718  0.0275 -1.2216
  802MOL0     H 5834   7.962   6.481   1.862 -1.7872  1.4152  0.4351
  802MOL0     H 5835   8.112   6.576   1.889 -0.2181 -1.0558 -2.3031
  802MOL0     H 5836   7.975   6.719   2.052  1.7428 -0.4289 -1.2199
  802MOL0     H 5837   7.938   6.724   1.879  1.3233  1.5855  0.2807
  802MOL0     H 5838   7.774   6.545   2.066  1.1237 -0.3444  0.6344
  802MOL0     H 5839   7.736   6.613   1.906 -0.7443  1.4327 -0.6973
  802MOL0     H 5840   7.736   6.836   2.000  0.9313  1.4535  1.3024
  802MOL0     H 5841   7.789   6.763   2.160  2.4547 -3.5301 -0.3620
  802MOL0     H 5842   7.530   6.738   2.003 -0.2369  3.3421  0.0939
  802MOL0     H 5843   7.569   6.625   2.132 -2.6850  0.0633 -1.2496
  802MOL0     H 5844   7.424   6.864   2.168 -0.2693 -0.2044 -2.6690
  802MOL0     H 5845   7.577   6.937   2.165 -2.8523  0.7829 -0.5661
  802MOL0     H 5846   8.175   6.194   2.064 -0.2744  0.5326  0.1569
  802MOL0     H 5847   8.158   5.959   2.138  0.7003 -1.2687  1.1794
  802MOL0     H 5848   8.503   5.618   2.371  0.5851  3.0107  1.3568
  802MOL0     H 5849   8.488   5.369   2.397 -0.0001 -0.4447 -2.0047
  802MOL0     H 5850   8.761   4.359   3.014  0.9706 -0.8035 -0.1144
  802MOL0     H 5851   8.866   4.208   2.856 -4.6183 -2.6021  0.1030
  802MOL0     H 5852   8.755   4.098   2.240 -0.8976  0.7350  1.1524
  802MOL0     H 5853   8.871   3.960   2.080  0.4914 -2.9960  0.9673
  802MOL0     H 5854   9.304   4.033   2.073  0.5514 -4.7749  1.1027
  802MOL0     H 5855   9.182   4.097   1.973  1.0380  0.3997  0.8308
  802MOL0     H 5856   9.238   3.862   1.833 -0.0159 -0.6787  0.0815
  802MOL0     H 5857   9.354   4.000   1.831  1.5131  1.6253  1.9576
  802MOL0     H 5858   9.371   3.745   2.005  0.4128 -1.4454 -0.5630
  802MOL0     H 5859   9.496   3.872   2.002 -1.6533  1.6839  0.7861
  802MOL0     H 5860   9.399   3.719   1.759 -0.1671 -1.3914 -0.0506
  802MOL0     H 5861   9.541   3.819   1.771 -0.2177 -0.9404 -0.5001
  802MOL0     H 5862   9.684   3.474   1.949  1.1130  1.5003 -2.8889
  802MOL0     H 5863   9.237   4.011   2.283 -0.9575 -1.9509  0.9640
  802MOL0     H 5864   9.128   4.129   2.461 -1.9314 -1.9024  2.1023
  803MOL0     O 5865   7.703   1.010  10.641 -0.5842 -0.4826 -0.5777
  803MOL0     C 5866   7.707   1.113  10.576 -0.0272  0.5490  0.5468
  803MOL0     O 5867   7.646   1.132  10.461  0.5911 -0.4666 -0.5371
  803MOL0     C 5868   7.567   1.033  10.412  0.1011  1.1993 -0.3142
  803MOL0     C 5869   7.630   0.948  10.323  0.0249  1.0845  0.3409
  803MOL0     C 5870   7.546   0.848  10.261  0.0502 -0.0024  0.4313
  803MOL0     C 5871   7.408   0.843  10.280  0.8387 -0.5689  0.3247
  803MOL0     O 5872   7.342   0.734  10.222 -0.0642  0.1303 -0.4721
  803MOL0     C 5873   7.311   0.628  10.315 -0.2948 -1.2423  0.6097
  803MOL0     C 5874   7.317   0.497  10.228  0.2982 -0.4195 -0.3617
  803MOL0     C 5875   7.182   0.469  10.150  0.8633 -0.5419 -0.1227
  803MOL0     C 5876   7.184   0.335  10.062 -0.2826  0.0531 -0.0066
  803MOL0     C 5877   7.053   0.333   9.986 -0.6665 -0.9466 -0.2588
  803MOL0     C 5878   6.917   0.328  10.062  0.2991  0.3844 -0.3935
  803MOL0     C 5879   6.885   0.197  10.137  0.5744  0.2488 -1.1591
  803MOL0     C 5880   6.907   0.055  10.068  0.5487 -0.3240  0.3866
  803MOL0     N 5881   6.778   0.001  10.029 -0.0665  0.0814 -0.0924
  803MOL0     C 5882   6.688   0.060   9.936  0.1504 -0.9937 -0.5131
  803MOL0     C 5883   6.571   0.008   9.956  0.2078  0.1104  0.8648
  803MOL0     C 5884   6.453   0.055   9.872 -0.6357  0.1751  0.9569
  803MOL0     C 5885   6.315   0.038   9.945 -0.7477  0.0228  0.9153
  803MOL0     C 5886   6.270  -0.101   9.928 -0.4446  0.5606  0.1934
  803MOL0     C 5887   6.133  -0.117   9.980 -0.2987 -0.1813 -0.5514
  803MOL0     O 5888   6.044  -0.036   9.898  0.8547 -0.3028 -0.0872
  803MOL0     C 5889   5.919  -0.045   9.940 -0.5465 -0.1337 -0.7101
  803MOL0     C 5890   5.854  -0.144  10.021 -0.4113  0.4246 -0.0662
  803MOL0     C 5891   5.720  -0.137  10.056 -0.3335 -0.1024  0.0574
  803MOL0     C 5892   5.636  -0.029  10.013 -0.8863 -0.0427  0.5432
  803MOL0     C 5893   5.501  -0.022  10.058  0.2059  0.9044  0.7901
  803MOL0     O 5894   5.455  -0.140  10.103  0.3891  0.2567  0.2718
  803MOL0     C 5895   5.328  -0.159  10.168 -0.6763 -0.2507  0.2013
  803MOL0     C 5896   5.227  -0.055  10.197  0.1459 -0.2060 -0.0273
  803MOL0     C 5897   5.106  -0.098  10.259 -0.4089  0.5026  0.6272
  803MOL0     C 5898   5.092  -0.224  10.311 -0.6238  0.0367  0.6219
  803MOL0     O 5899   4.977  -0.256  10.372  0.3429 -0.2043 -0.3365
  803MOL0     C 5900   4.947  -0.394  10.371 -0.3571 -0.0865  0.6685
  803MOL0     C 5901   4.796  -0.407  10.399  0.0663 -0.6241  0.6932
  803MOL0     C 5902   4.742  -0.358  10.530  0.1057  0.7472 -0.4296
  803MOL0     C 5903   4.603  -0.425  10.573 -0.0520  0.3986  0.0402
  803MOL0     C 5904   4.546  -0.372  10.703 -0.3184 -0.1618 -0.2562
  803MOL0     C 5905   4.565  -0.482  10.811 -0.5900 -0.5045 -0.4929
  803MOL0     C 5906   4.457  -0.588  10.795  0.8464  0.0975 -0.1909
  803MOL0     C 5907   4.377  -0.625  10.923  0.0536 -1.8257 -0.2581
  803MOL0    Cl 5908   4.249  -0.495  10.945 -0.1139  0.0146 -0.1488
  803MOL0     C 5909   5.197  -0.314  10.284 -0.3230 -0.5839 -0.9155
  803MOL0     C 5910   5.303  -0.288  10.213 -0.6376  0.1252 -0.5945
  803MOL0     O 5911   5.447   0.084  10.053  0.2652 -0.0877 -0.0401
  803MOL0     C 5912   5.705   0.075   9.939  0.6755 -1.0867  0.3229
  803MOL0     C 5913   5.835   0.056   9.895  0.1774  0.1873  0.0961
  803MOL0     N 5914   6.585  -0.078  10.063 -0.1119  0.9015  0.8012
  803MOL0     N 5915   6.707  -0.085  10.112  0.3390 -0.2405  0.4090
  803MOL0     C 5916   7.349   0.928  10.384  0.0559  0.5147 -0.6716
  803MOL0     C 5917   7.433   1.026  10.445 -0.5023  1.2113  1.2085
  803MOL0     C 5918   7.799   1.215  10.622 -0.1585 -0.2002 -0.6233
  803MOL0     C 5919   7.852   1.202  10.749  0.6387 -0.3016  0.6661
  803MOL0     C 5920   7.938   1.307  10.798  0.3934  0.5338  0.6889
  803MOL0     C 5921   7.955   1.424  10.727 -0.3749  0.0135 -0.1681
  803MOL0     O 5922   8.030   1.534  10.758  0.0893 -0.2729 -0.8818
  803MOL0     C 5923   8.099   1.540  10.889  0.7538  0.0062  0.2934
  803MOL0     C 5924   8.234   1.477  10.880  0.6327  0.1485  0.4048
  803MOL0     C 5925   8.331   1.564  10.795  0.3752  0.1194  0.5266
  803MOL0     C 5926   8.391   1.682  10.880  0.3874  0.3379  0.8384
  803MOL0     C 5927   8.494   1.630  10.975  0.5526  0.7589  0.0081
  803MOL0     C 5928   8.576   1.590  11.054 -1.4012  0.5373 -0.0156
  803MOL0     C 5929   7.896   1.426  10.600  0.0202  0.4412  0.1209
  803MOL0     C 5930   7.815   1.325  10.548 -0.8801  0.0984 -0.6374
  803MOL0     H 5931   7.737   0.947  10.307 -0.0924 -0.7685 -0.5596
  803MOL0     H 5932   7.595   0.783  10.189  0.9755 -0.9987  1.9265
  803MOL0     H 5933   7.211   0.639  10.358 -0.2814 -2.4539  0.9821
  803MOL0     H 5934   7.388   0.628  10.393  2.4301  1.0526 -1.8136
  803MOL0     H 5935   7.334   0.407  10.289  0.8966 -0.7191 -0.9605
  803MOL0     H 5936   7.408   0.491  10.167 -1.1402 -0.7347 -2.5679
  803MOL0     H 5937   7.156   0.553  10.086 -2.0499 -1.2762 -0.0452
  803MOL0     H 5938   7.106   0.464  10.228  2.4406 -1.4912  1.4443
  803MOL0     H 5939   7.261   0.346   9.985 -1.0745  2.3767 -0.5645
  803MOL0     H 5940   7.193   0.247  10.126  1.0690  1.5100  1.9518
  803MOL0     H 5941   7.060   0.249   9.917 -0.1661  0.2243 -1.7024
  803MOL0     H 5942   7.050   0.422   9.921 -0.5112 -0.7547 -0.0072
  803MOL0     H 5943   6.838   0.339   9.987 -1.0221 -0.3393  0.8372
  803MOL0     H 5944   6.917   0.409  10.135  1.8538  1.4245 -1.4802
  803MOL0     H 5945   6.944   0.207  10.229 -1.4769  2.0932  0.0545
  803MOL0     H 5946   6.778   0.200  10.160  0.7866 -2.1773  0.5463
  803MOL0     H 5947   6.949  -0.021  10.134  0.2575 -0.0151  0.9438
  803MOL0     H 5948   6.966   0.062   9.976 -0.9393  1.7034 -0.5003
  803MOL0     H 5949   6.711   0.145   9.873  0.4914 -2.4120 -2.4040
  803MOL0     H 5950   6.468   0.004   9.777 -1.6227 -0.9666  1.3985
  803MOL0     H 5951   6.454   0.164   9.860  1.0996  0.0087 -1.1855
  803MOL0     H 5952   6.244   0.112   9.909 -0.2728 -0.6198 -1.5880
  803MOL0     H 5953   6.333   0.055  10.051  1.1957 -1.3471  0.8733
  803MOL0     H 5954   6.262  -0.129   9.823 -1.1995  1.7925 -0.1001
  803MOL0     H 5955   6.337  -0.169   9.982  0.1577 -0.8881 -2.2229
  803MOL0     H 5956   6.137  -0.078  10.082 -1.2340  0.6710 -0.8182
  803MOL0     H 5957   6.104  -0.222   9.988  0.6517 -0.5283 -1.4638
  803MOL0     H 5958   5.902  -0.231  10.064 -0.3447 -0.5180 -1.9705
  803MOL0     H 5959   5.683  -0.216  10.120 -3.2034  0.5807 -0.6061
  803MOL0     H 5960   5.236   0.050  10.174 -0.7657 -0.0078  0.4960
  803MOL0     H 5961   5.015  -0.039  10.251 -0.4404  0.1730 -3.0015
  803MOL0     H 5962   5.003  -0.448  10.448 -1.5540 -2.5644 -0.0990
  803MOL0     H 5963   4.951  -0.431  10.268 -2.2127  2.8937 -0.6290
  803MOL0     H 5964   4.762  -0.511  10.398  1.5244 -1.1341  0.9082
  803MOL0     H 5965   4.741  -0.363  10.316  0.2831  0.0112  0.8843
  803MOL0     H 5966   4.738  -0.249  10.529  2.6125  0.9001 -2.1585
  803MOL0     H 5967   4.821  -0.379  10.603 -1.9738 -0.1137  1.6924
  803MOL0     H 5968   4.540  -0.402  10.487  2.5669 -2.1796 -2.8023
  803MOL0     H 5969   4.614  -0.533  10.565 -0.8131  0.2847  0.4139
  803MOL0     H 5970   4.437  -0.359  10.694 -0.6040 -1.2824  1.2852
  803MOL0     H 5971   4.588  -0.275  10.732  0.9637  0.2000 -2.9542
  803MOL0     H 5972   4.559  -0.427  10.906  1.2861  1.5429 -1.4679
  803MOL0     H 5973   4.659  -0.536  10.801 -0.1377 -0.7354  3.3357
  803MOL0     H 5974   4.391  -0.570  10.710 -0.1186  0.2186  0.5715
  803MOL0     H 5975   4.506  -0.680  10.762 -0.5777 -0.4784 -0.7943
  803MOL0     H 5976   4.429  -0.624  11.020 -0.6466 -1.4420  0.1243
  803MOL0     H 5977   4.335  -0.724  10.904 -3.5385 -0.4889 -0.1006
  803MOL0     H 5978   5.190  -0.413  10.329 -0.0701 -0.4588 -0.5945
  803MOL0     H 5979   5.388  -0.355  10.210 -0.4947  0.1245  1.9864
  803MOL0     H 5980   5.654   0.166   9.908  0.5716 -1.1023  0.4479
  803MOL0     H 5981   5.879   0.139   9.840  2.2420 -0.3382  0.8752
  803MOL0     H 5982   7.244   0.926  10.412  0.4028 -2.4141  0.7543
  803MOL0     H 5983   7.379   1.092  10.513 -1.7200  1.4082  0.0949
  803MOL0     H 5984   7.849   1.112  10.809 -2.2120  0.3576  1.6314
  803MOL0     H 5985   7.980   1.281  10.894 -3.1905 -0.9582  2.0024
  803MOL0     H 5986   8.040   1.486  10.964 -0.5083  2.1016  0.9055
  803MOL0     H 5987   8.112   1.644  10.921  2.5430  0.5183 -1.8898
  803MOL0     H 5988   8.278   1.472  10.980  1.8050  1.1693 -0.0347
  803MOL0     H 5989   8.237   1.380  10.829  0.6137  1.2262 -1.7713
  803MOL0     H 5990   8.273   1.611  10.714  0.8690 -0.5769 -0.2504
  803MOL0     H 5991   8.411   1.506  10.748  1.3891  2.3163 -0.6460
  803MOL0     H 5992   8.450   1.749  10.816  1.5135  0.2199  1.7199
  803MOL0     H 5993   8.321   1.745  10.935  1.6364 -0.1746  3.1856
  803MOL0     H 5994   8.653   1.548  11.116 -0.1361  0.5622 -1.4977
  803MOL0     H 5995   7.922   1.513  10.542 -1.2630  3.3282  3.4956
  803MOL0     H 5996   7.765   1.341  10.453  2.1959  0.1950 -2.4030
  804MOL0     O 5997  10.006   5.581   2.260 -0.4773 -0.3345 -0.3978
  804MOL0     C 5998  10.017   5.512   2.360  0.6295  0.8243 -0.5704
  804MOL0     O 5999  10.111   5.410   2.379  0.2449 -0.0004 -0.8365
  804MOL0     C 6000  10.190   5.388   2.276 -0.3012  0.8486 -0.1477
  804MOL0     C 6001  10.145   5.290   2.180 -0.4178 -0.4130  0.8940
  804MOL0     C 6002  10.237   5.243   2.087 -0.4233  0.4895  1.2260
  804MOL0     C 6003  10.364   5.296   2.064 -0.0999  0.0986 -0.4255
  804MOL0     O 6004  10.432   5.246   1.956  0.5518  0.2224  0.4611
  804MOL0     C 6005  10.568   5.277   1.940  0.3258  1.2536  1.3273
  804MOL0     C 6006  10.635   5.211   1.818  0.3590 -0.1893 -0.5112
  804MOL0     C 6007  10.572   5.247   1.692 -0.8470 -1.0619  0.3814
  804MOL0     C 6008  10.595   5.386   1.642 -1.0428  0.1724  0.1694
  804MOL0     C 6009  10.515   5.400   1.522  0.4659  0.4006  0.4635
  804MOL0     C 6010  10.517   5.528   1.434  0.1925 -0.2585  0.3939
  804MOL0     C 6011  10.653   5.589   1.409  0.3704 -0.1633  0.9149
  804MOL0     C 6012  10.653   5.720   1.330  0.3572  0.6637  1.2620
  804MOL0     N 6013  10.556   5.824   1.372  0.2922  0.6869 -0.2793
  804MOL0     C 6014  10.427   5.841   1.313 -0.3422  0.3796  0.2101
  804MOL0     C 6015  10.370   5.946   1.364  0.6633 -0.5603  0.5591
  804MOL0     C 6016  10.230   5.996   1.329 -0.2249  0.1815 -0.6989
  804MOL0     C 6017  10.231   6.077   1.198  0.7195  1.0654  0.5155
  804MOL0     C 6018  10.147   5.999   1.095  0.4207 -1.0262 -0.4366
  804MOL0     C 6019   9.995   5.995   1.132 -0.1031 -0.5821  0.4773
  804MOL0     O 6020   9.930   5.889   1.058 -0.1842 -0.3973  0.9866
  804MOL0     C 6021   9.834   5.931   0.968 -0.6903  0.0547 -0.1425
  804MOL0     C 6022   9.839   6.036   0.877 -0.0843 -0.2684  0.9506
  804MOL0     C 6023   9.735   6.073   0.792 -0.7011 -0.0092  0.3882
  804MOL0     C 6024   9.610   6.006   0.803 -0.2535 -0.2635 -0.1457
  804MOL0     C 6025   9.495   6.048   0.719 -0.7689  0.1863 -0.7009
  804MOL0     O 6026   9.377   6.066   0.791  0.2515  0.7692 -0.1141
  804MOL0     C 6027   9.252   6.042   0.738  0.7174  1.1847  0.2225
  804MOL0     C 6028   9.141   6.122   0.771 -0.3604  0.4425  0.1247
  804MOL0     C 6029   9.018   6.086   0.712 -0.4236  1.1353 -0.8707
  804MOL0     C 6030   8.997   5.980   0.622  0.2505 -0.2874  0.5164
  804MOL0     O 6031   8.872   5.951   0.567  0.4498 -0.9793  0.3818
  804MOL0     C 6032   8.763   5.967   0.664 -0.0866  1.0809 -0.1572
  804MOL0     C 6033   8.674   5.852   0.637  0.5429  0.7081 -0.0035
  804MOL0     C 6034   8.611   5.871   0.486 -0.3831 -0.3634 -0.9816
  804MOL0     C 6035   8.506   5.758   0.462 -0.0367 -1.3160  0.4878
  804MOL0     C 6036   8.456   5.780   0.320  0.2541 -0.4618  0.7506
  804MOL0     C 6037   8.359   5.673   0.270 -0.5469  0.5197  1.4143
  804MOL0     C 6038   8.320   5.701   0.126  0.5636  0.0080  0.1720
  804MOL0     C 6039   8.216   5.606   0.069 -0.3548  0.7324 -0.1613
  804MOL0    Cl 6040   8.121   5.670  -0.064 -0.3794 -0.6595 -0.0099
  804MOL0     C 6041   9.106   5.905   0.591  0.1687  0.2780  0.0617
  804MOL0     C 6042   9.230   5.928   0.657 -0.2310 -0.5825  0.0260
  804MOL0     O 6043   9.508   6.067   0.600 -0.1724  0.5979 -0.3800
  804MOL0     C 6044   9.601   5.897   0.886 -0.1137  0.3156 -0.1994
  804MOL0     C 6045   9.713   5.860   0.971  0.1732 -0.6545 -0.3620
  804MOL0     N 6046  10.466   6.009   1.447  0.1595 -0.3897  0.1413
  804MOL0     N 6047  10.571   5.933   1.454  0.7863 -0.0553 -0.6316
  804MOL0     C 6048  10.409   5.397   2.154  0.8032  0.4357 -0.4246
  804MOL0     C 6049  10.319   5.438   2.258 -0.2178  0.7331  0.3331
  804MOL0     C 6050   9.922   5.555   2.468 -0.8893 -0.6314  0.2204
  804MOL0     C 6051   9.885   5.692   2.479  0.0972 -0.2031 -0.7758
  804MOL0     C 6052   9.815   5.745   2.582  0.4659  0.0384 -1.0577
  804MOL0     C 6053   9.776   5.650   2.681 -0.5545  0.8972  0.6440
  804MOL0     O 6054   9.703   5.687   2.797  0.2308 -0.3657  0.2818
  804MOL0     C 6055   9.779   5.767   2.891 -0.4059 -0.0428 -0.5900
  804MOL0     C 6056   9.747   5.733   3.042 -0.1911  0.1703 -0.2938
  804MOL0     C 6057   9.612   5.802   3.082 -0.6172 -0.2380  0.1535
  804MOL0     C 6058   9.501   5.701   3.098 -0.2979  0.3139  0.4953
  804MOL0     C 6059   9.524   5.590   3.194 -0.6562  0.3810 -0.7412
  804MOL0     C 6060   9.538   5.487   3.261  0.2077  0.5669  0.3192
  804MOL0     C 6061   9.808   5.522   2.671 -0.4146 -0.2254  0.2528
  804MOL0     C 6062   9.885   5.473   2.573  0.5412 -0.1909  0.9084
  804MOL0     H 6063  10.059   5.226   2.196 -0.9699  0.4279  1.3020
  804MOL0     H 6064  10.205   5.157   2.030 -0.6569  1.2761  0.1306
  804MOL0     H 6065  10.622   5.254   2.032 -1.5843 -3.6053  1.5123
  804MOL0     H 6066  10.568   5.386   1.925  0.9816  1.3950  2.3122
  804MOL0     H 6067  10.639   5.103   1.838 -2.0309 -0.2098  0.2156
  804MOL0     H 6068  10.734   5.257   1.815 -1.1719  3.6275  0.9407
  804MOL0     H 6069  10.465   5.227   1.706 -0.7976 -0.1337  2.2635
  804MOL0     H 6070  10.603   5.178   1.613 -0.6746 -1.6605  0.9655
  804MOL0     H 6071  10.574   5.458   1.721  0.9385  0.2015  0.7249
  804MOL0     H 6072  10.701   5.383   1.614 -0.5610 -3.1388  1.8924
  804MOL0     H 6073  10.410   5.387   1.547  0.6257 -0.2497  0.8277
  804MOL0     H 6074  10.545   5.312   1.464 -0.2168  1.4302 -1.5610
  804MOL0     H 6075  10.455   5.604   1.484 -0.6234  0.4662 -1.6067
  804MOL0     H 6076  10.478   5.513   1.333 -1.0306 -3.2320  1.2157
  804MOL0     H 6077  10.698   5.609   1.507 -1.4905 -2.2803  2.3319
  804MOL0     H 6078  10.703   5.510   1.352 -2.5268 -0.0096 -2.1616
  804MOL0     H 6079  10.633   5.703   1.224  1.5833  0.0533  1.1054
  804MOL0     H 6080  10.749   5.773   1.334 -0.1274  1.7803 -0.5258
  804MOL0     H 6081  10.380   5.776   1.240  1.6951  0.4006 -1.1968
  804MOL0     H 6082  10.187   6.055   1.410  1.8039 -0.0639  0.6293
  804MOL0     H 6083  10.169   5.906   1.320  1.6816 -1.1433 -1.0679
  804MOL0     H 6084  10.331   6.083   1.154  2.0952 -1.0416  3.0787
  804MOL0     H 6085  10.199   6.178   1.226  1.8362  0.6754  3.5250
  804MOL0     H 6086  10.161   6.047   0.997 -1.4908  0.1129 -0.2020
  804MOL0     H 6087  10.182   5.896   1.086  2.2397 -0.3399 -1.8300
  804MOL0     H 6088   9.948   6.089   1.103  0.7080 -0.7052 -1.4167
  804MOL0     H 6089   9.987   5.973   1.239  0.8334 -0.2585  0.6306
  804MOL0     H 6090   9.930   6.095   0.866 -0.1917 -0.3042 -0.1973
  804MOL0     H 6091   9.758   6.154   0.723 -3.1221  0.1298 -0.3305
  804MOL0     H 6092   9.153   6.211   0.832 -4.8552 -0.0179  2.0603
  804MOL0     H 6093   8.947   6.160   0.748 -1.9880  0.2235 -1.9978
  804MOL0     H 6094   8.707   6.060   0.647 -1.3737  0.1616 -1.1142
  804MOL0     H 6095   8.794   5.964   0.769  5.0765  3.9451 -1.2778
  804MOL0     H 6096   8.600   5.865   0.717 -1.5743  0.4048 -1.7947
  804MOL0     H 6097   8.737   5.763   0.646  0.7652  0.6163 -2.0585
  804MOL0     H 6098   8.695   5.871   0.416  0.5608 -2.5648  0.0535
  804MOL0     H 6099   8.559   5.967   0.486  1.2678  0.5836  0.6758
  804MOL0     H 6100   8.534   5.654   0.481 -1.3103 -1.3175  2.7212
  804MOL0     H 6101   8.430   5.783   0.537  0.7295  2.1687  0.2893
  804MOL0     H 6102   8.544   5.779   0.254 -0.5630  2.1444 -0.5241
  804MOL0     H 6103   8.402   5.875   0.316  0.3691 -0.4032  0.5581
  804MOL0     H 6104   8.267   5.688   0.327 -1.6145  2.7302 -0.7065
  804MOL0     H 6105   8.397   5.572   0.284 -1.0842  0.0341 -0.3943
  804MOL0     H 6106   8.284   5.804   0.129  1.3156  0.2841 -0.1967
  804MOL0     H 6107   8.406   5.695   0.060  1.8660  0.1177  1.8059
  804MOL0     H 6108   8.154   5.576   0.154 -2.1504  2.7836 -0.6794
  804MOL0     H 6109   8.265   5.514   0.034 -0.9196  0.6367 -0.7303
  804MOL0     H 6110   9.099   5.820   0.523  2.9113 -0.0966  0.1494
  804MOL0     H 6111   9.319   5.868   0.641  4.1840  5.1684 -0.2725
  804MOL0     H 6112   9.518   5.827   0.890  1.2395 -1.3604  3.8149
  804MOL0     H 6113   9.705   5.769   1.031  2.7106 -0.2765  0.6535
  804MOL0     H 6114  10.501   5.452   2.136 -1.6445  4.4325 -2.0559
  804MOL0     H 6115  10.342   5.529   2.311 -0.3659  1.1127 -0.2415
  804MOL0     H 6116   9.916   5.766   2.406  1.4203  0.6154  0.5651
  804MOL0     H 6117   9.771   5.844   2.569  2.1822  0.6301 -2.9207
  804MOL0     H 6118   9.763   5.874   2.871  2.1986  0.6421  0.4442
  804MOL0     H 6119   9.887   5.754   2.876 -0.4472 -0.9535 -0.1266
  804MOL0     H 6120   9.741   5.624   3.043 -0.1066  0.1060  2.7538
  804MOL0     H 6121   9.835   5.764   3.099  1.0670 -0.4736 -1.8082
  804MOL0     H 6122   9.580   5.885   3.019 -0.8965 -0.8663 -0.5491
  804MOL0     H 6123   9.621   5.841   3.183 -0.7474 -3.7386  1.6703
  804MOL0     H 6124   9.412   5.755   3.132 -1.2563 -1.3072  0.6529
  804MOL0     H 6125   9.488   5.651   3.001  0.5528 -0.9131  0.9966
  804MOL0     H 6126   9.554   5.396   3.315 -1.9240 -0.5824 -0.8404
  804MOL0     H 6127   9.762   5.449   2.736 -3.8554 -0.9213 -2.6756
  804MOL0     H 6128   9.912   5.368   2.575  3.8488  0.5376  1.2664
  805MOL0     O 6129   2.991   6.527   5.238 -0.1777  0.3320  0.9861
  805MOL0     C 6130   3.014   6.426   5.305  0.3331 -0.9035  0.9499
  805MOL0     O 6131   2.920   6.327   5.331  0.1709  0.4481  0.1347
  805MOL0     C 6132   2.791   6.356   5.317  0.7201 -0.1143  0.3243
  805MOL0     C 6133   2.695   6.317   5.219 -0.8772 -0.7547  0.5823
  805MOL0     C 6134   2.560   6.366   5.218 -0.0015 -0.1231  1.0038
  805MOL0     C 6135   2.519   6.441   5.330  0.3444 -0.3561 -0.1177
  805MOL0     O 6136   2.385   6.478   5.349  0.4278  0.6580 -0.5923
  805MOL0     C 6137   2.281   6.406   5.299  0.9632  0.7509  0.4408
  805MOL0     C 6138   2.153   6.459   5.337 -0.3040 -0.3521  0.0280
  805MOL0     C 6139   2.035   6.371   5.289 -0.7943 -0.0357  0.1146
  805MOL0     C 6140   1.900   6.448   5.304  0.1820 -0.0423  0.4050
  805MOL0     C 6141   1.789   6.353   5.256 -0.3338  0.9373 -0.6236
  805MOL0     C 6142   1.654   6.422   5.285  0.2006  0.2013  0.2684
  805MOL0     C 6143   1.537   6.324   5.276 -0.0346 -0.5270  0.1486
  805MOL0     C 6144   1.404   6.399   5.273 -0.1613  0.6139 -0.6573
  805MOL0     N 6145   1.277   6.318   5.272 -0.0848 -0.2446 -0.0972
  805MOL0     C 6146   1.268   6.188   5.307 -0.1462  0.0121 -0.3801
  805MOL0     C 6147   1.143   6.154   5.272  0.8813  0.8535  0.5443
  805MOL0     C 6148   1.078   6.014   5.298  0.1822  0.5649  0.7781
  805MOL0     C 6149   0.929   6.007   5.268  0.9683  0.5591  0.1998
  805MOL0     C 6150   0.891   5.859   5.260  0.5349  0.0458 -0.9310
  805MOL0     C 6151   0.750   5.842   5.211 -0.1419 -0.4306  0.1666
  805MOL0     O 6152   0.672   5.846   5.333 -0.5058  0.3453  0.0856
  805MOL0     C 6153   0.536   5.827   5.322  0.6316 -0.2151 -0.9125
  805MOL0     C 6154   0.475   5.819   5.447  0.9180 -0.0428 -0.1166
  805MOL0     C 6155   0.333   5.798   5.462 -0.3591 -0.1652  0.5919
  805MOL0     C 6156   0.256   5.768   5.343 -0.5335  0.0843  0.5446
  805MOL0     C 6157   0.114   5.735   5.368 -0.5013  0.3508 -0.5955
  805MOL0     O 6158   0.084   5.709   5.503 -0.1181 -0.2606 -0.1005
  805MOL0     C 6159  -0.033   5.672   5.549  0.3096  0.0742  0.7883
  805MOL0     C 6160  -0.059   5.541   5.585 -1.1669 -0.0403  0.1542
  805MOL0     C 6161  -0.183   5.502   5.627  0.1496 -0.9134 -0.1260
  805MOL0     C 6162  -0.286   5.595   5.643 -0.7465 -0.4681 -0.3887
  805MOL0     O 6163  -0.402   5.568   5.709  0.2252  0.2484 -0.3113
  805MOL0     C 6164  -0.495   5.472   5.644 -0.6676 -0.0831  0.5653
  805MOL0     C 6165  -0.614   5.430   5.742 -0.2806  0.4120 -0.2172
  805MOL0     C 6166  -0.707   5.318   5.695  0.3510 -1.1507 -0.0492
  805MOL0     C 6167  -0.807   5.301   5.808  0.3525  0.0440 -0.2232
  805MOL0     C 6168  -0.897   5.178   5.767 -0.6178 -0.5684 -0.5943
  805MOL0     C 6169  -0.998   5.148   5.880  0.9709  0.1079 -1.4539
  805MOL0     C 6170  -1.106   5.053   5.836  0.1917  0.4582  0.2338
  805MOL0     C 6171  -1.241   5.082   5.907 -0.4604 -0.4312  0.0453
  805MOL0    Cl 6172  -1.368   4.958   5.854  0.4058  0.1770 -0.3140
  805MOL0     C 6173  -0.264   5.731   5.612  0.2693  0.9848 -1.4170
  805MOL0     C 6174  -0.138   5.767   5.564  0.8947 -0.7248 -0.6607
  805MOL0     O 6175   0.045   5.713   5.273 -0.0590  0.4034 -0.2567
  805MOL0     C 6176   0.321   5.775   5.219 -0.2163  0.3834 -0.0852
  805MOL0     C 6177   0.456   5.800   5.210  0.5099  0.4919 -0.1493
  805MOL0     N 6178   1.081   6.268   5.225 -0.4237  0.1813  0.1902
  805MOL0     N 6179   1.166   6.363   5.210  0.3188 -0.4617 -0.5442
  805MOL0     C 6180   2.625   6.497   5.409 -0.1479 -0.3328 -0.4273
  805MOL0     C 6181   2.754   6.449   5.406 -0.1407 -0.3321 -0.5327
  805MOL0     C 6182   3.152   6.400   5.351 -0.0448  0.0593  0.3677
  805MOL0     C 6183   3.269   6.462   5.303  0.7338  1.3650  0.4043
  805MOL0     C 6184   3.400   6.418   5.342  0.1670  0.0994 -0.6756
  805MOL0     C 6185   3.411   6.325   5.448 -0.8549 -0.3230 -0.6848
  805MOL0     O 6186   3.534   6.268   5.474 -0.5489 -0.0585 -0.2520
  805MOL0     C 6187   3.642   6.263   5.374  0.3414 -0.0551  0.4539
  805MOL0     C 6188   3.610   6.169   5.260  0.1868 -0.0866  0.0372
  805MOL0     C 6189   3.720   6.135   5.154  0.0628 -0.0494  0.6618
  805MOL0     C 6190   3.866   6.154   5.197 -0.0611  0.1016 -0.5396
  805MOL0     C 6191   3.910   6.037   5.285 -1.0712  0.1499 -0.3620
  805MOL0     C 6192   3.950   5.961   5.376  0.5790  0.0664  0.2061
  805MOL0     C 6193   3.296   6.276   5.503 -0.7205 -0.3924  0.0274
  805MOL0     C 6194   3.174   6.303   5.450 -0.2136 -0.5212  0.5644
  805MOL0     H 6195   2.732   6.257   5.137  1.4877  0.6338  0.5332
  805MOL0     H 6196   2.500   6.340   5.131 -1.1596 -2.0985  2.3109
  805MOL0     H 6197   2.274   6.305   5.341  1.1148  0.7655  0.5021
  805MOL0     H 6198   2.275   6.393   5.190 -1.7265 -0.7685  0.6792
  805MOL0     H 6199   2.145   6.559   5.293 -0.5764  0.6029  2.0754
  805MOL0     H 6200   2.147   6.476   5.445 -0.6651 -0.9936  0.1156
  805MOL0     H 6201   2.019   6.276   5.340 -1.4217  0.6029  1.1371
  805MOL0     H 6202   2.053   6.354   5.182  0.5711  0.8681  0.1739
  805MOL0     H 6203   1.890   6.467   5.411 -2.1996  1.0834  0.0559
  805MOL0     H 6204   1.892   6.544   5.250 -0.8652 -0.3407 -0.0001
  805MOL0     H 6205   1.810   6.255   5.301  2.6777  0.9654 -1.7833
  805MOL0     H 6206   1.795   6.341   5.148 -2.6094 -2.9766 -0.5059
  805MOL0     H 6207   1.632   6.503   5.215 -0.3486  0.4751  0.7433
  805MOL0     H 6208   1.655   6.470   5.384 -2.4772  3.5734 -1.1127
  805MOL0     H 6209   1.541   6.282   5.175  0.6632  1.0208 -0.5185
  805MOL0     H 6210   1.535   6.251   5.357  1.8172  0.8942  1.5809
  805MOL0     H 6211   1.404   6.464   5.185 -1.6234 -1.7521 -2.5389
  805MOL0     H 6212   1.406   6.466   5.360  4.5982 -1.5414  1.2644
  805MOL0     H 6213   1.336   6.115   5.349 -0.5627  0.3718  0.9529
  805MOL0     H 6214   1.101   5.988   5.402 -0.5703 -2.7597  0.2186
  805MOL0     H 6215   1.134   5.952   5.228  1.6694  3.1419 -0.4882
  805MOL0     H 6216   0.900   6.051   5.173 -0.0016 -1.3626 -0.4384
  805MOL0     H 6217   0.866   6.042   5.351 -0.8048 -0.2240 -0.7597
  805MOL0     H 6218   0.962   5.821   5.186  1.2122 -1.3107  0.3641
  805MOL0     H 6219   0.913   5.815   5.358 -1.1080 -0.3426 -0.7147
  805MOL0     H 6220   0.740   5.742   5.167  3.0830 -1.2655  1.0748
  805MOL0     H 6221   0.725   5.920   5.139  0.7312 -0.9062 -0.6768
  805MOL0     H 6222   0.546   5.819   5.529  1.8209 -1.3830 -0.8610
  805MOL0     H 6223   0.297   5.802   5.564  1.0323 -2.1815  1.2301
  805MOL0     H 6224   0.010   5.459   5.566 -2.2926 -1.1684  0.8136
  805MOL0     H 6225  -0.204   5.397   5.647 -0.7537 -0.4452  1.6317
  805MOL0     H 6226  -0.446   5.377   5.620  1.0653  0.5600  1.4151
  805MOL0     H 6227  -0.541   5.507   5.551 -3.5332  0.0830  1.9326
  805MOL0     H 6228  -0.677   5.518   5.760  0.7729  1.0485  0.5035
  805MOL0     H 6229  -0.566   5.396   5.834 -1.5512 -2.6355 -0.5692
  805MOL0     H 6230  -0.652   5.226   5.671  1.3394 -0.9792  1.4157
  805MOL0     H 6231  -0.753   5.353   5.603  2.6917  1.8808 -0.2645
  805MOL0     H 6232  -0.753   5.273   5.899 -0.2426  1.5919  0.6410
  805MOL0     H 6233  -0.876   5.384   5.823 -0.7921 -1.2493  2.2096
  805MOL0     H 6234  -0.829   5.094   5.753 -3.4033 -3.1039  0.1889
  805MOL0     H 6235  -0.947   5.194   5.671 -0.5134  0.2585 -0.5166
  805MOL0     H 6236  -1.042   5.246   5.902  2.0566  0.6658 -1.7141
  805MOL0     H 6237  -0.960   5.119   5.979 -2.7808 -3.0032 -0.6853
  805MOL0     H 6238  -1.130   5.059   5.730 -1.6502  4.8888  0.6834
  805MOL0     H 6239  -1.075   4.954   5.871 -0.9826  0.5466  1.6738
  805MOL0     H 6240  -1.265   5.183   5.874  0.6057 -0.5680 -1.2464
  805MOL0     H 6241  -1.231   5.080   6.016 -0.6240 -1.8300  0.0524
  805MOL0     H 6242  -0.347   5.791   5.647 -1.1177  0.2106 -3.1913
  805MOL0     H 6243  -0.129   5.869   5.528  0.0295  0.2105  1.5551
  805MOL0     H 6244   0.259   5.747   5.134  0.3447 -0.4981 -0.2208
  805MOL0     H 6245   0.504   5.804   5.112  0.1686  2.9066 -0.2795
  805MOL0     H 6246   2.584   6.567   5.480 -0.8789 -0.4380 -0.7343
  805MOL0     H 6247   2.832   6.494   5.467 -2.3784  1.4194  1.1830
  805MOL0     H 6248   3.248   6.517   5.212 -1.6848 -2.2147 -1.4683
  805MOL0     H 6249   3.488   6.471   5.307 -0.2869  0.9859 -0.5012
  805MOL0     H 6250   3.728   6.229   5.432  1.0918 -1.6447 -1.4795
  805MOL0     H 6251   3.660   6.363   5.334 -0.5443 -0.8624 -2.1613
  805MOL0     H 6252   3.576   6.073   5.298  1.6641 -1.5768 -2.1486
  805MOL0     H 6253   3.518   6.200   5.210 -0.6870 -1.1664  0.9415
  805MOL0     H 6254   3.709   6.204   5.070  2.3341  0.0301  0.3778
  805MOL0     H 6255   3.702   6.033   5.119 -2.2984 -0.5307  2.9687
  805MOL0     H 6256   3.936   6.170   5.114  2.4978  1.8034  1.7581
  805MOL0     H 6257   3.871   6.249   5.250 -1.7504  1.0729 -2.0306
  805MOL0     H 6258   3.968   5.891   5.455 -1.2265 -0.7388 -0.0453
  805MOL0     H 6259   3.299   6.194   5.575  1.7892 -1.5784 -1.2945
  805MOL0     H 6260   3.091   6.239   5.479  0.4795 -1.3207  0.7852
  806MOL0     O 6261   2.286   8.388   2.703  0.4847  0.2736  0.1787
  806MOL0     C 6262   2.355   8.322   2.782  0.6523  0.3051  0.7860
  806MOL0     O 6263   2.304   8.214   2.850 -0.4603 -1.1009 -0.6868
  806MOL0     C 6264   2.172   8.183   2.860  1.0178  1.0608  0.4813
  806MOL0     C 6265   2.057   8.259   2.829  0.3399  0.5380  0.1770
  806MOL0     C 6266   1.921   8.215   2.853 -0.1855  0.0707  1.0822
  806MOL0     C 6267   1.901   8.086   2.906 -0.3627  0.4948 -0.2396
  806MOL0     O 6268   1.771   8.020   2.936 -0.5762 -0.0106  0.2333
  806MOL0     C 6269   1.651   8.101   2.951  0.3764 -0.3163 -0.3897
  806MOL0     C 6270   1.552   8.031   3.045 -0.3199  0.4720 -0.3876
  806MOL0     C 6271   1.418   8.100   3.059  0.3091  0.3461 -0.0695
  806MOL0     C 6272   1.292   8.033   2.997  0.7525  0.6236 -0.0605
  806MOL0     C 6273   1.164   8.114   3.019  0.3803  0.7568  0.1546
  806MOL0     C 6274   1.043   8.061   2.945 -0.9522  0.1966 -0.0064
  806MOL0     C 6275   0.996   7.939   3.008 -0.3000 -0.3142 -0.0950
  806MOL0     C 6276   0.915   7.948   3.138  0.0183 -0.3288  0.4105
  806MOL0     N 6277   0.833   7.831   3.162 -0.1565  0.4015 -0.0645
  806MOL0     C 6278   0.707   7.810   3.116 -0.3010 -0.2293 -0.4538
  806MOL0     C 6279   0.670   7.692   3.174 -0.8103 -0.2200 -0.1528
  806MOL0     C 6280   0.543   7.615   3.139  0.1940 -1.0164 -0.1516
  806MOL0     C 6281   0.433   7.628   3.248  0.4503 -0.5316  0.5288
  806MOL0     C 6282   0.364   7.770   3.229 -0.2227  0.0510  0.3031
  806MOL0     C 6283   0.257   7.785   3.337 -0.2040 -0.0840 -0.4695
  806MOL0     O 6284   0.192   7.914   3.322 -0.2453 -0.2484 -0.4690
  806MOL0     C 6285   0.056   7.919   3.285 -0.4773  0.1040  0.7391
  806MOL0     C 6286  -0.007   7.828   3.200  0.6396 -0.0576 -0.0721
  806MOL0     C 6287  -0.142   7.843   3.168 -0.0351  0.6220  0.1423
  806MOL0     C 6288  -0.215   7.956   3.212 -0.0327  0.7878 -0.4094
  806MOL0     C 6289  -0.357   7.974   3.183  0.0415 -0.4562  0.2420
  806MOL0     O 6290  -0.425   8.091   3.218 -1.0578  0.2903 -0.2734
  806MOL0     C 6291  -0.561   8.102   3.193 -0.2740  0.3215  0.1958
  806MOL0     C 6292  -0.625   8.095   3.065  0.1326  0.9119 -0.4968
  806MOL0     C 6293  -0.764   8.124   3.057 -0.0356 -0.5336  0.0535
  806MOL0     C 6294  -0.849   8.139   3.169  0.2150 -0.7083 -1.0477
  806MOL0     O 6295  -0.984   8.155   3.159  0.1821 -0.1169  0.0405
  806MOL0     C 6296  -1.042   8.235   3.049  0.1316  0.9199  0.0548
  806MOL0     C 6297  -1.190   8.225   3.066  0.2990  0.3158  0.2997
  806MOL0     C 6298  -1.246   8.321   2.964 -0.5606  0.7114 -0.1959
  806MOL0     C 6299  -1.394   8.339   2.981 -0.6020 -1.0011 -0.0676
  806MOL0     C 6300  -1.457   8.448   2.896  0.0491  0.3855  0.5178
  806MOL0     C 6301  -1.503   8.382   2.763  0.1633  0.2835  0.0409
  806MOL0     C 6302  -1.597   8.468   2.679 -0.5200 -0.6693 -0.0816
  806MOL0     C 6303  -1.593   8.626   2.678  0.4016 -0.2555 -1.0557
  806MOL0    Cl 6304  -1.710   8.709   2.573 -0.3085  0.3474  0.3579
  806MOL0     C 6305  -0.789   8.140   3.303  0.9297  0.2407  0.5739
  806MOL0     C 6306  -0.648   8.120   3.309 -0.6120 -0.6765  0.4661
  806MOL0     O 6307  -0.408   7.884   3.112  0.1779  0.0477  0.2603
  806MOL0     C 6308  -0.146   8.047   3.286  0.6399 -0.1359  0.0462
  806MOL0     C 6309  -0.013   8.032   3.323  0.2711  0.4605 -0.8185
  806MOL0     N 6310   0.763   7.655   3.262 -0.2370 -0.4495  0.2766
  806MOL0     N 6311   0.854   7.740   3.255  0.2660  0.4187 -0.6384
  806MOL0     C 6312   2.016   7.999   2.921  0.1537  0.1122 -0.2415
  806MOL0     C 6313   2.143   8.045   2.907  0.5509 -0.3406  0.2038
  806MOL0     C 6314   2.499   8.356   2.791  0.0950 -0.3467 -0.7632
  806MOL0     C 6315   2.584   8.296   2.888 -0.6231 -0.6288 -0.0438
  806MOL0     C 6316   2.726   8.309   2.878  0.8618 -0.2035  0.9285
  806MOL0     C 6317   2.788   8.378   2.781  0.1040 -0.6749  0.3245
  806MOL0     O 6318   2.922   8.379   2.779 -0.0047  0.2015 -0.0210
  806MOL0     C 6319   2.989   8.472   2.685  0.1855 -0.5218  0.0002
  806MOL0     C 6320   3.013   8.613   2.743 -1.1004 -0.4835  1.2533
  806MOL0     C 6321   3.113   8.604   2.869  0.4249 -0.2798 -0.0528
  806MOL0     C 6322   3.256   8.561   2.839  0.7016 -0.5966 -0.0291
  806MOL0     C 6323   3.331   8.662   2.758  0.8320  0.4009  0.1993
  806MOL0     C 6324   3.383   8.748   2.695 -0.3350  0.3602  0.2910
  806MOL0     C 6325   2.704   8.445   2.693 -0.0450 -0.3129  0.1984
  806MOL0     C 6326   2.563   8.448   2.707 -0.6616 -0.1342 -0.9057
  806MOL0     H 6327   2.078   8.355   2.781  4.5852 -0.6529 -0.7440
  806MOL0     H 6328   1.841   8.278   2.814 -0.4518 -0.4557  0.7697
  806MOL0     H 6329   1.605   8.114   2.853 -1.8040  0.4150  0.6644
  806MOL0     H 6330   1.682   8.197   2.992  0.4730 -1.5015  2.5447
  806MOL0     H 6331   1.608   8.018   3.138  0.9834  3.0091 -0.7307
  806MOL0     H 6332   1.546   7.932   2.998 -1.2142  0.9695 -1.3506
  806MOL0     H 6333   1.412   8.205   3.030 -1.5465 -0.1207 -1.5323
  806MOL0     H 6334   1.402   8.101   3.167 -1.2140  0.5310 -0.2755
  806MOL0     H 6335   1.310   8.025   2.889  0.5696 -0.2804 -0.0357
  806MOL0     H 6336   1.299   7.934   3.043 -1.4071  0.5796  0.2687
  806MOL0     H 6337   1.184   8.214   2.981 -2.7445  0.8900 -1.4253
  806MOL0     H 6338   1.146   8.126   3.127 -0.1703 -0.7150  0.2584
  806MOL0     H 6339   1.071   8.035   2.843 -0.7893 -4.3396  0.9711
  806MOL0     H 6340   0.960   8.133   2.944  0.0538  1.5968  3.2941
  806MOL0     H 6341   0.926   7.893   2.939  0.4106  0.2259 -1.2110
  806MOL0     H 6342   1.081   7.873   3.025  0.8505  0.8959 -0.9311
  806MOL0     H 6343   0.852   8.037   3.139 -0.5841 -0.7268 -0.4197
  806MOL0     H 6344   0.986   7.962   3.220 -0.7706  3.0210  0.6862
  806MOL0     H 6345   0.669   7.873   3.037 -0.0064  0.0888 -0.3496
  806MOL0     H 6346   0.572   7.509   3.143  4.6805  0.0668  1.4406
  806MOL0     H 6347   0.514   7.651   3.040  1.3970  1.5704  0.3652
  806MOL0     H 6348   0.473   7.635   3.350 -0.2300  0.4599  0.7447
  806MOL0     H 6349   0.358   7.549   3.236  2.6307 -2.8376  1.3236
  806MOL0     H 6350   0.441   7.847   3.231  0.1730 -0.3450  0.6936
  806MOL0     H 6351   0.316   7.783   3.132 -0.9975  2.4537  0.9359
  806MOL0     H 6352   0.315   7.803   3.428  0.2012  1.1509 -0.9556
  806MOL0     H 6353   0.185   7.703   3.341  2.1455 -2.2655 -0.6778
  806MOL0     H 6354   0.055   7.747   3.163  0.4745 -0.5297  0.6600
  806MOL0     H 6355  -0.176   7.758   3.109 -0.7100  1.5573 -0.8530
  806MOL0     H 6356  -0.566   8.076   2.976  0.2474 -2.0157  0.0871
  806MOL0     H 6357  -0.812   8.123   2.960 -0.5262  0.0303  0.2862
  806MOL0     H 6358  -0.996   8.196   2.958  0.8802  0.5833  0.5630
  806MOL0     H 6359  -1.004   8.336   3.063  2.0883  0.3589 -0.8825
  806MOL0     H 6360  -1.236   8.242   3.164 -1.1724  0.3503 -0.3609
  806MOL0     H 6361  -1.217   8.120   3.051  5.6852 -1.7107  2.6277
  806MOL0     H 6362  -1.218   8.310   2.858 -0.2213  1.9363 -0.2466
  806MOL0     H 6363  -1.205   8.416   2.999 -0.5761  0.8454 -0.5307
  806MOL0     H 6364  -1.454   8.248   2.978 -3.1463  0.6010 -0.2605
  806MOL0     H 6365  -1.408   8.377   3.082 -0.6840 -1.2905  0.0293
  806MOL0     H 6366  -1.392   8.529   2.860  0.0767  0.5109  0.8433
  806MOL0     H 6367  -1.539   8.497   2.949  3.0561  2.2744  3.9240
  806MOL0     H 6368  -1.541   8.280   2.771 -1.0137  0.7510  0.5657
  806MOL0     H 6369  -1.411   8.368   2.705 -0.3181  0.2577 -0.7324
  806MOL0     H 6370  -1.570   8.431   2.580  0.4500  0.0985 -0.1176
  806MOL0     H 6371  -1.700   8.445   2.709 -0.9562  0.3315 -0.7429
  806MOL0     H 6372  -1.499   8.674   2.648  0.2556  1.4816  0.9718
  806MOL0     H 6373  -1.596   8.663   2.781 -1.1154 -1.0284 -0.8002
  806MOL0     H 6374  -0.832   8.148   3.402 -2.0039  2.1578 -0.6756
  806MOL0     H 6375  -0.596   8.129   3.403 -1.7829 -3.3146  1.4652
  806MOL0     H 6376  -0.211   8.126   3.323 -2.4578 -2.1006 -0.8744
  806MOL0     H 6377   0.034   8.107   3.386  1.2376 -0.4990 -0.3638
  806MOL0     H 6378   2.009   7.892   2.932 -1.4693 -0.1467 -2.8942
  806MOL0     H 6379   2.226   7.983   2.938 -0.1165 -0.7837  1.1477
  806MOL0     H 6380   2.554   8.228   2.967  1.2580 -1.0367  0.3844
  806MOL0     H 6381   2.793   8.262   2.949  1.2623  0.7726  1.2091
  806MOL0     H 6382   2.934   8.478   2.591  1.5983  1.6996 -0.7619
  806MOL0     H 6383   3.089   8.431   2.667  0.6095 -0.0847  1.2290
  806MOL0     H 6384   3.067   8.654   2.657 -1.6667  0.6833  1.4366
  806MOL0     H 6385   2.914   8.658   2.757 -0.7486  0.4216  0.8821
  806MOL0     H 6386   3.075   8.525   2.934 -0.7592 -1.3951 -2.0049
  806MOL0     H 6387   3.109   8.703   2.916 -0.8732  1.0456 -2.7651
  806MOL0     H 6388   3.309   8.541   2.933  0.4646 -2.3481 -0.2330
  806MOL0     H 6389   3.257   8.461   2.796  3.3778 -1.4693  1.7476
  806MOL0     H 6390   3.406   8.830   2.630 -3.1154 -1.2636 -2.9994
  806MOL0     H 6391   2.740   8.512   2.616 -3.1762  0.0572 -1.0996
  806MOL0     H 6392   2.502   8.505   2.639 -2.4456  1.7799  2.0720
  807MOL0     O 6393   1.137   3.876  10.194  0.2886  0.0814 -0.1575
  807MOL0     C 6394   1.241   3.939  10.202 -0.7876  0.3812 -0.0959
  807MOL0     O 6395   1.251   4.069  10.224 -0.2656  0.8226 -0.1485
  807MOL0     C 6396   1.145   4.154  10.202  0.4497  0.0738  0.1227
  807MOL0     C 6397   1.145   4.261  10.281 -0.1440  0.8062 -0.2456
  807MOL0     C 6398   1.057   4.360  10.256 -0.4440 -0.0133  0.0359
  807MOL0     C 6399   0.957   4.348  10.160 -0.1533 -0.3589 -0.3277
  807MOL0     O 6400   0.848   4.434  10.142  0.0403  0.0956 -0.4850
  807MOL0     C 6401   0.866   4.570  10.182  0.9059  0.4317 -0.5087
  807MOL0     C 6402   0.791   4.649  10.077  0.6350 -0.2999 -0.0324
  807MOL0     C 6403   0.842   4.615   9.938  0.1661  0.0274  0.3956
  807MOL0     C 6404   0.769   4.702   9.831 -0.8125 -0.1520 -0.1904
  807MOL0     C 6405   0.618   4.680   9.822  0.0520 -0.3472  0.7371
  807MOL0     C 6406   0.542   4.804   9.879  0.6633  0.0183 -0.5740
  807MOL0     C 6407   0.391   4.788   9.831  0.5925 -0.1411 -0.2634
  807MOL0     C 6408   0.308   4.905   9.886  0.8139  0.9168 -0.2683
  807MOL0     N 6409   0.162   4.871   9.878 -0.0294  1.0106  0.3735
  807MOL0     C 6410   0.082   4.912   9.780 -0.0791 -0.2008 -0.3912
  807MOL0     C 6411  -0.036   4.859   9.800 -0.0962  0.8928  0.3497
  807MOL0     C 6412  -0.166   4.862   9.707 -0.0625 -0.5016 -0.3499
  807MOL0     C 6413  -0.286   4.878   9.795 -0.0412  0.1501 -0.4059
  807MOL0     C 6414  -0.397   4.967   9.726 -0.9913 -0.0419  0.4462
  807MOL0     C 6415  -0.533   4.967   9.804 -0.5473  0.9518  0.2322
  807MOL0     O 6416  -0.632   5.055   9.748  0.4939 -0.5181  0.4098
  807MOL0     C 6417  -0.764   5.054   9.799  0.9720  0.4220  0.4602
  807MOL0     C 6418  -0.807   4.992   9.921  0.5073 -0.4758 -0.0241
  807MOL0     C 6419  -0.937   4.990   9.961 -0.7408 -0.0002  0.0246
  807MOL0     C 6420  -1.041   5.033   9.872 -0.0314 -0.4324  0.4411
  807MOL0     C 6421  -1.180   5.025   9.903  0.5017  0.1421 -0.1605
  807MOL0     O 6422  -1.272   5.038   9.808  0.2421  0.0968 -0.1421
  807MOL0     C 6423  -1.411   5.049   9.837  0.5519  0.0193  0.7888
  807MOL0     C 6424  -1.476   4.928   9.817  0.6243  0.2489  0.2931
  807MOL0     C 6425  -1.607   4.922   9.840  0.7592  1.3837  1.0623
  807MOL0     C 6426  -1.681   5.034   9.870 -0.1489  0.8888 -0.1316
  807MOL0     O 6427  -1.813   5.012   9.902 -0.5396 -0.1252  0.2641
  807MOL0     C 6428  -1.886   5.114   9.970  0.1007 -0.0441 -0.3985
  807MOL0     C 6429  -2.013   5.060  10.029  0.1534 -0.1502  0.9147
  807MOL0     C 6430  -2.074   5.154  10.127 -0.2673  0.5325 -0.1145
  807MOL0     C 6431  -2.159   5.257  10.038  0.0839  0.1859 -0.5864
  807MOL0     C 6432  -2.251   5.363  10.115  0.4916  0.8029  0.2623
  807MOL0     C 6433  -2.281   5.476  10.019  1.1010 -0.3308 -0.4965
  807MOL0     C 6434  -2.365   5.576  10.099 -0.2112 -0.5279 -0.2376
  807MOL0     C 6435  -2.418   5.690  10.019  0.9569 -0.0581  0.0937
  807MOL0    Cl 6436  -2.499   5.651   9.866 -0.0323  0.0242 -0.2589
  807MOL0     C 6437  -1.620   5.158   9.873  0.4559 -0.7444  0.1900
  807MOL0     C 6438  -1.481   5.171   9.863  0.0814 -0.5937  0.5433
  807MOL0     O 6439  -1.202   4.992  10.016  0.6487  0.5553 -0.6584
  807MOL0     C 6440  -0.998   5.073   9.741  0.1167 -0.4998  0.5215
  807MOL0     C 6441  -0.863   5.080   9.709  0.1886  0.3717  0.5716
  807MOL0     N 6442  -0.022   4.770   9.907 -1.0950 -0.2204 -0.0139
  807MOL0     N 6443   0.100   4.775   9.958  0.1582  0.1542  0.8390
  807MOL0     C 6444   0.960   4.228  10.083 -0.1454 -0.5047 -0.0237
  807MOL0     C 6445   1.055   4.133  10.097  0.0784  0.2497 -0.3489
  807MOL0     C 6446   1.379   3.873  10.198  0.5472  0.5948  0.1308
  807MOL0     C 6447   1.392   3.740  10.163 -0.1435 -0.3585  0.8492
  807MOL0     C 6448   1.522   3.679  10.134 -0.9122  0.5966 -0.6096
  807MOL0     C 6449   1.634   3.763  10.147 -0.8400 -0.3852 -0.6536
  807MOL0     O 6450   1.768   3.726  10.140 -0.3962  1.1568  0.1469
  807MOL0     C 6451   1.808   3.591  10.119 -0.3153 -0.0724 -0.2949
  807MOL0     C 6452   1.815   3.526  10.257  0.3422 -0.3786  0.6401
  807MOL0     C 6453   1.958   3.516  10.296 -0.0815 -0.0902 -0.2644
  807MOL0     C 6454   1.982   3.458  10.428 -0.3780  1.0464  0.1024
  807MOL0     C 6455   2.126   3.441  10.460 -0.5273 -0.1217 -0.5927
  807MOL0     C 6456   2.246   3.423  10.498 -0.0225  0.4997 -0.1296
  807MOL0     C 6457   1.622   3.894  10.190 -0.2355  0.6407  1.4258
  807MOL0     C 6458   1.498   3.949  10.210  0.1150 -0.5724  0.1490
  807MOL0     H 6459   1.228   4.274  10.349  1.6908  0.4110 -2.2876
  807MOL0     H 6460   1.059   4.455  10.308 -3.5895  1.1287 -1.6391
  807MOL0     H 6461   0.971   4.600  10.184  1.4283 -1.3035  0.5198
  807MOL0     H 6462   0.818   4.586  10.279  1.9808 -0.8110  0.2699
  807MOL0     H 6463   0.798   4.755  10.102 -5.0931  0.2141  0.7406
  807MOL0     H 6464   0.687   4.615  10.084  0.6220 -0.3579 -0.4612
  807MOL0     H 6465   0.816   4.510   9.920  0.2097  0.0425  0.2384
  807MOL0     H 6466   0.951   4.622   9.932  0.0705  0.3556 -1.2599
  807MOL0     H 6467   0.783   4.809   9.851 -3.6392 -0.1947  2.7239
  807MOL0     H 6468   0.817   4.696   9.733  1.3597  4.1674  0.3419
  807MOL0     H 6469   0.588   4.589   9.875  1.3128 -1.8741 -1.0327
  807MOL0     H 6470   0.600   4.679   9.714 -1.2638  0.6330  0.9216
  807MOL0     H 6471   0.567   4.890   9.816 -0.3693 -1.6491 -3.4911
  807MOL0     H 6472   0.558   4.826   9.984 -0.3134  2.6181 -0.9086
  807MOL0     H 6473   0.379   4.784   9.723  2.9446 -1.1513 -0.5609
  807MOL0     H 6474   0.361   4.688   9.863  0.3738 -0.4222 -1.3040
  807MOL0     H 6475   0.333   5.004   9.847  0.3941  0.3246 -2.1477
  807MOL0     H 6476   0.337   4.909   9.991 -1.0773  0.7947  0.2977
  807MOL0     H 6477   0.095   4.975   9.693 -2.7765  0.5039 -0.3833
  807MOL0     H 6478  -0.184   4.774   9.645 -2.6064 -1.6174  1.7531
  807MOL0     H 6479  -0.150   4.948   9.641 -1.4887 -0.5137 -0.7484
  807MOL0     H 6480  -0.268   4.916   9.896  1.4168 -4.7034  1.4342
  807MOL0     H 6481  -0.330   4.781   9.819  0.4625  0.4383  1.9692
  807MOL0     H 6482  -0.354   5.067   9.735 -3.7101  1.1973  0.4835
  807MOL0     H 6483  -0.399   4.950   9.618  1.2613 -1.7076  0.6013
  807MOL0     H 6484  -0.508   4.995   9.907 -0.1363 -2.7541  1.2812
  807MOL0     H 6485  -0.566   4.863   9.803 -3.0206  1.6360  1.9500
  807MOL0     H 6486  -0.731   4.963   9.993 -2.0701 -5.8835  0.9898
  807MOL0     H 6487  -0.966   4.961  10.062 -0.2686  0.1933  0.2161
  807MOL0     H 6488  -1.429   4.833   9.792  0.3620 -0.2517  1.5933
  807MOL0     H 6489  -1.658   4.828   9.824  1.1464  1.3100  0.2124
  807MOL0     H 6490  -1.917   5.191   9.899 -0.8718 -1.1167 -1.1583
  807MOL0     H 6491  -1.821   5.162  10.045  1.2941 -2.2275  0.0343
  807MOL0     H 6492  -2.006   4.961  10.075 -2.4600 -1.8282 -1.8973
  807MOL0     H 6493  -2.090   5.040   9.954 -0.5418  1.4119  1.1672
  807MOL0     H 6494  -2.001   5.197  10.196  0.4575 -1.3017  0.3130
  807MOL0     H 6495  -2.140   5.095  10.193  0.7004 -0.0268  0.3775
  807MOL0     H 6496  -2.081   5.303   9.976  0.1025 -0.8061 -1.3276
  807MOL0     H 6497  -2.227   5.199   9.975 -0.0268 -1.8672  1.3246
  807MOL0     H 6498  -2.214   5.393  10.213  0.1782  0.2757  0.5451
  807MOL0     H 6499  -2.347   5.317  10.140  1.4618 -0.6328  1.4759
  807MOL0     H 6500  -2.329   5.432   9.931  0.6447 -0.5585 -0.1410
  807MOL0     H 6501  -2.186   5.519   9.987  2.2041 -1.3500  1.2996
  807MOL0     H 6502  -2.457   5.525  10.129 -0.4042  0.0550  0.1696
  807MOL0     H 6503  -2.313   5.609  10.189  0.9351 -0.3914 -0.9359
  807MOL0     H 6504  -2.338   5.760   9.995 -0.8865  2.8607  1.8699
  807MOL0     H 6505  -2.500   5.735  10.077  0.7228 -0.0957 -0.2048
  807MOL0     H 6506  -1.686   5.242   9.888  2.8670  2.0673 -3.2331
  807MOL0     H 6507  -1.438   5.270   9.860  0.6126 -0.8018  1.1501
  807MOL0     H 6508  -1.062   5.103   9.659  0.5448 -0.4672  0.1961
  807MOL0     H 6509  -0.841   5.108   9.607 -0.3414  0.6675  0.5375
  807MOL0     H 6510   0.874   4.215  10.018 -3.4639  0.3228  3.7485
  807MOL0     H 6511   1.048   4.044  10.036  0.4759  0.8575 -1.3161
  807MOL0     H 6512   1.310   3.669  10.168 -1.5970  0.9642 -1.9995
  807MOL0     H 6513   1.534   3.573  10.117 -0.2416  0.3268  1.3205
  807MOL0     H 6514   1.907   3.578  10.074 -0.8707  0.1361 -1.6332
  807MOL0     H 6515   1.742   3.540  10.048 -2.8065  1.5030  0.7616
  807MOL0     H 6516   1.754   3.584  10.327 -0.9320  0.6511 -1.2300
  807MOL0     H 6517   1.768   3.427  10.264  0.4895 -0.6527 -1.7161
  807MOL0     H 6518   2.005   3.615  10.300  1.0664 -0.5209 -2.0445
  807MOL0     H 6519   2.012   3.465  10.216 -1.4246  2.5631 -3.0732
  807MOL0     H 6520   1.936   3.525  10.501 -0.0775  0.4962  0.8115
  807MOL0     H 6521   1.935   3.359  10.428 -1.0298  1.3249 -1.1484
  807MOL0     H 6522   2.348   3.403  10.521  0.2533  0.7223 -1.1126
  807MOL0     H 6523   1.704   3.965  10.201  0.8743 -0.4071  0.2453
  807MOL0     H 6524   1.504   4.050  10.249  3.5059 -1.3361  1.9927
  808MOL0     O 6525   1.963   4.103   6.896 -0.3531  0.1366  0.3273
  808MOL0     C 6526   1.889   4.191   6.857  0.2265  0.3293  0.6689
  808MOL0     O 6527   1.914   4.270   6.752  0.0128 -0.0541 -0.1731
  808MOL0     C 6528   2.042   4.287   6.704  0.9798 -1.2399  0.1438
  808MOL0     C 6529   2.055   4.248   6.571  0.4432  0.1528 -0.3034
  808MOL0     C 6530   2.188   4.252   6.514  0.1890  0.4693 -0.2828
  808MOL0     C 6531   2.299   4.297   6.592 -0.3096  0.4871  0.3452
  808MOL0     O 6532   2.418   4.300   6.520  0.1589 -0.2622 -0.4927
  808MOL0     C 6533   2.540   4.345   6.587  0.3601  0.4860 -0.4655
  808MOL0     C 6534   2.656   4.331   6.496 -0.0619  0.0191  0.1777
  808MOL0     C 6535   2.775   4.424   6.541  0.5102 -0.2001 -0.4136
  808MOL0     C 6536   2.883   4.402   6.431  0.1876  0.4118 -0.0127
  808MOL0     C 6537   3.005   4.477   6.476  0.1570 -0.3111  0.5494
  808MOL0     C 6538   3.122   4.474   6.378  0.7884 -0.3331  0.1776
  808MOL0     C 6539   3.182   4.331   6.363 -0.1240 -0.4359  0.5220
  808MOL0     C 6540   3.315   4.311   6.443  0.5852 -0.0402  1.1419
  808MOL0     N 6541   3.298   4.315   6.586 -0.4165 -0.2054  0.1844
  808MOL0     C 6542   3.298   4.425   6.678 -0.3560 -0.1998  0.4569
  808MOL0     C 6543   3.257   4.380   6.794 -0.0486 -0.8103 -0.1988
  808MOL0     C 6544   3.253   4.450   6.923 -0.0261  0.6016 -0.0929
  808MOL0     C 6545   3.105   4.491   6.945  0.0943 -0.1698 -0.3111
  808MOL0     C 6546   3.092   4.626   6.874 -0.2847  0.1325  0.0595
  808MOL0     C 6547   2.953   4.662   6.879 -0.0542 -0.1638  0.0840
  808MOL0     O 6548   2.864   4.559   6.823 -0.0690 -0.0980 -0.5316
  808MOL0     C 6549   2.740   4.569   6.884  0.8161  0.0008  0.5412
  808MOL0     C 6550   2.699   4.479   6.978  0.1407  0.6050 -0.1938
  808MOL0     C 6551   2.581   4.482   7.043  0.4322 -0.4562  0.1358
  808MOL0     C 6552   2.492   4.590   7.007 -0.1716  0.4861 -0.0395
  808MOL0     C 6553   2.355   4.586   7.058  0.5351 -0.7487 -0.1443
  808MOL0     O 6554   2.290   4.705   7.071  0.1764  0.1464  0.7381
  808MOL0     C 6555   2.160   4.702   7.117  0.4061 -0.2518 -0.1722
  808MOL0     C 6556   2.046   4.654   7.044 -0.1080  0.1926  0.4656
  808MOL0     C 6557   1.916   4.657   7.098 -0.2543 -0.0121  0.4383
  808MOL0     C 6558   1.896   4.673   7.234  0.5653 -0.2702 -0.2798
  808MOL0     O 6559   1.777   4.646   7.294  0.1644 -0.5120 -0.4461
  808MOL0     C 6560   1.751   4.695   7.420  0.1873  0.1394 -0.5951
  808MOL0     C 6561   1.604   4.702   7.423 -0.0757  0.0402 -0.9562
  808MOL0     C 6562   1.547   4.737   7.570 -0.3754 -1.0839 -0.8019
  808MOL0     C 6563   1.402   4.694   7.587  0.6256  0.0755 -0.2327
  808MOL0     C 6564   1.306   4.804   7.558  0.1388  1.2249  0.4297
  808MOL0     C 6565   1.160   4.766   7.539  0.2583  0.0260  0.0960
  808MOL0     C 6566   1.096   4.754   7.681  0.3767  0.3535  0.0099
  808MOL0     C 6567   1.013   4.876   7.728 -0.0446  1.0520  0.1435
  808MOL0    Cl 6568   0.959   4.859   7.891 -0.4853  0.3333  0.1154
  808MOL0     C 6569   2.009   4.715   7.313 -0.2162 -0.0722  0.3721
  808MOL0     C 6570   2.134   4.726   7.254 -0.7676 -0.4418  0.1044
  808MOL0     O 6571   2.310   4.469   7.088 -0.5284 -0.5400 -0.0971
  808MOL0     C 6572   2.535   4.692   6.921 -0.3745  0.0970 -0.1497
  808MOL0     C 6573   2.655   4.679   6.852  0.0939  0.5208  0.5255
  808MOL0     N 6574   3.223   4.250   6.775  0.1007 -0.0159 -1.1351
  808MOL0     N 6575   3.237   4.217   6.653  0.0448  0.1245  0.4414
  808MOL0     C 6576   2.281   4.333   6.726 -0.1334 -0.0036 -0.1348
  808MOL0     C 6577   2.150   4.334   6.783 -0.3842  0.8774 -0.8161
  808MOL0     C 6578   1.760   4.207   6.928  0.2569 -0.4545  0.7566
  808MOL0     C 6579   1.686   4.106   6.981 -0.9212  0.4653  0.6493
  808MOL0     C 6580   1.566   4.124   7.053 -0.2008  0.9511 -0.1284
  808MOL0     C 6581   1.514   4.255   7.067 -1.1307  0.2829  0.5017
  808MOL0     O 6582   1.406   4.270   7.146 -0.2242 -0.1651 -0.0095
  808MOL0     C 6583   1.341   4.395   7.139 -0.4861  0.4910  1.0218
  808MOL0     C 6584   1.215   4.382   7.211  0.1624 -0.0598 -0.3180
  808MOL0     C 6585   1.114   4.504   7.207  0.4141 -0.1783 -0.6649
  808MOL0     C 6586   0.999   4.490   7.318  0.1537  0.3200  0.0032
  808MOL0     C 6587   0.915   4.367   7.290  0.0395  0.4460 -1.0218
  808MOL0     C 6588   0.833   4.278   7.276 -0.2797  0.6878 -0.4309
  808MOL0     C 6589   1.586   4.359   7.003  0.5000  0.0429  0.7393
  808MOL0     C 6590   1.708   4.338   6.935 -0.1400 -0.3468 -0.1899
  808MOL0     H 6591   1.968   4.214   6.515 -0.8585 -2.2759  2.8753
  808MOL0     H 6592   2.200   4.207   6.416 -0.1780 -0.0875 -0.0767
  808MOL0     H 6593   2.563   4.289   6.679 -0.1074  2.7982  1.1564
  808MOL0     H 6594   2.533   4.451   6.610 -1.3067 -0.0895  2.0730
  808MOL0     H 6595   2.608   4.348   6.399  0.8713  3.2644  0.1657
  808MOL0     H 6596   2.697   4.230   6.506  0.3224  0.4080  3.9158
  808MOL0     H 6597   2.805   4.394   6.642 -2.0418 -1.0345  0.1546
  808MOL0     H 6598   2.736   4.526   6.544 -0.7851 -0.7161  1.1943
  808MOL0     H 6599   2.907   4.297   6.412 -3.5097 -0.4304 -0.8467
  808MOL0     H 6600   2.846   4.442   6.336 -0.6278 -0.4774 -0.0906
  808MOL0     H 6601   3.033   4.428   6.570 -1.6293 -2.2281  0.1399
  808MOL0     H 6602   2.980   4.580   6.502 -0.8124  0.0816 -1.7011
  808MOL0     H 6603   3.202   4.546   6.396 -0.6066  0.7086  2.6299
  808MOL0     H 6604   3.076   4.496   6.281 -1.8419 -0.7493  1.2405
  808MOL0     H 6605   3.110   4.261   6.406  0.4789 -1.8758 -0.7548
  808MOL0     H 6606   3.207   4.307   6.259 -2.6060 -3.4177  0.4622
  808MOL0     H 6607   3.402   4.369   6.411  1.9066 -2.5286 -0.1215
  808MOL0     H 6608   3.346   4.209   6.417 -0.1662 -0.1005  0.4300
  808MOL0     H 6609   3.318   4.528   6.652 -0.8798 -0.3679 -0.6640
  808MOL0     H 6610   3.326   4.531   6.930  0.5336  0.2190 -1.2285
  808MOL0     H 6611   3.282   4.383   7.005  2.3053  1.3350 -0.2493
  808MOL0     H 6612   3.080   4.508   7.050 -0.4018  0.0528 -0.4618
  808MOL0     H 6613   3.039   4.413   6.905  0.8707 -0.6129 -0.7610
  808MOL0     H 6614   3.147   4.704   6.927 -2.8211  0.9353  1.6338
  808MOL0     H 6615   3.118   4.622   6.768 -2.9035  2.7362 -0.8044
  808MOL0     H 6616   2.941   4.758   6.828  0.6091  1.8092  3.4182
  808MOL0     H 6617   2.931   4.683   6.984 -1.7689 -1.9667  0.1431
  808MOL0     H 6618   2.765   4.395   6.993  2.1494  2.1817  0.3437
  808MOL0     H 6619   2.556   4.403   7.113 -2.6101 -1.8548 -2.2911
  808MOL0     H 6620   2.062   4.615   6.944 -2.0534 -3.4287  1.3914
  808MOL0     H 6621   1.827   4.633   7.039 -0.1797 -2.5344  1.2516
  808MOL0     H 6622   1.779   4.801   7.423  1.5972 -0.1099 -2.8230
  808MOL0     H 6623   1.804   4.641   7.499 -0.4431  4.7525  3.4137
  808MOL0     H 6624   1.558   4.615   7.375 -1.1390 -0.1901  0.4251
  808MOL0     H 6625   1.564   4.780   7.357 -1.3837  0.2829  0.0979
  808MOL0     H 6626   1.575   4.839   7.598 -2.2339 -1.2923  2.2032
  808MOL0     H 6627   1.609   4.685   7.643 -1.4713 -1.1150  0.1148
  808MOL0     H 6628   1.387   4.611   7.518  1.1953 -1.1097  1.0339
  808MOL0     H 6629   1.380   4.668   7.691 -3.3102 -0.7213 -1.1199
  808MOL0     H 6630   1.335   4.847   7.462  0.2537 -2.8695 -1.5919
  808MOL0     H 6631   1.315   4.889   7.625 -1.0506  0.8859  1.0461
  808MOL0     H 6632   1.157   4.675   7.477  0.8570 -0.3532  0.6068
  808MOL0     H 6633   1.098   4.836   7.483 -0.1682  0.8636  1.5678
  808MOL0     H 6634   1.013   4.684   7.665 -0.0674  1.0277 -0.6868
  808MOL0     H 6635   1.170   4.719   7.755 -0.5383 -1.8753 -0.0471
  808MOL0     H 6636   0.932   4.888   7.656  1.2062  1.4170 -1.2683
  808MOL0     H 6637   1.074   4.967   7.721  0.4934  0.6076 -1.4563
  808MOL0     H 6638   2.004   4.746   7.418 -0.0317  1.6794 -0.0961
  808MOL0     H 6639   2.223   4.763   7.304  0.4412  0.8722 -2.8381
  808MOL0     H 6640   2.469   4.777   6.906  1.5260  1.7540  0.3974
  808MOL0     H 6641   2.701   4.751   6.784  0.9108  0.7415  1.2927
  808MOL0     H 6642   2.363   4.370   6.787  0.4856 -1.0457 -0.3149
  808MOL0     H 6643   2.148   4.361   6.888  0.4329  0.3463 -0.6568
  808MOL0     H 6644   1.723   4.008   6.954 -1.2944  1.0051 -2.0795
  808MOL0     H 6645   1.510   4.037   7.084 -1.4922  1.1528 -1.7908
  808MOL0     H 6646   1.307   4.425   7.039  0.3874  0.3739  0.6813
  808MOL0     H 6647   1.406   4.472   7.181 -1.6954  1.8786  0.4241
  808MOL0     H 6648   1.163   4.290   7.181 -0.2019 -1.1338  3.1334
  808MOL0     H 6649   1.240   4.363   7.315 -0.0449 -0.1850 -0.2891
  808MOL0     H 6650   1.063   4.515   7.111 -1.8190  2.3907  0.6581
  808MOL0     H 6651   1.172   4.597   7.208 -0.0921  0.1886 -2.1170
  808MOL0     H 6652   1.045   4.499   7.417 -1.8545 -0.1741  1.0228
  808MOL0     H 6653   0.934   4.577   7.308  0.8335  0.7940 -0.3949
  808MOL0     H 6654   0.765   4.201   7.247  0.1032  0.8873 -1.9991
  808MOL0     H 6655   1.550   4.461   6.994 -0.1029 -0.1822  0.6073
  808MOL0     H 6656   1.762   4.420   6.890  0.5068 -0.8594 -0.3567
  809MOL0     O 6657   9.431   6.145   9.635 -0.6684 -0.2536  0.5641
  809MOL0     C 6658   9.506   6.220   9.701  0.1342 -0.1286 -0.5443
  809MOL0     O 6659   9.473   6.285   9.818 -0.8299  0.4357 -0.0241
  809MOL0     C 6660   9.341   6.281   9.858 -0.5333 -0.3409 -0.7569
  809MOL0     C 6661   9.326   6.296  10.000 -0.4605  1.4378  0.0342
  809MOL0     C 6662   9.200   6.294  10.063 -0.7830 -0.1774  0.2167
  809MOL0     C 6663   9.084   6.289   9.989 -0.0671 -0.5099 -0.2628
  809MOL0     O 6664   8.955   6.289  10.034  0.2444 -0.7903  0.6702
  809MOL0     C 6665   8.919   6.307  10.177 -0.3470  0.4035  0.0535
  809MOL0     C 6666   8.910   6.178  10.255  0.0596  0.2705  0.5165
  809MOL0     C 6667   8.825   6.067  10.186  0.2897  0.2668 -0.3673
  809MOL0     C 6668   8.691   6.113  10.132 -0.5492 -0.1570 -0.0475
  809MOL0     C 6669   8.591   6.010  10.079 -0.1676  0.1089 -0.5000
  809MOL0     C 6670   8.550   5.928  10.199  1.0244  0.6706  0.5594
  809MOL0     C 6671   8.414   5.852  10.168 -0.3922  0.1497  0.2411
  809MOL0     C 6672   8.434   5.706  10.111 -0.1486 -0.1883  0.3014
  809MOL0     N 6673   8.485   5.617  10.219 -0.0622  0.5358  0.0840
  809MOL0     C 6674   8.416   5.580  10.334 -0.3265 -0.1044  0.2855
  809MOL0     C 6675   8.499   5.491  10.397 -0.1045 -0.0606  0.5889
  809MOL0     C 6676   8.500   5.438  10.542  0.4193 -0.4407 -0.0642
  809MOL0     C 6677   8.406   5.322  10.561  0.3751 -0.2481 -0.4275
  809MOL0     C 6678   8.388   5.287  10.704  0.5038 -0.2908  0.0786
  809MOL0     C 6679   8.311   5.153  10.725  0.4904 -0.2680  0.7175
  809MOL0     O 6680   8.180   5.145  10.671  0.7120 -0.0985  0.0296
  809MOL0     C 6681   8.079   5.230  10.715 -0.3105  0.1929 -0.5565
  809MOL0     C 6682   8.053   5.257  10.843  0.4819  0.5743 -0.1801
  809MOL0     C 6683   7.952   5.349  10.882 -0.1786  0.1314  0.4554
  809MOL0     C 6684   7.863   5.410  10.786  0.8960 -0.6417  0.0178
  809MOL0     C 6685   7.752   5.503  10.824  0.3092  0.0900  0.0906
  809MOL0     O 6686   7.711   5.600  10.732  0.4000  0.0178  0.2494
  809MOL0     C 6687   7.617   5.690  10.779  0.8258  0.3060  0.7919
  809MOL0     C 6688   7.488   5.644  10.807 -0.4946 -0.7511 -1.2878
  809MOL0     C 6689   7.382   5.729  10.831  1.0379 -0.4101 -0.4329
  809MOL0     C 6690   7.413   5.868  10.847 -0.2383 -0.0226  0.5013
  809MOL0     O 6691   7.301   5.935  10.886  0.3077  0.0826  0.0148
  809MOL0     C 6692   7.263   6.071  10.841 -0.0808  0.2069 -0.7133
  809MOL0     C 6693   7.108   6.087  10.825 -0.3076 -0.3063 -0.6847
  809MOL0     C 6694   7.070   6.216  10.755 -0.2862  0.2816  0.4924
  809MOL0     C 6695   7.139   6.221  10.612  0.1535  0.5773  0.4225
  809MOL0     C 6696   7.061   6.316  10.517  0.1319 -0.4063  0.3036
  809MOL0     C 6697   7.037   6.454  10.575 -0.6117 -0.0425  0.2797
  809MOL0     C 6698   7.173   6.527  10.616 -0.1287  0.4589 -0.5855
  809MOL0     C 6699   7.143   6.669  10.632 -0.1287  0.7570 -0.9593
  809MOL0    Cl 6700   7.288   6.768  10.673  0.4247  0.3504 -0.0795
  809MOL0     C 6701   7.546   5.915  10.832 -0.7057  0.0238  0.3374
  809MOL0     C 6702   7.641   5.824  10.778 -0.1541 -0.3350 -0.1303
  809MOL0     O 6703   7.704   5.494  10.939 -0.3650 -0.2020 -0.1297
  809MOL0     C 6704   7.888   5.383  10.654 -0.2106  0.3046 -0.3456
  809MOL0     C 6705   7.997   5.296  10.620  0.5945  0.3507 -0.9581
  809MOL0     N 6706   8.595   5.446  10.306  0.5134  1.2081 -0.2510
  809MOL0     N 6707   8.591   5.534  10.208  0.2837  0.3335  1.0265
  809MOL0     C 6708   9.095   6.281   9.850 -0.2724 -0.4163  0.3671
  809MOL0     C 6709   9.225   6.276   9.785  0.0548 -0.4443 -0.2394
  809MOL0     C 6710   9.646   6.228   9.646  0.3539  0.6265 -0.2124
  809MOL0     C 6711   9.740   6.320   9.711  0.5340 -0.2140 -0.1554
  809MOL0     C 6712   9.880   6.327   9.687 -0.3876  0.3443 -0.4404
  809MOL0     C 6713   9.924   6.250   9.575  0.1830 -0.7018  0.2164
  809MOL0     O 6714  10.064   6.270   9.532  0.0930 -0.6694 -1.1553
  809MOL0     C 6715  10.108   6.226   9.408 -0.3950  0.2165  0.0424
  809MOL0     C 6716  10.242   6.298   9.378  0.7634  0.4533  0.1840
  809MOL0     C 6717  10.360   6.233   9.443 -0.1976 -0.1874 -0.0507
  809MOL0     C 6718  10.482   6.327   9.478  0.4844  0.1362 -0.1854
  809MOL0     C 6719  10.502   6.420   9.365 -0.4322 -0.3880  1.3939
  809MOL0     C 6720  10.531   6.479   9.261  0.0652 -0.3077  0.0503
  809MOL0     C 6721   9.836   6.162   9.513  0.2815 -0.4401  0.1855
  809MOL0     C 6722   9.701   6.153   9.541 -0.0381  0.2951 -0.8977
  809MOL0     H 6723   9.414   6.298  10.063  1.1518 -0.6532 -2.0038
  809MOL0     H 6724   9.194   6.298  10.171 -0.1104  2.3591  0.2249
  809MOL0     H 6725   8.824   6.361  10.182  0.4900  1.8273  1.5569
  809MOL0     H 6726   8.989   6.371  10.231 -1.9347  1.0125  1.4866
  809MOL0     H 6727   8.874   6.196  10.357 -2.0709 -2.3099  0.3406
  809MOL0     H 6728   9.014   6.144  10.255 -0.4975 -1.5778  0.8263
  809MOL0     H 6729   8.818   5.985  10.257  0.4205  0.3890 -0.2109
  809MOL0     H 6730   8.891   6.024  10.110 -0.2541  1.1712 -1.3737
  809MOL0     H 6731   8.652   6.169  10.218  2.1827 -1.7709  2.4717
  809MOL0     H 6732   8.695   6.184  10.049 -5.2891 -1.5743 -1.7869
  809MOL0     H 6733   8.634   5.954   9.995  3.0070 -0.1684  1.1701
  809MOL0     H 6734   8.507   6.063  10.031 -0.4006  0.3041  0.1219
  809MOL0     H 6735   8.546   5.986  10.291  2.8460 -2.0433  2.5069
  809MOL0     H 6736   8.631   5.858  10.222  1.7991  1.3384 -0.0791
  809MOL0     H 6737   8.362   5.832  10.262  0.2474 -0.0202  0.5699
  809MOL0     H 6738   8.354   5.914  10.102 -1.4466 -0.3034  0.7560
  809MOL0     H 6739   8.510   5.715  10.033 -1.9798  1.0315 -1.4790
  809MOL0     H 6740   8.338   5.667  10.074 -0.4049 -0.0025  0.7615
  809MOL0     H 6741   8.317   5.603  10.372 -0.0944  1.2873  0.1035
  809MOL0     H 6742   8.467   5.516  10.610 -0.8325 -1.0804  0.0878
  809MOL0     H 6743   8.598   5.403  10.574  0.0842  1.2834  3.1881
  809MOL0     H 6744   8.461   5.240  10.515  3.7841  0.2435  2.3287
  809MOL0     H 6745   8.305   5.318  10.519  0.4389 -0.0009 -0.6055
  809MOL0     H 6746   8.484   5.297  10.757 -0.0236 -1.4541  1.2988
  809MOL0     H 6747   8.317   5.362  10.740  1.0250  0.3689 -0.2482
  809MOL0     H 6748   8.305   5.148  10.834  1.6522 -4.2279  0.7604
  809MOL0     H 6749   8.365   5.063  10.695 -1.1097 -2.0264  2.7395
  809MOL0     H 6750   8.111   5.202  10.916  1.8989  0.1727 -1.5683
  809MOL0     H 6751   7.937   5.359  10.989 -2.5971 -0.5266  0.2466
  809MOL0     H 6752   7.471   5.537  10.817  2.0301 -1.0754  0.6135
  809MOL0     H 6753   7.283   5.695  10.859  0.1145  1.1771 -1.5477
  809MOL0     H 6754   7.329   6.085  10.755  1.7719 -2.4030  0.1548
  809MOL0     H 6755   7.282   6.146  10.918 -1.3456 -1.4861  1.3363
  809MOL0     H 6756   7.066   6.097  10.926  2.9883  0.3320  0.7682
  809MOL0     H 6757   7.072   6.000  10.770 -1.9825  0.4387 -0.8018
  809MOL0     H 6758   7.106   6.304  10.809  0.9642 -0.2009  0.4726
  809MOL0     H 6759   6.961   6.224  10.746 -0.3227 -0.0933  0.5634
  809MOL0     H 6760   7.239   6.265  10.619 -0.1356  1.9000 -2.3918
  809MOL0     H 6761   7.133   6.122  10.567 -0.9404 -1.4140  4.4877
  809MOL0     H 6762   6.956   6.286  10.515  0.0071  0.0428  0.0230
  809MOL0     H 6763   7.105   6.334  10.418  1.5200 -0.4668  0.8777
  809MOL0     H 6764   6.962   6.467  10.653  0.7553  1.3247  1.4519
  809MOL0     H 6765   6.989   6.501  10.489 -2.0669 -1.0386  0.5219
  809MOL0     H 6766   7.223   6.475  10.698  0.7957  0.4019 -1.1744
  809MOL0     H 6767   7.243   6.512  10.533 -2.6928  0.6884 -2.9428
  809MOL0     H 6768   7.074   6.670  10.717  1.3453 -0.2137  0.3046
  809MOL0     H 6769   7.103   6.709  10.539 -1.6206  1.3064 -0.1095
  809MOL0     H 6770   7.570   6.019  10.850 -0.7072  0.0999 -0.1081
  809MOL0     H 6771   7.739   5.854  10.742 -0.3417 -1.2824 -1.5326
  809MOL0     H 6772   7.836   5.432  10.572  0.6741  1.2661 -0.3602
  809MOL0     H 6773   8.020   5.268  10.518 -0.4531 -1.6141 -0.7028
  809MOL0     H 6774   9.010   6.287   9.783 -0.3607  1.1762  0.5745
  809MOL0     H 6775   9.239   6.270   9.678  0.4570  1.3023 -0.3165
  809MOL0     H 6776   9.708   6.366   9.804 -3.0725 -0.9911 -0.8426
  809MOL0     H 6777   9.954   6.383   9.744  0.7768 -0.7799 -0.7861
  809MOL0     H 6778  10.034   6.247   9.331  2.1147  0.5880 -2.4246
  809MOL0     H 6779  10.112   6.116   9.405  0.0374  0.2462 -1.8241
  809MOL0     H 6780  10.255   6.310   9.270  1.4353  1.3335  0.3507
  809MOL0     H 6781  10.218   6.396   9.422 -0.7831  0.5145 -0.7056
  809MOL0     H 6782  10.394   6.152   9.379  1.8007  0.0446  0.6535
  809MOL0     H 6783  10.326   6.179   9.532 -2.0962 -2.6221 -2.0902
  809MOL0     H 6784  10.464   6.384   9.569  0.2001  1.6123 -1.1294
  809MOL0     H 6785  10.570   6.265   9.494  2.9525  3.3385 -0.4694
  809MOL0     H 6786  10.556   6.529   9.169  1.8370  2.1802  1.7308
  809MOL0     H 6787   9.873   6.118   9.422 -3.0684 -1.1832 -0.9794
  809MOL0     H 6788   9.637   6.087   9.483 -2.2158  1.9563 -0.5054
  810MOL0     O 6789   8.496   7.236   6.579  0.6678 -0.7272 -0.1204
  810MOL0     C 6790   8.529   7.232   6.461  0.1678  0.0576 -0.1461
  810MOL0     O 6791   8.469   7.171   6.356  0.6579  0.6943  0.1666
  810MOL0     C 6792   8.366   7.093   6.397  1.9560 -0.5768 -0.0629
  810MOL0     C 6793   8.380   6.955   6.410 -0.1477 -0.5292  0.1761
  810MOL0     C 6794   8.278   6.872   6.478  0.0359 -0.7658 -1.0523
  810MOL0     C 6795   8.158   6.925   6.513  0.2211  0.1389 -0.0020
  810MOL0     O 6796   8.069   6.832   6.562  0.2873  0.1318  0.4676
  810MOL0     C 6797   7.944   6.876   6.611  0.0339 -0.7248 -0.3092
  810MOL0     C 6798   7.862   6.754   6.650  0.2463 -0.3732  0.3705
  810MOL0     C 6799   7.826   6.677   6.521  0.4347  0.2040  0.5747
  810MOL0     C 6800   7.719   6.569   6.560 -0.8202  0.4313  0.2483
  810MOL0     C 6801   7.675   6.485   6.443 -0.1271  0.3495 -0.3247
  810MOL0     C 6802   7.554   6.399   6.467  0.7556 -0.9024 -0.4570
  810MOL0     C 6803   7.519   6.296   6.352  0.3694  0.7582 -0.0714
  810MOL0     C 6804   7.372   6.262   6.357  1.4705 -0.4913 -0.9406
  810MOL0     N 6805   7.327   6.198   6.483  0.8276  0.4691  0.7276
  810MOL0     C 6806   7.353   6.064   6.504 -0.6632 -0.1248  1.2135
  810MOL0     C 6807   7.313   6.052   6.635  0.2104  0.1241  0.9483
  810MOL0     C 6808   7.304   5.930   6.726  0.1544  0.0921  0.6360
  810MOL0     C 6809   7.179   5.846   6.697 -0.8344  0.0159  0.2645
  810MOL0     C 6810   7.148   5.762   6.816  0.8987  0.2687 -0.1401
  810MOL0     C 6811   7.041   5.654   6.792  0.9037 -0.2376  0.4500
  810MOL0     O 6812   6.921   5.734   6.769  0.3122  0.4056 -0.5954
  810MOL0     C 6813   6.806   5.672   6.745  1.4280  0.2706 -0.5291
  810MOL0     C 6814   6.711   5.733   6.668 -0.0297 -0.2856  0.3322
  810MOL0     C 6815   6.594   5.671   6.620 -0.3353 -0.6399 -0.7222
  810MOL0     C 6816   6.556   5.547   6.678  0.3971  0.4273  0.8169
  810MOL0     C 6817   6.434   5.471   6.639  0.7793  0.5651 -1.9548
  810MOL0     O 6818   6.352   5.522   6.552 -0.7042  0.4767 -0.3433
  810MOL0     C 6819   6.231   5.468   6.534 -0.5227  0.0662 -0.2567
  810MOL0     C 6820   6.203   5.358   6.441 -0.2574 -1.1436  0.2095
  810MOL0     C 6821   6.072   5.307   6.430  0.0214  0.4034  0.6589
  810MOL0     C 6822   5.964   5.362   6.507  0.0150 -0.0796  0.1219
  810MOL0     O 6823   5.832   5.322   6.497 -0.9049  0.4144 -0.4760
  810MOL0     C 6824   5.778   5.357   6.374  0.6374  0.3111  0.7832
  810MOL0     C 6825   5.640   5.280   6.373  0.5427  0.9576  0.0707
  810MOL0     C 6826   5.546   5.331   6.265  0.3943  0.1326 -0.5774
  810MOL0     C 6827   5.425   5.240   6.239  0.5699  1.0139 -0.3916
  810MOL0     C 6828   5.314   5.276   6.340 -1.0971  0.8650  0.3127
  810MOL0     C 6829   5.225   5.152   6.347  0.6085 -0.2695 -1.4177
  810MOL0     C 6830   5.164   5.103   6.216 -1.2069  0.6565 -0.1507
  810MOL0     C 6831   5.088   4.971   6.235 -0.8385  0.0026 -0.1126
  810MOL0    Cl 6832   4.952   4.986   6.345  0.8694  0.0830 -0.2392
  810MOL0     C 6833   5.998   5.467   6.591 -0.5145  0.6453 -0.8585
  810MOL0     C 6834   6.128   5.517   6.603 -0.2689 -0.4708 -0.4761
  810MOL0     O 6835   6.427   5.353   6.681 -0.0776 -0.0940  0.6579
  810MOL0     C 6836   6.656   5.479   6.751  0.1822  0.0390 -0.6058
  810MOL0     C 6837   6.774   5.546   6.792 -0.7474  0.4125 -0.5347
  810MOL0     N 6838   7.280   6.180   6.687  0.3752  0.5745  0.6699
  810MOL0     N 6839   7.288   6.261   6.593  0.6610  0.2870  0.3663
  810MOL0     C 6840   8.139   7.066   6.491  0.3451 -0.0330 -0.0742
  810MOL0     C 6841   8.243   7.147   6.441  0.9240  0.2756  0.0724
  810MOL0     C 6842   8.656   7.294   6.431  0.4579  0.1842 -0.1361
  810MOL0     C 6843   8.683   7.340   6.301  0.4595  0.7212 -0.6384
  810MOL0     C 6844   8.814   7.395   6.276 -0.1365  0.3291  0.2125
  810MOL0     C 6845   8.911   7.390   6.371 -0.1100 -0.7529 -0.7380
  810MOL0     O 6846   9.038   7.439   6.349 -0.8425  0.2531 -0.3282
  810MOL0     C 6847   9.085   7.441   6.218  0.4057  0.1766 -0.0614
  810MOL0     C 6848   9.234   7.413   6.219 -0.3491 -0.7149  0.3106
  810MOL0     C 6849   9.331   7.495   6.300  0.3243 -0.1077  0.1344
  810MOL0     C 6850   9.472   7.479   6.280  0.6744  0.0782  0.5079
  810MOL0     C 6851   9.513   7.334   6.293 -0.9171  0.1746 -0.2962
  810MOL0     C 6852   9.556   7.221   6.304  0.4819  0.6100 -0.5421
  810MOL0     C 6853   8.879   7.341   6.493 -0.1159 -0.0889  0.4980
  810MOL0     C 6854   8.755   7.308   6.533 -0.5449  0.3697 -0.2867
  810MOL0     H 6855   8.471   6.903   6.384  0.5865 -0.6147  2.6532
  810MOL0     H 6856   8.288   6.765   6.492  0.4338 -0.6112 -0.1279
  810MOL0     H 6857   7.898   6.939   6.534  1.2443  1.2404  0.5211
  810MOL0     H 6858   7.951   6.934   6.703 -4.6333  0.8551 -0.6605
  810MOL0     H 6859   7.775   6.799   6.697 -0.3170 -2.5579  1.5442
  810MOL0     H 6860   7.919   6.696   6.724 -1.0971 -1.6609  0.4517
  810MOL0     H 6861   7.909   6.635   6.465  0.0650 -1.1238  0.9928
  810MOL0     H 6862   7.778   6.745   6.449  3.3856  0.8550 -0.9068
  810MOL0     H 6863   7.764   6.507   6.637 -0.5073  0.0098 -0.2664
  810MOL0     H 6864   7.631   6.614   6.607 -0.4301  0.9180  0.5202
  810MOL0     H 6865   7.757   6.427   6.401  2.2114  1.4502  2.4042
  810MOL0     H 6866   7.647   6.561   6.369 -1.3474  2.6572  2.3372
  810MOL0     H 6867   7.466   6.460   6.487  3.0356  2.1687  1.0146
  810MOL0     H 6868   7.568   6.349   6.564  0.5887 -0.4169 -0.1799
  810MOL0     H 6869   7.533   6.346   6.256  0.5733 -2.1635 -1.6466
  810MOL0     H 6870   7.586   6.211   6.362  1.1230  1.5445  2.2738
  810MOL0     H 6871   7.357   6.187   6.279  3.2850 -3.3696  1.2702
  810MOL0     H 6872   7.308   6.351   6.346  0.9044 -0.4123  2.1098
  810MOL0     H 6873   7.408   6.000   6.436  0.6373  2.6250 -0.5426
  810MOL0     H 6874   7.297   5.974   6.826 -0.5432 -2.1120  1.6028
  810MOL0     H 6875   7.396   5.871   6.713  1.1374  1.8986 -1.1528
  810MOL0     H 6876   7.197   5.793   6.602  0.4156  0.3094  0.3241
  810MOL0     H 6877   7.096   5.915   6.678 -0.2579  0.5960 -0.1562
  810MOL0     H 6878   7.240   5.720   6.858  1.5895 -1.5518 -3.1153
  810MOL0     H 6879   7.114   5.832   6.892  2.4196  1.0237 -0.1068
  810MOL0     H 6880   7.022   5.592   6.880  0.1872 -0.7769 -0.0728
  810MOL0     H 6881   7.072   5.588   6.711  0.8734 -1.0416  1.0849
  810MOL0     H 6882   6.738   5.832   6.631 -0.1820 -0.2380  0.3494
  810MOL0     H 6883   6.520   5.723   6.560  0.0892  0.3254 -0.4282
  810MOL0     H 6884   6.281   5.303   6.390  0.8591 -0.0989  0.7237
  810MOL0     H 6885   6.054   5.227   6.358  2.0755  0.2781  0.2392
  810MOL0     H 6886   5.838   5.313   6.294 -0.7163 -0.1687 -0.0028
  810MOL0     H 6887   5.777   5.466   6.359  2.5870  0.3393  0.6438
  810MOL0     H 6888   5.590   5.278   6.470  0.3737  0.1911 -0.0282
  810MOL0     H 6889   5.664   5.177   6.346  0.5306  0.7176  0.9771
  810MOL0     H 6890   5.601   5.349   6.171  0.5663 -1.4983 -0.8256
  810MOL0     H 6891   5.499   5.421   6.303 -2.0596 -1.5450  0.6039
  810MOL0     H 6892   5.401   5.265   6.135 -4.1001 -0.6750  0.0377
  810MOL0     H 6893   5.440   5.132   6.242 -4.1751  0.1376  1.7461
  810MOL0     H 6894   5.264   5.368   6.308 -1.5544  0.5110 -0.0103
  810MOL0     H 6895   5.351   5.285   6.442 -0.5916 -0.9355  0.3318
  810MOL0     H 6896   5.145   5.181   6.417  0.4205  1.0435 -2.1410
  810MOL0     H 6897   5.278   5.072   6.398  0.1424 -0.8652 -1.8539
  810MOL0     H 6898   5.099   5.181   6.173  0.7377  1.7452 -1.2434
  810MOL0     H 6899   5.244   5.069   6.150  0.0393 -0.7745  1.9967
  810MOL0     H 6900   5.155   4.889   6.265  0.9385 -0.4176 -4.5125
  810MOL0     H 6901   5.043   4.945   6.140 -3.8244  0.7825  0.9790
  810MOL0     H 6902   5.912   5.520   6.629  0.1766  0.1165  1.6499
  810MOL0     H 6903   6.140   5.609   6.659  1.4419 -0.2412 -1.1460
  810MOL0     H 6904   6.639   5.376   6.783 -0.7520 -0.2107 -1.8409
  810MOL0     H 6905   6.848   5.491   6.849  0.5390  0.9881 -1.6027
  810MOL0     H 6906   8.047   7.114   6.522 -0.3390 -0.7566 -0.9592
  810MOL0     H 6907   8.229   7.254   6.434  1.3550  0.6585  3.5893
  810MOL0     H 6908   8.600   7.337   6.232  0.2270 -2.0306 -0.3642
  810MOL0     H 6909   8.837   7.435   6.178 -0.9016 -1.7334 -0.8597
  810MOL0     H 6910   9.071   7.539   6.171  2.6242 -0.0899 -1.4045
  810MOL0     H 6911   9.039   7.363   6.158  1.4741  0.4551 -1.3028
  810MOL0     H 6912   9.254   7.311   6.254 -0.2788 -1.1776 -1.0060
  810MOL0     H 6913   9.265   7.419   6.114 -0.4537  0.5799  0.3433
  810MOL0     H 6914   9.299   7.490   6.404  0.5447 -1.9106  0.1470
  810MOL0     H 6915   9.314   7.594   6.256 -2.1742 -1.5059 -2.4471
  810MOL0     H 6916   9.491   7.513   6.178 -0.7258  0.2861  0.3024
  810MOL0     H 6917   9.530   7.544   6.346  1.1796 -1.1981  1.3656
  810MOL0     H 6918   9.587   7.118   6.302  2.6462  1.2025 -0.2069
  810MOL0     H 6919   8.959   7.326   6.566 -1.2331 -0.1811  1.7531
  810MOL0     H 6920   8.734   7.275   6.634  1.4133 -0.6710 -0.1577
  811MOL0     O 6921   6.257   1.399   2.935 -0.6134  0.1511  0.0248
  811MOL0     C 6922   6.284   1.327   2.838 -0.6428  0.1266  0.6493
  811MOL0     O 6923   6.212   1.227   2.782  0.4872  0.1827 -0.9892
  811MOL0     C 6924   6.080   1.187   2.811  0.0611  0.0893  0.8667
  811MOL0     C 6925   5.988   1.243   2.901  0.1065  0.3789  0.4920
  811MOL0     C 6926   5.854   1.195   2.899 -0.6120 -1.1936  0.8929
  811MOL0     C 6927   5.819   1.086   2.825  0.1422 -0.9512 -0.9582
  811MOL0     O 6928   5.684   1.053   2.813  0.2979 -0.2238  0.5502
  811MOL0     C 6929   5.633   0.962   2.714 -0.7539  0.6064 -0.0734
  811MOL0     C 6930   5.484   0.959   2.724 -0.7224 -0.6567  0.2015
  811MOL0     C 6931   5.442   0.875   2.602  0.3825 -0.4297  0.8430
  811MOL0     C 6932   5.296   0.833   2.608 -0.3517  0.4089  1.0609
  811MOL0     C 6933   5.262   0.751   2.481 -0.1973 -0.2166  0.9214
  811MOL0     C 6934   5.111   0.744   2.458  0.1846 -0.3964  0.0799
  811MOL0     C 6935   5.045   0.648   2.565 -0.2676 -0.3488  0.3045
  811MOL0     C 6936   4.904   0.616   2.519 -0.0498 -0.8978  0.3105
  811MOL0     N 6937   4.811   0.726   2.545  0.4668 -0.7126 -0.5601
  811MOL0     C 6938   4.738   0.789   2.447 -0.1102 -0.6642  0.5284
  811MOL0     C 6939   4.659   0.882   2.506 -0.2927 -0.9166 -0.8270
  811MOL0     C 6940   4.567   0.986   2.451  0.4258  0.2660 -0.8298
  811MOL0     C 6941   4.643   1.104   2.395 -0.2536  1.1500  0.5119
  811MOL0     C 6942   4.734   1.069   2.274  0.2506  0.9275 -0.6445
  811MOL0     C 6943   4.781   1.189   2.187 -0.0234  0.0315  0.7368
  811MOL0     O 6944   4.901   1.163   2.115 -0.0860  0.0409 -1.0799
  811MOL0     C 6945   4.991   1.266   2.097  0.0125 -0.0698  0.9543
  811MOL0     C 6946   5.109   1.229   2.049 -0.3188 -0.0055 -0.0032
  811MOL0     C 6947   5.219   1.315   2.050  0.0788  0.4307 -0.5313
  811MOL0     C 6948   5.204   1.450   2.078  0.4395  0.2411 -2.0529
  811MOL0     C 6949   5.308   1.552   2.048 -0.0028  1.3492 -0.8411
  811MOL0     O 6950   5.425   1.484   2.013  0.0719  0.5320  0.8445
  811MOL0     C 6951   5.518   1.561   1.943  0.9854  0.1952 -0.8359
  811MOL0     C 6952   5.481   1.630   1.827 -0.5274 -0.5170  0.6235
  811MOL0     C 6953   5.570   1.707   1.759 -0.8606 -0.0826  0.1719
  811MOL0     C 6954   5.708   1.719   1.797  0.7507  0.0432 -0.4330
  811MOL0     O 6955   5.785   1.819   1.743  0.0097 -0.2858 -0.1041
  811MOL0     C 6956   5.926   1.826   1.775  1.2730 -0.1864 -0.1976
  811MOL0     C 6957   5.996   1.934   1.693  0.5367  0.1437 -0.8212
  811MOL0     C 6958   6.082   1.885   1.580 -0.2886  0.3175 -0.6382
  811MOL0     C 6959   6.199   1.792   1.609 -0.1729 -0.0218  0.5953
  811MOL0     C 6960   6.305   1.866   1.687  0.0058 -0.0172  0.0355
  811MOL0     C 6961   6.416   1.780   1.747 -0.2568  0.5049 -0.6961
  811MOL0     C 6962   6.509   1.721   1.637 -0.3436 -0.7257  0.5473
  811MOL0     C 6963   6.598   1.612   1.705  0.3545 -0.2230 -0.5922
  811MOL0    Cl 6964   6.730   1.544   1.606  0.1884  0.0769  0.0402
  811MOL0     C 6965   5.738   1.644   1.916 -0.5104  0.3354 -0.7657
  811MOL0     C 6966   5.649   1.566   1.982 -0.1707 -0.0695  0.8487
  811MOL0     O 6967   5.287   1.669   2.050  0.2365  0.0218  0.4753
  811MOL0     C 6968   5.078   1.490   2.119 -0.4598 -0.9161 -0.3706
  811MOL0     C 6969   4.971   1.402   2.132 -0.2154 -0.3175 -0.7581
  811MOL0     N 6970   4.691   0.888   2.643  0.8251 -0.0990  0.2877
  811MOL0     N 6971   4.778   0.792   2.660  0.1995 -0.0486  0.4181
  811MOL0     C 6972   5.913   1.025   2.746 -0.3063 -0.1623  0.3124
  811MOL0     C 6973   6.045   1.072   2.736 -0.9797  0.2981 -0.2259
  811MOL0     C 6974   6.420   1.352   2.771  0.6476  0.7037  0.0895
  811MOL0     C 6975   6.514   1.451   2.821  0.0192 -0.5420  0.1283
  811MOL0     C 6976   6.647   1.462   2.777  0.4323  0.5452 -0.4035
  811MOL0     C 6977   6.689   1.372   2.673  0.1868 -0.4935  0.6232
  811MOL0     O 6978   6.823   1.378   2.636  0.2298  0.1010  0.3341
  811MOL0     C 6979   6.873   1.305   2.524 -0.5514 -0.1611  0.1970
  811MOL0     C 6980   7.014   1.339   2.471  0.6425 -0.0997 -0.7747
  811MOL0     C 6981   7.123   1.254   2.535 -0.4845 -0.1876 -0.6188
  811MOL0     C 6982   7.264   1.332   2.506  0.1119  0.4117  0.2694
  811MOL0     C 6983   7.288   1.442   2.592  0.2836 -0.2471 -0.9017
  811MOL0     C 6984   7.322   1.533   2.670 -0.2463  0.5386 -0.3716
  811MOL0     C 6985   6.589   1.289   2.609 -0.3648 -0.0620  0.6813
  811MOL0     C 6986   6.457   1.277   2.654  0.5880  0.1240  0.4465
  811MOL0     H 6987   6.005   1.336   2.955 -1.3445  0.6298  0.5739
  811MOL0     H 6988   5.778   1.248   2.955 -1.9661 -2.7879  0.6517
  811MOL0     H 6989   5.685   0.870   2.742 -0.5114  0.8831  0.4031
  811MOL0     H 6990   5.660   1.001   2.615 -0.3785  2.5145  0.7454
  811MOL0     H 6991   5.448   1.062   2.729  0.7075 -0.0221 -1.5679
  811MOL0     H 6992   5.458   0.917   2.822 -2.4879 -0.2411 -0.0549
  811MOL0     H 6993   5.496   0.780   2.604  1.0409 -0.1811 -1.4426
  811MOL0     H 6994   5.463   0.929   2.509 -2.2193 -1.9737 -0.7619
  811MOL0     H 6995   5.283   0.773   2.699  0.5375  0.9857  1.5815
  811MOL0     H 6996   5.226   0.917   2.611 -1.5936 -0.1572 -3.7124
  811MOL0     H 6997   5.298   0.648   2.474 -0.2044 -0.1344 -0.8170
  811MOL0     H 6998   5.282   0.796   2.384  0.7968 -0.3244  1.0698
  811MOL0     H 6999   5.085   0.708   2.358  2.5939  2.2250 -1.6205
  811MOL0     H 7000   5.067   0.844   2.467  0.4291  0.0419 -2.7866
  811MOL0     H 7001   5.102   0.555   2.574  1.0667  0.2749 -1.2094
  811MOL0     H 7002   5.040   0.705   2.658  1.3169 -0.9004  0.7501
  811MOL0     H 7003   4.878   0.517   2.558 -1.3745 -1.7928 -2.5815
  811MOL0     H 7004   4.904   0.595   2.412  1.1530  1.0616 -0.1171
  811MOL0     H 7005   4.746   0.776   2.340  0.7983  0.1081  0.4828
  811MOL0     H 7006   4.491   1.028   2.517  2.1999  1.8781  0.2864
  811MOL0     H 7007   4.513   0.924   2.378 -0.8406 -2.2750  2.0347
  811MOL0     H 7008   4.701   1.157   2.472  1.1639 -0.8523  0.9092
  811MOL0     H 7009   4.566   1.172   2.358 -0.6348  1.5345  1.9527
  811MOL0     H 7010   4.821   1.012   2.306  0.3761  0.9353 -0.9758
  811MOL0     H 7011   4.684   1.002   2.204  0.4902 -1.2333  1.1656
  811MOL0     H 7012   4.799   1.277   2.250 -2.0526  1.4738 -0.5468
  811MOL0     H 7013   4.704   1.222   2.116  0.5655 -2.2062 -1.0354
  811MOL0     H 7014   5.127   1.127   2.016 -0.2098 -0.9023  2.6020
  811MOL0     H 7015   5.318   1.276   2.027  0.4020  1.9284 -1.8991
  811MOL0     H 7016   5.379   1.623   1.790 -0.7314  1.5910  0.6345
  811MOL0     H 7017   5.535   1.756   1.669  0.1700  1.0606  0.3692
  811MOL0     H 7018   5.982   1.733   1.776 -0.0928 -1.0337  0.3776
  811MOL0     H 7019   5.915   1.867   1.876 -2.6821  0.6722 -0.7898
  811MOL0     H 7020   6.058   2.001   1.755 -1.3153  0.5033  0.7171
  811MOL0     H 7021   5.927   2.003   1.644  2.1904  2.7109  0.2377
  811MOL0     H 7022   6.121   1.973   1.529 -1.1007  1.8574  1.2688
  811MOL0     H 7023   6.026   1.828   1.505  1.2336 -0.1530 -1.4695
  811MOL0     H 7024   6.169   1.712   1.678 -0.3794  0.3746  0.9717
  811MOL0     H 7025   6.236   1.741   1.520  1.3562  0.9406  0.6462
  811MOL0     H 7026   6.264   1.914   1.777 -0.6786 -2.5994  1.1763
  811MOL0     H 7027   6.343   1.946   1.622  0.5500 -0.2176  0.1048
  811MOL0     H 7028   6.378   1.697   1.807  3.3593 -1.9620 -1.4914
  811MOL0     H 7029   6.479   1.842   1.811  2.0703 -0.7200 -1.6789
  811MOL0     H 7030   6.458   1.672   1.553  0.6816  1.6277 -1.5721
  811MOL0     H 7031   6.572   1.801   1.599 -0.4291 -0.0808  1.7108
  811MOL0     H 7032   6.531   1.530   1.734  0.7081  0.4461  2.3220
  811MOL0     H 7033   6.644   1.656   1.794 -0.2985  1.3136 -0.9808
  811MOL0     H 7034   5.830   1.660   1.972 -2.1916 -0.8058  2.5868
  811MOL0     H 7035   5.653   1.508   2.073  1.9670  1.7106  1.9813
  811MOL0     H 7036   5.060   1.595   2.141  0.3938 -0.3419 -2.2109
  811MOL0     H 7037   4.877   1.444   2.169 -0.5269  1.1643 -3.0568
  811MOL0     H 7038   5.892   0.943   2.678 -1.0795  1.3639 -1.3569
  811MOL0     H 7039   6.130   1.030   2.682 -0.1304  0.4556  0.9379
  811MOL0     H 7040   6.488   1.515   2.905 -1.3753  0.4120 -0.9735
  811MOL0     H 7041   6.717   1.535   2.816  1.8347 -1.8086  1.7786
  811MOL0     H 7042   6.804   1.327   2.442 -0.0946  3.4018  0.5730
  811MOL0     H 7043   6.875   1.199   2.547 -0.6971  0.3575  2.9419
  811MOL0     H 7044   7.027   1.335   2.363 -2.5815  1.7925 -1.3564
  811MOL0     H 7045   7.039   1.441   2.502 -0.3319 -0.0525 -0.0928
  811MOL0     H 7046   7.120   1.156   2.487  1.7971  0.1464 -1.5640
  811MOL0     H 7047   7.115   1.231   2.641  0.2668 -2.1219 -0.9426
  811MOL0     H 7048   7.345   1.259   2.513  0.5701  0.8744 -0.1228
  811MOL0     H 7049   7.266   1.375   2.405 -0.2174 -1.1673 -0.4391
  811MOL0     H 7050   7.349   1.605   2.744  0.5081  1.7009 -1.7318
  811MOL0     H 7051   6.617   1.216   2.534  2.0237  0.2288  1.2122
  811MOL0     H 7052   6.376   1.228   2.602  1.1803  0.6726 -1.0487
  812MOL0     O 7053   3.309   8.522   3.194 -0.5613  0.0717 -0.0905
  812MOL0     C 7054   3.386   8.612   3.213  0.0046  0.1877 -0.3058
  812MOL0     O 7055   3.362   8.751   3.236  1.4046 -0.0815  0.8009
  812MOL0     C 7056   3.233   8.787   3.224  0.0884 -0.7835 -0.7093
  812MOL0     C 7057   3.197   8.888   3.136  0.4720  1.2386  0.3428
  812MOL0     C 7058   3.059   8.924   3.129  0.6765  0.7552  0.4232
  812MOL0     C 7059   2.963   8.864   3.196 -0.1867  0.0212  0.0277
  812MOL0     O 7060   2.840   8.896   3.174  0.0772 -0.3273  0.0912
  812MOL0     C 7061   2.759   8.791   3.110  0.2687  0.3419 -0.4322
  812MOL0     C 7062   2.684   8.858   2.988 -0.0802  0.3640  0.7976
  812MOL0     C 7063   2.592   8.758   2.916  0.0288  0.2946 -0.1934
  812MOL0     C 7064   2.479   8.707   3.006  0.1680 -0.2543 -0.2307
  812MOL0     C 7065   2.396   8.811   3.091 -0.0737  0.0277 -0.5852
  812MOL0     C 7066   2.315   8.910   3.005 -0.3757  0.6071  0.2866
  812MOL0     C 7067   2.212   8.985   3.099  0.5823 -0.7023  0.7250
  812MOL0     C 7068   2.118   9.068   3.006  0.6620  0.7190  0.2128
  812MOL0     N 7069   2.030   9.158   3.073 -0.4864  0.0604  0.0862
  812MOL0     C 7070   2.035   9.299   3.060 -0.0511 -0.2199 -0.3414
  812MOL0     C 7071   1.928   9.341   3.133  0.0600 -0.7952  0.2314
  812MOL0     C 7072   1.879   9.487   3.152  0.8955 -0.0582  0.1826
  812MOL0     C 7073   1.777   9.520   3.041  0.0016 -0.5094  0.7552
  812MOL0     C 7074   1.725   9.664   3.087 -0.0424 -0.1192 -0.6503
  812MOL0     C 7075   1.586   9.695   3.036  0.6314 -0.1516  0.2102
  812MOL0     O 7076   1.541   9.830   3.060 -0.3822  0.8925  0.4404
  812MOL0     C 7077   1.414   9.866   3.041 -0.8790 -0.1862 -0.0024
  812MOL0     C 7078   1.391  10.002   3.036  0.2471  0.2028  0.1738
  812MOL0     C 7079   1.261  10.050   3.002 -0.2315 -0.1440 -0.2170
  812MOL0     C 7080   1.151   9.967   2.982 -0.2858 -0.4029  0.3111
  812MOL0     C 7081   1.023  10.034   2.975  0.4745 -0.7153 -0.5976
  812MOL0     O 7082   0.913   9.960   2.973  0.4931 -0.6168 -0.4712
  812MOL0     C 7083   0.791  10.012   3.004 -0.6105  0.5768 -0.3072
  812MOL0     C 7084   0.766  10.100   3.119  0.1225  0.6872  0.9779
  812MOL0     C 7085   0.630  10.138   3.150  0.3723 -0.0694  0.1202
  812MOL0     C 7086   0.528  10.112   3.063  0.5217  0.8345  0.5529
  812MOL0     O 7087   0.406  10.161   3.072  0.1809  0.7542 -0.5559
  812MOL0     C 7088   0.377  10.272   3.154 -0.8326  0.2675 -0.3797
  812MOL0     C 7089   0.259  10.346   3.107  0.3317  0.3569 -0.8870
  812MOL0     C 7090   0.132  10.257   3.112 -0.1217  0.2352  0.2825
  812MOL0     C 7091   0.004  10.331   3.069  1.2480  0.1795  0.1051
  812MOL0     C 7092  -0.116  10.261   3.130  0.6634  0.2744  0.0310
  812MOL0     C 7093  -0.247  10.324   3.124  0.4713 -0.0496 -0.9368
  812MOL0     C 7094  -0.284  10.425   3.242 -0.2994  1.3565  0.3851
  812MOL0     C 7095  -0.424  10.478   3.216  1.1329 -0.8454 -0.8843
  812MOL0    Cl 7096  -0.475  10.562   3.366  0.1073 -0.0803 -0.2860
  812MOL0     C 7097   0.560  10.032   2.952 -0.2603  0.0162 -0.2685
  812MOL0     C 7098   0.684   9.974   2.929 -0.3416 -0.2838 -1.0406
  812MOL0     O 7099   1.023  10.156   2.990 -0.0032  0.0345  0.3421
  812MOL0     C 7100   1.176   9.823   2.988  0.5703  0.1698 -0.4446
  812MOL0     C 7101   1.304   9.778   3.020  0.1527 -0.6508  0.0280
  812MOL0     N 7102   1.874   9.231   3.196 -0.3842  0.2381 -0.2218
  812MOL0     N 7103   1.939   9.125   3.169  0.8279 -0.4000  0.2468
  812MOL0     C 7104   3.003   8.770   3.289 -0.9941  0.2429  1.1723
  812MOL0     C 7105   3.132   8.732   3.309 -0.1840  1.8163  0.8773
  812MOL0     C 7106   3.530   8.579   3.215 -0.3393 -0.1191 -0.9684
  812MOL0     C 7107   3.578   8.456   3.167 -0.0366  0.9514  0.1878
  812MOL0     C 7108   3.705   8.420   3.184  0.0089 -0.0317 -0.6969
  812MOL0     C 7109   3.801   8.514   3.217 -0.0694  0.0962  0.1132
  812MOL0     O 7110   3.938   8.472   3.221  0.4705  0.4829 -0.6110
  812MOL0     C 7111   4.018   8.486   3.102 -0.5929  0.1860 -0.5024
  812MOL0     C 7112   4.053   8.626   3.067 -0.3315 -0.3785 -0.3205
  812MOL0     C 7113   4.133   8.622   2.939  0.2991 -0.2439 -0.4937
  812MOL0     C 7114   4.188   8.756   2.883  0.1222 -0.0596 -0.4278
  812MOL0     C 7115   4.263   8.739   2.761  0.1006 -0.4127 -0.5560
  812MOL0     C 7116   4.332   8.714   2.669  0.2473 -0.9828 -0.1270
  812MOL0     C 7117   3.768   8.645   3.250 -0.5610 -0.0047  0.4738
  812MOL0     C 7118   3.626   8.675   3.249  0.0579  0.5223 -0.4968
  812MOL0     H 7119   3.268   8.947   3.079 -2.0988  4.3575  0.0749
  812MOL0     H 7120   3.045   9.001   3.053 -0.5126  0.2650  0.1284
  812MOL0     H 7121   2.685   8.764   3.185 -0.0690 -0.7338 -1.1372
  812MOL0     H 7122   2.813   8.701   3.079  1.3608  0.9548 -0.3610
  812MOL0     H 7123   2.764   8.890   2.921 -0.8455 -0.1476 -0.4001
  812MOL0     H 7124   2.620   8.939   3.024 -3.2353 -1.6469  0.1364
  812MOL0     H 7125   2.653   8.673   2.886  0.8657  0.4077  1.1274
  812MOL0     H 7126   2.551   8.806   2.826 -0.8872  0.0096  0.0624
  812MOL0     H 7127   2.401   8.655   2.951  0.7554 -0.9998 -0.3722
  812MOL0     H 7128   2.525   8.637   3.076 -1.4204 -0.3644  0.7521
  812MOL0     H 7129   2.467   8.866   3.154 -1.9163 -0.3721  2.0067
  812MOL0     H 7130   2.333   8.746   3.153 -2.1046  1.7043 -0.7841
  812MOL0     H 7131   2.243   8.862   2.939  0.0192  0.6240 -0.1640
  812MOL0     H 7132   2.384   8.976   2.952  1.6188  0.7089  2.8332
  812MOL0     H 7133   2.154   8.918   3.163  1.0232 -0.1618  1.7106
  812MOL0     H 7134   2.271   9.051   3.163 -1.9869  0.0527  2.4952
  812MOL0     H 7135   2.053   8.993   2.960 -1.6397  0.7486  3.1094
  812MOL0     H 7136   2.173   9.116   2.925  0.1144 -1.2537 -1.4103
  812MOL0     H 7137   2.104   9.353   2.996 -2.1838  0.8199 -1.8638
  812MOL0     H 7138   1.963   9.557   3.144  0.0991  1.1086  1.5353
  812MOL0     H 7139   1.843   9.494   3.255  1.2636 -1.7424  0.4495
  812MOL0     H 7140   1.693   9.450   3.035 -1.3583  1.0935  0.0635
  812MOL0     H 7141   1.822   9.522   2.942  0.5053 -0.6132  0.9784
  812MOL0     H 7142   1.716   9.674   3.196  0.5859  1.4900 -0.7095
  812MOL0     H 7143   1.799   9.741   3.062  1.5962 -0.8178  1.6567
  812MOL0     H 7144   1.517   9.629   3.090  1.8863 -1.5656  0.1650
  812MOL0     H 7145   1.569   9.674   2.930 -0.7386  0.3856  0.3083
  812MOL0     H 7146   1.466  10.078   3.059 -1.1369  0.7720  3.3141
  812MOL0     H 7147   1.252  10.158   3.008  1.0706 -0.0875  1.9059
  812MOL0     H 7148   0.843  10.139   3.184  0.9410  1.5371 -0.4390
  812MOL0     H 7149   0.611  10.196   3.239  0.1168 -0.0358  0.0443
  812MOL0     H 7150   0.463  10.340   3.154 -0.0927 -0.6288  0.5189
  812MOL0     H 7151   0.368  10.232   3.256 -1.2737 -1.0701 -0.9186
  812MOL0     H 7152   0.283  10.390   3.010  1.8962 -0.2550 -0.8126
  812MOL0     H 7153   0.250  10.425   3.181 -0.1079 -1.1661  0.7541
  812MOL0     H 7154   0.123  10.227   3.217  0.7464 -1.4415 -0.0877
  812MOL0     H 7155   0.148  10.168   3.051 -0.0797 -0.7919  1.7338
  812MOL0     H 7156   0.017  10.429   3.116 -1.9108  1.2417 -1.0098
  812MOL0     H 7157  -0.018  10.347   2.963 -1.8531 -0.5271  0.5633
  812MOL0     H 7158  -0.086  10.260   3.235  0.8073  0.2225 -0.0107
  812MOL0     H 7159  -0.139  10.160   3.096  1.3227 -0.2030  0.9752
  812MOL0     H 7160  -0.321  10.244   3.136  2.8379 -2.0556  1.9033
  812MOL0     H 7161  -0.247  10.373   3.027 -1.2366 -0.8091 -1.3722
  812MOL0     H 7162  -0.276  10.382   3.342  0.8016 -0.3939 -0.4097
  812MOL0     H 7163  -0.222  10.514   3.232  1.1023  0.3070 -0.7087
  812MOL0     H 7164  -0.497  10.398   3.199  1.6487 -1.5535  0.1170
  812MOL0     H 7165  -0.417  10.539   3.126 -0.0598  1.1726  0.3119
  812MOL0     H 7166   0.480  10.005   2.884 -0.3981 -3.6558  1.1528
  812MOL0     H 7167   0.703   9.912   2.842  1.3859  1.0463 -1.6565
  812MOL0     H 7168   1.091   9.761   2.963 -0.3799  1.3225 -0.1842
  812MOL0     H 7169   1.320   9.671   3.030  0.0614 -0.6368  0.3330
  812MOL0     H 7170   2.930   8.717   3.349  0.6307 -3.2926  0.2689
  812MOL0     H 7171   3.148   8.655   3.384 -1.1773  2.3952  1.6921
  812MOL0     H 7172   3.511   8.383   3.122  3.0629 -1.6552 -0.5161
  812MOL0     H 7173   3.725   8.319   3.151  3.4532  0.4894 -0.6102
  812MOL0     H 7174   3.983   8.426   3.017 -0.2305 -0.9631  0.1307
  812MOL0     H 7175   4.112   8.442   3.137  0.4794  3.0067  0.4683
  812MOL0     H 7176   3.971   8.696   3.050 -0.0712 -0.2371 -1.0460
  812MOL0     H 7177   4.106   8.668   3.153  0.4085  1.0195 -1.4120
  812MOL0     H 7178   4.081   8.570   2.859 -1.7345  2.4395 -1.0599
  812MOL0     H 7179   4.224   8.564   2.960 -0.6217 -1.1273  1.3192
  812MOL0     H 7180   4.103   8.818   2.855  1.1307  0.0859 -3.5374
  812MOL0     H 7181   4.250   8.806   2.958 -1.1112  1.9349 -0.6709
  812MOL0     H 7182   4.385   8.692   2.579 -3.0055 -0.8476 -2.2421
  812MOL0     H 7183   3.843   8.720   3.270 -0.1641 -0.8200  2.2516
  812MOL0     H 7184   3.591   8.775   3.272  1.4468  1.0291 -0.4601
  813MOL0     O 7185   5.322   6.993  10.086 -0.7387 -0.2303  0.4059
  813MOL0     C 7186   5.402   7.045  10.172  0.4097  0.2816  0.0996
  813MOL0     O 7187   5.367   7.147  10.252  0.1428 -0.5788  0.2881
  813MOL0     C 7188   5.236   7.164  10.278  0.3125 -1.0149  0.2656
  813MOL0     C 7189   5.136   7.197  10.181 -0.2894 -0.4156  1.3241
  813MOL0     C 7190   5.005   7.222  10.220 -0.6940  0.3789  0.3016
  813MOL0     C 7191   4.961   7.186  10.355 -0.7535  0.2750  0.6322
  813MOL0     O 7192   4.836   7.189  10.409 -0.7578  0.2523  0.1279
  813MOL0     C 7193   4.743   7.214  10.312  0.0658  0.0309  0.4351
  813MOL0     C 7194   4.608   7.177  10.375  0.7104 -0.2010  0.4374
  813MOL0     C 7195   4.485   7.192  10.283 -0.4803 -0.0090 -0.0347
  813MOL0     C 7196   4.353   7.136  10.347 -0.5011 -0.8513 -0.4633
  813MOL0     C 7197   4.252   7.113  10.243  0.1476  0.0019 -0.8950
  813MOL0     C 7198   4.139   7.017  10.304  0.1869 -0.7654 -0.0130
  813MOL0     C 7199   4.026   6.997  10.206  0.5583 -0.3608 -0.9788
  813MOL0     C 7200   3.897   6.952  10.268 -0.2369  0.7256 -0.4740
  813MOL0     N 7201   3.817   7.063  10.322  1.3443  0.0716  0.1816
  813MOL0     C 7202   3.706   7.128  10.271 -0.2636 -0.4391  0.2782
  813MOL0     C 7203   3.692   7.225  10.361  0.5023  0.5503 -0.2336
  813MOL0     C 7204   3.577   7.322  10.371  0.5246  1.3280  0.3123
  813MOL0     C 7205   3.474   7.302  10.259 -0.6415 -0.9506  0.6604
  813MOL0     C 7206   3.375   7.404  10.232  1.0514  0.5100  0.2211
  813MOL0     C 7207   3.277   7.426  10.353 -0.1593  0.2286 -0.6001
  813MOL0     O 7208   3.206   7.553  10.347  0.3166  0.7327 -0.4746
  813MOL0     C 7209   3.090   7.557  10.274  0.2998  0.0279  0.5514
  813MOL0     C 7210   3.020   7.678  10.283  0.1920  0.0637 -0.0011
  813MOL0     C 7211   2.887   7.689  10.220 -0.2990 -0.2007 -1.0565
  813MOL0     C 7212   2.827   7.591  10.146 -0.9583  1.0632  0.4792
  813MOL0     C 7213   2.693   7.615  10.094 -0.1193 -0.4107 -0.1390
  813MOL0     O 7214   2.634   7.496  10.064  0.0527  0.2828 -0.0310
  813MOL0     C 7215   2.499   7.493  10.019 -0.1334  0.8729 -0.4308
  813MOL0     C 7216   2.397   7.590  10.042 -0.6434 -0.0509  0.3304
  813MOL0     C 7217   2.265   7.549  10.009 -0.4045  0.0988 -0.5084
  813MOL0     C 7218   2.226   7.432   9.944  0.1300  0.5409 -0.5113
  813MOL0     O 7219   2.095   7.389   9.933 -0.4889 -0.0983  0.3581
  813MOL0     C 7220   2.056   7.296  10.033 -0.8214  0.3463 -0.2465
  813MOL0     C 7221   1.925   7.230   9.997  0.1468  0.7931  0.4704
  813MOL0     C 7222   1.918   7.167   9.860  0.1798  0.2058  0.0014
  813MOL0     C 7223   1.771   7.149   9.819  0.0611  0.5708 -0.2362
  813MOL0     C 7224   1.752   7.067   9.689 -0.0487 -0.1231 -0.0424
  813MOL0     C 7225   1.804   6.918   9.703 -0.4417 -0.2891  0.5746
  813MOL0     C 7226   1.779   6.833   9.575  0.8099  0.0879 -0.3000
  813MOL0     C 7227   1.817   6.905   9.444 -0.3321 -0.4939 -0.2703
  813MOL0    Cl 7228   1.671   6.980   9.363 -0.2749  0.0234  0.6280
  813MOL0     C 7229   2.331   7.345   9.913  0.0324 -0.6306  0.7627
  813MOL0     C 7230   2.459   7.372   9.958  0.6207  0.5659  0.3501
  813MOL0     O 7231   2.650   7.726  10.061  0.2634  0.3606 -0.8102
  813MOL0     C 7232   2.904   7.475  10.124  0.0893  0.2567  0.3780
  813MOL0     C 7233   3.037   7.459  10.185 -0.0046  0.1480  0.0715
  813MOL0     N 7234   3.782   7.222  10.458 -0.2286 -0.2983 -0.5029
  813MOL0     N 7235   3.864   7.125  10.430 -0.3620 -0.0641 -0.5464
  813MOL0     C 7236   5.061   7.151  10.449 -1.1272 -0.2525  0.0288
  813MOL0     C 7237   5.200   7.145  10.412  0.5119 -0.7910 -0.4970
  813MOL0     C 7238   5.536   6.987  10.190  0.1238 -0.4301 -0.1631
  813MOL0     C 7239   5.620   7.031  10.295  0.1205  0.8065 -0.4303
  813MOL0     C 7240   5.748   6.984  10.314  0.0351 -0.4298 -0.1737
  813MOL0     C 7241   5.800   6.891  10.222 -0.7403  0.3563 -0.0409
  813MOL0     O 7242   5.924   6.836  10.251 -0.7100 -0.2479 -0.2437
  813MOL0     C 7243   5.978   6.729  10.181  0.3165  0.2289 -0.2937
  813MOL0     C 7244   6.053   6.755  10.053  0.0926  0.6395 -0.0351
  813MOL0     C 7245   6.153   6.881  10.060 -0.3957 -0.7320  0.0402
  813MOL0     C 7246   6.268   6.846  10.155 -0.5143 -0.3836  0.2676
  813MOL0     C 7247   6.375   6.946  10.144  0.5960 -0.1719  0.3165
  813MOL0     C 7248   6.450   7.046  10.141  0.9280 -0.3851 -0.1070
  813MOL0     C 7249   5.718   6.846  10.119  0.1363 -0.7296 -0.1470
  813MOL0     C 7250   5.589   6.889  10.106  0.6774 -0.4145  0.5481
  813MOL0     H 7251   5.159   7.213  10.076 -3.3926 -1.1957  0.4261
  813MOL0     H 7252   4.938   7.252  10.140 -0.3169 -0.9351 -0.5311
  813MOL0     H 7253   4.754   7.161  10.217  1.0634  0.0014  0.5535
  813MOL0     H 7254   4.766   7.318  10.290 -3.5971  0.9232  0.2849
  813MOL0     H 7255   4.587   7.253  10.452 -1.1812 -0.6391  0.3840
  813MOL0     H 7256   4.619   7.078  10.421 -0.2745  0.2536  1.7359
  813MOL0     H 7257   4.514   7.158  10.184  0.2516  0.9108 -0.1449
  813MOL0     H 7258   4.451   7.296  10.275 -1.8650 -0.4414 -0.1182
  813MOL0     H 7259   4.372   7.040  10.397  3.3008  0.9935  2.1475
  813MOL0     H 7260   4.317   7.210  10.419  2.1963  4.2341 -3.7624
  813MOL0     H 7261   4.297   7.070  10.152  0.9766 -0.3197 -0.3448
  813MOL0     H 7262   4.210   7.211  10.221 -0.7961 -0.0760  0.4341
  813MOL0     H 7263   4.109   7.055  10.402  1.9695  1.6137 -0.2924
  813MOL0     H 7264   4.183   6.919  10.321  1.9514 -0.1170 -0.5663
  813MOL0     H 7265   4.004   7.091  10.154  1.1135  0.2965 -0.0426
  813MOL0     H 7266   4.058   6.927  10.128  2.1729  0.0390 -0.7038
  813MOL0     H 7267   3.925   6.886  10.350 -2.9606  1.4989  1.2245
  813MOL0     H 7268   3.839   6.887  10.202 -2.2787 -0.2200  2.0806
  813MOL0     H 7269   3.644   7.107  10.185 -3.1614  2.2592  1.4858
  813MOL0     H 7270   3.601   7.428  10.375 -0.6683  1.6568 -0.5823
  813MOL0     H 7271   3.531   7.312  10.470 -2.2900  1.3890 -0.8952
  813MOL0     H 7272   3.432   7.203  10.277  2.2340 -2.5532 -0.6229
  813MOL0     H 7273   3.529   7.296  10.164 -2.7595 -2.5015 -0.5348
  813MOL0     H 7274   3.412   7.502  10.201 -0.8461  2.0286  2.4054
  813MOL0     H 7275   3.315   7.362  10.151 -0.1127 -0.3694  1.4954
  813MOL0     H 7276   3.327   7.440  10.449 -0.2716  0.6658 -0.6035
  813MOL0     H 7277   3.211   7.340  10.368 -1.6898  1.7927  2.5759
  813MOL0     H 7278   3.053   7.769  10.332 -1.5739 -0.3300  2.0735
  813MOL0     H 7279   2.842   7.786  10.239 -0.0851 -0.5631  1.5636
  813MOL0     H 7280   2.420   7.686  10.087 -0.3050 -0.5402  1.2309
  813MOL0     H 7281   2.187   7.619  10.037 -0.6619 -0.3628 -0.0534
  813MOL0     H 7282   2.061   7.350  10.128 -1.5816  1.6546 -0.9235
  813MOL0     H 7283   2.120   7.208  10.041 -3.8433 -2.2167 -1.9095
  813MOL0     H 7284   1.841   7.300  10.001 -0.1185  0.6624 -1.6528
  813MOL0     H 7285   1.912   7.145  10.065  0.0233  0.3214 -0.1344
  813MOL0     H 7286   1.971   7.072   9.860 -2.0589 -1.1819  2.6319
  813MOL0     H 7287   1.962   7.229   9.780  0.5441  1.1869  0.9370
  813MOL0     H 7288   1.715   7.098   9.899 -0.1882 -1.0903 -1.4144
  813MOL0     H 7289   1.724   7.247   9.815 -0.3660  0.4110  0.5734
  813MOL0     H 7290   1.817   7.114   9.615 -1.5210  2.0797 -0.0448
  813MOL0     H 7291   1.645   7.073   9.664 -0.8297 -0.2389  2.8786
  813MOL0     H 7292   1.760   6.868   9.790 -1.4763  0.3337  0.4185
  813MOL0     H 7293   1.912   6.902   9.712 -0.1047 -1.0088 -3.3006
  813MOL0     H 7294   1.837   6.740   9.581 -1.3059 -1.4165 -1.5735
  813MOL0     H 7295   1.674   6.810   9.558  0.7098  0.8306 -0.7351
  813MOL0     H 7296   1.864   6.828   9.383 -2.3706 -0.4922 -1.9421
  813MOL0     H 7297   1.885   6.989   9.461 -0.5262 -0.7213  2.0721
  813MOL0     H 7298   2.318   7.254   9.856  1.2639  0.8693 -2.0982
  813MOL0     H 7299   2.530   7.296   9.928 -0.0638  0.2370 -0.4916
  813MOL0     H 7300   2.869   7.395  10.059 -0.1674  2.0687 -1.8499
  813MOL0     H 7301   3.093   7.369  10.162  0.2585  0.7694 -1.8937
  813MOL0     H 7302   5.051   7.120  10.552 -1.4999 -0.3648 -0.0398
  813MOL0     H 7303   5.273   7.135  10.492 -0.6026  1.7997  0.9705
  813MOL0     H 7304   5.591   7.107  10.367 -0.6487 -1.4300  1.7612
  813MOL0     H 7305   5.812   7.010  10.397 -0.8007  0.0205  0.3393
  813MOL0     H 7306   5.904   6.649  10.166 -0.4114  0.8913 -0.2768
  813MOL0     H 7307   6.048   6.674  10.244 -2.4341 -1.5216  1.4656
  813MOL0     H 7308   6.109   6.667  10.023  0.1906  0.9148 -0.6649
  813MOL0     H 7309   5.981   6.764   9.971  0.5683 -0.5750 -0.6024
  813MOL0     H 7310   6.101   6.969  10.100  1.8269 -0.7331  3.4411
  813MOL0     H 7311   6.191   6.897   9.959 -1.0779 -0.5015 -0.1856
  813MOL0     H 7312   6.231   6.839  10.257 -0.7973 -1.9836  0.0743
  813MOL0     H 7313   6.304   6.745  10.133 -3.2573 -1.1527 -1.1841
  813MOL0     H 7314   6.513   7.130  10.120  0.8297 -0.4861 -0.8458
  813MOL0     H 7315   5.746   6.772  10.044 -2.3269 -0.4903 -1.3956
  813MOL0     H 7316   5.535   6.866  10.015  3.2205  0.9091 -1.4439
  814MOL0     O 7317  10.543   7.679   1.257  0.2123 -0.4537 -0.4903
  814MOL0     C 7318  10.448   7.603   1.261  0.3181 -0.6017  0.4939
  814MOL0     O 7319  10.456   7.480   1.310 -0.0419 -0.4354  0.2926
  814MOL0     C 7320  10.549   7.448   1.407 -0.1291 -0.8545  0.3826
  814MOL0     C 7321  10.624   7.526   1.503  0.0095  0.5360  0.8339
  814MOL0     C 7322  10.720   7.471   1.582 -0.3654 -0.0174  0.4756
  814MOL0     C 7323  10.743   7.329   1.579 -0.0106  0.6883 -0.6688
  814MOL0     O 7324  10.809   7.260   1.672  0.2789 -0.2884  0.2263
  814MOL0     C 7325  10.930   7.320   1.730  1.2995 -0.3142 -0.2982
  814MOL0     C 7326  10.997   7.235   1.833 -0.0315  0.2225  0.9124
  814MOL0     C 7327  11.135   7.280   1.873 -0.5695 -0.1846 -0.5436
  814MOL0     C 7328  11.146   7.436   1.883  0.0873 -0.1618 -0.1171
  814MOL0     C 7329  11.274   7.475   1.965 -0.5945  1.0176  0.2129
  814MOL0     C 7330  11.418   7.459   1.885  0.6099 -0.2900  0.4051
  814MOL0     C 7331  11.520   7.563   1.928  0.5632  0.1710 -0.2225
  814MOL0     C 7332  11.666   7.527   1.879 -0.1916  0.1919  0.1429
  814MOL0     N 7333  11.765   7.625   1.930  0.0120  0.3517  0.1897
  814MOL0     C 7334  11.876   7.607   2.001 -0.6305 -0.0815  0.4028
  814MOL0     C 7335  11.919   7.733   2.015 -0.0036  0.3589  0.2537
  814MOL0     C 7336  12.044   7.760   2.098 -0.1307  0.6348 -0.3160
  814MOL0     C 7337  12.015   7.742   2.247  0.5764  0.2019  1.4119
  814MOL0     C 7338  11.915   7.845   2.307 -0.3597 -0.2932 -0.4947
  814MOL0     C 7339  11.771   7.794   2.299  0.4300 -0.3797  0.4342
  814MOL0     O 7340  11.683   7.840   2.402 -0.3138 -0.2410 -0.0845
  814MOL0     C 7341  11.551   7.810   2.374 -0.0661 -0.0529 -0.2049
  814MOL0     C 7342  11.505   7.698   2.306 -1.3676  0.5140 -0.4015
  814MOL0     C 7343  11.373   7.686   2.284 -1.2481 -0.5457 -0.3041
  814MOL0     C 7344  11.283   7.788   2.309  0.2707 -0.2611  0.6074
  814MOL0     C 7345  11.137   7.770   2.272 -0.4719 -0.8393 -0.5322
  814MOL0     O 7346  11.053   7.868   2.293  0.2277  0.0523 -0.2926
  814MOL0     C 7347  10.919   7.849   2.271 -0.8275  0.0035  0.0075
  814MOL0     C 7348  10.851   7.757   2.349  0.0905 -0.0235 -0.9687
  814MOL0     C 7349  10.710   7.748   2.340 -1.1231 -0.8808  0.9533
  814MOL0     C 7350  10.639   7.854   2.277  1.3465  0.2504  0.7753
  814MOL0     O 7351  10.499   7.862   2.293 -0.4762  0.9553 -0.1746
  814MOL0     C 7352  10.418   7.974   2.235 -0.6085 -0.2574 -0.3594
  814MOL0     C 7353  10.282   7.998   2.306 -0.9591  0.7246 -1.7117
  814MOL0     C 7354  10.188   7.872   2.318  0.6427  0.7055  0.7700
  814MOL0     C 7355  10.050   7.915   2.356 -0.6995  0.0396  0.5672
  814MOL0     C 7356  10.034   7.952   2.497 -1.4403 -0.4419  0.3941
  814MOL0     C 7357   9.888   7.978   2.533  0.6642  0.2525  0.4302
  814MOL0     C 7358   9.885   8.032   2.667  0.3348  0.3583  0.6058
  814MOL0     C 7359   9.751   8.013   2.730  0.3255 -0.0346  0.3267
  814MOL0    Cl 7360   9.643   8.115   2.627  0.4382  0.3005  0.5023
  814MOL0     C 7361  10.709   7.949   2.199 -0.3320  0.1286  1.1627
  814MOL0     C 7362  10.849   7.949   2.209 -0.2169  0.0296 -0.0411
  814MOL0     O 7363  11.109   7.664   2.222 -0.0662 -0.2700  0.1808
  814MOL0     C 7364  11.330   7.895   2.377  0.1032 -1.0975  1.2975
  814MOL0     C 7365  11.461   7.908   2.412  0.3093 -0.3351  0.5270
  814MOL0     N 7366  11.840   7.820   1.940  0.0458 -0.1478  0.6197
  814MOL0     N 7367  11.748   7.752   1.894  0.1446  0.4468 -1.0318
  814MOL0     C 7368  10.671   7.247   1.491 -0.0882  0.7451 -0.4605
  814MOL0     C 7369  10.575   7.305   1.408  0.4253  0.6613 -0.2339
  814MOL0     C 7370  10.322   7.640   1.196  0.1080 -0.2022  0.1053
  814MOL0     C 7371  10.230   7.542   1.158  1.0392  0.0687  0.3162
  814MOL0     C 7372  10.101   7.574   1.101 -0.4537 -0.1577 -0.0744
  814MOL0     C 7373  10.063   7.706   1.079 -0.3502 -0.0860 -0.1969
  814MOL0     O 7374   9.936   7.726   1.036 -0.8093 -0.1800  0.0254
  814MOL0     C 7375   9.885   7.859   1.073  0.9534 -0.1517 -0.1870
  814MOL0     C 7376   9.743   7.836   1.120 -0.5317 -0.1201 -0.5190
  814MOL0     C 7377   9.667   7.971   1.116  0.4454 -0.5850  0.4466
  814MOL0     C 7378   9.521   7.964   1.165 -0.4766  0.0326  0.0258
  814MOL0     C 7379   9.438   7.860   1.123 -0.2095 -0.0401 -0.1068
  814MOL0     C 7380   9.355   7.792   1.067 -0.8634  0.0546 -0.3194
  814MOL0     C 7381  10.166   7.803   1.098 -0.9571 -0.0142  0.3370
  814MOL0     C 7382  10.287   7.773   1.154 -0.1076  0.5722 -0.0820
  814MOL0     H 7383  10.603   7.630   1.529 -0.9612  1.1508 -2.0784
  814MOL0     H 7384  10.781   7.542   1.637 -1.5645  1.0533  0.4718
  814MOL0     H 7385  10.899   7.410   1.783 -1.5797 -1.0490 -0.5689
  814MOL0     H 7386  10.991   7.344   1.642  4.4943  1.5447  2.1726
  814MOL0     H 7387  11.009   7.132   1.799 -2.5987 -0.1458  0.9621
  814MOL0     H 7388  10.939   7.239   1.926  1.4218 -0.0760  1.8600
  814MOL0     H 7389  11.209   7.239   1.803  1.1629 -0.3786  1.3195
  814MOL0     H 7390  11.164   7.229   1.965 -0.7364 -3.3644 -2.1048
  814MOL0     H 7391  11.138   7.499   1.793 -1.1402 -0.3276 -0.1348
  814MOL0     H 7392  11.061   7.468   1.943  0.8603 -0.5608  1.2178
  814MOL0     H 7393  11.286   7.396   2.040  2.9185  0.8005 -0.3701
  814MOL0     H 7394  11.281   7.580   1.996  3.2396  1.8967 -2.7367
  814MOL0     H 7395  11.414   7.474   1.777 -0.0979  0.0198  0.4686
  814MOL0     H 7396  11.452   7.356   1.897  1.1270 -0.5373 -2.4349
  814MOL0     H 7397  11.487   7.663   1.897 -0.9086 -0.8236 -2.0770
  814MOL0     H 7398  11.524   7.558   2.037 -1.0732 -2.7112 -0.2199
  814MOL0     H 7399  11.653   7.529   1.770 -0.2942 -0.4109  0.1428
  814MOL0     H 7400  11.698   7.427   1.906  4.2456  0.8003 -1.9014
  814MOL0     H 7401  11.911   7.519   2.054 -1.2257  0.0198  0.9679
  814MOL0     H 7402  12.080   7.857   2.063 -4.3096  1.3013 -3.5724
  814MOL0     H 7403  12.111   7.681   2.060 -2.2427 -1.8708  0.8718
  814MOL0     H 7404  12.110   7.735   2.302  0.3305 -1.1656  1.6888
  814MOL0     H 7405  11.979   7.639   2.251 -0.6176  0.5867  0.9184
  814MOL0     H 7406  11.946   7.870   2.409  1.2874  5.4041 -1.9922
  814MOL0     H 7407  11.921   7.940   2.252 -0.0168  0.7427  1.2471
  814MOL0     H 7408  11.772   7.685   2.307  2.0705 -0.4246 -0.1845
  814MOL0     H 7409  11.737   7.826   2.200  0.3027  0.7541  0.8287
  814MOL0     H 7410  11.570   7.623   2.263 -1.8674 -0.2263  0.1045
  814MOL0     H 7411  11.352   7.589   2.240  0.1211 -1.4063  0.8425
  814MOL0     H 7412  10.906   7.696   2.419  0.5687 -2.6643 -3.4359
  814MOL0     H 7413  10.663   7.669   2.398 -0.3375 -1.8524  0.2912
  814MOL0     H 7414  10.412   7.978   2.125 -0.7061  0.4705 -0.3359
  814MOL0     H 7415  10.470   8.068   2.257  0.0124  0.1530 -3.1576
  814MOL0     H 7416  10.240   8.083   2.252 -1.8225  2.0689  0.9157
  814MOL0     H 7417  10.303   8.026   2.409  0.1725 -0.5016 -1.5701
  814MOL0     H 7418  10.231   7.804   2.392  0.1832 -0.6380 -0.1570
  814MOL0     H 7419  10.178   7.823   2.221  0.6152  1.1043  0.5708
  814MOL0     H 7420  10.013   7.992   2.289 -3.8039 -0.1756  1.8515
  814MOL0     H 7421   9.978   7.835   2.338  0.5038 -0.8423 -0.4977
  814MOL0     H 7422  10.098   8.040   2.510 -1.9438 -0.1156  0.6689
  814MOL0     H 7423  10.073   7.875   2.564 -0.8416 -0.1424  0.3980
  814MOL0     H 7424   9.837   7.882   2.533  3.2912 -1.2347  1.2084
  814MOL0     H 7425   9.844   8.042   2.455  1.7753  0.6928  0.1486
  814MOL0     H 7426   9.961   7.983   2.728  1.2357 -1.9535 -2.1386
  814MOL0     H 7427   9.902   8.140   2.664 -0.5489  0.4942  0.0703
  814MOL0     H 7428   9.766   8.054   2.830  2.9635  2.4037 -0.9003
  814MOL0     H 7429   9.705   7.914   2.733 -2.6885  1.2705  0.6718
  814MOL0     H 7430  10.665   8.015   2.125  0.5289 -0.7747 -0.2186
  814MOL0     H 7431  10.898   8.029   2.154 -1.9450  1.2019  0.0219
  814MOL0     H 7432  11.266   7.974   2.413  0.4176 -0.4908  0.5429
  814MOL0     H 7433  11.504   7.995   2.462 -0.6147  0.2954  0.2469
  814MOL0     H 7434  10.681   7.140   1.498 -1.3431  0.6296 -0.3625
  814MOL0     H 7435  10.520   7.235   1.346  0.1001 -1.7225  2.5122
  814MOL0     H 7436  10.225   7.435   1.169 -2.6990  0.0505 -0.1829
  814MOL0     H 7437  10.027   7.496   1.090  0.0140 -1.1323  2.8047
  814MOL0     H 7438   9.893   7.924   0.985  0.0887 -1.2079 -1.0654
  814MOL0     H 7439   9.944   7.914   1.147 -1.3851  0.5064  1.3281
  814MOL0     H 7440   9.698   7.758   1.057  0.9465 -1.3103 -0.1473
  814MOL0     H 7441   9.729   7.798   1.222 -0.1206 -1.1034 -0.8164
  814MOL0     H 7442   9.674   8.002   1.011  1.8130  1.2914  1.0486
  814MOL0     H 7443   9.717   8.042   1.182  1.0836  1.1307 -1.7832
  814MOL0     H 7444   9.519   7.961   1.274  3.0672 -2.4923  0.1838
  814MOL0     H 7445   9.467   8.054   1.133 -1.1040 -0.6817 -0.9997
  814MOL0     H 7446   9.289   7.725   1.015 -1.2636  1.8811 -2.3206
  814MOL0     H 7447  10.145   7.905   1.066  3.1060  0.5172 -1.2173
  814MOL0     H 7448  10.359   7.855   1.154 -0.1682  0.6396 -1.4468
  815MOL0     O 7449   0.138   7.638   2.731 -0.2599  0.3134  0.8114
  815MOL0     C 7450   0.058   7.604   2.813 -0.2817 -0.3263 -0.5194
  815MOL0     O 7451   0.073   7.492   2.892  0.6049  0.1440 -0.3884
  815MOL0     C 7452   0.173   7.399   2.895  0.8423  0.4425  0.2624
  815MOL0     C 7453   0.140   7.266   2.920  0.3595 -0.3945  0.2418
  815MOL0     C 7454   0.232   7.175   2.948 -0.1582  0.6973  0.1649
  815MOL0     C 7455   0.379   7.202   2.945  0.7363 -0.1977 -0.2546
  815MOL0     O 7456   0.481   7.109   2.972  0.6045 -0.0921  0.1459
  815MOL0     C 7457   0.534   7.124   3.110  0.0997  0.4497 -0.5699
  815MOL0     C 7458   0.512   7.003   3.197  0.1346  0.0064  0.5254
  815MOL0     C 7459   0.366   6.999   3.234  0.5026 -0.2766  0.4074
  815MOL0     C 7460   0.319   7.107   3.344  0.5048 -1.3436 -0.1018
  815MOL0     C 7461   0.192   7.055   3.426 -0.8270 -0.0780  0.9861
  815MOL0     C 7462   0.069   7.056   3.326  0.1419 -0.1342  0.2089
  815MOL0     C 7463  -0.056   7.028   3.402 -0.5413 -0.0518 -0.2965
  815MOL0     C 7464  -0.178   7.061   3.316 -0.8288  0.3606 -0.1950
  815MOL0     N 7465  -0.296   7.050   3.394 -0.1194  0.1530  0.1955
  815MOL0     C 7466  -0.320   6.951   3.493 -0.2677  0.2945 -0.2331
  815MOL0     C 7467  -0.439   6.987   3.554 -0.3451  0.2625  0.3700
  815MOL0     C 7468  -0.513   6.930   3.670  0.1833  0.3321 -0.4546
  815MOL0     C 7469  -0.660   6.934   3.670 -0.0205 -0.4636 -1.4698
  815MOL0     C 7470  -0.741   6.880   3.545 -0.3733 -0.8346 -0.6620
  815MOL0     C 7471  -0.891   6.888   3.568 -0.4163  0.5432 -0.1048
  815MOL0     O 7472  -0.923   6.782   3.663 -0.0149  0.1121 -0.9668
  815MOL0     C 7473  -1.052   6.771   3.711  0.7736  0.0204  0.0112
  815MOL0     C 7474  -1.081   6.661   3.798 -0.0371 -0.1407 -0.9726
  815MOL0     C 7475  -1.213   6.641   3.835  0.2493  0.0092  0.2040
  815MOL0     C 7476  -1.330   6.721   3.799  0.2275  0.0537 -0.1753
  815MOL0     C 7477  -1.474   6.689   3.824 -0.0779 -0.4648 -0.7665
  815MOL0     O 7478  -1.565   6.764   3.753 -0.0177 -0.1467  0.8653
  815MOL0     C 7479  -1.700   6.734   3.773 -0.5114 -0.0148  0.6501
  815MOL0     C 7480  -1.743   6.606   3.758 -0.1601  0.6141  0.6795
  815MOL0     C 7481  -1.882   6.580   3.768 -0.3721 -0.3484 -1.2516
  815MOL0     C 7482  -1.970   6.688   3.799  1.5999  0.9487  0.7602
  815MOL0     O 7483  -2.104   6.663   3.811  0.9089  0.4026  0.6621
  815MOL0     C 7484  -2.206   6.768   3.802  0.1138 -0.3017 -0.2669
  815MOL0     C 7485  -2.333   6.699   3.831  0.3717 -0.7140 -1.2628
  815MOL0     C 7486  -2.456   6.790   3.854 -0.2842 -0.8671 -0.1941
  815MOL0     C 7487  -2.584   6.720   3.899 -0.8212 -0.5434  0.9330
  815MOL0     C 7488  -2.649   6.645   3.791  0.2703  0.1768  0.1026
  815MOL0     C 7489  -2.723   6.517   3.847  0.2022 -0.9276  0.2958
  815MOL0     C 7490  -2.856   6.553   3.929  0.8628  0.9289  1.2026
  815MOL0     C 7491  -2.971   6.599   3.845 -0.1908 -0.8893 -0.0498
  815MOL0    Cl 7492  -3.104   6.640   3.957 -0.1068  0.4165 -0.0752
  815MOL0     C 7493  -1.920   6.817   3.800  0.5161  0.0196  1.0260
  815MOL0     C 7494  -1.788   6.841   3.776  0.2390  1.2788 -0.2540
  815MOL0     O 7495  -1.499   6.606   3.911 -0.5648 -0.5276 -0.4352
  815MOL0     C 7496  -1.289   6.831   3.716 -0.7370 -0.0321 -0.3839
  815MOL0     C 7497  -1.159   6.851   3.674 -0.2469 -0.0282  0.3019
  815MOL0     N 7498  -0.473   7.109   3.492 -0.0052 -0.1493 -0.0369
  815MOL0     N 7499  -0.391   7.142   3.400 -0.5066  0.0704  0.4234
  815MOL0     C 7500   0.409   7.340   2.927 -0.2218  0.6473  1.2329
  815MOL0     C 7501   0.309   7.432   2.902  0.5222  0.3565 -0.5192
  815MOL0     C 7502  -0.082   7.653   2.789 -0.3071 -0.7712 -0.8008
  815MOL0     C 7503  -0.176   7.637   2.892  0.3791  0.6605  0.4818
  815MOL0     C 7504  -0.308   7.690   2.876 -0.8726 -0.9438 -0.2813
  815MOL0     C 7505  -0.338   7.756   2.762 -1.1799 -0.5224  0.6133
  815MOL0     O 7506  -0.452   7.826   2.736 -0.2111  0.2468 -0.0779
  815MOL0     C 7507  -0.570   7.795   2.806  0.1731 -0.0135  0.3763
  815MOL0     C 7508  -0.692   7.828   2.725  0.9487  0.5546 -0.3230
  815MOL0     C 7509  -0.817   7.787   2.793  0.0792 -0.2011  0.0838
  815MOL0     C 7510  -0.939   7.869   2.736  0.7732 -0.8014  0.7083
  815MOL0     C 7511  -1.063   7.812   2.795 -0.4860  0.0648  0.9647
  815MOL0     C 7512  -1.174   7.781   2.828  0.1214  0.0170 -0.5128
  815MOL0     C 7513  -0.248   7.751   2.655  0.0540 -0.1266 -0.5372
  815MOL0     C 7514  -0.119   7.713   2.665  0.9148 -0.2882  0.4886
  815MOL0     H 7515   0.037   7.233   2.911  0.5906 -0.8707 -0.8539
  815MOL0     H 7516   0.204   7.076   2.982  1.2280  0.2038 -0.0525
  815MOL0     H 7517   0.501   7.217   3.157  0.4794  0.5202 -0.4384
  815MOL0     H 7518   0.642   7.137   3.102 -0.2356  3.6731 -0.9254
  815MOL0     H 7519   0.580   7.008   3.282 -0.0073  0.8908  0.5949
  815MOL0     H 7520   0.539   6.912   3.142 -2.6082  0.7951 -2.4535
  815MOL0     H 7521   0.346   6.901   3.278 -1.2548 -0.0513  0.1821
  815MOL0     H 7522   0.296   7.001   3.150 -0.4190 -0.3465  1.1575
  815MOL0     H 7523   0.407   7.112   3.409  0.8973 -1.0740 -0.6522
  815MOL0     H 7524   0.299   7.204   3.298  1.6311 -0.7881  0.5316
  815MOL0     H 7525   0.172   7.118   3.514 -3.3663 -0.4131  0.7111
  815MOL0     H 7526   0.199   6.951   3.459 -3.9784  0.1037  2.5471
  815MOL0     H 7527   0.075   6.973   3.255  3.6433 -0.1815  0.3969
  815MOL0     H 7528   0.067   7.154   3.277 -0.8366  0.9007  2.2033
  815MOL0     H 7529  -0.062   6.922   3.426 -0.8332 -1.0030 -3.9913
  815MOL0     H 7530  -0.063   7.093   3.490  0.9872 -1.7607  1.1537
  815MOL0     H 7531  -0.182   7.000   3.225  0.3141  0.9299 -0.6511
  815MOL0     H 7532  -0.163   7.161   3.276  3.1835 -0.0360 -0.0434
  815MOL0     H 7533  -0.264   6.864   3.528  1.7859  1.7137  0.2156
  815MOL0     H 7534  -0.473   6.980   3.759  1.2103 -0.1787 -0.6194
  815MOL0     H 7535  -0.486   6.825   3.685 -1.6974 -0.2116 -0.6180
  815MOL0     H 7536  -0.691   7.038   3.688 -0.7656 -0.9722  0.3778
  815MOL0     H 7537  -0.691   6.894   3.767  3.1688  1.2454  0.4073
  815MOL0     H 7538  -0.717   6.944   3.460 -0.3377 -2.0325 -1.5958
  815MOL0     H 7539  -0.703   6.781   3.517 -0.3231 -0.7829 -0.7779
  815MOL0     H 7540  -0.948   6.880   3.476  0.4524  0.1078 -0.6181
  815MOL0     H 7541  -0.913   6.985   3.615  1.3959  1.0292 -0.1949
  815MOL0     H 7542  -1.000   6.592   3.822 -1.1024 -1.8069 -1.9545
  815MOL0     H 7543  -1.234   6.559   3.903 -2.0552  1.9517  2.0155
  815MOL0     H 7544  -1.674   6.523   3.742  1.1160  1.7385  0.1289
  815MOL0     H 7545  -1.925   6.481   3.761 -0.0065 -0.5937 -0.2855
  815MOL0     H 7546  -2.212   6.811   3.701 -0.7599  2.9294  1.0188
  815MOL0     H 7547  -2.179   6.840   3.880  3.0817 -1.0556 -0.4545
  815MOL0     H 7548  -2.309   6.633   3.915  1.6397 -1.7951 -2.4430
  815MOL0     H 7549  -2.345   6.630   3.747 -2.3837 -0.8878 -0.8450
  815MOL0     H 7550  -2.480   6.843   3.761 -4.1801 -0.8427  0.6668
  815MOL0     H 7551  -2.409   6.866   3.918  1.5438  2.4926 -4.9000
  815MOL0     H 7552  -2.561   6.650   3.980  0.6804 -2.5075 -1.0443
  815MOL0     H 7553  -2.653   6.794   3.940 -0.0455  1.8796 -1.8166
  815MOL0     H 7554  -2.576   6.614   3.716  0.2756  2.1950 -0.7813
  815MOL0     H 7555  -2.720   6.716   3.746 -0.1692  0.8730  1.8210
  815MOL0     H 7556  -2.649   6.450   3.892  0.2655 -1.6458 -0.8659
  815MOL0     H 7557  -2.766   6.459   3.765 -0.6474  0.8476 -0.5659
  815MOL0     H 7558  -2.884   6.456   3.973  1.2634  0.0091 -0.4743
  815MOL0     H 7559  -2.829   6.621   4.010  0.9849  0.4538  1.5709
  815MOL0     H 7560  -3.004   6.530   3.767 -0.8434  1.3398 -1.8588
  815MOL0     H 7561  -2.931   6.681   3.786 -0.4301  0.1226  1.1402
  815MOL0     H 7562  -1.991   6.899   3.801 -3.6960 -3.2802  0.7580
  815MOL0     H 7563  -1.763   6.945   3.761 -0.1435  1.8203  2.4674
  815MOL0     H 7564  -1.366   6.899   3.682 -0.6911 -0.0353 -0.4943
  815MOL0     H 7565  -1.137   6.942   3.619 -2.1908  0.3109  0.0031
  815MOL0     H 7566   0.511   7.379   2.929  0.3353 -0.4050 -1.4961
  815MOL0     H 7567   0.327   7.539   2.900 -0.6879  0.5644 -1.3024
  815MOL0     H 7568  -0.137   7.581   2.977 -1.4699 -3.0671 -0.9061
  815MOL0     H 7569  -0.374   7.693   2.961  2.4610 -1.9999  2.5680
  815MOL0     H 7570  -0.561   7.846   2.903 -0.7442 -4.1672  2.9093
  815MOL0     H 7571  -0.573   7.689   2.834  1.1925 -0.0337  0.4452
  815MOL0     H 7572  -0.697   7.934   2.698 -1.8880 -0.0832 -2.8969
  815MOL0     H 7573  -0.695   7.769   2.633 -3.0891  0.1099 -0.0730
  815MOL0     H 7574  -0.811   7.808   2.900 -1.1272 -1.1128  0.3479
  815MOL0     H 7575  -0.836   7.679   2.791 -1.2066 -0.1817  3.9734
  815MOL0     H 7576  -0.925   7.975   2.761 -1.1484 -0.0906 -0.9109
  815MOL0     H 7577  -0.947   7.851   2.628  1.1437 -1.8522  0.8505
  815MOL0     H 7578  -1.270   7.775   2.875  0.7524  4.6236  1.9440
  815MOL0     H 7579  -0.280   7.793   2.561  1.0721 -1.5019 -1.5444
  815MOL0     H 7580  -0.065   7.726   2.572 -0.2334  4.2423  0.2443
  816MOL0     O 7581   7.511   5.257   9.056  0.0366  0.7829 -0.4014
  816MOL0     C 7582   7.582   5.157   9.083  0.5538  0.7279  0.3809
  816MOL0     O 7583   7.536   5.042   9.155 -0.3584  0.0689  0.4044
  816MOL0     C 7584   7.403   5.031   9.175  0.5673 -0.2829 -0.3240
  816MOL0     C 7585   7.319   4.997   9.078 -0.1327 -0.4634  0.0220
  816MOL0     C 7586   7.185   4.976   9.095  0.2229 -0.1881  0.0100
  816MOL0     C 7587   7.123   5.002   9.219  0.3032  0.0037  0.4134
  816MOL0     O 7588   6.990   5.007   9.215 -0.0896  0.5698 -0.0615
  816MOL0     C 7589   6.913   5.056   9.323  0.6449  0.1066 -0.4498
  816MOL0     C 7590   6.763   5.063   9.289  0.0951  0.3025  0.1098
  816MOL0     C 7591   6.673   5.066   9.414 -0.2391 -0.5540 -0.6993
  816MOL0     C 7592   6.528   5.021   9.384 -0.5584  0.3123  0.5634
  816MOL0     C 7593   6.463   5.013   9.519  0.4786  0.6127  0.1374
  816MOL0     C 7594   6.316   4.994   9.492  0.9104 -0.2682 -0.2755
  816MOL0     C 7595   6.267   4.938   9.629  0.3672 -0.5578 -0.1011
  816MOL0     C 7596   6.116   4.916   9.631  0.1915 -0.0900 -0.4205
  816MOL0     N 7597   6.052   4.930   9.766  0.1154  0.0801  0.7905
  816MOL0     C 7598   5.922   4.959   9.782 -0.3846  0.8761  0.6015
  816MOL0     C 7599   5.893   4.931   9.909  0.7574  0.1043  0.3095
  816MOL0     C 7600   5.762   4.956   9.990  0.2755  0.4641 -0.2924
  816MOL0     C 7601   5.667   5.044   9.927  0.6237 -0.7138 -0.2627
  816MOL0     C 7602   5.543   5.057  10.018  0.2606 -0.0882  0.8415
  816MOL0     C 7603   5.427   5.130   9.954  0.1863  0.8943 -0.3638
  816MOL0     O 7604   5.303   5.098  10.022  0.2618  0.5546 -0.2964
  816MOL0     C 7605   5.196   5.099   9.939  0.5621  0.5001 -0.0042
  816MOL0     C 7606   5.072   5.069   9.999 -1.0354 -0.1579 -0.7230
  816MOL0     C 7607   4.953   5.080   9.931  0.1449 -0.1100  0.3291
  816MOL0     C 7608   4.948   5.116   9.798  0.3922  0.3732  0.8116
  816MOL0     C 7609   4.824   5.122   9.714 -0.5285  0.1246 -1.0247
  816MOL0     O 7610   4.705   5.104   9.781  0.3403 -0.0900  0.0092
  816MOL0     C 7611   4.596   5.092   9.692 -0.6321  0.1871 -0.2621
  816MOL0     C 7612   4.531   5.198   9.630 -0.0506  0.1535  0.9084
  816MOL0     C 7613   4.429   5.180   9.541  0.1587 -1.8642 -0.3865
  816MOL0     C 7614   4.374   5.053   9.516  0.5574 -0.1105 -0.2648
  816MOL0     O 7615   4.269   5.032   9.420  0.2024 -0.7169  0.2945
  816MOL0     C 7616   4.272   5.122   9.304  0.4352 -1.1047  0.5392
  816MOL0     C 7617   4.170   5.236   9.309  0.1840 -0.1495  0.0823
  816MOL0     C 7618   4.194   5.343   9.202  0.1487  0.2601  0.1486
  816MOL0     C 7619   4.115   5.472   9.237 -0.0266 -0.6127 -0.7239
  816MOL0     C 7620   3.957   5.468   9.233 -0.4497 -0.0212  1.4352
  816MOL0     C 7621   3.892   5.605   9.253 -0.0284  0.2047  0.2388
  816MOL0     C 7622   3.744   5.616   9.221 -0.2198  0.3106  0.8805
  816MOL0     C 7623   3.666   5.491   9.224 -0.1934 -0.2350  0.4128
  816MOL0    Cl 7624   3.498   5.529   9.235  0.2017 -0.0507 -0.5096
  816MOL0     C 7625   4.426   4.947   9.582 -0.1819 -0.1125 -0.6495
  816MOL0     C 7626   4.530   4.962   9.675  0.1360  0.8649  0.3313
  816MOL0     O 7627   4.836   5.135   9.591  0.1707  0.1055  0.8779
  816MOL0     C 7628   5.069   5.155   9.737  0.2751  0.5012  0.1267
  816MOL0     C 7629   5.189   5.143   9.800 -0.7127 -0.3830 -0.5138
  816MOL0     N 7630   6.004   4.880   9.969  1.3827 -0.7026 -0.6271
  816MOL0     N 7631   6.102   4.883   9.884  0.8049 -0.1329  0.0084
  816MOL0     C 7632   7.205   5.036   9.330  0.2266  1.0722 -0.6928
  816MOL0     C 7633   7.346   5.048   9.308 -0.6780 -1.1819  0.1051
  816MOL0     C 7634   7.722   5.162   9.022  0.0958  0.0878 -0.6072
  816MOL0     C 7635   7.830   5.089   9.075 -0.6255  0.3349 -0.4248
  816MOL0     C 7636   7.964   5.115   9.035 -0.0124  0.6137 -0.4069
  816MOL0     C 7637   7.985   5.206   8.929  1.1337  0.0594  0.6658
  816MOL0     O 7638   8.102   5.223   8.864 -0.6326  0.2342 -0.7346
  816MOL0     C 7639   8.225   5.177   8.929  0.1429  0.3621  0.5708
  816MOL0     C 7640   8.345   5.208   8.835  0.5220  0.4570 -0.4524
  816MOL0     C 7641   8.371   5.360   8.859 -0.1526  0.1547  0.5779
  816MOL0     C 7642   8.487   5.410   8.780 -0.5839 -0.2060  0.2968
  816MOL0     C 7643   8.459   5.412   8.637 -0.0480  0.1689  0.0880
  816MOL0     C 7644   8.440   5.411   8.519 -0.3826  0.9420 -0.1732
  816MOL0     C 7645   7.875   5.273   8.878 -0.1452  0.0036  0.0156
  816MOL0     C 7646   7.748   5.253   8.923  0.0612 -0.4626  0.6464
  816MOL0     H 7647   7.359   4.991   8.978 -2.0598  3.8184 -1.1938
  816MOL0     H 7648   7.132   4.931   9.011  3.1253 -0.5476 -1.7576
  816MOL0     H 7649   6.954   5.151   9.358  3.9019 -1.1451 -0.4480
  816MOL0     H 7650   6.933   4.987   9.406 -0.2786 -2.7284 -2.4231
  816MOL0     H 7651   6.743   4.964   9.247 -0.6758  0.9027 -0.9982
  816MOL0     H 7652   6.746   5.141   9.214 -2.6438 -0.2996 -0.0081
  816MOL0     H 7653   6.666   5.170   9.449 -1.3356  0.1357 -2.7929
  816MOL0     H 7654   6.718   5.004   9.491 -1.8048 -1.1050 -0.1795
  816MOL0     H 7655   6.474   5.090   9.319 -0.8222 -2.0627 -1.9505
  816MOL0     H 7656   6.531   4.920   9.342 -1.6979  0.3605  0.3480
  816MOL0     H 7657   6.474   5.106   9.575 -2.3460  0.1906  1.5553
  816MOL0     H 7658   6.503   4.924   9.570 -2.5908 -2.2773 -2.0535
  816MOL0     H 7659   6.290   4.932   9.405  0.8085 -1.3529  0.5181
  816MOL0     H 7660   6.266   5.088   9.466  0.2784 -0.0714  1.5738
  816MOL0     H 7661   6.320   4.843   9.643  1.3758  0.0867  0.6440
  816MOL0     H 7662   6.298   5.012   9.704  2.6312 -1.3193 -0.2154
  816MOL0     H 7663   6.099   4.821   9.579  1.8953 -1.5700  1.5558
  816MOL0     H 7664   6.069   4.998   9.575  0.0467  1.7962  2.2911
  816MOL0     H 7665   5.853   4.997   9.707 -1.2632  1.4926  1.6884
  816MOL0     H 7666   5.793   4.995  10.087 -0.0564  0.7139 -0.2847
  816MOL0     H 7667   5.717   4.858  10.004 -0.2856  0.5243 -1.5070
  816MOL0     H 7668   5.637   5.003   9.830  1.2176 -2.6429  0.3381
  816MOL0     H 7669   5.724   5.138   9.925 -1.3292  0.5584  0.1698
  816MOL0     H 7670   5.516   4.961  10.062 -0.2440 -0.1305  0.4462
  816MOL0     H 7671   5.578   5.121  10.100 -1.8198 -1.2140  2.7066
  816MOL0     H 7672   5.430   5.090   9.851  0.6305 -0.1284  0.0284
  816MOL0     H 7673   5.447   5.237   9.950  3.1892  0.7827  4.2568
  816MOL0     H 7674   5.063   5.041  10.104  2.2149  0.1311 -0.2681
  816MOL0     H 7675   4.858   5.075   9.984 -0.9721  2.4456 -1.2008
  816MOL0     H 7676   4.566   5.298   9.651  0.0986 -0.1140  2.0236
  816MOL0     H 7677   4.392   5.270   9.494 -0.6759 -0.2623  2.9826
  816MOL0     H 7678   4.247   5.064   9.214 -1.9658 -1.9142  1.6387
  816MOL0     H 7679   4.371   5.167   9.293 -0.9235  2.4479  1.4274
  816MOL0     H 7680   4.184   5.284   9.406 -2.4030  1.8218 -0.4442
  816MOL0     H 7681   4.065   5.206   9.303 -0.0876  0.3721  1.7032
  816MOL0     H 7682   4.173   5.312   9.099 -0.0641 -1.0472  0.5603
  816MOL0     H 7683   4.292   5.385   9.223 -0.7723  1.5627  2.0998
  816MOL0     H 7684   4.137   5.505   9.339 -1.7624  1.9850 -1.0770
  816MOL0     H 7685   4.146   5.560   9.179 -1.5033 -0.1500 -0.8417
  816MOL0     H 7686   3.905   5.392   9.292 -2.7326 -1.8218 -2.5498
  816MOL0     H 7687   3.938   5.450   9.127  2.7051  4.4131 -0.2195
  816MOL0     H 7688   3.940   5.668   9.177 -0.4422 -2.1811 -2.1585
  816MOL0     H 7689   3.901   5.639   9.356 -3.0721  1.3437  0.2466
  816MOL0     H 7690   3.706   5.694   9.287  3.1530  1.2761  1.8462
  816MOL0     H 7691   3.727   5.656   9.120 -1.7416 -4.1215 -0.8791
  816MOL0     H 7692   3.696   5.429   9.309 -1.3107  1.5313  2.1691
  816MOL0     H 7693   3.678   5.446   9.125 -1.3914 -1.4948  0.8095
  816MOL0     H 7694   4.388   4.848   9.557 -2.2345  1.2090 -3.1937
  816MOL0     H 7695   4.570   4.871   9.719  1.3652  2.0023  1.7076
  816MOL0     H 7696   5.066   5.189   9.634 -1.5450  5.3249  1.5456
  816MOL0     H 7697   5.272   5.182   9.742 -0.1620  4.6841  3.0049
  816MOL0     H 7698   7.168   5.069   9.426  0.2366  0.2682 -0.4062
  816MOL0     H 7699   7.416   5.055   9.391  0.1376 -0.5164 -0.6163
  816MOL0     H 7700   7.808   5.027   9.162  0.1827  1.5202  0.6503
  816MOL0     H 7701   8.056   5.075   9.077  1.0440  1.9323 -1.3618
  816MOL0     H 7702   8.218   5.067   8.930  2.1001  0.1903 -0.1078
  816MOL0     H 7703   8.228   5.222   9.029 -0.2943  2.5716 -0.3539
  816MOL0     H 7704   8.429   5.143   8.859 -0.1151 -0.8804 -1.6646
  816MOL0     H 7705   8.311   5.195   8.732 -0.2636  0.7635 -0.2450
  816MOL0     H 7706   8.386   5.382   8.965 -2.1098  1.7168  0.5897
  816MOL0     H 7707   8.283   5.421   8.839  0.6441  2.1314  2.6244
  816MOL0     H 7708   8.512   5.511   8.813  0.1454 -0.7763  1.5747
  816MOL0     H 7709   8.575   5.349   8.801  0.0149  0.1525 -1.0710
  816MOL0     H 7710   8.397   5.421   8.421 -1.9194 -1.8106  0.1168
  816MOL0     H 7711   7.898   5.348   8.804  1.7910 -0.6306 -0.0856
  816MOL0     H 7712   7.671   5.319   8.884 -1.1558 -1.7342  0.8238
  817MOL0     O 7713   7.772   6.040   4.509 -0.2040 -0.4098 -0.1400
  817MOL0     C 7714   7.872   5.973   4.530 -0.8194 -0.3148  0.9862
  817MOL0     O 7715   7.889   5.865   4.611  0.5162  0.7404 -0.0319
  817MOL0     C 7716   7.780   5.783   4.638  0.3521  0.4935 -0.0491
  817MOL0     C 7717   7.674   5.754   4.542 -0.2720  0.5745  0.1436
  817MOL0     C 7718   7.571   5.664   4.583 -0.5449 -0.0808  0.3968
  817MOL0     C 7719   7.570   5.610   4.714 -0.1972  0.0432  0.3235
  817MOL0     O 7720   7.454   5.547   4.757  0.6353 -0.1124 -0.4353
  817MOL0     C 7721   7.449   5.409   4.735  0.0399  0.3919 -0.5367
  817MOL0     C 7722   7.401   5.373   4.600 -0.1346 -0.0864 -0.4103
  817MOL0     C 7723   7.260   5.439   4.567  0.5114 -0.1057 -0.7222
  817MOL0     C 7724   7.250   5.402   4.414 -0.1445 -0.5751 -0.0239
  817MOL0     C 7725   7.136   5.301   4.416 -0.3797  1.0871  0.4127
  817MOL0     C 7726   7.011   5.377   4.440 -0.6665 -0.1184 -0.1416
  817MOL0     C 7727   6.902   5.277   4.454  0.0080  0.6101  0.1756
  817MOL0     C 7728   6.763   5.345   4.460  0.4780 -0.6904  0.4458
  817MOL0     N 7729   6.648   5.262   4.443  0.6289  0.3218  0.4563
  817MOL0     C 7730   6.620   5.180   4.338  0.0758  0.1672  0.3760
  817MOL0     C 7731   6.495   5.144   4.351  0.0947  0.1513 -0.0736
  817MOL0     C 7732   6.426   5.060   4.248 -0.3905  0.0774 -0.2716
  817MOL0     C 7733   6.278   5.057   4.297  0.3133  0.6243 -0.0801
  817MOL0     C 7734   6.200   4.960   4.207  0.1202 -0.2129 -0.2854
  817MOL0     C 7735   6.056   4.958   4.244  0.3751  0.2230 -0.1104
  817MOL0     O 7736   5.979   4.860   4.167  0.1759 -0.2950 -0.3011
  817MOL0     C 7737   5.845   4.883   4.152  0.6971 -1.0423  0.9031
  817MOL0     C 7738   5.780   4.973   4.223  0.5524  0.6590 -0.5374
  817MOL0     C 7739   5.639   4.970   4.222 -0.3417  0.0029 -0.3016
  817MOL0     C 7740   5.566   4.876   4.149  0.1768 -0.3510  0.0899
  817MOL0     C 7741   5.417   4.878   4.151  0.0422  0.4564  0.0203
  817MOL0     O 7742   5.349   4.937   4.254 -0.2003 -1.0544 -0.0050
  817MOL0     C 7743   5.213   4.951   4.277  0.6918 -1.0667  1.3799
  817MOL0     C 7744   5.173   5.069   4.339  0.0462 -0.7896 -0.1934
  817MOL0     C 7745   5.043   5.079   4.393 -0.5776  0.9553 -0.4745
  817MOL0     C 7746   4.943   4.995   4.350  0.1122  0.3472  0.5825
  817MOL0     O 7747   4.811   5.007   4.391 -0.2419 -0.2273  0.1134
  817MOL0     C 7748   4.752   5.127   4.353  0.2678  0.2320 -1.1481
  817MOL0     C 7749   4.733   5.148   4.210 -0.2382  0.6521  0.2646
  817MOL0     C 7750   4.674   5.287   4.194 -0.0244 -0.0796  0.6963
  817MOL0     C 7751   4.643   5.321   4.041  0.1762  0.5751 -0.6425
  817MOL0     C 7752   4.532   5.421   4.036  0.5735  0.9011  0.7005
  817MOL0     C 7753   4.413   5.366   3.969  0.9121 -0.5041 -0.0967
  817MOL0     C 7754   4.311   5.481   3.960 -0.1461  0.6948 -0.2996
  817MOL0     C 7755   4.172   5.440   3.911  0.2938 -1.1453  0.1805
  817MOL0    Cl 7756   4.092   5.367   4.055 -0.1433  0.0946 -0.0224
  817MOL0     C 7757   4.979   4.885   4.271 -0.6107 -0.2262 -0.2253
  817MOL0     C 7758   5.111   4.862   4.232 -0.2875  0.3417  0.3383
  817MOL0     O 7759   5.363   4.833   4.049 -0.3376 -0.4003 -0.6770
  817MOL0     C 7760   5.637   4.781   4.067  0.2088  0.0694  0.3359
  817MOL0     C 7761   5.777   4.790   4.071  0.4774  0.8473  0.3929
  817MOL0     N 7762   6.455   5.181   4.476  0.5078  0.7573 -0.5228
  817MOL0     N 7763   6.544   5.260   4.531  0.7695  1.0807 -0.3806
  817MOL0     C 7764   7.673   5.644   4.811  0.6673 -0.5897  1.0247
  817MOL0     C 7765   7.780   5.728   4.769  0.9003 -0.1770 -0.0063
  817MOL0     C 7766   7.999   6.031   4.463 -1.3813  0.4886 -0.0011
  817MOL0     C 7767   8.125   5.966   4.485 -0.0277  0.3672  0.6397
  817MOL0     C 7768   8.245   6.021   4.446 -0.0887 -0.4992  0.8383
  817MOL0     C 7769   8.247   6.132   4.355  0.4120 -0.3888 -0.8109
  817MOL0     O 7770   8.372   6.181   4.306 -0.5967 -0.2861 -0.0902
  817MOL0     C 7771   8.384   6.316   4.263 -0.5552  0.7036  0.3153
  817MOL0     C 7772   8.444   6.398   4.374  0.4375 -0.6914 -0.5069
  817MOL0     C 7773   8.598   6.362   4.405  0.6981  1.3090  1.1727
  817MOL0     C 7774   8.685   6.359   4.288  0.1440 -0.9192  0.4974
  817MOL0     C 7775   8.825   6.354   4.324  0.4063 -0.1128 -1.0172
  817MOL0     C 7776   8.939   6.341   4.363  0.2430  0.7243  0.8017
  817MOL0     C 7777   8.118   6.192   4.336  0.0756 -0.0476  0.6460
  817MOL0     C 7778   7.998   6.143   4.384  0.7517  0.3275  0.0699
  817MOL0     H 7779   7.683   5.806   4.447  0.8181 -0.9056 -0.5927
  817MOL0     H 7780   7.495   5.643   4.509  0.5256  1.0126 -1.0600
  817MOL0     H 7781   7.373   5.376   4.807 -2.7563  2.8692 -2.1248
  817MOL0     H 7782   7.545   5.360   4.752 -0.1046  0.6500  1.2631
  817MOL0     H 7783   7.401   5.264   4.587  1.1494 -0.2636  0.7960
  817MOL0     H 7784   7.479   5.416   4.537  2.0062 -3.1862 -0.1223
  817MOL0     H 7785   7.270   5.547   4.581 -5.0487  0.4967  1.2632
  817MOL0     H 7786   7.182   5.398   4.632  2.7485 -1.1179  1.5193
  817MOL0     H 7787   7.223   5.483   4.345  2.2628 -0.6486 -1.1471
  817MOL0     H 7788   7.342   5.358   4.374 -0.2032 -2.2677  1.6259
  817MOL0     H 7789   7.167   5.223   4.486  0.5019 -0.1246 -1.2711
  817MOL0     H 7790   7.132   5.245   4.322 -2.2077  0.9135  0.5646
  817MOL0     H 7791   6.998   5.446   4.356 -0.5181 -0.9387 -0.8589
  817MOL0     H 7792   7.004   5.442   4.527  0.8377  1.7893 -1.3771
  817MOL0     H 7793   6.912   5.200   4.377  2.6741  1.3258 -0.2738
  817MOL0     H 7794   6.919   5.217   4.545 -1.1590 -2.7429 -1.6166
  817MOL0     H 7795   6.751   5.430   4.391  1.3399  0.1826  1.3225
  817MOL0     H 7796   6.750   5.384   4.561 -1.0722 -2.3240  0.9093
  817MOL0     H 7797   6.682   5.149   4.255 -1.0588 -0.7954 -0.1330
  817MOL0     H 7798   6.472   4.961   4.254 -2.3195 -0.8942 -0.6114
  817MOL0     H 7799   6.437   5.096   4.146 -1.3746 -0.1517 -0.4682
  817MOL0     H 7800   6.227   5.153   4.281  0.5372  0.2744 -3.9218
  817MOL0     H 7801   6.279   5.028   4.402  0.8259  2.7352  0.5404
  817MOL0     H 7802   6.209   4.995   4.103 -0.9675  2.0317  0.3008
  817MOL0     H 7803   6.255   4.865   4.203  3.4584  1.6056 -2.8995
  817MOL0     H 7804   6.008   5.050   4.208 -2.7812 -1.9164 -1.9022
  817MOL0     H 7805   6.041   4.956   4.352 -0.2965  0.1806 -0.2001
  817MOL0     H 7806   5.823   5.043   4.294  2.3976 -1.1677  0.2521
  817MOL0     H 7807   5.596   5.054   4.278  0.7921  1.4549 -1.5340
  817MOL0     H 7808   5.256   5.128   4.376  1.7121 -0.8371 -3.4316
  817MOL0     H 7809   5.021   5.154   4.468 -1.7633  0.8401 -0.7024
  817MOL0     H 7810   4.798   5.211   4.406 -0.0866 -0.7934  0.9091
  817MOL0     H 7811   4.649   5.125   4.391  0.2465  0.2815 -1.2034
  817MOL0     H 7812   4.674   5.069   4.162 -0.6142  1.5348 -0.7531
  817MOL0     H 7813   4.833   5.151   4.167  0.8460 -0.9307  2.4810
  817MOL0     H 7814   4.737   5.370   4.226  0.3507 -1.1055  2.7780
  817MOL0     H 7815   4.585   5.280   4.258 -0.1842  0.1072  0.4957
  817MOL0     H 7816   4.736   5.368   4.008 -1.3452  1.3735 -4.2373
  817MOL0     H 7817   4.628   5.233   3.978  2.1270  0.2560 -0.7124
  817MOL0     H 7818   4.558   5.502   3.968 -3.0214  0.9835 -0.8074
  817MOL0     H 7819   4.508   5.462   4.134 -3.5238  1.7743 -0.5080
  817MOL0     H 7820   4.362   5.289   4.028 -1.7492  1.2883  0.0843
  817MOL0     H 7821   4.439   5.315   3.876  0.7183 -1.3460  0.2958
  817MOL0     H 7822   4.301   5.535   4.054  2.5736  1.9279 -0.6237
  817MOL0     H 7823   4.354   5.558   3.895 -0.6635  0.4474 -0.9509
  817MOL0     H 7824   4.166   5.375   3.823  0.1065 -1.9187  0.7513
  817MOL0     H 7825   4.118   5.529   3.878 -3.5984 -3.5993 -0.7876
  817MOL0     H 7826   4.903   4.814   4.238 -1.8633 -0.6944  3.1836
  817MOL0     H 7827   5.137   4.771   4.178 -1.9543 -0.9078  1.5021
  817MOL0     H 7828   5.591   4.704   4.005  0.0230 -0.3066  0.9306
  817MOL0     H 7829   5.819   4.712   4.008 -1.5203 -1.3032  1.5622
  817MOL0     H 7830   7.655   5.613   4.913 -0.1974 -0.0063  1.0644
  817MOL0     H 7831   7.852   5.762   4.843 -1.2386  2.8906  0.8479
  817MOL0     H 7832   8.148   5.871   4.534  1.4250  1.1764  1.5849
  817MOL0     H 7833   8.336   5.973   4.481 -2.8885 -3.9402  4.4273
  817MOL0     H 7834   8.296   6.367   4.223  0.1398  0.2396 -2.0061
  817MOL0     H 7835   8.450   6.319   4.176 -0.4136  1.6009  0.4488
  817MOL0     H 7836   8.428   6.503   4.348  2.9789 -0.0661  0.1584
  817MOL0     H 7837   8.390   6.376   4.467 -0.4439  0.7709 -0.6439
  817MOL0     H 7838   8.616   6.267   4.456  0.9377  0.6663 -0.0922
  817MOL0     H 7839   8.643   6.430   4.478  2.9051 -0.2823  1.3653
  817MOL0     H 7840   8.665   6.277   4.219 -1.7987 -0.3987  0.3720
  817MOL0     H 7841   8.676   6.445   4.220  1.7549  0.1903  1.6137
  817MOL0     H 7842   9.033   6.316   4.409 -0.1382 -2.0940  0.2452
  817MOL0     H 7843   8.117   6.274   4.265  2.4755 -1.6317 -1.4059
  817MOL0     H 7844   7.910   6.197   4.350  0.1473 -1.8041 -2.0316
  818MOL0     O 7845   7.517   9.587   9.486 -0.4753 -0.4000  0.0096
  818MOL0     C 7846   7.498   9.699   9.445 -0.3505  0.3015 -0.3014
  818MOL0     O 7847   7.385   9.753   9.416 -0.6609 -0.5983 -0.3516
  818MOL0     C 7848   7.270   9.685   9.431  0.3262  0.2971 -0.8222
  818MOL0     C 7849   7.242   9.572   9.356 -1.1320 -0.7877  0.0704
  818MOL0     C 7850   7.114   9.527   9.369  0.9285 -0.7633 -0.7898
  818MOL0     C 7851   7.013   9.582   9.451  0.5685  0.2593 -0.1367
  818MOL0     O 7852   6.892   9.524   9.434 -0.7676  0.1951 -0.0228
  818MOL0     C 7853   6.807   9.516   9.552 -0.3740 -0.3514  0.2974
  818MOL0     C 7854   6.687   9.436   9.526  0.8266  0.5928  0.2218
  818MOL0     C 7855   6.594   9.442   9.647 -0.1421  0.6739  0.4860
  818MOL0     C 7856   6.468   9.358   9.615  0.9486  0.1321 -0.2064
  818MOL0     C 7857   6.362   9.386   9.725 -0.6568  0.0844  0.3620
  818MOL0     C 7858   6.238   9.290   9.720  0.2636 -0.1828 -0.5466
  818MOL0     C 7859   6.142   9.343   9.834 -0.4619  0.0377 -0.2787
  818MOL0     C 7860   5.997   9.287   9.817 -0.6659 -0.2887 -0.4998
  818MOL0     N 7861   5.972   9.146   9.814  0.2270  0.0326 -0.2006
  818MOL0     C 7862   5.883   9.087   9.896  0.0359 -1.2046 -0.2693
  818MOL0     C 7863   5.895   8.953   9.861  0.7598 -0.7298  0.5832
  818MOL0     C 7864   5.810   8.837   9.906 -0.4026 -0.0686  0.5979
  818MOL0     C 7865   5.709   8.856  10.020 -0.1349 -0.3249 -0.4610
  818MOL0     C 7866   5.649   8.723  10.064  0.0491  0.4344 -0.6268
  818MOL0     C 7867   5.568   8.734  10.190  0.3675  0.3319 -0.2253
  818MOL0     O 7868   5.449   8.799  10.161  0.3933  0.0447  1.3138
  818MOL0     C 7869   5.334   8.791  10.232  0.3117  0.6418  0.2342
  818MOL0     C 7870   5.202   8.823  10.188  0.2808 -0.2506  0.4011
  818MOL0     C 7871   5.086   8.809  10.264  1.0263 -0.0171 -1.2963
  818MOL0     C 7872   5.100   8.758  10.396  0.2995 -0.4133  0.1775
  818MOL0     C 7873   4.985   8.766  10.484 -0.7385 -0.0475 -0.7132
  818MOL0     O 7874   4.868   8.764  10.427  0.0867 -0.0193  0.4626
  818MOL0     C 7875   4.748   8.727  10.480  1.2801 -1.0020  0.6548
  818MOL0     C 7876   4.643   8.714  10.391 -0.3718  0.3345 -0.6982
  818MOL0     C 7877   4.518   8.666  10.428  0.0428 -0.2285  0.3949
  818MOL0     C 7878   4.488   8.645  10.567  0.2890  0.6556  0.6066
  818MOL0     O 7879   4.363   8.587  10.590  0.2981  0.1104  0.5182
  818MOL0     C 7880   4.250   8.674  10.600 -0.4039  0.0671  0.7879
  818MOL0     C 7881   4.123   8.593  10.617 -0.4932  0.1956  0.7576
  818MOL0     C 7882   4.003   8.683  10.607 -0.7224 -0.1302  0.3051
  818MOL0     C 7883   3.880   8.611  10.637  0.8951 -0.6909  0.2895
  818MOL0     C 7884   3.773   8.710  10.684  0.0926  0.2028 -0.2144
  818MOL0     C 7885   3.700   8.793  10.584 -0.1733  0.0797 -0.6544
  818MOL0     C 7886   3.563   8.847  10.637  1.1387  0.2856  0.6478
  818MOL0     C 7887   3.450   8.845  10.532 -0.6029  0.1323  0.2802
  818MOL0    Cl 7888   3.417   8.690  10.451 -0.1110  0.1268  0.2426
  818MOL0     C 7889   4.595   8.646  10.653  0.0127 -0.7025 -0.1077
  818MOL0     C 7890   4.721   8.686  10.608 -0.0651  0.4471 -0.0961
  818MOL0     O 7891   5.009   8.766  10.608  0.8904  0.4172  0.3263
  818MOL0     C 7892   5.225   8.729  10.444 -0.1616  0.4347 -0.2200
  818MOL0     C 7893   5.337   8.743  10.360  0.1670 -0.2817 -0.2934
  818MOL0     N 7894   5.992   8.940   9.768 -0.2837 -0.3612 -0.1286
  818MOL0     N 7895   6.044   9.056   9.745  0.5130 -0.3830 -0.5242
  818MOL0     C 7896   7.051   9.687   9.532 -0.0724  0.4615 -0.6065
  818MOL0     C 7897   7.173   9.740   9.520 -0.1717 -1.0200  0.0608
  818MOL0     C 7898   7.623   9.769   9.412  0.0128  0.4896  0.4994
  818MOL0     C 7899   7.618   9.884   9.331  0.1962 -0.0387 -0.3842
  818MOL0     C 7900   7.735   9.961   9.320  0.4023  0.7810 -0.5875
  818MOL0     C 7901   7.854   9.935   9.377 -0.4698  0.1537 -0.8420
  818MOL0     O 7902   7.967  10.013   9.367 -0.0248  0.0834 -0.2802
  818MOL0     C 7903   7.983  10.106   9.262  0.2327 -0.0067 -0.2563
  818MOL0     C 7904   7.977  10.250   9.322  0.8372  0.3488 -0.5765
  818MOL0     C 7905   7.896  10.351   9.236  1.1022 -0.5172  0.8449
  818MOL0     C 7906   7.931  10.490   9.293  0.3496  0.3801 -0.1583
  818MOL0     C 7907   8.068  10.540   9.297  0.4225 -0.5771  1.0097
  818MOL0     C 7908   8.180  10.578   9.301  0.1368 -2.0401  0.2140
  818MOL0     C 7909   7.860   9.806   9.441 -0.1092  0.9170  0.5875
  818MOL0     C 7910   7.753   9.724   9.459  0.1511  0.4057  0.0814
  818MOL0     H 7911   7.308   9.519   9.288 -1.2432  1.0519 -1.5494
  818MOL0     H 7912   7.090   9.436   9.315 -3.7936 -0.4975  0.3906
  818MOL0     H 7913   6.758   9.609   9.582 -2.6414 -1.4891  0.3280
  818MOL0     H 7914   6.863   9.467   9.632  0.6897  2.3039  1.3163
  818MOL0     H 7915   6.717   9.332   9.510 -0.0042  0.1349  1.5706
  818MOL0     H 7916   6.631   9.476   9.441 -3.2683 -0.1053  2.3602
  818MOL0     H 7917   6.568   9.549   9.654  1.8711  1.2593 -0.2623
  818MOL0     H 7918   6.634   9.415   9.745  1.4183  0.2131 -0.2404
  818MOL0     H 7919   6.438   9.370   9.511  2.2522 -1.2074 -0.7679
  818MOL0     H 7920   6.503   9.254   9.618 -1.9186 -0.9129  0.0758
  818MOL0     H 7921   6.325   9.489   9.719 -0.6914  0.0433 -0.1899
  818MOL0     H 7922   6.394   9.364   9.827 -3.0725 -2.6983  0.6390
  818MOL0     H 7923   6.273   9.187   9.727  1.9218  0.4333  1.2435
  818MOL0     H 7924   6.184   9.300   9.625 -0.5477  2.3539  0.0793
  818MOL0     H 7925   6.179   9.306   9.930  3.2515 -1.2745 -2.0226
  818MOL0     H 7926   6.130   9.452   9.835  3.9065  0.7117 -0.5393
  818MOL0     H 7927   5.971   9.310   9.713  1.4465 -0.9265 -1.2159
  818MOL0     H 7928   5.924   9.323   9.890 -0.4138  0.9971 -0.8549
  818MOL0     H 7929   5.817   9.133   9.969  2.2060  0.6667  0.6278
  818MOL0     H 7930   5.885   8.762   9.932 -1.0595 -1.9004 -2.2967
  818MOL0     H 7931   5.743   8.797   9.830 -2.3214 -2.0334  3.1442
  818MOL0     H 7932   5.628   8.920   9.982  0.4528 -1.3302 -3.7685
  818MOL0     H 7933   5.773   8.901  10.096 -1.4402  0.7228  0.0672
  818MOL0     H 7934   5.590   8.692   9.977 -2.1840  0.9059  0.6349
  818MOL0     H 7935   5.730   8.651  10.078 -1.5053 -1.1339  0.7760
  818MOL0     H 7936   5.629   8.785  10.265 -0.0393  1.2294 -0.4901
  818MOL0     H 7937   5.541   8.632  10.217 -1.3540  0.2909 -1.9026
  818MOL0     H 7938   5.181   8.862  10.089 -0.5417 -0.4525  0.4895
  818MOL0     H 7939   4.982   8.823  10.234  0.9937  1.1077 -0.7219
  818MOL0     H 7940   4.666   8.732  10.287 -0.8143 -2.4245 -1.3489
  818MOL0     H 7941   4.431   8.645  10.367 -1.4444  1.2237  1.9028
  818MOL0     H 7942   4.238   8.725  10.504 -1.1533 -2.6771 -0.6775
  818MOL0     H 7943   4.264   8.733  10.692 -0.4309 -0.1291  0.9172
  818MOL0     H 7944   4.130   8.552  10.718  0.9516 -1.3087  0.0994
  818MOL0     H 7945   4.108   8.509  10.549 -0.9686 -0.5450  1.7601
  818MOL0     H 7946   3.999   8.723  10.506  2.0037 -0.4833 -0.0220
  818MOL0     H 7947   4.019   8.772  10.668 -0.9228  0.8645 -1.0516
  818MOL0     H 7948   3.839   8.546  10.560 -2.2501 -2.0131  2.8439
  818MOL0     H 7949   3.896   8.548  10.725  2.8317  0.1349  0.5818
  818MOL0     H 7950   3.824   8.777  10.752  2.6741 -0.9919 -0.8478
  818MOL0     H 7951   3.700   8.653  10.742  0.0317  2.9110  2.5690
  818MOL0     H 7952   3.690   8.735  10.492 -0.3723  1.2288 -1.3740
  818MOL0     H 7953   3.752   8.883  10.550 -0.0725 -0.0577 -0.8640
  818MOL0     H 7954   3.538   8.794  10.730 -1.9954  0.8844  0.2279
  818MOL0     H 7955   3.584   8.948  10.675  3.4012  0.1642 -0.1326
  818MOL0     H 7956   3.484   8.921  10.461 -3.0113 -0.4546 -1.6616
  818MOL0     H 7957   3.362   8.871  10.592 -1.3439 -2.3788  0.4092
  818MOL0     H 7958   4.588   8.590  10.746 -0.2770 -4.9897 -2.4270
  818MOL0     H 7959   4.790   8.676  10.691 -1.8730  3.0849  1.8932
  818MOL0     H 7960   5.242   8.689  10.543 -0.4165  1.7853  0.3834
  818MOL0     H 7961   5.427   8.727  10.418 -0.6977 -0.2364  1.1151
  818MOL0     H 7962   6.986   9.743   9.599 -0.6538 -0.3328 -0.4983
  818MOL0     H 7963   7.190   9.832   9.575 -1.7448 -0.2505 -0.6826
  818MOL0     H 7964   7.525   9.919   9.290  0.0612  2.5856  1.8748
  818MOL0     H 7965   7.716  10.052   9.264 -1.2040 -0.2016 -1.7395
  818MOL0     H 7966   7.904  10.105   9.186  0.6749  1.6383 -0.7735
  818MOL0     H 7967   8.079  10.088   9.212  1.7646  1.1819  2.1105
  818MOL0     H 7968   7.935  10.252   9.423 -0.7827 -1.2292 -1.1637
  818MOL0     H 7969   8.077  10.288   9.347  0.5382  0.3991  0.6020
  818MOL0     H 7970   7.789  10.332   9.237  0.6187  1.9924  1.5895
  818MOL0     H 7971   7.921  10.361   9.129 -3.2767  1.4476 -0.1924
  818MOL0     H 7972   7.874  10.556   9.226  0.6258 -0.1947 -0.9728
  818MOL0     H 7973   7.889  10.494   9.393  1.5151 -0.8543  0.4054
  818MOL0     H 7974   8.284  10.607   9.299 -0.1311 -1.0607 -0.0116
  818MOL0     H 7975   7.957   9.792   9.488 -0.2826  0.9859  0.9664
  818MOL0     H 7976   7.759   9.634   9.519  1.6255  0.9688  0.8209
  819MOL0     O 7977   6.567   9.930   7.755  0.1733  0.6900  0.2296
  819MOL0     C 7978   6.507   9.976   7.850  0.6451  0.3963  0.6228
  819MOL0     O 7979   6.371   9.954   7.872 -0.6671  0.2999  0.1047
  819MOL0     C 7980   6.301   9.866   7.785  0.6915  0.1194  0.3931
  819MOL0     C 7981   6.243   9.903   7.661  0.8920 -0.3790  0.6502
  819MOL0     C 7982   6.169   9.816   7.575  0.5556  0.4796 -0.4477
  819MOL0     C 7983   6.147   9.687   7.623  0.3705  0.1469 -1.1866
  819MOL0     O 7984   6.071   9.607   7.546 -0.1518  1.1047 -0.5818
  819MOL0     C 7985   6.131   9.481   7.487 -0.1080 -0.7509 -0.1394
  819MOL0     C 7986   6.025   9.400   7.406  0.7083  0.6926  0.2789
  819MOL0     C 7987   5.905   9.364   7.492 -0.8237 -0.3933  0.6764
  819MOL0     C 7988   5.790   9.292   7.427 -0.1514  0.0538 -0.6080
  819MOL0     C 7989   5.706   9.252   7.549 -0.5399  0.7414 -0.1225
  819MOL0     C 7990   5.588   9.173   7.494  0.6011 -0.7236 -0.4471
  819MOL0     C 7991   5.516   9.119   7.621  0.6808 -0.0886  0.3541
  819MOL0     C 7992   5.381   9.066   7.583  1.4816 -0.2781 -0.8022
  819MOL0     N 7993   5.300   9.037   7.707 -0.2021  0.3257 -0.4972
  819MOL0     C 7994   5.345   9.029   7.836  0.2699  0.8903 -0.4171
  819MOL0     C 7995   5.241   8.986   7.913  0.4120 -0.6778 -0.0957
  819MOL0     C 7996   5.260   8.948   8.054 -0.1870 -0.5372 -0.5125
  819MOL0     C 7997   5.131   8.939   8.137  0.0234  0.1201 -0.0133
  819MOL0     C 7998   5.075   9.073   8.179  0.1254 -0.1476  0.7166
  819MOL0     C 7999   4.941   9.065   8.258 -0.5417 -0.6339  0.7682
  819MOL0     O 8000   4.963   9.015   8.389  0.2472  0.4618  0.5281
  819MOL0     C 8001   4.840   9.002   8.457  0.6660  0.8604 -0.4929
  819MOL0     C 8002   4.848   8.951   8.591 -0.0678 -0.7610 -0.7552
  819MOL0     C 8003   4.741   8.937   8.678  0.5570  0.7495 -0.2580
  819MOL0     C 8004   4.614   8.971   8.640  0.3607  0.5561 -0.2453
  819MOL0     C 8005   4.499   8.952   8.739 -1.1161 -0.2080  0.6803
  819MOL0     O 8006   4.372   8.965   8.700  0.5806  0.0626 -0.4254
  819MOL0     C 8007   4.267   8.938   8.790 -0.7079  0.5268  1.3361
  819MOL0     C 8008   4.169   8.865   8.730  0.5009 -0.8893 -0.3456
  819MOL0     C 8009   4.051   8.837   8.791  0.2594  0.0999  0.2245
  819MOL0     C 8010   4.030   8.894   8.916  0.1545  0.3709 -0.3152
  819MOL0     O 8011   3.913   8.850   8.973  0.5051  0.3295  0.5383
  819MOL0     C 8012   3.884   8.889   9.110 -0.3412 -0.0555 -1.0346
  819MOL0     C 8013   3.747   8.841   9.161  0.2953 -0.7997 -0.0782
  819MOL0     C 8014   3.755   8.709   9.224  0.2040  0.4067 -0.1631
  819MOL0     C 8015   3.623   8.636   9.252 -0.1449 -0.6167 -0.6011
  819MOL0     C 8016   3.549   8.596   9.131 -0.1855  0.3532  0.3581
  819MOL0     C 8017   3.423   8.518   9.177 -0.1294 -0.8919 -0.2064
  819MOL0     C 8018   3.331   8.484   9.061  0.0649 -0.1186  0.6990
  819MOL0     C 8019   3.212   8.399   9.107  0.7011  1.2158 -1.1958
  819MOL0    Cl 8020   3.102   8.360   8.979 -0.6255  0.2584  0.0912
  819MOL0     C 8021   4.134   8.957   8.983  1.1237 -0.4654  0.1383
  819MOL0     C 8022   4.247   8.989   8.915 -0.3530 -0.1396 -0.2685
  819MOL0     O 8023   4.529   8.928   8.857 -0.5818  0.2083 -0.2093
  819MOL0     C 8024   4.598   9.013   8.504  0.4305 -0.6518  0.3167
  819MOL0     C 8025   4.705   9.037   8.412 -0.0519  0.5431  0.0792
  819MOL0     N 8026   5.134   8.960   7.829 -0.0017 -0.0627 -0.0422
  819MOL0     N 8027   5.170   8.987   7.697 -0.0373 -0.9229 -0.7752
  819MOL0     C 8028   6.198   9.642   7.743  0.3673 -0.0186  0.0585
  819MOL0     C 8029   6.282   9.726   7.819 -0.9391 -0.1649  0.5120
  819MOL0     C 8030   6.582  10.066   7.950 -0.7616  0.1332 -0.9053
  819MOL0     C 8031   6.512  10.164   8.030  0.2000 -1.1998  0.0082
  819MOL0     C 8032   6.580  10.250   8.114  0.3293  0.3766 -0.7030
  819MOL0     C 8033   6.718  10.228   8.139  0.3473  0.4986 -0.4515
  819MOL0     O 8034   6.779  10.315   8.226  0.8248 -0.0480  0.6412
  819MOL0     C 8035   6.920  10.319   8.232 -0.2976  0.2628 -0.5360
  819MOL0     C 8036   6.967  10.237   8.357 -0.1441 -0.7319  0.4255
  819MOL0     C 8037   7.119  10.210   8.367 -0.1382 -0.2676 -1.0477
  819MOL0     C 8038   7.146  10.109   8.478  0.3353 -0.4563 -0.1939
  819MOL0     C 8039   7.159  10.178   8.615 -0.5174  0.5632 -0.3224
  819MOL0     C 8040   7.170  10.226   8.722 -0.1029 -1.0277 -1.3209
  819MOL0     C 8041   6.787  10.125   8.070  0.7126 -0.2272  0.3278
  819MOL0     C 8042   6.723  10.052   7.966 -0.3102  0.1088  0.4433
  819MOL0     H 8043   6.255  10.007   7.632  1.1256 -0.0587  1.8370
  819MOL0     H 8044   6.124   9.832   7.478 -0.6296 -2.5176 -0.5071
  819MOL0     H 8045   6.165   9.422   7.572  0.9620  1.4831  1.0722
  819MOL0     H 8046   6.215   9.485   7.417  1.5952  2.3927  1.8494
  819MOL0     H 8047   6.069   9.319   7.347 -0.5440  0.7826 -0.8517
  819MOL0     H 8048   5.982   9.468   7.331 -1.7582 -2.0200 -0.9710
  819MOL0     H 8049   5.863   9.450   7.546 -1.4370 -2.2967  3.4637
  819MOL0     H 8050   5.947   9.294   7.566 -0.9784 -2.4253 -1.0667
  819MOL0     H 8051   5.730   9.360   7.366  0.6654  2.3204  1.0194
  819MOL0     H 8052   5.825   9.204   7.372 -0.3987 -1.1709  1.1333
  819MOL0     H 8053   5.667   9.338   7.605 -0.4506  1.2960 -0.8901
  819MOL0     H 8054   5.771   9.189   7.611 -4.1578 -2.0922  1.1436
  819MOL0     H 8055   5.617   9.087   7.434  0.0822 -2.1581  1.2730
  819MOL0     H 8056   5.521   9.237   7.436 -2.8023 -0.8685  2.9266
  819MOL0     H 8057   5.575   9.055   7.687  0.1834  2.3220  3.3398
  819MOL0     H 8058   5.502   9.214   7.672  2.2072  1.5462 -2.0585
  819MOL0     H 8059   5.386   8.982   7.514 -0.7357 -2.5643  1.6193
  819MOL0     H 8060   5.326   9.146   7.532  0.5689 -0.2403  0.2080
  819MOL0     H 8061   5.446   9.054   7.866 -0.3550  2.1023  0.8306
  819MOL0     H 8062   5.337   9.009   8.102 -0.0009 -0.5794 -0.7547
  819MOL0     H 8063   5.301   8.847   8.051 -0.9147 -0.8551 -0.0894
  819MOL0     H 8064   5.157   8.882   8.227  1.4102 -2.2254 -1.7761
  819MOL0     H 8065   5.052   8.880   8.090 -0.7234 -0.2370  1.6073
  819MOL0     H 8066   5.153   9.121   8.238  2.0618 -1.6342 -0.5310
  819MOL0     H 8067   5.052   9.124   8.085  0.7327  0.1670  0.7361
  819MOL0     H 8068   4.869   9.001   8.208  1.8989 -1.3571 -2.0808
  819MOL0     H 8069   4.898   9.166   8.261 -0.2349 -0.5103  1.3116
  819MOL0     H 8070   4.948   8.935   8.630 -1.2296  0.0009  2.8564
  819MOL0     H 8071   4.771   8.895   8.774  0.4527 -1.2342 -1.0439
  819MOL0     H 8072   4.171   8.830   8.628  1.0715 -0.1260 -0.6045
  819MOL0     H 8073   3.975   8.786   8.732  0.1072  0.8467 -0.2414
  819MOL0     H 8074   3.894   8.995   9.134  0.0044  0.4100 -3.0160
  819MOL0     H 8075   3.959   8.847   9.177  2.6157 -3.8864 -6.0110
  819MOL0     H 8076   3.673   8.847   9.081  0.3683  1.9133 -0.0543
  819MOL0     H 8077   3.716   8.912   9.239 -3.0749  0.6974 -2.5306
  819MOL0     H 8078   3.804   8.722   9.321  2.5114  1.5539 -1.4086
  819MOL0     H 8079   3.818   8.636   9.173 -0.1580  0.0519 -0.1082
  819MOL0     H 8080   3.643   8.549   9.315  0.7240  1.1956  1.8209
  819MOL0     H 8081   3.560   8.706   9.308 -0.4249 -1.9030  0.7587
  819MOL0     H 8082   3.597   8.524   9.063 -2.4135 -1.6360  0.7799
  819MOL0     H 8083   3.523   8.686   9.075  2.0086  1.0539  0.3735
  819MOL0     H 8084   3.368   8.584   9.244 -1.1990  0.6209 -2.4261
  819MOL0     H 8085   3.446   8.429   9.236  2.2498  1.0129  1.9097
  819MOL0     H 8086   3.299   8.579   9.019  0.2813 -0.6207 -0.6600
  819MOL0     H 8087   3.387   8.431   8.983  0.5815 -0.3440  1.2087
  819MOL0     H 8088   3.159   8.449   9.188 -1.1230 -0.9906 -0.9152
  819MOL0     H 8089   3.259   8.306   9.140  1.2390  1.4764 -1.2207
  819MOL0     H 8090   4.112   8.994   9.083  2.1699  1.1066 -0.1798
  819MOL0     H 8091   4.316   9.049   8.973  1.5283 -1.1555 -1.3778
  819MOL0     H 8092   4.498   9.025   8.465  1.4973  2.6091 -1.8082
  819MOL0     H 8093   4.692   9.083   8.315 -2.1999 -0.5336 -0.1914
  819MOL0     H 8094   6.185   9.541   7.780 -0.9808  0.4186  0.8668
  819MOL0     H 8095   6.324   9.689   7.912 -0.2534  1.5431  0.9273
  819MOL0     H 8096   6.409  10.166   7.999  0.7600 -1.3990 -1.9809
  819MOL0     H 8097   6.524  10.334   8.154 -0.5721  0.0030 -1.1511
  819MOL0     H 8098   6.949  10.423   8.247 -2.2909  0.9845 -1.4688
  819MOL0     H 8099   6.974  10.273   8.149  1.2924 -0.4971  0.8567
  819MOL0     H 8100   6.952  10.300   8.445  1.7711 -1.4769  1.3222
  819MOL0     H 8101   6.906  10.146   8.361 -1.0339 -0.2578 -1.1566
  819MOL0     H 8102   7.163  10.308   8.388 -1.1963 -0.0351  0.1832
  819MOL0     H 8103   7.163  10.167   8.276  0.2507 -1.2980 -0.4000
  819MOL0     H 8104   7.062  10.039   8.481  0.4900 -0.6251  0.3995
  819MOL0     H 8105   7.244  10.064   8.458 -0.9846 -3.4746 -0.3696
  819MOL0     H 8106   7.183  10.266   8.820 -0.6841 -2.2397 -0.7290
  819MOL0     H 8107   6.890  10.093   8.073 -0.1440 -3.3047  0.0301
  819MOL0     H 8108   6.774   9.974   7.911 -2.5151 -0.2610 -1.2280
  820MOL0     O 8109   1.307   7.220   0.189  0.5694 -0.3703 -0.2546
  820MOL0     C 8110   1.375   7.314   0.202 -0.4317  0.0169  0.5914
  820MOL0     O 8111   1.346   7.426   0.272 -0.6485  0.4498 -0.2220
  820MOL0     C 8112   1.231   7.432   0.345 -0.0222  0.8904  0.0910
  820MOL0     C 8113   1.197   7.338   0.443  0.3465 -0.0797  0.7955
  820MOL0     C 8114   1.076   7.347   0.511  0.5902 -0.4611 -0.8298
  820MOL0     C 8115   0.996   7.458   0.501  0.0538  0.2997  0.1039
  820MOL0     O 8116   0.879   7.461   0.571 -0.5096 -0.1622 -0.2683
  820MOL0     C 8117   0.794   7.581   0.588 -0.2028 -0.4297 -0.5234
  820MOL0     C 8118   0.659   7.547   0.652 -0.0858  0.2983  0.5928
  820MOL0     C 8119   0.580   7.675   0.661  0.1151 -0.6382  0.7083
  820MOL0     C 8120   0.445   7.630   0.724 -0.2836 -0.8177  0.8838
  820MOL0     C 8121   0.352   7.747   0.751  0.1665  0.9699 -0.7658
  820MOL0     C 8122   0.290   7.799   0.628 -0.0423 -0.4022 -0.3204
  820MOL0     C 8123   0.183   7.902   0.655 -0.7290  0.7026  0.0979
  820MOL0     C 8124   0.113   7.967   0.536 -0.5916  0.9410 -0.1873
  820MOL0     N 8125  -0.024   8.012   0.560  0.0279 -0.5364 -0.3385
  820MOL0     C 8126  -0.058   8.139   0.596 -0.4453 -0.6998  0.2764
  820MOL0     C 8127  -0.193   8.147   0.612  1.0201  0.0463 -0.2473
  820MOL0     C 8128  -0.285   8.265   0.629 -0.1153 -0.2368  1.4121
  820MOL0     C 8129  -0.331   8.281   0.772 -0.2073 -0.9150  0.2716
  820MOL0     C 8130  -0.419   8.418   0.772  0.7041 -0.1171 -0.6479
  820MOL0     C 8131  -0.570   8.394   0.735 -0.0092 -0.1058 -0.0503
  820MOL0     O 8132  -0.637   8.328   0.840  0.5372 -0.0647  1.0536
  820MOL0     C 8133  -0.757   8.269   0.814 -0.2924 -0.9955  0.4310
  820MOL0     C 8134  -0.833   8.267   0.697 -0.3117 -0.9347 -0.2719
  820MOL0     C 8135  -0.952   8.200   0.693 -0.4046 -0.5388 -0.2058
  820MOL0     C 8136  -1.002   8.137   0.800  0.1746  0.1115  0.0242
  820MOL0     C 8137  -1.144   8.088   0.786 -0.9568 -0.2496  0.0405
  820MOL0     O 8138  -1.210   8.125   0.673 -0.1067 -0.4384  0.4561
  820MOL0     C 8139  -1.346   8.134   0.688  0.5352 -0.6682  0.0533
  820MOL0     C 8140  -1.430   8.027   0.698 -0.5172 -0.1560  0.5441
  820MOL0     C 8141  -1.566   8.032   0.733 -0.3152  0.9614 -0.6977
  820MOL0     C 8142  -1.621   8.153   0.751  0.5379 -0.0298  0.3575
  820MOL0     O 8143  -1.759   8.150   0.774 -0.3819 -0.2491  0.6208
  820MOL0     C 8144  -1.834   8.273   0.754 -0.1237  0.3984 -0.4540
  820MOL0     C 8145  -1.980   8.251   0.744 -0.3318  0.3545  0.0610
  820MOL0     C 8146  -2.034   8.195   0.868 -0.4131  1.3823 -0.7694
  820MOL0     C 8147  -2.179   8.156   0.828 -0.8694 -0.6454 -0.1778
  820MOL0     C 8148  -2.242   8.074   0.938  0.7142 -0.0019  0.2530
  820MOL0     C 8149  -2.392   8.047   0.904 -0.0528  0.0370 -0.3495
  820MOL0     C 8150  -2.454   7.951   1.010  0.2093  0.0235  0.4430
  820MOL0     C 8151  -2.598   7.932   0.981 -0.2196  0.6046 -0.0379
  820MOL0    Cl 8152  -2.610   7.813   0.855 -0.1823  0.1035  0.1225
  820MOL0     C 8153  -1.543   8.267   0.747  0.2491 -0.2838 -0.2734
  820MOL0     C 8154  -1.413   8.256   0.719 -0.2034 -0.3350  0.2504
  820MOL0     O 8155  -1.192   8.021   0.872  0.3808  0.3298 -0.0437
  820MOL0     C 8156  -0.935   8.136   0.921  0.6401 -0.6151 -0.0028
  820MOL0     C 8157  -0.816   8.212   0.928  0.1826 -0.0575  0.3910
  820MOL0     N 8158  -0.236   8.014   0.582  1.0043 -0.4307 -0.5953
  820MOL0     N 8159  -0.133   7.935   0.555  0.2515  0.9251 -0.0720
  820MOL0     C 8160   1.031   7.562   0.416 -1.0416  0.2027  0.6123
  820MOL0     C 8161   1.154   7.545   0.339  0.3019 -0.1234  0.7136
  820MOL0     C 8162   1.505   7.317   0.125 -0.1026  0.7686 -0.0464
  820MOL0     C 8163   1.555   7.201   0.056 -0.0089 -0.4745 -0.8823
  820MOL0     C 8164   1.665   7.207  -0.032 -0.7985 -0.0400  0.4562
  820MOL0     C 8165   1.754   7.323  -0.025  0.2230  0.1545 -0.3078
  820MOL0     O 8166   1.885   7.337  -0.078 -0.4598  0.5921 -0.0988
  820MOL0     C 8167   1.924   7.243  -0.178  1.0891 -0.3288  0.1696
  820MOL0     C 8168   2.053   7.279  -0.250 -0.3215 -0.1300 -0.3215
  820MOL0     C 8169   2.034   7.387  -0.359 -0.2673 -0.1981 -1.1151
  820MOL0     C 8170   2.126   7.351  -0.479 -0.4820  0.2846  0.1543
  820MOL0     C 8171   2.271   7.358  -0.430  0.5352 -0.1040 -0.7400
  820MOL0     C 8172   2.381   7.358  -0.376  0.9116 -0.0912  0.0956
  820MOL0     C 8173   1.705   7.425   0.044  0.2082 -0.0751 -0.1653
  820MOL0     C 8174   1.589   7.427   0.116  1.2176  0.7934  0.6646
  820MOL0     H 8175   1.256   7.247   0.450 -0.9785 -1.3602 -2.5008
  820MOL0     H 8176   1.052   7.272   0.585  0.1568  0.4774 -0.0039
  820MOL0     H 8177   0.784   7.647   0.502  3.4154  1.4048  0.2740
  820MOL0     H 8178   0.838   7.662   0.647  2.5101 -1.1650 -1.3614
  820MOL0     H 8179   0.673   7.501   0.750  3.1851  0.8712  0.5176
  820MOL0     H 8180   0.612   7.469   0.592  0.8149  0.0629  0.1672
  820MOL0     H 8181   0.565   7.721   0.563 -0.7876 -0.6487  0.8301
  820MOL0     H 8182   0.633   7.750   0.721  1.1966 -1.1956  0.4680
  820MOL0     H 8183   0.391   7.550   0.673  0.5371 -0.5181 -0.5124
  820MOL0     H 8184   0.469   7.584   0.821 -2.3090 -1.3394  1.1952
  820MOL0     H 8185   0.388   7.836   0.804 -0.3099  1.8457 -1.8728
  820MOL0     H 8186   0.281   7.708   0.825  2.8620 -1.5077  0.7514
  820MOL0     H 8187   0.238   7.724   0.568 -1.6181 -0.3426  0.9008
  820MOL0     H 8188   0.369   7.834   0.561  3.0090 -1.0853  2.6418
  820MOL0     H 8189   0.112   7.851   0.721 -1.5134  1.0749 -0.4526
  820MOL0     H 8190   0.220   7.991   0.705 -1.0491 -0.1239  1.8820
  820MOL0     H 8191   0.122   7.910   0.444 -0.9612 -2.1153  1.5445
  820MOL0     H 8192   0.164   8.061   0.510  2.0085  0.6369  3.0579
  820MOL0     H 8193   0.007   8.225   0.580  3.9971 -3.9116 -0.6779
  820MOL0     H 8194  -0.376   8.254   0.569 -1.2500  1.0313  2.8015
  820MOL0     H 8195  -0.234   8.356   0.596 -1.5311 -0.0656 -0.5037
  820MOL0     H 8196  -0.234   8.285   0.824 -1.4545 -0.8203  2.7147
  820MOL0     H 8197  -0.381   8.195   0.817 -0.4280  0.2775  2.4674
  820MOL0     H 8198  -0.416   8.459   0.873  3.8306 -0.6937 -0.3991
  820MOL0     H 8199  -0.378   8.503   0.717 -0.2215  0.9515  0.2631
  820MOL0     H 8200  -0.572   8.344   0.638  2.7203  1.7770 -1.2051
  820MOL0     H 8201  -0.616   8.493   0.728  0.4884  0.2913  1.7770
  820MOL0     H 8202  -0.796   8.324   0.612 -2.7971  0.0028 -0.8362
  820MOL0     H 8203  -1.006   8.215   0.599  0.9111 -1.2283 -1.1063
  820MOL0     H 8204  -1.375   7.933   0.689  0.9676  0.6999  0.2413
  820MOL0     H 8205  -1.632   7.946   0.737  0.5977  0.0452 -3.2122
  820MOL0     H 8206  -1.796   8.303   0.655 -1.0820 -0.5718 -1.1427
  820MOL0     H 8207  -1.807   8.336   0.839 -1.9887 -1.5088  1.6851
  820MOL0     H 8208  -2.010   8.196   0.654  0.0885 -0.1157  0.2042
  820MOL0     H 8209  -2.026   8.350   0.732  1.6134  0.9872 -3.5492
  820MOL0     H 8210  -2.025   8.268   0.949 -2.8631 -0.3042  1.1773
  820MOL0     H 8211  -1.977   8.111   0.908 -1.4708  1.1746  0.3673
  820MOL0     H 8212  -2.234   8.248   0.807  0.8985  0.8606  1.4324
  820MOL0     H 8213  -2.174   8.101   0.733  1.6144  0.8999 -1.0212
  820MOL0     H 8214  -2.221   8.125   1.032  3.9124 -1.2959  0.3477
  820MOL0     H 8215  -2.186   7.980   0.948  0.1615 -0.4978 -1.0919
  820MOL0     H 8216  -2.392   7.985   0.814 -1.4638 -3.7562  2.0231
  820MOL0     H 8217  -2.454   8.135   0.885 -1.2048 -0.4751  0.8822
  820MOL0     H 8218  -2.406   7.854   1.021 -0.6657 -0.6598 -1.3043
  820MOL0     H 8219  -2.450   8.004   1.106 -3.3123  2.0473 -0.3489
  820MOL0     H 8220  -2.642   8.019   0.932 -2.1091 -0.8492 -1.0911
  820MOL0     H 8221  -2.652   7.907   1.073  0.0482  1.4820  0.3597
  820MOL0     H 8222  -1.589   8.365   0.762  0.8735  0.5220 -3.0409
  820MOL0     H 8223  -1.363   8.352   0.724  3.5304 -1.8378 -2.9109
  820MOL0     H 8224  -0.979   8.090   1.008  1.4296  0.9576  1.2841
  820MOL0     H 8225  -0.757   8.214   1.019  2.3644 -0.1597 -0.9681
  820MOL0     H 8226   0.964   7.646   0.404 -3.5898 -1.3178  3.1334
  820MOL0     H 8227   1.171   7.626   0.269 -0.3065  0.0058  0.7088
  820MOL0     H 8228   1.505   7.105   0.060 -1.8996  0.4572 -0.6200
  820MOL0     H 8229   1.695   7.121  -0.090  2.8415  1.4871 -0.1969
  820MOL0     H 8230   1.836   7.243  -0.243  1.1364  2.4480 -0.0196
  820MOL0     H 8231   1.929   7.145  -0.130 -0.5084 -0.1787  0.7145
  820MOL0     H 8232   2.133   7.321  -0.188 -0.4396  0.9983 -0.9029
  820MOL0     H 8233   2.087   7.183  -0.290  2.0679  0.3232  0.4533
  820MOL0     H 8234   2.075   7.476  -0.310 -1.2040 -1.7039  2.7132
  820MOL0     H 8235   1.930   7.399  -0.393 -0.2886 -1.6990 -1.6215
  820MOL0     H 8236   2.093   7.253  -0.513 -0.7042  1.0441 -1.9797
  820MOL0     H 8237   2.101   7.424  -0.557 -0.5471 -0.6015 -0.6659
  820MOL0     H 8238   2.467   7.364  -0.313  0.6082  1.6135  0.4014
  820MOL0     H 8239   1.768   7.512   0.057 -1.2151  0.7498  1.7432
  820MOL0     H 8240   1.583   7.520   0.173 -2.1153  1.5266 -0.5930
  821MOL0     O 8241   5.870   9.446   5.729  0.5938  0.2288  0.4635
  821MOL0     C 8242   5.851   9.557   5.679 -0.5947 -0.0575 -0.3438
  821MOL0     O 8243   5.945   9.661   5.673 -0.3247  0.1414 -0.2367
  821MOL0     C 8244   6.070   9.649   5.726 -0.4556  0.4747  0.2255
  821MOL0     C 8245   6.131   9.769   5.767 -0.0799 -1.0523 -0.1670
  821MOL0     C 8246   6.262   9.769   5.815  0.1938 -1.0697  0.4070
  821MOL0     C 8247   6.345   9.654   5.830  0.3410  0.0247  0.8009
  821MOL0     O 8248   6.475   9.647   5.875 -0.1504  0.3540 -0.0564
  821MOL0     C 8249   6.523   9.750   5.962  0.7023  0.4253 -0.0888
  821MOL0     C 8250   6.672   9.722   5.994  0.5487 -0.3406  0.3364
  821MOL0     C 8251   6.690   9.597   6.085 -0.0664 -0.1959  0.3858
  821MOL0     C 8252   6.830   9.533   6.072  0.0499  0.4166 -0.2745
  821MOL0     C 8253   6.944   9.636   6.081  0.6279  0.2202 -0.0737
  821MOL0     C 8254   7.077   9.569   6.113 -0.8666  0.2076 -1.1962
  821MOL0     C 8255   7.119   9.458   6.007 -0.1358 -0.1991 -0.4205
  821MOL0     C 8256   7.261   9.399   6.037 -0.4208 -0.5175 -0.3265
  821MOL0     N 8257   7.363   9.506   6.016 -0.6794  0.2452 -0.6399
  821MOL0     C 8258   7.429   9.524   5.903 -0.1853 -0.0925 -0.0623
  821MOL0     C 8259   7.523   9.610   5.939  0.8250 -0.7321 -0.0794
  821MOL0     C 8260   7.637   9.670   5.861  0.5279 -0.1427  0.3910
  821MOL0     C 8261   7.588   9.717   5.723 -0.5091  0.2878 -0.3398
  821MOL0     C 8262   7.520   9.854   5.707 -0.2218 -0.1110  0.2361
  821MOL0     C 8263   7.367   9.843   5.737  0.0585  0.2176 -0.5026
  821MOL0     O 8264   7.298   9.786   5.630 -0.2814  0.4208 -0.0491
  821MOL0     C 8265   7.167   9.795   5.618 -0.0371 -0.7267  0.1462
  821MOL0     C 8266   7.083   9.850   5.717 -0.5540 -0.0597  0.6429
  821MOL0     C 8267   6.947   9.852   5.697 -0.0133 -0.8347  0.0574
  821MOL0     C 8268   6.886   9.807   5.577 -0.1411 -0.0712 -0.3655
  821MOL0     C 8269   6.752   9.812   5.549  0.8202 -0.2473  0.3299
  821MOL0     O 8270   6.702   9.777   5.428  0.4287 -0.0316  0.1049
  821MOL0     C 8271   6.567   9.774   5.397  0.2909 -0.3416 -0.6275
  821MOL0     C 8272   6.464   9.719   5.474  0.2739  0.4655 -1.2876
  821MOL0     C 8273   6.329   9.739   5.447 -0.1178 -2.1381  0.1124
  821MOL0     C 8274   6.287   9.805   5.328 -0.0831 -0.4909 -0.6063
  821MOL0     O 8275   6.146   9.811   5.302  0.4040  0.7476  0.1106
  821MOL0     C 8276   6.087   9.931   5.350 -0.3575 -0.1546 -0.1113
  821MOL0     C 8277   5.949   9.954   5.279 -1.4995 -0.2187 -0.9079
  821MOL0     C 8278   5.869  10.071   5.342 -0.0143  1.3719  0.5574
  821MOL0     C 8279   5.742  10.085   5.252 -0.5253 -0.2033 -0.2071
  821MOL0     C 8280   5.668  10.196   5.323  0.0650  0.3146 -0.6318
  821MOL0     C 8281   5.515  10.181   5.304 -0.3896 -0.3846 -1.0746
  821MOL0     C 8282   5.432  10.295   5.365  0.1810 -0.1613  0.3002
  821MOL0     C 8283   5.285  10.314   5.322 -0.2417 -0.8102  0.8736
  821MOL0    Cl 8284   5.224  10.465   5.392 -0.1385  0.2306  0.6937
  821MOL0     C 8285   6.392   9.853   5.243  1.0681 -0.3412 -0.6829
  821MOL0     C 8286   6.527   9.841   5.282 -0.2120  0.0746  0.9163
  821MOL0     O 8287   6.682   9.849   5.649 -0.5062  0.4512  0.7093
  821MOL0     C 8288   6.968   9.748   5.476  0.2689  0.3720 -0.7022
  821MOL0     C 8289   7.103   9.736   5.507 -0.0796 -0.6930 -0.6357
  821MOL0     N 8290   7.506   9.639   6.073  0.8061 -0.4339  0.4320
  821MOL0     N 8291   7.407   9.577   6.119  0.4183 -0.3093 -0.2687
  821MOL0     C 8292   6.290   9.536   5.781 -0.0037  0.5199  0.5759
  821MOL0     C 8293   6.150   9.534   5.740  0.6449 -0.3220  0.8125
  821MOL0     C 8294   5.722   9.580   5.624 -0.7321 -0.5449  0.3405
  821MOL0     C 8295   5.607   9.512   5.666 -0.0627  0.1010 -0.2584
  821MOL0     C 8296   5.481   9.525   5.599  0.2504  0.5835 -0.7994
  821MOL0     C 8297   5.469   9.620   5.501  0.7374 -0.2238  1.1995
  821MOL0     O 8298   5.340   9.625   5.447  0.4753 -0.4151 -0.0605
  821MOL0     C 8299   5.301   9.746   5.377 -0.7814  0.2220 -0.0162
  821MOL0     C 8300   5.184   9.801   5.445 -0.0477  0.9626 -0.3008
  821MOL0     C 8301   5.149   9.943   5.396  0.7098 -0.1873  0.4559
  821MOL0     C 8302   4.998   9.964   5.386 -0.6417 -0.2688 -0.1698
  821MOL0     C 8303   4.925   9.966   5.514  0.0348  0.6093  0.9656
  821MOL0     C 8304   4.861   9.963   5.614  0.0021 -0.3108  0.6425
  821MOL0     C 8305   5.581   9.687   5.459 -0.2495 -1.1381  0.3542
  821MOL0     C 8306   5.712   9.667   5.513 -0.3638  0.1691 -0.3405
  821MOL0     H 8307   6.074   9.861   5.761  0.7478 -0.6209 -1.8142
  821MOL0     H 8308   6.325   9.854   5.839  0.4798 -1.6053  1.6411
  821MOL0     H 8309   6.464   9.751   6.055  0.6716  1.2660 -0.1056
  821MOL0     H 8310   6.523   9.856   5.936  1.0912  0.2938 -0.6273
  821MOL0     H 8311   6.711   9.808   6.050 -1.1380 -0.0062  1.0499
  821MOL0     H 8312   6.710   9.714   5.892 -3.5338  0.3683 -1.4004
  821MOL0     H 8313   6.616   9.521   6.062  0.7695 -0.4451 -1.7043
  821MOL0     H 8314   6.661   9.623   6.187 -0.6237  3.0912 -0.4942
  821MOL0     H 8315   6.847   9.454   6.145  3.1596  1.7827  0.6594
  821MOL0     H 8316   6.836   9.488   5.973 -1.9318  1.3425 -0.8793
  821MOL0     H 8317   6.930   9.704   6.165  1.7869  2.2736 -1.4807
  821MOL0     H 8318   6.953   9.693   5.988  2.2066  0.8330  0.4311
  821MOL0     H 8319   7.058   9.516   6.207  0.5328 -0.7667 -1.4424
  821MOL0     H 8320   7.151   9.648   6.124 -1.0075  0.2290 -0.2883
  821MOL0     H 8321   7.047   9.377   6.024 -0.0247 -0.2286 -0.0743
  821MOL0     H 8322   7.111   9.475   5.899 -0.1457 -0.7202 -0.5015
  821MOL0     H 8323   7.283   9.319   5.965  2.4077  0.2063 -0.3761
  821MOL0     H 8324   7.267   9.355   6.137  2.1030 -0.3497 -0.3435
  821MOL0     H 8325   7.415   9.484   5.803  1.6091 -2.7735  0.6435
  821MOL0     H 8326   7.725   9.605   5.858 -0.5547 -1.7993  1.8536
  821MOL0     H 8327   7.672   9.760   5.912 -0.8216  0.3520  0.4750
  821MOL0     H 8328   7.534   9.637   5.670 -0.9373  1.0528 -1.0854
  821MOL0     H 8329   7.679   9.722   5.662 -0.8809 -1.1447 -1.0705
  821MOL0     H 8330   7.578   9.927   5.764  0.6779  1.7999 -2.9002
  821MOL0     H 8331   7.526   9.878   5.600 -3.1738 -1.6160 -0.3779
  821MOL0     H 8332   7.343   9.948   5.757  3.9757  1.4042 -1.2231
  821MOL0     H 8333   7.347   9.787   5.829  2.0673 -1.2226 -0.8743
  821MOL0     H 8334   7.126   9.899   5.804  2.4784 -0.0322 -0.7703
  821MOL0     H 8335   6.882   9.893   5.773  0.4109  2.7511 -1.3130
  821MOL0     H 8336   6.493   9.654   5.556 -1.5354  1.6584  0.3933
  821MOL0     H 8337   6.250   9.699   5.510 -0.8433 -1.7624 -0.5483
  821MOL0     H 8338   6.151  10.016   5.324 -1.0577  0.3382 -0.2563
  821MOL0     H 8339   6.078   9.926   5.459 -0.2547 -1.8138 -0.1524
  821MOL0     H 8340   5.902   9.857   5.299  0.7506 -0.9393  1.4079
  821MOL0     H 8341   5.972   9.965   5.173  1.8898 -1.8558 -0.4589
  821MOL0     H 8342   5.933  10.158   5.357 -0.8796  1.8911  1.3885
  821MOL0     H 8343   5.844  10.045   5.445  0.9462 -0.6632  0.3359
  821MOL0     H 8344   5.760  10.121   5.150 -2.6082 -1.7660 -1.1861
  821MOL0     H 8345   5.685   9.993   5.252 -1.3874  0.3100  1.0194
  821MOL0     H 8346   5.692  10.292   5.276  0.1356  0.8325  0.4353
  821MOL0     H 8347   5.702  10.199   5.427 -0.5284  1.5552 -0.4532
  821MOL0     H 8348   5.485  10.092   5.360 -0.1770  0.3434  0.2328
  821MOL0     H 8349   5.482  10.168   5.200 -0.9634  2.0335 -1.2639
  821MOL0     H 8350   5.418  10.285   5.473 -1.8836  2.2597  0.3638
  821MOL0     H 8351   5.482  10.390   5.346  0.8287 -0.6601 -0.5804
  821MOL0     H 8352   5.218  10.230   5.342  0.5512 -1.4436  0.9246
  821MOL0     H 8353   5.277  10.323   5.213  0.2802  0.8337  0.9401
  821MOL0     H 8354   6.367   9.913   5.156  2.2986  1.2410  0.0042
  821MOL0     H 8355   6.607   9.874   5.217 -2.0807  0.0870 -1.5041
  821MOL0     H 8356   6.928   9.688   5.395 -0.3518  0.5089 -0.5067
  821MOL0     H 8357   7.169   9.698   5.430  1.2149 -2.4809  1.2453
  821MOL0     H 8358   6.355   9.449   5.778 -1.1873 -0.4469  1.5852
  821MOL0     H 8359   6.102   9.439   5.716 -0.9132  0.4279  0.7933
  821MOL0     H 8360   5.603   9.442   5.748  0.7790 -0.5951 -0.7818
  821MOL0     H 8361   5.398   9.464   5.632  0.8398 -0.3819 -1.0625
  821MOL0     H 8362   5.280   9.717   5.273  3.0859  0.6716 -1.0525
  821MOL0     H 8363   5.385   9.815   5.373 -0.0775 -0.6160  0.1699
  821MOL0     H 8364   5.100   9.735   5.422  0.0535  0.5824  0.3949
  821MOL0     H 8365   5.186   9.817   5.553 -0.9881  1.7915 -0.3900
  821MOL0     H 8366   5.189   9.965   5.296  2.3722  0.1828  1.1662
  821MOL0     H 8367   5.200  10.010   5.465 -3.9566  1.4128  2.7714
  821MOL0     H 8368   4.996  10.060   5.333 -1.7015 -0.0707  0.1933
  821MOL0     H 8369   4.951   9.890   5.320 -2.9394  0.3167  0.6931
  821MOL0     H 8370   4.791   9.963   5.694  0.0426 -3.3380  0.7985
  821MOL0     H 8371   5.577   9.742   5.365  0.9775 -0.4506  0.6809
  821MOL0     H 8372   5.805   9.706   5.471  3.3546 -2.5748  4.3626
  822MOL0     O 8373   6.182   2.379   7.431  0.0346 -0.5550  0.1535
  822MOL0     C 8374   6.100   2.312   7.375 -0.0154 -0.2486  0.0231
  822MOL0     O 8375   6.116   2.222   7.281 -0.1435  0.3860  0.2656
  822MOL0     C 8376   6.246   2.177   7.254  1.0375 -0.0264 -0.3086
  822MOL0     C 8377   6.244   2.123   7.130  0.0189 -0.4699 -0.1136
  822MOL0     C 8378   6.359   2.073   7.077 -0.8407  0.3740  0.1302
  822MOL0     C 8379   6.474   2.073   7.160 -1.3102  0.2524  0.1413
  822MOL0     O 8380   6.597   2.014   7.138 -1.1134 -0.3431  0.7587
  822MOL0     C 8381   6.612   1.965   6.998  0.5487 -1.3695 -0.5359
  822MOL0     C 8382   6.750   1.929   6.968 -0.1267 -0.4212 -0.5870
  822MOL0     C 8383   6.792   1.823   7.067 -0.4429  0.1734  0.1607
  822MOL0     C 8384   6.938   1.793   7.072 -0.8648  0.7819 -0.3943
  822MOL0     C 8385   6.969   1.664   7.146  0.8598  0.4365  0.5288
  822MOL0     C 8386   7.125   1.659   7.158  0.3790 -0.9226  0.3535
  822MOL0     C 8387   7.180   1.530   7.208  0.6897  0.1114  0.4488
  822MOL0     C 8388   7.336   1.527   7.205  0.0686 -0.0414 -0.4807
  822MOL0     N 8389   7.384   1.616   7.308 -0.1616 -0.3499 -0.9419
  822MOL0     C 8390   7.382   1.565   7.444 -0.3060  0.3435  0.2178
  822MOL0     C 8391   7.450   1.651   7.520  0.5407  0.2690 -0.1367
  822MOL0     C 8392   7.484   1.640   7.666 -0.2446  0.7836  0.4996
  822MOL0     C 8393   7.386   1.724   7.745 -0.7874  0.1883 -0.2381
  822MOL0     C 8394   7.405   1.694   7.897  0.3296  1.3507 -0.4134
  822MOL0     C 8395   7.280   1.643   7.974 -0.3270  0.4435  0.6908
  822MOL0     O 8396   7.167   1.735   7.963  0.2631 -0.5020  0.2653
  822MOL0     C 8397   7.036   1.689   7.969  0.7562  0.0583 -0.0111
  822MOL0     C 8398   6.945   1.774   7.905 -0.1863  0.0341  0.4414
  822MOL0     C 8399   6.811   1.729   7.910 -0.5025 -0.1214 -0.2042
  822MOL0     C 8400   6.770   1.615   7.974 -0.2942  0.1662 -0.6569
  822MOL0     C 8401   6.626   1.577   7.976 -0.1866 -0.1081 -0.1016
  822MOL0     O 8402   6.546   1.678   7.962  1.2710 -0.3240  0.8789
  822MOL0     C 8403   6.410   1.661   7.938  0.6144 -0.4445  0.0745
  822MOL0     C 8404   6.360   1.556   7.858  0.8098 -0.4386  1.0564
  822MOL0     C 8405   6.231   1.543   7.826  0.3679  0.3039 -0.1913
  822MOL0     C 8406   6.143   1.635   7.879  0.4715  0.4983  0.5211
  822MOL0     O 8407   6.008   1.611   7.865  0.0776  0.0169  0.4134
  822MOL0     C 8408   5.898   1.708   7.899  0.6039  0.6027 -0.7414
  822MOL0     C 8409   5.760   1.665   7.838 -0.3551  0.0363  0.0960
  822MOL0     C 8410   5.635   1.728   7.909 -0.5066  1.2747 -0.1939
  822MOL0     C 8411   5.505   1.719   7.822 -0.4430 -0.4977  0.0736
  822MOL0     C 8412   5.460   1.573   7.800 -0.8403  0.1159 -0.6268
  822MOL0     C 8413   5.315   1.558   7.759 -0.2921  0.1993 -0.8464
  822MOL0     C 8414   5.286   1.616   7.625 -0.4166 -0.3775 -0.3076
  822MOL0     C 8415   5.138   1.583   7.595 -0.1063  0.1883 -0.3650
  822MOL0    Cl 8416   5.025   1.683   7.691  0.5681  0.3627 -0.0868
  822MOL0     C 8417   6.189   1.740   7.954  0.1690  0.1128 -0.0080
  822MOL0     C 8418   6.319   1.753   7.978 -0.0423  0.4194 -0.2067
  822MOL0     O 8419   6.591   1.465   8.013 -0.3331 -0.3417  0.2932
  822MOL0     C 8420   6.867   1.541   8.046  1.2060  0.1413  0.2494
  822MOL0     C 8421   6.993   1.576   8.044 -0.8987  0.4501  1.1894
  822MOL0     N 8422   7.472   1.760   7.437 -0.2252 -0.3210 -0.6259
  822MOL0     N 8423   7.438   1.741   7.317 -0.2635  0.3282 -0.1766
  822MOL0     C 8424   6.474   2.131   7.287 -0.5508 -0.3106  0.4820
  822MOL0     C 8425   6.357   2.175   7.346 -0.7944  0.7316  0.3920
  822MOL0     C 8426   5.961   2.326   7.425  0.4525 -0.0492  0.0339
  822MOL0     C 8427   5.913   2.443   7.495  0.4613  0.4270 -0.6983
  822MOL0     C 8428   5.773   2.463   7.513 -0.8136  0.4241  0.2953
  822MOL0     C 8429   5.679   2.369   7.466  0.2627 -0.6114 -0.6668
  822MOL0     O 8430   5.540   2.391   7.474  0.1900  0.5741 -0.0837
  822MOL0     C 8431   5.503   2.489   7.575 -0.6593 -0.1980  0.3867
  822MOL0     C 8432   5.369   2.463   7.643 -0.2595 -0.4775 -0.2139
  822MOL0     C 8433   5.321   2.596   7.695 -0.7245  0.6535  0.3766
  822MOL0     C 8434   5.201   2.571   7.789  0.1985 -0.1510 -0.9417
  822MOL0     C 8435   5.148   2.701   7.830  0.2105  0.5541  0.5424
  822MOL0     C 8436   5.119   2.809   7.871  0.2997  0.1381 -0.7427
  822MOL0     C 8437   5.725   2.259   7.393  0.3802  0.0105 -1.0053
  822MOL0     C 8438   5.863   2.238   7.370  0.0771  0.6891  0.2675
  822MOL0     H 8439   6.157   2.120   7.064 -0.8522  0.6006  0.9394
  822MOL0     H 8440   6.368   2.032   6.977  2.0906 -0.8662  0.8161
  822MOL0     H 8441   6.575   2.039   6.927  0.5148 -1.5945 -0.7585
  822MOL0     H 8442   6.550   1.874   7.000  1.7011 -2.1898  2.2304
  822MOL0     H 8443   6.807   2.022   6.979 -2.3929  0.8625  1.1348
  822MOL0     H 8444   6.763   1.887   6.868 -1.2111 -1.3880 -0.3461
  822MOL0     H 8445   6.746   1.725   7.056  0.1439 -0.4536  2.5654
  822MOL0     H 8446   6.767   1.848   7.171  2.0108 -1.2041  1.1846
  822MOL0     H 8447   6.970   1.791   6.967 -0.1993  1.0619 -0.2020
  822MOL0     H 8448   6.987   1.873   7.128 -2.3423  1.2637  0.2823
  822MOL0     H 8449   6.933   1.576   7.093 -1.8934  0.9886  1.2662
  822MOL0     H 8450   6.928   1.661   7.248 -2.4585 -0.3313 -0.6955
  822MOL0     H 8451   7.166   1.746   7.209  0.4209 -0.4969 -0.3949
  822MOL0     H 8452   7.160   1.664   7.054  0.2581 -0.4432  0.3339
  822MOL0     H 8453   7.145   1.512   7.311  1.1704 -3.7008  0.0712
  822MOL0     H 8454   7.143   1.447   7.148  2.1179  0.4899 -1.0154
  822MOL0     H 8455   7.358   1.569   7.106 -0.7793  0.1763 -0.5873
  822MOL0     H 8456   7.376   1.425   7.203  0.4769  0.0802  0.8572
  822MOL0     H 8457   7.342   1.468   7.471  0.6448  0.2811  1.4572
  822MOL0     H 8458   7.581   1.689   7.682 -2.0427  4.1299  2.0398
  822MOL0     H 8459   7.492   1.533   7.692 -3.2005  0.4945  0.5104
  822MOL0     H 8460   7.283   1.709   7.710 -1.1569 -0.2205  0.9551
  822MOL0     H 8461   7.401   1.833   7.741 -3.8254  0.8282  1.9036
  822MOL0     H 8462   7.495   1.634   7.910  0.0316  0.5693 -1.6986
  822MOL0     H 8463   7.425   1.786   7.953 -2.6062  0.0830  3.1019
  822MOL0     H 8464   7.332   1.630   8.069  2.4024 -0.2411 -0.7912
  822MOL0     H 8465   7.255   1.547   7.928  0.0849  1.7467 -2.4893
  822MOL0     H 8466   6.987   1.859   7.852 -0.4172 -0.3203 -0.3379
  822MOL0     H 8467   6.742   1.789   7.851  0.0742 -1.8105 -2.7324
  822MOL0     H 8468   6.436   1.489   7.820  1.1293  1.0119 -1.0525
  822MOL0     H 8469   6.194   1.462   7.764  1.9679 -1.6280  1.2242
  822MOL0     H 8470   5.914   1.813   7.872 -3.2670  1.6618  0.3433
  822MOL0     H 8471   5.883   1.690   8.006  1.9635 -1.4224 -0.8366
  822MOL0     H 8472   5.753   1.557   7.827 -1.8457 -0.1821  2.4469
  822MOL0     H 8473   5.750   1.713   7.739 -1.1414 -0.6596 -0.1670
  822MOL0     H 8474   5.654   1.836   7.917 -2.0019  1.8163 -2.5863
  822MOL0     H 8475   5.607   1.680   8.003  0.9753  0.1580 -0.2858
  822MOL0     H 8476   5.428   1.783   7.866  0.2510  2.5839 -2.7492
  822MOL0     H 8477   5.534   1.754   7.722 -0.4796  1.6584  0.7733
  822MOL0     H 8478   5.474   1.515   7.892 -1.8883 -0.0398 -0.5472
  822MOL0     H 8479   5.524   1.522   7.728  1.2574  0.5581  0.8047
  822MOL0     H 8480   5.262   1.615   7.836  0.7574  0.2403 -0.1462
  822MOL0     H 8481   5.289   1.452   7.759  1.6180 -0.3600  1.6514
  822MOL0     H 8482   5.304   1.724   7.629  2.6793 -0.8151  0.6934
  822MOL0     H 8483   5.359   1.582   7.551 -0.5353  0.0944 -0.6474
  822MOL0     H 8484   5.118   1.477   7.615  1.4629  0.4099  2.8228
  822MOL0     H 8485   5.127   1.603   7.488  1.4715  0.2654 -0.5373
  822MOL0     H 8486   6.120   1.815   7.993 -1.7156 -0.9412 -1.1667
  822MOL0     H 8487   6.362   1.841   8.025 -0.6663  0.6308 -0.0345
  822MOL0     H 8488   6.843   1.458   8.112  1.3135 -0.0640  0.0329
  822MOL0     H 8489   7.069   1.509   8.085 -0.1757  0.2358 -0.4090
  822MOL0     H 8490   6.560   2.140   7.353 -0.2063  2.2121 -0.2026
  822MOL0     H 8491   6.352   2.211   7.448 -3.3508 -0.6950  0.8485
  822MOL0     H 8492   5.992   2.508   7.533 -0.4521  0.7183  0.7783
  822MOL0     H 8493   5.741   2.558   7.554 -4.1029  0.1590 -1.3262
  822MOL0     H 8494   5.494   2.580   7.514  1.5718 -0.5425 -0.5420
  822MOL0     H 8495   5.571   2.495   7.661 -0.2373 -1.7761  0.1822
  822MOL0     H 8496   5.293   2.425   7.574  1.4155  1.3156 -3.2858
  822MOL0     H 8497   5.390   2.390   7.722 -2.3973  0.5637  1.4199
  822MOL0     H 8498   5.292   2.672   7.622 -0.5692 -0.5071 -0.9433
  822MOL0     H 8499   5.399   2.646   7.754 -1.1953  1.3529  0.4125
  822MOL0     H 8500   5.128   2.498   7.754  0.9450 -0.9869 -0.8138
  822MOL0     H 8501   5.245   2.528   7.880 -0.5652 -1.2633 -1.0815
  822MOL0     H 8502   5.097   2.902   7.919  2.9717  0.8649 -0.8129
  822MOL0     H 8503   5.660   2.178   7.361  1.7907 -1.6972  0.2797
  822MOL0     H 8504   5.887   2.148   7.314 -0.0017 -0.7331  2.3989
  823MOL0     O 8505   9.171   1.517   4.296 -0.2672  0.0717  0.5703
  823MOL0     C 8506   9.189   1.634   4.254 -0.9956 -0.9576 -0.2754
  823MOL0     O 8507   9.088   1.721   4.229 -0.2594 -0.1309 -0.1782
  823MOL0     C 8508   8.964   1.706   4.289  0.0002 -0.2238 -0.2378
  823MOL0     C 8509   8.935   1.639   4.410 -0.3460  0.2393  0.5235
  823MOL0     C 8510   8.804   1.642   4.455  0.3131 -0.3038  0.0147
  823MOL0     C 8511   8.702   1.724   4.397 -0.0979 -1.1770 -0.3480
  823MOL0     O 8512   8.586   1.733   4.458 -0.7050 -0.5386 -0.1936
  823MOL0     C 8513   8.470   1.684   4.385  0.4339 -0.3681 -0.3339
  823MOL0     C 8514   8.357   1.698   4.484  0.2278 -0.1819  0.6111
  823MOL0     C 8515   8.224   1.656   4.420 -0.4025 -0.1822  0.7403
  823MOL0     C 8516   8.096   1.666   4.515 -0.1681  0.3440 -0.2237
  823MOL0     C 8517   7.975   1.598   4.445 -0.2308  0.2773 -0.1582
  823MOL0     C 8518   7.901   1.705   4.358  0.2500 -0.0818 -0.6429
  823MOL0     C 8519   7.761   1.660   4.314  0.7741 -0.0362  0.7032
  823MOL0     C 8520   7.655   1.657   4.427 -0.4236  0.5272  0.6805
  823MOL0     N 8521   7.582   1.778   4.452 -0.0101 -0.6070  1.0324
  823MOL0     C 8522   7.449   1.785   4.478  0.6661 -0.1234 -0.1248
  823MOL0     C 8523   7.427   1.924   4.459  0.8804  0.3539 -1.2438
  823MOL0     C 8524   7.297   1.989   4.488 -0.4999  0.3663 -0.0146
  823MOL0     C 8525   7.178   1.932   4.410  0.6229 -0.4423  1.2997
  823MOL0     C 8526   7.173   1.988   4.266 -0.0388  0.6130 -0.2491
  823MOL0     C 8527   7.097   2.128   4.268  0.0142  0.6750 -0.0970
  823MOL0     O 8528   6.960   2.108   4.306 -0.1921  0.2198  0.5609
  823MOL0     C 8529   6.883   2.037   4.221  0.3499  0.5779 -0.6289
  823MOL0     C 8530   6.761   1.999   4.285  0.3971 -0.7561  0.1915
  823MOL0     C 8531   6.652   1.932   4.220 -0.1039 -0.0205 -1.0167
  823MOL0     C 8532   6.674   1.898   4.086  1.3660 -0.9689 -0.4870
  823MOL0     C 8533   6.571   1.824   4.009  0.5867 -0.8657 -0.0168
  823MOL0     O 8534   6.484   1.750   4.078 -0.0127 -0.4302 -0.0038
  823MOL0     C 8535   6.369   1.702   4.013  0.1319 -0.2768  0.8320
  823MOL0     C 8536   6.246   1.725   4.080 -0.5808  0.4343  0.3902
  823MOL0     C 8537   6.125   1.671   4.032  0.0091 -0.0900  0.0895
  823MOL0     C 8538   6.116   1.614   3.908  0.6910 -0.5935 -0.5386
  823MOL0     O 8539   5.988   1.571   3.868  0.0143  0.2557  0.4674
  823MOL0     C 8540   5.873   1.661   3.886  0.0017  0.7281  0.4227
  823MOL0     C 8541   5.752   1.620   3.806  0.1637 -0.3806  1.5819
  823MOL0     C 8542   5.650   1.739   3.793  0.1947  0.2710  0.4913
  823MOL0     C 8543   5.513   1.700   3.740 -0.1018 -0.6882  0.1797
  823MOL0     C 8544   5.421   1.821   3.712 -0.4093 -0.4206  0.3283
  823MOL0     C 8545   5.278   1.769   3.704 -0.2116 -0.1742 -0.2128
  823MOL0     C 8546   5.181   1.880   3.666  0.7534  0.2613  0.5295
  823MOL0     C 8547   5.154   1.979   3.772 -0.0805  0.0532 -0.5466
  823MOL0    Cl 8548   4.999   2.063   3.733 -0.3010  0.1433 -0.0195
  823MOL0     C 8549   6.237   1.595   3.842 -0.0405 -0.2005 -0.2819
  823MOL0     C 8550   6.362   1.633   3.891  0.4663 -0.2623  0.1219
  823MOL0     O 8551   6.576   1.831   3.880  0.4049 -0.0665  0.3195
  823MOL0     C 8552   6.793   1.942   4.019  0.3276  0.5448 -0.0707
  823MOL0     C 8553   6.893   2.011   4.088  0.7904 -0.7285  0.6814
  823MOL0     N 8554   7.535   1.982   4.402 -0.4174 -0.3772  0.5944
  823MOL0     N 8555   7.625   1.895   4.394 -0.5525  0.1373 -0.2394
  823MOL0     C 8556   8.734   1.798   4.282  0.9220 -0.2519  0.1505
  823MOL0     C 8557   8.857   1.780   4.222  0.4284 -1.2175 -0.9306
  823MOL0     C 8558   9.332   1.661   4.217  0.2953  1.3139  0.1630
  823MOL0     C 8559   9.440   1.594   4.278 -0.4990 -0.1444 -0.0621
  823MOL0     C 8560   9.577   1.630   4.247 -0.0762  0.0298  0.4380
  823MOL0     C 8561   9.599   1.718   4.142 -0.8412  0.1398  0.2125
  823MOL0     O 8562   9.733   1.747   4.116  0.8894  0.0896 -0.0012
  823MOL0     C 8563   9.779   1.864   4.051 -0.4840 -1.0508 -0.2470
  823MOL0     C 8564   9.773   1.977   4.149  0.1404  0.1995  0.0303
  823MOL0     C 8565   9.792   2.122   4.100 -0.5190 -0.5473  0.0127
  823MOL0     C 8566   9.672   2.219   4.112  0.5355 -0.0709 -0.6278
  823MOL0     C 8567   9.552   2.180   4.047 -0.6616  0.2047  0.6650
  823MOL0     C 8568   9.455   2.139   3.972  0.6163 -1.1902 -1.3601
  823MOL0     C 8569   9.489   1.786   4.073  0.1058  0.5180  0.2766
  823MOL0     C 8570   9.354   1.754   4.113  0.7568  0.2116 -0.4866
  823MOL0     H 8571   9.011   1.582   4.462 -1.9118 -2.1363  0.3621
  823MOL0     H 8572   8.786   1.583   4.545 -0.9211 -0.0173 -0.0198
  823MOL0     H 8573   8.478   1.581   4.348 -2.8510 -1.1406  0.8437
  823MOL0     H 8574   8.448   1.748   4.299  2.8177 -0.4094 -1.0686
  823MOL0     H 8575   8.343   1.801   4.518 -1.1649  0.0625 -0.5792
  823MOL0     H 8576   8.374   1.629   4.567  2.3960  0.5039  0.8136
  823MOL0     H 8577   8.231   1.557   4.374  2.8143  0.7447 -1.0276
  823MOL0     H 8578   8.207   1.732   4.343 -2.4773  2.8027  3.8507
  823MOL0     H 8579   8.129   1.610   4.603  1.0788  2.4462  0.7302
  823MOL0     H 8580   8.073   1.768   4.546  2.3754  1.2241 -1.0116
  823MOL0     H 8581   7.908   1.560   4.523  2.1710  0.9084  2.3673
  823MOL0     H 8582   8.008   1.512   4.387  1.4773  0.6107  0.2555
  823MOL0     H 8583   7.965   1.740   4.276 -2.2664  2.6422 -1.6522
  823MOL0     H 8584   7.880   1.792   4.421  0.7114 -0.5902  0.2269
  823MOL0     H 8585   7.718   1.725   4.237  2.9591  1.0467  0.3292
  823MOL0     H 8586   7.772   1.563   4.266  1.8697  0.8100 -0.8525
  823MOL0     H 8587   7.689   1.616   4.523 -0.9538 -0.0767  0.6206
  823MOL0     H 8588   7.583   1.589   4.381  1.1974 -2.0185  1.6701
  823MOL0     H 8589   7.373   1.711   4.504 -0.5286  1.3588  0.7347
  823MOL0     H 8590   7.312   2.094   4.463  0.4021  0.2207 -0.1208
  823MOL0     H 8591   7.275   1.980   4.594 -2.2731  0.3012 -0.3623
  823MOL0     H 8592   7.095   1.974   4.467 -0.5319 -0.5901 -0.2127
  823MOL0     H 8593   7.169   1.823   4.406 -5.0617 -0.2585 -2.9112
  823MOL0     H 8594   7.271   2.017   4.228  0.4714  0.3091  0.8024
  823MOL0     H 8595   7.116   1.918   4.203  0.9685 -1.3798  0.9511
  823MOL0     H 8596   7.102   2.158   4.163  1.7082 -0.7663 -0.4754
  823MOL0     H 8597   7.157   2.204   4.320  1.1468 -0.5483  0.4306
  823MOL0     H 8598   6.758   2.028   4.389  0.2223  0.2447 -0.0836
  823MOL0     H 8599   6.576   1.906   4.292  0.1624  3.0769  0.5259
  823MOL0     H 8600   6.250   1.778   4.174  1.6343  0.6182  0.2446
  823MOL0     H 8601   6.039   1.683   4.097  2.3788  3.9015  2.9274
  823MOL0     H 8602   5.910   1.758   3.852  0.1467 -0.3935 -2.9558
  823MOL0     H 8603   5.853   1.666   3.994  0.2773 -1.8378  0.6575
  823MOL0     H 8604   5.706   1.530   3.847  1.3787 -2.5480 -1.4228
  823MOL0     H 8605   5.781   1.598   3.703 -1.8028  1.8736  0.4374
  823MOL0     H 8606   5.693   1.822   3.737  0.4025  0.3909  0.8252
  823MOL0     H 8607   5.640   1.774   3.896  0.3749  0.6331  0.3882
  823MOL0     H 8608   5.534   1.659   3.641 -1.0681 -0.2881 -0.2025
  823MOL0     H 8609   5.463   1.631   3.808  1.9291 -0.7024  1.7628
  823MOL0     H 8610   5.453   1.876   3.623 -2.8664  0.4586 -0.0869
  823MOL0     H 8611   5.441   1.877   3.804 -2.3832 -0.2192  0.6776
  823MOL0     H 8612   5.253   1.729   3.802  3.8574 -0.8375  0.7183
  823MOL0     H 8613   5.282   1.684   3.635  0.9607  1.2708 -2.0298
  823MOL0     H 8614   5.222   1.938   3.583  2.4712 -3.2362 -1.2481
  823MOL0     H 8615   5.089   1.832   3.633  1.4242  0.2530 -1.4451
  823MOL0     H 8616   5.239   2.047   3.782  0.3394 -0.1398 -2.4332
  823MOL0     H 8617   5.139   1.928   3.868  0.7149 -0.1545 -0.5217
  823MOL0     H 8618   6.235   1.523   3.760 -2.3638 -3.2867  2.2113
  823MOL0     H 8619   6.454   1.599   3.844  1.0755  2.0529 -0.4672
  823MOL0     H 8620   6.820   1.913   3.918  1.2182  2.5645 -0.4572
  823MOL0     H 8621   6.991   2.035   4.047  0.5727  0.6426  0.9116
  823MOL0     H 8622   8.650   1.854   4.241 -0.8822 -3.4240 -0.8990
  823MOL0     H 8623   8.889   1.841   4.138  2.8503 -0.2761  0.5471
  823MOL0     H 8624   9.415   1.519   4.351 -3.1447  0.3085 -0.4254
  823MOL0     H 8625   9.666   1.594   4.300 -0.9578  0.9157  2.6344
  823MOL0     H 8626   9.728   1.894   3.959  1.0776  2.2031 -0.1988
  823MOL0     H 8627   9.886   1.848   4.031  0.4357  3.0135  0.3985
  823MOL0     H 8628   9.674   1.972   4.195 -0.7471 -0.9778 -1.8754
  823MOL0     H 8629   9.840   1.961   4.234  0.4970  2.5226  0.2507
  823MOL0     H 8630   9.816   2.124   3.993 -0.5550 -0.9931 -0.0046
  823MOL0     H 8631   9.884   2.157   4.147 -0.5766  0.8143 -0.8228
  823MOL0     H 8632   9.647   2.249   4.214  0.8034 -0.0184 -0.5782
  823MOL0     H 8633   9.708   2.313   4.071  1.0589  0.4596  1.0029
  823MOL0     H 8634   9.370   2.086   3.933  0.0244  0.2249 -2.0316
  823MOL0     H 8635   9.507   1.856   3.992 -0.0724 -0.0819 -0.2960
  823MOL0     H 8636   9.274   1.802   4.058  0.6246  1.3683  0.6543
  824MOL0     O 8637   7.619   2.851   5.900  0.1370  0.4954  0.6314
  824MOL0     C 8638   7.699   2.909   5.819  0.1097 -0.0140  0.0847
  824MOL0     O 8639   7.663   2.970   5.696  0.5017 -0.1929  0.4371
  824MOL0     C 8640   7.526   2.995   5.666  0.1226  0.2973  0.5534
  824MOL0     C 8641   7.445   3.069   5.742  0.2475 -0.3570 -0.0362
  824MOL0     C 8642   7.305   3.075   5.707  0.3305  0.5948 -0.2754
  824MOL0     C 8643   7.252   3.008   5.597  0.5382 -0.0636  0.5004
  824MOL0     O 8644   7.123   3.028   5.565 -0.0605  0.3103  0.0507
  824MOL0     C 8645   7.046   2.925   5.500 -1.0051 -0.0231  0.7430
  824MOL0     C 8646   6.915   2.993   5.469  0.3606 -0.4438  0.0299
  824MOL0     C 8647   6.835   2.905   5.386  0.2825  0.4359 -0.1372
  824MOL0     C 8648   6.786   2.768   5.437 -0.3256 -0.0587  0.0573
  824MOL0     C 8649   6.673   2.779   5.539 -0.0142  0.2481 -0.1376
  824MOL0     C 8650   6.665   2.661   5.633 -0.6619 -0.4444  0.1113
  824MOL0     C 8651   6.767   2.662   5.755  0.1104 -0.0912 -1.2444
  824MOL0     C 8652   6.776   2.789   5.843  0.2081  0.1798 -0.3001
  824MOL0     N 8653   6.632   2.840   5.871  0.6596 -0.8619  0.0406
  824MOL0     C 8654   6.594   2.969   5.859  0.3813 -0.0924  0.1524
  824MOL0     C 8655   6.453   2.974   5.875 -0.0638  0.5012 -0.4369
  824MOL0     C 8656   6.373   3.098   5.884  0.5159 -0.2962 -0.5460
  824MOL0     C 8657   6.225   3.059   5.889  0.5868 -0.1250  0.6270
  824MOL0     C 8658   6.132   3.172   5.925  1.2996  0.1815  1.0626
  824MOL0     C 8659   5.988   3.151   5.883 -0.2053 -0.7891 -0.0497
  824MOL0     O 8660   5.913   3.248   5.961 -0.0104  0.1524 -0.2810
  824MOL0     C 8661   5.776   3.264   5.937  0.0509  1.2009  0.3535
  824MOL0     C 8662   5.702   3.188   5.843  1.0494 -0.2356 -0.0657
  824MOL0     C 8663   5.559   3.222   5.839 -0.0167  0.8192  0.4838
  824MOL0     C 8664   5.504   3.310   5.921 -0.8767 -0.1107  0.0504
  824MOL0     C 8665   5.360   3.335   5.909 -0.0065 -0.3149 -0.2222
  824MOL0     O 8666   5.313   3.457   5.943  0.1180 -0.4009  0.6177
  824MOL0     C 8667   5.186   3.499   5.925  0.6115  0.8788 -0.0344
  824MOL0     C 8668   5.128   3.582   6.020 -0.5147  0.3228 -0.1012
  824MOL0     C 8669   4.989   3.624   6.000 -0.1098 -0.3115 -0.3869
  824MOL0     C 8670   4.904   3.586   5.897 -0.4136 -0.2349 -0.8886
  824MOL0     O 8671   4.786   3.641   5.903  1.2068  0.2218 -0.3313
  824MOL0     C 8672   4.688   3.557   5.839 -0.2707 -0.7907 -0.4413
  824MOL0     C 8673   4.549   3.613   5.842 -0.2382 -0.1575  0.3536
  824MOL0     C 8674   4.509   3.666   5.974 -0.5439  1.1727  0.3258
  824MOL0     C 8675   4.523   3.573   6.095  0.1996  0.0906 -0.2094
  824MOL0     C 8676   4.447   3.442   6.091 -0.5785 -0.2541 -0.3414
  824MOL0     C 8677   4.461   3.363   6.224 -0.7347  1.0223  0.5545
  824MOL0     C 8678   4.369   3.244   6.235 -0.2054 -0.0316  0.3784
  824MOL0     C 8679   4.236   3.287   6.291  0.0855  0.0561  0.5064
  824MOL0    Cl 8680   4.142   3.143   6.336  0.2625 -0.2654  0.4983
  824MOL0     C 8681   4.965   3.503   5.805 -0.4732  0.3845  0.3084
  824MOL0     C 8682   5.099   3.462   5.818  0.6430 -0.0409 -0.2394
  824MOL0     O 8683   5.295   3.241   5.874  0.7114 -0.0959  0.3734
  824MOL0     C 8684   5.587   3.381   6.005  0.0211 -0.1821  0.7524
  824MOL0     C 8685   5.720   3.360   6.015  0.4177  0.2880  0.4285
  824MOL0     N 8686   6.413   2.843   5.896 -0.4567  0.0709  0.8036
  824MOL0     N 8687   6.520   2.763   5.894 -0.2782 -0.6928 -0.4734
  824MOL0     C 8688   7.342   2.934   5.511  0.4743  0.9011 -0.3810
  824MOL0     C 8689   7.476   2.935   5.544 -0.1654 -0.4744 -0.3959
  824MOL0     C 8690   7.841   2.890   5.857 -0.0349  0.9317  0.9863
  824MOL0     C 8691   7.937   2.917   5.754 -0.5905  0.4301 -0.1920
  824MOL0     C 8692   8.074   2.892   5.773 -0.4921  0.6925 -0.1682
  824MOL0     C 8693   8.119   2.835   5.895  0.7481 -0.0826 -0.9888
  824MOL0     O 8694   8.251   2.810   5.929 -0.2533 -0.1396  0.7415
  824MOL0     C 8695   8.346   2.785   5.816  0.0647  0.3488  0.6733
  824MOL0     C 8696   8.485   2.753   5.876  0.1329 -0.2966  0.1192
  824MOL0     C 8697   8.540   2.869   5.947 -0.1930  0.5902  0.0432
  824MOL0     C 8698   8.688   2.837   5.977 -0.1026 -2.0506 -0.2438
  824MOL0     C 8699   8.736   2.940   6.074  0.2622  0.4627  0.2261
  824MOL0     C 8700   8.789   3.010   6.157  0.0897 -0.8676 -0.0411
  824MOL0     C 8701   8.018   2.806   5.994 -0.4620  0.6313 -0.6161
  824MOL0     C 8702   7.883   2.840   5.977  0.3443  0.0778  0.4977
  824MOL0     H 8703   7.480   3.131   5.824 -0.6677  1.3319 -0.8730
  824MOL0     H 8704   7.244   3.136   5.774  1.4861 -0.4585  1.8647
  824MOL0     H 8705   7.031   2.836   5.561 -1.2514 -0.5902 -0.1275
  824MOL0     H 8706   7.093   2.889   5.408 -1.9249 -0.0896  0.2892
  824MOL0     H 8707   6.941   3.082   5.411 -2.2211 -0.1703 -0.8296
  824MOL0     H 8708   6.856   3.028   5.555  2.3601  2.1648  0.4944
  824MOL0     H 8709   6.877   2.883   5.288  0.1548  2.4678 -0.6933
  824MOL0     H 8710   6.745   2.959   5.355  0.5134 -0.7644 -3.2464
  824MOL0     H 8711   6.752   2.705   5.355 -2.7814  2.0106 -0.6300
  824MOL0     H 8712   6.869   2.721   5.491 -0.3274  0.2269  0.3137
  824MOL0     H 8713   6.582   2.802   5.484 -0.7565 -0.9768  0.5451
  824MOL0     H 8714   6.696   2.868   5.600  1.7084  1.1322 -1.9524
  824MOL0     H 8715   6.680   2.565   5.582 -0.9799 -0.3158 -0.2293
  824MOL0     H 8716   6.558   2.654   5.653 -0.9110 -2.0821 -1.4574
  824MOL0     H 8717   6.754   2.572   5.816 -1.9312 -0.6639 -2.4361
  824MOL0     H 8718   6.862   2.656   5.700  0.4179  2.6896 -1.1643
  824MOL0     H 8719   6.830   2.863   5.782 -1.0843 -1.3306 -3.5245
  824MOL0     H 8720   6.827   2.760   5.935 -3.2002 -0.8627  1.4183
  824MOL0     H 8721   6.659   3.054   5.839  2.6156 -1.8268 -0.3639
  824MOL0     H 8722   6.383   3.169   5.801  1.3804 -1.1540 -1.1981
  824MOL0     H 8723   6.387   3.158   5.974 -2.3667  1.7700 -1.2945
  824MOL0     H 8724   6.205   2.990   5.972 -1.7555  1.4658  1.4701
  824MOL0     H 8725   6.191   3.013   5.796 -1.2878  1.6184  0.3701
  824MOL0     H 8726   6.125   3.203   6.030  0.8907  3.7443  0.1022
  824MOL0     H 8727   6.178   3.263   5.885 -1.7121  2.5500  2.5913
  824MOL0     H 8728   5.965   3.047   5.907  2.8706 -1.0632  2.3431
  824MOL0     H 8729   5.992   3.167   5.775  3.2062 -3.2709 -0.4410
  824MOL0     H 8730   5.739   3.123   5.765 -0.1884  0.1023 -0.9592
  824MOL0     H 8731   5.492   3.174   5.769 -0.1210 -0.3510  1.3697
  824MOL0     H 8732   5.179   3.610   6.112 -0.9314  1.7647 -0.2943
  824MOL0     H 8733   4.948   3.697   6.070  3.1944  2.4322 -1.0443
  824MOL0     H 8734   4.693   3.461   5.892  0.8942  1.7651  4.6307
  824MOL0     H 8735   4.713   3.536   5.734 -2.6879 -2.8832 -0.7123
  824MOL0     H 8736   4.468   3.550   5.807 -2.6333  3.0690 -0.3659
  824MOL0     H 8737   4.557   3.701   5.778 -3.5828  0.7655  1.0081
  824MOL0     H 8738   4.402   3.681   5.955 -1.0848 -3.5420 -1.9725
  824MOL0     H 8739   4.575   3.751   5.994 -0.5065  1.2043  0.0732
  824MOL0     H 8740   4.630   3.552   6.104  0.5578  0.9399 -2.0021
  824MOL0     H 8741   4.490   3.622   6.187  0.8509 -0.7950  0.5158
  824MOL0     H 8742   4.476   3.383   6.003 -1.4165  3.5742 -3.4968
  824MOL0     H 8743   4.340   3.454   6.069 -1.2366 -3.5128  0.5525
  824MOL0     H 8744   4.437   3.432   6.306 -0.9382 -0.9642  2.2403
  824MOL0     H 8745   4.563   3.325   6.239 -0.2629  2.3852  1.0239
  824MOL0     H 8746   4.352   3.205   6.134  0.7555  0.2051  0.1198
  824MOL0     H 8747   4.411   3.172   6.305 -0.1123 -0.0107  0.3440
  824MOL0     H 8748   4.192   3.352   6.215  1.5706  2.1440  1.3647
  824MOL0     H 8749   4.254   3.334   6.387 -1.8276  1.4280  0.2314
  824MOL0     H 8750   4.907   3.468   5.721  1.8288 -0.7700 -0.8612
  824MOL0     H 8751   5.131   3.393   5.741 -1.1752  2.0376 -3.0611
  824MOL0     H 8752   5.539   3.450   6.073  0.0920  0.3566  0.2694
  824MOL0     H 8753   5.777   3.423   6.084 -0.3940  0.0842  1.3013
  824MOL0     H 8754   7.296   2.879   5.429 -3.0398 -1.3055  2.7106
  824MOL0     H 8755   7.548   2.881   5.484  0.8719 -0.3142  0.6833
  824MOL0     H 8756   7.900   2.966   5.665 -1.7037  0.2368  0.1517
  824MOL0     H 8757   8.152   2.918   5.701  1.5942 -2.6440  0.6752
  824MOL0     H 8758   8.350   2.877   5.757 -1.3529  0.4577  0.7127
  824MOL0     H 8759   8.304   2.706   5.753 -1.1676  1.0656  0.5373
  824MOL0     H 8760   8.473   2.666   5.941 -3.3445  0.0092  0.0637
  824MOL0     H 8761   8.566   2.740   5.803  0.7465  0.6243  0.6221
  824MOL0     H 8762   8.485   2.895   6.038 -0.4984 -0.8880  0.3062
  824MOL0     H 8763   8.539   2.956   5.881 -0.9012 -0.4525 -1.3857
  824MOL0     H 8764   8.702   2.741   6.028 -0.0097 -1.2221  1.3572
  824MOL0     H 8765   8.760   2.831   5.895 -0.6009  0.3746 -0.9313
  824MOL0     H 8766   8.843   3.061   6.233 -2.7114  0.0368  1.4388
  824MOL0     H 8767   8.058   2.765   6.086 -1.4264  2.0844  0.4914
  824MOL0     H 8768   7.804   2.813   6.047 -3.4475  2.4722 -2.4337
  825MOL0     O 8769   2.450   1.503   1.349 -0.4687  0.2152  0.2273
  825MOL0     C 8770   2.546   1.558   1.290 -0.3655  0.4166  0.2065
  825MOL0     O 8771   2.549   1.689   1.242 -0.2915 -0.3215  0.9826
  825MOL0     C 8772   2.447   1.778   1.267 -0.1251  0.0033  0.5383
  825MOL0     C 8773   2.471   1.895   1.349  0.6252  0.5166  0.1452
  825MOL0     C 8774   2.359   1.965   1.403  0.8774 -0.0274  0.1259
  825MOL0     C 8775   2.229   1.906   1.378  0.9510  0.3992  0.6863
  825MOL0     O 8776   2.111   1.949   1.436 -0.5188 -0.1372 -0.0992
  825MOL0     C 8777   2.075   1.907   1.573  0.3766  0.3824  0.4118
  825MOL0     C 8778   1.921   1.934   1.592  0.2703 -0.3443 -0.4987
  825MOL0     C 8779   1.850   1.818   1.511  0.0171  0.0968 -0.9255
  825MOL0     C 8780   1.700   1.847   1.503 -0.1050  0.1778 -0.2195
  825MOL0     C 8781   1.627   1.809   1.638 -0.1914  0.0904  0.7871
  825MOL0     C 8782   1.480   1.837   1.627  0.1845 -1.0255 -0.5685
  825MOL0     C 8783   1.424   1.807   1.770 -0.1934 -0.6645  0.8659
  825MOL0     C 8784   1.277   1.851   1.796 -1.1232 -0.5818 -0.7426
  825MOL0     N 8785   1.170   1.776   1.735  0.4133  1.3822  0.3479
  825MOL0     C 8786   1.042   1.818   1.724  0.2133 -0.1282  0.3359
  825MOL0     C 8787   0.968   1.716   1.667 -1.0024 -0.2667  0.1480
  825MOL0     C 8788   0.826   1.725   1.615  0.8183  0.3017 -0.5783
  825MOL0     C 8789   0.749   1.646   1.728  0.3968  0.3541 -0.7987
  825MOL0     C 8790   0.602   1.629   1.678  0.6079 -0.4646 -0.2690
  825MOL0     C 8791   0.514   1.563   1.779 -0.0340 -1.0113 -0.8833
  825MOL0     O 8792   0.381   1.586   1.733 -0.2704  0.8535 -0.4244
  825MOL0     C 8793   0.280   1.631   1.820 -0.1743  0.0976 -0.0338
  825MOL0     C 8794   0.288   1.750   1.898  0.7330  0.4633 -0.3476
  825MOL0     C 8795   0.177   1.798   1.963  0.2492  0.6561 -0.7572
  825MOL0     C 8796   0.053   1.745   1.930 -1.0328  0.2697 -0.0612
  825MOL0     C 8797  -0.068   1.825   1.953  0.4229  0.5108 -0.3347
  825MOL0     O 8798  -0.194   1.770   1.917 -0.2526 -0.0093  0.0809
  825MOL0     C 8799  -0.315   1.824   1.954  0.5469 -0.1281 -0.8327
  825MOL0     C 8800  -0.425   1.773   1.892  1.3619  0.1339  1.1690
  825MOL0     C 8801  -0.557   1.803   1.925  0.1693  0.0318 -0.1314
  825MOL0     C 8802  -0.587   1.899   2.023 -0.1687 -0.2165 -0.2973
  825MOL0     O 8803  -0.719   1.918   2.043 -0.0649 -0.5618  0.1646
  825MOL0     C 8804  -0.767   1.953   2.180 -0.1279  0.6029  0.4199
  825MOL0     C 8805  -0.842   1.835   2.243 -0.4531 -0.3104 -0.1857
  825MOL0     C 8806  -0.880   1.875   2.383 -0.8529  0.6831 -0.6707
  825MOL0     C 8807  -0.911   1.749   2.456 -0.4523  0.0067 -0.1054
  825MOL0     C 8808  -0.974   1.767   2.589  0.2964 -0.6059  0.0532
  825MOL0     C 8809  -0.983   1.638   2.677 -0.6589  0.3487  0.8996
  825MOL0     C 8810  -1.026   1.502   2.610  0.1331 -0.1354 -0.2683
  825MOL0     C 8811  -1.107   1.416   2.702  0.5024 -1.0823  0.3666
  825MOL0    Cl 8812  -1.279   1.481   2.706 -0.5294  0.1324  0.3167
  825MOL0     C 8813  -0.479   1.949   2.094 -0.5944 -0.3248  0.1801
  825MOL0     C 8814  -0.341   1.916   2.064  0.9405  0.9864 -0.0536
  825MOL0     O 8815  -0.052   1.932   2.015  0.6646  0.1790 -0.9706
  825MOL0     C 8816   0.041   1.617   1.868  0.0989 -0.6850  0.4134
  825MOL0     C 8817   0.156   1.567   1.810  0.1235 -0.8485 -0.5245
  825MOL0     N 8818   1.060   1.612   1.658  0.2600  0.0486  0.0536
  825MOL0     N 8819   1.171   1.642   1.703 -0.5527 -0.4505 -0.6655
  825MOL0     C 8820   2.211   1.812   1.282  0.2593  0.4196 -0.0734
  825MOL0     C 8821   2.319   1.747   1.230 -2.0552  0.0721  0.1572
  825MOL0     C 8822   2.677   1.482   1.282 -0.1389 -0.3088  1.3142
  825MOL0     C 8823   2.683   1.350   1.333  0.4273  0.4914 -0.9825
  825MOL0     C 8824   2.800   1.282   1.342 -0.1228  0.0427 -0.7597
  825MOL0     C 8825   2.915   1.352   1.298  0.4354  0.6497  0.4834
  825MOL0     O 8826   3.023   1.278   1.330  0.6111  0.3506  0.4127
  825MOL0     C 8827   3.154   1.337   1.299  0.6322 -1.0436 -0.1689
  825MOL0     C 8828   3.256   1.319   1.417  0.2368 -0.3809 -0.1107
  825MOL0     C 8829   3.220   1.390   1.552  0.4038 -0.0081  0.2674
  825MOL0     C 8830   3.312   1.344   1.665  0.1286  0.0067  0.5478
  825MOL0     C 8831   3.317   1.448   1.762  0.2564 -0.3465 -0.1482
  825MOL0     C 8832   3.330   1.536   1.842 -0.7731  0.0945  0.2648
  825MOL0     C 8833   2.908   1.471   1.232 -0.1826 -0.1316  0.0032
  825MOL0     C 8834   2.788   1.543   1.226 -0.2641 -0.6795 -0.2618
  825MOL0     H 8835   2.575   1.921   1.366  0.6273  3.0970 -2.8719
  825MOL0     H 8836   2.374   2.055   1.461 -0.7681 -0.3838  1.1721
  825MOL0     H 8837   2.140   1.957   1.646  1.9674  0.2087 -0.8291
  825MOL0     H 8838   2.090   1.799   1.579 -0.0036  0.4025  2.3002
  825MOL0     H 8839   1.876   2.028   1.559 -1.1915 -1.4268 -1.7089
  825MOL0     H 8840   1.901   1.923   1.699 -0.5542  0.2706 -0.5759
  825MOL0     H 8841   1.860   1.719   1.557 -2.4283  0.0393 -0.4260
  825MOL0     H 8842   1.892   1.815   1.410  2.6854  2.3064 -0.0282
  825MOL0     H 8843   1.682   1.954   1.491 -1.3189  0.1245  0.8944
  825MOL0     H 8844   1.655   1.796   1.417 -1.3952  0.7906  0.0649
  825MOL0     H 8845   1.665   1.877   1.714 -0.1002  0.5358  0.3521
  825MOL0     H 8846   1.644   1.704   1.663  0.3210  0.0890  0.4514
  825MOL0     H 8847   1.416   1.772   1.565 -1.4565  0.9721 -1.0980
  825MOL0     H 8848   1.466   1.940   1.595  0.1899 -0.4620  1.1984
  825MOL0     H 8849   1.423   1.699   1.782 -3.3302 -0.7480  0.6434
  825MOL0     H 8850   1.490   1.857   1.842  0.3498  4.5520 -2.6499
  825MOL0     H 8851   1.257   1.952   1.759  1.2825 -1.2549 -4.4517
  825MOL0     H 8852   1.272   1.849   1.905  1.8132  1.5163 -0.4594
  825MOL0     H 8853   0.998   1.916   1.743  3.4396  1.1797  1.8924
  825MOL0     H 8854   0.794   1.683   1.519  0.6041 -0.9520  0.0175
  825MOL0     H 8855   0.806   1.832   1.621  3.2271  0.7301  1.3075
  825MOL0     H 8856   0.750   1.710   1.816 -1.1516  0.5839 -0.9213
  825MOL0     H 8857   0.787   1.545   1.747  1.5891  1.0870  0.9208
  825MOL0     H 8858   0.562   1.728   1.656  0.3521 -0.2964  0.9027
  825MOL0     H 8859   0.597   1.569   1.587 -0.5509 -0.7038 -0.0638
  825MOL0     H 8860   0.537   1.620   1.870  2.1271  2.8017 -3.5015
  825MOL0     H 8861   0.531   1.457   1.801  0.1581 -0.5177  1.6384
  825MOL0     H 8862   0.382   1.805   1.895  0.9538  0.0584 -2.2001
  825MOL0     H 8863   0.192   1.892   2.015  0.6527  1.6607 -2.6165
  825MOL0     H 8864  -0.398   1.708   1.809  0.2861  1.2204 -0.0775
  825MOL0     H 8865  -0.636   1.757   1.867 -0.3632  0.4170  0.2746
  825MOL0     H 8866  -0.828   2.043   2.169 -1.5959 -0.5121 -1.4122
  825MOL0     H 8867  -0.683   1.976   2.245 -0.0904  1.9343 -0.0722
  825MOL0     H 8868  -0.791   1.739   2.249 -4.0810 -2.4886 -0.7501
  825MOL0     H 8869  -0.929   1.805   2.183 -0.1467 -0.7691 -0.4021
  825MOL0     H 8870  -0.965   1.944   2.378  0.9692  3.0710 -1.1234
  825MOL0     H 8871  -0.798   1.925   2.436 -1.2509 -0.4371  1.0645
  825MOL0     H 8872  -0.986   1.696   2.397  0.2662 -1.2243  0.0434
  825MOL0     H 8873  -0.826   1.680   2.464 -1.2962 -0.9092  1.6535
  825MOL0     H 8874  -1.070   1.814   2.565  1.2891  1.7428  0.4050
  825MOL0     H 8875  -0.918   1.839   2.650 -2.2858  2.2804 -0.7534
  825MOL0     H 8876  -1.052   1.659   2.760 -3.5080 -0.8322 -1.0072
  825MOL0     H 8877  -0.890   1.628   2.733 -1.2469 -1.8101  1.5849
  825MOL0     H 8878  -1.072   1.524   2.514  0.5818 -0.0159 -0.4609
  825MOL0     H 8879  -0.932   1.451   2.584  1.4701  0.3168  3.1438
  825MOL0     H 8880  -1.068   1.417   2.804 -3.7295 -6.2377  2.5289
  825MOL0     H 8881  -1.109   1.313   2.665 -1.4018 -0.5386 -1.2468
  825MOL0     H 8882  -0.491   2.013   2.181  2.2844 -0.6154  0.9010
  825MOL0     H 8883  -0.265   1.974   2.116 -2.1854  1.4679  4.6171
  825MOL0     H 8884  -0.057   1.574   1.848  0.7476 -2.0458  0.0457
  825MOL0     H 8885   0.148   1.478   1.747  1.9700 -0.9322 -0.6875
  825MOL0     H 8886   2.114   1.772   1.252 -0.0156  0.3656  0.8487
  825MOL0     H 8887   2.300   1.659   1.168 -1.7142 -0.4540  0.7842
  825MOL0     H 8888   2.588   1.307   1.363  0.3351  0.2923 -1.5403
  825MOL0     H 8889   2.787   1.186   1.391 -2.1189  1.0366  0.8027
  825MOL0     H 8890   3.150   1.446   1.288  0.5187 -0.9488  0.7295
  825MOL0     H 8891   3.195   1.293   1.207  3.0259  1.8612 -0.6425
  825MOL0     H 8892   3.261   1.212   1.435  1.8370 -0.8566 -2.8256
  825MOL0     H 8893   3.350   1.356   1.375  0.1989  0.7473  0.7392
  825MOL0     H 8894   3.116   1.364   1.571  0.4431 -1.1612 -1.0333
  825MOL0     H 8895   3.243   1.495   1.531 -0.6057  0.4136  1.1894
  825MOL0     H 8896   3.283   1.248   1.710  0.8330  0.1588  1.3547
  825MOL0     H 8897   3.413   1.329   1.624 -0.2323  0.5958 -0.5940
  825MOL0     H 8898   3.349   1.604   1.922  3.0996 -0.6515  0.2072
  825MOL0     H 8899   2.991   1.522   1.184 -2.3001  0.8920 -2.9006
  825MOL0     H 8900   2.782   1.647   1.196 -1.7614 -0.0333  2.0708
  826MOL0     O 8901  10.755   8.297   9.186  0.5173 -0.0094  0.0675
  826MOL0     C 8902  10.814   8.326   9.294  0.9213 -0.2585  0.6123
  826MOL0     O 8903  10.765   8.347   9.421  0.9919 -0.3339  0.3515
  826MOL0     C 8904  10.630   8.353   9.455 -0.0230  0.1111 -0.1070
  826MOL0     C 8905  10.520   8.309   9.382 -0.1401 -0.5412  0.3442
  826MOL0     C 8906  10.389   8.319   9.425  0.0590 -0.3218 -0.1399
  826MOL0     C 8907  10.361   8.369   9.553 -0.2002 -0.3789 -0.2157
  826MOL0     O 8908  10.232   8.356   9.605  0.0346 -0.3526 -0.5687
  826MOL0     C 8909  10.213   8.382   9.747 -0.3751 -1.1233 -0.5526
  826MOL0     C 8910  10.066   8.361   9.787  0.1928  0.1842 -0.3848
  826MOL0     C 8911  10.054   8.370   9.943  0.0178  0.5106 -1.0571
  826MOL0     C 8912   9.907   8.378   9.998 -0.4280 -1.1230 -0.2730
  826MOL0     C 8913   9.908   8.462  10.125 -0.3402  0.3514 -0.1792
  826MOL0     C 8914   9.768   8.472  10.186 -0.2232 -0.8335  0.0321
  826MOL0     C 8915   9.750   8.551  10.315 -0.3757  0.2709 -0.4016
  826MOL0     C 8916   9.629   8.499  10.401  0.1634 -0.0458 -1.0120
  826MOL0     N 8917   9.620   8.551  10.535  0.2827 -0.3978 -0.3309
  826MOL0     C 8918   9.727   8.578  10.620 -0.2342  0.6405  0.1292
  826MOL0     C 8919   9.674   8.600  10.742 -0.9064 -1.6317  0.7007
  826MOL0     C 8920   9.746   8.638  10.867  0.6614  0.7546  0.6568
  826MOL0     C 8921   9.892   8.655  10.866 -0.3122  0.3395 -0.1690
  826MOL0     C 8922   9.939   8.733  10.987 -0.4629 -0.5316  1.1800
  826MOL0     C 8923  10.094   8.741  11.004 -0.2025 -0.4290 -0.4078
  826MOL0     O 8924  10.117   8.825  11.119  0.3474  0.2992  0.0070
  826MOL0     C 8925  10.249   8.841  11.164  0.4067 -0.5631  1.1216
  826MOL0     C 8926  10.365   8.826  11.075 -0.3035  0.3955  0.1573
  826MOL0     C 8927  10.492   8.816  11.128  0.7401 -0.8884 -0.3474
  826MOL0     C 8928  10.518   8.859  11.257  0.4090  0.2779  0.0791
  826MOL0     C 8929  10.656   8.863  11.307 -0.6182 -0.5455 -0.7643
  826MOL0     O 8930  10.743   8.807  11.228 -0.3845 -0.2251 -0.1005
  826MOL0     C 8931  10.880   8.824  11.251  0.4621  0.0048 -0.6065
  826MOL0     C 8932  10.964   8.837  11.141 -0.1055 -0.8078  0.4111
  826MOL0     C 8933  11.105   8.834  11.146  0.2377  0.8983 -0.2519
  826MOL0     C 8934  11.162   8.821  11.273  0.6049  0.4602  0.0691
  826MOL0     O 8935  11.295   8.828  11.272 -0.8761 -1.2548 -0.1564
  826MOL0     C 8936  11.362   8.770  11.382  0.8750  0.5495 -0.5125
  826MOL0     C 8937  11.489   8.700  11.326  0.6288 -0.3197  0.0242
  826MOL0     C 8938  11.565   8.613  11.426 -0.6971 -0.0635  0.3645
  826MOL0     C 8939  11.706   8.569  11.368  0.4945 -0.1608  0.4789
  826MOL0     C 8940  11.789   8.476  11.465 -0.5647  0.1101  0.2686
  826MOL0     C 8941  11.937   8.452  11.427 -0.1781  0.5347 -0.0753
  826MOL0     C 8942  11.945   8.369  11.296 -0.0062 -0.4752 -0.5833
  826MOL0     C 8943  12.083   8.352  11.246 -1.1824  0.3951 -0.1852
  826MOL0    Cl 8944  12.159   8.502  11.210 -0.3304 -0.0680  0.4581
  826MOL0     C 8945  11.086   8.825  11.390 -0.9896 -0.0488 -0.1861
  826MOL0     C 8946  10.943   8.817  11.381  0.6683  0.4132 -0.0992
  826MOL0     O 8947  10.683   8.923  11.412  0.2044  0.7408 -0.4313
  826MOL0     C 8948  10.407   8.865  11.348  0.5221  0.8347 -0.0572
  826MOL0     C 8949  10.278   8.858  11.299  0.3062 -0.1932  0.1698
  826MOL0     N 8950   9.535   8.606  10.726 -0.8373 -0.6036 -0.0987
  826MOL0     N 8951   9.510   8.575  10.605 -0.5812 -0.4251  0.0193
  826MOL0     C 8952  10.472   8.422   9.622 -0.7899  0.1343 -0.4395
  826MOL0     C 8953  10.609   8.415   9.577 -0.1436  0.0745 -0.8413
  826MOL0     C 8954  10.960   8.329   9.299 -1.3074 -1.2547 -0.4253
  826MOL0     C 8955  11.029   8.321   9.179 -0.2533 -0.0817  0.2342
  826MOL0     C 8956  11.167   8.309   9.174 -0.7215  0.6777 -0.3858
  826MOL0     C 8957  11.239   8.308   9.289 -0.3277  0.1153 -0.2837
  826MOL0     O 8958  11.370   8.268   9.275  0.8404  0.3488 -0.0563
  826MOL0     C 8959  11.460   8.327   9.367  0.1726  0.0916 -0.8600
  826MOL0     C 8960  11.590   8.268   9.308 -0.3506 -0.0799 -0.6632
  826MOL0     C 8961  11.722   8.333   9.376  0.4764  0.0274 -0.2746
  826MOL0     C 8962  11.847   8.271   9.317 -0.2975 -0.7630  0.2621
  826MOL0     C 8963  11.846   8.122   9.338 -0.1867 -0.9205  0.3774
  826MOL0     C 8964  11.857   8.002   9.363  0.1012 -0.6557 -0.5034
  826MOL0     C 8965  11.174   8.336   9.410  0.0641  0.8327  0.3280
  826MOL0     C 8966  11.036   8.354   9.416 -1.3384  0.0733 -0.0907
  826MOL0     H 8967  10.539   8.260   9.288  3.8287  1.2335  0.0169
  826MOL0     H 8968  10.309   8.285   9.359  0.5285  1.7548 -1.8962
  826MOL0     H 8969  10.255   8.477   9.783 -1.0829 -1.1415  0.3486
  826MOL0     H 8970  10.276   8.303   9.790 -1.8556 -0.6366  2.8489
  826MOL0     H 8971  10.033   8.264   9.749 -2.0237  0.2830  1.0992
  826MOL0     H 8972   9.995   8.433   9.745 -1.6749 -2.7929 -2.7651
  826MOL0     H 8973  10.108   8.461   9.971  2.9842 -1.2437 -0.6604
  826MOL0     H 8974  10.103   8.290   9.998 -2.5899 -1.4724 -1.4013
  826MOL0     H 8975   9.844   8.434   9.928 -0.0651  1.4316  1.3165
  826MOL0     H 8976   9.869   8.276  10.014 -1.4793 -0.6020  0.6765
  826MOL0     H 8977   9.961   8.558  10.115 -1.7576  1.1618 -0.0866
  826MOL0     H 8978   9.959   8.402  10.201  1.9418  1.4763 -0.7123
  826MOL0     H 8979   9.741   8.365  10.188 -1.1155 -0.6063  1.0408
  826MOL0     H 8980   9.698   8.521  10.118 -2.7425 -3.8276  0.2478
  826MOL0     H 8981   9.841   8.547  10.376 -0.8678  1.8505  0.5177
  826MOL0     H 8982   9.734   8.657  10.292  0.2821  0.3931 -0.3267
  826MOL0     H 8983   9.636   8.390  10.408  2.0177  0.1360  2.8051
  826MOL0     H 8984   9.533   8.525  10.355 -0.1102 -0.8076 -0.8811
  826MOL0     H 8985   9.832   8.565  10.599 -0.7438 -1.7460 -1.3075
  826MOL0     H 8986   9.722   8.560  10.939  1.3049  1.3196  1.5039
  826MOL0     H 8987   9.695   8.728  10.901 -2.7299  0.5651 -3.2596
  826MOL0     H 8988   9.912   8.720  10.781 -2.9850  0.1220 -1.0653
  826MOL0     H 8989   9.944   8.559  10.864  1.0948  1.0913 -1.7854
  826MOL0     H 8990   9.901   8.835  10.975 -1.0544 -0.9624 -1.1263
  826MOL0     H 8991   9.881   8.690  11.070 -3.8193  0.8796 -0.2381
  826MOL0     H 8992  10.136   8.778  10.910 -0.2269  1.6260  0.3514
  826MOL0     H 8993  10.141   8.642  11.010 -0.3171 -0.5348 -1.1702
  826MOL0     H 8994  10.345   8.810  10.970  0.5623 -1.4942  0.2403
  826MOL0     H 8995  10.570   8.792  11.056 -0.1928 -0.6627 -1.4431
  826MOL0     H 8996  10.918   8.822  11.044  2.0010 -0.6825 -0.6639
  826MOL0     H 8997  11.168   8.839  11.057  2.5694 -1.5856  1.1119
  826MOL0     H 8998  11.305   8.694  11.435  3.2178 -1.5584 -0.8207
  826MOL0     H 8999  11.398   8.849  11.449  0.4111  1.1106 -0.9143
  826MOL0     H 9000  11.554   8.785  11.301  0.8027 -1.0448 -2.2070
  826MOL0     H 9001  11.472   8.653  11.229  2.6958  0.8523 -0.9850
  826MOL0     H 9002  11.500   8.530  11.453  0.3151 -1.2222 -0.6540
  826MOL0     H 9003  11.588   8.666  11.518  3.6330  0.3942 -0.7740
  826MOL0     H 9004  11.690   8.521  11.271 -0.1821  0.2429  0.3843
  826MOL0     H 9005  11.763   8.661  11.353  0.4314 -0.3132 -0.7904
  826MOL0     H 9006  11.738   8.380  11.473  2.2295 -1.5639 -0.6682
  826MOL0     H 9007  11.796   8.522  11.564 -0.5240  0.3770  0.1439
  826MOL0     H 9008  12.000   8.407  11.505 -0.1728  1.9325  0.7691
  826MOL0     H 9009  11.986   8.549  11.414 -0.3916  0.3018 -3.3542
  826MOL0     H 9010  11.898   8.273  11.320  0.3434 -0.0094  2.4205
  826MOL0     H 9011  11.881   8.421  11.225 -1.4228 -1.2194  0.0942
  826MOL0     H 9012  12.080   8.301  11.150 -2.4349  1.4950 -0.7583
  826MOL0     H 9013  12.141   8.289  11.314 -2.2973 -0.6821 -0.1937
  826MOL0     H 9014  11.132   8.840  11.487  1.5746 -1.2200 -1.1125
  826MOL0     H 9015  10.884   8.797  11.469 -0.1451 -0.2753 -0.7791
  826MOL0     H 9016  10.417   8.880  11.455  0.2506 -1.4846  0.3336
  826MOL0     H 9017  10.193   8.852  11.366  0.4581 -0.7317  0.3210
  826MOL0     H 9018  10.470   8.451   9.727  3.6238  0.4092 -0.2463
  826MOL0     H 9019  10.688   8.460   9.637 -0.7748  1.3341 -0.9261
  826MOL0     H 9020  10.981   8.320   9.081  0.3734  0.1890 -0.0849
  826MOL0     H 9021  11.216   8.291   9.079  0.3359  0.7590  0.1316
  826MOL0     H 9022  11.437   8.284   9.465  1.4988 -1.0869 -1.0260
  826MOL0     H 9023  11.463   8.436   9.351 -2.2218  0.3475  0.1533
  826MOL0     H 9024  11.590   8.163   9.338 -0.6860 -0.0628 -0.5954
  826MOL0     H 9025  11.596   8.272   9.199 -2.0578 -2.5945 -0.9278
  826MOL0     H 9026  11.709   8.330   9.484 -2.3575  2.4383 -0.4177
  826MOL0     H 9027  11.718   8.439   9.350  0.5144 -0.5014 -2.7340
  826MOL0     H 9028  11.847   8.293   9.210 -1.9365  2.5337  0.8092
  826MOL0     H 9029  11.937   8.311   9.366 -0.5845 -0.8006  0.8225
  826MOL0     H 9030  11.862   7.895   9.375 -1.1923 -0.6880 -0.0925
  826MOL0     H 9031  11.224   8.344   9.506 -1.0988  0.4704  0.9788
  826MOL0     H 9032  10.990   8.362   9.514 -1.7326  0.5314 -0.3081
  827MOL0     O 9033   9.400   2.555  10.844 -0.5510  0.1531 -0.0652
  827MOL0     C 9034   9.511   2.584  10.796  0.1422  0.0045  0.9736
  827MOL0     O 9035   9.539   2.694  10.713 -0.3954 -0.0323  0.1529
  827MOL0     C 9036   9.440   2.791  10.693  0.6246  0.2102 -0.2177
  827MOL0     C 9037   9.324   2.748  10.625 -1.3648  0.4020  0.2448
  827MOL0     C 9038   9.230   2.838  10.572 -0.8746 -0.0035 -0.4766
  827MOL0     C 9039   9.251   2.973  10.600 -0.4157  0.0570  0.1873
  827MOL0     O 9040   9.153   3.060  10.556  0.5572 -0.0927  1.0063
  827MOL0     C 9041   9.187   3.199  10.548  0.0598 -0.1271  0.3328
  827MOL0     C 9042   9.110   3.277  10.433 -0.4554  0.4137 -0.6734
  827MOL0     C 9043   8.965   3.285  10.486  0.2136 -0.0151  0.3508
  827MOL0     C 9044   8.883   3.361  10.382  0.2922 -0.1172 -0.1119
  827MOL0     C 9045   8.738   3.339  10.390 -0.3726  0.2439  0.6312
  827MOL0     C 9046   8.675   3.410  10.510 -0.9526  0.2014  0.5311
  827MOL0     C 9047   8.526   3.406  10.512 -0.2857 -0.1488 -0.4075
  827MOL0     C 9048   8.482   3.267  10.552 -0.3247 -0.3118  0.1921
  827MOL0     N 9049   8.353   3.276  10.617  0.0800  0.3242 -0.1833
  827MOL0     C 9050   8.332   3.291  10.743 -0.0187 -0.5197 -0.8006
  827MOL0     C 9051   8.197   3.298  10.758 -0.4772  1.1180 -0.8321
  827MOL0     C 9052   8.117   3.319  10.881  1.1690 -0.7174  0.3756
  827MOL0     C 9053   7.993   3.218  10.886 -0.5286 -0.9272  0.4808
  827MOL0     C 9054   7.913   3.248  11.010  0.1260 -0.6625  0.2531
  827MOL0     C 9055   7.767   3.185  11.003 -0.7892 -0.3830  0.0120
  827MOL0     O 9056   7.786   3.039  11.003 -0.1305 -1.1204  0.2441
  827MOL0     C 9057   7.678   2.962  11.021  0.6657  0.2154 -0.3647
  827MOL0     C 9058   7.695   2.823  11.005  0.5035  0.6799 -0.6037
  827MOL0     C 9059   7.594   2.736  11.041  1.0892 -0.3566 -0.6152
  827MOL0     C 9060   7.468   2.772  11.095 -0.3318 -1.1035 -0.7409
  827MOL0     C 9061   7.377   2.672  11.151 -0.5966  0.2349 -0.4758
  827MOL0     O 9062   7.250   2.704  11.153  0.2363  1.1451  0.0628
  827MOL0     C 9063   7.156   2.627  11.215 -0.3290  0.1680  0.8605
  827MOL0     C 9064   7.039   2.694  11.229 -0.2658  0.0050 -0.2498
  827MOL0     C 9065   6.931   2.628  11.291 -0.3162 -0.2555  0.2410
  827MOL0     C 9066   6.930   2.493  11.319 -1.0254  0.1901 -0.2442
  827MOL0     O 9067   6.831   2.418  11.375  0.0798 -0.0363  0.1064
  827MOL0     C 9068   6.697   2.461  11.354 -0.4788 -0.1472  0.0557
  827MOL0     C 9069   6.648   2.543  11.474  0.5270  0.4982  0.2364
  827MOL0     C 9070   6.499   2.588  11.455 -0.0784  1.4365 -0.0732
  827MOL0     C 9071   6.404   2.476  11.494 -0.6428 -0.1687 -0.6902
  827MOL0     C 9072   6.259   2.522  11.512  0.2951 -0.1742  0.2146
  827MOL0     C 9073   6.177   2.401  11.572  0.0731 -0.6883 -0.3949
  827MOL0     C 9074   6.036   2.415  11.521 -0.1941 -0.2007  0.3334
  827MOL0     C 9075   5.947   2.345  11.625 -0.0509 -0.4541  0.3950
  827MOL0    Cl 9076   5.979   2.174  11.603 -0.0016  0.0527 -0.2130
  827MOL0     C 9077   7.050   2.424  11.293 -0.0336  0.1261 -0.4293
  827MOL0     C 9078   7.165   2.490  11.254 -0.0321 -0.4074  0.3319
  827MOL0     O 9079   7.428   2.581  11.205  0.2348  0.0153 -0.2250
  827MOL0     C 9080   7.450   2.910  11.100  0.1702 -1.1221 -0.0292
  827MOL0     C 9081   7.550   3.010  11.064 -0.7071 -0.0157 -0.0283
  827MOL0     N 9082   8.145   3.279  10.629  0.1078 -0.0102 -0.6035
  827MOL0     N 9083   8.238   3.265  10.541  0.5463  0.2702 -0.0289
  827MOL0     C 9084   9.368   3.007  10.678 -0.5875 -0.7392 -0.3621
  827MOL0     C 9085   9.467   2.919  10.720  0.6197  0.2363  0.0229
  827MOL0     C 9086   9.626   2.496  10.821 -0.5316  0.2058  0.0451
  827MOL0     C 9087   9.613   2.387  10.910 -0.4608 -0.3518  0.9310
  827MOL0     C 9088   9.713   2.283  10.908  0.4796  0.0652 -0.1998
  827MOL0     C 9089   9.831   2.300  10.832 -0.5677  0.1733  0.4352
  827MOL0     O 9090   9.924   2.196  10.843  0.1743  0.7270 -0.3894
  827MOL0     C 9091  10.036   2.168  10.765 -0.4371 -0.4709  0.3199
  827MOL0     C 9092  10.094   2.033  10.801  0.1688  0.2530 -0.3482
  827MOL0     C 9093  10.228   2.015  10.731  0.2772 -0.1724 -0.0200
  827MOL0     C 9094  10.352   2.109  10.779 -0.0106 -0.1875 -0.1456
  827MOL0     C 9095  10.477   2.093  10.709  0.2471 -0.7773 -0.2150
  827MOL0     C 9096  10.573   2.077  10.644 -0.0910 -0.9505 -0.6618
  827MOL0     C 9097   9.848   2.420  10.761  0.1745  0.1971  0.5244
  827MOL0     C 9098   9.746   2.514  10.759 -0.2373 -0.1859 -0.4850
  827MOL0     H 9099   9.298   2.645  10.604 -0.6305  0.8247 -3.2786
  827MOL0     H 9100   9.139   2.808  10.522  0.5870 -1.6718 -2.2853
  827MOL0     H 9101   9.293   3.216  10.528 -0.5865  1.4923 -2.3339
  827MOL0     H 9102   9.172   3.257  10.639  1.3378  1.7697 -0.5962
  827MOL0     H 9103   9.120   3.220  10.341  2.0251 -0.7833  0.2396
  827MOL0     H 9104   9.150   3.377  10.413  1.5342 -0.5264 -1.6902
  827MOL0     H 9105   8.991   3.335  10.580 -2.8354 -2.1190  2.5068
  827MOL0     H 9106   8.909   3.195  10.511  1.9970 -1.6121 -1.1415
  827MOL0     H 9107   8.918   3.463  10.397  0.9361 -0.3766  0.1667
  827MOL0     H 9108   8.913   3.331  10.281 -1.5112 -0.7090 -0.5255
  827MOL0     H 9109   8.710   3.235  10.408 -2.3700  0.7580  0.7755
  827MOL0     H 9110   8.693   3.365  10.293 -0.4278 -3.6181 -0.5304
  827MOL0     H 9111   8.698   3.516  10.505 -0.0676 -0.0315 -0.7253
  827MOL0     H 9112   8.716   3.380  10.607 -0.5417 -1.2626 -0.0675
  827MOL0     H 9113   8.497   3.481  10.586  2.4706  0.8600 -0.2086
  827MOL0     H 9114   8.482   3.432  10.416  0.6787  1.1259 -0.5344
  827MOL0     H 9115   8.553   3.229  10.626 -1.1044  0.3181  1.2924
  827MOL0     H 9116   8.490   3.195  10.470 -1.7404 -1.0394  0.6702
  827MOL0     H 9117   8.408   3.312  10.818  1.8599 -2.3535 -2.0704
  827MOL0     H 9118   8.091   3.424  10.866 -0.1575 -1.0385  0.2703
  827MOL0     H 9119   8.165   3.314  10.979  0.2854  0.6376  0.9061
  827MOL0     H 9120   8.032   3.116  10.891 -0.9862 -1.1855 -0.8122
  827MOL0     H 9121   7.936   3.218  10.793  1.2077  3.2220 -0.8216
  827MOL0     H 9122   7.952   3.208  11.104  0.4574  2.6538  1.6659
  827MOL0     H 9123   7.903   3.357  11.013  1.1114 -0.5287 -0.7193
  827MOL0     H 9124   7.710   3.235  10.924 -1.6525  1.6285  1.7987
  827MOL0     H 9125   7.713   3.212  11.095  0.0349 -0.0256  0.4017
  827MOL0     H 9126   7.787   2.789  10.957 -0.2734  1.0865 -2.4858
  827MOL0     H 9127   7.613   2.630  11.028 -0.3184 -0.6795 -0.2558
  827MOL0     H 9128   7.034   2.800  11.205 -0.6471  0.1666  0.5008
  827MOL0     H 9129   6.848   2.696  11.303  0.5144  0.7442  0.4662
  827MOL0     H 9130   6.639   2.371  11.331 -0.9819  0.1070  0.3166
  827MOL0     H 9131   6.698   2.530  11.269 -0.9313  3.1555  2.5076
  827MOL0     H 9132   6.701   2.637  11.491 -0.0610  0.6303  1.4495
  827MOL0     H 9133   6.660   2.491  11.569  0.4449  1.8875  1.0432
  827MOL0     H 9134   6.496   2.604  11.347  0.5993 -0.0100 -0.3399
  827MOL0     H 9135   6.483   2.683  11.507 -0.8818  1.7402 -0.8347
  827MOL0     H 9136   6.404   2.405  11.410 -1.0823 -0.9651 -0.0358
  827MOL0     H 9137   6.438   2.420  11.582  1.8999  1.4697 -0.5235
  827MOL0     H 9138   6.224   2.558  11.415  1.8504  1.8267  0.3397
  827MOL0     H 9139   6.235   2.605  11.580 -0.8075 -0.4655  0.2008
  827MOL0     H 9140   6.185   2.394  11.681  3.5647  0.6295 -0.4338
  827MOL0     H 9141   6.219   2.310  11.528 -1.0444 -1.5615  0.2878
  827MOL0     H 9142   6.016   2.522  11.528 -0.0143 -0.2190  1.3072
  827MOL0     H 9143   6.024   2.379  11.419  1.4123 -1.2094  0.4761
  827MOL0     H 9144   5.842   2.366  11.600  0.0948 -0.2815 -0.0884
  827MOL0     H 9145   5.966   2.372  11.729 -0.3125 -2.3726  0.9778
  827MOL0     H 9146   7.046   2.322  11.329 -3.2541  1.0047  2.1299
  827MOL0     H 9147   7.259   2.436  11.250  1.6824  2.4565 -0.5149
  827MOL0     H 9148   7.361   2.943  11.155  0.3916  0.5459 -0.6018
  827MOL0     H 9149   7.524   3.115  11.071 -1.1288 -0.1128 -0.1259
  827MOL0     H 9150   9.383   3.110  10.711 -0.5612  0.2464 -3.1906
  827MOL0     H 9151   9.554   2.936  10.781  1.4408 -0.3636 -0.9505
  827MOL0     H 9152   9.523   2.385  10.970  0.1569  1.1631  1.9489
  827MOL0     H 9153   9.686   2.194  10.964 -1.1420  0.1871 -0.7332
  827MOL0     H 9154  10.112   2.242  10.791 -0.0524 -1.0526  0.8922
  827MOL0     H 9155  10.020   2.168  10.657  1.9572  0.3557 -0.0976
  827MOL0     H 9156  10.108   2.031  10.909 -0.6669  0.4414 -0.2287
  827MOL0     H 9157  10.028   1.952  10.768  2.2022 -1.1172 -1.1928
  827MOL0     H 9158  10.214   2.013  10.622  1.8319 -3.1291 -0.2755
  827MOL0     H 9159  10.250   1.911  10.755 -0.3076 -0.7731 -1.8794
  827MOL0     H 9160  10.332   2.217  10.777  2.3248  0.3176  0.8117
  827MOL0     H 9161  10.383   2.084  10.881  1.2846  0.6909 -0.3004
  827MOL0     H 9162  10.668   2.068  10.596  1.2875  1.9792  1.1729
  827MOL0     H 9163   9.943   2.439  10.711 -0.0103 -0.0714  0.0584
  827MOL0     H 9164   9.765   2.606  10.704 -2.8186  1.1624  0.7182
  828MOL0     O 9165  10.076   2.429   8.088  0.1071  0.2955  0.2223
  828MOL0     C 9166  10.056   2.319   8.137  0.6157 -0.0325  0.5931
  828MOL0     O 9167   9.934   2.261   8.155 -0.1579  0.2419  0.2359
  828MOL0     C 9168   9.808   2.332   8.141 -1.0741  0.8551 -0.3102
  828MOL0     C 9169   9.782   2.437   8.056 -0.3215  0.3792 -0.6595
  828MOL0     C 9170   9.655   2.495   8.043  0.0058  0.4729 -0.1469
  828MOL0     C 9171   9.553   2.441   8.120 -0.4899 -0.6307 -0.6918
  828MOL0     O 9172   9.432   2.505   8.105  0.4805 -0.6863  0.2527
  828MOL0     C 9173   9.320   2.470   8.191 -0.1318 -0.8338 -0.0620
  828MOL0     C 9174   9.208   2.560   8.147  0.1374  0.1169  0.3483
  828MOL0     C 9175   9.097   2.567   8.252 -0.0222 -0.3208  0.1128
  828MOL0     C 9176   8.971   2.646   8.206 -0.0600  1.1580 -0.1521
  828MOL0     C 9177   8.890   2.673   8.331 -0.2214 -0.8530  0.4580
  828MOL0     C 9178   8.764   2.760   8.303  0.1784 -0.2553 -0.1220
  828MOL0     C 9179   8.691   2.789   8.435  0.0519 -0.0325  0.0847
  828MOL0     C 9180   8.584   2.905   8.423  0.6486 -0.1851 -0.8162
  828MOL0     N 9181   8.470   2.872   8.334  0.1300  0.0271 -0.0908
  828MOL0     C 9182   8.385   2.763   8.353 -0.3278 -0.1239  0.5113
  828MOL0     C 9183   8.275   2.789   8.281  0.4696  0.1750 -0.1566
  828MOL0     C 9184   8.156   2.698   8.250 -0.0060 -0.5544 -0.4053
  828MOL0     C 9185   8.033   2.751   8.337  0.8158 -0.0998  0.4724
  828MOL0     C 9186   7.924   2.641   8.353  0.2825 -0.1141 -0.3010
  828MOL0     C 9187   7.798   2.699   8.418 -0.3294 -0.2550  0.3322
  828MOL0     O 9188   7.720   2.768   8.308  0.1072  1.3026  0.1677
  828MOL0     C 9189   7.586   2.746   8.312  0.2081 -1.0480  0.6363
  828MOL0     C 9190   7.507   2.749   8.437 -0.4957  0.3577  1.1047
  828MOL0     C 9191   7.364   2.724   8.432 -0.2156 -0.0094 -0.4458
  828MOL0     C 9192   7.300   2.720   8.302 -1.6253  1.0579  0.6124
  828MOL0     C 9193   7.164   2.705   8.280  0.2714  0.0039  0.2177
  828MOL0     O 9194   7.086   2.740   8.386  0.7184  0.2701 -0.0522
  828MOL0     C 9195   6.950   2.771   8.377  0.0438 -0.3851  0.1206
  828MOL0     C 9196   6.871   2.770   8.488  0.8101  0.1023 -0.2766
  828MOL0     C 9197   6.727   2.811   8.482  0.3445 -1.0483 -0.6322
  828MOL0     C 9198   6.666   2.849   8.358  0.0436  0.1434 -1.1706
  828MOL0     O 9199   6.536   2.880   8.331 -0.3708 -0.1627 -0.0857
  828MOL0     C 9200   6.445   2.876   8.440 -0.2285 -0.1175 -0.4023
  828MOL0     C 9201   6.300   2.880   8.404  0.1400 -0.1837  0.2806
  828MOL0     C 9202   6.216   2.858   8.527  0.8342  0.5816 -0.0065
  828MOL0     C 9203   6.066   2.863   8.494 -0.3628  0.5161 -0.1577
  828MOL0     C 9204   6.012   3.004   8.479  0.1805 -0.3749 -0.1599
  828MOL0     C 9205   5.861   3.007   8.493  0.2008 -0.8624 -0.7064
  828MOL0     C 9206   5.808   3.144   8.480 -1.8346 -0.7337 -0.4487
  828MOL0     C 9207   5.653   3.144   8.451 -0.2517  1.0102 -1.3176
  828MOL0    Cl 9208   5.556   3.118   8.591  0.3348  0.1301 -0.1850
  828MOL0     C 9209   6.749   2.847   8.246  0.0175  0.5428 -0.2857
  828MOL0     C 9210   6.882   2.815   8.256 -0.3417  1.0304 -0.1480
  828MOL0     O 9211   7.117   2.664   8.172  0.3069 -0.3411  0.6951
  828MOL0     C 9212   7.383   2.721   8.181  0.0281 -1.1027  0.0208
  828MOL0     C 9213   7.516   2.731   8.191 -0.0022  0.5046 -0.6317
  828MOL0     N 9214   8.298   2.907   8.218 -0.3112  0.7498  0.2013
  828MOL0     N 9215   8.411   2.964   8.251 -0.0226  0.2235  0.0057
  828MOL0     C 9216   9.579   2.341   8.211  0.0390  0.4682 -0.2065
  828MOL0     C 9217   9.712   2.286   8.218  0.6832 -0.0316 -0.6389
  828MOL0     C 9218  10.172   2.231   8.159  1.1752  0.3288  0.8250
  828MOL0     C 9219  10.154   2.096   8.173  0.0396 -0.2286  0.2153
  828MOL0     C 9220  10.265   2.006   8.184 -0.2169  0.2259  0.3010
  828MOL0     C 9221  10.398   2.050   8.189 -0.6626 -0.0493 -0.3592
  828MOL0     O 9222  10.500   1.961   8.213  0.1524 -0.4514 -1.1350
  828MOL0     C 9223  10.634   2.011   8.204 -0.5509  0.0529 -0.2640
  828MOL0     C 9224  10.737   1.898   8.208 -0.7249 -0.0467  0.7517
  828MOL0     C 9225  10.868   1.969   8.242 -1.5763  0.2557 -0.6323
  828MOL0     C 9226  10.983   1.866   8.248  0.4954 -0.3025  0.8602
  828MOL0     C 9227  11.110   1.934   8.279  0.4773 -0.5318 -0.0950
  828MOL0     C 9228  11.210   1.995   8.304  0.5150 -1.0733  0.9237
  828MOL0     C 9229  10.409   2.192   8.181  0.3141 -0.0203 -0.5036
  828MOL0     C 9230  10.304   2.286   8.159  0.7756  0.3677  0.7542
  828MOL0     H 9231   9.861   2.464   7.986  0.2380  2.9744  0.8418
  828MOL0     H 9232   9.636   2.577   7.974  3.1099 -0.4387 -2.2980
  828MOL0     H 9233   9.351   2.482   8.295  1.2327  1.1594 -0.6396
  828MOL0     H 9234   9.284   2.368   8.177 -1.2623 -0.5764  0.8750
  828MOL0     H 9235   9.168   2.516   8.055  2.6641 -1.9506  0.1299
  828MOL0     H 9236   9.242   2.662   8.126 -1.5731  0.9480  1.4152
  828MOL0     H 9237   9.132   2.621   8.340 -1.0505  1.7351 -0.6770
  828MOL0     H 9238   9.055   2.466   8.263 -2.8145  0.1447 -3.9878
  828MOL0     H 9239   9.000   2.736   8.152  2.6757  1.5488  1.7768
  828MOL0     H 9240   8.911   2.582   8.140  2.3980 -1.7225  0.1915
  828MOL0     H 9241   8.946   2.712   8.417 -0.6744  2.0659 -0.4313
  828MOL0     H 9242   8.839   2.584   8.369 -0.1746 -1.0487  0.0641
  828MOL0     H 9243   8.699   2.696   8.242 -0.5779 -2.0548  2.3772
  828MOL0     H 9244   8.789   2.854   8.255 -0.5945  1.2336  2.2203
  828MOL0     H 9245   8.642   2.695   8.462 -1.1879  0.4977 -0.2120
  828MOL0     H 9246   8.758   2.815   8.517  1.3576 -1.1836 -0.5930
  828MOL0     H 9247   8.618   3.004   8.392 -2.0939  2.1336  2.8143
  828MOL0     H 9248   8.543   2.923   8.522  0.2776  0.1600 -1.0314
  828MOL0     H 9249   8.411   2.674   8.410 -0.3386 -1.5117 -1.5268
  828MOL0     H 9250   8.186   2.598   8.281 -4.1375 -2.1296 -0.9339
  828MOL0     H 9251   8.129   2.695   8.144  1.3408  1.8697 -0.9194
  828MOL0     H 9252   7.988   2.839   8.289  1.2817  1.0768  2.0658
  828MOL0     H 9253   8.079   2.776   8.434  2.8444 -3.4399  0.5141
  828MOL0     H 9254   7.910   2.591   8.257  2.3072 -1.0317 -0.1570
  828MOL0     H 9255   7.948   2.566   8.428 -2.1031 -0.4126  0.2493
  828MOL0     H 9256   7.827   2.773   8.494  5.7873  0.0879 -1.8410
  828MOL0     H 9257   7.735   2.617   8.453  1.4042 -1.5686  0.4992
  828MOL0     H 9258   7.558   2.757   8.532 -0.2288 -1.2392  1.1192
  828MOL0     H 9259   7.299   2.713   8.519 -3.8792  0.7688 -2.8260
  828MOL0     H 9260   6.916   2.729   8.578 -1.2400 -1.0725  0.2684
  828MOL0     H 9261   6.663   2.818   8.570  1.6652 -0.9296  0.3361
  828MOL0     H 9262   6.473   2.957   8.508  1.3451 -0.2682 -0.8191
  828MOL0     H 9263   6.448   2.783   8.497 -2.9972  0.7451  1.3251
  828MOL0     H 9264   6.290   2.805   8.325 -0.9680 -0.9466  1.0937
  828MOL0     H 9265   6.278   2.978   8.361 -0.4828 -0.3137  0.2913
  828MOL0     H 9266   6.234   2.929   8.609  1.0662 -1.1814  1.5377
  828MOL0     H 9267   6.241   2.764   8.576  2.7852  1.8383  1.5734
  828MOL0     H 9268   6.053   2.794   8.410  2.5935 -4.4513  2.9302
  828MOL0     H 9269   6.019   2.804   8.574  0.8236 -0.6046 -0.2617
  828MOL0     H 9270   6.044   3.055   8.388 -0.4582 -1.0095 -0.7551
  828MOL0     H 9271   6.056   3.064   8.559  4.3999  0.5782 -2.9043
  828MOL0     H 9272   5.828   2.966   8.589  1.6794 -0.3314  0.0519
  828MOL0     H 9273   5.811   2.950   8.414 -2.3948 -2.1945  1.7120
  828MOL0     H 9274   5.832   3.199   8.572 -0.0056 -0.0372 -1.3085
  828MOL0     H 9275   5.859   3.202   8.403 -1.7875 -2.8262 -2.0659
  828MOL0     H 9276   5.628   3.068   8.377  1.6922  3.2183 -4.4690
  828MOL0     H 9277   5.630   3.244   8.414 -0.7730  1.9074  1.2226
  828MOL0     H 9278   6.705   2.868   8.149 -0.9126  0.6945  0.1573
  828MOL0     H 9279   6.937   2.800   8.164 -1.1542 -2.8714 -0.2014
  828MOL0     H 9280   7.337   2.722   8.083 -0.7970  1.9434  0.3199
  828MOL0     H 9281   7.581   2.725   8.104  1.0098 -1.5897  0.2079
  828MOL0     H 9282   9.509   2.311   8.288  0.5269  3.1722  1.4224
  828MOL0     H 9283   9.744   2.208   8.286 -3.1602 -0.0567  1.4577
  828MOL0     H 9284  10.054   2.061   8.193 -0.3515  1.8839  2.3909
  828MOL0     H 9285  10.259   1.899   8.205  0.2731 -0.0448 -0.8239
  828MOL0     H 9286  10.655   2.079   8.286 -0.4513 -0.0971 -0.1639
  828MOL0     H 9287  10.655   2.068   8.113 -3.7709  1.0080 -0.5286
  828MOL0     H 9288  10.714   1.836   8.296 -0.4753 -1.2477 -0.0045
  828MOL0     H 9289  10.749   1.834   8.120  0.6862 -1.0561  1.6282
  828MOL0     H 9290  10.870   2.019   8.339  0.2278 -0.5665 -0.1919
  828MOL0     H 9291  10.885   2.056   8.178 -5.7682  0.1066 -2.2588
  828MOL0     H 9292  10.964   1.796   8.329  0.3886 -1.2183  0.0574
  828MOL0     H 9293  10.987   1.808   8.155  0.3401 -2.5389  2.1966
  828MOL0     H 9294  11.298   2.046   8.337  1.7388 -2.5545  0.0818
  828MOL0     H 9295  10.499   2.252   8.194 -1.7676  2.9133  1.7182
  828MOL0     H 9296  10.323   2.390   8.136 -0.7445  1.2337  3.0568
  829MOL0     O 9297  10.313   0.834   0.165  0.6760  0.1828 -0.3307
  829MOL0     C 9298  10.341   0.800   0.050 -0.2753 -0.2118 -0.1022
  829MOL0     O 9299  10.309   0.868  -0.067 -0.0026  0.5874 -0.0531
  829MOL0     C 9300  10.218   0.964  -0.080  0.6736 -0.1876  1.0204
  829MOL0     C 9301  10.077   0.960  -0.051 -0.1869  0.3677 -0.5039
  829MOL0     C 9302   9.989   1.066  -0.071  0.3730 -0.1850  0.4661
  829MOL0     C 9303  10.030   1.181  -0.126  0.4722 -0.0075  0.3591
  829MOL0     O 9304   9.939   1.270  -0.145 -0.3479  0.0480  0.2277
  829MOL0     C 9305   9.894   1.271  -0.280  0.0973 -0.4594  0.0920
  829MOL0     C 9306   9.805   1.397  -0.308  0.4699 -0.2508 -0.1038
  829MOL0     C 9307   9.885   1.523  -0.277  0.0557  0.4085  0.2569
  829MOL0     C 9308   9.815   1.660  -0.312  0.1525 -0.6079  0.4357
  829MOL0     C 9309   9.823   1.690  -0.465 -0.0825 -0.3256  0.3905
  829MOL0     C 9310   9.771   1.833  -0.496  0.2872 -0.0288  0.2795
  829MOL0     C 9311   9.618   1.841  -0.478 -0.5447  0.0790  0.1915
  829MOL0     C 9312   9.567   1.931  -0.584 -0.2719 -0.6543 -0.5811
  829MOL0     N 9313   9.423   1.958  -0.565  0.5239 -0.1741 -0.5857
  829MOL0     C 9314   9.316   1.885  -0.610  0.5828  0.6660  0.1007
  829MOL0     C 9315   9.220   1.893  -0.520 -0.4696 -0.3373 -0.1976
  829MOL0     C 9316   9.088   1.819  -0.513 -0.3834 -0.5742  0.3507
  829MOL0     C 9317   8.963   1.888  -0.569 -0.8573 -0.5369  0.4159
  829MOL0     C 9318   8.840   1.833  -0.503  0.5406  0.0489  0.0499
  829MOL0     C 9319   8.717   1.918  -0.537 -0.1692 -1.3411  0.4070
  829MOL0     O 9320   8.691   1.924  -0.681  1.1345  0.0491  0.2299
  829MOL0     C 9321   8.609   1.828  -0.728 -0.7456 -0.3604 -0.0650
  829MOL0     C 9322   8.473   1.859  -0.761 -0.0396 -0.1975  0.4385
  829MOL0     C 9323   8.396   1.747  -0.811  0.1709  0.5832  1.3867
  829MOL0     C 9324   8.457   1.621  -0.829 -0.2879  1.1663  0.4400
  829MOL0     C 9325   8.375   1.512  -0.877  0.1708 -0.0683  0.0004
  829MOL0     O 9326   8.249   1.535  -0.929 -0.7257  1.2497 -0.2371
  829MOL0     C 9327   8.168   1.443  -0.985  0.4133  0.7621 -0.1673
  829MOL0     C 9328   8.092   1.473  -1.103 -0.1500  0.1735 -0.5191
  829MOL0     C 9329   8.012   1.372  -1.162  0.4628  0.7734  0.0530
  829MOL0     C 9330   8.007   1.245  -1.111 -0.3257 -0.3030 -0.0342
  829MOL0     O 9331   7.935   1.151  -1.169  0.3255  0.9209  0.9792
  829MOL0     C 9332   7.842   1.171  -1.286 -0.2736  0.9238  0.0807
  829MOL0     C 9333   7.752   1.039  -1.321 -0.1322 -0.4286 -0.3762
  829MOL0     C 9334   7.843   0.915  -1.331  0.5823 -0.8467 -0.1273
  829MOL0     C 9335   7.777   0.821  -1.431 -0.3547  0.4935  0.3152
  829MOL0     C 9336   7.842   0.681  -1.443 -0.8804 -0.1951 -0.7250
  829MOL0     C 9337   7.851   0.596  -1.311  0.5296 -0.2226  0.6984
  829MOL0     C 9338   7.715   0.535  -1.287  0.7462 -0.1127  1.1635
  829MOL0     C 9339   7.725   0.429  -1.170 -0.1288  0.5509  0.4340
  829MOL0    Cl 9340   7.686   0.514  -1.020  0.5015  0.0155  0.0021
  829MOL0     C 9341   8.070   1.216  -0.994 -0.1850  0.4617 -0.2871
  829MOL0     C 9342   8.148   1.315  -0.928 -0.1452 -0.7569  0.4432
  829MOL0     O 9343   8.427   1.397  -0.866 -0.7097 -0.2664  0.3810
  829MOL0     C 9344   8.597   1.602  -0.811 -0.8491 -0.1658 -0.9166
  829MOL0     C 9345   8.677   1.713  -0.768 -0.2030  0.3099 -0.4068
  829MOL0     N 9346   9.261   1.983  -0.423 -0.1861  0.0824  0.2077
  829MOL0     N 9347   9.379   2.021  -0.459  0.6200 -0.3545  0.2421
  829MOL0     C 9348  10.170   1.198  -0.155  0.5102 -0.0051 -0.5259
  829MOL0     C 9349  10.253   1.092  -0.129 -0.8222  0.4645 -0.0499
  829MOL0     C 9350  10.428   0.680   0.051  0.5289 -0.5316 -0.6325
  829MOL0     C 9351  10.495   0.638   0.170 -0.5086  0.1084  0.3091
  829MOL0     C 9352  10.563   0.514   0.175  0.7463  0.7137  0.7680
  829MOL0     C 9353  10.574   0.436   0.057  0.3420 -0.7511  0.2535
  829MOL0     O 9354  10.632   0.312   0.048  0.3456 -0.6132  0.0070
  829MOL0     C 9355  10.688   0.246   0.161  1.4406 -0.5808  1.0761
  829MOL0     C 9356  10.710   0.103   0.141  0.0708  1.3171  0.3416
  829MOL0     C 9357  10.582   0.023   0.145 -0.3579 -0.1930  1.0809
  829MOL0     C 9358  10.508   0.005   0.012  0.2538  0.0140  0.5354
  829MOL0     C 9359  10.593  -0.045  -0.094 -0.4976 -0.1261  0.3302
  829MOL0     C 9360  10.647  -0.082  -0.190  0.2876  0.5047  0.4733
  829MOL0     C 9361  10.533   0.496  -0.057 -0.0214  0.3687  0.9074
  829MOL0     C 9362  10.454   0.608  -0.064  0.3250 -0.2262  0.2200
  829MOL0     H 9363  10.038   0.869  -0.007 -2.7796  1.7301  0.2156
  829MOL0     H 9364   9.885   1.046  -0.046 -0.5527  0.5412 -2.4026
  829MOL0     H 9365   9.831   1.184  -0.297 -0.8512 -0.6033  3.5749
  829MOL0     H 9366   9.975   1.264  -0.353  0.2509 -1.1750  0.3195
  829MOL0     H 9367   9.715   1.391  -0.246  1.4550 -0.5753  1.3394
  829MOL0     H 9368   9.772   1.398  -0.412  3.4870 -1.9090 -1.1977
  829MOL0     H 9369   9.977   1.517  -0.336  1.8385  0.0553  2.8747
  829MOL0     H 9370   9.914   1.529  -0.171  1.0732  0.4690 -0.0164
  829MOL0     H 9371   9.715   1.656  -0.268 -0.4620 -0.3371 -0.9117
  829MOL0     H 9372   9.858   1.750  -0.269 -2.6811  1.4593 -0.7591
  829MOL0     H 9373   9.758   1.617  -0.514 -2.9604  2.7358 -0.7092
  829MOL0     H 9374   9.927   1.675  -0.496  0.4010  2.1185  0.6455
  829MOL0     H 9375   9.801   1.846  -0.601 -0.1057 -1.5430 -0.0460
  829MOL0     H 9376   9.827   1.905  -0.436  2.7710  0.2751 -2.2066
  829MOL0     H 9377   9.577   1.741  -0.491  0.4793 -0.4367  0.7571
  829MOL0     H 9378   9.590   1.890  -0.384 -2.1368  0.1598 -0.2965
  829MOL0     H 9379   9.573   1.883  -0.682  0.2849 -0.2263 -0.7618
  829MOL0     H 9380   9.633   2.019  -0.584 -0.5502 -0.4450 -0.9988
  829MOL0     H 9381   9.309   1.808  -0.686 -1.6649 -0.8092  1.6770
  829MOL0     H 9382   9.080   1.802  -0.405  0.0898  0.5321  0.5811
  829MOL0     H 9383   9.095   1.726  -0.569  0.3762  0.4020 -1.2367
  829MOL0     H 9384   8.975   1.864  -0.675 -0.7783  0.9293  0.0832
  829MOL0     H 9385   8.969   1.995  -0.546 -3.0707 -0.3238  0.2781
  829MOL0     H 9386   8.829   1.730  -0.537  0.3228 -0.4949  1.6818
  829MOL0     H 9387   8.845   1.830  -0.394  0.2939  2.0603  0.1508
  829MOL0     H 9388   8.741   2.018  -0.498  1.6748 -3.0012  4.0146
  829MOL0     H 9389   8.633   1.886  -0.475 -0.6712 -0.5317  0.1703
  829MOL0     H 9390   8.434   1.958  -0.739 -0.8260 -0.3823 -0.0797
  829MOL0     H 9391   8.294   1.765  -0.842  0.8803  0.9190 -0.9354
  829MOL0     H 9392   8.100   1.568  -1.154  0.6200 -0.8389 -2.3888
  829MOL0     H 9393   7.961   1.394  -1.255 -0.1985 -0.1566  0.1849
  829MOL0     H 9394   7.902   1.193  -1.374  0.7901 -3.2704 -0.4454
  829MOL0     H 9395   7.777   1.257  -1.267 -1.4547  0.0322  0.1735
  829MOL0     H 9396   7.714   1.060  -1.422  1.6129 -1.3844 -1.2746
  829MOL0     H 9397   7.682   1.019  -1.239  0.7533 -4.6905 -0.4152
  829MOL0     H 9398   7.844   0.879  -1.228  1.0718 -3.9063 -1.0872
  829MOL0     H 9399   7.948   0.931  -1.359  0.4732 -0.0777 -0.1221
  829MOL0     H 9400   7.672   0.806  -1.407 -0.7208  1.1342 -0.8182
  829MOL0     H 9401   7.766   0.874  -1.526  1.0957  1.7508  0.7985
  829MOL0     H 9402   7.940   0.690  -1.491 -1.0426 -1.5675 -1.3557
  829MOL0     H 9403   7.778   0.629  -1.515 -0.5651  1.4973 -2.3120
  829MOL0     H 9404   7.884   0.657  -1.227  0.4812  2.6047 -1.2080
  829MOL0     H 9405   7.919   0.510  -1.324  1.1605  0.1024  1.7517
  829MOL0     H 9406   7.636   0.606  -1.258  3.9953  3.4760  2.1114
  829MOL0     H 9407   7.680   0.490  -1.381  1.0481  0.7980  0.5928
  829MOL0     H 9408   7.826   0.399  -1.139 -0.6742 -1.8411  0.1169
  829MOL0     H 9409   7.661   0.341  -1.182 -1.3574  1.5644 -0.7162
  829MOL0     H 9410   8.057   1.125  -0.937 -0.9601  0.8179  0.1162
  829MOL0     H 9411   8.193   1.297  -0.831 -1.8339  0.8753  1.5740
  829MOL0     H 9412   8.644   1.508  -0.839 -0.8621 -0.3400 -0.3632
  829MOL0     H 9413   8.780   1.687  -0.746 -0.4914 -0.5235  0.0100
  829MOL0     H 9414  10.200   1.294  -0.195 -0.8962  1.0975  0.9504
  829MOL0     H 9415  10.355   1.093  -0.165 -1.4135 -0.9030 -1.9217
  829MOL0     H 9416  10.488   0.700   0.259 -0.1647 -0.4381  0.7242
  829MOL0     H 9417  10.601   0.481   0.272  0.5203  2.1807  1.3859
  829MOL0     H 9418  10.616   0.255   0.243  0.5222 -0.9716  0.3295
  829MOL0     H 9419  10.787   0.288   0.179  1.5829 -0.7318  0.6492
  829MOL0     H 9420  10.765   0.079   0.050 -2.2438  0.2523 -0.8469
  829MOL0     H 9421  10.771   0.067   0.225 -0.5827  1.3011  0.8168
  829MOL0     H 9422  10.517   0.059   0.225 -3.6157 -1.1000 -0.9571
  829MOL0     H 9423  10.608  -0.075   0.187 -2.4932 -0.6556  1.4245
  829MOL0     H 9424  10.433  -0.075   0.010 -2.0750  2.0777 -0.6865
  829MOL0     H 9425  10.457   0.096  -0.019 -2.0632 -1.3115  0.1948
  829MOL0     H 9426  10.698  -0.101  -0.283 -0.6710  0.1868  0.0005
  829MOL0     H 9427  10.538   0.437  -0.149  1.8753  3.0008 -0.8283
  829MOL0     H 9428  10.423   0.638  -0.164  3.4236 -1.4906 -1.2603
  830MOL0     O 9429   7.810   2.858   2.718 -0.1312 -0.1956 -0.3049
  830MOL0     C 9430   7.859   2.748   2.723 -0.9154  0.8555 -0.5591
  830MOL0     O 9431   7.789   2.622   2.719  0.1263  0.1881  0.0100
  830MOL0     C 9432   7.664   2.638   2.757  1.0211  0.5410  0.3391
  830MOL0     C 9433   7.561   2.658   2.672  1.0679 -0.2496 -0.4283
  830MOL0     C 9434   7.434   2.693   2.722 -0.0603 -0.5062 -0.0744
  830MOL0     C 9435   7.410   2.709   2.859  1.0654  1.1197 -0.8964
  830MOL0     O 9436   7.278   2.736   2.899  0.5608 -0.4918 -0.2864
  830MOL0     C 9437   7.222   2.690   3.027 -0.5537  1.0391 -0.0009
  830MOL0     C 9438   7.075   2.662   3.004 -0.8305  0.1697  0.4481
  830MOL0     C 9439   6.995   2.774   2.940  0.1108  0.2035 -0.1329
  830MOL0     C 9440   6.852   2.722   2.925 -0.2579 -0.5030  0.2022
  830MOL0     C 9441   6.736   2.822   2.907 -0.6143 -0.0488  0.0855
  830MOL0     C 9442   6.621   2.764   2.821  0.2008 -1.4339  0.0294
  830MOL0     C 9443   6.508   2.870   2.780 -0.1995  0.9505  0.3058
  830MOL0     C 9444   6.553   2.986   2.699  0.1625  0.0141 -0.1186
  830MOL0     N 9445   6.441   3.050   2.635  0.2028 -0.0840  0.3052
  830MOL0     C 9446   6.331   2.992   2.573 -0.7466  0.0054 -0.6034
  830MOL0     C 9447   6.259   3.100   2.550 -0.2577 -0.1739 -0.7514
  830MOL0     C 9448   6.133   3.103   2.469  0.2562 -0.1705 -1.2147
  830MOL0     C 9449   6.011   3.109   2.569 -0.2415 -0.5733  0.3549
  830MOL0     C 9450   5.981   3.252   2.634  0.0753  0.9633  0.3184
  830MOL0     C 9451   5.883   3.259   2.759  0.0236  0.1979 -0.5649
  830MOL0     O 9452   5.777   3.178   2.712  0.3492  0.3073 -0.2967
  830MOL0     C 9453   5.669   3.240   2.670  0.8204  0.0904 -0.1774
  830MOL0     C 9454   5.543   3.181   2.675  0.0470 -0.4065 -0.1197
  830MOL0     C 9455   5.423   3.238   2.632 -0.1320  0.3257  0.0780
  830MOL0     C 9456   5.419   3.366   2.574  0.3678  0.6278 -0.0637
  830MOL0     C 9457   5.299   3.440   2.518  0.1962 -0.5753 -0.2143
  830MOL0     O 9458   5.183   3.361   2.506 -0.3962 -0.3859 -0.2188
  830MOL0     C 9459   5.055   3.410   2.505 -0.7519 -0.7087 -0.4982
  830MOL0     C 9460   4.951   3.308   2.494 -1.8800 -0.7382  0.1160
  830MOL0     C 9461   4.817   3.341   2.513 -0.1522  1.0147  0.0822
  830MOL0     C 9462   4.796   3.476   2.532 -0.7731  0.7577 -0.7560
  830MOL0     O 9463   4.663   3.504   2.545  0.1322  0.2628  0.7711
  830MOL0     C 9464   4.623   3.620   2.613 -0.7662  0.1882  0.5236
  830MOL0     C 9465   4.471   3.602   2.624  0.9557  0.7936  0.2537
  830MOL0     C 9466   4.415   3.689   2.737  0.5450 -0.3018  0.8677
  830MOL0     C 9467   4.269   3.675   2.746  0.0805  0.0893  0.3299
  830MOL0     C 9468   4.222   3.770   2.860  0.5651 -0.7620 -0.5200
  830MOL0     C 9469   4.079   3.789   2.866  0.5765 -0.2791 -0.7990
  830MOL0     C 9470   4.047   3.837   3.009  1.0850  0.5441 -0.1453
  830MOL0     C 9471   3.906   3.902   3.035 -0.6838  0.4995 -0.7084
  830MOL0    Cl 9472   3.883   3.937   3.209 -0.3771  0.6340 -0.4970
  830MOL0     C 9473   4.896   3.572   2.539  0.4876  0.0351  0.2103
  830MOL0     C 9474   5.028   3.538   2.527 -0.5407 -0.4837 -0.5464
  830MOL0     O 9475   5.311   3.557   2.476  0.4667 -0.2330  0.3520
  830MOL0     C 9476   5.546   3.430   2.566  0.0646  0.3007  0.2268
  830MOL0     C 9477   5.666   3.373   2.616 -1.0739  0.0291  0.1808
  830MOL0     N 9478   6.312   3.219   2.608 -0.3401  0.3452  0.0889
  830MOL0     N 9479   6.425   3.183   2.661  0.2322  0.9009  0.1574
  830MOL0     C 9480   7.509   2.676   2.944 -1.2312 -0.4631 -0.5814
  830MOL0     C 9481   7.634   2.640   2.896  0.2716  0.2037 -0.2432
  830MOL0     C 9482   8.007   2.753   2.726  0.4708  0.1591 -0.3336
  830MOL0     C 9483   8.084   2.870   2.745  1.7621 -0.3455 -1.3719
  830MOL0     C 9484   8.218   2.872   2.734 -1.2667  0.6735  0.4377
  830MOL0     C 9485   8.284   2.748   2.708  0.2916 -0.1609 -0.1572
  830MOL0     O 9486   8.420   2.744   2.702 -0.1787  0.0451  0.4784
  830MOL0     C 9487   8.481   2.634   2.642  0.4639  0.7444 -0.2330
  830MOL0     C 9488   8.629   2.630   2.649 -1.0885 -0.2458  0.5745
  830MOL0     C 9489   8.683   2.768   2.595  0.3869  0.7886  0.0718
  830MOL0     C 9490   8.799   2.736   2.498  0.4662  0.3496  0.7815
  830MOL0     C 9491   8.914   2.688   2.573 -0.0012 -1.0896 -0.0876
  830MOL0     C 9492   9.013   2.671   2.643 -0.0282 -0.4335 -0.2906
  830MOL0     C 9493   8.212   2.630   2.685 -0.3215  0.8382 -0.6815
  830MOL0     C 9494   8.075   2.631   2.695 -0.4185  0.3399 -0.8299
  830MOL0     H 9495   7.573   2.658   2.564  0.5871  0.2717 -0.4818
  830MOL0     H 9496   7.351   2.710   2.653  1.6767  3.7485 -1.4689
  830MOL0     H 9497   7.225   2.767   3.105 -0.2680 -0.8354  1.9341
  830MOL0     H 9498   7.279   2.603   3.059 -1.9483 -0.5436 -1.5822
  830MOL0     H 9499   7.030   2.613   3.091 -1.2662 -0.5934 -0.2035
  830MOL0     H 9500   7.086   2.579   2.934  2.0406 -2.6415  3.7955
  830MOL0     H 9501   7.025   2.806   2.840 -0.6632  0.1086 -0.4032
  830MOL0     H 9502   6.997   2.854   3.014  0.0199  0.0998 -0.0165
  830MOL0     H 9503   6.856   2.653   2.839  1.9156 -2.3849  1.6963
  830MOL0     H 9504   6.819   2.660   3.009  0.9741 -0.8282  0.4719
  830MOL0     H 9505   6.769   2.922   2.879 -0.3814 -0.6589 -1.9974
  830MOL0     H 9506   6.684   2.841   3.001  1.1340 -0.7429  1.2374
  830MOL0     H 9507   6.581   2.667   2.850  0.2417 -2.6396 -3.4671
  830MOL0     H 9508   6.651   2.731   2.721 -2.8796 -2.1345 -0.7460
  830MOL0     H 9509   6.435   2.820   2.716  1.0775  0.9783 -1.2350
  830MOL0     H 9510   6.448   2.907   2.864 -2.7141  1.9522 -1.8226
  830MOL0     H 9511   6.633   2.957   2.631  0.3782 -0.6624  0.4134
  830MOL0     H 9512   6.593   3.066   2.761  0.9049  0.8302 -1.6125
  830MOL0     H 9513   6.321   2.887   2.546  4.0170 -0.1880 -2.5404
  830MOL0     H 9514   6.131   3.020   2.398  3.4684 -0.7770 -0.7406
  830MOL0     H 9515   6.123   3.192   2.407 -0.9832  0.5783 -0.0102
  830MOL0     H 9516   6.016   3.045   2.658 -0.5539 -2.5092 -0.9570
  830MOL0     H 9517   5.922   3.090   2.509  0.5500  1.4930 -1.6382
  830MOL0     H 9518   6.071   3.308   2.662  1.2508 -0.0303 -1.3216
  830MOL0     H 9519   5.931   3.305   2.553  0.1539  1.7223  0.7490
  830MOL0     H 9520   5.861   3.365   2.776 -1.4835  0.1479 -1.9086
  830MOL0     H 9521   5.932   3.212   2.844 -0.7833 -1.3341 -0.9153
  830MOL0     H 9522   5.537   3.086   2.727 -2.7246  0.1947  0.7798
  830MOL0     H 9523   5.333   3.178   2.642 -0.3703  0.7314  0.4117
  830MOL0     H 9524   4.992   3.208   2.503  0.1799  0.1962  2.2565
  830MOL0     H 9525   4.740   3.265   2.505  0.2129  0.4216  1.8440
  830MOL0     H 9526   4.650   3.711   2.558 -2.2908 -0.4383 -1.3983
  830MOL0     H 9527   4.669   3.631   2.711 -0.5746  0.5378  0.3993
  830MOL0     H 9528   4.444   3.502   2.659  3.0853  0.1957  0.3269
  830MOL0     H 9529   4.421   3.629   2.530 -0.7836 -1.9239  0.2796
  830MOL0     H 9530   4.448   3.790   2.712 -0.4744 -0.3266 -0.7226
  830MOL0     H 9531   4.451   3.656   2.835 -0.1179 -3.8700  0.0542
  830MOL0     H 9532   4.224   3.696   2.649 -1.2583 -0.0127  0.8912
  830MOL0     H 9533   4.243   3.570   2.764  0.8534 -0.6418 -2.4127
  830MOL0     H 9534   4.277   3.860   2.830  2.6128 -1.3082  1.3675
  830MOL0     H 9535   4.250   3.737   2.960  1.3505  2.5540  0.4975
  830MOL0     H 9536   4.021   3.697   2.861 -1.4987  0.9423 -0.5284
  830MOL0     H 9537   4.035   3.859   2.794 -0.2957  0.4060  0.3538
  830MOL0     H 9538   4.045   3.748   3.072  4.6890  1.9754  2.3206
  830MOL0     H 9539   4.123   3.908   3.044 -1.4180  4.1151 -1.2975
  830MOL0     H 9540   3.815   3.852   3.001 -0.3878  0.0027 -0.7749
  830MOL0     H 9541   3.918   3.996   2.981 -0.2227  0.2972 -0.9596
  830MOL0     H 9542   4.868   3.674   2.563  1.3157 -0.1451  2.1059
  830MOL0     H 9543   5.095   3.623   2.528 -0.1081 -0.7677  1.8083
  830MOL0     H 9544   5.555   3.532   2.529 -3.1929 -0.5266 -3.6532
  830MOL0     H 9545   5.753   3.435   2.598 -0.7108 -0.8746 -1.2899
  830MOL0     H 9546   7.492   2.681   3.051  2.1158 -0.7432  0.0712
  830MOL0     H 9547   7.723   2.622   2.955 -0.0030  0.1385  0.1535
  830MOL0     H 9548   8.034   2.965   2.726  0.3663 -0.4578  1.3135
  830MOL0     H 9549   8.275   2.964   2.739 -0.4434  0.1265  1.5125
  830MOL0     H 9550   8.452   2.617   2.538 -0.7030 -0.8018  0.3165
  830MOL0     H 9551   8.445   2.545   2.694  0.3405  0.0937 -1.3965
  830MOL0     H 9552   8.656   2.606   2.752  1.4991  0.4407  0.1323
  830MOL0     H 9553   8.667   2.551   2.583  1.3155  1.8260 -0.7150
  830MOL0     H 9554   8.718   2.825   2.682  1.9647 -0.6147  0.4180
  830MOL0     H 9555   8.603   2.821   2.542  1.0757  1.6994 -0.0885
  830MOL0     H 9556   8.762   2.651   2.439 -0.5923  0.1523  1.6984
  830MOL0     H 9557   8.829   2.825   2.442 -0.1191  1.4577  2.1760
  830MOL0     H 9558   9.105   2.678   2.699  0.2661  1.4825 -0.9429
  830MOL0     H 9559   8.257   2.535   2.661 -0.3361  0.4937  0.5871
  830MOL0     H 9560   8.021   2.538   2.682  0.2645 -0.0797 -0.7023
  831MOL0     O 9561   0.870   9.148   2.956  0.6954 -0.1110 -0.3055
  831MOL0     C 9562   0.874   9.060   3.040  0.1293 -0.4523 -0.8609
  831MOL0     O 9563   0.770   9.019   3.126 -0.1051  0.0355  0.4605
  831MOL0     C 9564   0.645   9.081   3.096  0.2569 -0.7571  0.0737
  831MOL0     C 9565   0.585   9.174   3.193 -0.3054  1.1262 -0.1601
  831MOL0     C 9566   0.457   9.238   3.160 -1.0898  0.0353 -0.0583
  831MOL0     C 9567   0.407   9.228   3.026 -0.1581  0.0089 -0.4690
  831MOL0     O 9568   0.301   9.302   2.984 -0.3321 -0.4345  0.4501
  831MOL0     C 9569   0.178   9.249   3.029  0.2374 -0.8232 -0.1294
  831MOL0     C 9570   0.081   9.363   3.064  0.4847 -0.2242  0.2031
  831MOL0     C 9571  -0.046   9.316   3.137  0.3459  0.0013 -0.5222
  831MOL0     C 9572  -0.153   9.270   3.041  0.3692  0.1397  0.7547
  831MOL0     C 9573  -0.286   9.214   3.111  1.5127  0.0084  0.1603
  831MOL0     C 9574  -0.367   9.335   3.170 -1.1458  0.0627  0.0499
  831MOL0     C 9575  -0.518   9.291   3.214  0.2524 -0.3283  0.1010
  831MOL0     C 9576  -0.605   9.305   3.088  0.7071  0.4643  0.0597
  831MOL0     N 9577  -0.752   9.317   3.131 -0.5450 -0.0410  0.0177
  831MOL0     C 9578  -0.828   9.433   3.127  0.3646  0.0488 -0.4821
  831MOL0     C 9579  -0.951   9.398   3.174 -0.8632 -0.5039  0.0226
  831MOL0     C 9580  -1.066   9.486   3.202  0.2309  0.3119  0.3237
  831MOL0     C 9581  -1.197   9.413   3.228  0.1977  0.5632 -0.2523
  831MOL0     C 9582  -1.264   9.367   3.096 -0.0486  0.2230  0.4280
  831MOL0     C 9583  -1.412   9.333   3.119 -0.5219 -1.1267 -0.5246
  831MOL0     O 9584  -1.429   9.226   3.215  0.4167 -0.4928 -0.0887
  831MOL0     C 9585  -1.545   9.180   3.260 -0.3855  0.0599 -0.0603
  831MOL0     C 9586  -1.558   9.114   3.380  0.1390  0.1163 -0.1829
  831MOL0     C 9587  -1.687   9.074   3.421 -0.0480  0.2371  0.1214
  831MOL0     C 9588  -1.797   9.098   3.338 -0.1278  0.2085 -0.0287
  831MOL0     C 9589  -1.932   9.055   3.380  0.8346  0.5479 -0.3864
  831MOL0     O 9590  -2.039   9.128   3.322 -0.2089 -0.5399 -0.9211
  831MOL0     C 9591  -2.167   9.069   3.330  0.7096 -0.6832 -0.4537
  831MOL0     C 9592  -2.191   8.931   3.321  0.5486  0.5665 -0.3484
  831MOL0     C 9593  -2.323   8.886   3.324 -0.5336 -0.2028 -0.8580
  831MOL0     C 9594  -2.434   8.956   3.355 -0.3361 -0.0355  0.2474
  831MOL0     O 9595  -2.556   8.897   3.378  0.4641 -0.8621  0.7251
  831MOL0     C 9596  -2.677   8.976   3.400 -0.2971 -0.1797 -0.1836
  831MOL0     C 9597  -2.794   8.870   3.388 -0.9206  0.7934 -0.6222
  831MOL0     C 9598  -2.803   8.812   3.247 -0.2031 -0.2683 -0.0950
  831MOL0     C 9599  -2.934   8.742   3.213 -0.1453  0.0599  0.1226
  831MOL0     C 9600  -2.964   8.736   3.061 -0.7459  0.1636 -0.1790
  831MOL0     C 9601  -3.069   8.630   3.045 -0.6819  0.2482 -0.1780
  831MOL0     C 9602  -3.137   8.655   2.909  0.6099  0.1564 -0.0799
  831MOL0     C 9603  -3.254   8.572   2.878 -0.2780 -0.8913  0.8217
  831MOL0    Cl 9604  -3.395   8.627   2.951  0.2067  0.0078 -0.1433
  831MOL0     C 9605  -2.407   9.097   3.363  0.8370  0.1146  0.4681
  831MOL0     C 9606  -2.279   9.156   3.335 -0.5652  0.6952 -0.6595
  831MOL0     O 9607  -1.944   8.963   3.465 -0.6751  0.5760  0.3243
  831MOL0     C 9608  -1.784   9.173   3.218 -0.2038 -0.1487  0.3266
  831MOL0     C 9609  -1.657   9.223   3.188 -0.3834 -0.3351  0.7321
  831MOL0     N 9610  -0.946   9.262   3.193  1.0584  1.0223 -0.2902
  831MOL0     N 9611  -0.824   9.215   3.172 -0.1092  0.6852  0.4294
  831MOL0     C 9612   0.465   9.132   2.940 -1.0914 -0.7859  0.2373
  831MOL0     C 9613   0.575   9.053   2.970 -0.0582 -0.4825  0.0905
  831MOL0     C 9614   1.003   8.993   3.055 -1.0737  0.1060 -0.3514
  831MOL0     C 9615   1.101   8.990   2.952 -1.3270  0.5658  0.0849
  831MOL0     C 9616   1.227   8.918   2.967 -0.2757 -1.0744  0.2434
  831MOL0     C 9617   1.263   8.872   3.097 -0.2920  0.2774 -0.1009
  831MOL0     O 9618   1.387   8.819   3.134  1.1878 -0.1894 -0.4340
  831MOL0     C 9619   1.490   8.858   3.056  0.1812  0.6510 -0.2590
  831MOL0     C 9620   1.616   8.778   3.100  0.5847  0.2561 -0.5093
  831MOL0     C 9621   1.619   8.636   3.045  0.2144 -0.4306 -0.3362
  831MOL0     C 9622   1.661   8.603   2.900  0.4801 -0.2849 -0.8658
  831MOL0     C 9623   1.797   8.649   2.879 -0.5212 -0.7852  0.2358
  831MOL0     C 9624   1.917   8.674   2.886 -0.2457 -0.5684  0.7442
  831MOL0     C 9625   1.168   8.893   3.198 -0.1771 -0.6560  0.0468
  831MOL0     C 9626   1.040   8.948   3.181  0.4859  0.0416 -0.7721
  831MOL0     H 9627   0.626   9.185   3.293 -1.5376 -0.3236  0.5593
  831MOL0     H 9628   0.390   9.296   3.223 -3.0522 -1.0700 -1.0374
  831MOL0     H 9629   0.194   9.189   3.119 -3.2098 -1.0784  0.4488
  831MOL0     H 9630   0.137   9.180   2.955  0.2060  0.4607 -1.3728
  831MOL0     H 9631   0.040   9.401   2.971 -1.4340  1.8485  1.7835
  831MOL0     H 9632   0.128   9.451   3.109  1.8465 -0.3422 -0.9261
  831MOL0     H 9633  -0.085   9.395   3.201  0.8130  0.0148 -0.2505
  831MOL0     H 9634  -0.020   9.230   3.200 -1.4246 -0.8188 -0.8313
  831MOL0     H 9635  -0.174   9.360   2.982  1.3099  0.1013  0.3379
  831MOL0     H 9636  -0.119   9.196   2.968 -0.1714  0.6524 -0.0258
  831MOL0     H 9637  -0.260   9.141   3.189  3.3941 -0.8570 -1.2092
  831MOL0     H 9638  -0.360   9.180   3.039  0.6629  2.8637 -0.4353
  831MOL0     H 9639  -0.377   9.421   3.103 -1.2921  0.8464  1.0500
  831MOL0     H 9640  -0.309   9.377   3.253  0.7923 -1.2417 -0.5602
  831MOL0     H 9641  -0.511   9.189   3.253 -1.9162 -1.4356 -2.2028
  831MOL0     H 9642  -0.549   9.355   3.298  4.1185 -1.5244  2.7713
  831MOL0     H 9643  -0.587   9.211   3.035 -1.8826  0.5525 -1.1221
  831MOL0     H 9644  -0.580   9.391   3.024 -1.5482  1.3253  0.2391
  831MOL0     H 9645  -0.811   9.537   3.101 -3.4496  0.8507 -0.4384
  831MOL0     H 9646  -1.079   9.566   3.129  1.0465  1.2462  1.1778
  831MOL0     H 9647  -1.044   9.546   3.291 -2.3496  0.4648  0.9223
  831MOL0     H 9648  -1.262   9.478   3.287 -1.6108 -0.2455 -1.2649
  831MOL0     H 9649  -1.190   9.328   3.297  0.4702  1.1226  0.4193
  831MOL0     H 9650  -1.260   9.437   3.012  0.2581 -0.4954 -0.1590
  831MOL0     H 9651  -1.212   9.275   3.067  1.9491  0.9793  1.4265
  831MOL0     H 9652  -1.454   9.291   3.027 -2.2930 -0.3152 -0.1142
  831MOL0     H 9653  -1.467   9.423   3.147  0.1282 -0.4840 -1.2476
  831MOL0     H 9654  -1.477   9.080   3.444  0.0640  1.5440  0.7132
  831MOL0     H 9655  -1.700   9.023   3.516  1.4736  1.8398  1.2592
  831MOL0     H 9656  -2.118   8.851   3.312  0.9545  0.8098  0.7088
  831MOL0     H 9657  -2.341   8.779   3.322 -1.3504 -0.1000 -0.0649
  831MOL0     H 9658  -2.694   9.044   3.316 -2.7606 -2.1380 -1.4294
  831MOL0     H 9659  -2.669   9.019   3.500 -1.8999  0.7757 -0.4322
  831MOL0     H 9660  -2.890   8.914   3.415 -1.1465 -1.2645  2.5648
  831MOL0     H 9661  -2.767   8.791   3.459  1.3804  0.5836 -1.6465
  831MOL0     H 9662  -2.724   8.736   3.241  1.4200  1.4718 -2.9352
  831MOL0     H 9663  -2.794   8.883   3.165  0.8702  0.0035  0.2418
  831MOL0     H 9664  -2.919   8.639   3.248 -0.9277 -0.5897 -1.3839
  831MOL0     H 9665  -3.013   8.790   3.271 -1.4467 -4.8717  3.0240
  831MOL0     H 9666  -2.876   8.708   3.002 -0.4413 -0.1813  0.4344
  831MOL0     H 9667  -2.996   8.840   3.047  1.1243  0.6450 -1.2887
  831MOL0     H 9668  -3.155   8.627   3.113 -2.0067  0.7174 -1.7973
  831MOL0     H 9669  -3.025   8.530   3.053 -0.1983  0.4474 -0.2667
  831MOL0     H 9670  -3.173   8.758   2.904 -0.0253 -0.1073 -2.1603
  831MOL0     H 9671  -3.063   8.639   2.830  1.9195 -3.1508  1.6316
  831MOL0     H 9672  -3.235   8.468   2.905 -0.7368 -0.4218  3.1638
  831MOL0     H 9673  -3.268   8.575   2.770  1.7916  1.8879  0.5084
  831MOL0     H 9674  -2.490   9.163   3.384  2.8421  3.4821 -1.3242
  831MOL0     H 9675  -2.252   9.261   3.340  0.8973  0.3020 -0.0642
  831MOL0     H 9676  -1.866   9.214   3.159 -1.6719 -2.3455  0.7059
  831MOL0     H 9677  -1.651   9.288   3.101  1.0914 -0.3505  0.8066
  831MOL0     H 9678   0.408   9.123   2.849 -2.4738 -1.1262  1.1131
  831MOL0     H 9679   0.608   8.980   2.897 -1.7015 -2.4947  1.2704
  831MOL0     H 9680   1.079   9.051   2.866 -0.6914  0.3062 -0.2708
  831MOL0     H 9681   1.302   8.914   2.888  0.1435 -2.6645  0.6891
  831MOL0     H 9682   1.501   8.966   3.057  0.2256  0.6591  1.8320
  831MOL0     H 9683   1.477   8.832   2.950 -0.0384 -1.5797  0.2534
  831MOL0     H 9684   1.703   8.826   3.053  0.9108  0.8977  0.7124
  831MOL0     H 9685   1.617   8.770   3.209  0.9837 -0.7095 -0.5745
  831MOL0     H 9686   1.526   8.582   3.065 -0.3252  1.7354  4.5035
  831MOL0     H 9687   1.690   8.592   3.116 -0.5271 -1.1980 -0.0415
  831MOL0     H 9688   1.650   8.496   2.881  1.2900 -0.7040  0.8750
  831MOL0     H 9689   1.593   8.657   2.832  0.4969 -0.1309 -0.7627
  831MOL0     H 9690   2.020   8.690   2.911  0.1583 -0.9466 -0.5988
  831MOL0     H 9691   1.195   8.861   3.298  0.6225  3.5147  1.3753
  831MOL0     H 9692   0.977   8.954   3.269  0.5494 -0.7324 -0.6733
  832MOL0     O 9693   2.084   8.903   1.650 -0.6450  0.7686 -0.1435
  832MOL0     C 9694   2.088   8.947   1.766 -0.0054 -0.2079  0.1814
  832MOL0     O 9695   1.994   9.026   1.817  0.2755  1.0436  0.0316
  832MOL0     C 9696   1.872   9.060   1.763 -0.1331  0.3473 -0.6485
  832MOL0     C 9697   1.874   9.146   1.655 -0.3189 -0.6098 -0.7886
  832MOL0     C 9698   1.753   9.186   1.596 -0.0664  0.2303 -1.1613
  832MOL0     C 9699   1.633   9.130   1.653  0.0016 -0.8972 -0.1521
  832MOL0     O 9700   1.510   9.149   1.605 -0.1234 -0.0421 -0.7259
  832MOL0     C 9701   1.497   9.221   1.480 -0.1758 -0.7809 -0.1923
  832MOL0     C 9702   1.357   9.213   1.426  0.2732 -0.0356 -0.1174
  832MOL0     C 9703   1.303   9.069   1.413  0.2420  0.6404  0.1162
  832MOL0     C 9704   1.169   9.055   1.331 -0.4692 -0.3958 -0.1250
  832MOL0     C 9705   1.133   8.903   1.311  0.1350  0.6668 -0.5204
  832MOL0     C 9706   0.987   8.906   1.275  0.7553 -0.0910 -0.3345
  832MOL0     C 9707   0.943   8.760   1.234  0.6504  0.7057  0.6249
  832MOL0     C 9708   0.804   8.767   1.166  0.4706 -0.0354  0.0455
  832MOL0     N 9709   0.709   8.684   1.238 -0.2064  0.0731 -0.1600
  832MOL0     C 9710   0.680   8.690   1.366  0.4082  0.3663  0.1623
  832MOL0     C 9711   0.615   8.574   1.396  0.0501 -0.5064 -0.2291
  832MOL0     C 9712   0.602   8.512   1.535 -0.6881 -0.1836 -0.1248
  832MOL0     C 9713   0.474   8.569   1.599  0.6694 -0.0073 -0.2788
  832MOL0     C 9714   0.342   8.514   1.558 -0.8705 -0.6499  1.0259
  832MOL0     C 9715   0.220   8.597   1.613  0.2239 -0.2682 -0.1037
  832MOL0     O 9716   0.188   8.716   1.534 -0.1075  0.0202  0.2058
  832MOL0     C 9717   0.065   8.736   1.487  0.0567  0.1902 -0.3004
  832MOL0     C 9718  -0.022   8.834   1.539 -0.3320  0.5660 -0.3199
  832MOL0     C 9719  -0.154   8.845   1.493 -0.2221 -0.4439 -0.5648
  832MOL0     C 9720  -0.200   8.765   1.385  0.4764  0.0838 -0.6153
  832MOL0     C 9721  -0.344   8.775   1.345  0.2248  1.1084 -0.3820
  832MOL0     O 9722  -0.389   8.675   1.259 -0.1382 -0.7117 -0.6067
  832MOL0     C 9723  -0.523   8.653   1.236 -0.1397  0.5611 -0.7674
  832MOL0     C 9724  -0.569   8.620   1.115 -0.6825 -0.1137  0.7359
  832MOL0     C 9725  -0.705   8.606   1.086  0.3793  0.0658  0.2463
  832MOL0     C 9726  -0.804   8.621   1.182  0.1526  0.1742 -0.0631
  832MOL0     O 9727  -0.946   8.621   1.165  0.2800 -0.1045 -0.4715
  832MOL0     C 9728  -1.004   8.629   1.036 -0.2171 -0.0674 -0.1556
  832MOL0     C 9729  -0.996   8.492   0.963  1.0527 -0.3154  0.3486
  832MOL0     C 9730  -1.143   8.436   0.959  0.2668  0.1695  0.3228
  832MOL0     C 9731  -1.184   8.375   1.094 -0.0007  0.6109 -0.2452
  832MOL0     C 9732  -1.323   8.324   1.100  0.7322 -0.4916  0.6101
  832MOL0     C 9733  -1.424   8.445   1.076 -0.6214  0.2792  0.4722
  832MOL0     C 9734  -1.563   8.403   1.120  0.4408  0.2870  0.5714
  832MOL0     C 9735  -1.554   8.386   1.280 -0.2215 -0.0206  0.3567
  832MOL0    Cl 9736  -1.706   8.359   1.347  0.1801 -0.0964  0.3343
  832MOL0     C 9737  -0.758   8.630   1.310 -0.3303 -0.2495 -0.9729
  832MOL0     C 9738  -0.626   8.660   1.340  0.2324  0.4579 -0.2356
  832MOL0     O 9739  -0.404   8.874   1.374  0.6660 -1.4008  1.0054
  832MOL0     C 9740  -0.109   8.677   1.336  0.3148  0.3576  0.9469
  832MOL0     C 9741   0.021   8.655   1.385  0.3317  0.6002 -0.2158
  832MOL0     N 9742   0.599   8.509   1.277  0.8981  0.1380 -0.7889
  832MOL0     N 9743   0.649   8.579   1.182 -0.1409 -0.2434 -0.5310
  832MOL0     C 9744   1.637   9.035   1.765 -0.2914 -0.2391 -0.3218
  832MOL0     C 9745   1.759   9.004   1.821  1.6295 -0.1455  0.1549
  832MOL0     C 9746   2.214   8.922   1.848  0.3583 -0.1271 -0.0359
  832MOL0     C 9747   2.338   8.875   1.795  0.4395  0.3267 -0.2807
  832MOL0     C 9748   2.452   8.861   1.878  1.5511  0.2452 -0.3674
  832MOL0     C 9749   2.435   8.875   2.018 -0.0032  0.7017 -1.0229
  832MOL0     O 9750   2.537   8.859   2.113  0.9300  0.5437  0.0193
  832MOL0     C 9751   2.669   8.821   2.071  0.5018  0.3568 -0.0906
  832MOL0     C 9752   2.732   8.945   2.015 -0.7367 -0.4170  0.5425
  832MOL0     C 9753   2.796   9.037   2.117 -0.4301  1.2500 -0.7881
  832MOL0     C 9754   2.703   9.097   2.229 -0.6209  0.2287 -0.0771
  832MOL0     C 9755   2.633   9.210   2.175  0.1031 -0.5512 -0.0978
  832MOL0     C 9756   2.573   9.303   2.119 -0.0121  0.2288  0.0775
  832MOL0     C 9757   2.314   8.899   2.070  0.2654 -0.0963  0.8598
  832MOL0     C 9758   2.204   8.930   1.990 -0.0370  0.2609  0.0846
  832MOL0     H 9759   1.970   9.192   1.633  0.8192 -1.0487  2.5719
  832MOL0     H 9760   1.766   9.256   1.514  4.0013  1.5387  0.3744
  832MOL0     H 9761   1.571   9.178   1.412  0.9303  0.5824  0.0936
  832MOL0     H 9762   1.525   9.327   1.490  2.0214 -1.3626  0.3277
  832MOL0     H 9763   1.365   9.265   1.330  1.5779 -0.8095 -0.4567
  832MOL0     H 9764   1.285   9.271   1.485  1.0060  0.6161  0.1488
  832MOL0     H 9765   1.291   9.023   1.512 -1.4184 -0.3322 -0.5008
  832MOL0     H 9766   1.386   9.023   1.359 -0.2425 -1.3478  0.9558
  832MOL0     H 9767   1.091   9.095   1.397 -1.1925 -1.2749 -0.4277
  832MOL0     H 9768   1.161   9.119   1.242 -2.2617 -0.4326 -0.0424
  832MOL0     H 9769   1.146   8.833   1.394  2.2433 -0.3962 -1.6668
  832MOL0     H 9770   1.187   8.868   1.223  2.0466  2.0126  0.0646
  832MOL0     H 9771   0.967   8.978   1.195  0.6341  1.5586  1.1156
  832MOL0     H 9772   0.933   8.943   1.363  1.3592 -2.8109  1.3082
  832MOL0     H 9773   1.014   8.728   1.158  0.6927  3.4188 -0.5741
  832MOL0     H 9774   0.942   8.693   1.321 -0.3356 -0.1860 -0.0515
  832MOL0     H 9775   0.805   8.728   1.064 -0.5141  2.5421 -1.0342
  832MOL0     H 9776   0.771   8.871   1.159 -0.9396 -0.4266  0.4965
  832MOL0     H 9777   0.726   8.762   1.432  0.2650 -0.0404  0.7127
  832MOL0     H 9778   0.685   8.545   1.597  1.3082  0.0873 -2.7573
  832MOL0     H 9779   0.602   8.402   1.531  0.9303 -0.1924 -2.9216
  832MOL0     H 9780   0.474   8.679   1.599 -0.2745  0.0222 -2.3165
  832MOL0     H 9781   0.471   8.554   1.708 -1.0715  3.2567  0.2813
  832MOL0     H 9782   0.344   8.508   1.449 -0.5283  3.0745  0.6822
  832MOL0     H 9783   0.340   8.413   1.601  1.5188 -0.7861  0.9614
  832MOL0     H 9784   0.239   8.626   1.717 -1.8962 -0.1998  0.3279
  832MOL0     H 9785   0.127   8.541   1.627 -0.4372  1.2186  1.9456
  832MOL0     H 9786   0.014   8.909   1.609 -0.0588  2.3076 -2.2155
  832MOL0     H 9787  -0.226   8.910   1.543 -0.8639 -0.6627 -1.2088
  832MOL0     H 9788  -0.504   8.614   1.028  2.8895  0.3141  3.1521
  832MOL0     H 9789  -0.722   8.586   0.980 -0.6875 -1.5411  0.6900
  832MOL0     H 9790  -0.955   8.687   0.957 -2.0332 -1.0857 -2.1292
  832MOL0     H 9791  -1.109   8.660   1.041 -0.3797 -0.3277 -1.4300
  832MOL0     H 9792  -0.923   8.429   1.015  2.2424 -0.6783 -1.6344
  832MOL0     H 9793  -0.947   8.505   0.866  1.1826 -0.7343  0.3529
  832MOL0     H 9794  -1.141   8.351   0.890  0.6660  0.5319 -0.1157
  832MOL0     H 9795  -1.216   8.512   0.929  0.2282  0.9817  2.3864
  832MOL0     H 9796  -1.116   8.298   1.131 -1.4291 -0.6139 -0.0932
  832MOL0     H 9797  -1.182   8.463   1.158  0.6343  1.3663 -1.2580
  832MOL0     H 9798  -1.340   8.271   1.194  0.2628 -0.3281  0.6183
  832MOL0     H 9799  -1.335   8.244   1.026  4.1417 -0.2586 -0.3635
  832MOL0     H 9800  -1.436   8.475   0.972 -5.2519  1.0307  1.0277
  832MOL0     H 9801  -1.389   8.528   1.137  0.7077 -1.7243  2.6290
  832MOL0     H 9802  -1.641   8.473   1.087  1.0198  0.5877 -0.1849
  832MOL0     H 9803  -1.585   8.312   1.064  1.5494 -0.3747  1.2011
  832MOL0     H 9804  -1.502   8.470   1.327 -2.7718  0.4232  2.6095
  832MOL0     H 9805  -1.498   8.294   1.297  2.6681  1.6324  0.4632
  832MOL0     H 9806  -0.833   8.637   1.387  0.2814  0.4363 -0.4230
  832MOL0     H 9807  -0.587   8.674   1.440  2.1230 -2.5831 -0.4337
  832MOL0     H 9808  -0.146   8.625   1.248  2.4583  0.8043 -0.2921
  832MOL0     H 9809   0.083   8.580   1.337  0.7629  0.6549  0.2456
  832MOL0     H 9810   1.544   8.990   1.796 -1.8761  1.7833 -1.8545
  832MOL0     H 9811   1.777   8.928   1.896  1.0746 -1.1466 -0.6875
  832MOL0     H 9812   2.355   8.870   1.688  2.6669 -0.3194  0.0412
  832MOL0     H 9813   2.548   8.850   1.829  1.1657  1.6211 -1.4820
  832MOL0     H 9814   2.664   8.741   1.997  0.6428  1.1563 -0.9744
  832MOL0     H 9815   2.722   8.780   2.157  0.5407 -1.5821 -0.9907
  832MOL0     H 9816   2.812   8.913   1.948 -0.5586  0.1598  0.4701
  832MOL0     H 9817   2.668   9.004   1.948  0.1543  1.4751  1.2947
  832MOL0     H 9818   2.847   9.116   2.061 -1.6810  0.8958 -2.4810
  832MOL0     H 9819   2.869   8.967   2.159 -2.6740 -1.0217 -0.5118
  832MOL0     H 9820   2.640   9.017   2.270  0.5708 -1.7580 -1.9271
  832MOL0     H 9821   2.764   9.146   2.306 -2.8935  3.0654  0.0964
  832MOL0     H 9822   2.533   9.394   2.078 -1.4247 -1.1581 -1.7538
  832MOL0     H 9823   2.300   8.924   2.175  1.9830 -1.4589  1.4672
  832MOL0     H 9824   2.107   8.949   2.034 -0.0446 -0.1650  0.2569
  833MOL0     O 9825   1.226   5.277   0.593 -0.2312 -0.7021 -0.2114
  833MOL0     C 9826   1.223   5.168   0.535  0.7962  0.0202 -0.0512
  833MOL0     O 9827   1.108   5.086   0.521  0.5988 -0.2116  0.6296
  833MOL0     C 9828   0.996   5.132   0.572  0.1024 -0.1511 -0.2146
  833MOL0     C 9829   0.984   5.163   0.707 -0.9153 -0.0192  0.4689
  833MOL0     C 9830   0.858   5.203   0.760 -0.1928  0.2175  0.4967
  833MOL0     C 9831   0.751   5.227   0.677 -0.1252 -0.5147  0.7298
  833MOL0     O 9832   0.627   5.278   0.716  0.0127 -0.4456 -0.5792
  833MOL0     C 9833   0.609   5.292   0.859  0.9232 -0.0838  0.6594
  833MOL0     C 9834   0.467   5.336   0.886  0.1419  0.3000 -0.0233
  833MOL0     C 9835   0.362   5.232   0.869 -0.0271 -1.5179  0.7523
  833MOL0     C 9836   0.229   5.302   0.893  0.5164  0.4553  0.1233
  833MOL0     C 9837   0.102   5.224   0.869  0.2313  0.2307 -0.2358
  833MOL0     C 9838  -0.027   5.318   0.874  0.1469  0.4969  0.5572
  833MOL0     C 9839  -0.159   5.242   0.899 -0.8827 -0.4859  0.2539
  833MOL0     C 9840  -0.189   5.128   0.798 -0.1825  0.3552 -0.3245
  833MOL0     N 9841  -0.326   5.077   0.826 -0.2412 -0.6558 -0.2388
  833MOL0     C 9842  -0.369   4.952   0.786 -0.4183 -0.3251 -0.5687
  833MOL0     C 9843  -0.500   4.950   0.826  0.4421  0.8795  0.7432
  833MOL0     C 9844  -0.593   4.833   0.785  0.2944 -0.7891 -0.0672
  833MOL0     C 9845  -0.708   4.877   0.701 -0.5544  0.3487 -0.3270
  833MOL0     C 9846  -0.776   4.748   0.649 -1.1412 -0.3765 -0.1873
  833MOL0     C 9847  -0.912   4.787   0.582 -0.2648  0.9280 -0.5719
  833MOL0     O 9848  -0.931   4.710   0.466 -0.6685 -0.2393 -0.6361
  833MOL0     C 9849  -0.998   4.590   0.470 -0.4014  0.5537  0.0729
  833MOL0     C 9850  -1.084   4.570   0.365 -0.2014  0.3393 -1.0005
  833MOL0     C 9851  -1.169   4.463   0.361  0.6801  0.9636  0.4096
  833MOL0     C 9852  -1.183   4.371   0.470  0.1325  0.9896 -0.0638
  833MOL0     C 9853  -1.289   4.260   0.477  0.5336  0.6731  0.1170
  833MOL0     O 9854  -1.363   4.263   0.367  0.0646  0.2044 -0.1341
  833MOL0     C 9855  -1.498   4.228   0.358 -0.3067  1.4279 -1.4038
  833MOL0     C 9856  -1.583   4.181   0.459  0.8767  0.0047  0.4705
  833MOL0     C 9857  -1.712   4.140   0.432 -0.0084 -1.1978  0.3269
  833MOL0     C 9858  -1.767   4.153   0.304  0.2765  0.4725  0.1584
  833MOL0     O 9859  -1.894   4.103   0.288  0.5057  0.7605 -0.3432
  833MOL0     C 9860  -2.001   4.197   0.279 -0.1825 -0.4615  0.5289
  833MOL0     C 9861  -2.098   4.192   0.399 -0.1660 -0.1070 -0.1381
  833MOL0     C 9862  -2.152   4.053   0.427 -0.7512 -0.2917  0.3068
  833MOL0     C 9863  -2.227   3.998   0.296 -0.0645 -0.1289  0.2085
  833MOL0     C 9864  -2.306   3.867   0.318 -0.0959 -0.1441  0.6962
  833MOL0     C 9865  -2.216   3.758   0.376 -0.3125  0.4760  0.9106
  833MOL0     C 9866  -2.275   3.618   0.350  0.5644  0.2793 -0.7686
  833MOL0     C 9867  -2.172   3.504   0.355  0.2002 -0.6378  0.9674
  833MOL0    Cl 9868  -2.096   3.481   0.517 -0.1361  0.1034 -0.2657
  833MOL0     C 9869  -1.686   4.209   0.197  0.1090  0.2215 -1.1487
  833MOL0     C 9870  -1.551   4.249   0.229 -0.2450 -0.8881  0.0078
  833MOL0     O 9871  -1.289   4.165   0.562 -0.0571 -0.3332  0.2477
  833MOL0     C 9872  -1.093   4.387   0.580 -0.3992  0.0055  0.2061
  833MOL0     C 9873  -1.005   4.502   0.577  0.2637 -0.3054  0.1628
  833MOL0     N 9874  -0.540   5.073   0.871 -0.2878 -0.3048 -0.8031
  833MOL0     N 9875  -0.432   5.147   0.869  0.0236 -0.3507 -0.0837
  833MOL0     C 9876   0.767   5.179   0.545  0.4508  0.1123  0.3274
  833MOL0     C 9877   0.883   5.129   0.491 -0.1081  0.8138  0.2560
  833MOL0     C 9878   1.346   5.125   0.457  0.4694  0.5542 -0.2465
  833MOL0     C 9879   1.461   5.203   0.466 -0.1628  1.1280  0.9373
  833MOL0     C 9880   1.574   5.161   0.391 -0.8558 -0.5031 -0.4541
  833MOL0     C 9881   1.583   5.038   0.325  0.1484  0.5739  0.1950
  833MOL0     O 9882   1.700   4.988   0.254  0.0967  0.1022  0.5524
  833MOL0     C 9883   1.830   5.062   0.266 -1.0000 -1.2555  0.2708
  833MOL0     C 9884   1.939   4.988   0.193 -0.2958 -0.7577  0.0307
  833MOL0     C 9885   2.075   5.053   0.211  0.0741  0.7415 -0.2698
  833MOL0     C 9886   2.176   4.993   0.114 -0.0926 -0.6798  0.6042
  833MOL0     C 9887   2.313   5.056   0.152  0.5324 -0.0822  0.7906
  833MOL0     C 9888   2.424   5.074   0.191  0.2708  0.4111  0.3912
  833MOL0     C 9889   1.464   4.955   0.322  0.6541  0.5407 -0.1656
  833MOL0     C 9890   1.341   4.999   0.392 -0.4661 -0.2413 -0.3899
  833MOL0     H 9891   1.072   5.162   0.770 -0.1171  3.7791 -0.3703
  833MOL0     H 9892   0.857   5.242   0.861  2.1866 -1.2784  1.1794
  833MOL0     H 9893   0.682   5.364   0.897  2.7681 -2.5152  2.0379
  833MOL0     H 9894   0.623   5.190   0.896 -1.8612 -1.4154 -1.5175
  833MOL0     H 9895   0.436   5.416   0.818 -1.3903 -1.0112 -0.9359
  833MOL0     H 9896   0.459   5.367   0.991 -1.5784  0.7411 -0.2476
  833MOL0     H 9897   0.389   5.153   0.940 -0.2007 -0.0812  2.5060
  833MOL0     H 9898   0.364   5.190   0.769  0.1491  1.6328 -0.6995
  833MOL0     H 9899   0.230   5.359   0.986  1.9313  2.3468 -0.9835
  833MOL0     H 9900   0.223   5.383   0.821 -1.0833  0.8346  0.6508
  833MOL0     H 9901   0.093   5.159   0.957  2.0791  0.3246  0.0655
  833MOL0     H 9902   0.106   5.165   0.777  0.6713 -0.4259  0.1924
  833MOL0     H 9903  -0.036   5.375   0.781  0.5299  0.3995  0.4560
  833MOL0     H 9904  -0.021   5.399   0.947  1.6934  0.3877  0.5908
  833MOL0     H 9905  -0.163   5.200   1.000  3.4561 -0.1827  0.7140
  833MOL0     H 9906  -0.224   5.330   0.890  1.0781  0.8194 -2.4871
  833MOL0     H 9907  -0.115   5.047   0.803 -0.0505  0.3144 -2.0881
  833MOL0     H 9908  -0.170   5.169   0.698 -1.8481  2.2732  0.0615
  833MOL0     H 9909  -0.308   4.867   0.754  0.2968 -1.2410  2.7853
  833MOL0     H 9910  -0.633   4.787   0.876 -1.0605  1.6755  0.6655
  833MOL0     H 9911  -0.519   4.763   0.744  4.0216  2.8173 -0.2351
  833MOL0     H 9912  -0.663   4.932   0.617  0.2178 -0.9478 -0.7838
  833MOL0     H 9913  -0.763   4.948   0.762 -3.5355  0.9677 -3.4313
  833MOL0     H 9914  -0.711   4.702   0.574 -0.5682  3.0528 -1.9963
  833MOL0     H 9915  -0.783   4.680   0.734 -0.0608 -2.3303 -1.5933
  833MOL0     H 9916  -0.920   4.890   0.546 -3.9917  0.2662 -2.1136
  833MOL0     H 9917  -0.995   4.777   0.653 -1.5205  1.5440 -1.9055
  833MOL0     H 9918  -1.089   4.639   0.281  1.5240  0.7225 -0.8342
  833MOL0     H 9919  -1.230   4.454   0.271  1.5417 -2.4013  0.0085
  833MOL0     H 9920  -1.541   4.159   0.556  0.8130  0.2595  0.5569
  833MOL0     H 9921  -1.784   4.090   0.496 -1.0849  1.7777  1.6356
  833MOL0     H 9922  -2.047   4.172   0.184  0.9560 -0.2891 -0.0888
  833MOL0     H 9923  -1.962   4.298   0.260 -2.4556  0.1225 -1.4600
  833MOL0     H 9924  -2.177   4.263   0.376  0.3562  1.3847  2.2767
  833MOL0     H 9925  -2.052   4.230   0.491 -1.5543 -0.5737  0.7684
  833MOL0     H 9926  -2.209   4.057   0.520  0.9074  1.4712  1.3266
  833MOL0     H 9927  -2.066   3.992   0.453 -0.3490 -1.4658 -3.2867
  833MOL0     H 9928  -2.300   4.073   0.265  2.3651  2.0041 -0.8378
  833MOL0     H 9929  -2.156   3.986   0.214  1.1794 -2.2642  1.5003
  833MOL0     H 9930  -2.328   3.837   0.215  1.8437 -2.2186  0.8125
  833MOL0     H 9931  -2.402   3.892   0.363 -0.2141  0.5716  0.0835
  833MOL0     H 9932  -2.188   3.769   0.481 -2.1766 -1.7805  1.7244
  833MOL0     H 9933  -2.116   3.758   0.332 -0.4570  0.0811  0.5806
  833MOL0     H 9934  -2.343   3.609   0.436 -2.3930 -0.9111 -3.0573
  833MOL0     H 9935  -2.341   3.602   0.264 -1.1276  1.8728  0.1423
  833MOL0     H 9936  -2.088   3.539   0.295  0.0406 -2.0753 -0.1732
  833MOL0     H 9937  -2.213   3.408   0.321  0.1380 -0.5948  0.9223
  833MOL0     H 9938  -1.735   4.212   0.101 -1.1236  1.3469 -0.5134
  833MOL0     H 9939  -1.489   4.286   0.148  0.9430 -2.4623  0.1459
  833MOL0     H 9940  -1.103   4.323   0.667  3.4114 -1.2679 -0.1009
  833MOL0     H 9941  -0.953   4.526   0.669 -0.1893  2.1454 -0.1287
  833MOL0     H 9942   0.672   5.187   0.494  0.6959 -0.4489 -0.2174
  833MOL0     H 9943   0.866   5.092   0.390 -4.0689  0.4242  0.8915
  833MOL0     H 9944   1.450   5.299   0.516 -2.2646  0.5100  1.7835
  833MOL0     H 9945   1.661   5.225   0.386 -1.4904  0.2936 -2.5716
  833MOL0     H 9946   1.842   5.071   0.375 -2.6857  1.8353  0.3084
  833MOL0     H 9947   1.819   5.166   0.236  0.5761 -1.1090  0.0873
  833MOL0     H 9948   1.932   4.885   0.229 -2.0323  0.2574  2.9374
  833MOL0     H 9949   1.920   4.981   0.085  1.6526 -0.8601 -0.3317
  833MOL0     H 9950   2.105   5.038   0.316 -3.7874 -1.8907  0.6655
  833MOL0     H 9951   2.069   5.160   0.188 -1.4469  0.5619 -0.8061
  833MOL0     H 9952   2.162   4.885   0.123 -1.2787 -0.4017  2.8330
  833MOL0     H 9953   2.149   5.019   0.011 -0.9273  0.5236  1.1054
  833MOL0     H 9954   2.525   5.092   0.221  0.9699  2.2326 -2.6214
  833MOL0     H 9955   1.448   4.857   0.277 -1.3674  0.3983  0.7834
  833MOL0     H 9956   1.249   4.941   0.392 -1.2744  1.0244 -0.2388
  834MOL0     O 9957   5.048   9.497   4.204 -0.1189 -0.1216  0.1419
  834MOL0     C 9958   5.153   9.437   4.173 -0.2797 -1.0889 -0.1826
  834MOL0     O 9959   5.182   9.308   4.197  0.1056 -0.0006  0.0308
  834MOL0     C 9960   5.066   9.233   4.211  0.5378  1.0348  0.0622
  834MOL0     C 9961   5.014   9.216   4.342  0.1557  0.3807 -0.2086
  834MOL0     C 9962   4.897   9.144   4.358 -0.0258 -0.5864  0.0615
  834MOL0     C 9963   4.834   9.077   4.247 -0.5159  0.4429  0.5490
  834MOL0     O 9964   4.723   8.999   4.258 -0.1976 -0.2792  0.2838
  834MOL0     C 9965   4.655   9.002   4.384  0.1257  0.1798  1.1886
  834MOL0     C 9966   4.535   8.925   4.360  0.0014  0.0712  0.0867
  834MOL0     C 9967   4.430   8.932   4.477 -0.2940 -0.3505 -0.2303
  834MOL0     C 9968   4.302   8.841   4.447  0.1800 -0.4513  0.8455
  834MOL0     C 9969   4.190   8.877   4.559  0.8213  1.0225 -0.1049
  834MOL0     C 9970   4.040   8.828   4.524  0.1092 -0.7835  0.3542
  834MOL0     C 9971   4.040   8.682   4.491  0.1472  0.2457 -0.5677
  834MOL0     C 9972   3.889   8.628   4.491 -0.3336 -0.4914 -0.8711
  834MOL0     N 9973   3.881   8.499   4.555  0.6785  0.7196 -0.7907
  834MOL0     C 9974   3.798   8.464   4.656 -0.6114 -0.4589  0.1051
  834MOL0     C 9975   3.812   8.329   4.663 -0.2754 -0.0058 -0.3432
  834MOL0     C 9976   3.743   8.240   4.764 -0.5454  0.1227 -0.6940
  834MOL0     C 9977   3.783   8.284   4.902  0.2805 -0.4092 -0.0566
  834MOL0     C 9978   3.897   8.216   4.968 -0.1337 -0.0122  0.1143
  834MOL0     C 9979   3.938   8.293   5.106 -0.0745 -0.7567 -0.3264
  834MOL0     O 9980   3.988   8.424   5.089  0.2860  0.3926  0.3444
  834MOL0     C 9981   4.115   8.416   5.028  0.5896  0.1574 -0.2495
  834MOL0     C 9982   4.125   8.467   4.898 -0.3593 -0.0630  0.6047
  834MOL0     C 9983   4.248   8.485   4.828  0.0555  0.3647 -0.3183
  834MOL0     C 9984   4.370   8.469   4.901 -0.0071 -0.4343  0.2287
  834MOL0     C 9985   4.499   8.511   4.848  0.3141 -0.4108 -0.0096
  834MOL0     O 9986   4.504   8.578   4.723 -0.2201 -0.5181 -0.1552
  834MOL0     C 9987   4.620   8.629   4.674  0.4235 -1.0346 -0.8795
  834MOL0     C 9988   4.648   8.631   4.536 -0.5140  0.1359 -0.0174
  834MOL0     C 9989   4.763   8.691   4.486 -0.0298 -0.0420 -0.4408
  834MOL0     C 9990   4.857   8.749   4.571 -0.4293  0.2889  0.6982
  834MOL0     O 9991   4.978   8.793   4.526  0.6518 -0.0185 -0.5022
  834MOL0     C 9992   5.019   8.789   4.390  0.4718 -0.0969 -0.0761
  834MOL0     C 9993   5.149   8.884   4.376  0.0498 -0.3574  0.6697
  834MOL0     C 9994   5.257   8.857   4.479 -0.5276 -0.5681 -0.4378
  834MOL0     C 9995   5.399   8.901   4.421  0.3966  0.5303 -0.2636
  834MOL0     C 9996   5.422   9.049   4.400 -0.4810  0.5122 -0.3151
  834MOL0     C 9997   5.571   9.095   4.385  0.5788  0.4546 -0.5736
  834MOL0     C 9998   5.562   9.238   4.346  0.4133 -0.5743 -0.2619
  834MOL0     C 9999   5.697   9.308   4.356 -0.0275 -0.2491 -0.5563
  834MOL0    Cl10000   5.810   9.241   4.238 -0.1488  0.4539 -0.0634
  834MOL0     C10001   4.822   8.767   4.707  0.4370 -0.4411  0.0427
  834MOL0     C10002   4.704   8.709   4.758 -0.0817  0.3853 -0.2087
  834MOL0     O10003   4.598   8.475   4.908 -0.5393  0.7060 -0.2094
  834MOL0     C10004   4.359   8.425   5.039 -0.0117 -0.4795 -0.3371
  834MOL0     C10005   4.235   8.402   5.095 -0.0257 -0.7321  0.2427
  834MOL0     N10006   3.890   8.283   4.565  0.8020 -0.3169  0.3481
  834MOL0     N10007   3.944   8.388   4.498  0.3561 -0.2360 -0.4411
  834MOL0     C10008   4.896   9.082   4.119 -0.2379 -0.4276 -0.7058
  834MOL0     C10009   5.008   9.169   4.096 -0.3960  0.0981 -0.0050
  834MOL0     C10010   5.280   9.517   4.130 -0.2190  0.5075 -0.4208
  834MOL0     C10011   5.393   9.459   4.059 -0.8811 -0.2509 -0.4547
  834MOL0     C10012   5.505   9.535   4.023 -1.1947 -0.3368 -0.3417
  834MOL0     C10013   5.509   9.668   4.054 -0.1114 -0.3518 -0.3460
  834MOL0     O10014   5.611   9.747   4.015  0.2407 -0.7327 -0.1676
  834MOL0     C10015   5.747   9.703   4.037  0.5580 -0.5278  0.2116
  834MOL0     C10016   5.825   9.675   3.898  0.0447  0.0188  0.0767
  834MOL0     C10017   5.967   9.603   3.912 -0.1550 -0.5035 -0.1582
  834MOL0     C10018   6.015   9.571   3.776  1.1452  0.7204 -0.5870
  834MOL0     C10019   6.154   9.531   3.767 -0.8563 -0.7418 -0.2211
  834MOL0     C10020   6.267   9.502   3.743  0.2437 -0.3928  0.3077
  834MOL0     C10021   5.403   9.731   4.117 -0.0207 -0.4425  0.2861
  834MOL0     C10022   5.295   9.655   4.168 -0.1665 -0.2940 -0.3680
  834MOL0     H10023   5.060   9.266   4.427 -1.9981  1.9261  0.1378
  834MOL0     H10024   4.850   9.135   4.455 -0.2680  1.7797  0.2278
  834MOL0     H10025   4.622   9.105   4.403 -5.5087 -0.3895 -2.9160
  834MOL0     H10026   4.708   8.954   4.467 -0.2520 -2.2207  0.1389
  834MOL0     H10027   4.564   8.821   4.341  1.5330  0.4682  0.0730
  834MOL0     H10028   4.485   8.961   4.270  0.6406  2.1011  0.4878
  834MOL0     H10029   4.399   9.036   4.496 -1.4634 -0.8529  0.7444
  834MOL0     H10030   4.489   8.900   4.563  1.3413  1.6227 -0.5409
  834MOL0     H10031   4.271   8.879   4.350  0.3480 -2.5254 -0.0806
  834MOL0     H10032   4.326   8.734   4.439  1.8565 -0.0054 -0.9482
  834MOL0     H10033   4.174   8.984   4.569 -3.3519  0.7792 -2.3535
  834MOL0     H10034   4.232   8.841   4.654 -0.1965  4.7893  1.9475
  834MOL0     H10035   4.001   8.876   4.434  0.0607 -3.0451 -0.9045
  834MOL0     H10036   3.975   8.859   4.607 -0.0414 -0.5842  0.1626
  834MOL0     H10037   4.093   8.668   4.397  1.1248 -1.9803  0.2495
  834MOL0     H10038   4.104   8.620   4.554 -0.5686 -0.5524 -0.6079
  834MOL0     H10039   3.865   8.618   4.385  0.1860 -1.5841 -0.8976
  834MOL0     H10040   3.823   8.701   4.539 -0.6086 -1.1364 -0.2601
  834MOL0     H10041   3.735   8.527   4.718  0.1182 -1.4279  1.8997
  834MOL0     H10042   3.791   8.142   4.765 -0.2331  0.2733  0.1127
  834MOL0     H10043   3.635   8.228   4.750 -0.4193  0.1013 -1.7097
  834MOL0     H10044   3.696   8.267   4.966  1.8751  1.0795  2.7018
  834MOL0     H10045   3.799   8.392   4.900 -2.2616  0.0173 -1.9815
  834MOL0     H10046   3.887   8.108   4.980 -0.7259 -0.3744 -2.8870
  834MOL0     H10047   3.974   8.216   4.891  1.0700  1.7260  1.2353
  834MOL0     H10048   4.016   8.235   5.157 -1.7499 -4.0153 -1.1922
  834MOL0     H10049   3.851   8.299   5.172 -0.6576  0.2026 -1.1561
  834MOL0     H10050   4.035   8.483   4.839 -1.1068 -3.6212  0.5447
  834MOL0     H10051   4.254   8.514   4.724  0.0435  1.6313  0.0233
  834MOL0     H10052   4.578   8.596   4.461  0.1526  0.8020 -0.9715
  834MOL0     H10053   4.783   8.700   4.380 -2.4860 -1.6371 -1.1047
  834MOL0     H10054   4.945   8.839   4.327  0.3539  0.2156  0.3072
  834MOL0     H10055   5.036   8.687   4.357 -1.2099  0.1879 -1.9750
  834MOL0     H10056   5.119   8.989   4.370 -0.8573 -0.6916 -2.8223
  834MOL0     H10057   5.186   8.862   4.275  3.2554  1.9677  1.1733
  834MOL0     H10058   5.267   8.749   4.491 -0.4106 -0.3795  1.4093
  834MOL0     H10059   5.242   8.906   4.576 -0.1998 -1.0795 -0.1254
  834MOL0     H10060   5.474   8.872   4.495 -2.0855 -2.6237  1.2841
  834MOL0     H10061   5.434   8.850   4.331  2.8534  2.5103 -0.5261
  834MOL0     H10062   5.376   9.103   4.483 -2.8775 -3.0076  0.8818
  834MOL0     H10063   5.364   9.078   4.312 -2.8757 -1.1720  0.6119
  834MOL0     H10064   5.635   9.043   4.312  2.0095  2.4396 -0.8373
  834MOL0     H10065   5.616   9.102   4.485 -0.2877  1.9916 -0.2606
  834MOL0     H10066   5.512   9.240   4.249 -1.2546 -1.2152  0.5265
  834MOL0     H10067   5.492   9.293   4.409  2.3670 -1.1192  2.5751
  834MOL0     H10068   5.731   9.300   4.460  1.1376 -1.8955 -1.0125
  834MOL0     H10069   5.685   9.414   4.333 -2.8339 -0.3956 -0.1476
  834MOL0     H10070   4.876   8.829   4.778 -1.5898 -0.6942  1.9199
  834MOL0     H10071   4.693   8.717   4.865  3.2799  0.2776  0.2457
  834MOL0     H10072   4.450   8.425   5.100  1.1777 -4.5163 -1.7574
  834MOL0     H10073   4.227   8.364   5.196 -0.1458 -0.1531  0.4520
  834MOL0     H10074   4.865   9.024   4.033 -0.6753  0.4463 -1.1551
  834MOL0     H10075   5.039   9.184   3.993  0.2204  1.7440  0.3921
  834MOL0     H10076   5.394   9.351   4.041 -2.4298 -0.2947 -0.4494
  834MOL0     H10077   5.590   9.479   3.985 -1.6831 -1.0246 -0.4447
  834MOL0     H10078   5.741   9.612   4.098  1.5500 -1.4300 -1.0004
  834MOL0     H10079   5.798   9.780   4.096  0.2283 -0.5563  0.5444
  834MOL0     H10080   5.760   9.611   3.838 -0.1939 -0.1348  0.4909
  834MOL0     H10081   5.824   9.763   3.832 -1.3473 -2.4128 -3.4335
  834MOL0     H10082   5.948   9.507   3.960 -2.9374 -0.0612 -0.2339
  834MOL0     H10083   6.034   9.657   3.980  0.4594 -1.5101  0.0606
  834MOL0     H10084   5.948   9.491   3.744 -0.6587  0.9642  2.2647
  834MOL0     H10085   6.006   9.662   3.716 -0.8704  0.2157 -1.0999
  834MOL0     H10086   6.368   9.471   3.725  2.2934  4.5911  1.5770
  834MOL0     H10087   5.415   9.837   4.134 -0.3934 -0.3884  0.2233
  834MOL0     H10088   5.220   9.716   4.219  1.0791  0.7161  0.3140
  835MOL0     O10089   7.869   3.083   6.241 -0.9910  0.6733 -0.2142
  835MOL0     C10090   7.928   3.173   6.301  0.3263 -0.0692  0.0333
  835MOL0     O10091   7.860   3.255   6.367  0.6141 -0.6014 -0.3360
  835MOL0     C10092   7.725   3.231   6.397  0.1136  0.7142  0.2172
  835MOL0     C10093   7.687   3.186   6.522 -1.3214  0.4178 -1.0163
  835MOL0     C10094   7.553   3.141   6.543 -0.1862  0.6010  0.4842
  835MOL0     C10095   7.457   3.137   6.445  0.1104 -0.4713  0.3589
  835MOL0     O10096   7.335   3.084   6.480  0.2037  0.1196 -0.0554
  835MOL0     C10097   7.221   3.167   6.448 -0.0815 -0.3562  0.6051
  835MOL0     C10098   7.103   3.102   6.519  0.1123 -0.1596  0.4412
  835MOL0     C10099   6.980   3.164   6.460  1.3547 -0.0192 -0.2558
  835MOL0     C10100   6.847   3.151   6.541 -0.5378  0.2942 -0.0562
  835MOL0     C10101   6.722   3.234   6.494 -0.6887  0.5350 -1.1058
  835MOL0     C10102   6.695   3.242   6.347  0.9004  0.4665 -0.7792
  835MOL0     C10103   6.630   3.105   6.308  0.0613  0.6974 -0.2647
  835MOL0     C10104   6.602   3.089   6.160 -0.1307 -0.2063  0.6180
  835MOL0     N10105   6.726   3.095   6.087  0.7950  0.9712  0.3303
  835MOL0     C10106   6.827   2.999   6.090 -0.3910  0.2399  0.0228
  835MOL0     C10107   6.927   3.055   6.019 -0.3054  0.2450 -0.1135
  835MOL0     C10108   7.064   3.008   5.987 -0.1249  0.5272  0.2468
  835MOL0     C10109   7.157   2.965   6.100  1.0286 -0.4645 -1.0015
  835MOL0     C10110   7.237   2.835   6.080  0.2534  0.7392  0.7345
  835MOL0     C10111   7.336   2.810   6.192 -0.3770 -0.1573 -0.6163
  835MOL0     O10112   7.387   2.671   6.173 -0.4347  0.0046 -0.4359
  835MOL0     C10113   7.517   2.637   6.223 -0.2662  0.1951  0.2828
  835MOL0     C10114   7.572   2.514   6.187  0.1871  0.4390 -0.0979
  835MOL0     C10115   7.703   2.477   6.222 -0.0893 -0.2234  0.0158
  835MOL0     C10116   7.785   2.561   6.294 -0.0040  0.2975  0.3777
  835MOL0     C10117   7.917   2.521   6.331  0.8677  0.4228  0.2231
  835MOL0     O10118   8.011   2.619   6.355  0.0390 -0.2427  0.8231
  835MOL0     C10119   8.146   2.592   6.346  0.3592  0.5335  0.6125
  835MOL0     C10120   8.229   2.703   6.318 -0.0632 -1.3022  0.3713
  835MOL0     C10121   8.366   2.688   6.287 -0.5411 -0.4519 -0.4764
  835MOL0     C10122   8.432   2.567   6.305 -0.1094  0.3767  0.1739
  835MOL0     O10123   8.560   2.554   6.256 -0.0111 -0.1886  0.2772
  835MOL0     C10124   8.659   2.592   6.354  0.1663  0.0115  0.2603
  835MOL0     C10125   8.710   2.466   6.424  0.7156  0.7286  0.6402
  835MOL0     C10126   8.795   2.369   6.350  1.0459  1.1848  0.3463
  835MOL0     C10127   8.841   2.246   6.431  0.2039 -0.2990 -0.6630
  835MOL0     C10128   8.946   2.159   6.351  0.6857  0.4756 -0.1351
  835MOL0     C10129   9.088   2.205   6.341 -0.5757 -0.3295  0.2094
  835MOL0     C10130   9.167   2.236   6.468  0.2718 -0.3736 -0.2076
  835MOL0     C10131   9.309   2.295   6.442 -0.4936 -0.5495 -0.4082
  835MOL0    Cl10132   9.386   2.335   6.611 -0.0128  0.4756 -0.0929
  835MOL0     C10133   8.355   2.454   6.346  0.2985 -0.0270  0.7724
  835MOL0     C10134   8.213   2.471   6.365 -0.5539  0.0691  0.7962
  835MOL0     O10135   7.936   2.397   6.343  0.1761 -0.4768 -0.9706
  835MOL0     C10136   7.732   2.685   6.327  0.0657 -0.5123 -0.0197
  835MOL0     C10137   7.601   2.727   6.294  0.6334  0.3471  0.2961
  835MOL0     N10138   6.887   3.182   5.975  0.4113  0.0463 -0.0798
  835MOL0     N10139   6.770   3.203   6.023 -0.3030  0.3102  0.5384
  835MOL0     C10140   7.488   3.192   6.318 -0.0629 -1.2981 -1.1127
  835MOL0     C10141   7.621   3.233   6.293 -0.7690 -0.8844  0.6163
  835MOL0     C10142   8.071   3.177   6.311  0.3559  0.2984 -0.3760
  835MOL0     C10143   8.131   3.264   6.407 -0.7499 -0.2666 -0.4937
  835MOL0     C10144   8.266   3.245   6.449  0.3695 -0.7286 -0.7352
  835MOL0     C10145   8.346   3.146   6.395 -0.5048  0.1521 -0.5575
  835MOL0     O10146   8.473   3.163   6.437 -0.8711 -0.4041 -0.7762
  835MOL0     C10147   8.545   3.039   6.446  0.0488 -0.3106  1.6088
  835MOL0     C10148   8.688   3.079   6.488 -0.1140 -0.5228 -0.2122
  835MOL0     C10149   8.781   2.961   6.483 -0.6587 -0.7232 -0.1622
  835MOL0     C10150   8.824   2.916   6.631  0.3420  0.7741  0.5514
  835MOL0     C10151   8.876   2.780   6.628  0.0661 -0.7473 -1.0176
  835MOL0     C10152   8.908   2.665   6.637 -0.2154 -0.3795  0.8070
  835MOL0     C10153   8.292   3.066   6.286  0.4543 -0.0949 -0.3311
  835MOL0     C10154   8.156   3.087   6.247 -0.4513  0.3958  0.1925
  835MOL0     H10155   7.768   3.182   6.594  1.1897 -0.5343 -3.7058
  835MOL0     H10156   7.524   3.107   6.642  3.4761  2.4071  2.3870
  835MOL0     H10157   7.208   3.172   6.340 -3.8892  1.5822  0.9841
  835MOL0     H10158   7.234   3.267   6.490 -0.8888  0.6281 -1.3680
  835MOL0     H10159   7.117   3.121   6.626 -0.8686  0.8584  0.4037
  835MOL0     H10160   7.098   2.994   6.502  0.1085 -0.5588  2.7611
  835MOL0     H10161   6.964   3.115   6.364  0.7748  0.1250 -0.2390
  835MOL0     H10162   7.007   3.270   6.451  1.7468 -0.1647 -0.8571
  835MOL0     H10163   6.821   3.045   6.542 -1.7156  0.5766  0.0300
  835MOL0     H10164   6.873   3.169   6.646 -1.0905 -0.1956  0.1722
  835MOL0     H10165   6.733   3.333   6.539  0.5759  0.6907 -1.6961
  835MOL0     H10166   6.640   3.182   6.544  2.9452 -3.4269  1.4187
  835MOL0     H10167   6.782   3.263   6.284 -0.7824  2.4637 -2.6073
  835MOL0     H10168   6.616   3.317   6.348 -2.0699 -2.4508 -0.9988
  835MOL0     H10169   6.688   3.014   6.326  0.2022  0.6814 -0.7879
  835MOL0     H10170   6.536   3.103   6.363  0.5246  1.4889  0.5920
  835MOL0     H10171   6.530   3.167   6.134 -0.0539 -0.8404 -1.7293
  835MOL0     H10172   6.546   2.997   6.136  1.3310 -0.5625 -1.7676
  835MOL0     H10173   6.833   2.907   6.148 -0.1746  1.0790  1.3710
  835MOL0     H10174   7.119   3.092   5.944  1.8019  0.4448  2.3777
  835MOL0     H10175   7.048   2.925   5.917  1.6321  0.9874 -0.7583
  835MOL0     H10176   7.101   2.952   6.193 -1.5275 -0.0007 -2.3947
  835MOL0     H10177   7.225   3.049   6.119 -0.3089  0.2547  1.0228
  835MOL0     H10178   7.171   2.748   6.082  3.3906 -1.8381  0.6704
  835MOL0     H10179   7.285   2.836   5.981 -0.8744  0.0597  0.1565
  835MOL0     H10180   7.289   2.811   6.290  0.1417  0.5663 -0.3700
  835MOL0     H10181   7.405   2.895   6.189 -0.6923  0.1439  0.3064
  835MOL0     H10182   7.504   2.466   6.118 -0.9574  1.2899  0.4002
  835MOL0     H10183   7.744   2.380   6.193  1.9417  0.5044  0.2720
  835MOL0     H10184   8.169   2.792   6.304  0.5391 -1.0344 -0.6556
  835MOL0     H10185   8.418   2.776   6.252 -0.1256 -1.2392 -1.9334
  835MOL0     H10186   8.616   2.653   6.434 -1.3538 -1.1665  0.3944
  835MOL0     H10187   8.744   2.645   6.311  1.6154  2.0634  5.0589
  835MOL0     H10188   8.617   2.414   6.452 -0.3483  1.1545 -1.8725
  835MOL0     H10189   8.760   2.495   6.517  3.0292 -1.2248  0.1010
  835MOL0     H10190   8.887   2.427   6.338  0.9877  1.4531  1.1297
  835MOL0     H10191   8.747   2.338   6.257  0.7016 -2.6074  1.6240
  835MOL0     H10192   8.879   2.281   6.528  0.3970  2.2990 -1.6059
  835MOL0     H10193   8.754   2.182   6.451 -1.3230  1.8675  0.0016
  835MOL0     H10194   8.908   2.161   6.249  2.0355  3.2534 -0.6814
  835MOL0     H10195   8.954   2.055   6.386 -0.6868  0.3064 -0.2756
  835MOL0     H10196   9.076   2.301   6.289  2.8024  1.7716  2.8599
  835MOL0     H10197   9.154   2.145   6.278  0.9789  0.6526  0.8496
  835MOL0     H10198   9.118   2.303   6.539  3.1627  0.7954  0.8209
  835MOL0     H10199   9.178   2.141   6.522  3.5616 -0.2303 -0.4341
  835MOL0     H10200   9.303   2.380   6.374  4.1664 -0.3541 -0.9385
  835MOL0     H10201   9.377   2.233   6.381  0.5019  1.6210 -1.6216
  835MOL0     H10202   8.395   2.354   6.348  1.3278  0.3593  0.4302
  835MOL0     H10203   8.166   2.375   6.380  2.0737 -1.4436  0.0202
  835MOL0     H10204   7.797   2.758   6.375 -1.3160  1.2275 -0.6586
  835MOL0     H10205   7.577   2.831   6.311 -0.0589  0.5639 -1.6985
  835MOL0     H10206   7.402   3.195   6.252 -1.5945 -2.6483  0.6974
  835MOL0     H10207   7.645   3.266   6.192  0.9117 -0.5862  1.0783
  835MOL0     H10208   8.061   3.321   6.468 -1.8684 -1.5446 -0.5320
  835MOL0     H10209   8.304   3.300   6.534 -2.6752  1.1430 -0.4197
  835MOL0     H10210   8.561   3.009   6.342  1.5727 -0.6532  1.9121
  835MOL0     H10211   8.512   2.956   6.508  0.8872 -4.3749 -2.7828
  835MOL0     H10212   8.722   3.161   6.424 -1.4632 -1.7728 -2.6867
  835MOL0     H10213   8.675   3.123   6.587 -3.7680 -0.1329 -0.7171
  835MOL0     H10214   8.873   2.971   6.426 -1.6997 -1.5048 -2.0589
  835MOL0     H10215   8.729   2.880   6.431  1.2286 -3.4481  1.8605
  835MOL0     H10216   8.896   2.984   6.679  1.6897 -0.3884  0.2412
  835MOL0     H10217   8.731   2.913   6.689 -0.7064 -1.9642 -1.1163
  835MOL0     H10218   8.938   2.563   6.650 -1.9706 -1.0258  0.1546
  835MOL0     H10219   8.352   2.998   6.228  0.9870 -0.7952  0.9853
  835MOL0     H10220   8.116   3.021   6.170  1.0160  0.0319 -0.2871
  836MOL0     O10221  11.190   3.917   3.083  0.1864  0.2493  0.4840
  836MOL0     C10222  11.220   3.867   3.191 -0.1399  0.6013 -0.0900
  836MOL0     O10223  11.133   3.798   3.268 -0.6355 -0.0950 -0.1368
  836MOL0     C10224  10.998   3.828   3.253  0.6009  0.0085 -0.3261
  836MOL0     C10225  10.917   3.750   3.173  0.3407  0.3791 -0.2363
  836MOL0     C10226  10.784   3.784   3.154  0.8821  0.3832  0.3912
  836MOL0     C10227  10.728   3.886   3.239  0.7164  0.3901  0.2758
  836MOL0     O10228  10.599   3.938   3.243  0.5032  0.1417 -0.6840
  836MOL0     C10229  10.482   3.861   3.198 -1.0326  0.2794 -0.2139
  836MOL0     C10230  10.366   3.947   3.238 -0.0294 -0.0313 -0.4492
  836MOL0     C10231  10.236   3.882   3.193 -0.7136  0.2508  0.0988
  836MOL0     C10232  10.113   3.961   3.250 -0.8202 -0.4133  0.2299
  836MOL0     C10233   9.971   3.893   3.232  0.0585 -0.0576 -0.8727
  836MOL0     C10234   9.864   3.958   3.320  0.9188 -0.1713 -0.1497
  836MOL0     C10235   9.829   4.096   3.270 -0.5335 -0.5307  0.1059
  836MOL0     C10236   9.715   4.173   3.340  0.2569  1.0130  0.5132
  836MOL0     N10237   9.577   4.135   3.296  0.0520  0.0999  0.1946
  836MOL0     C10238   9.505   4.165   3.184  0.3181 -0.0664  0.3176
  836MOL0     C10239   9.393   4.080   3.183 -0.0627 -0.1272 -0.6426
  836MOL0     C10240   9.284   4.075   3.092  0.7107  0.5575  0.4688
  836MOL0     C10241   9.145   4.010   3.136  0.0388 -0.8596  0.6041
  836MOL0     C10242   9.037   4.046   3.040 -0.3029 -0.0972 -0.3131
  836MOL0     C10243   8.906   4.001   3.092 -0.1550 -0.2233  0.5606
  836MOL0     O10244   8.834   4.085   3.174  0.3845 -0.1326 -0.2029
  836MOL0     C10245   8.718   4.026   3.216 -0.1977 -0.8009 -0.9625
  836MOL0     C10246   8.698   4.004   3.348  0.3630  0.3120 -0.2023
  836MOL0     C10247   8.571   3.947   3.378  0.7618  0.3651  0.5076
  836MOL0     C10248   8.464   3.935   3.287  0.8611  0.7506  0.4522
  836MOL0     C10249   8.334   3.886   3.352 -0.3909 -0.6808 -0.0252
  836MOL0     O10250   8.338   3.821   3.472 -0.5889  0.6171 -0.3499
  836MOL0     C10251   8.215   3.785   3.520 -0.3661 -0.6257 -0.6165
  836MOL0     C10252   8.126   3.878   3.568  1.0174  0.1993  1.8693
  836MOL0     C10253   8.008   3.833   3.637 -0.1303  1.6966 -0.4724
  836MOL0     C10254   7.981   3.694   3.655 -0.1993 -0.4486  0.7325
  836MOL0     O10255   7.860   3.643   3.679  0.1450  0.2311 -0.3000
  836MOL0     C10256   7.746   3.735   3.674 -0.5462 -0.5514 -0.2260
  836MOL0     C10257   7.632   3.638   3.659  0.8631 -0.4078 -1.9360
  836MOL0     C10258   7.617   3.592   3.516  0.8434 -1.0830  0.0355
  836MOL0     C10259   7.502   3.485   3.488 -0.3894  0.4344  0.1257
  836MOL0     C10260   7.484   3.444   3.344  0.1706  0.2363 -0.0528
  836MOL0     C10261   7.479   3.562   3.243 -0.1498  0.2906  0.6793
  836MOL0     C10262   7.440   3.515   3.088 -0.1940  0.2633 -0.4081
  836MOL0     C10263   7.288   3.500   3.076  0.0731  0.0557  0.2153
  836MOL0    Cl10264   7.194   3.652   3.097  0.0915  0.1436  0.5175
  836MOL0     C10265   8.078   3.605   3.622  0.9510  0.4684 -0.1234
  836MOL0     C10266   8.189   3.649   3.548  0.0661  0.0898  0.1822
  836MOL0     O10267   8.236   3.907   3.281 -0.4399 -0.1337 -0.3480
  836MOL0     C10268   8.486   3.952   3.152 -0.0854  1.0326  0.4781
  836MOL0     C10269   8.620   4.003   3.122  0.1530  0.3971 -1.0759
  836MOL0     N10270   9.417   3.999   3.285  0.3692 -0.4508 -0.3464
  836MOL0     N10271   9.518   4.028   3.357  0.3737 -0.1382 -0.3196
  836MOL0     C10272  10.808   3.956   3.328 -0.3867 -0.4085 -0.2623
  836MOL0     C10273  10.944   3.932   3.325 -0.1248  0.2092 -0.3917
  836MOL0     C10274  11.367   3.879   3.225 -0.4782 -0.0513 -0.6692
  836MOL0     C10275  11.407   3.864   3.363  0.4167 -0.0931  0.7176
  836MOL0     C10276  11.541   3.845   3.404  0.0580  0.3635 -0.2103
  836MOL0     C10277  11.641   3.855   3.306 -0.0876 -0.3458  0.1028
  836MOL0     O10278  11.773   3.861   3.327 -0.6473 -0.0813 -0.7769
  836MOL0     C10279  11.824   3.736   3.392  0.5032 -0.6973  0.6237
  836MOL0     C10280  11.975   3.730   3.427  0.9902  0.2681 -0.7788
  836MOL0     C10281  12.009   3.587   3.474  0.5053 -0.1186  0.9833
  836MOL0     C10282  12.165   3.567   3.480 -0.2156 -0.1948  0.4617
  836MOL0     C10283  12.228   3.673   3.558 -0.2945  0.6327  0.7924
  836MOL0     C10284  12.249   3.769   3.634  0.4759  0.1917  0.6100
  836MOL0     C10285  11.608   3.884   3.176  0.2329 -0.0739  0.3545
  836MOL0     C10286  11.475   3.886   3.132  0.2179 -0.3633  0.1911
  836MOL0     H10287  10.958   3.677   3.104  0.4530 -0.4852  0.7076
  836MOL0     H10288  10.735   3.732   3.073  0.5831  1.4758 -0.1447
  836MOL0     H10289  10.460   3.764   3.244 -3.1486  0.9898  0.3554
  836MOL0     H10290  10.491   3.835   3.092  2.2610 -1.7419  0.4017
  836MOL0     H10291  10.378   4.039   3.180  0.4415  0.6995  0.7702
  836MOL0     H10292  10.370   3.952   3.347  1.0406 -1.2855 -0.4042
  836MOL0     H10293  10.238   3.785   3.243  0.8483  1.6189  2.9381
  836MOL0     H10294  10.217   3.874   3.086 -4.4582  0.1594  0.6472
  836MOL0     H10295  10.127   3.974   3.357 -0.8864 -1.1807  0.3368
  836MOL0     H10296  10.112   4.065   3.218 -0.7730 -0.3506  0.4350
  836MOL0     H10297   9.977   3.798   3.286 -1.1641 -0.0510 -0.7001
  836MOL0     H10298   9.940   3.881   3.128 -1.3568 -2.6819 -0.2194
  836MOL0     H10299   9.894   3.967   3.425 -0.0288 -2.1491  0.3505
  836MOL0     H10300   9.772   3.898   3.317  0.4619  0.5375 -0.6204
  836MOL0     H10301   9.915   4.161   3.292 -0.2703 -0.6680 -0.5108
  836MOL0     H10302   9.803   4.096   3.164 -2.5744  0.2956  0.5553
  836MOL0     H10303   9.720   4.274   3.300  3.2025  1.1291  0.9914
  836MOL0     H10304   9.716   4.177   3.449  1.4540  2.1859  0.4747
  836MOL0     H10305   9.511   4.240   3.105 -4.4276  0.8168  0.5237
  836MOL0     H10306   9.324   4.017   3.009  2.1238  0.0653  1.4528
  836MOL0     H10307   9.259   4.174   3.053 -0.3482  0.1636  0.1357
  836MOL0     H10308   9.120   4.059   3.230  2.4234  1.4659  0.1488
  836MOL0     H10309   9.179   3.905   3.136  0.4768 -0.7367 -0.3703
  836MOL0     H10310   9.026   4.151   3.011 -0.0683 -0.3884 -1.5495
  836MOL0     H10311   9.056   3.987   2.950 -0.5713 -0.3322 -0.2137
  836MOL0     H10312   8.905   3.895   3.121 -1.5679  0.5228  3.6670
  836MOL0     H10313   8.846   3.997   3.000  0.6451 -1.0150  0.0502
  836MOL0     H10314   8.779   4.020   3.419  0.8242 -0.4100 -0.5540
  836MOL0     H10315   8.547   3.950   3.484  0.6411 -1.4738  0.5570
  836MOL0     H10316   8.138   3.983   3.542 -0.0805 -0.3446 -1.3042
  836MOL0     H10317   7.947   3.914   3.676  0.1964  1.6019  0.2354
  836MOL0     H10318   7.737   3.805   3.591 -0.6200  0.4465  0.5953
  836MOL0     H10319   7.754   3.793   3.767 -0.0379 -1.7157  0.4771
  836MOL0     H10320   7.534   3.679   3.686  1.7034  0.5033 -0.0131
  836MOL0     H10321   7.654   3.563   3.735  2.6874  2.3245  0.4466
  836MOL0     H10322   7.715   3.562   3.478  0.2278 -1.4764 -1.3362
  836MOL0     H10323   7.602   3.672   3.443  1.1109 -2.7260 -1.9121
  836MOL0     H10324   7.516   3.392   3.545 -0.9797 -0.3054 -0.9158
  836MOL0     H10325   7.410   3.529   3.527  0.5994  1.9991  0.7938
  836MOL0     H10326   7.388   3.392   3.334 -0.4199  1.5938 -2.2884
  836MOL0     H10327   7.557   3.373   3.304  0.5315  1.4679 -1.7169
  836MOL0     H10328   7.582   3.599   3.231 -1.0879  2.3661 -1.6830
  836MOL0     H10329   7.413   3.641   3.278  0.4424  1.3536 -0.5595
  836MOL0     H10330   7.470   3.581   3.007  0.5371 -0.2023 -0.5322
  836MOL0     H10331   7.485   3.417   3.069 -1.7495 -0.8401  1.2400
  836MOL0     H10332   7.248   3.432   3.151 -2.9014 -0.1473 -1.4281
  836MOL0     H10333   7.268   3.463   2.975 -2.3590 -0.8679  0.9787
  836MOL0     H10334   8.073   3.497   3.627 -0.4642  0.3298 -2.5920
  836MOL0     H10335   8.256   3.580   3.498 -1.1440 -0.0322 -1.3666
  836MOL0     H10336   8.417   3.912   3.078 -0.1049  1.2094  0.4003
  836MOL0     H10337   8.635   4.022   3.016  0.1090  1.8543 -0.8392
  836MOL0     H10338  10.770   4.031   3.397 -0.7262 -1.2065  0.4433
  836MOL0     H10339  11.018   3.997   3.372  1.5974 -1.6096 -0.4305
  836MOL0     H10340  11.331   3.836   3.434 -0.7440 -0.5133 -0.6396
  836MOL0     H10341  11.574   3.839   3.507  0.8768  0.4109 -0.4669
  836MOL0     H10342  11.792   3.650   3.332 -0.3480 -0.3654  0.5957
  836MOL0     H10343  11.768   3.739   3.486  0.5955  0.7669  0.6572
  836MOL0     H10344  12.042   3.763   3.347  2.1505  0.0283  0.0801
  836MOL0     H10345  11.988   3.792   3.516  0.0951 -1.5809  0.6997
  836MOL0     H10346  11.973   3.520   3.396  0.0555 -0.1372  1.2045
  836MOL0     H10347  11.958   3.557   3.566  0.8765  1.3598  1.7144
  836MOL0     H10348  12.191   3.468   3.519  2.1053 -0.3186 -1.2035
  836MOL0     H10349  12.207   3.562   3.379  4.2819 -0.6890  2.1074
  836MOL0     H10350  12.264   3.853   3.700 -0.7853  0.7466  0.2269
  836MOL0     H10351  11.684   3.880   3.098  1.6988 -3.6217  1.7295
  836MOL0     H10352  11.460   3.890   3.025 -1.5902  1.4979  0.4626
  837MOL0     O10353   5.384   8.369   2.661  0.6343  0.2291  0.6096
  837MOL0     C10354   5.471   8.311   2.604  0.0865 -0.0660  0.7796
  837MOL0     O10355   5.460   8.188   2.541  0.4731 -0.6756 -0.2518
  837MOL0     C10356   5.339   8.123   2.533  0.4340  0.1171  0.6483
  837MOL0     C10357   5.217   8.145   2.601  0.3294 -0.2242  0.0761
  837MOL0     C10358   5.104   8.066   2.588 -0.3710  0.5987  0.4933
  837MOL0     C10359   5.116   7.950   2.504  0.0239 -0.3516  0.4773
  837MOL0     O10360   5.020   7.854   2.481  0.1642  0.3500  0.7214
  837MOL0     C10361   4.883   7.885   2.518 -0.3351  0.3773  0.6743
  837MOL0     C10362   4.861   7.876   2.670 -0.0342 -0.0451  0.2654
  837MOL0     C10363   4.730   7.952   2.712  0.1787 -0.1525  0.4555
  837MOL0     C10364   4.618   7.923   2.610 -0.5383 -0.4184 -0.1224
  837MOL0     C10365   4.482   7.948   2.654  0.9798 -0.6996 -0.4478
  837MOL0     C10366   4.435   8.088   2.695  0.3323  0.0222 -0.2616
  837MOL0     C10367   4.446   8.187   2.578 -0.0482  0.8161 -0.7936
  837MOL0     C10368   4.415   8.327   2.632  0.3174 -0.1431  0.1763
  837MOL0     N10369   4.271   8.332   2.671 -1.2355 -0.3774 -0.2194
  837MOL0     C10370   4.162   8.331   2.589 -0.2242 -0.1930 -0.0522
  837MOL0     C10371   4.062   8.328   2.679 -0.2061  0.3824 -0.7061
  837MOL0     C10372   3.911   8.319   2.636 -0.6360 -0.5592 -0.4245
  837MOL0     C10373   3.841   8.453   2.611  0.5546 -0.5294  0.2293
  837MOL0     C10374   3.696   8.440   2.667 -0.1697  0.4467  0.1390
  837MOL0     C10375   3.599   8.336   2.591 -0.2861  0.1313 -0.8936
  837MOL0     O10376   3.532   8.404   2.485  0.0067 -0.7008 -0.2045
  837MOL0     C10377   3.404   8.367   2.464 -0.2450  0.7083 -0.1628
  837MOL0     C10378   3.323   8.458   2.388 -0.6353  0.0889 -0.6437
  837MOL0     C10379   3.188   8.431   2.352  0.0784 -0.4531  0.0409
  837MOL0     C10380   3.138   8.307   2.405  0.1775 -0.1851 -0.6603
  837MOL0     C10381   2.994   8.272   2.383  0.2550 -0.6348 -0.0018
  837MOL0     O10382   2.925   8.191   2.475  0.1181 -0.5062  0.8820
  837MOL0     C10383   2.818   8.128   2.425  0.9776  0.0714  1.6969
  837MOL0     C10384   2.697   8.121   2.501 -0.3985  0.1772  0.3029
  837MOL0     C10385   2.586   8.066   2.450 -0.6893 -0.2208 -0.0595
  837MOL0     C10386   2.589   8.019   2.317  0.7028  0.5947  0.3087
  837MOL0     O10387   2.476   7.964   2.262  0.1910  0.6808  0.5081
  837MOL0     C10388   2.369   7.911   2.337  0.4807 -0.0643  0.3466
  837MOL0     C10389   2.267   8.023   2.371 -0.8306  0.1349  0.0402
  837MOL0     C10390   2.145   7.989   2.462  0.9351 -0.0770 -0.2347
  837MOL0     C10391   2.030   8.087   2.450  0.3537 -1.5002  0.5211
  837MOL0     C10392   1.908   8.043   2.518  0.9494  0.4780 -0.8653
  837MOL0     C10393   1.786   8.091   2.442  0.3204  0.1109 -0.3408
  837MOL0     C10394   1.660   8.053   2.525 -0.5750 -0.9174  0.5211
  837MOL0     C10395   1.530   8.118   2.473  0.0561  0.4431  1.0786
  837MOL0    Cl10396   1.405   8.112   2.595 -0.2502  0.1413  0.0834
  837MOL0     C10397   2.706   8.016   2.244 -0.1528 -0.5302  0.6257
  837MOL0     C10398   2.823   8.066   2.293 -0.4032 -0.2671 -0.1101
  837MOL0     O10399   2.947   8.338   2.288  0.9003 -0.7433 -0.6692
  837MOL0     C10400   3.213   8.226   2.484 -0.3042  0.6729  0.9674
  837MOL0     C10401   3.345   8.247   2.509 -0.1723 -0.1787  0.4294
  837MOL0     N10402   4.109   8.320   2.808  0.2019 -0.0748  0.4107
  837MOL0     N10403   4.238   8.316   2.798 -0.0135  0.4369 -1.1801
  837MOL0     C10404   5.238   7.920   2.451 -0.5445  0.0339 -0.3448
  837MOL0     C10405   5.350   8.007   2.455  0.9100 -0.5760  0.3138
  837MOL0     C10406   5.608   8.370   2.605  0.4999  0.4416 -0.4109
  837MOL0     C10407   5.624   8.502   2.642  0.2310  0.5574 -0.1514
  837MOL0     C10408   5.743   8.562   2.608 -0.3180 -0.1385  0.7322
  837MOL0     C10409   5.847   8.497   2.544  0.1958 -0.7371 -0.9844
  837MOL0     O10410   5.950   8.584   2.513 -0.5902  0.6121  0.0916
  837MOL0     C10411   6.055   8.539   2.424 -0.0229 -0.3816 -0.2476
  837MOL0     C10412   6.005   8.548   2.276  0.5337  0.2039 -0.2629
  837MOL0     C10413   6.041   8.679   2.208  0.5661  0.0979  0.4778
  837MOL0     C10414   6.024   8.689   2.053  0.5157 -0.3145  0.4555
  837MOL0     C10415   6.088   8.578   1.981  0.2988 -0.4874 -0.1392
  837MOL0     C10416   6.151   8.490   1.922 -0.2571  0.5018  0.4131
  837MOL0     C10417   5.834   8.363   2.511 -0.2629 -0.1013 -0.3227
  837MOL0     C10418   5.715   8.296   2.547  0.6239  0.3994  0.6158
  837MOL0     H10419   5.200   8.238   2.656 -0.0163  1.8796 -3.3092
  837MOL0     H10420   5.018   8.104   2.641 -1.1995 -3.2787  2.3436
  837MOL0     H10421   4.813   7.819   2.465  1.5096 -0.9921 -0.1931
  837MOL0     H10422   4.871   7.985   2.475 -0.7763 -0.0151 -0.1406
  837MOL0     H10423   4.942   7.935   2.715  0.2088  0.6025 -0.9701
  837MOL0     H10424   4.860   7.770   2.696 -0.0300 -0.1590 -0.1978
  837MOL0     H10425   4.749   8.059   2.722 -1.2843  0.2743 -0.9411
  837MOL0     H10426   4.695   7.914   2.809 -2.3828 -3.5970 -1.5932
  837MOL0     H10427   4.634   7.984   2.521 -1.1263  0.1115  0.1246
  837MOL0     H10428   4.619   7.818   2.580 -0.1035 -0.3364 -0.3908
  837MOL0     H10429   4.449   7.898   2.746 -2.2262  4.2180  1.5379
  837MOL0     H10430   4.410   7.905   2.585 -2.9792  2.0590  1.5584
  837MOL0     H10431   4.487   8.126   2.783 -2.5997  1.7146  0.9077
  837MOL0     H10432   4.329   8.080   2.723 -0.0984 -1.5279 -2.1213
  837MOL0     H10433   4.548   8.196   2.540 -0.0651  0.4422 -0.9343
  837MOL0     H10434   4.379   8.171   2.493 -1.3688  2.0548 -0.0240
  837MOL0     H10435   4.436   8.404   2.556  3.1619 -0.9256  0.0295
  837MOL0     H10436   4.485   8.352   2.713  2.6997  1.3631 -2.1672
  837MOL0     H10437   4.154   8.334   2.481 -4.0122  0.6549  0.1049
  837MOL0     H10438   3.853   8.265   2.711 -0.4286  0.0320  0.1733
  837MOL0     H10439   3.906   8.263   2.542  0.4235 -1.5762  0.0895
  837MOL0     H10440   3.825   8.466   2.503 -0.2411 -1.3906  0.2385
  837MOL0     H10441   3.897   8.535   2.657 -2.2468  1.8800 -0.3695
  837MOL0     H10442   3.695   8.422   2.775 -1.6919  4.3810  0.9487
  837MOL0     H10443   3.640   8.533   2.678 -1.3376 -0.4657  2.9405
  837MOL0     H10444   3.537   8.299   2.673 -1.3059 -0.4302 -1.8923
  837MOL0     H10445   3.655   8.253   2.547 -0.9985  0.3772 -2.2989
  837MOL0     H10446   3.366   8.553   2.357  1.0829 -0.6412 -0.5995
  837MOL0     H10447   3.134   8.503   2.291  1.8086  1.5561  0.7512
  837MOL0     H10448   2.688   8.174   2.596 -1.1669  0.8783 -0.1516
  837MOL0     H10449   2.493   8.052   2.506 -0.9885  1.2823 -0.1192
  837MOL0     H10450   2.400   7.865   2.431 -1.2098  0.1511  1.0605
  837MOL0     H10451   2.321   7.832   2.279 -1.3254  0.1017  1.5131
  837MOL0     H10452   2.229   8.058   2.275  1.5550  1.9333 -0.3264
  837MOL0     H10453   2.321   8.104   2.420 -3.5611 -0.2835  4.3369
  837MOL0     H10454   2.175   7.989   2.568  2.1628 -3.5338 -0.4417
  837MOL0     H10455   2.111   7.887   2.444  0.5918 -0.6838  3.0607
  837MOL0     H10456   2.048   8.187   2.489  1.1623 -1.9069  1.2106
  837MOL0     H10457   2.009   8.113   2.346  1.5523  1.8137  0.9886
  837MOL0     H10458   1.921   8.066   2.624  1.8365 -1.5828 -0.4657
  837MOL0     H10459   1.892   7.935   2.517 -1.0840  0.7435 -1.3321
  837MOL0     H10460   1.783   8.040   2.346 -3.2719 -0.6270  0.0284
  837MOL0     H10461   1.780   8.200   2.433 -1.6847  0.2637  1.8523
  837MOL0     H10462   1.643   7.946   2.541  0.9727 -1.0961  1.2146
  837MOL0     H10463   1.675   8.095   2.625 -2.6923  0.0074  0.4977
  837MOL0     H10464   1.501   8.059   2.386  2.0014  0.7446  0.1912
  837MOL0     H10465   1.544   8.223   2.446  1.8876  0.0981  0.5399
  837MOL0     H10466   2.698   7.959   2.152  0.6543  1.2313 -0.5958
  837MOL0     H10467   2.910   8.048   2.232  0.2725 -3.0240  1.5209
  837MOL0     H10468   3.171   8.137   2.530 -0.0373 -0.6709 -1.2509
  837MOL0     H10469   3.390   8.178   2.580  0.0447 -0.0678  0.3997
  837MOL0     H10470   5.257   7.829   2.395 -0.5274 -1.2568  1.6665
  837MOL0     H10471   5.444   7.984   2.406 -0.1271 -0.6669 -1.7054
  837MOL0     H10472   5.539   8.558   2.678 -0.1669  1.0766 -1.8208
  837MOL0     H10473   5.760   8.668   2.623  4.6006 -0.0617 -2.8650
  837MOL0     H10474   6.073   8.435   2.451  0.3978 -0.1488  0.3907
  837MOL0     H10475   6.149   8.591   2.446 -0.1549  1.2208 -3.0015
  837MOL0     H10476   6.055   8.466   2.225 -1.3200 -1.6176  0.7043
  837MOL0     H10477   5.896   8.538   2.266  0.2761  0.2664  1.9596
  837MOL0     H10478   6.141   8.704   2.243  0.5001  2.0637 -0.5993
  837MOL0     H10479   5.983   8.759   2.254  1.3101  0.6645  0.4370
  837MOL0     H10480   5.916   8.681   2.036  0.6277 -0.8088 -0.0808
  837MOL0     H10481   6.070   8.782   2.019  0.8930 -1.5270 -2.6640
  837MOL0     H10482   6.199   8.411   1.868  0.9780  0.9088  0.8780
  837MOL0     H10483   5.914   8.308   2.461  0.0661 -2.0180  2.1278
  837MOL0     H10484   5.704   8.195   2.509 -1.8363 -0.8146  4.0948
  838MOL0     O10485   9.928  11.281   3.052  0.4886  0.0260  0.4684
  838MOL0     C10486   9.955  11.169   3.086  0.0718  0.1114  0.0998
  838MOL0     O10487   9.868  11.074   3.116  0.5265  0.1542  0.9662
  838MOL0     C10488   9.728  11.101   3.106 -0.0407  0.5858  0.1654
  838MOL0     C10489   9.649  11.160   3.211  0.5369  0.0042 -0.0373
  838MOL0     C10490   9.510  11.185   3.210  0.4221 -0.4081  0.3832
  838MOL0     C10491   9.436  11.144   3.097 -0.8069  0.4724 -0.5163
  838MOL0     O10492   9.310  11.178   3.086 -0.1956 -0.1154 -0.5106
  838MOL0     C10493   9.234  11.164   2.961  1.0222  0.8304  0.5257
  838MOL0     C10494   9.085  11.198   2.979 -0.3180  0.2802  0.1809
  838MOL0     C10495   9.001  11.151   2.862 -0.0124 -0.3458 -0.2222
  838MOL0     C10496   8.981  10.999   2.854  0.3468 -0.5413 -0.0844
  838MOL0     C10497   8.840  10.957   2.865  0.4456  0.1994  0.8569
  838MOL0     C10498   8.760  10.984   3.001 -0.4330 -0.2947  0.2891
  838MOL0     C10499   8.603  10.967   2.972 -0.0054 -0.1125  1.1841
  838MOL0     C10500   8.513  10.990   3.090 -0.7865  0.3700  0.6540
  838MOL0     N10501   8.371  11.028   3.063 -0.2896 -0.0813  0.5009
  838MOL0     C10502   8.276  10.957   3.000  0.7937  0.4023 -0.1759
  838MOL0     C10503   8.164  11.036   2.989 -0.4263 -0.2841 -0.4656
  838MOL0     C10504   8.034  11.012   2.914  0.0114 -0.4834 -0.3274
  838MOL0     C10505   7.920  10.965   3.006  0.1287  0.4272 -0.8746
  838MOL0     C10506   7.790  10.959   2.927  0.5409 -0.4710  0.3816
  838MOL0     C10507   7.664  10.911   3.006  0.2884 -0.2093  0.0323
  838MOL0     O10508   7.623  11.007   3.109  0.5429  0.9365 -0.7606
  838MOL0     C10509   7.536  10.960   3.206 -0.1018  0.0877  0.3603
  838MOL0     C10510   7.400  11.008   3.213 -0.0376 -0.1020 -0.0722
  838MOL0     C10511   7.308  10.973   3.315  0.8378 -0.7111  0.1800
  838MOL0     C10512   7.346  10.879   3.415  0.1745 -0.2620  0.7466
  838MOL0     C10513   7.244  10.837   3.510 -0.2468 -0.4552  0.6726
  838MOL0     O10514   7.283  10.726   3.577  0.5826 -0.1842  0.2301
  838MOL0     C10515   7.182  10.678   3.653 -0.3264 -0.6430 -0.6028
  838MOL0     C10516   7.223  10.639   3.781 -0.3594 -0.1136  0.3244
  838MOL0     C10517   7.121  10.593   3.871  0.3158 -1.3342 -0.6459
  838MOL0     C10518   6.987  10.573   3.836  0.9086 -0.1297  0.3075
  838MOL0     O10519   6.883  10.515   3.915 -0.3938 -0.1471  0.3639
  838MOL0     C10520   6.879  10.564   4.041 -0.2398 -0.5878  0.6183
  838MOL0     C10521   6.789  10.685   4.038 -0.1679 -0.2353 -0.0628
  838MOL0     C10522   6.637  10.645   4.015 -0.2695  0.2706  0.1915
  838MOL0     C10523   6.536  10.745   4.051 -0.1701 -0.3132  0.0002
  838MOL0     C10524   6.385  10.695   4.078 -0.5172 -0.2001 -0.4805
  838MOL0     C10525   6.312  10.643   3.957  0.2861  0.6802  0.2411
  838MOL0     C10526   6.159  10.629   3.984  0.0092  0.6395  0.5019
  838MOL0     C10527   6.134  10.525   4.099 -0.3896  0.2817 -0.7876
  838MOL0    Cl10528   6.177  10.363   4.032  0.0544 -0.2285 -0.3482
  838MOL0     C10529   6.954  10.606   3.701 -0.7556 -0.0023  0.1215
  838MOL0     C10530   7.050  10.646   3.612 -0.1041  0.5288  0.3041
  838MOL0     O10531   7.138  10.902   3.517  0.3651 -0.1846 -0.0526
  838MOL0     C10532   7.479  10.832   3.409  0.5222 -0.2154  0.2276
  838MOL0     C10533   7.565  10.866   3.302  0.0992  0.5949  0.5431
  838MOL0     N10534   8.199  11.158   3.051 -0.3586  0.3864 -0.0946
  838MOL0     N10535   8.317  11.150   3.095  0.1217 -0.1911  0.1681
  838MOL0     C10536   9.513  11.076   2.995 -0.1037 -0.3330  0.0327
  838MOL0     C10537   9.652  11.057   2.999 -0.5957  0.3856  0.6260
  838MOL0     C10538  10.099  11.142   3.101 -0.0215  0.2524 -0.7163
  838MOL0     C10539  10.144  11.006   3.115 -1.3540  0.2657  0.1068
  838MOL0     C10540  10.277  10.977   3.121  0.6278  0.0012 -0.2802
  838MOL0     C10541  10.376  11.073   3.119 -0.6248  0.1649 -0.0568
  838MOL0     O10542  10.502  11.031   3.117  0.1715 -0.0184 -0.4072
  838MOL0     C10543  10.608  11.120   3.160 -0.0164  0.7981 -0.4864
  838MOL0     C10544  10.609  11.166   3.315  0.7455  0.5852  0.8712
  838MOL0     C10545  10.614  11.047   3.408  0.3419 -0.2211 -0.3197
  838MOL0     C10546  10.591  11.087   3.554 -0.1044 -0.1162  0.0403
  838MOL0     C10547  10.710  11.161   3.599  0.5996 -1.2106  0.2449
  838MOL0     C10548  10.816  11.221   3.619 -0.1634  0.2204  0.1142
  838MOL0     C10549  10.333  11.206   3.119  0.8387  0.0361 -0.0083
  838MOL0     C10550  10.196  11.242   3.107 -0.6876  0.4850 -0.4502
  838MOL0     H10551   9.705  11.191   3.298 -2.3257 -0.5507  2.1929
  838MOL0     H10552   9.457  11.235   3.290 -0.1511 -1.0364  0.4082
  838MOL0     H10553   9.223  11.060   2.930 -0.7563  1.3160 -0.6179
  838MOL0     H10554   9.281  11.221   2.880  0.5423 -0.5442 -0.7607
  838MOL0     H10555   9.075  11.307   2.984 -1.8454  0.2654 -1.4722
  838MOL0     H10556   9.039  11.159   3.070 -1.6365  0.2999 -0.4565
  838MOL0     H10557   9.049  11.192   2.772 -0.4962  0.2500 -0.2161
  838MOL0     H10558   8.903  11.199   2.855  0.1787  0.2955  1.1285
  838MOL0     H10559   9.023  10.955   2.763 -0.9856 -0.8855 -0.5605
  838MOL0     H10560   9.036  10.953   2.937  0.5444 -0.0031  0.0912
  838MOL0     H10561   8.857  10.849   2.854  2.1720  0.4910  0.4346
  838MOL0     H10562   8.779  11.001   2.786 -1.2333 -1.0059  1.4237
  838MOL0     H10563   8.786  11.084   3.034 -0.9669  1.7812 -4.6949
  838MOL0     H10564   8.798  10.913   3.076 -2.6139 -2.9704 -0.9369
  838MOL0     H10565   8.579  11.040   2.894  3.1604  1.8735  1.9106
  838MOL0     H10566   8.589  10.867   2.929  2.4305  0.8791 -2.3436
  838MOL0     H10567   8.543  11.076   3.151  0.0571  0.1124  0.6103
  838MOL0     H10568   8.517  10.899   3.151 -1.4824 -1.4696 -1.8870
  838MOL0     H10569   8.273  10.852   2.971  1.5088  0.0859  0.8392
  838MOL0     H10570   8.057  10.926   2.851 -1.2924 -2.6274  1.9756
  838MOL0     H10571   8.008  11.106   2.864 -1.7449 -1.2823 -0.9674
  838MOL0     H10572   7.907  11.033   3.091  0.9124  1.0834 -1.2769
  838MOL0     H10573   7.940  10.863   3.041  1.7345  0.8104 -0.6000
  838MOL0     H10574   7.789  11.063   2.892  2.1879  0.1410  1.9900
  838MOL0     H10575   7.800  10.888   2.845 -5.7178  1.9861 -3.2579
  838MOL0     H10576   7.680  10.808   3.038  4.1882 -1.1544 -4.0139
  838MOL0     H10577   7.581  10.907   2.936  1.3792 -0.1287 -1.3124
  838MOL0     H10578   7.359  11.069   3.133  0.0573  0.4372  0.2885
  838MOL0     H10579   7.220  11.036   3.321  0.9108 -0.0002 -3.6037
  838MOL0     H10580   7.323  10.652   3.821 -0.5505  2.5132  0.1751
  838MOL0     H10581   7.156  10.578   3.973  0.0539 -1.9210 -0.6411
  838MOL0     H10582   6.974  10.606   4.074 -1.9163  2.8842  1.5041
  838MOL0     H10583   6.850  10.484   4.109 -1.2118 -0.4437  0.3883
  838MOL0     H10584   6.827  10.754   3.963  1.7562  0.5689  1.5563
  838MOL0     H10585   6.802  10.726   4.139  0.4124 -1.4765  0.3896
  838MOL0     H10586   6.612  10.557   4.075  0.4714  0.4440  0.7684
  838MOL0     H10587   6.624  10.619   3.910 -4.1978 -3.1971  1.2443
  838MOL0     H10588   6.576  10.794   4.140 -0.6476 -0.3849  0.2524
  838MOL0     H10589   6.531  10.817   3.968  0.3467  0.6626  0.7971
  838MOL0     H10590   6.328  10.779   4.119 -0.8041  0.2499 -1.7597
  838MOL0     H10591   6.393  10.614   4.151  1.0826 -1.1144 -1.6052
  838MOL0     H10592   6.342  10.546   3.916 -4.5804 -0.0851 -2.1625
  838MOL0     H10593   6.330  10.716   3.878  2.1058  0.0576  0.0287
  838MOL0     H10594   6.107  10.720   4.014  0.7199  0.4204  2.5961
  838MOL0     H10595   6.108  10.592   3.895  1.3785 -3.6607  1.2242
  838MOL0     H10596   6.028  10.524   4.124 -0.5047  2.4686 -0.9816
  838MOL0     H10597   6.194  10.555   4.186  0.1550 -2.7569 -0.0145
  838MOL0     H10598   6.849  10.587   3.679 -0.4176 -0.9982 -0.7740
  838MOL0     H10599   7.019  10.652   3.508  1.9654  0.0854 -0.3972
  838MOL0     H10600   7.507  10.757   3.482 -0.1663 -1.2361 -0.5296
  838MOL0     H10601   7.664  10.824   3.297  0.4758  1.4984  0.1105
  838MOL0     H10602   9.472  11.046   2.899  2.2942 -3.9343 -0.1056
  838MOL0     H10603   9.701  11.000   2.921  1.1804  2.8017 -0.1595
  838MOL0     H10604  10.078  10.921   3.103  1.2739 -1.8977  0.1061
  838MOL0     H10605  10.302  10.872   3.105  0.8445  0.5888 -5.5227
  838MOL0     H10606  10.607  11.212   3.102  2.9156  0.5431 -1.0674
  838MOL0     H10607  10.701  11.064   3.145 -0.6996 -0.1385 -1.4090
  838MOL0     H10608  10.696  11.231   3.322  3.0478 -2.1054 -0.6604
  838MOL0     H10609  10.520  11.227   3.330 -0.4090 -1.0076  0.8161
  838MOL0     H10610  10.704  10.987   3.388 -1.0817 -2.0224 -1.6942
  838MOL0     H10611  10.530  10.983   3.379  1.1274 -1.2519 -0.4102
  838MOL0     H10612  10.501  11.146   3.572 -0.9673 -1.2592 -0.4022
  838MOL0     H10613  10.574  10.997   3.614  1.4785  0.0457  0.7807
  838MOL0     H10614  10.904  11.278   3.641 -0.0439 -0.3902  1.2558
  838MOL0     H10615  10.397  11.294   3.122 -3.0722  3.1366  2.0491
  838MOL0     H10616  10.178  11.349   3.104 -0.3510  0.5294 -1.0576
  839MOL0     O10617   3.055  10.094   0.624  0.2789  0.2173 -0.3584
  839MOL0     C10618   3.094   9.982   0.592  0.5832  0.0933 -0.1289
  839MOL0     O10619   3.011   9.871   0.589 -0.7041  0.8043 -0.1481
  839MOL0     C10620   2.880   9.868   0.613  1.4231 -0.0437  0.4315
  839MOL0     C10621   2.824   9.764   0.685  0.5189  0.0617  0.3284
  839MOL0     C10622   2.686   9.761   0.718  0.0980  0.3275  0.2778
  839MOL0     C10623   2.600   9.863   0.681 -0.4476  0.2314 -0.2799
  839MOL0     O10624   2.470   9.847   0.732 -0.5715 -0.6569  0.1436
  839MOL0     C10625   2.363   9.931   0.686 -0.5128 -0.3892  0.4282
  839MOL0     C10626   2.227   9.875   0.732  0.6370 -0.1472  0.0125
  839MOL0     C10627   2.108   9.955   0.675 -0.4399 -1.5167 -0.3392
  839MOL0     C10628   1.986   9.868   0.688 -0.3152 -0.0371  0.3126
  839MOL0     C10629   1.874   9.948   0.627  0.9426 -0.0788 -0.9955
  839MOL0     C10630   1.748   9.859   0.639  0.5102 -0.2314 -0.4049
  839MOL0     C10631   1.627   9.921   0.568 -1.1991  0.2475  0.5243
  839MOL0     C10632   1.504   9.836   0.615 -0.0308  0.5155  0.8534
  839MOL0     N10633   1.376   9.898   0.581 -0.3111  0.5317 -0.3022
  839MOL0     C10634   1.308   9.986   0.664  0.2409 -0.1367  0.5598
  839MOL0     C10635   1.195  10.026   0.594 -0.0647 -0.3877  0.2567
  839MOL0     C10636   1.083  10.110   0.653 -0.7000 -0.3620 -0.4018
  839MOL0     C10637   0.956  10.123   0.583  0.4832  0.7969  0.5549
  839MOL0     C10638   0.848  10.176   0.672 -0.3734  0.2765 -0.1652
  839MOL0     C10639   0.712  10.189   0.603 -0.2207 -0.7781  0.1333
  839MOL0     O10640   0.626  10.262   0.695 -0.1069  0.5023  0.4489
  839MOL0     C10641   0.511  10.320   0.644  0.2261 -0.5488 -1.4005
  839MOL0     C10642   0.439  10.272   0.544  0.1640 -0.6535  0.7244
  839MOL0     C10643   0.326  10.331   0.492  0.6084  0.1532  0.2845
  839MOL0     C10644   0.273  10.443   0.553  0.5508 -1.4558 -0.3035
  839MOL0     C10645   0.150  10.508   0.509 -0.0454  0.0707 -0.6670
  839MOL0     O10646   0.060  10.430   0.455 -0.0321  0.5177  0.0892
  839MOL0     C10647  -0.043  10.491   0.395 -0.1192  0.5095  0.2101
  839MOL0     C10648  -0.132  10.564   0.471  0.1626 -0.3100  0.2648
  839MOL0     C10649  -0.244  10.630   0.412 -0.6635  0.0393  0.2695
  839MOL0     C10650  -0.277  10.619   0.282  0.4125  0.5706 -0.1399
  839MOL0     O10651  -0.399  10.666   0.236 -0.0962 -0.2178 -0.1697
  839MOL0     C10652  -0.425  10.675   0.097 -0.5729 -0.2610 -1.5583
  839MOL0     C10653  -0.540  10.770   0.081 -0.4236  0.1663 -0.4067
  839MOL0     C10654  -0.572  10.773  -0.070  0.2607 -0.4728  0.1952
  839MOL0     C10655  -0.715  10.803  -0.112  1.1782  0.3868  0.1223
  839MOL0     C10656  -0.749  10.823  -0.258 -0.3583 -0.2007 -0.0957
  839MOL0     C10657  -0.750  10.687  -0.335 -0.6446  0.8037  0.2033
  839MOL0     C10658  -0.887  10.607  -0.336  1.5387 -1.1801 -0.0239
  839MOL0     C10659  -0.908  10.527  -0.458  0.3040  0.6158  0.0716
  839MOL0    Cl10660  -0.822  10.369  -0.424 -0.2234 -0.4711  0.1877
  839MOL0     C10661  -0.186  10.539   0.205 -0.8913 -1.0617  0.0410
  839MOL0     C10662  -0.061  10.483   0.257  0.5779 -0.2800 -0.1806
  839MOL0     O10663   0.142  10.630   0.516 -0.0489 -0.9391 -0.0599
  839MOL0     C10664   0.340  10.498   0.669  0.1846  0.5318  0.3322
  839MOL0     C10665   0.455  10.435   0.714  0.2289  0.3917  0.2343
  839MOL0     N10666   1.196   9.957   0.474  0.1236 -0.3344 -0.1518
  839MOL0     N10667   1.307   9.889   0.466 -0.5146  0.5616  0.5368
  839MOL0     C10668   2.654   9.965   0.608  0.4662 -0.2550 -0.0965
  839MOL0     C10669   2.791   9.973   0.584  0.0151 -0.2417  1.3400
  839MOL0     C10670   3.234   9.961   0.563  0.5700 -0.5342 -0.3374
  839MOL0     C10671   3.288   9.842   0.513 -0.5370 -0.0899 -0.9841
  839MOL0     C10672   3.414   9.827   0.456 -0.3049 -0.1636  0.7159
  839MOL0     C10673   3.492   9.935   0.433 -0.3164 -0.2464  0.6828
  839MOL0     O10674   3.617   9.932   0.375  0.2563 -0.4078 -0.5224
  839MOL0     C10675   3.672   9.804   0.347  0.4717  0.0892  0.3723
  839MOL0     C10676   3.825   9.799   0.326  0.5421  0.2439  0.1489
  839MOL0     C10677   3.874   9.891   0.215  0.2801  0.4540 -0.4235
  839MOL0     C10678   4.029   9.869   0.194 -0.4593  0.5357  0.8094
  839MOL0     C10679   4.128   9.924   0.287 -0.2794  0.3578 -0.6989
  839MOL0     C10680   4.219   9.971   0.358 -0.4883  0.2063  0.6060
  839MOL0     C10681   3.449  10.060   0.483 -0.0756  0.4853 -0.5900
  839MOL0     C10682   3.319  10.073   0.553  0.1967  0.2103 -0.7533
  839MOL0     H10683   2.882   9.682   0.726 -1.5679 -1.9802 -0.6112
  839MOL0     H10684   2.655   9.676   0.777  2.0330 -0.7813 -0.2178
  839MOL0     H10685   2.352   9.943   0.578  2.9384  1.9316  0.1878
  839MOL0     H10686   2.391  10.029   0.724  0.9419  0.2730 -2.1226
  839MOL0     H10687   2.223   9.871   0.841  0.2964  1.4329  0.0815
  839MOL0     H10688   2.216   9.775   0.689 -1.0736 -1.2727  2.8320
  839MOL0     H10689   2.115  10.009   0.580 -3.2855  2.1392  1.3102
  839MOL0     H10690   2.085  10.040   0.740  0.0890 -1.2074 -0.5505
  839MOL0     H10691   1.999   9.776   0.632 -0.8789  1.5242 -2.5449
  839MOL0     H10692   1.980   9.847   0.796  2.0574  2.5424  1.0632
  839MOL0     H10693   1.888   9.961   0.519  2.1873 -2.4583 -1.1945
  839MOL0     H10694   1.868  10.045   0.676 -0.4527  0.3978 -2.0163
  839MOL0     H10695   1.731   9.856   0.747 -1.2969  0.1589 -0.6476
  839MOL0     H10696   1.760   9.755   0.607 -0.2225 -0.1857 -0.8615
  839MOL0     H10697   1.603  10.019   0.610 -0.3963  0.7347 -0.1414
  839MOL0     H10698   1.643   9.914   0.460 -0.4306 -2.2733  0.7318
  839MOL0     H10699   1.514   9.814   0.722 -0.5555 -0.1341  0.7746
  839MOL0     H10700   1.492   9.743   0.559 -2.3755  1.6524 -0.6547
  839MOL0     H10701   1.326  10.015   0.767  0.4632 -1.9252  1.0415
  839MOL0     H10702   1.119  10.211   0.675 -2.2740 -0.5984  4.4918
  839MOL0     H10703   1.069  10.073   0.755  1.1770 -0.9498 -0.3199
  839MOL0     H10704   0.931  10.021   0.550  2.7756  0.4781 -0.3874
  839MOL0     H10705   0.952  10.184   0.492 -3.8200 -2.5954 -1.9618
  839MOL0     H10706   0.831  10.120   0.764  0.9012  2.2349  1.3489
  839MOL0     H10707   0.876  10.279   0.696 -0.8896  0.4737 -0.3926
  839MOL0     H10708   0.674  10.088   0.585 -0.6356 -1.0516  2.2580
  839MOL0     H10709   0.733  10.238   0.507  0.8948 -0.0075  0.7350
  839MOL0     H10710   0.486  10.182   0.505  2.8008  0.9557 -0.0776
  839MOL0     H10711   0.272  10.292   0.406 -1.4319  2.1775  0.5555
  839MOL0     H10712  -0.123  10.567   0.579 -1.8199 -0.4283  0.4580
  839MOL0     H10713  -0.310  10.680   0.483  0.6191 -0.7006  2.0629
  839MOL0     H10714  -0.455  10.575   0.065  2.3201 -1.3214 -1.2614
  839MOL0     H10715  -0.337  10.716   0.047  0.9194  0.5660  1.4701
  839MOL0     H10716  -0.524  10.871   0.122  1.4753 -0.2281 -0.0751
  839MOL0     H10717  -0.623  10.727   0.137  1.6775 -0.5435  2.4320
  839MOL0     H10718  -0.548  10.677  -0.117 -1.4693 -1.2196  0.7885
  839MOL0     H10719  -0.502  10.848  -0.108  0.1777  0.2413  1.4059
  839MOL0     H10720  -0.767  10.712  -0.079  0.8366 -0.1276 -1.7153
  839MOL0     H10721  -0.750  10.894  -0.061  2.7304  0.1671  1.6487
  839MOL0     H10722  -0.666  10.882  -0.298 -0.8086  2.1530  2.1600
  839MOL0     H10723  -0.839  10.882  -0.277 -1.1655 -1.8690 -1.7120
  839MOL0     H10724  -0.678  10.614  -0.296 -1.5235  0.6265  1.5830
  839MOL0     H10725  -0.722  10.719  -0.436 -3.5182  0.3997 -0.7986
  839MOL0     H10726  -0.892  10.543  -0.248 -3.0579  2.4734  2.8489
  839MOL0     H10727  -0.959  10.688  -0.320 -0.6835 -2.8397 -1.0884
  839MOL0     H10728  -0.865  10.579  -0.543  1.1309 -0.0640  0.0591
  839MOL0     H10729  -1.015  10.507  -0.464 -0.5331  4.1548  1.2565
  839MOL0     H10730  -0.211  10.510   0.104  1.0529  0.6636 -1.0215
  839MOL0     H10731   0.004  10.417   0.200  2.3929  1.9737 -0.8618
  839MOL0     H10732   0.307  10.583   0.728 -1.2102  0.4697 -0.3116
  839MOL0     H10733   0.521  10.468   0.794  2.3014 -0.0343 -1.1977
  839MOL0     H10734   2.592  10.048   0.576  0.7324 -0.3701 -0.9542
  839MOL0     H10735   2.820  10.071   0.550 -4.0356  2.2724  4.2004
  839MOL0     H10736   3.235   9.747   0.507  1.6684 -1.5850  1.0617
  839MOL0     H10737   3.436   9.738   0.398  1.6660  0.4685  0.4152
  839MOL0     H10738   3.619   9.767   0.259 -0.1577  3.1772 -0.7025
  839MOL0     H10739   3.658   9.734   0.429  0.0364  0.4019  0.5677
  839MOL0     H10740   3.875   9.821   0.421 -0.5211  1.5915  0.4238
  839MOL0     H10741   3.857   9.697   0.304 -0.1090  0.1433 -0.3703
  839MOL0     H10742   3.850   9.998   0.224  1.5653  0.7743 -0.6259
  839MOL0     H10743   3.821   9.862   0.124 -0.9445 -0.1269  0.4484
  839MOL0     H10744   4.056   9.766   0.171 -1.1960  0.7870 -1.4907
  839MOL0     H10745   4.045   9.917   0.097 -1.6181 -1.2215 -0.3097
  839MOL0     H10746   4.307  10.016   0.401  1.2587 -2.0916 -0.3459
  839MOL0     H10747   3.524  10.138   0.482  0.1409  0.4071  1.9046
  839MOL0     H10748   3.296  10.169   0.598 -2.0315 -1.3069  1.5764
  840MOL0     O10749   4.454   7.676   3.688 -0.5631 -0.2036 -0.6658
  840MOL0     C10750   4.422   7.692   3.574 -0.0859 -0.3193  1.2100
  840MOL0     O10751   4.325   7.628   3.507  1.0449  0.5866 -0.3003
  840MOL0     C10752   4.235   7.545   3.573  0.0374  0.1918  1.0157
  840MOL0     C10753   4.129   7.504   3.495  0.2573 -0.2569 -0.7641
  840MOL0     C10754   4.034   7.407   3.539  0.0266  0.9854  0.3589
  840MOL0     C10755   4.045   7.354   3.665  0.8191 -0.9792 -0.6628
  840MOL0     O10756   3.962   7.244   3.698 -0.9179 -0.3156  0.1160
  840MOL0     C10757   3.963   7.192   3.833  0.8361  0.2836  0.2044
  840MOL0     C10758   3.875   7.073   3.854 -0.3126 -0.3534 -0.2181
  840MOL0     C10759   3.736   7.109   3.892 -0.4214  0.8104 -0.8020
  840MOL0     C10760   3.648   6.982   3.875 -0.7308 -0.4486  0.7096
  840MOL0     C10761   3.508   7.028   3.924 -0.9051 -0.6118  0.2468
  840MOL0     C10762   3.419   6.897   3.942 -0.8175  0.9349  0.1658
  840MOL0     C10763   3.273   6.933   3.941  0.1514  0.5803 -0.2886
  840MOL0     C10764   3.191   6.805   3.950  0.7131  0.6965  0.2794
  840MOL0     N10765   3.045   6.833   3.934  1.4971 -0.0828  0.5430
  840MOL0     C10766   2.972   6.839   3.812 -0.1270  0.2033  0.3234
  840MOL0     C10767   2.847   6.866   3.847  0.6097  0.3955 -0.0813
  840MOL0     C10768   2.732   6.879   3.740  0.4416  0.4751 -0.1193
  840MOL0     C10769   2.590   6.922   3.788 -0.2814 -0.5519  0.3241
  840MOL0     C10770   2.507   6.826   3.862  0.1798  0.9230  0.0492
  840MOL0     C10771   2.402   6.885   3.965 -1.2232 -0.0028  0.4177
  840MOL0     O10772   2.318   6.970   3.882  0.9586  0.1492  0.4115
  840MOL0     C10773   2.186   6.984   3.926 -0.6880 -0.3174  0.6257
  840MOL0     C10774   2.091   7.022   3.836  0.3943 -0.2751 -0.0116
  840MOL0     C10775   1.952   7.039   3.867  0.3251 -0.6783 -0.0995
  840MOL0     C10776   1.907   7.030   3.999 -0.0058 -0.7939  0.5651
  840MOL0     C10777   1.767   7.069   4.038  0.9295 -0.1484  0.5343
  840MOL0     O10778   1.727   7.055   4.167 -0.6238  0.4598 -0.0276
  840MOL0     C10779   1.599   7.042   4.204  0.6228  0.6346  0.1851
  840MOL0     C10780   1.566   6.944   4.307 -0.0258 -0.8722  0.1769
  840MOL0     C10781   1.441   6.898   4.340 -1.2054 -0.5138  1.1104
  840MOL0     C10782   1.329   6.963   4.289  0.0445 -0.9470 -0.5752
  840MOL0     O10783   1.205   6.921   4.327 -0.6507 -0.2032 -0.0978
  840MOL0     C10784   1.102   7.022   4.303  0.8610  0.9756 -0.2465
  840MOL0     C10785   0.966   6.945   4.328  0.0473 -0.8597  0.0943
  840MOL0     C10786   0.835   7.020   4.293  0.0282 -0.6501 -0.1110
  840MOL0     C10787   0.819   7.036   4.148  1.2754 -0.5166 -0.0781
  840MOL0     C10788   0.679   7.094   4.115  0.6281  1.0198 -0.0557
  840MOL0     C10789   0.673   7.131   3.962  0.3667  0.1722 -0.1227
  840MOL0     C10790   0.688   7.009   3.871 -0.4555 -0.7088  0.1733
  840MOL0     C10791   0.665   7.031   3.723  0.5075  0.5808  0.3129
  840MOL0    Cl10792   0.486   7.000   3.689 -0.1089 -0.1676 -0.2498
  840MOL0     C10793   1.356   7.065   4.194 -0.5004 -0.6500 -0.2225
  840MOL0     C10794   1.485   7.098   4.152  0.1930  0.0157 -0.7079
  840MOL0     O10795   1.699   7.111   3.943 -0.0814 -0.5128  0.7326
  840MOL0     C10796   2.007   6.999   4.086 -0.7475 -0.3384 -0.7560
  840MOL0     C10797   2.143   6.976   4.061  1.4415  1.4039  0.5746
  840MOL0     N10798   2.841   6.859   3.987 -0.5258 -0.6510 -0.4130
  840MOL0     N10799   2.952   6.836   4.041 -0.0844  0.4822 -0.0915
  840MOL0     C10800   4.139   7.401   3.756 -0.3475 -0.5452  0.1384
  840MOL0     C10801   4.237   7.494   3.702  0.1864 -0.6551  0.7036
  840MOL0     C10802   4.526   7.769   3.502 -0.2115 -0.3815  0.7860
  840MOL0     C10803   4.628   7.860   3.557 -0.4500 -0.1012 -0.2762
  840MOL0     C10804   4.699   7.942   3.473 -0.7458  0.1126  0.5616
  840MOL0     C10805   4.685   7.944   3.329  0.1565 -0.2485 -0.2507
  840MOL0     O10806   4.766   8.017   3.242 -0.7426  0.7164 -0.4159
  840MOL0     C10807   4.898   8.063   3.290  0.1763  0.0881 -0.1996
  840MOL0     C10808   4.973   8.127   3.173 -0.0624  0.2674  0.5984
  840MOL0     C10809   4.982   8.037   3.050 -0.9571  0.0858  0.9626
  840MOL0     C10810   5.097   8.070   2.951 -0.5227  0.9379 -0.5289
  840MOL0     C10811   5.104   8.211   2.920  0.3788  0.9557 -0.2105
  840MOL0     C10812   5.132   8.325   2.891  0.6146  0.6423  0.3857
  840MOL0     C10813   4.598   7.846   3.281 -0.8165 -0.2557  0.4039
  840MOL0     C10814   4.524   7.765   3.366 -0.0653 -1.0376 -0.1499
  840MOL0     H10815   4.113   7.547   3.397  1.7641 -1.7857 -1.7410
  840MOL0     H10816   3.955   7.366   3.477  1.2520 -0.3623 -0.3676
  840MOL0     H10817   3.937   7.263   3.912 -0.8993 -0.7340  0.5935
  840MOL0     H10818   4.065   7.154   3.844  0.4442 -0.2822  2.3023
  840MOL0     H10819   3.919   7.006   3.928  0.8123  1.6668  1.0585
  840MOL0     H10820   3.878   7.013   3.763  0.5501 -1.8399  0.7687
  840MOL0     H10821   3.701   7.197   3.835 -1.9874  0.7479  0.0249
  840MOL0     H10822   3.733   7.140   3.996  0.4644 -0.8468 -0.2566
  840MOL0     H10823   3.644   6.948   3.771 -2.7685  0.7543  0.3470
  840MOL0     H10824   3.688   6.894   3.928 -5.6741 -3.5949 -0.1581
  840MOL0     H10825   3.470   7.106   3.857  0.0184 -0.9290 -0.6653
  840MOL0     H10826   3.514   7.074   4.023 -2.0065  0.7575 -0.2905
  840MOL0     H10827   3.453   6.852   4.036 -0.0144  2.9386  0.9002
  840MOL0     H10828   3.458   6.837   3.859 -0.8961  0.4866  0.4519
  840MOL0     H10829   3.262   6.986   4.035  2.8110  0.7738 -0.0135
  840MOL0     H10830   3.254   6.995   3.853 -1.8702  2.6210  1.4872
  840MOL0     H10831   3.195   6.747   4.043 -1.9125 -2.4246 -1.3379
  840MOL0     H10832   3.227   6.743   3.868  1.5647  0.3962  0.8629
  840MOL0     H10833   3.018   6.825   3.714  0.4874  0.6193  0.5486
  840MOL0     H10834   2.708   6.781   3.698 -0.6686  0.7907 -0.2580
  840MOL0     H10835   2.760   6.941   3.654  4.6059 -3.6329 -2.1328
  840MOL0     H10836   2.530   6.960   3.705 -0.6821  0.4862  1.0611
  840MOL0     H10837   2.606   7.012   3.849  2.1232 -1.2689  0.8588
  840MOL0     H10838   2.450   6.771   3.788  0.3909  2.7231 -1.5223
  840MOL0     H10839   2.571   6.755   3.916  2.0043  4.1209  2.5018
  840MOL0     H10840   2.461   6.947   4.034  2.4468 -0.6575 -1.8356
  840MOL0     H10841   2.357   6.795   4.007  0.9012 -0.6247  1.5311
  840MOL0     H10842   2.116   7.025   3.730  1.1698 -2.6849  0.0207
  840MOL0     H10843   1.888   7.071   3.785  0.7069 -0.7925 -0.4444
  840MOL0     H10844   1.652   6.905   4.361  1.1809  2.5358  0.9573
  840MOL0     H10845   1.445   6.808   4.400  1.1975 -0.6509  0.8315
  840MOL0     H10846   1.106   7.058   4.200 -2.3558 -3.8598 -2.4423
  840MOL0     H10847   1.093   7.103   4.376  1.2450  1.2109 -0.4546
  840MOL0     H10848   0.951   6.904   4.428 -0.6708 -0.3596  0.2019
  840MOL0     H10849   0.970   6.859   4.260 -0.8340 -1.1254  0.3743
  840MOL0     H10850   0.826   7.114   4.348  0.9822 -1.8378  2.2264
  840MOL0     H10851   0.748   6.960   4.323 -1.2462  1.4197  0.5019
  840MOL0     H10852   0.896   7.109   4.118  1.4692 -0.1353  1.2754
  840MOL0     H10853   0.835   6.939   4.101 -2.1431 -1.5926  0.7438
  840MOL0     H10854   0.670   7.185   4.175  0.7383 -0.6997  2.7232
  840MOL0     H10855   0.599   7.030   4.153 -2.2643  2.8333 -2.5600
  840MOL0     H10856   0.752   7.203   3.939  0.6272 -0.4823 -1.3485
  840MOL0     H10857   0.567   7.158   3.955 -0.0622 -1.7052 -1.7365
  840MOL0     H10858   0.786   6.961   3.870  0.3307  0.7573 -2.5468
  840MOL0     H10859   0.606   6.947   3.909 -2.4365  1.0467 -1.0291
  840MOL0     H10860   0.715   6.952   3.666  0.8143  1.6702 -0.9831
  840MOL0     H10861   0.705   7.127   3.690  0.5227  1.2322  2.1479
  840MOL0     H10862   1.277   7.126   4.151 -1.1145 -1.7165 -0.6541
  840MOL0     H10863   1.486   7.174   4.075 -0.3307  0.1928 -0.5467
  840MOL0     H10864   1.975   6.996   4.190 -1.0442  1.8756 -0.7362
  840MOL0     H10865   2.210   6.942   4.139  2.7869  0.5747 -0.8804
  840MOL0     H10866   4.145   7.362   3.858 -0.7766 -1.4298 -0.1701
  840MOL0     H10867   4.305   7.520   3.783  2.2037  1.1613 -1.4270
  840MOL0     H10868   4.660   7.859   3.661  0.1058  0.7388 -0.4248
  840MOL0     H10869   4.766   8.019   3.508 -1.4337  2.6431 -3.0928
  840MOL0     H10870   4.955   7.978   3.326 -0.8502 -0.4900  0.1025
  840MOL0     H10871   4.882   8.135   3.371  0.9379 -1.1247  1.0689
  840MOL0     H10872   4.924   8.217   3.135  3.4138  0.7744 -3.4366
  840MOL0     H10873   5.074   8.161   3.199 -0.7120  2.6357  0.1956
  840MOL0     H10874   4.890   8.035   2.991 -1.0635 -1.1026  1.1484
  840MOL0     H10875   5.000   7.935   3.086 -3.3675 -1.3462 -1.4534
  840MOL0     H10876   5.198   8.048   2.986  0.0731  0.4472 -2.4372
  840MOL0     H10877   5.092   8.016   2.856  2.9064  1.7889 -1.3462
  840MOL0     H10878   5.165   8.421   2.857  2.1242 -0.7023 -2.2799
  840MOL0     H10879   4.586   7.844   3.173 -0.1484 -3.7150  0.2911
  840MOL0     H10880   4.458   7.702   3.306 -0.6049 -0.2300 -0.4169
  841MOL0     O10881   4.398   2.516   5.224 -0.3696  0.3360  0.4143
  841MOL0     C10882   4.406   2.435   5.127 -0.0782 -0.3042  0.6203
  841MOL0     O10883   4.301   2.372   5.062  0.9475 -0.2421 -0.8122
  841MOL0     C10884   4.171   2.398   5.091 -0.7855  0.1123 -0.0026
  841MOL0     C10885   4.089   2.384   4.977  0.1424 -0.3139  0.0536
  841MOL0     C10886   3.953   2.396   4.992  1.1668  0.2420  0.8723
  841MOL0     C10887   3.896   2.442   5.109  0.3216  0.4001  0.8043
  841MOL0     O10888   3.762   2.455   5.128 -0.7290  0.3109 -0.5268
  841MOL0     C10889   3.670   2.424   5.032 -1.1747 -0.1734  0.3557
  841MOL0     C10890   3.551   2.481   5.092  0.3739 -0.3465 -0.7931
  841MOL0     C10891   3.413   2.437   5.044 -0.1209  1.1984  0.4423
  841MOL0     C10892   3.306   2.471   5.134 -0.4425  0.2170 -0.1814
  841MOL0     C10893   3.163   2.434   5.089 -0.3497 -0.8179 -0.7285
  841MOL0     C10894   3.061   2.504   5.164 -0.4301 -1.0763 -0.8106
  841MOL0     C10895   2.919   2.485   5.118  0.6010  0.7837 -0.3801
  841MOL0     C10896   2.818   2.524   5.229  0.3534  0.0729  1.1443
  841MOL0     N10897   2.686   2.544   5.167 -0.2052 -0.6383 -0.6288
  841MOL0     C10898   2.587   2.450   5.186  0.4642  0.0066 -0.5808
  841MOL0     C10899   2.474   2.510   5.132  0.1232  0.5222 -0.0049
  841MOL0     C10900   2.342   2.434   5.115 -0.7901  0.1758 -0.4574
  841MOL0     C10901   2.231   2.508   5.058  0.3699  0.2638  0.6521
  841MOL0     C10902   2.186   2.632   5.140  0.1336 -0.1407  0.1228
  841MOL0     C10903   2.076   2.709   5.076 -0.5968  0.4843 -0.8361
  841MOL0     O10904   1.961   2.623   5.062  0.1461  0.3009  0.5923
  841MOL0     C10905   1.841   2.672   5.013  0.3172  0.5657  0.0920
  841MOL0     C10906   1.727   2.606   5.067  0.9617 -0.9175 -0.5823
  841MOL0     C10907   1.602   2.654   5.021 -0.6348 -0.7090 -0.2991
  841MOL0     C10908   1.588   2.752   4.916 -0.1394  0.1416 -0.8682
  841MOL0     C10909   1.453   2.795   4.877  0.6056  0.2428 -0.5118
  841MOL0     O10910   1.354   2.704   4.906  0.3594  0.0687  1.0234
  841MOL0     C10911   1.222   2.733   4.876 -0.1196 -0.0198  0.6689
  841MOL0     C10912   1.135   2.688   4.962  0.1768 -0.7748  0.6200
  841MOL0     C10913   1.000   2.719   4.942  0.0986 -0.0794  0.5118
  841MOL0     C10914   0.952   2.793   4.833  0.2745 -0.1568 -0.7226
  841MOL0     O10915   0.820   2.843   4.825  0.2770 -0.3156  0.3442
  841MOL0     C10916   0.719   2.807   4.916  0.2796  0.5240 -0.0716
  841MOL0     C10917   0.610   2.907   4.883 -0.2753  0.2428  0.0678
  841MOL0     C10918   0.508   2.922   4.998 -0.4886 -0.5105 -0.1054
  841MOL0     C10919   0.404   2.809   5.006 -0.3093 -0.1831  0.5050
  841MOL0     C10920   0.289   2.837   4.911  0.2657 -0.4170  1.3073
  841MOL0     C10921   0.194   2.722   4.914  1.3834  1.4895  0.2799
  841MOL0     C10922   0.084   2.730   4.811  0.4558  0.4473 -1.0635
  841MOL0     C10923  -0.043   2.810   4.857  0.3116  0.3580  0.8109
  841MOL0    Cl10924  -0.156   2.800   4.726 -0.1419 -0.5824 -0.5448
  841MOL0     C10925   1.047   2.841   4.741 -0.1704  0.1204 -0.8093
  841MOL0     C10926   1.184   2.802   4.758 -0.8804 -1.6564  0.1123
  841MOL0     O10927   1.437   2.904   4.833 -0.8326 -1.3037  0.1477
  841MOL0     C10928   1.708   2.811   4.868 -0.7544  0.8122 -0.4839
  841MOL0     C10929   1.828   2.775   4.916 -0.0481  0.0311 -0.6745
  841MOL0     N10930   2.518   2.634   5.078 -0.0171 -0.5727 -0.1982
  841MOL0     N10931   2.641   2.650   5.110 -0.0334 -0.1438  0.3881
  841MOL0     C10932   3.975   2.473   5.217  0.9907  0.4319 -0.7883
  841MOL0     C10933   4.109   2.445   5.211 -1.3814 -0.2397 -0.0405
  841MOL0     C10934   4.547   2.401   5.090  0.1024 -0.6017  0.6028
  841MOL0     C10935   4.661   2.478   5.133  0.6411 -0.0716  0.5113
  841MOL0     C10936   4.790   2.438   5.081  0.0249 -0.4875 -0.2434
  841MOL0     C10937   4.806   2.331   4.994  0.1466  0.6261 -0.6233
  841MOL0     O10938   4.924   2.285   4.947 -0.6596 -0.3749  0.6413
  841MOL0     C10939   5.005   2.362   4.845  0.2832 -0.1119 -0.3891
  841MOL0     C10940   5.151   2.383   4.867  0.0621  0.1213  0.5764
  841MOL0     C10941   5.202   2.511   4.795 -0.3289 -0.1908  0.5117
  841MOL0     C10942   5.349   2.550   4.821 -0.0863  0.0686 -0.2785
  841MOL0     C10943   5.436   2.437   4.841 -0.1206  0.4149 -0.2375
  841MOL0     C10944   5.509   2.346   4.856 -0.1826  0.4061  0.1406
  841MOL0     C10945   4.694   2.268   4.953  0.4429 -0.2072  0.1497
  841MOL0     C10946   4.569   2.293   5.002  0.0133 -0.0624  0.3509
  841MOL0     H10947   4.141   2.350   4.887  0.5155 -1.4761  0.6883
  841MOL0     H10948   3.887   2.373   4.909 -0.5733  4.0095  0.9678
  841MOL0     H10949   3.668   2.316   5.016 -0.6369 -0.0632 -0.4984
  841MOL0     H10950   3.692   2.482   4.942 -1.4920 -3.4125 -1.9510
  841MOL0     H10951   3.555   2.590   5.099 -2.7675 -0.1404 -0.7509
  841MOL0     H10952   3.550   2.444   5.196 -2.5272  1.2522 -0.1549
  841MOL0     H10953   3.412   2.328   5.047 -0.6765  1.0467 -2.6842
  841MOL0     H10954   3.385   2.464   4.942 -2.4546  0.5307  0.8402
  841MOL0     H10955   3.323   2.418   5.228  1.1440 -1.1015 -1.1611
  841MOL0     H10956   3.306   2.578   5.158 -0.0232  0.6837 -2.1400
  841MOL0     H10957   3.143   2.328   5.107  2.3456 -1.0973  1.2684
  841MOL0     H10958   3.146   2.469   4.987 -3.7268  0.7531  0.2404
  841MOL0     H10959   3.086   2.611   5.171 -3.6635 -0.2998  3.5392
  841MOL0     H10960   3.054   2.460   5.264 -2.8840 -1.8721 -1.2524
  841MOL0     H10961   2.900   2.544   5.028  0.0427 -1.2683 -1.6801
  841MOL0     H10962   2.901   2.380   5.096 -0.2228  0.7177  0.5305
  841MOL0     H10963   2.845   2.621   5.273  3.2502 -0.1217  0.0391
  841MOL0     H10964   2.803   2.455   5.313 -0.7062 -0.9763  0.1197
  841MOL0     H10965   2.587   2.352   5.232 -0.9819  0.1376 -0.2624
  841MOL0     H10966   2.308   2.402   5.213 -0.3341  1.8473  0.2966
  841MOL0     H10967   2.354   2.343   5.056 -0.9046 -0.0668 -0.1035
  841MOL0     H10968   2.148   2.440   5.038  0.1566  0.9024 -0.7967
  841MOL0     H10969   2.266   2.552   4.964 -0.7210  1.4554  0.7818
  841MOL0     H10970   2.149   2.586   5.233 -0.8234 -2.5107 -1.3414
  841MOL0     H10971   2.275   2.691   5.161  3.4303 -3.8967 -1.8892
  841MOL0     H10972   2.099   2.737   4.973 -1.9132 -1.4054 -1.6977
  841MOL0     H10973   2.053   2.802   5.128 -1.9854 -0.2543 -0.0548
  841MOL0     H10974   1.732   2.526   5.141  1.8724  1.8291  2.5890
  841MOL0     H10975   1.518   2.616   5.079 -1.9463 -1.5342 -2.5946
  841MOL0     H10976   1.173   2.650   5.056  0.3788  2.2985  1.9170
  841MOL0     H10977   0.929   2.700   5.022  0.3671  0.5306  0.8965
  841MOL0     H10978   0.755   2.827   5.018  1.6679  0.1459 -0.4665
  841MOL0     H10979   0.685   2.703   4.915 -0.7613  0.8508  0.1461
  841MOL0     H10980   0.572   2.874   4.786  1.2337 -0.6461 -0.2547
  841MOL0     H10981   0.660   3.005   4.881 -0.1659  0.1774 -0.5530
  841MOL0     H10982   0.450   3.014   4.988  0.7083  0.1616 -1.1330
  841MOL0     H10983   0.559   2.934   5.094  0.9103 -0.6402 -0.8028
  841MOL0     H10984   0.458   2.716   4.983  2.1517  1.5540 -1.2304
  841MOL0     H10985   0.355   2.800   5.104 -3.1462 -0.0768 -0.8083
  841MOL0     H10986   0.325   2.851   4.808  0.5514  0.5610  1.5261
  841MOL0     H10987   0.241   2.931   4.941 -4.0138 -1.7504 -0.6203
  841MOL0     H10988   0.159   2.702   5.015  0.2161  2.1749  0.0278
  841MOL0     H10989   0.247   2.630   4.887 -1.5573 -1.6172  3.9830
  841MOL0     H10990   0.126   2.781   4.723  2.1449  1.4587  0.2759
  841MOL0     H10991   0.048   2.633   4.777  1.1971 -0.9228  1.8244
  841MOL0     H10992  -0.006   2.913   4.867  0.8552  0.4580 -1.5052
  841MOL0     H10993  -0.088   2.763   4.944  1.6932 -0.0691  1.3171
  841MOL0     H10994   1.005   2.892   4.655  0.4045  0.3168 -0.9781
  841MOL0     H10995   1.259   2.822   4.682  1.8658 -0.4422  2.9202
  841MOL0     H10996   1.691   2.875   4.782  0.6797 -0.6085 -1.8945
  841MOL0     H10997   1.911   2.827   4.869  1.3084 -0.1671  1.3802
  841MOL0     H10998   3.924   2.487   5.312 -2.2129 -0.5791 -2.2297
  841MOL0     H10999   4.168   2.445   5.302  0.4806 -0.8971 -1.1691
  841MOL0     H11000   4.658   2.558   5.206  4.4968 -0.0698  0.8632
  841MOL0     H11001   4.878   2.487   5.120 -0.2606 -0.7960  0.8422
  841MOL0     H11002   4.969   2.465   4.836  1.9754  0.5669  0.1682
  841MOL0     H11003   4.979   2.308   4.753 -3.6129 -2.3590  1.7500
  841MOL0     H11004   5.185   2.392   4.971 -0.1837  0.7867  0.6004
  841MOL0     H11005   5.202   2.299   4.819  0.7211  0.1450  1.2169
  841MOL0     H11006   5.135   2.595   4.816 -1.1093 -0.3980 -0.9886
  841MOL0     H11007   5.202   2.492   4.687 -0.0041  1.4841  0.1882
  841MOL0     H11008   5.382   2.607   4.734  1.4214 -0.1470  0.1226
  841MOL0     H11009   5.348   2.617   4.907  0.6568 -2.4750  1.8582
  841MOL0     H11010   5.578   2.265   4.867 -1.4383 -0.6529  0.5466
  841MOL0     H11011   4.713   2.197   4.874  0.7002  0.9014 -0.8176
  841MOL0     H11012   4.491   2.233   4.956  1.2109 -0.8468 -0.7408
  842MOL0     O11013   7.108   3.363   5.485 -0.0537  0.4407  0.0732
  842MOL0     C11014   7.185   3.403   5.571 -0.4103 -0.1047  1.0591
  842MOL0     O11015   7.152   3.482   5.676  0.3320 -0.4155 -0.5495
  842MOL0     C11016   7.023   3.525   5.699  0.2319 -1.0559  0.8647
  842MOL0     C11017   6.989   3.647   5.640 -0.1268 -0.5754 -0.3339
  842MOL0     C11018   6.859   3.682   5.662  0.0698  0.3843  0.0919
  842MOL0     C11019   6.765   3.601   5.728  0.5303  0.2115  0.6479
  842MOL0     O11020   6.635   3.650   5.741 -0.7537  0.1770  0.0731
  842MOL0     C11021   6.520   3.557   5.748 -0.5212 -0.1736 -0.3631
  842MOL0     C11022   6.393   3.632   5.709  0.2232 -0.3845  0.6206
  842MOL0     C11023   6.264   3.544   5.722 -0.5868 -0.2234 -0.0634
  842MOL0     C11024   6.151   3.604   5.643  0.2920 -0.2728 -0.0315
  842MOL0     C11025   6.018   3.523   5.645  0.1201 -0.6649  0.2106
  842MOL0     C11026   5.907   3.625   5.644  0.0605  0.6050 -0.5419
  842MOL0     C11027   5.778   3.544   5.621  0.0707  0.4571 -0.2466
  842MOL0     C11028   5.651   3.611   5.662 -0.2249 -0.7513 -0.2254
  842MOL0     N11029   5.538   3.554   5.596 -0.0317  0.7143 -0.3608
  842MOL0     C11030   5.501   3.546   5.458 -0.9030  0.3407 -0.9962
  842MOL0     C11031   5.369   3.495   5.451  0.0618  0.5919 -0.2519
  842MOL0     C11032   5.298   3.454   5.326  0.3148  0.2108 -0.3762
  842MOL0     C11033   5.168   3.530   5.302 -0.4856 -0.0179  1.1172
  842MOL0     C11034   5.125   3.494   5.161 -0.4780 -0.4416  0.5273
  842MOL0     C11035   4.997   3.572   5.122 -0.5634  0.4573 -0.1737
  842MOL0     O11036   4.892   3.506   5.191  0.1200 -0.2929  0.5029
  842MOL0     C11037   4.789   3.465   5.116 -0.1226 -1.1840 -0.4316
  842MOL0     C11038   4.726   3.349   5.153 -0.0688  0.6271  0.4919
  842MOL0     C11039   4.604   3.318   5.095 -0.1876 -0.2632  0.0271
  842MOL0     C11040   4.540   3.386   4.993 -0.0367 -0.1095 -0.8805
  842MOL0     C11041   4.423   3.340   4.919 -0.7050 -0.9268  0.1235
  842MOL0     O11042   4.366   3.422   4.822 -0.2776 -0.0931 -0.6486
  842MOL0     C11043   4.243   3.395   4.767 -0.3990  1.6312  1.0339
  842MOL0     C11044   4.142   3.493   4.782 -0.7671 -0.7173 -0.8191
  842MOL0     C11045   4.009   3.467   4.744 -0.3995  0.0569 -0.0102
  842MOL0     C11046   3.968   3.341   4.691 -0.3141  0.3220 -0.2789
  842MOL0     O11047   3.840   3.327   4.643 -0.5722 -0.1181  0.2484
  842MOL0     C11048   3.807   3.222   4.550  0.0413  0.2354  1.0481
  842MOL0     C11049   3.685   3.251   4.460  0.5833  0.3078 -1.1704
  842MOL0     C11050   3.560   3.220   4.533 -0.4190 -0.0830  0.3185
  842MOL0     C11051   3.433   3.285   4.480  0.1011 -0.2507  0.1246
  842MOL0     C11052   3.314   3.239   4.571  0.1779 -0.5722 -0.1205
  842MOL0     C11053   3.175   3.285   4.506  0.4501 -0.1459 -0.2320
  842MOL0     C11054   3.055   3.249   4.589 -0.1513  0.4942 -0.5201
  842MOL0     C11055   2.940   3.272   4.497  0.1700  0.7412 -0.3692
  842MOL0    Cl11056   2.791   3.218   4.579  0.1471  0.4300 -0.0468
  842MOL0     C11057   4.072   3.248   4.682 -0.0847 -0.4310  0.9005
  842MOL0     C11058   4.205   3.272   4.724 -0.0030 -0.2282 -0.1237
  842MOL0     O11059   4.368   3.237   4.962 -0.9052  0.5836  0.6262
  842MOL0     C11060   4.611   3.493   4.952 -0.2227 -0.6943  0.7164
  842MOL0     C11061   4.726   3.545   5.016 -0.3434 -0.4099 -0.9852
  842MOL0     N11062   5.330   3.467   5.580  0.0848 -0.3785 -0.0171
  842MOL0     N11063   5.429   3.503   5.661  0.3853  0.1526 -0.2071
  842MOL0     C11064   6.806   3.482   5.779  0.7588  0.8919  0.7581
  842MOL0     C11065   6.938   3.447   5.769 -0.5124  1.0915 -0.4094
  842MOL0     C11066   7.330   3.376   5.548  0.0855 -0.0577  0.8939
  842MOL0     C11067   7.370   3.296   5.444  0.2647  0.0528  0.7180
  842MOL0     C11068   7.502   3.279   5.416 -1.0328  0.3826 -0.5364
  842MOL0     C11069   7.597   3.339   5.498 -0.8536 -0.7259  0.6903
  842MOL0     O11070   7.728   3.315   5.474 -0.0916 -0.4080  1.0082
  842MOL0     C11071   7.843   3.357   5.560  0.3665  0.1928  0.2747
  842MOL0     C11072   7.956   3.273   5.510  0.3885 -0.9001 -0.0125
  842MOL0     C11073   8.000   3.317   5.359 -0.3196  0.0517 -0.3306
  842MOL0     C11074   8.126   3.266   5.296 -0.2139 -0.3078 -0.7189
  842MOL0     C11075   8.240   3.323   5.361 -0.2605 -0.7519 -0.5263
  842MOL0     C11076   8.324   3.387   5.424  0.0177 -0.2338  0.7583
  842MOL0     C11077   7.563   3.426   5.606  0.6331 -0.8998  0.3495
  842MOL0     C11078   7.430   3.455   5.626  0.1774 -0.0372 -0.0480
  842MOL0     H11079   7.057   3.723   5.602  0.3251 -0.0971  1.3529
  842MOL0     H11080   6.827   3.778   5.622 -0.4489  1.3878  2.7640
  842MOL0     H11081   6.519   3.516   5.850 -0.6329  0.9263  0.0968
  842MOL0     H11082   6.539   3.473   5.682  1.8244  0.4728 -0.6258
  842MOL0     H11083   6.403   3.658   5.604 -1.7291  2.3136  0.9959
  842MOL0     H11084   6.375   3.728   5.759  0.2299 -0.1390  0.1550
  842MOL0     H11085   6.228   3.523   5.823 -0.8690 -1.1915 -0.3536
  842MOL0     H11086   6.280   3.448   5.673 -0.6653  0.9162 -2.4199
  842MOL0     H11087   6.137   3.712   5.657  0.9454 -0.4202  2.0575
  842MOL0     H11088   6.189   3.601   5.540 -0.9379 -1.6429 -0.4876
  842MOL0     H11089   6.013   3.456   5.731  2.5043 -1.3437 -0.0962
  842MOL0     H11090   6.016   3.452   5.562 -0.5618  0.0290 -0.3812
  842MOL0     H11091   5.906   3.704   5.568  1.7056  2.4545  1.2248
  842MOL0     H11092   5.893   3.671   5.743 -0.8294 -0.2736 -0.2394
  842MOL0     H11093   5.781   3.536   5.512  2.3753 -1.4328 -0.1394
  842MOL0     H11094   5.771   3.445   5.668 -0.7593  2.0412  3.2748
  842MOL0     H11095   5.648   3.719   5.646 -1.1815 -0.7588 -0.1606
  842MOL0     H11096   5.643   3.599   5.771 -0.4386 -3.4983 -0.4651
  842MOL0     H11097   5.562   3.570   5.371  5.0087  1.3021  2.8276
  842MOL0     H11098   5.273   3.348   5.335  0.4959  0.2172  0.3192
  842MOL0     H11099   5.367   3.460   5.242  1.7058 -0.3899  0.6877
  842MOL0     H11100   5.183   3.638   5.311 -0.4476 -0.0629  1.6122
  842MOL0     H11101   5.088   3.504   5.371 -2.3890 -2.3024 -1.7277
  842MOL0     H11102   5.215   3.505   5.101  0.0721 -0.3372  1.3488
  842MOL0     H11103   5.100   3.388   5.163  0.8111 -0.7509  0.9107
  842MOL0     H11104   4.974   3.567   5.015 -1.4478  1.8745 -0.0785
  842MOL0     H11105   5.007   3.676   5.155  2.2035 -0.0312  0.7834
  842MOL0     H11106   4.762   3.291   5.237 -0.1667 -1.6970 -0.9915
  842MOL0     H11107   4.548   3.233   5.134 -1.9560  0.5100 -0.7780
  842MOL0     H11108   4.165   3.594   4.814 -2.1784 -1.2737  2.3290
  842MOL0     H11109   3.946   3.553   4.767  1.0063  0.9799  0.5129
  842MOL0     H11110   3.788   3.134   4.613 -2.8104 -0.1981 -0.2542
  842MOL0     H11111   3.890   3.220   4.479  1.6621  1.8486  2.7914
  842MOL0     H11112   3.687   3.190   4.369  0.6884  0.5424 -1.3292
  842MOL0     H11113   3.688   3.358   4.437  2.5032  0.6019  0.2438
  842MOL0     H11114   3.574   3.273   4.627  2.4683  1.1526 -0.7176
  842MOL0     H11115   3.539   3.113   4.546  0.5781 -0.1203  1.7912
  842MOL0     H11116   3.448   3.393   4.484  2.4297 -0.5523  0.8090
  842MOL0     H11117   3.418   3.255   4.376 -0.3131  1.1357 -0.2294
  842MOL0     H11118   3.324   3.287   4.669 -1.2640 -0.0876 -0.1856
  842MOL0     H11119   3.311   3.130   4.572 -2.3970 -0.5813 -1.3234
  842MOL0     H11120   3.169   3.246   4.404 -0.6092  0.5350 -0.4458
  842MOL0     H11121   3.171   3.393   4.490  1.6126 -0.4263 -2.8176
  842MOL0     H11122   3.057   3.139   4.596  0.7961  0.5223 -0.0895
  842MOL0     H11123   3.038   3.297   4.686  3.0522 -0.6198  0.7614
  842MOL0     H11124   2.933   3.205   4.412 -2.9456 -1.9765  1.7858
  842MOL0     H11125   2.930   3.376   4.464 -0.0012  0.1177 -2.4409
  842MOL0     H11126   4.054   3.152   4.633 -3.1203  1.4773 -2.1354
  842MOL0     H11127   4.273   3.192   4.698  2.8773  1.4135  1.6960
  842MOL0     H11128   4.573   3.543   4.864 -2.2523 -0.6733  1.5287
  842MOL0     H11129   4.771   3.628   4.962 -0.6674 -0.0608 -0.7303
  842MOL0     H11130   6.740   3.421   5.840 -2.3409 -1.5777 -4.3975
  842MOL0     H11131   6.970   3.349   5.802 -0.7228  1.7658  1.9652
  842MOL0     H11132   7.304   3.224   5.397  0.5815 -1.5920  2.6795
  842MOL0     H11133   7.536   3.212   5.337  0.2050  2.4727 -1.8582
  842MOL0     H11134   7.833   3.342   5.668  1.5925  1.1204  0.5514
  842MOL0     H11135   7.852   3.465   5.544  0.5033 -0.1652 -2.5569
  842MOL0     H11136   8.034   3.291   5.584  0.5539  1.3157 -0.6497
  842MOL0     H11137   7.915   3.172   5.509  1.5044 -1.3670 -0.0620
  842MOL0     H11138   8.016   3.424   5.370 -1.5469  0.3408 -1.1845
  842MOL0     H11139   7.915   3.296   5.292  0.6839  3.0849 -2.8303
  842MOL0     H11140   8.136   3.159   5.314 -0.8462  0.1715  3.4551
  842MOL0     H11141   8.126   3.268   5.187  1.7613 -2.8225 -0.8509
  842MOL0     H11142   8.398   3.451   5.468  0.5363 -1.0823  1.1480
  842MOL0     H11143   7.634   3.487   5.662 -0.5662  1.7273 -0.7973
  842MOL0     H11144   7.391   3.524   5.700 -1.1532  0.5104 -1.2119
  843MOL0     O11145   1.133   4.358  10.821 -0.2824  0.5721  0.2870
  843MOL0     C11146   1.133   4.278  10.725  0.4903 -1.0903 -0.3480
  843MOL0     O11147   1.032   4.269  10.630  0.4390  0.2728 -0.0020
  843MOL0     C11148   0.905   4.318  10.664 -0.2880  0.6949 -0.4028
  843MOL0     C11149   0.842   4.276  10.786 -0.3570 -0.0964  0.0225
  843MOL0     C11150   0.707   4.289  10.801 -0.6434 -0.2181  0.5677
  843MOL0     C11151   0.625   4.367  10.719 -0.3821  0.4441 -0.0110
  843MOL0     O11152   0.495   4.376  10.734  0.3383 -0.0469  0.9729
  843MOL0     C11153   0.453   4.492  10.813 -0.4076  0.2004 -0.3810
  843MOL0     C11154   0.368   4.435  10.931  0.6262 -0.0748 -0.7050
  843MOL0     C11155   0.232   4.368  10.896  0.2426  0.3346  0.3918
  843MOL0     C11156   0.158   4.312  11.011 -0.6485  0.3949  0.9225
  843MOL0     C11157   0.017   4.283  10.972 -0.3058  0.1445 -0.2589
  843MOL0     C11158   0.019   4.137  10.902  0.2050  0.2830 -0.1571
  843MOL0     C11159  -0.115   4.067  10.908  0.1583  1.1552 -0.2887
  843MOL0     C11160  -0.157   4.039  11.054  0.5805  0.2922  0.2236
  843MOL0     N11161  -0.246   3.928  11.048  0.5907 -0.5661  0.0205
  843MOL0     C11162  -0.368   3.940  10.978  0.1220 -0.0132  0.4509
  843MOL0     C11163  -0.430   3.821  11.011 -0.3517 -0.6404 -0.0334
  843MOL0     C11164  -0.553   3.773  10.937 -1.0805  0.5224 -1.1453
  843MOL0     C11165  -0.513   3.718  10.805 -0.2223 -0.4819 -0.3427
  843MOL0     C11166  -0.627   3.638  10.747 -0.5897  0.1751 -0.2709
  843MOL0     C11167  -0.612   3.645  10.594  0.1880 -0.5193  0.3641
  843MOL0     O11168  -0.623   3.783  10.547  0.2338  0.0028  0.3784
  843MOL0     C11169  -0.739   3.854  10.554  0.0112  0.8873 -0.5678
  843MOL0     C11170  -0.739   3.973  10.622 -0.6814 -0.1298 -0.1657
  843MOL0     C11171  -0.855   4.043  10.636 -0.2450  0.2005 -0.3022
  843MOL0     C11172  -0.980   3.993  10.586 -0.0785 -0.4988  0.1215
  843MOL0     C11173  -1.105   4.069  10.611 -1.2168 -0.5233 -0.2741
  843MOL0     O11174  -1.087   4.184  10.680  0.0940 -0.3223  0.3952
  843MOL0     C11175  -1.192   4.269  10.729 -0.4545  0.3345 -0.2022
  843MOL0     C11176  -1.291   4.213  10.819  1.0379 -1.1290 -0.1178
  843MOL0     C11177  -1.413   4.281  10.847 -1.2038 -0.2228 -0.5473
  843MOL0     C11178  -1.436   4.407  10.791 -0.2528  0.1171  0.4062
  843MOL0     O11179  -1.553   4.485  10.806  0.0133  0.3861 -0.8347
  843MOL0     C11180  -1.633   4.448  10.914  0.1341 -0.5306 -0.3551
  843MOL0     C11181  -1.711   4.574  10.942  0.3737 -0.1073  0.4936
  843MOL0     C11182  -1.766   4.578  11.083  1.0549 -0.5633 -0.3467
  843MOL0     C11183  -1.810   4.444  11.154  1.1795 -0.3756 -0.1012
  843MOL0     C11184  -1.944   4.389  11.114  0.4382 -0.5667  0.8908
  843MOL0     C11185  -1.961   4.254  11.169  0.0917 -0.5005  0.2487
  843MOL0     C11186  -2.091   4.197  11.102 -0.0378  0.3356 -0.2241
  843MOL0     C11187  -2.099   4.043  11.156  0.6211 -0.5072  0.5344
  843MOL0    Cl11188  -2.244   3.968  11.087 -0.0710 -0.0066  0.0941
  843MOL0     C11189  -1.331   4.469  10.714 -0.5992  0.9123 -0.1686
  843MOL0     C11190  -1.213   4.395  10.682 -1.0560 -0.5846 -0.4448
  843MOL0     O11191  -1.214   4.034  10.567  0.7341 -0.2478 -0.2026
  843MOL0     C11192  -0.987   3.864  10.519 -0.3526 -0.3584 -0.2091
  843MOL0     C11193  -0.860   3.800  10.505  0.2239  0.1573 -0.0449
  843MOL0     N11194  -0.343   3.744  11.088 -0.1192  0.1594  0.4886
  843MOL0     N11195  -0.233   3.810  11.109 -0.0621  0.6298  0.3928
  843MOL0     C11196   0.692   4.420  10.603 -0.1235  0.9294  0.6236
  843MOL0     C11197   0.827   4.386  10.575 -0.6372 -0.0507  0.2050
  843MOL0     C11198   1.244   4.180  10.733 -1.3436  0.3886  1.0130
  843MOL0     C11199   1.306   4.130  10.846  0.5294 -0.2534  0.1463
  843MOL0     C11200   1.401   4.026  10.848  0.0026  0.2777 -0.0933
  843MOL0     C11201   1.422   3.960  10.731 -0.1651  0.3237 -0.3732
  843MOL0     O11202   1.521   3.862  10.741  0.7544 -0.1986  0.3177
  843MOL0     C11203   1.541   3.767  10.630 -0.1101 -0.7648  0.2304
  843MOL0     C11204   1.647   3.826  10.532 -0.2614  0.8231  0.6612
  843MOL0     C11205   1.782   3.811  10.590  0.3318  0.9121  0.7010
  843MOL0     C11206   1.889   3.860  10.491  0.9806  0.5915  0.3018
  843MOL0     C11207   2.030   3.848  10.536  0.8689  0.2843 -1.3421
  843MOL0     C11208   2.135   3.842  10.588 -0.1043  0.4546 -1.0392
  843MOL0     C11209   1.355   3.996  10.613 -0.2371 -0.2788 -0.4147
  843MOL0     C11210   1.264   4.104  10.614  0.9411 -0.3018  0.1043
  843MOL0     H11211   0.895   4.221  10.862  0.0121 -0.2978 -0.3770
  843MOL0     H11212   0.671   4.234  10.887  1.2985  1.7645  2.7704
  843MOL0     H11213   0.388   4.557  10.753  0.2905  0.9650 -0.3261
  843MOL0     H11214   0.528   4.565  10.846 -1.8639  1.3032  0.6651
  843MOL0     H11215   0.344   4.521  10.993  0.3169  0.8453 -2.0788
  843MOL0     H11216   0.437   4.369  10.986 -2.4485 -1.6582  1.5344
  843MOL0     H11217   0.251   4.282  10.831 -1.6441  0.0320  0.1722
  843MOL0     H11218   0.167   4.434  10.838  0.0441 -1.8452 -2.0225
  843MOL0     H11219   0.205   4.229  11.064 -1.1139 -1.1114 -0.9104
  843MOL0     H11220   0.163   4.382  11.095 -0.4237 -1.2092  2.2902
  843MOL0     H11221  -0.013   4.370  10.913  1.1296  1.0316  0.2888
  843MOL0     H11222  -0.035   4.277  11.068  0.0619  0.5344 -0.0321
  843MOL0     H11223   0.086   4.071  10.958 -1.7377 -0.4854  1.3964
  843MOL0     H11224   0.057   4.140  10.800 -1.0170 -0.3719 -0.6596
  843MOL0     H11225  -0.193   4.131  10.864  2.1204  3.4860 -0.5976
  843MOL0     H11226  -0.107   3.973  10.855  2.5350  0.0986  1.7517
  843MOL0     H11227  -0.194   4.124  11.112  1.8278  0.5222  0.6999
  843MOL0     H11228  -0.073   4.008  11.117  0.8469 -0.2606 -0.3904
  843MOL0     H11229  -0.405   4.032  10.935  0.1198 -0.3194 -0.2081
  843MOL0     H11230  -0.614   3.863  10.930 -1.3677  0.5584  1.2283
  843MOL0     H11231  -0.595   3.697  11.003 -1.2085  2.1933  0.7929
  843MOL0     H11232  -0.436   3.642  10.823 -1.4771 -1.3429  1.8322
  843MOL0     H11233  -0.484   3.795  10.733 -2.0722  0.9561  0.3537
  843MOL0     H11234  -0.605   3.539  10.788  1.6397  0.4256 -0.7188
  843MOL0     H11235  -0.726   3.666  10.785 -0.0816  0.6402  0.7669
  843MOL0     H11236  -0.685   3.584  10.539 -1.6107  0.3409  1.7043
  843MOL0     H11237  -0.512   3.618  10.560  0.7965  2.8926 -0.9746
  843MOL0     H11238  -0.647   4.004  10.671 -0.6312 -2.5915  1.4416
  843MOL0     H11239  -0.852   4.144  10.674 -0.9185  0.5038 -1.0299
  843MOL0     H11240  -1.301   4.114  10.861  0.6568 -0.5192  1.2947
  843MOL0     H11241  -1.483   4.235  10.915 -0.2416 -1.2991 -0.2502
  843MOL0     H11242  -1.573   4.416  11.000  0.2923  0.0533 -0.2418
  843MOL0     H11243  -1.701   4.366  10.889 -3.4354  1.6340  1.3580
  843MOL0     H11244  -1.801   4.570  10.880  0.8986 -1.5514 -0.2181
  843MOL0     H11245  -1.650   4.662  10.920 -0.9663  0.2654 -2.0435
  843MOL0     H11246  -1.847   4.651  11.087  3.1527  1.8566  1.8588
  843MOL0     H11247  -1.695   4.629  11.149 -2.1993  3.7383  0.2191
  843MOL0     H11248  -1.730   4.369  11.159 -0.8209 -2.6706 -0.6462
  843MOL0     H11249  -1.822   4.455  11.262  0.5527 -2.8603  0.1371
  843MOL0     H11250  -1.941   4.380  11.005 -2.2310  0.8546  0.6151
  843MOL0     H11251  -2.030   4.450  11.145  0.6868  0.1476  0.2129
  843MOL0     H11252  -1.972   4.250  11.278 -0.3536 -1.3573  0.1788
  843MOL0     H11253  -1.873   4.190  11.155  0.3280 -0.0109 -0.5488
  843MOL0     H11254  -2.182   4.246  11.138 -0.0520 -0.3714  0.7488
  843MOL0     H11255  -2.092   4.206  10.993 -1.3401  0.4634 -0.2194
  843MOL0     H11256  -2.097   4.044  11.265  1.3826 -0.6179  0.5326
  843MOL0     H11257  -2.011   3.990  11.117  1.6890  1.5700 -0.0783
  843MOL0     H11258  -1.338   4.574  10.687 -1.1156  0.8239 -0.4071
  843MOL0     H11259  -1.131   4.431  10.620 -0.4945 -0.5244  0.3198
  843MOL0     H11260  -1.078   3.814  10.488 -1.3307  1.1957  0.0636
  843MOL0     H11261  -0.844   3.709  10.448  1.6091 -0.2645  0.9920
  843MOL0     H11262   0.637   4.492  10.543 -0.2069  0.2800 -0.0933
  843MOL0     H11263   0.869   4.418  10.480 -2.1455  0.7847 -0.2136
  843MOL0     H11264   1.283   4.168  10.944  1.3800 -0.3832  0.4055
  843MOL0     H11265   1.446   3.981  10.936  0.8151 -0.7913 -1.0250
  843MOL0     H11266   1.449   3.733  10.582  1.3945 -4.0745 -0.6496
  843MOL0     H11267   1.574   3.674  10.678  0.5507  0.1767  1.6820
  843MOL0     H11268   1.641   3.766  10.441  1.8032  2.9200 -0.9782
  843MOL0     H11269   1.625   3.930  10.507  1.0181  1.5453  2.3413
  843MOL0     H11270   1.787   3.710  10.631 -1.9592  0.3208 -0.3171
  843MOL0     H11271   1.789   3.876  10.678  2.1263  0.6136  0.8235
  843MOL0     H11272   1.876   3.810  10.394  0.2106 -2.0419  1.6562
  843MOL0     H11273   1.869   3.965  10.468  1.2309  0.8178  1.0951
  843MOL0     H11274   2.237   3.843  10.622 -0.6799 -1.9704  1.0737
  843MOL0     H11275   1.382   3.963  10.513 -1.3258  3.0968 -1.9773
  843MOL0     H11276   1.215   4.129  10.521  1.1858 -0.6416 -0.1180
  844MOL0     O11277  10.851   9.021   6.409  0.3748  0.6183 -0.0852
  844MOL0     C11278  10.885   9.109   6.486  0.5830  0.3739 -1.2344
  844MOL0     O11279  10.795   9.167   6.570 -0.3003 -0.0351 -0.0852
  844MOL0     C11280  10.662   9.115   6.570 -0.4019  0.2147 -1.1073
  844MOL0     C11281  10.557   9.191   6.516 -0.6730  0.1420 -0.8005
  844MOL0     C11282  10.437   9.127   6.498  0.1651 -0.7747 -0.5720
  844MOL0     C11283  10.414   8.998   6.555 -0.7693 -0.6786  0.0275
  844MOL0     O11284  10.277   8.957   6.544  0.3693 -0.7181 -0.2842
  844MOL0     C11285  10.218   8.885   6.651  0.1854 -0.6415 -1.2421
  844MOL0     C11286  10.074   8.922   6.648  0.1497  0.5565  0.5088
  844MOL0     C11287  10.005   8.910   6.513 -0.1478 -0.7138  0.7397
  844MOL0     C11288   9.855   8.936   6.520 -1.1827  0.3257  0.2389
  844MOL0     C11289   9.828   9.092   6.541 -0.6927  0.0628  0.6996
  844MOL0     C11290   9.694   9.108   6.616 -0.9182 -0.9073 -0.1820
  844MOL0     C11291   9.572   9.025   6.552  0.2770 -0.7446 -0.5935
  844MOL0     C11292   9.563   9.048   6.397  0.0057  0.1072  0.6530
  844MOL0     N11293   9.447   8.976   6.351 -0.1669 -0.5782 -0.9336
  844MOL0     C11294   9.400   8.854   6.397  0.4105 -0.3318  0.1901
  844MOL0     C11295   9.283   8.829   6.346 -0.0667 -0.8855 -0.1425
  844MOL0     C11296   9.206   8.694   6.361  1.2193 -0.3185  0.0107
  844MOL0     C11297   9.300   8.567   6.377 -0.2239 -0.3498  0.8899
  844MOL0     C11298   9.420   8.548   6.277 -0.0010  0.2791 -0.2841
  844MOL0     C11299   9.376   8.570   6.131  0.4748 -0.5497 -0.7015
  844MOL0     O11300   9.466   8.550   6.032 -0.0820  0.6118  1.1688
  844MOL0     C11301   9.583   8.619   6.039  0.0040 -0.4446 -0.4494
  844MOL0     C11302   9.604   8.750   6.085 -0.1760 -1.0089 -0.3616
  844MOL0     C11303   9.733   8.801   6.097 -1.0089  0.1680  0.0350
  844MOL0     C11304   9.843   8.733   6.054  0.0297  0.3980 -0.0940
  844MOL0     C11305   9.979   8.795   6.054  0.1826 -0.8109  0.5738
  844MOL0     O11306   9.988   8.915   6.113  0.5209 -0.0053  1.0069
  844MOL0     C11307  10.110   8.979   6.122 -0.1898  0.4305 -0.2702
  844MOL0     C11308  10.106   9.115   6.103  0.1965 -0.5222 -0.1250
  844MOL0     C11309  10.217   9.201   6.103 -0.1911  0.1210 -0.4318
  844MOL0     C11310  10.341   9.151   6.140 -0.5904 -0.1255 -0.3372
  844MOL0     O11311  10.461   9.226   6.151 -0.4453 -0.0717  0.3630
  844MOL0     C11312  10.451   9.364   6.136  0.5751 -0.9594  0.2802
  844MOL0     C11313  10.596   9.411   6.129  0.1494  0.5251 -0.0550
  844MOL0     C11314  10.686   9.422   6.253 -0.6571 -0.0404  0.0620
  844MOL0     C11315  10.806   9.503   6.211 -0.3179  0.2879 -0.3209
  844MOL0     C11316  10.924   9.495   6.318 -0.4366 -0.3205 -0.2334
  844MOL0     C11317  10.993   9.629   6.313 -0.0355  0.1793 -0.4329
  844MOL0     C11318  11.127   9.629   6.398 -0.4638 -0.3226  0.0459
  844MOL0     C11319  11.093   9.651   6.541  0.1808 -0.6482 -0.2313
  844MOL0    Cl11320  11.226   9.696   6.648  0.3336 -0.0313  0.9861
  844MOL0     C11321  10.353   9.013   6.143 -0.0159  0.4447 -0.3009
  844MOL0     C11322  10.235   8.926   6.131  0.8141 -0.7385 -0.4200
  844MOL0     O11323  10.074   8.727   6.004 -1.1646 -0.7804  0.0712
  844MOL0     C11324   9.818   8.611   5.995 -0.0233 -1.0669 -0.3801
  844MOL0     C11325   9.694   8.552   5.994  0.0816  0.0891 -0.0602
  844MOL0     N11326   9.248   8.944   6.266 -0.8374  0.0191  1.3787
  844MOL0     N11327   9.350   9.028   6.273 -0.2944  0.1782 -0.3641
  844MOL0     C11328  10.510   8.930   6.624  0.4709 -0.2490  0.7484
  844MOL0     C11329  10.645   8.978   6.617 -0.0637 -0.5487 -0.3675
  844MOL0     C11330  11.029   9.147   6.511  0.4598  0.6697 -0.0838
  844MOL0     C11331  11.062   9.243   6.608 -0.2286  0.6191 -0.4853
  844MOL0     C11332  11.194   9.288   6.636 -0.7579 -0.2037  0.2421
  844MOL0     C11333  11.301   9.237   6.556  0.2927  0.7394  0.1367
  844MOL0     O11334  11.428   9.278   6.565 -0.6399  0.3908 -0.2277
  844MOL0     C11335  11.466   9.338   6.685 -0.9901 -0.6367 -0.1766
  844MOL0     C11336  11.620   9.362   6.685  0.7647  1.1672  0.1216
  844MOL0     C11337  11.666   9.409   6.543  0.6470 -0.4538 -0.2503
  844MOL0     C11338  11.600   9.540   6.511 -0.0815 -0.0523 -0.0142
  844MOL0     C11339  11.686   9.594   6.398  0.4977 -0.0212  1.2024
  844MOL0     C11340  11.751   9.639   6.306  0.0120  0.3863  0.0892
  844MOL0     C11341  11.265   9.131   6.462 -0.0199 -0.7756  0.0149
  844MOL0     C11342  11.128   9.086   6.438 -0.4614  0.1900 -0.0179
  844MOL0     H11343  10.586   9.294   6.495 -1.6548  0.7447  0.6176
  844MOL0     H11344  10.351   9.174   6.451 -1.0129  1.4943  3.3845
  844MOL0     H11345  10.257   8.928   6.744 -5.6478  1.6065  0.5906
  844MOL0     H11346  10.240   8.779   6.636 -1.2339 -1.2401  0.5647
  844MOL0     H11347  10.047   9.016   6.695 -0.7102 -1.0086  3.3915
  844MOL0     H11348  10.024   8.842   6.704 -0.1300 -0.3841 -1.0103
  844MOL0     H11349  10.019   8.814   6.462  0.6993 -0.6374  0.8171
  844MOL0     H11350  10.056   8.982   6.448 -1.0369 -2.1891 -1.7244
  844MOL0     H11351   9.806   8.907   6.426  2.4349 -1.3198 -1.3474
  844MOL0     H11352   9.815   8.881   6.606  1.7475 -1.1177  0.7947
  844MOL0     H11353   9.834   9.125   6.436 -0.5987 -1.1492  0.3072
  844MOL0     H11354   9.912   9.131   6.599  0.0901 -1.9821  1.0183
  844MOL0     H11355   9.678   9.216   6.629 -3.5283 -1.2723  0.1400
  844MOL0     H11356   9.709   9.066   6.716  2.4987  0.6123  0.0820
  844MOL0     H11357   9.584   8.918   6.570  1.2205 -0.3677  1.2570
  844MOL0     H11358   9.479   9.055   6.602  0.4856  0.0156 -0.6383
  844MOL0     H11359   9.651   9.003   6.351  0.5953  2.4522 -0.6484
  844MOL0     H11360   9.547   9.153   6.371 -1.5662 -0.1581  0.4588
  844MOL0     H11361   9.447   8.785   6.466  2.9693  1.0293 -0.0486
  844MOL0     H11362   9.143   8.684   6.272 -1.4027 -0.5252  1.7574
  844MOL0     H11363   9.132   8.702   6.441  2.3694 -1.8972  1.3025
  844MOL0     H11364   9.228   8.486   6.364  0.8358 -1.4129  1.4807
  844MOL0     H11365   9.351   8.573   6.473  1.3916  3.3374 -0.0382
  844MOL0     H11366   9.495   8.625   6.298 -0.1683  0.3296  0.1436
  844MOL0     H11367   9.468   8.449   6.275  0.0178  0.2892 -2.1474
  844MOL0     H11368   9.319   8.662   6.116  2.5487  1.6960  3.3851
  844MOL0     H11369   9.310   8.487   6.102  1.9474 -1.4644 -1.5723
  844MOL0     H11370   9.516   8.801   6.121  0.8998  1.3447 -0.8842
  844MOL0     H11371   9.749   8.904   6.128  2.6318 -0.1022 -0.5010
  844MOL0     H11372  10.009   9.163   6.091 -1.1174 -3.5306 -3.2697
  844MOL0     H11373  10.199   9.306   6.081 -0.1372 -0.3247 -3.0082
  844MOL0     H11374  10.393   9.401   6.222 -1.4328  2.3463 -2.2612
  844MOL0     H11375  10.395   9.389   6.046  0.1834 -2.9781 -0.0869
  844MOL0     H11376  10.602   9.507   6.078  1.4847  2.0196  2.6548
  844MOL0     H11377  10.654   9.334   6.077 -1.9185 -0.0976 -1.5429
  844MOL0     H11378  10.729   9.329   6.292  0.0330  1.7394  4.0482
  844MOL0     H11379  10.632   9.464   6.339 -0.1073  1.8841 -0.4790
  844MOL0     H11380  10.838   9.472   6.111 -0.7442  1.9280 -0.9926
  844MOL0     H11381  10.778   9.608   6.202 -0.9792 -0.0409 -3.3187
  844MOL0     H11382  10.994   9.414   6.294  0.0789 -0.0382  0.2677
  844MOL0     H11383  10.871   9.487   6.414 -1.1866  1.8191 -0.4181
  844MOL0     H11384  10.938   9.702   6.374  0.2365 -0.4042  0.5302
  844MOL0     H11385  11.024   9.668   6.215  0.5978  1.1328  0.1214
  844MOL0     H11386  11.187   9.538   6.389  2.2158  1.0150  2.5779
  844MOL0     H11387  11.189   9.715   6.371 -2.4826  1.7248  1.5496
  844MOL0     H11388  11.039   9.563   6.577  0.3148 -0.3477  0.7213
  844MOL0     H11389  11.019   9.732   6.548  2.4729  1.8635 -2.6092
  844MOL0     H11390  10.442   8.959   6.172 -1.1112 -0.9493  0.6245
  844MOL0     H11391  10.257   8.820   6.139  3.1308 -0.2857 -0.1365
  844MOL0     H11392   9.910   8.558   5.970 -0.1922 -0.0985 -3.4669
  844MOL0     H11393   9.687   8.448   5.965 -1.6246  0.1334  0.0637
  844MOL0     H11394  10.484   8.833   6.663 -2.2698 -0.1561 -0.5435
  844MOL0     H11395  10.722   8.918   6.665  2.2864  1.2373 -1.7152
  844MOL0     H11396  10.985   9.264   6.681 -2.7895  0.5427 -3.0252
  844MOL0     H11397  11.209   9.367   6.709 -2.4525  0.0076  0.4188
  844MOL0     H11398  11.430   9.282   6.772  0.8284  0.9224  1.6947
  844MOL0     H11399  11.419   9.436   6.686 -0.7912 -0.4315 -2.9858
  844MOL0     H11400  11.618   9.441   6.761 -1.6812  2.7317 -1.4257
  844MOL0     H11401  11.681   9.276   6.714 -0.3420  0.4269  0.3068
  844MOL0     H11402  11.638   9.338   6.465 -0.1892 -0.1430 -0.2376
  844MOL0     H11403  11.775   9.404   6.555  0.4218 -0.2618  2.7824
  844MOL0     H11404  11.500   9.512   6.476  1.6212 -2.9142 -3.1462
  844MOL0     H11405  11.598   9.618   6.588 -0.6037 -1.9476  1.9838
  844MOL0     H11406  11.795   9.673   6.214 -2.4245 -0.4936 -1.4760
  844MOL0     H11407  11.342   9.074   6.412 -1.3736 -1.0348 -1.8902
  844MOL0     H11408  11.128   9.009   6.361  0.7775 -0.1098  0.2585
  845MOL0     O11409   2.611   9.465   3.718 -1.0718 -0.0522  0.1528
  845MOL0     C11410   2.676   9.487   3.821  0.0985  0.1293  0.0880
  845MOL0     O11411   2.625   9.477   3.950  0.3495 -0.3623  0.8688
  845MOL0     C11412   2.489   9.477   3.969  0.4078  0.9258 -0.6800
  845MOL0     C11413   2.400   9.549   3.888 -0.0274 -0.1368 -0.1098
  845MOL0     C11414   2.258   9.531   3.908  0.8328  1.1106  0.5695
  845MOL0     C11415   2.207   9.463   4.025 -0.0980  0.3761  0.1482
  845MOL0     O11416   2.070   9.444   4.038  0.0347  0.0798 -0.1419
  845MOL0     C11417   2.018   9.459   4.171 -0.3753 -0.6654 -0.8940
  845MOL0     C11418   1.869   9.494   4.159  0.3747 -0.5330 -0.1276
  845MOL0     C11419   1.818   9.507   4.305  0.9368  0.8419  0.1319
  845MOL0     C11420   1.665   9.546   4.332 -0.0582  0.0467  0.8802
  845MOL0     C11421   1.654   9.585   4.482 -1.3464 -0.1513  0.8126
  845MOL0     C11422   1.511   9.655   4.512 -0.5508 -0.0502 -0.3108
  845MOL0     C11423   1.495   9.720   4.653 -0.0791  0.4699 -0.9167
  845MOL0     C11424   1.543   9.625   4.766 -0.4300 -0.3686  0.4494
  845MOL0     N11425   1.495   9.668   4.901  0.3503 -0.8073  0.2285
  845MOL0     C11426   1.403   9.609   4.976  0.1925 -0.3173  0.0363
  845MOL0     C11427   1.388   9.694   5.083  0.9197 -0.3036  0.4832
  845MOL0     C11428   1.289   9.661   5.189  0.0021  0.3022  0.3612
  845MOL0     C11429   1.187   9.778   5.204 -0.4533 -0.5724  0.4077
  845MOL0     C11430   1.111   9.816   5.072  1.4124 -0.0440  0.4529
  845MOL0     C11431   1.017   9.710   5.030 -0.4881  1.4327 -0.8366
  845MOL0     O11432   1.081   9.612   4.952  0.5670  0.0487 -0.1021
  845MOL0     C11433   1.086   9.613   4.816 -0.4407  0.5289 -0.6988
  845MOL0     C11434   1.117   9.492   4.763  1.1641  0.3239  0.7190
  845MOL0     C11435   1.125   9.467   4.626 -0.9589 -0.5549 -0.3466
  845MOL0     C11436   1.108   9.580   4.536  0.5070  0.0749 -0.4690
  845MOL0     C11437   1.136   9.571   4.396 -0.0257  0.3330 -0.2262
  845MOL0     O11438   1.239   9.479   4.366  0.1438  0.2973 -0.4716
  845MOL0     C11439   1.285   9.473   4.242 -0.7894  0.4385 -0.2001
  845MOL0     C11440   1.357   9.573   4.178  0.1575  0.1126  0.4925
  845MOL0     C11441   1.416   9.550   4.057 -0.0933 -0.4764 -0.0487
  845MOL0     C11442   1.412   9.428   3.985 -0.0131 -0.2332 -0.1395
  845MOL0     O11443   1.472   9.390   3.874 -0.4141 -0.2218  0.6804
  845MOL0     C11444   1.552   9.481   3.803 -0.5415 -0.2721  0.3982
  845MOL0     C11445   1.643   9.404   3.699  0.1478 -0.0865  0.0771
  845MOL0     C11446   1.572   9.322   3.588  0.5267  0.5480 -0.3391
  845MOL0     C11447   1.672   9.241   3.492 -0.0705 -0.1897 -0.9983
  845MOL0     C11448   1.601   9.135   3.417  0.3565 -0.2372 -0.1379
  845MOL0     C11449   1.512   9.184   3.301 -0.0893  0.5155  0.8805
  845MOL0     C11450   1.559   9.306   3.222  0.2627  0.0715  0.4082
  845MOL0     C11451   1.440   9.365   3.150  0.6531 -0.1374  0.1926
  845MOL0    Cl11452   1.356   9.492   3.257  0.2060 -0.3075  0.3583
  845MOL0     C11453   1.347   9.325   4.056 -0.2625 -0.3482  0.9663
  845MOL0     C11454   1.291   9.344   4.179 -0.3385 -0.3874 -0.3168
  845MOL0     O11455   1.066   9.639   4.315 -0.4104  0.1401  0.0562
  845MOL0     C11456   1.068   9.707   4.593 -1.3044  0.2782  0.2714
  845MOL0     C11457   1.060   9.720   4.728  1.0435  0.5993 -0.2707
  845MOL0     N11458   1.465   9.808   5.053  0.2213  0.4034  0.2664
  845MOL0     N11459   1.532   9.793   4.947  0.4568  0.8922 -0.2797
  845MOL0     C11460   2.302   9.398   4.107 -0.1837  0.0167  1.0094
  845MOL0     C11461   2.438   9.399   4.078 -0.2280 -0.1087 -0.4627
  845MOL0     C11462   2.831   9.513   3.808  0.8359  0.6808 -0.3113
  845MOL0     C11463   2.908   9.522   3.927  0.2707 -0.0185 -1.1516
  845MOL0     C11464   3.037   9.535   3.910 -0.8563 -0.3486  0.5067
  845MOL0     C11465   3.107   9.542   3.784 -0.9014  1.0496  0.5873
  845MOL0     O11466   3.242   9.548   3.796 -0.4897 -0.8282 -0.2999
  845MOL0     C11467   3.323   9.484   3.695  1.0594  0.0932  0.3303
  845MOL0     C11468   3.476   9.483   3.720  0.1709 -1.1357  0.3430
  845MOL0     C11469   3.521   9.628   3.698  0.8178 -0.2886  0.1988
  845MOL0     C11470   3.673   9.634   3.707  1.2685  0.8128 -0.0325
  845MOL0     C11471   3.750   9.618   3.579 -0.3850  0.1460  0.2962
  845MOL0     C11472   3.816   9.611   3.482  0.3732  1.4511  0.3973
  845MOL0     C11473   3.025   9.531   3.672 -0.4347 -0.2803 -0.0908
  845MOL0     C11474   2.894   9.520   3.685 -0.4645  0.6001  0.4042
  845MOL0     H11475   2.435   9.595   3.797 -1.1812 -0.5615 -0.8028
  845MOL0     H11476   2.179   9.575   3.849 -0.0318 -0.9906  0.0807
  845MOL0     H11477   2.073   9.546   4.208 -0.9637 -0.3425 -0.7562
  845MOL0     H11478   2.030   9.373   4.238  2.3927  1.4092  1.5029
  845MOL0     H11479   1.823   9.415   4.099  0.3993  2.3379 -4.2658
  845MOL0     H11480   1.858   9.589   4.108 -1.3164 -1.5293 -1.7250
  845MOL0     H11481   1.893   9.561   4.364  1.7429  0.7831 -0.8091
  845MOL0     H11482   1.823   9.404   4.342 -1.2425 -0.6079 -3.1366
  845MOL0     H11483   1.633   9.638   4.283 -1.2657 -0.7575  0.1099
  845MOL0     H11484   1.594   9.466   4.311  0.7991 -0.5336  0.0735
  845MOL0     H11485   1.734   9.654   4.509 -1.8210 -0.0871  2.1031
  845MOL0     H11486   1.677   9.493   4.536  0.4048 -1.5713 -2.0578
  845MOL0     H11487   1.437   9.575   4.504 -2.1331  1.3733 -0.6738
  845MOL0     H11488   1.491   9.726   4.431 -0.1228 -1.9918 -2.1943
  845MOL0     H11489   1.558   9.809   4.659  1.9287 -0.7480 -2.5745
  845MOL0     H11490   1.391   9.748   4.670 -0.5276 -1.3064 -0.5348
  845MOL0     H11491   1.652   9.634   4.765 -0.2884 -1.9525 -0.4097
  845MOL0     H11492   1.524   9.519   4.747  0.9487 -0.3951 -1.0746
  845MOL0     H11493   1.349   9.515   4.968 -1.4701  0.2838  2.7686
  845MOL0     H11494   1.333   9.663   5.290 -1.2730  4.3552  1.0312
  845MOL0     H11495   1.245   9.563   5.166 -0.8179  0.8788 -0.5926
  845MOL0     H11496   1.236   9.867   5.243 -1.6034 -0.5991  2.0260
  845MOL0     H11497   1.123   9.738   5.283 -1.9285  0.2974 -0.2989
  845MOL0     H11498   1.052   9.906   5.087 -0.2853 -0.8168 -1.2094
  845MOL0     H11499   1.169   9.847   4.985 -1.0342 -0.1087 -1.3095
  845MOL0     H11500   0.928   9.748   4.978 -0.4127  0.2033 -1.8796
  845MOL0     H11501   0.982   9.663   5.122  1.4187 -4.7459 -2.7857
  845MOL0     H11502   1.134   9.415   4.838  0.9545 -1.8859 -1.3553
  845MOL0     H11503   1.137   9.367   4.586 -2.4064  0.0745 -2.5053
  845MOL0     H11504   1.366   9.663   4.238 -0.4149 -1.2964  2.8282
  845MOL0     H11505   1.467   9.624   3.996  0.0833 -1.9316 -1.7398
  845MOL0     H11506   1.620   9.533   3.871 -0.6090 -0.4899  0.6309
  845MOL0     H11507   1.488   9.555   3.754  1.0262  0.5396 -0.4809
  845MOL0     H11508   1.709   9.337   3.754 -0.5871 -0.0207  1.0525
  845MOL0     H11509   1.708   9.478   3.651  3.2724 -1.2327  2.1686
  845MOL0     H11510   1.509   9.393   3.534  0.1639 -0.1968 -0.9074
  845MOL0     H11511   1.509   9.247   3.637  3.3615 -1.3358  0.7010
  845MOL0     H11512   1.737   9.307   3.434  2.4435  0.1497  2.0027
  845MOL0     H11513   1.745   9.187   3.553 -1.7250 -1.9644 -0.4930
  845MOL0     H11514   1.549   9.068   3.485  2.3033 -1.2498  0.4357
  845MOL0     H11515   1.682   9.070   3.383  3.7737  2.2107  2.6092
  845MOL0     H11516   1.412   9.209   3.339 -0.8091 -0.9034 -0.0009
  845MOL0     H11517   1.490   9.098   3.236 -2.5028  2.1807 -0.6751
  845MOL0     H11518   1.617   9.383   3.274 -1.0535  1.1700  0.3136
  845MOL0     H11519   1.626   9.257   3.150 -1.6637  0.6842 -1.9024
  845MOL0     H11520   1.362   9.290   3.133 -1.4094  2.0495 -0.5956
  845MOL0     H11521   1.470   9.405   3.053 -0.6624  0.1287 -0.1144
  845MOL0     H11522   1.347   9.223   4.018  0.6331 -0.0654  0.1591
  845MOL0     H11523   1.253   9.260   4.236  1.0486 -0.3868  0.6728
  845MOL0     H11524   1.038   9.789   4.530  0.8038  1.0837  0.2417
  845MOL0     H11525   1.020   9.815   4.762 -1.9019 -0.7920  0.4238
  845MOL0     H11526   2.285   9.341   4.198  1.6332 -4.3785 -1.1182
  845MOL0     H11527   2.499   9.329   4.134  0.4446 -0.3517 -1.4648
  845MOL0     H11528   2.859   9.529   4.024  3.8698 -1.9459  0.9959
  845MOL0     H11529   3.097   9.550   3.999  1.0142  0.7091 -0.8629
  845MOL0     H11530   3.304   9.542   3.604 -0.2651 -1.7186 -0.6113
  845MOL0     H11531   3.291   9.379   3.689  0.5824  0.2898 -0.9650
  845MOL0     H11532   3.501   9.444   3.819  2.7200 -1.3601 -0.3238
  845MOL0     H11533   3.531   9.420   3.650  0.9500 -1.3449  1.1179
  845MOL0     H11534   3.475   9.684   3.780 -1.2103 -1.2080 -0.2521
  845MOL0     H11535   3.488   9.668   3.602 -0.2719 -0.2634  0.5630
  845MOL0     H11536   3.684   9.741   3.729 -0.7915  1.1923 -0.6439
  845MOL0     H11537   3.717   9.574   3.787 -0.5272  0.1052  0.4646
  845MOL0     H11538   3.887   9.607   3.403  1.8623  2.0789  1.6470
  845MOL0     H11539   3.069   9.554   3.576 -0.6673  2.1409  0.3132
  845MOL0     H11540   2.829   9.528   3.599  1.2342 -2.3237 -1.3024
  846MOL0     O11541   3.141   2.934   7.983  0.3429 -0.2186 -0.6557
  846MOL0     C11542   3.185   2.893   8.091  0.0040 -0.1408 -0.7715
  846MOL0     O11543   3.108   2.841   8.187 -0.2519  0.0165 -0.4802
  846MOL0     C11544   2.971   2.867   8.183 -0.4138 -0.1437 -0.2283
  846MOL0     C11545   2.884   2.769   8.129  0.2687 -0.2371 -1.0074
  846MOL0     C11546   2.745   2.790   8.127  0.1032 -0.0704  0.5804
  846MOL0     C11547   2.685   2.908   8.172 -0.5921 -0.5159  0.1235
  846MOL0     O11548   2.558   2.924   8.152  0.1746 -1.1433  0.9206
  846MOL0     C11549   2.502   3.057   8.162 -0.5022 -0.1713  0.3032
  846MOL0     C11550   2.364   3.053   8.104  0.0152 -0.1186 -0.0006
  846MOL0     C11551   2.289   3.189   8.091  0.4439  0.3144  0.2103
  846MOL0     C11552   2.151   3.174   8.034  0.3459  0.3235  0.7067
  846MOL0     C11553   2.042   3.269   8.085 -0.2586 -0.8447  0.2596
  846MOL0     C11554   2.073   3.421   8.057 -0.7442  0.6206 -0.5549
  846MOL0     C11555   1.949   3.514   8.080  0.5452  0.5739  0.4508
  846MOL0     C11556   1.976   3.677   8.084 -0.7254  0.3283  0.7175
  846MOL0     N11557   1.878   3.751   8.162  0.4521  0.3425 -0.1269
  846MOL0     C11558   1.895   3.776   8.294 -0.5751 -0.5274 -0.4291
  846MOL0     C11559   1.774   3.826   8.322 -0.1879  0.0628  0.5028
  846MOL0     C11560   1.733   3.903   8.444 -0.0568  0.1579  0.3234
  846MOL0     C11561   1.732   3.817   8.559 -0.0078  0.7174 -0.5609
  846MOL0     C11562   1.729   3.897   8.690 -0.1995 -0.4917 -0.5933
  846MOL0     C11563   1.727   3.786   8.803 -0.5784  0.5916  0.2085
  846MOL0     O11564   1.630   3.680   8.790  0.2357 -0.1053 -0.0041
  846MOL0     C11565   1.511   3.721   8.837 -0.5010  0.7074  0.3833
  846MOL0     C11566   1.492   3.736   8.979 -0.4951 -0.3331 -0.2410
  846MOL0     C11567   1.371   3.771   9.030  0.6161 -0.0981 -0.2379
  846MOL0     C11568   1.263   3.791   8.936 -0.3868  0.6329 -0.2610
  846MOL0     C11569   1.135   3.822   8.995 -0.0265 -0.2349  0.8763
  846MOL0     O11570   1.115   3.828   9.126 -0.5229 -1.0131  0.7338
  846MOL0     C11571   0.995   3.864   9.163  0.4811 -0.3581  0.0137
  846MOL0     C11572   0.966   3.997   9.194 -0.7651 -0.2006  0.5715
  846MOL0     C11573   0.838   4.042   9.229 -0.3542 -0.6252  0.1040
  846MOL0     C11574   0.740   3.952   9.235  0.2047  0.2649  0.4055
  846MOL0     O11575   0.615   4.003   9.260  0.0733 -0.1678  0.1228
  846MOL0     C11576   0.515   3.914   9.312  0.1428  0.1341  0.4232
  846MOL0     C11577   0.410   4.008   9.365 -0.0665 -0.2406  0.3678
  846MOL0     C11578   0.288   3.933   9.423 -0.3752  0.1069  0.0365
  846MOL0     C11579   0.188   4.040   9.461  0.0937 -0.4667  1.0033
  846MOL0     C11580   0.056   3.988   9.514  0.0486 -0.2799 -0.9841
  846MOL0     C11581   0.047   3.951   9.662 -1.1052  0.7809 -0.3468
  846MOL0     C11582  -0.100   3.928   9.708  0.3567  0.5944 -0.6100
  846MOL0     C11583  -0.186   4.055   9.695  0.2961  0.2992 -0.2582
  846MOL0    Cl11584  -0.254   4.056   9.526 -0.0009  0.2199 -0.1057
  846MOL0     C11585   0.769   3.814   9.234 -0.2458  0.4115  0.2887
  846MOL0     C11586   0.895   3.771   9.189 -0.4751 -0.1038  0.0541
  846MOL0     O11587   1.051   3.847   8.910  0.1833 -0.9174 -0.7972
  846MOL0     C11588   1.287   3.777   8.793 -0.3189 -0.8201 -0.7774
  846MOL0     C11589   1.411   3.733   8.747 -0.8292 -0.4295  0.0429
  846MOL0     N11590   1.691   3.819   8.216 -0.5118 -0.1876  1.2558
  846MOL0     N11591   1.755   3.775   8.119 -0.2084  0.5046  0.6594
  846MOL0     C11592   2.775   3.014   8.213 -0.0898  0.9718 -0.2189
  846MOL0     C11593   2.915   2.985   8.231  0.0822 -0.5905  0.7243
  846MOL0     C11594   3.326   2.909   8.106  0.2017  0.0740  0.7392
  846MOL0     C11595   3.393   2.824   8.189 -0.3860 -0.2447  0.1938
  846MOL0     C11596   3.535   2.831   8.206 -0.6385 -0.7913  0.1751
  846MOL0     C11597   3.601   2.928   8.131  0.0091  0.0245 -0.1435
  846MOL0     O11598   3.740   2.932   8.149  0.0742 -0.6169 -0.4007
  846MOL0     C11599   3.834   2.999   8.058 -0.2009 -0.2760  0.7530
  846MOL0     C11600   3.968   2.929   8.069  1.1775  0.1851 -0.1940
  846MOL0     C11601   4.081   3.014   8.025 -0.2295 -0.3406 -0.0681
  846MOL0     C11602   4.201   2.935   7.981 -0.3708  1.0673 -0.2559
  846MOL0     C11603   4.309   3.000   7.898  0.2874 -0.1205  0.1005
  846MOL0     C11604   4.393   3.068   7.856  0.1952  0.3554  0.3398
  846MOL0     C11605   3.538   3.007   8.041  0.1828 -0.4279  0.3041
  846MOL0     C11606   3.394   3.002   8.026 -0.1399  0.3027  1.0458
  846MOL0     H11607   2.933   2.681   8.090 -1.7840 -1.2748 -1.3518
  846MOL0     H11608   2.681   2.722   8.072 -1.9712  2.1999 -0.0553
  846MOL0     H11609   2.558   3.128   8.100 -1.3008 -1.4811 -2.0096
  846MOL0     H11610   2.497   3.092   8.266  0.2519  2.1523 -0.3744
  846MOL0     H11611   2.302   2.996   8.174 -1.0036  1.3322  0.3247
  846MOL0     H11612   2.368   3.004   8.007  0.5765  1.3633 -0.7512
  846MOL0     H11613   2.346   3.245   8.016  2.0461  0.2662  1.3243
  846MOL0     H11614   2.298   3.258   8.175 -2.5616  2.6973 -1.2479
  846MOL0     H11615   2.164   3.192   7.927  0.1217  1.1438  0.8063
  846MOL0     H11616   2.118   3.070   8.041  2.3786 -0.5041 -0.8109
  846MOL0     H11617   2.042   3.269   8.195  2.0307  0.9383  0.3466
  846MOL0     H11618   1.940   3.242   8.058 -0.5349  0.9366 -0.5623
  846MOL0     H11619   2.122   3.436   7.960  0.6262  0.1011  0.0302
  846MOL0     H11620   2.147   3.443   8.134 -1.3821  0.4722  0.1113
  846MOL0     H11621   1.871   3.477   8.013  0.3623  0.8562  0.5101
  846MOL0     H11622   1.916   3.489   8.182 -1.9585  2.2484  0.1375
  846MOL0     H11623   1.980   3.712   7.980  1.1663 -0.1371  0.6067
  846MOL0     H11624   2.073   3.699   8.130  0.6984  2.1246 -2.7831
  846MOL0     H11625   1.990   3.782   8.345  1.3514 -2.2376 -3.5583
  846MOL0     H11626   1.633   3.942   8.426  0.3931  2.7939  2.8712
  846MOL0     H11627   1.807   3.981   8.466  0.8294 -0.1669 -1.2991
  846MOL0     H11628   1.819   3.751   8.564  0.8370  1.7784 -0.8641
  846MOL0     H11629   1.645   3.751   8.553  0.1351  0.4469  0.1921
  846MOL0     H11630   1.812   3.967   8.699 -0.7989  0.3486 -1.3622
  846MOL0     H11631   1.640   3.961   8.695 -0.0631 -0.3976  1.4231
  846MOL0     H11632   1.734   3.840   8.898  1.4816 -1.1834  1.1568
  846MOL0     H11633   1.819   3.727   8.810 -0.2465  1.2583  2.1416
  846MOL0     H11634   1.577   3.701   9.037  0.5886 -0.1539 -1.6782
  846MOL0     H11635   1.350   3.799   9.133 -2.7979  1.1821 -1.1215
  846MOL0     H11636   1.050   4.066   9.191  0.4097 -1.3595  3.2645
  846MOL0     H11637   0.812   4.147   9.240  1.8394  0.0259 -0.2216
  846MOL0     H11638   0.562   3.861   9.396  0.6215  2.0156  1.4099
  846MOL0     H11639   0.475   3.839   9.245 -0.9502  0.4478  0.7130
  846MOL0     H11640   0.379   4.090   9.299  4.8751  4.1191  2.6493
  846MOL0     H11641   0.453   4.059   9.453  1.0922 -1.2369  0.4042
  846MOL0     H11642   0.318   3.866   9.504 -1.7965 -0.1383  0.3777
  846MOL0     H11643   0.255   3.881   9.332  1.4881 -1.1704  0.0403
  846MOL0     H11644   0.241   4.099   9.537  0.7817 -1.2480  1.1483
  846MOL0     H11645   0.164   4.100   9.373 -0.1003 -0.5768  0.9808
  846MOL0     H11646   0.007   3.919   9.444 -1.1598 -2.6574  1.9652
  846MOL0     H11647  -0.002   4.081   9.509 -1.3250 -0.6800  3.2736
  846MOL0     H11648   0.091   4.033   9.720 -0.0974 -0.2578  0.4165
  846MOL0     H11649   0.102   3.862   9.696  0.1928  1.0265 -1.7247
  846MOL0     H11650  -0.143   3.842   9.656  1.2594 -0.0013 -0.3970
  846MOL0     H11651  -0.100   3.906   9.815  0.6834  1.3038 -0.4521
  846MOL0     H11652  -0.125   4.144   9.716 -1.0871  1.2726 -0.1814
  846MOL0     H11653  -0.269   4.045   9.765 -0.0262  1.2423 -0.4831
  846MOL0     H11654   0.689   3.744   9.252  0.7089 -0.7158  0.2577
  846MOL0     H11655   0.922   3.667   9.178 -0.7140 -0.1866  0.2403
  846MOL0     H11656   1.211   3.804   8.720 -1.2470  0.2488  0.5260
  846MOL0     H11657   1.435   3.713   8.643  3.7737 -2.6017  1.2368
  846MOL0     H11658   2.741   3.115   8.237 -0.5698  0.5983  0.7704
  846MOL0     H11659   2.981   3.064   8.266 -0.0333  0.2950 -0.9495
  846MOL0     H11660   3.334   2.760   8.254  0.1049 -3.3642 -2.1874
  846MOL0     H11661   3.596   2.761   8.264  1.0988  0.6720  0.1958
  846MOL0     H11662   3.852   3.100   8.095  2.3148 -0.1525 -0.5513
  846MOL0     H11663   3.802   3.015   7.955  1.2365 -1.3366  0.1042
  846MOL0     H11664   3.982   2.899   8.173  0.1714  1.6013  0.3737
  846MOL0     H11665   3.976   2.836   8.012  3.1031  0.9780 -1.3273
  846MOL0     H11666   4.108   3.078   8.109  0.9698 -1.8617  0.7696
  846MOL0     H11667   4.039   3.070   7.941 -0.6139 -2.2532 -1.1956
  846MOL0     H11668   4.256   2.899   8.068 -2.1365 -2.5744 -0.4579
  846MOL0     H11669   4.171   2.848   7.921  0.7618  1.3650 -1.3094
  846MOL0     H11670   4.491   3.100   7.828  0.1471 -1.6117 -2.5112
  846MOL0     H11671   3.593   3.077   7.979  0.6689 -2.9255 -2.3148
  846MOL0     H11672   3.336   3.064   7.959 -1.9852 -0.3948  1.9130
  847MOL0     O11673   1.671   2.072   2.394  0.6590 -0.4605 -0.4267
  847MOL0     C11674   1.693   2.079   2.512 -0.6244  0.5374 -0.3435
  847MOL0     O11675   1.598   2.056   2.613  0.1686 -0.7605  0.2076
  847MOL0     C11676   1.461   2.035   2.594  0.0974  0.5927 -0.1038
  847MOL0     C11677   1.406   2.001   2.474 -0.1381 -0.3024 -0.2354
  847MOL0     C11678   1.266   2.011   2.472 -0.1355  1.0370  0.5155
  847MOL0     C11679   1.182   2.022   2.587  0.0197  0.1179  0.0033
  847MOL0     O11680   1.042   2.012   2.587 -0.7119 -1.3913 -0.2436
  847MOL0     C11681   0.970   1.995   2.463 -0.9324  0.0279 -0.1978
  847MOL0     C11682   0.817   1.990   2.490 -0.6804 -0.0377  0.8688
  847MOL0     C11683   0.738   1.994   2.345  0.5570 -0.3846  0.3032
  847MOL0     C11684   0.599   2.027   2.356 -0.2555  0.0294 -0.1708
  847MOL0     C11685   0.574   2.175   2.374  0.7355  0.0491 -0.3892
  847MOL0     C11686   0.434   2.226   2.399  0.4589 -0.5328 -0.0418
  847MOL0     C11687   0.393   2.190   2.543 -0.1123  0.7954 -0.1322
  847MOL0     C11688   0.248   2.231   2.583 -0.6171 -0.7570  1.3769
  847MOL0     N11689   0.216   2.364   2.544 -0.3760 -0.5582  0.6223
  847MOL0     C11690   0.244   2.479   2.617 -0.3646  0.0644 -0.3378
  847MOL0     C11691   0.210   2.590   2.541  0.0296 -0.0368 -0.5388
  847MOL0     C11692   0.207   2.729   2.604 -0.4296 -0.3121 -0.6993
  847MOL0     C11693   0.064   2.769   2.615 -0.7730  0.2379 -0.2821
  847MOL0     C11694   0.055   2.922   2.600  0.3108 -0.2276  0.9055
  847MOL0     C11695  -0.066   2.989   2.675 -0.1410  0.3937  0.0063
  847MOL0     O11696  -0.190   2.935   2.635  0.2098  0.4717  1.2103
  847MOL0     C11697  -0.307   3.002   2.641  0.9229  0.4902  0.2655
  847MOL0     C11698  -0.316   3.136   2.641 -0.3387 -0.2761 -0.4116
  847MOL0     C11699  -0.439   3.203   2.617 -0.5402  0.7882  1.1130
  847MOL0     C11700  -0.561   3.129   2.597  0.3290  0.3859  0.1885
  847MOL0     C11701  -0.688   3.192   2.572  0.6035  0.5367 -0.1248
  847MOL0     O11702  -0.809   3.122   2.595 -0.0632  0.3568 -0.0947
  847MOL0     C11703  -0.941   3.166   2.584 -0.1267  0.3548 -0.0358
  847MOL0     C11704  -1.038   3.077   2.638 -0.2838  0.1384  0.1534
  847MOL0     C11705  -1.174   3.106   2.647  0.1036 -1.3210 -0.5901
  847MOL0     C11706  -1.217   3.239   2.607 -0.3431 -0.4407  0.4516
  847MOL0     O11707  -1.349   3.276   2.599 -0.4347 -0.0763 -0.4687
  847MOL0     C11708  -1.432   3.232   2.701  0.2072 -0.4832  0.2097
  847MOL0     C11709  -1.396   3.308   2.826 -0.1258 -0.2802 -0.0949
  847MOL0     C11710  -1.511   3.306   2.928  0.4358  1.4172 -0.5361
  847MOL0     C11711  -1.640   3.360   2.881  0.2490 -0.4250 -0.1979
  847MOL0     C11712  -1.738   3.420   2.991 -0.3735  0.1076 -0.8744
  847MOL0     C11713  -1.886   3.448   2.931  0.6192  1.2778 -1.0085
  847MOL0     C11714  -1.966   3.315   2.938 -0.7184 -0.6151 -1.0720
  847MOL0     C11715  -1.990   3.275   3.083 -0.9848  0.3907 -0.3274
  847MOL0    Cl11716  -2.104   3.139   3.087 -0.1694 -0.3414 -0.0387
  847MOL0     C11717  -1.123   3.323   2.547  0.4938 -0.0848  1.0119
  847MOL0     C11718  -0.989   3.289   2.539 -1.3088  0.8199  0.7955
  847MOL0     O11719  -0.688   3.305   2.530 -0.2697 -0.0653  0.1338
  847MOL0     C11720  -0.549   2.990   2.601 -0.1893  0.9136 -0.1919
  847MOL0     C11721  -0.421   2.928   2.625  1.5666  0.1126 -0.7721
  847MOL0     N11722   0.168   2.535   2.422 -0.4203 -0.0672  0.4836
  847MOL0     N11723   0.165   2.408   2.430  0.4106  0.3307  0.0850
  847MOL0     C11724   1.245   2.035   2.707  0.7210  0.1395 -0.5341
  847MOL0     C11725   1.387   2.039   2.715  0.3603  0.3843  0.9092
  847MOL0     C11726   1.836   2.089   2.555 -0.1927 -1.3256 -0.2301
  847MOL0     C11727   1.939   2.077   2.464  0.5928 -0.6128  0.4714
  847MOL0     C11728   2.073   2.086   2.505 -0.3156  0.4951 -0.8238
  847MOL0     C11729   2.110   2.106   2.636  0.3540  0.3964 -0.4611
  847MOL0     O11730   2.236   2.109   2.673 -0.1495 -0.4814  0.1444
  847MOL0     C11731   2.280   2.032   2.786  0.8017  0.6749 -0.1171
  847MOL0     C11732   2.426   2.061   2.801  0.1723  0.0652 -0.1323
  847MOL0     C11733   2.481   1.974   2.923 -0.2131 -0.2646 -0.0575
  847MOL0     C11734   2.641   1.966   2.924 -0.0053  0.2423  0.0232
  847MOL0     C11735   2.700   2.098   2.915 -0.0222 -0.2619  0.3465
  847MOL0     C11736   2.735   2.208   2.947 -0.1193 -1.0986  0.2063
  847MOL0     C11737   2.005   2.120   2.729 -0.0475  0.1325 -0.7315
  847MOL0     C11738   1.870   2.117   2.692 -0.2596 -0.5251 -0.7382
  847MOL0     H11739   1.463   1.991   2.382  1.0822  1.7588  0.2268
  847MOL0     H11740   1.206   1.989   2.384  0.4978 -0.5802  0.4670
  847MOL0     H11741   0.999   1.900   2.417  0.1063 -0.1625  0.8095
  847MOL0     H11742   0.987   2.071   2.386 -2.2294 -0.0975 -0.6414
  847MOL0     H11743   0.786   2.060   2.568 -0.7603 -1.8854  2.6078
  847MOL0     H11744   0.804   1.892   2.537  1.8628 -0.6929  0.3625
  847MOL0     H11745   0.745   1.895   2.300 -0.4813  0.2997 -1.4613
  847MOL0     H11746   0.794   2.061   2.279 -1.5621 -1.5530 -2.9290
  847MOL0     H11747   0.544   1.987   2.270  0.3961 -0.1640 -0.5022
  847MOL0     H11748   0.559   1.969   2.439  0.9266  0.9200  1.0677
  847MOL0     H11749   0.613   2.218   2.281 -0.1246 -0.2410 -0.8928
  847MOL0     H11750   0.627   2.208   2.463 -0.1974 -1.3935  0.7423
  847MOL0     H11751   0.364   2.189   2.324 -1.0604  1.4620  0.3108
  847MOL0     H11752   0.437   2.335   2.387 -0.5166 -0.7735 -3.2435
  847MOL0     H11753   0.394   2.081   2.535 -1.7602  0.8896 -3.1093
  847MOL0     H11754   0.466   2.225   2.616  0.2430  1.7454 -0.9255
  847MOL0     H11755   0.251   2.219   2.692 -1.6376 -0.4735  1.4485
  847MOL0     H11756   0.176   2.168   2.530 -1.0177  2.2451 -2.0130
  847MOL0     H11757   0.260   2.485   2.724  0.1605 -0.9095 -0.3627
  847MOL0     H11758   0.253   2.794   2.529  1.5853 -2.9309 -1.8824
  847MOL0     H11759   0.267   2.751   2.693  2.0022  2.0237 -2.7693
  847MOL0     H11760   0.027   2.739   2.713  1.7279 -2.1299  0.0713
  847MOL0     H11761   0.004   2.734   2.530  1.8906  0.4359 -2.3876
  847MOL0     H11762   0.150   2.957   2.642  1.8783 -1.6242 -1.2756
  847MOL0     H11763   0.041   2.945   2.495  2.3340  0.4538  0.7278
  847MOL0     H11764  -0.047   3.093   2.648  2.0591 -0.5638 -2.6695
  847MOL0     H11765  -0.054   2.986   2.784 -2.4055  2.0265  0.3750
  847MOL0     H11766  -0.222   3.187   2.655 -0.9386  0.2146  2.2562
  847MOL0     H11767  -0.428   3.311   2.623  0.1321  0.8864 -1.2841
  847MOL0     H11768  -1.002   2.978   2.667 -1.8954 -0.7014 -0.5887
  847MOL0     H11769  -1.231   3.026   2.693  0.6569 -3.3795 -3.1999
  847MOL0     H11770  -1.438   3.123   2.711 -0.0820 -0.3555  1.7962
  847MOL0     H11771  -1.534   3.265   2.681  0.8540  2.0015  0.6422
  847MOL0     H11772  -1.359   3.409   2.808  3.1389 -0.6310  3.3948
  847MOL0     H11773  -1.306   3.254   2.859 -0.8265 -2.4674 -1.5184
  847MOL0     H11774  -1.470   3.354   3.018  1.9118 -0.1716 -0.3022
  847MOL0     H11775  -1.527   3.203   2.962 -0.6670  1.5554 -0.6081
  847MOL0     H11776  -1.612   3.439   2.810 -1.8501  0.2776 -0.3263
  847MOL0     H11777  -1.688   3.278   2.826 -0.7499  1.4909 -2.3772
  847MOL0     H11778  -1.690   3.513   3.024  0.1269 -0.1447 -0.8867
  847MOL0     H11779  -1.731   3.354   3.078 -2.7087  0.0509 -0.6791
  847MOL0     H11780  -1.870   3.472   2.826  0.0447 -1.0988 -1.7199
  847MOL0     H11781  -1.945   3.521   2.986  2.0033  1.2129  0.6347
  847MOL0     H11782  -2.064   3.339   2.897 -0.6370  0.2621 -0.7706
  847MOL0     H11783  -1.921   3.227   2.890 -2.2353 -2.2657  0.3811
  847MOL0     H11784  -2.031   3.353   3.148 -1.1141 -0.2920  0.4380
  847MOL0     H11785  -1.903   3.234   3.135  0.5406 -2.6141 -4.6971
  847MOL0     H11786  -1.148   3.416   2.498  1.4619 -0.3307  0.0134
  847MOL0     H11787  -0.927   3.353   2.477  0.2022 -0.2548  1.1333
  847MOL0     H11788  -0.635   2.925   2.587 -1.9431  2.3519  2.8520
  847MOL0     H11789  -0.415   2.819   2.626  2.4965  0.1580 -1.0785
  847MOL0     H11790   1.181   2.052   2.793  1.7460 -3.5831  1.1827
  847MOL0     H11791   1.444   2.044   2.808 -0.1126  0.7202  1.1872
  847MOL0     H11792   1.915   2.057   2.360  1.1721 -0.9403  0.3915
  847MOL0     H11793   2.155   2.097   2.435  2.4446  1.4204  2.3167
  847MOL0     H11794   2.273   1.924   2.769 -1.2227  0.9070 -1.0708
  847MOL0     H11795   2.227   2.059   2.878  2.7965  1.1021  0.9625
  847MOL0     H11796   2.486   2.042   2.711  0.6276  0.1520  0.1484
  847MOL0     H11797   2.432   2.166   2.831  0.9332 -0.8241  3.2314
  847MOL0     H11798   2.444   1.871   2.922 -0.5917 -0.1404  0.7811
  847MOL0     H11799   2.448   2.018   3.017  1.7694 -0.4489  0.7936
  847MOL0     H11800   2.677   1.917   3.015 -1.3699 -1.7454 -0.4177
  847MOL0     H11801   2.666   1.903   2.839  0.5484 -1.3231  1.3017
  847MOL0     H11802   2.757   2.310   2.971  1.1286 -1.2108 -0.3816
  847MOL0     H11803   2.026   2.131   2.835  1.2809 -1.4332 -0.7987
  847MOL0     H11804   1.794   2.132   2.769 -0.0071  4.4293 -1.1768
  848MOL0     O11805   9.707   3.288   1.083  0.3264  0.2524  0.4749
  848MOL0     C11806   9.776   3.199   1.122 -0.2719  1.2916  0.7334
  848MOL0     O11807   9.732   3.077   1.173  0.2911  0.1914  0.9555
  848MOL0     C11808   9.595   3.067   1.194 -0.1140  0.0184 -0.4902
  848MOL0     C11809   9.532   2.993   1.104  1.4521 -0.6353  0.0112
  848MOL0     C11810   9.388   2.973   1.122  0.2664  0.1136 -0.1429
  848MOL0     C11811   9.314   3.035   1.222  0.0961 -0.3809 -0.4540
  848MOL0     O11812   9.177   3.008   1.235  0.3298  0.9627 -0.5482
  848MOL0     C11813   9.133   2.875   1.196  0.4802  0.0431  0.6494
  848MOL0     C11814   9.011   2.842   1.285  0.3541  0.0984 -0.1275
  848MOL0     C11815   8.944   2.709   1.238  0.6158 -0.3879  0.4916
  848MOL0     C11816   8.816   2.702   1.318 -0.4916  0.4629  0.4794
  848MOL0     C11817   8.725   2.587   1.247 -0.1230 -0.1097 -0.9318
  848MOL0     C11818   8.687   2.619   1.105  0.9044 -0.4698 -0.2894
  848MOL0     C11819   8.565   2.532   1.060 -0.1462  0.2644 -0.4302
  848MOL0     C11820   8.443   2.613   1.016  0.0683  1.4184  0.2948
  848MOL0     N11821   8.341   2.529   0.958 -0.2372  0.0499 -0.2191
  848MOL0     C11822   8.225   2.490   1.030 -0.0983 -0.1347 -0.2308
  848MOL0     C11823   8.154   2.417   0.942 -1.1581 -0.6558  0.6349
  848MOL0     C11824   8.008   2.389   0.974  0.3584  0.0424 -0.0315
  848MOL0     C11825   7.950   2.277   0.886 -0.6978  0.0968 -0.5374
  848MOL0     C11826   7.802   2.265   0.898 -0.4473  0.1704 -0.1947
  848MOL0     C11827   7.727   2.372   0.827 -0.3394 -0.1769 -0.0738
  848MOL0     O11828   7.593   2.336   0.798 -0.0680 -0.9025 -0.0807
  848MOL0     C11829   7.569   2.245   0.699  0.3990 -0.2020 -0.1541
  848MOL0     C11830   7.476   2.142   0.735 -1.4280 -0.5526 -0.5152
  848MOL0     C11831   7.440   2.041   0.649 -0.6667  0.1907 -0.7183
  848MOL0     C11832   7.507   2.032   0.515  0.0585 -0.1006 -0.3638
  848MOL0     C11833   7.466   1.936   0.415  0.1978 -0.1692  0.5608
  848MOL0     O11834   7.366   1.986   0.332  0.2625  0.3754  0.0720
  848MOL0     C11835   7.296   1.905   0.245 -0.1256 -0.4706 -0.1110
  848MOL0     C11836   7.260   1.769   0.259  0.0968 -0.4507 -0.3804
  848MOL0     C11837   7.169   1.708   0.164 -0.3036  0.3650 -1.0440
  848MOL0     C11838   7.106   1.779   0.058  0.6737  0.6562 -0.1889
  848MOL0     O11839   7.027   1.709  -0.026  0.4750 -0.7857  0.1609
  848MOL0     C11840   6.950   1.788  -0.127 -0.4775  0.7416 -0.1417
  848MOL0     C11841   6.827   1.711  -0.168 -0.1816 -0.2560  0.1944
  848MOL0     C11842   6.860   1.582  -0.244 -0.6189 -0.7988  0.6421
  848MOL0     C11843   6.725   1.498  -0.251  0.3009 -0.6175  0.4493
  848MOL0     C11844   6.740   1.368  -0.343  0.3404 -0.6195 -0.6093
  848MOL0     C11845   6.603   1.296  -0.353  0.2489  0.0110  0.5458
  848MOL0     C11846   6.614   1.165  -0.449  1.0569 -0.5581 -0.7588
  848MOL0     C11847   6.620   1.034  -0.363 -0.2430  0.0867 -0.3777
  848MOL0    Cl11848   6.546   0.895  -0.459 -0.4307  0.2172 -0.1059
  848MOL0     C11849   7.133   1.915   0.055  0.6128 -0.1031 -0.6047
  848MOL0     C11850   7.229   1.972   0.137 -0.5518 -0.1944 -0.4105
  848MOL0     O11851   7.516   1.826   0.401  0.2681  0.2637 -0.4410
  848MOL0     C11852   7.602   2.140   0.487  0.0631  0.8764 -0.2569
  848MOL0     C11853   7.631   2.246   0.581  0.0920 -1.0163  0.4276
  848MOL0     N11854   8.232   2.411   0.822  0.5017  0.3577 -0.1509
  848MOL0     N11855   8.336   2.481   0.832 -0.2347  0.6136 -0.2832
  848MOL0     C11856   9.395   3.104   1.314  0.5754  0.8440  0.1781
  848MOL0     C11857   9.533   3.121   1.307  0.0487  0.6819  0.0451
  848MOL0     C11858   9.919   3.222   1.101 -0.2748 -0.3476  0.5786
  848MOL0     C11859  10.010   3.116   1.110 -0.1622  0.7360  0.3011
  848MOL0     C11860  10.147   3.123   1.081  0.6801  0.3666  0.1294
  848MOL0     C11861  10.199   3.248   1.044 -0.2326  0.3578  0.0638
  848MOL0     O11862  10.323   3.263   0.995 -0.2859  0.0673  0.5997
  848MOL0     C11863  10.422   3.167   1.010 -0.0198  0.2019  0.2039
  848MOL0     C11864  10.557   3.210   0.935  0.7508  0.5409  0.0950
  848MOL0     C11865  10.595   3.347   0.978  0.3100 -0.1847 -0.2136
  848MOL0     C11866  10.718   3.401   0.899  0.6067 -0.0890  0.3557
  848MOL0     C11867  10.838   3.322   0.943 -0.0348 -0.1880 -0.0443
  848MOL0     C11868  10.950   3.270   0.969  0.4178  0.3404 -0.1162
  848MOL0     C11869  10.121   3.360   1.056 -0.5746  0.3081 -0.6682
  848MOL0     C11870   9.980   3.348   1.079 -0.6874  0.8242 -0.1885
  848MOL0     H11871   9.591   2.939   1.031  0.0531 -1.6137 -0.4268
  848MOL0     H11872   9.326   2.915   1.054  2.9492 -0.8902 -1.9107
  848MOL0     H11873   9.209   2.799   1.217 -1.5014 -2.0723  0.5685
  848MOL0     H11874   9.104   2.873   1.090 -1.5143 -2.0789  1.1584
  848MOL0     H11875   8.937   2.922   1.277 -0.7461 -0.8830 -0.0072
  848MOL0     H11876   9.043   2.841   1.389  0.1004  0.1829 -0.0485
  848MOL0     H11877   9.012   2.629   1.268 -2.1157 -2.6518  1.0688
  848MOL0     H11878   8.926   2.715   1.130  1.0823  0.6215  0.4589
  848MOL0     H11879   8.834   2.682   1.424  2.8011  0.0029 -0.0751
  848MOL0     H11880   8.758   2.795   1.321  0.0284  0.7857  0.7487
  848MOL0     H11881   8.629   2.578   1.299 -0.4231 -1.1672 -1.6347
  848MOL0     H11882   8.782   2.493   1.250  0.7222  0.4006 -0.5750
  848MOL0     H11883   8.772   2.605   1.037 -0.2893  0.0341 -1.9491
  848MOL0     H11884   8.650   2.722   1.101 -0.2365 -0.8347  0.3888
  848MOL0     H11885   8.586   2.464   0.977 -2.6383 -0.3416 -0.6467
  848MOL0     H11886   8.527   2.468   1.141 -2.9005  1.4953 -0.6473
  848MOL0     H11887   8.466   2.694   0.946 -3.6255  3.6883  1.4338
  848MOL0     H11888   8.402   2.661   1.106 -0.6508 -0.5817  1.0792
  848MOL0     H11889   8.194   2.513   1.131 -2.1314 -2.6035 -0.2174
  848MOL0     H11890   7.954   2.483   0.964 -1.0819 -0.9421 -2.3381
  848MOL0     H11891   8.009   2.357   1.079 -1.2726  0.9192  0.2772
  848MOL0     H11892   8.005   2.185   0.905 -0.3584  0.0594 -1.6868
  848MOL0     H11893   7.976   2.295   0.782  3.3592 -0.6392  0.2042
  848MOL0     H11894   7.769   2.175   0.846  2.3794 -1.7153  1.0604
  848MOL0     H11895   7.768   2.256   1.002 -0.1895 -0.2835 -0.1497
  848MOL0     H11896   7.765   2.409   0.731 -3.5996 -2.1980 -2.3749
  848MOL0     H11897   7.724   2.458   0.893  0.3328  0.2270 -0.5586
  848MOL0     H11898   7.435   2.151   0.835  0.5165 -0.8438  0.3441
  848MOL0     H11899   7.372   1.963   0.683  2.3782 -2.1732  0.4127
  848MOL0     H11900   7.303   1.711   0.340  0.4799 -1.8928 -1.5900
  848MOL0     H11901   7.143   1.603   0.177 -0.5227  0.6269  0.7810
  848MOL0     H11902   7.017   1.803  -0.212  1.1129  0.7532  1.0452
  848MOL0     H11903   6.928   1.890  -0.094  0.3952 -0.2646  4.1474
  848MOL0     H11904   6.767   1.775  -0.233 -1.1715 -2.1725 -0.8586
  848MOL0     H11905   6.773   1.683  -0.077 -1.6912 -1.1067 -0.9194
  848MOL0     H11906   6.938   1.535  -0.183  1.7975  0.3484 -1.4306
  848MOL0     H11907   6.901   1.598  -0.344 -1.6632 -1.4221  0.0914
  848MOL0     H11908   6.697   1.461  -0.152  3.1430 -3.0065  0.4936
  848MOL0     H11909   6.648   1.567  -0.285 -0.7418 -2.5073 -1.2281
  848MOL0     H11910   6.814   1.303  -0.296  1.7186  1.6423  0.5289
  848MOL0     H11911   6.773   1.390  -0.445 -1.6467 -2.5239 -1.7303
  848MOL0     H11912   6.517   1.352  -0.392  0.0200  1.7696  3.3305
  848MOL0     H11913   6.573   1.270  -0.251 -0.3508 -0.3392  0.2890
  848MOL0     H11914   6.531   1.162  -0.519 -1.5228 -3.2867  2.0999
  848MOL0     H11915   6.695   1.179  -0.521  1.3738  0.6939 -0.1809
  848MOL0     H11916   6.571   1.051  -0.266  0.7078  1.0144 -0.0299
  848MOL0     H11917   6.728   1.022  -0.347 -0.2748 -2.7644 -1.7126
  848MOL0     H11918   7.078   1.978  -0.014  1.3706  1.0527 -0.1860
  848MOL0     H11919   7.251   2.076   0.119  0.6384 -0.4535 -0.5446
  848MOL0     H11920   7.650   2.138   0.389  2.0533 -0.8073  0.6741
  848MOL0     H11921   7.697   2.331   0.565 -0.3850 -0.9031 -1.1233
  848MOL0     H11922   9.359   3.147   1.408  2.2582  1.6622  0.4799
  848MOL0     H11923   9.581   3.174   1.389  0.6968 -1.0884  0.8779
  848MOL0     H11924   9.981   3.012   1.112  3.1969 -0.2983  2.2650
  848MOL0     H11925  10.218   3.041   1.079 -1.0110 -1.1994  0.7907
  848MOL0     H11926  10.395   3.070   0.968  3.0062 -0.6117 -0.1063
  848MOL0     H11927  10.460   3.159   1.112 -0.1270 -0.7691  0.1736
  848MOL0     H11928  10.639   3.141   0.955  1.8650  1.1421 -2.0426
  848MOL0     H11929  10.552   3.211   0.826  2.1846 -1.3451 -0.0381
  848MOL0     H11930  10.614   3.355   1.085  0.4600 -3.7678  0.1311
  848MOL0     H11931  10.510   3.411   0.953  0.3906  1.0958  2.4711
  848MOL0     H11932  10.709   3.391   0.790 -0.6709  2.1849  0.2022
  848MOL0     H11933  10.742   3.508   0.906  1.9416 -0.1551 -1.9581
  848MOL0     H11934  11.040   3.224   1.006 -1.2285 -2.6216  0.4492
  848MOL0     H11935  10.167   3.457   1.038  1.3493 -0.4538 -0.1065
  848MOL0     H11936   9.916   3.435   1.088 -1.7676 -0.1498  3.6093
  849MOL0     O11937   5.259   9.016   5.546 -0.4085 -0.5714  0.1805
  849MOL0     C11938   5.326   9.095   5.617 -0.7710 -0.1968 -0.3092
  849MOL0     O11939   5.277   9.195   5.684 -0.3758 -0.6960  0.8794
  849MOL0     C11940   5.149   9.225   5.660  1.2017 -0.4229 -0.3347
  849MOL0     C11941   5.046   9.171   5.745 -0.3800 -0.5177 -0.2754
  849MOL0     C11942   4.911   9.201   5.720 -0.7073  0.0589  0.1669
  849MOL0     C11943   4.867   9.285   5.619  0.5532 -0.1363 -1.3144
  849MOL0     O11944   4.731   9.300   5.606  0.6525  0.2210  0.0293
  849MOL0     C11945   4.692   9.298   5.462  0.3749  0.3103  0.4443
  849MOL0     C11946   4.557   9.234   5.466  0.6198 -0.1985  0.4708
  849MOL0     C11947   4.451   9.308   5.541 -0.0240 -0.1179  0.0449
  849MOL0     C11948   4.311   9.249   5.525 -0.4806 -0.3380 -0.5415
  849MOL0     C11949   4.199   9.358   5.552  0.2437  0.4214 -0.4232
  849MOL0     C11950   4.195   9.406   5.702 -0.6150 -0.1637  0.0371
  849MOL0     C11951   4.066   9.474   5.749  0.1968  1.0776 -0.1719
  849MOL0     C11952   4.032   9.608   5.680  0.5434 -0.7737 -0.3599
  849MOL0     N11953   3.998   9.593   5.538  1.1099 -0.2942 -0.1042
  849MOL0     C11954   3.911   9.498   5.494 -0.1639  0.8448  0.5137
  849MOL0     C11955   3.930   9.496   5.356  0.2293  0.4733  0.6074
  849MOL0     C11956   3.850   9.424   5.246  0.1827 -0.9015 -0.9572
  849MOL0     C11957   3.769   9.312   5.312  0.3538  0.1718 -0.2788
  849MOL0     C11958   3.663   9.252   5.218  0.7970  0.1010 -0.0600
  849MOL0     C11959   3.581   9.158   5.304  0.0804 -0.0721 -0.4156
  849MOL0     O11960   3.525   9.062   5.221  0.1288  0.9623 -0.2025
  849MOL0     C11961   3.415   8.992   5.249  0.5478 -0.5371  0.5301
  849MOL0     C11962   3.375   8.957   5.372  0.5767 -0.4851  0.3492
  849MOL0     C11963   3.269   8.871   5.386  0.6412  0.9436 -0.1963
  849MOL0     C11964   3.195   8.826   5.280 -0.3270  0.4444  0.4821
  849MOL0     C11965   3.076   8.746   5.288  0.2271  1.2645  0.1407
  849MOL0     O11966   2.989   8.741   5.181  0.3017 -0.1680 -0.6057
  849MOL0     C11967   2.880   8.659   5.206  0.1922 -0.1824 -0.3628
  849MOL0     C11968   2.885   8.524   5.204  0.5421  0.6269  0.0456
  849MOL0     C11969   2.773   8.443   5.232 -0.0981  0.8535  1.0171
  849MOL0     C11970   2.650   8.507   5.257 -0.0183  0.2866 -1.0924
  849MOL0     O11971   2.536   8.426   5.280 -0.1192  0.5172  0.4499
  849MOL0     C11972   2.537   8.349   5.407  0.3016 -0.5631  0.3093
  849MOL0     C11973   2.408   8.271   5.411 -0.1942  0.6080  0.5275
  849MOL0     C11974   2.397   8.198   5.545 -0.3081 -0.4120  0.3041
  849MOL0     C11975   2.260   8.125   5.552  0.1994 -0.9166 -0.3975
  849MOL0     C11976   2.207   8.092   5.692 -0.3814  0.4662 -1.4786
  849MOL0     C11977   2.186   8.211   5.784 -0.5179  0.1477 -0.5433
  849MOL0     C11978   2.109   8.167   5.905  0.0795 -0.2160  0.1720
  849MOL0     C11979   2.127   8.255   6.029  0.1929 -0.1459  0.5135
  849MOL0    Cl11980   2.304   8.273   6.065  0.1006 -0.2013 -0.2261
  849MOL0     C11981   2.644   8.644   5.260  0.2980  0.3568 -0.3912
  849MOL0     C11982   2.754   8.721   5.234 -0.5617 -0.0678  0.2010
  849MOL0     O11983   3.060   8.686   5.395 -0.5961 -0.5727  0.6636
  849MOL0     C11984   3.236   8.858   5.153  0.0397  0.0082  0.3644
  849MOL0     C11985   3.346   8.942   5.140 -0.0434 -0.1342 -0.5457
  849MOL0     N11986   4.018   9.588   5.317 -0.0997  0.2048  0.1746
  849MOL0     N11987   4.069   9.629   5.430  1.0324 -0.4072  0.4128
  849MOL0     C11988   4.972   9.336   5.539 -0.4041  0.2892  0.0781
  849MOL0     C11989   5.108   9.306   5.552 -0.0608  1.0972 -0.7401
  849MOL0     C11990   5.477   9.076   5.625 -0.1224  0.2320 -0.6301
  849MOL0     C11991   5.561   9.166   5.695 -0.5409 -0.4748 -0.2350
  849MOL0     C11992   5.704   9.159   5.689 -0.0142 -0.5161  0.4864
  849MOL0     C11993   5.762   9.067   5.601 -0.0217 -0.1518  0.0855
  849MOL0     O11994   5.901   9.046   5.588 -0.5427  0.8003 -0.3451
  849MOL0     C11995   5.995   9.156   5.605 -0.7231 -0.3367  0.2325
  849MOL0     C11996   6.112   9.127   5.513  0.1378 -1.0046  0.4100
  849MOL0     C11997   6.222   9.240   5.531 -0.8595 -0.3194 -0.1128
  849MOL0     C11998   6.351   9.207   5.444  0.8593  1.2237 -0.8548
  849MOL0     C11999   6.415   9.323   5.391 -0.7699  0.2065  0.0566
  849MOL0     C12000   6.481   9.412   5.339 -0.2249  0.0857  0.9772
  849MOL0     C12001   5.679   8.971   5.539  0.5050  0.3927  0.1653
  849MOL0     C12002   5.537   8.976   5.551 -0.5873  0.0769  0.8515
  849MOL0     H12003   5.080   9.126   5.838 -0.0050 -1.1371 -0.7021
  849MOL0     H12004   4.835   9.177   5.794 -0.3419  2.2129  1.3258
  849MOL0     H12005   4.763   9.248   5.396  0.0962 -1.0993  1.1763
  849MOL0     H12006   4.693   9.405   5.440  3.3654  0.5714  1.3003
  849MOL0     H12007   4.551   9.125   5.471  1.8445 -0.2900  0.4448
  849MOL0     H12008   4.516   9.258   5.367 -1.6175 -1.6755  0.9617
  849MOL0     H12009   4.443   9.410   5.502 -2.7661 -0.3764 -0.2713
  849MOL0     H12010   4.475   9.323   5.647  0.6447  1.0093 -0.2430
  849MOL0     H12011   4.310   9.221   5.419  0.9205  0.0205 -0.6816
  849MOL0     H12012   4.299   9.161   5.588 -0.6647  0.0316 -0.0584
  849MOL0     H12013   4.109   9.304   5.523 -1.0594  1.8231  0.7883
  849MOL0     H12014   4.208   9.443   5.483 -2.7684  0.5434 -0.8387
  849MOL0     H12015   4.273   9.472   5.739 -2.1395  0.6518  1.9947
  849MOL0     H12016   4.209   9.308   5.747  1.1248  0.2811  0.5311
  849MOL0     H12017   3.991   9.401   5.719  2.2267 -0.9230 -0.6925
  849MOL0     H12018   4.076   9.490   5.857  4.5542 -2.0938  0.1539
  849MOL0     H12019   4.117   9.676   5.687  2.2371 -2.7248 -0.9053
  849MOL0     H12020   3.949   9.646   5.741  0.6795 -1.8790  0.5511
  849MOL0     H12021   3.840   9.441   5.552  2.4564  1.3979  4.6487
  849MOL0     H12022   3.909   9.397   5.158  2.5729 -1.0564  0.5868
  849MOL0     H12023   3.778   9.497   5.208  0.6672 -0.1938 -0.5334
  849MOL0     H12024   3.717   9.346   5.402 -1.6379 -1.9697 -0.5338
  849MOL0     H12025   3.841   9.234   5.338 -2.0195 -0.9025  3.9825
  849MOL0     H12026   3.590   9.323   5.178 -1.7449 -2.6227 -0.6269
  849MOL0     H12027   3.724   9.206   5.140  1.0769 -0.0929  0.2719
  849MOL0     H12028   3.499   9.205   5.360  1.0492  1.3418 -0.1378
  849MOL0     H12029   3.648   9.113   5.376  0.2159  1.1141  0.2224
  849MOL0     H12030   3.429   8.997   5.457 -1.2901 -0.4200  1.5739
  849MOL0     H12031   3.249   8.827   5.483  3.5844 -2.6737 -1.0180
  849MOL0     H12032   2.981   8.481   5.177 -1.1741 -1.9038 -2.5408
  849MOL0     H12033   2.781   8.335   5.238 -0.8805  0.7849  0.9098
  849MOL0     H12034   2.535   8.425   5.486 -1.1925  1.7573 -1.8169
  849MOL0     H12035   2.621   8.281   5.419  0.4504  0.0574  3.9223
  849MOL0     H12036   2.419   8.200   5.328 -1.3059 -0.9786  1.6763
  849MOL0     H12037   2.323   8.339   5.398 -0.1199  0.3579 -1.6176
  849MOL0     H12038   2.414   8.266   5.629 -0.8813 -1.9729  1.7456
  849MOL0     H12039   2.471   8.117   5.556  2.0547  1.3903 -1.2731
  849MOL0     H12040   2.186   8.186   5.500 -2.2033  0.4462  4.1312
  849MOL0     H12041   2.256   8.033   5.493  0.2211 -0.2460 -1.4672
  849MOL0     H12042   2.270   8.017   5.741  1.0996  1.8762 -1.1331
  849MOL0     H12043   2.110   8.042   5.679 -1.3059  1.4778  0.9984
  849MOL0     H12044   2.138   8.294   5.732 -1.5485 -0.2489 -0.2517
  849MOL0     H12045   2.283   8.249   5.817  0.7031 -0.2393 -3.3773
  849MOL0     H12046   2.007   8.140   5.875 -0.4298 -0.7404  2.1832
  849MOL0     H12047   2.141   8.066   5.933  0.7246 -1.0009 -2.9922
  849MOL0     H12048   2.079   8.210   6.116  0.4068  0.8040  1.1334
  849MOL0     H12049   2.077   8.351   6.014  0.3085 -0.3285 -1.2245
  849MOL0     H12050   2.547   8.684   5.286  0.3003 -0.0517  0.2695
  849MOL0     H12051   2.745   8.829   5.224  3.1244  0.3527  0.0611
  849MOL0     H12052   3.194   8.833   5.056  0.8896  1.0641 -0.2903
  849MOL0     H12053   3.371   8.967   5.038 -2.9571  3.5732 -0.5792
  849MOL0     H12054   4.933   9.394   5.455 -1.4210  0.2128  0.4801
  849MOL0     H12055   5.175   9.351   5.479  0.2169 -2.0907 -2.6452
  849MOL0     H12056   5.528   9.253   5.751  0.9134  0.4461 -0.7499
  849MOL0     H12057   5.775   9.219   5.745  0.4534 -1.0908  0.5242
  849MOL0     H12058   6.018   9.171   5.711 -1.9989  0.1100  0.4651
  849MOL0     H12059   5.949   9.251   5.576 -4.2422 -1.4007  1.7303
  849MOL0     H12060   6.154   9.027   5.526  0.6315 -1.1255 -1.7586
  849MOL0     H12061   6.084   9.129   5.407 -4.3319  0.6311  1.3637
  849MOL0     H12062   6.256   9.247   5.635 -1.5102  2.1284 -0.0028
  849MOL0     H12063   6.186   9.337   5.498  0.6732 -0.4838 -2.5093
  849MOL0     H12064   6.422   9.157   5.509  1.7603  2.4514 -0.8651
  849MOL0     H12065   6.327   9.141   5.360 -0.6443 -1.9866  1.8307
  849MOL0     H12066   6.548   9.482   5.292 -1.7470 -0.3007 -2.0324
  849MOL0     H12067   5.735   8.898   5.481  1.5740  0.2343  1.3356
  849MOL0     H12068   5.487   8.891   5.505  0.0369 -1.6307  3.0942
  850MOL0     O12069   6.407   9.728   6.766 -0.0335 -0.5658  0.4314
  850MOL0     C12070   6.419   9.685   6.645 -0.0960  0.9722  0.6094
  850MOL0     O12071   6.326   9.608   6.579  0.0200 -0.0427  0.2316
  850MOL0     C12072   6.193   9.595   6.612 -0.7528 -0.1379  0.5763
  850MOL0     C12073   6.132   9.481   6.568  0.8132  0.1811 -0.4881
  850MOL0     C12074   5.998   9.442   6.592  0.4413 -0.2682  0.7041
  850MOL0     C12075   5.921   9.537   6.665 -0.5213 -0.4872 -0.2193
  850MOL0     O12076   5.789   9.527   6.700  0.4694  0.6312 -0.5466
  850MOL0     C12077   5.727   9.391   6.690 -0.4258 -0.3760  0.1629
  850MOL0     C12078   5.588   9.367   6.756 -0.1495 -0.0394  0.4091
  850MOL0     C12079   5.466   9.446   6.693  0.1118  0.1404 -0.3867
  850MOL0     C12080   5.450   9.579   6.760  0.2877 -0.1595 -0.7172
  850MOL0     C12081   5.308   9.641   6.755 -0.1172 -0.0246 -0.7549
  850MOL0     C12082   5.264   9.664   6.618 -0.1224  0.1780 -0.3183
  850MOL0     C12083   5.141   9.735   6.600 -0.7055  0.0069 -0.8898
  850MOL0     C12084   5.156   9.880   6.651 -0.4034 -0.1158  0.1000
  850MOL0     N12085   5.025   9.950   6.639 -0.2121  0.3659  0.1668
  850MOL0     C12086   4.929   9.922   6.539 -0.4295  0.7203  0.8474
  850MOL0     C12087   4.828  10.004   6.577  1.1567  0.0809  0.4270
  850MOL0     C12088   4.694  10.003   6.500  0.2838 -0.0069 -0.3581
  850MOL0     C12089   4.576  10.045   6.592  0.0875  0.9631 -0.4576
  850MOL0     C12090   4.443  10.070   6.506 -0.8121  0.9526  0.9053
  850MOL0     C12091   4.344  10.113   6.610 -0.1490  0.2988 -0.9195
  850MOL0     O12092   4.275  10.224   6.563  0.0314  0.7538 -0.4125
  850MOL0     C12093   4.157  10.260   6.613  0.2249 -0.3332 -0.6055
  850MOL0     C12094   4.076  10.193   6.700 -0.1889  0.2945  0.0219
  850MOL0     C12095   3.949  10.238   6.741  0.4025  0.5932  0.8619
  850MOL0     C12096   3.898  10.349   6.674  0.1183 -0.6998 -0.1330
  850MOL0     C12097   3.765  10.392   6.703  1.6101  0.0320  0.4816
  850MOL0     O12098   3.695  10.443   6.595  0.5535 -0.4196  0.0075
  850MOL0     C12099   3.560  10.481   6.617 -1.0855  1.0732  0.0920
  850MOL0     C12100   3.461  10.386   6.610  0.6158  0.4501 -0.0943
  850MOL0     C12101   3.324  10.424   6.621  0.2188  1.0896 -0.2887
  850MOL0     C12102   3.296  10.552   6.657  0.1664  0.0395 -0.0576
  850MOL0     O12103   3.158  10.566   6.686 -0.3172 -0.3411  0.5506
  850MOL0     C12104   3.103  10.698   6.674  0.2248 -0.6405  0.2852
  850MOL0     C12105   2.953  10.688   6.664  1.0111  0.5539  0.5041
  850MOL0     C12106   2.898  10.621   6.538  0.2379  0.1630  0.1119
  850MOL0     C12107   2.746  10.631   6.541 -0.1414  0.5659 -0.4735
  850MOL0     C12108   2.686  10.558   6.419  1.1528 -0.6595  0.3705
  850MOL0     C12109   2.530  10.564   6.432 -0.2945  0.3834 -0.2809
  850MOL0     C12110   2.458  10.523   6.302 -0.1516 -0.0586 -1.1145
  850MOL0     C12111   2.306  10.532   6.314 -0.9587 -0.2520  1.0620
  850MOL0    Cl12112   2.243  10.684   6.369  0.1202  0.1803  0.0729
  850MOL0     C12113   3.393  10.650   6.669  1.3371  1.0336 -0.2586
  850MOL0     C12114   3.521  10.614   6.647 -0.5587  0.1805  0.5190
  850MOL0     O12115   3.719  10.384   6.817 -0.6440 -0.4268  0.4032
  850MOL0     C12116   3.981  10.418   6.586 -0.5134 -0.0192 -0.3651
  850MOL0     C12117   4.099  10.372   6.546 -0.2574  0.0098 -0.4240
  850MOL0     N12118   4.872  10.080   6.690  0.0722 -0.3936 -0.5547
  850MOL0     N12119   4.979  10.040   6.736 -0.3943 -0.0932 -0.5360
  850MOL0     C12120   5.985   9.656   6.713 -0.2445  0.0535 -0.4311
  850MOL0     C12121   6.121   9.686   6.692 -0.4959 -0.1420 -0.4283
  850MOL0     C12122   6.551   9.713   6.584 -0.0038  0.3814 -0.1124
  850MOL0     C12123   6.625   9.811   6.637 -0.8466 -0.6978  0.3866
  850MOL0     C12124   6.761   9.826   6.599 -0.4642  0.2457 -0.0037
  850MOL0     C12125   6.821   9.736   6.510 -0.7392  0.9904 -1.6345
  850MOL0     O12126   6.963   9.713   6.491  0.6530 -0.3673  0.6088
  850MOL0     C12127   7.048   9.776   6.584  0.2287  0.5851 -0.7554
  850MOL0     C12128   7.092   9.919   6.536 -0.2509  0.7333  0.1916
  850MOL0     C12129   7.183   9.994   6.623 -0.4738  0.1588 -0.8819
  850MOL0     C12130   7.325   9.935   6.616 -0.8373  0.1694 -0.0827
  850MOL0     C12131   7.426  10.001   6.703  0.2541 -0.8495 -0.1523
  850MOL0     C12132   7.517  10.069   6.757  0.5813 -0.2989 -0.0858
  850MOL0     C12133   6.743   9.628   6.465 -0.5878 -0.2584 -0.3750
  850MOL0     C12134   6.604   9.624   6.497 -0.4614  0.5182 -0.1690
  850MOL0     H12135   6.197   9.425   6.501  0.1005 -0.6241 -0.5156
  850MOL0     H12136   5.962   9.350   6.546  0.9512 -0.6423  1.0428
  850MOL0     H12137   5.797   9.323   6.739  0.4877  0.5838  0.2337
  850MOL0     H12138   5.726   9.358   6.586  3.0342  1.6394 -0.6760
  850MOL0     H12139   5.600   9.381   6.864  3.3491  0.2538  0.0974
  850MOL0     H12140   5.567   9.260   6.744 -0.0047  0.0462 -0.7296
  850MOL0     H12141   5.377   9.388   6.716 -0.6484  0.3555 -2.5695
  850MOL0     H12142   5.488   9.442   6.586  0.9611 -2.2200 -0.1999
  850MOL0     H12143   5.465   9.559   6.867 -5.1052 -3.7925 -0.2773
  850MOL0     H12144   5.528   9.647   6.723 -1.4121  1.4544 -1.5016
  850MOL0     H12145   5.305   9.730   6.819 -4.5801 -1.2814  1.2409
  850MOL0     H12146   5.229   9.575   6.794 -1.7927  1.2273 -1.8791
  850MOL0     H12147   5.259   9.572   6.559 -1.4016  1.5117 -2.3976
  850MOL0     H12148   5.338   9.732   6.576 -1.8092  2.4579  0.2084
  850MOL0     H12149   5.131   9.744   6.491 -0.3702 -1.8221 -1.0904
  850MOL0     H12150   5.053   9.688   6.643  0.0672 -0.7950 -0.1518
  850MOL0     H12151   5.229   9.935   6.590  0.4431 -0.4815  0.7647
  850MOL0     H12152   5.185   9.871   6.756  2.2858 -2.3174 -0.7101
  850MOL0     H12153   4.903   9.845   6.466 -0.9821  0.6791  1.0804
  850MOL0     H12154   4.680   9.907   6.451 -2.3319  0.6488 -1.0567
  850MOL0     H12155   4.695  10.070   6.414  1.0300 -1.4626 -1.5199
  850MOL0     H12156   4.598  10.132   6.655 -0.8157 -0.5871  2.1284
  850MOL0     H12157   4.563   9.965   6.665 -2.8937  2.1772  0.5017
  850MOL0     H12158   4.452  10.145   6.428  0.2410 -1.6959 -1.7206
  850MOL0     H12159   4.408   9.978   6.457 -2.1212  1.3286  1.1049
  850MOL0     H12160   4.385  10.146   6.706  0.7631 -1.1252 -0.7861
  850MOL0     H12161   4.274  10.031   6.630 -0.6216  1.5890  3.8339
  850MOL0     H12162   4.117  10.100   6.739  1.2931  0.7348 -0.4004
  850MOL0     H12163   3.877  10.176   6.791 -3.0538  1.5768 -2.4242
  850MOL0     H12164   3.486  10.282   6.592  2.9537  0.8262  0.7496
  850MOL0     H12165   3.243  10.352   6.613 -2.9292  3.9799  2.3291
  850MOL0     H12166   3.147  10.750   6.588  0.8375  1.4824  1.7774
  850MOL0     H12167   3.126  10.750   6.768 -0.9369 -0.0317  0.2548
  850MOL0     H12168   2.906  10.787   6.668 -1.5676 -0.5007 -0.9173
  850MOL0     H12169   2.912  10.626   6.743 -1.6484 -0.1156 -1.2643
  850MOL0     H12170   2.943  10.522   6.538  1.0738  0.4542  2.8496
  850MOL0     H12171   2.938  10.679   6.454 -0.6113  3.4222  1.7944
  850MOL0     H12172   2.711  10.581   6.632 -2.5330  0.2158 -1.5130
  850MOL0     H12173   2.709  10.734   6.552  3.0678  1.8222 -0.1811
  850MOL0     H12174   2.713  10.452   6.409  0.0353 -1.0019  0.7260
  850MOL0     H12175   2.714  10.611   6.328  2.1470  0.8556  1.5182
  850MOL0     H12176   2.502  10.668   6.451 -1.1438  0.5166 -2.0363
  850MOL0     H12177   2.502  10.489   6.506  3.5460 -0.3833  0.6264
  850MOL0     H12178   2.486  10.582   6.214  2.4724  0.5457 -0.0047
  850MOL0     H12179   2.497  10.423   6.283  0.5310 -0.2896  1.1234
  850MOL0     H12180   2.275  10.458   6.388  0.0277 -1.2508  0.4938
  850MOL0     H12181   2.273  10.510   6.212 -1.2026  0.2062  1.0392
  850MOL0     H12182   3.371  10.746   6.716 -0.1645  0.1555  0.9265
  850MOL0     H12183   3.606  10.681   6.642 -0.7276  0.4221  0.8074
  850MOL0     H12184   3.931  10.506   6.546 -2.1357  0.6801  2.8457
  850MOL0     H12185   4.146  10.432   6.468 -0.1825  1.4579  0.6815
  850MOL0     H12186   5.925   9.722   6.775 -2.0943 -1.2036 -0.7827
  850MOL0     H12187   6.156   9.779   6.736  1.1628  0.9452 -3.6531
  850MOL0     H12188   6.578   9.885   6.702 -0.1341 -0.3586  0.5217
  850MOL0     H12189   6.815   9.900   6.657  1.4581 -2.0409  1.2928
  850MOL0     H12190   7.138   9.716   6.604  0.7682  0.8354 -2.3197
  850MOL0     H12191   7.009   9.775   6.686 -0.3383 -1.1394 -0.9496
  850MOL0     H12192   7.143   9.907   6.440 -4.3064  1.0677 -2.2081
  850MOL0     H12193   7.005   9.981   6.515 -1.0788 -0.0022  1.3328
  850MOL0     H12194   7.159   9.998   6.729 -0.2596  0.8632 -0.8570
  850MOL0     H12195   7.189  10.094   6.580  1.3109 -0.8589 -3.2773
  850MOL0     H12196   7.334   9.828   6.640 -0.2395  0.2266 -0.0258
  850MOL0     H12197   7.366   9.947   6.515 -0.4136  1.5128  0.2347
  850MOL0     H12198   7.594  10.128   6.804  1.2568 -0.1010 -1.3983
  850MOL0     H12199   6.779   9.540   6.412 -1.8896  0.0490 -1.8645
  850MOL0     H12200   6.556   9.533   6.462 -0.4840 -0.4048  2.0791
  851MOL0     O12201   1.987   2.287   3.056 -0.1142 -0.6128 -0.2245
  851MOL0     C12202   2.067   2.266   3.148 -0.2590 -0.2739  0.0538
  851MOL0     O12203   2.048   2.189   3.256  0.1830  0.2561 -0.6045
  851MOL0     C12204   1.926   2.156   3.292  0.0623 -0.0435  0.4527
  851MOL0     C12205   1.838   2.252   3.324 -0.1522  0.8032 -0.0808
  851MOL0     C12206   1.712   2.222   3.366 -0.3578 -0.9945 -0.1092
  851MOL0     C12207   1.667   2.085   3.368 -0.3226 -0.0937 -0.3588
  851MOL0     O12208   1.539   2.066   3.393 -0.4138  0.3835 -0.7936
  851MOL0     C12209   1.524   1.965   3.495  0.3841 -0.0225 -0.1458
  851MOL0     C12210   1.385   1.983   3.564 -0.4465 -0.2647 -0.1618
  851MOL0     C12211   1.255   1.944   3.477 -0.5317 -0.2515 -0.5761
  851MOL0     C12212   1.130   1.976   3.556 -0.5388 -1.2075 -1.2322
  851MOL0     C12213   1.001   1.988   3.486  0.6497  0.1676  0.1982
  851MOL0     C12214   0.897   2.029   3.595  0.6692  0.8438  0.0794
  851MOL0     C12215   0.761   2.053   3.539 -0.0845  0.7870  0.2870
  851MOL0     C12216   0.717   1.959   3.419  0.2178  0.8731 -0.4921
  851MOL0     N12217   0.570   1.988   3.402  0.3783  0.6882  0.4512
  851MOL0     C12218   0.506   2.028   3.282 -0.7110  1.0300  0.2093
  851MOL0     C12219   0.379   2.034   3.312  0.0921  0.4068 -0.6645
  851MOL0     C12220   0.270   2.090   3.229 -0.6009  0.2360 -0.5894
  851MOL0     C12221   0.305   2.237   3.214  0.2130  0.2132 -0.2634
  851MOL0     C12222   0.261   2.305   3.088  0.4603 -0.6067  0.3986
  851MOL0     C12223   0.099   2.313   3.086 -0.0318 -0.4795  0.8002
  851MOL0     O12224   0.065   2.360   2.952 -0.4656 -0.2683  0.3289
  851MOL0     C12225  -0.061   2.403   2.928  0.4759  0.4702 -0.4712
  851MOL0     C12226  -0.097   2.457   2.809  0.1494  0.0878 -0.3069
  851MOL0     C12227  -0.225   2.498   2.780  0.1690  0.5701 -0.9764
  851MOL0     C12228  -0.323   2.493   2.880  0.3415 -0.6626  0.0510
  851MOL0     C12229  -0.459   2.537   2.839 -0.4743  0.9582  0.2992
  851MOL0     O12230  -0.553   2.506   2.931  0.1684  0.3371  0.4922
  851MOL0     C12231  -0.687   2.541   2.917 -0.4574 -0.3121  0.0408
  851MOL0     C12232  -0.793   2.448   2.893 -0.0130 -0.9540  0.2462
  851MOL0     C12233  -0.927   2.491   2.884 -0.7444 -0.6013  0.8532
  851MOL0     C12234  -0.957   2.628   2.905 -0.0139 -0.3936  0.5054
  851MOL0     O12235  -1.084   2.682   2.925  0.3312 -0.3379 -0.0255
  851MOL0     C12236  -1.174   2.592   2.989 -0.5567  0.4897  0.6205
  851MOL0     C12237  -1.282   2.669   3.067  0.1740 -0.5124  0.4082
  851MOL0     C12238  -1.364   2.757   2.967 -0.3322  0.3454  0.8627
  851MOL0     C12239  -1.489   2.811   3.035  0.2046 -0.5396  0.2781
  851MOL0     C12240  -1.590   2.835   2.927 -0.1573  0.0867  0.1338
  851MOL0     C12241  -1.731   2.878   2.979  0.1237 -0.2003  1.2192
  851MOL0     C12242  -1.825   2.937   2.861  0.2592 -0.1470 -0.3531
  851MOL0     C12243  -1.967   2.861   2.859 -0.4490  0.5629 -0.1705
  851MOL0    Cl12244  -2.082   2.952   2.758 -0.1003  0.3258  0.3738
  851MOL0     C12245  -0.855   2.717   2.929  0.6040 -0.2522 -0.2160
  851MOL0     C12246  -0.724   2.676   2.919 -0.5663 -0.5009  0.0722
  851MOL0     O12247  -0.481   2.594   2.735  0.1855  0.2529  0.1977
  851MOL0     C12248  -0.292   2.438   3.004  1.0343  0.5596  0.2635
  851MOL0     C12249  -0.166   2.391   3.027 -0.8634  0.6347 -0.0491
  851MOL0     N12250   0.359   1.993   3.442  0.2285  0.2041 -0.0351
  851MOL0     N12251   0.472   1.968   3.493 -0.5194 -0.5470  0.2671
  851MOL0     C12252   1.753   1.988   3.331  0.1572  0.6034 -0.1094
  851MOL0     C12253   1.882   2.022   3.284 -0.7610 -0.4815 -0.4801
  851MOL0     C12254   2.207   2.323   3.124  0.5930  0.0398  0.3123
  851MOL0     C12255   2.322   2.279   3.192 -0.1182  0.8655 -0.0630
  851MOL0     C12256   2.443   2.328   3.150  0.2982  0.6902  1.0068
  851MOL0     C12257   2.456   2.433   3.064 -0.3474  0.5289  0.5846
  851MOL0     O12258   2.582   2.476   3.049  0.2570 -0.3176  0.6400
  851MOL0     C12259   2.611   2.576   2.946 -0.2968  0.3370  0.6666
  851MOL0     C12260   2.757   2.618   2.961  0.1831  0.0563 -0.3239
  851MOL0     C12261   2.781   2.708   3.086  0.4695  0.3917 -0.8666
  851MOL0     C12262   2.742   2.647   3.225  0.5482 -0.2339 -0.5380
  851MOL0     C12263   2.785   2.735   3.335 -0.4335 -0.1183  0.2708
  851MOL0     C12264   2.807   2.797   3.439 -0.4092 -0.2865  0.1262
  851MOL0     C12265   2.339   2.481   2.995 -0.5009 -0.5548 -0.3205
  851MOL0     C12266   2.218   2.430   3.034  1.2857 -0.0298  0.1343
  851MOL0     H12267   1.871   2.355   3.323 -1.3891  1.2327 -1.4418
  851MOL0     H12268   1.643   2.305   3.379  0.9747 -0.2514  3.1717
  851MOL0     H12269   1.593   1.984   3.577 -1.1192 -0.5068  1.3001
  851MOL0     H12270   1.527   1.864   3.452 -2.5112  1.3203 -4.0419
  851MOL0     H12271   1.372   2.083   3.605  0.6496 -0.2508  0.1794
  851MOL0     H12272   1.381   1.912   3.647  0.1513 -1.6601 -1.2795
  851MOL0     H12273   1.254   1.836   3.460  0.7939 -0.4522  0.4350
  851MOL0     H12274   1.251   2.000   3.383  1.0189 -0.5969 -0.8775
  851MOL0     H12275   1.114   1.899   3.632 -2.5196 -0.4714 -0.8372
  851MOL0     H12276   1.146   2.067   3.614 -0.5311 -2.0006  0.0754
  851MOL0     H12277   0.971   1.895   3.436 -1.4316 -0.6245  2.7089
  851MOL0     H12278   1.015   2.056   3.401  0.7713 -0.6547 -0.4618
  851MOL0     H12279   0.927   2.120   3.648 -2.7634  2.3998 -0.3790
  851MOL0     H12280   0.886   1.954   3.674 -2.4216  0.2706 -0.7582
  851MOL0     H12281   0.700   2.041   3.629  1.9441  1.4510  1.8302
  851MOL0     H12282   0.752   2.157   3.508 -0.9963  0.9851  1.1444
  851MOL0     H12283   0.728   1.856   3.453 -0.1384  1.9285  3.1932
  851MOL0     H12284   0.772   1.988   3.329  1.1086  2.4108  0.4934
  851MOL0     H12285   0.546   2.043   3.183 -0.1711  0.3900  0.3226
  851MOL0     H12286   0.178   2.074   3.286 -0.0063 -1.5531 -0.0450
  851MOL0     H12287   0.255   2.032   3.138  0.8348  0.8497 -1.2452
  851MOL0     H12288   0.415   2.241   3.211  0.2098  1.7897  0.5644
  851MOL0     H12289   0.274   2.303   3.295 -3.1099  1.3365 -2.2509
  851MOL0     H12290   0.318   2.397   3.075  0.8570 -0.7467  1.1038
  851MOL0     H12291   0.298   2.241   3.007  1.5725  0.3699  0.1046
  851MOL0     H12292   0.062   2.386   3.158 -0.8819  1.0667 -1.0969
  851MOL0     H12293   0.062   2.210   3.095  1.5137 -1.1968 -0.4255
  851MOL0     H12294  -0.028   2.474   2.727 -0.9242  0.5235 -1.1493
  851MOL0     H12295  -0.247   2.541   2.683 -1.7050  0.4058 -0.6507
  851MOL0     H12296  -0.764   2.343   2.892  2.6946 -0.2894  0.1619
  851MOL0     H12297  -1.002   2.413   2.871 -1.0498 -0.1876  0.0343
  851MOL0     H12298  -1.125   2.519   3.055  2.2942  1.7307  0.0423
  851MOL0     H12299  -1.232   2.539   2.913 -4.3462  3.3242  1.2767
  851MOL0     H12300  -1.232   2.745   3.128 -1.9159  1.6163 -0.4117
  851MOL0     H12301  -1.351   2.608   3.127  0.4017 -0.7362  0.4461
  851MOL0     H12302  -1.385   2.684   2.888 -1.1552 -1.9707  3.0875
  851MOL0     H12303  -1.305   2.843   2.934  2.2987 -1.1143  1.5300
  851MOL0     H12304  -1.527   2.738   3.108  0.8145 -0.1912  0.9572
  851MOL0     H12305  -1.460   2.904   3.085  0.3488 -0.4582  0.0440
  851MOL0     H12306  -1.600   2.743   2.867  0.4055  0.9875 -1.4088
  851MOL0     H12307  -1.555   2.904   2.850 -0.1010  0.2715  0.3240
  851MOL0     H12308  -1.725   2.955   3.056 -0.8044 -0.8401  1.9582
  851MOL0     H12309  -1.791   2.794   3.017  1.2912 -0.6123  2.2016
  851MOL0     H12310  -1.847   3.040   2.891  1.9169  0.0892  0.1500
  851MOL0     H12311  -1.772   2.933   2.765  1.5882  0.1041  0.3550
  851MOL0     H12312  -2.009   2.873   2.960  0.8341  0.3440  0.4020
  851MOL0     H12313  -1.961   2.757   2.827 -2.8256  0.4015 -0.3104
  851MOL0     H12314  -0.865   2.825   2.935  2.3844 -0.1126  0.7168
  851MOL0     H12315  -0.647   2.752   2.932  1.2460 -2.4730  1.7009
  851MOL0     H12316  -0.370   2.436   3.080 -1.2266  1.0561 -1.9182
  851MOL0     H12317  -0.150   2.341   3.122  1.8234 -0.6875 -1.0792
  851MOL0     H12318   1.716   1.886   3.323 -0.8945  0.5531  3.6850
  851MOL0     H12319   1.961   1.956   3.248 -0.7280 -1.8392  1.8442
  851MOL0     H12320   2.319   2.199   3.266  2.5346 -1.2125 -2.0154
  851MOL0     H12321   2.530   2.280   3.194 -0.8145 -2.8440 -0.3033
  851MOL0     H12322   2.540   2.659   2.959 -2.5650 -1.6989  2.3399
  851MOL0     H12323   2.598   2.542   2.843  2.9258  0.0042  0.2809
  851MOL0     H12324   2.823   2.532   2.970  1.5762  1.2383  1.5857
  851MOL0     H12325   2.782   2.666   2.866 -0.4937  0.1844 -0.4455
  851MOL0     H12326   2.730   2.802   3.068 -1.3011 -0.3396  0.1327
  851MOL0     H12327   2.890   2.723   3.087  0.4026  0.8817 -0.8000
  851MOL0     H12328   2.634   2.630   3.231  1.0607 -4.2546  0.0991
  851MOL0     H12329   2.788   2.549   3.240 -0.3466 -0.5668  0.1360
  851MOL0     H12330   2.834   2.863   3.520  0.3484 -0.2424 -0.1610
  851MOL0     H12331   2.337   2.551   2.912 -1.8597 -1.5574 -1.1841
  851MOL0     H12332   2.128   2.476   2.994  2.0857  0.5778 -1.0453
  852MOL0     O12333   4.287   2.914   0.544  0.3329  0.9097  0.0004
  852MOL0     C12334   4.332   2.867   0.435  0.7504  0.7719  0.4636
  852MOL0     O12335   4.256   2.820   0.333  0.4071 -0.1316  0.2700
  852MOL0     C12336   4.121   2.813   0.343  0.6385  0.0983  0.7042
  852MOL0     C12337   4.053   2.774   0.457 -0.8598  0.4627 -0.2168
  852MOL0     C12338   3.918   2.744   0.457  0.8853  0.4810  0.1298
  852MOL0     C12339   3.845   2.757   0.337 -0.6802 -0.4587  0.7030
  852MOL0     O12340   3.713   2.733   0.354 -0.0882  0.4718 -0.3659
  852MOL0     C12341   3.614   2.791   0.275 -0.2630  0.3941  0.1179
  852MOL0     C12342   3.492   2.698   0.263  0.5127  0.1060 -0.2979
  852MOL0     C12343   3.387   2.779   0.186  0.3011 -0.2651 -0.2579
  852MOL0     C12344   3.246   2.727   0.217  0.7467  0.3695  0.7052
  852MOL0     C12345   3.151   2.778   0.111 -0.4475  0.5657 -0.6402
  852MOL0     C12346   3.005   2.736   0.142  0.0363 -0.2441  0.6564
  852MOL0     C12347   2.905   2.781   0.042 -0.0193 -0.0689 -0.1945
  852MOL0     C12348   2.779   2.694   0.041 -1.0795 -0.0365 -0.3802
  852MOL0     N12349   2.667   2.749  -0.029  0.1230 -0.3133  0.2695
  852MOL0     C12350   2.577   2.831   0.032 -0.0231 -1.0089 -0.7569
  852MOL0     C12351   2.491   2.868  -0.063 -0.5991  0.0979 -0.5539
  852MOL0     C12352   2.375   2.957  -0.030  0.6135  0.3173  0.7888
  852MOL0     C12353   2.244   2.880  -0.021 -0.2850 -0.1181  0.4475
  852MOL0     C12354   2.202   2.809  -0.155 -0.8734 -0.7613  0.3925
  852MOL0     C12355   2.205   2.896  -0.273  0.4690  0.0089  0.1468
  852MOL0     O12356   2.108   2.998  -0.265 -0.2137 -0.0881 -0.5848
  852MOL0     C12357   1.978   2.972  -0.287  0.0166  1.3198  0.1463
  852MOL0     C12358   1.920   2.845  -0.321  0.3372  0.6202  0.2358
  852MOL0     C12359   1.782   2.833  -0.351 -0.2250  0.6645 -0.2450
  852MOL0     C12360   1.701   2.946  -0.347  0.0166 -1.0555 -0.1954
  852MOL0     C12361   1.550   2.939  -0.363 -0.7742 -0.1108  0.7411
  852MOL0     O12362   1.482   2.824  -0.331  0.2556 -0.5840 -0.0504
  852MOL0     C12363   1.350   2.817  -0.368  0.4653  0.4464  0.4781
  852MOL0     C12364   1.325   2.782  -0.498  0.0059  0.8620 -0.4043
  852MOL0     C12365   1.195   2.773  -0.549  0.6184 -0.4551  0.7967
  852MOL0     C12366   1.080   2.809  -0.481 -1.0085  0.9581 -0.5740
  852MOL0     O12367   0.950   2.812  -0.529 -0.4374 -0.0831  0.4710
  852MOL0     C12368   0.838   2.789  -0.437 -0.5320  0.2043  0.2006
  852MOL0     C12369   0.715   2.769  -0.521 -0.9515  0.4375 -0.5439
  852MOL0     C12370   0.682   2.883  -0.609  0.1464  1.0551 -0.5402
  852MOL0     C12371   0.593   2.850  -0.728 -0.1194 -0.5845  0.0720
  852MOL0     C12372   0.533   2.960  -0.814 -0.1138  0.0246 -0.0416
  852MOL0     C12373   0.629   3.049  -0.884 -0.0097 -0.8134  0.4156
  852MOL0     C12374   0.712   2.985  -1.004 -0.2272 -0.0389 -0.8681
  852MOL0     C12375   0.808   3.090  -1.071 -0.4450  0.1503 -0.1800
  852MOL0    Cl12376   0.953   3.114  -0.971 -0.0550 -0.1558 -0.1298
  852MOL0     C12377   1.103   2.856  -0.349  0.1800 -0.3777  0.0958
  852MOL0     C12378   1.229   2.864  -0.295 -0.3640  1.0274  0.1386
  852MOL0     O12379   1.502   3.040  -0.401 -0.5649  0.1722 -0.4590
  852MOL0     C12380   1.764   3.072  -0.321  0.0301  0.0627  0.5978
  852MOL0     C12381   1.892   3.080  -0.283 -0.1287  0.7707  0.7836
  852MOL0     N12382   2.523   2.800  -0.181  0.6625 -0.0843  0.1734
  852MOL0     N12383   2.624   2.723  -0.161 -0.0995 -0.4861 -0.1031
  852MOL0     C12384   3.907   2.813   0.225  0.2193 -0.3200  0.4684
  852MOL0     C12385   4.043   2.840   0.228 -1.0186  0.6659 -0.3305
  852MOL0     C12386   4.482   2.879   0.425 -0.3849  0.3036 -0.2539
  852MOL0     C12387   4.566   2.884   0.534  0.2258 -0.4484 -0.4006
  852MOL0     C12388   4.701   2.917   0.515  0.6253  0.6397  0.4528
  852MOL0     C12389   4.751   2.940   0.384  0.1133 -0.3958 -0.0924
  852MOL0     O12390   4.882   2.970   0.370 -0.7069  0.1951 -0.3344
  852MOL0     C12391   4.959   2.848   0.337  0.0024 -0.4411 -0.0510
  852MOL0     C12392   5.095   2.888   0.271  0.1615  0.2137 -0.6544
  852MOL0     C12393   5.170   2.758   0.254 -0.1904  0.0017  0.6390
  852MOL0     C12394   5.305   2.780   0.192  0.4839 -0.3471 -0.0332
  852MOL0     C12395   5.353   2.641   0.169  1.2076 -0.6955  0.4286
  852MOL0     C12396   5.400   2.529   0.148  0.9846 -0.1249 -0.5670
  852MOL0     C12397   4.668   2.922   0.275 -1.3012 -0.6562  1.3418
  852MOL0     C12398   4.536   2.898   0.296 -0.4926 -0.0624  0.0013
  852MOL0     H12399   4.100   2.745   0.550 -1.4253 -2.3258 -0.6929
  852MOL0     H12400   3.860   2.713   0.543 -0.0177 -0.0016 -0.6378
  852MOL0     H12401   3.640   2.805   0.170 -4.0494 -0.3708 -1.0898
  852MOL0     H12402   3.578   2.888   0.313  1.7670  1.3052 -0.1396
  852MOL0     H12403   3.454   2.666   0.360  1.5856  0.9450  0.4280
  852MOL0     H12404   3.521   2.611   0.205  1.5109  1.4901 -1.9615
  852MOL0     H12405   3.411   2.762   0.080  3.5335  1.1397  0.1354
  852MOL0     H12406   3.390   2.886   0.207  1.1064 -0.4991  0.9031
  852MOL0     H12407   3.240   2.620   0.194  0.4613  0.4781  0.2563
  852MOL0     H12408   3.227   2.742   0.324  3.0640 -3.1286  1.8135
  852MOL0     H12409   3.180   2.743   0.011 -1.1964  1.2897 -1.1227
  852MOL0     H12410   3.149   2.887   0.121 -1.5420  0.3975  1.5105
  852MOL0     H12411   2.978   2.763   0.244  1.5134 -2.9425  1.8671
  852MOL0     H12412   3.010   2.627   0.140  0.4176 -0.2205  0.2026
  852MOL0     H12413   2.877   2.879   0.079  2.3902  0.4867  0.3542
  852MOL0     H12414   2.933   2.789  -0.064 -1.4321 -0.5409 -0.6190
  852MOL0     H12415   2.746   2.692   0.145  3.9844 -0.0877  1.4758
  852MOL0     H12416   2.810   2.599  -0.004 -2.4252 -0.3086 -0.8119
  852MOL0     H12417   2.586   2.893   0.121  3.1422 -0.1544 -1.5314
  852MOL0     H12418   2.369   3.028  -0.114  0.9637 -0.5248  0.0362
  852MOL0     H12419   2.376   3.017   0.061 -2.2752  1.7749 -0.0181
  852MOL0     H12420   2.162   2.943   0.014 -1.1892 -0.5665 -0.7756
  852MOL0     H12421   2.264   2.794   0.043  0.3000 -2.7152 -2.8953
  852MOL0     H12422   2.272   2.728  -0.179 -0.0609  0.1377 -0.3452
  852MOL0     H12423   2.107   2.765  -0.121 -0.1221 -1.4322  1.7132
  852MOL0     H12424   2.189   2.832  -0.361 -2.6903  0.0773  0.5683
  852MOL0     H12425   2.298   2.947  -0.298 -1.5479  2.7687 -2.4716
  852MOL0     H12426   1.978   2.754  -0.333 -0.6871  0.0114 -0.2046
  852MOL0     H12427   1.746   2.732  -0.364  3.9446 -0.8190 -1.9621
  852MOL0     H12428   1.407   2.755  -0.564 -1.6250 -0.4363 -2.0132
  852MOL0     H12429   1.185   2.750  -0.655 -2.1420 -4.5333  1.7234
  852MOL0     H12430   0.815   2.874  -0.373 -3.1762  0.0270 -0.3752
  852MOL0     H12431   0.862   2.699  -0.380 -2.0119 -0.3875 -0.0587
  852MOL0     H12432   0.633   2.761  -0.448 -0.2096 -1.8047  0.1411
  852MOL0     H12433   0.713   2.679  -0.582 -1.7116  1.8118 -2.6426
  852MOL0     H12434   0.773   2.929  -0.648  1.5584 -1.6261 -0.5875
  852MOL0     H12435   0.649   2.969  -0.549  0.9441  1.0724 -0.1138
  852MOL0     H12436   0.650   2.787  -0.796 -0.1384  1.1125 -1.6053
  852MOL0     H12437   0.508   2.794  -0.687 -0.0458  0.1283  1.2342
  852MOL0     H12438   0.480   3.028  -0.748  1.4743  1.5337 -0.2423
  852MOL0     H12439   0.464   2.919  -0.889 -2.2754  0.8560  1.4110
  852MOL0     H12440   0.694   3.078  -0.801 -3.7693  0.4290  3.2010
  852MOL0     H12441   0.575   3.139  -0.916 -0.8747 -1.1477  0.9106
  852MOL0     H12442   0.762   2.902  -0.953  0.2594  1.4243  1.1760
  852MOL0     H12443   0.642   2.941  -1.076 -0.0936 -2.7977  0.5454
  852MOL0     H12444   0.744   3.176  -1.095 -2.6903 -0.9112  1.5928
  852MOL0     H12445   0.840   3.042  -1.164  1.5655 -0.0010  0.5444
  852MOL0     H12446   1.028   2.912  -0.294  1.2772  2.1628 -0.8397
  852MOL0     H12447   1.240   2.907  -0.196 -0.3156  1.7863 -0.1878
  852MOL0     H12448   1.708   3.164  -0.335  2.7292  1.5342 -1.3592
  852MOL0     H12449   1.934   3.175  -0.252 -0.3068  0.1134  3.2201
  852MOL0     H12450   3.856   2.834   0.131  0.9798 -1.6713 -0.2822
  852MOL0     H12451   4.085   2.872   0.133 -2.8974 -1.9254 -2.1620
  852MOL0     H12452   4.527   2.883   0.635 -0.9214  0.5096 -0.8187
  852MOL0     H12453   4.765   2.936   0.600 -0.2193  2.9369  0.6562
  852MOL0     H12454   4.896   2.787   0.273  2.3302 -0.9957 -1.9581
  852MOL0     H12455   4.981   2.796   0.431  2.7144  2.4495  1.1090
  852MOL0     H12456   5.074   2.934   0.173 -0.0677  0.9869 -0.2497
  852MOL0     H12457   5.154   2.959   0.330  1.4185 -0.4760 -1.0362
  852MOL0     H12458   5.105   2.692   0.196  0.1025 -0.8872  1.3082
  852MOL0     H12459   5.186   2.723   0.356 -0.8497  0.0212  0.7570
  852MOL0     H12460   5.280   2.823   0.095  1.9759 -0.1075 -0.3278
  852MOL0     H12461   5.370   2.849   0.246 -0.8795  1.4383 -0.5657
  852MOL0     H12462   5.446   2.434   0.131  2.3386  0.1694  1.1941
  852MOL0     H12463   4.703   2.935   0.173 -0.5757  0.6873  1.7305
  852MOL0     H12464   4.479   2.875   0.206 -0.6873 -0.1879  0.1560
  853MOL0     O12465   7.727   3.446  10.716 -0.3792  0.1265  0.0411
  853MOL0     C12466   7.749   3.566  10.758  0.3308  0.4714  0.2348
  853MOL0     O12467   7.668   3.633  10.838 -0.1037 -0.0631 -0.2098
  853MOL0     C12468   7.585   3.563  10.919 -0.4519  0.3859 -0.3830
  853MOL0     C12469   7.633   3.513  11.043  0.6305  0.2824  0.7481
  853MOL0     C12470   7.556   3.424  11.111 -0.4652  0.8917  0.0478
  853MOL0     C12471   7.430   3.389  11.076 -0.3143  0.4617  0.2886
  853MOL0     O12472   7.371   3.280  11.132 -0.3432 -0.1652  0.1815
  853MOL0     C12473   7.280   3.302  11.234  0.4344  0.4380  0.8508
  853MOL0     C12474   7.136   3.320  11.189  0.2456 -1.3967 -0.6642
  853MOL0     C12475   7.021   3.298  11.295  0.1060 -0.4452 -0.2171
  853MOL0     C12476   6.892   3.275  11.207 -0.5456 -0.0410  0.5008
  853MOL0     C12477   6.771   3.287  11.294 -0.6442 -0.1626  0.7463
  853MOL0     C12478   6.751   3.173  11.402 -0.1447 -0.1659 -0.5989
  853MOL0     C12479   6.671   3.058  11.344 -0.0048  0.4066  0.1303
  853MOL0     C12480   6.659   2.955  11.464 -0.2023  0.1072 -0.6853
  853MOL0     N12481   6.580   2.997  11.577  0.7783  0.6291 -0.4984
  853MOL0     C12482   6.579   2.932  11.699 -0.7419  0.3431 -1.0717
  853MOL0     C12483   6.466   2.972  11.753  0.1305  0.2145  0.9535
  853MOL0     C12484   6.409   2.924  11.887 -0.5940 -0.0861 -0.9758
  853MOL0     C12485   6.261   2.943  11.915 -0.1392  0.6115  0.8622
  853MOL0     C12486   6.226   2.942  12.064  0.2314  0.2511 -0.0908
  853MOL0     C12487   6.100   3.022  12.086  0.4322  0.1899  0.0404
  853MOL0     O12488   5.986   2.938  12.124 -0.4329  0.1112  0.0117
  853MOL0     C12489   5.862   2.995  12.120 -0.9228 -1.1107  0.7617
  853MOL0     C12490   5.792   3.009  12.236  0.2490 -0.0445  0.2635
  853MOL0     C12491   5.657   3.055  12.227 -0.3609  0.0041  0.3125
  853MOL0     C12492   5.598   3.091  12.103  0.2483  0.2058 -0.5076
  853MOL0     C12493   5.464   3.154  12.106 -0.2183  0.0202 -0.4922
  853MOL0     O12494   5.425   3.231  11.997 -0.3640  0.0085  0.1269
  853MOL0     C12495   5.297   3.264  11.983  0.4497 -0.3401  0.0917
  853MOL0     C12496   5.249   3.390  12.022  0.7096  0.4285  0.5306
  853MOL0     C12497   5.113   3.424  11.999  0.4356 -0.9645 -0.4586
  853MOL0     C12498   5.029   3.327  11.937 -0.2485  0.8789 -0.3697
  853MOL0     O12499   4.899   3.363  11.943  0.2297  0.0424  0.3103
  853MOL0     C12500   4.822   3.336  11.826 -0.1973  0.3095 -0.7218
  853MOL0     C12501   4.675   3.333  11.839  0.1843  0.1510 -0.6562
  853MOL0     C12502   4.605   3.282  11.713 -0.5968 -0.2676  0.3059
  853MOL0     C12503   4.456   3.325  11.723 -0.6550 -0.5040 -0.9831
  853MOL0     C12504   4.379   3.237  11.624 -0.3728  0.4344 -0.3805
  853MOL0     C12505   4.235   3.281  11.622  0.2061  0.3392 -0.1499
  853MOL0     C12506   4.180   3.218  11.497  0.5352  0.1179  0.7786
  853MOL0     C12507   4.028   3.195  11.521  0.3176 -0.9095  0.4966
  853MOL0    Cl12508   3.939   3.361  11.521 -0.2138 -0.3786  0.3167
  853MOL0     C12509   5.081   3.202  11.899 -0.1688 -0.0671  0.1311
  853MOL0     C12510   5.217   3.171  11.923 -0.5321  0.7400 -0.2625
  853MOL0     O12511   5.386   3.116  12.197 -0.1258  0.0860  0.7428
  853MOL0     C12512   5.678   3.081  11.986  0.2056  0.4286 -0.6256
  853MOL0     C12513   5.806   3.032  11.996  0.0360 -0.2079  0.8315
  853MOL0     N12514   6.408   3.070  11.670  0.6170  0.3918  0.5251
  853MOL0     N12515   6.483   3.095  11.571 -0.0719  0.4411 -0.7889
  853MOL0     C12516   7.373   3.449  10.964 -0.1482 -0.0192 -0.3459
  853MOL0     C12517   7.446   3.538  10.883 -0.1381  0.1616  0.2989
  853MOL0     C12518   7.870   3.637  10.715  0.1457  0.3987  1.1129
  853MOL0     C12519   7.980   3.573  10.640 -0.1364 -0.5236 -0.5824
  853MOL0     C12520   8.097   3.636  10.627  0.6575  1.0759  0.5294
  853MOL0     C12521   8.117   3.774  10.666 -0.4808  0.0385  0.3405
  853MOL0     O12522   8.241   3.840  10.648  1.1862 -0.1761  0.0083
  853MOL0     C12523   8.343   3.791  10.568 -0.5629 -0.5599 -0.3682
  853MOL0     C12524   8.314   3.801  10.417 -0.6940 -0.6864  0.0491
  853MOL0     C12525   8.423   3.746  10.326 -1.9291 -1.2130 -0.2928
  853MOL0     C12526   8.548   3.849  10.321  0.5388  0.4924 -0.3494
  853MOL0     C12527   8.512   3.971  10.249  0.5179 -0.6674  0.4867
  853MOL0     C12528   8.464   4.068  10.193 -0.1478 -0.0828 -0.2178
  853MOL0     C12529   8.015   3.839  10.737 -0.6997 -0.6584  0.8786
  853MOL0     C12530   7.899   3.767  10.767  0.6104 -0.0322 -0.0965
  853MOL0     H12531   7.737   3.521  11.074  0.3184 -0.6835  2.1167
  853MOL0     H12532   7.590   3.387  11.207 -1.1264  1.7255  0.6111
  853MOL0     H12533   7.324   3.384  11.291  1.3241 -0.2173  1.1317
  853MOL0     H12534   7.287   3.224  11.311  0.8154  0.5611  0.9423
  853MOL0     H12535   7.122   3.244  11.113 -0.5789 -2.7592  0.8055
  853MOL0     H12536   7.136   3.422  11.149 -0.2959 -1.2182 -0.2241
  853MOL0     H12537   7.027   3.383  11.364  2.8699 -0.8522  0.1652
  853MOL0     H12538   7.035   3.208  11.355  2.5254  1.9632  3.2613
  853MOL0     H12539   6.885   3.349  11.127 -2.3118  0.4524  1.0616
  853MOL0     H12540   6.901   3.177  11.157 -4.4273 -0.4278  0.1902
  853MOL0     H12541   6.685   3.293  11.226 -1.1209  1.8703  1.4403
  853MOL0     H12542   6.768   3.383  11.346  0.8419 -1.3277  3.1664
  853MOL0     H12543   6.705   3.228  11.485  2.0367  0.4049  0.2991
  853MOL0     H12544   6.847   3.137  11.438 -0.4409 -0.6699 -0.2986
  853MOL0     H12545   6.571   3.087  11.309 -0.4439 -2.0840 -0.8704
  853MOL0     H12546   6.717   3.011  11.256  1.2322  2.5962 -0.4955
  853MOL0     H12547   6.760   2.933  11.501 -0.7268 -2.1150 -0.4110
  853MOL0     H12548   6.627   2.857  11.427  0.2566  1.0041 -3.7236
  853MOL0     H12549   6.643   2.848  11.724 -1.9206 -0.1489  0.4909
  853MOL0     H12550   6.458   2.972  11.972  1.3571  0.9694 -2.6286
  853MOL0     H12551   6.433   2.817  11.896  0.8155  0.3673  1.4698
  853MOL0     H12552   6.213   2.866  11.855  5.0577 -1.4776 -1.2302
  853MOL0     H12553   6.227   3.036  11.867 -1.9324  0.4575  1.7465
  853MOL0     H12554   6.197   2.840  12.090 -0.1094  1.0597  3.1856
  853MOL0     H12555   6.300   2.993  12.127 -0.9746  2.8154 -0.6318
  853MOL0     H12556   6.074   3.071  11.991  0.1243  0.5756  0.3195
  853MOL0     H12557   6.115   3.087  12.173 -1.0179  0.6981 -0.0596
  853MOL0     H12558   5.837   2.984  12.331  0.6725 -2.6528 -0.5493
  853MOL0     H12559   5.603   3.080  12.318  0.6166  2.7085  0.2653
  853MOL0     H12560   5.324   3.460  12.059  1.2966  1.2160 -1.9830
  853MOL0     H12561   5.071   3.516  12.037 -0.7527 -1.9356  0.6586
  853MOL0     H12562   4.855   3.241  11.782  2.8538  1.3961 -1.0559
  853MOL0     H12563   4.853   3.405  11.747 -1.7355  0.1927 -1.4466
  853MOL0     H12564   4.638   3.433  11.864 -2.1407 -0.9165  0.4065
  853MOL0     H12565   4.649   3.273  11.927 -0.1363  1.5194  0.2153
  853MOL0     H12566   4.626   3.175  11.704 -2.6691 -0.7873  1.0828
  853MOL0     H12567   4.638   3.322  11.617 -3.9377 -1.3385 -1.4261
  853MOL0     H12568   4.425   3.294  11.823  3.2685  0.8830  0.8692
  853MOL0     H12569   4.443   3.433  11.714  2.0904  0.1687  1.7873
  853MOL0     H12570   4.385   3.131  11.649  4.3894  0.8502  1.1733
  853MOL0     H12571   4.424   3.257  11.526 -3.0898  1.0961 -1.5795
  853MOL0     H12572   4.244   3.389  11.611 -1.8111  0.3272 -3.2410
  853MOL0     H12573   4.175   3.246  11.707  0.9924 -1.6605 -0.3713
  853MOL0     H12574   4.196   3.283  11.411 -2.0139 -0.5768 -0.3002
  853MOL0     H12575   4.229   3.121  11.486 -0.6910 -0.4529  0.1643
  853MOL0     H12576   4.016   3.145  11.618 -0.3200  1.3323  1.6275
  853MOL0     H12577   3.986   3.128  11.445 -2.1842  1.5775 -0.4764
  853MOL0     H12578   5.021   3.120  11.861 -0.6562  0.0434  0.6615
  853MOL0     H12579   5.255   3.078  11.881  0.0337  1.6513 -1.8560
  853MOL0     H12580   5.644   3.126  11.893 -1.5015 -3.6756 -2.2262
  853MOL0     H12581   5.869   3.012  11.911  0.5405  3.7737  0.0917
  853MOL0     H12582   7.274   3.420  10.930  0.3729  0.5943 -2.5846
  853MOL0     H12583   7.392   3.577  10.797 -2.0312  0.7369  1.6972
  853MOL0     H12584   7.965   3.477  10.593  1.3241 -0.7758 -0.5865
  853MOL0     H12585   8.171   3.574  10.578 -1.4183 -0.4244 -0.8323
  853MOL0     H12586   8.372   3.692  10.603 -1.2401 -1.2602 -1.7199
  853MOL0     H12587   8.431   3.853  10.588 -1.4947  0.6555  0.1068
  853MOL0     H12588   8.235   3.729  10.397 -1.5782  0.4162 -0.5218
  853MOL0     H12589   8.282   3.902  10.392 -1.8808 -1.0408  0.0780
  853MOL0     H12590   8.388   3.732  10.223 -0.2700 -2.0166 -0.7807
  853MOL0     H12591   8.465   3.652  10.363 -1.8114 -1.7500 -1.7032
  853MOL0     H12592   8.595   3.876  10.416  1.9443 -1.8618 -0.2968
  853MOL0     H12593   8.624   3.799  10.261  1.1946  0.4085  0.5330
  853MOL0     H12594   8.422   4.159  10.156  2.6128  0.6403 -1.8920
  853MOL0     H12595   8.039   3.935  10.782 -1.2704 -0.9301  1.7911
  853MOL0     H12596   7.824   3.820  10.825  0.3194 -3.1181  2.6127
  854MOL0     O12597   0.924   1.163  11.099  0.0873 -0.5281  0.5148
  854MOL0     C12598   1.043   1.197  11.079 -0.5409  0.5736  0.3854
  854MOL0     O12599   1.088   1.319  11.088 -0.3150  0.4996  0.4362
  854MOL0     C12600   1.015   1.423  11.121 -0.4732 -0.4687  0.5797
  854MOL0     C12601   1.041   1.489  11.241  0.2920 -0.5511 -0.0149
  854MOL0     C12602   0.985   1.609  11.267  0.1841 -0.4734  0.8058
  854MOL0     C12603   0.902   1.679  11.172 -0.7089  1.0523 -0.9619
  854MOL0     O12604   0.837   1.801  11.177 -0.1194 -1.2979 -0.5885
  854MOL0     C12605   0.848   1.870  11.306  0.0582  0.3672  0.8843
  854MOL0     C12606   0.767   2.003  11.306  0.0696  0.0433  0.3562
  854MOL0     C12607   0.615   1.973  11.334 -0.4309  0.1219  0.6367
  854MOL0     C12608   0.514   2.055  11.247 -0.3464 -0.7915 -0.5467
  854MOL0     C12609   0.373   2.068  11.285 -0.6188  0.7618  0.2704
  854MOL0     C12610   0.312   2.204  11.246  0.2571  0.1979 -0.0271
  854MOL0     C12611   0.158   2.222  11.252  0.1105 -0.9001 -0.0662
  854MOL0     C12612   0.095   2.183  11.387 -0.1481 -0.1466 -0.3338
  854MOL0     N12613  -0.052   2.201  11.361 -0.2881  0.2062  0.4282
  854MOL0     C12614  -0.123   2.311  11.309 -0.1468  0.5641 -0.6586
  854MOL0     C12615  -0.240   2.266  11.273 -0.1578 -0.0889  0.3956
  854MOL0     C12616  -0.347   2.349  11.214 -0.4075  0.9894  0.3485
  854MOL0     C12617  -0.472   2.333  11.291  0.2135 -0.2723 -0.3999
  854MOL0     C12618  -0.476   2.401  11.421  0.2512  0.2061 -0.3469
  854MOL0     C12619  -0.610   2.366  11.486 -0.6196  0.0816 -0.2705
  854MOL0     O12620  -0.585   2.387  11.626  0.5300 -0.0182  0.3328
  854MOL0     C12621  -0.688   2.370  11.719  0.1214 -0.1951 -0.3563
  854MOL0     C12622  -0.829   2.367  11.696 -0.7615 -0.1615 -0.6695
  854MOL0     C12623  -0.922   2.348  11.793  0.3044  0.8490  0.0857
  854MOL0     C12624  -0.885   2.322  11.927  0.1469 -0.7861 -0.2426
  854MOL0     C12625  -0.990   2.290  12.036  0.4629 -0.4665  0.1193
  854MOL0     O12626  -1.120   2.265  11.989 -0.2885  0.6353  0.3132
  854MOL0     C12627  -1.207   2.221  12.088  0.7736 -0.4852 -0.6969
  854MOL0     C12628  -1.246   2.307  12.191  0.1707  0.7093  0.3889
  854MOL0     C12629  -1.314   2.255  12.298  0.0319  0.0930 -0.1611
  854MOL0     C12630  -1.343   2.122  12.311 -0.3831 -1.1488  0.3170
  854MOL0     O12631  -1.396   2.095  12.434 -0.0139 -0.3514 -0.3174
  854MOL0     C12632  -1.441   1.962  12.453 -0.9371  0.8719  0.2276
  854MOL0     C12633  -1.512   1.963  12.588 -0.5508 -0.0859  0.9801
  854MOL0     C12634  -1.610   1.838  12.605  0.0647  0.4034  0.4899
  854MOL0     C12635  -1.749   1.850  12.528 -0.4717  0.3815 -0.9335
  854MOL0     C12636  -1.824   1.719  12.524  0.6034 -1.1344  0.1263
  854MOL0     C12637  -1.975   1.730  12.515  0.9631  0.9690  0.0276
  854MOL0     C12638  -2.028   1.789  12.390  0.3616  0.0602  0.3800
  854MOL0     C12639  -2.172   1.793  12.397 -0.4926  0.0281 -0.0184
  854MOL0    Cl12640  -2.249   1.635  12.402  0.0057  0.2153  0.1703
  854MOL0     C12641  -1.306   2.031  12.206  0.0886  0.3077  0.1136
  854MOL0     C12642  -1.243   2.089  12.090 -0.0300  0.5628  0.8696
  854MOL0     O12643  -0.960   2.296  12.159 -0.3949 -0.3065  0.1162
  854MOL0     C12644  -0.746   2.321  11.953 -0.7029 -0.3635  0.2526
  854MOL0     C12645  -0.645   2.340  11.854  0.5416  0.4973 -0.2856
  854MOL0     N12646  -0.239   2.133  11.283 -0.3638 -0.2116 -0.0850
  854MOL0     N12647  -0.134   2.093  11.346 -0.1238 -0.1511  0.4188
  854MOL0     C12648   0.901   1.618  11.049  0.5627 -0.2010 -0.8027
  854MOL0     C12649   0.948   1.493  11.017 -0.0658  1.0965 -0.3063
  854MOL0     C12650   1.141   1.091  11.060 -0.2735  0.2386 -0.4279
  854MOL0     C12651   1.280   1.112  11.074 -0.1917  1.3543 -0.8047
  854MOL0     C12652   1.365   0.999  11.084  0.0655  0.8398 -0.9819
  854MOL0     C12653   1.313   0.871  11.079  0.4321  0.2665  0.2210
  854MOL0     O12654   1.409   0.781  11.092 -0.1817 -0.0755  0.5632
  854MOL0     C12655   1.376   0.640  11.100  0.4902 -0.3543 -0.1710
  854MOL0     C12656   1.501   0.572  11.145 -0.1979  0.7122  0.6548
  854MOL0     C12657   1.596   0.551  11.021  0.5329 -0.7827 -0.0877
  854MOL0     C12658   1.711   0.452  11.050  0.4406  0.5327  0.7493
  854MOL0     C12659   1.792   0.434  10.925  0.3031 -1.0502  0.1219
  854MOL0     C12660   1.872   0.391  10.843  0.4216 -1.2873  0.1340
  854MOL0     C12661   1.180   0.848  11.052 -0.2338  0.7181  0.3661
  854MOL0     C12662   1.091   0.958  11.048 -1.1978  0.2884 -0.1160
  854MOL0     H12663   1.114   1.444  11.307  0.3806 -2.0699 -1.0788
  854MOL0     H12664   1.012   1.643  11.366  2.4510 -2.1492  0.8330
  854MOL0     H12665   0.957   1.882  11.300  0.5821 -3.1462  0.9510
  854MOL0     H12666   0.811   1.809  11.389 -1.8932  0.2303 -0.0310
  854MOL0     H12667   0.786   2.055  11.212  0.8722  2.8452  1.9508
  854MOL0     H12668   0.791   2.080  11.381 -2.2065  0.3707  0.8228
  854MOL0     H12669   0.609   1.996  11.441  3.3133  0.9295  0.8059
  854MOL0     H12670   0.607   1.866  11.313  3.5042 -0.4285  1.2418
  854MOL0     H12671   0.552   2.157  11.260 -0.3391 -0.7973 -0.5229
  854MOL0     H12672   0.519   2.018  11.145 -0.4096 -2.5268  0.0516
  854MOL0     H12673   0.362   2.046  11.392  0.6788  1.3171  0.5363
  854MOL0     H12674   0.326   1.988  11.226  0.1567  0.6722 -0.2335
  854MOL0     H12675   0.358   2.231  11.151 -1.0169  2.2033 -0.1131
  854MOL0     H12676   0.348   2.275  11.321  0.5414  0.6274 -0.5694
  854MOL0     H12677   0.136   2.326  11.225  1.2439 -0.4314  0.7694
  854MOL0     H12678   0.111   2.158  11.176 -2.3953 -0.6442  1.1750
  854MOL0     H12679   0.115   2.261  11.462 -2.9174  0.6794 -0.3348
  854MOL0     H12680   0.120   2.090  11.438  0.3316  1.3296  2.3444
  854MOL0     H12681  -0.095   2.416  11.299  0.0336  0.4550 -1.3827
  854MOL0     H12682  -0.356   2.321  11.109  3.1666 -0.7097  0.3498
  854MOL0     H12683  -0.318   2.454  11.229  0.9655  0.5375  1.0344
  854MOL0     H12684  -0.499   2.227  11.294  1.2754 -0.6525 -2.2706
  854MOL0     H12685  -0.547   2.392  11.238 -1.7087 -3.0305 -0.9739
  854MOL0     H12686  -0.400   2.355  11.484  0.3331  0.1138 -0.5132
  854MOL0     H12687  -0.453   2.508  11.421 -0.1529  0.3187  1.0635
  854MOL0     H12688  -0.638   2.262  11.467 -0.3144  0.3687 -2.7049
  854MOL0     H12689  -0.697   2.425  11.454 -0.7576 -0.6573 -1.3196
  854MOL0     H12690  -0.870   2.388  11.598  0.5937 -2.1591 -1.7382
  854MOL0     H12691  -1.024   2.344  11.756  0.2523 -0.4516  0.3059
  854MOL0     H12692  -1.214   2.410  12.181 -1.8348  1.3592  0.0304
  854MOL0     H12693  -1.344   2.313  12.385 -2.1179 -1.7443  0.4476
  854MOL0     H12694  -1.350   1.900  12.450  1.2855  3.7296  2.3915
  854MOL0     H12695  -1.508   1.925  12.375 -1.4311 -1.7068  1.7784
  854MOL0     H12696  -1.575   2.051  12.602 -0.0124  0.4394  0.1926
  854MOL0     H12697  -1.440   1.965  12.671 -2.3979 -0.8858  2.6775
  854MOL0     H12698  -1.634   1.833  12.712  1.3546  1.2983  0.8542
  854MOL0     H12699  -1.552   1.758  12.559  2.0510  2.0973 -0.1691
  854MOL0     H12700  -1.815   1.919  12.580  1.0545 -0.7129  2.7519
  854MOL0     H12701  -1.729   1.874  12.423  1.3077 -0.5601 -0.8472
  854MOL0     H12702  -1.800   1.667  12.617  0.6744 -0.3338  0.5530
  854MOL0     H12703  -1.785   1.654  12.445  1.5828  0.5192 -0.8016
  854MOL0     H12704  -2.013   1.785  12.602  0.2355  0.6640 -0.0888
  854MOL0     H12705  -2.016   1.628  12.519  0.9866  0.9964  1.1316
  854MOL0     H12706  -1.990   1.890  12.374  1.7372 -0.4097  0.5717
  854MOL0     H12707  -1.995   1.733  12.302  1.9487  1.3258  0.1283
  854MOL0     H12708  -2.202   1.849  12.307  0.2449 -0.2273 -0.4320
  854MOL0     H12709  -2.206   1.850  12.484 -1.8764 -0.7529 -0.0232
  854MOL0     H12710  -1.309   1.924  12.221  2.3396 -0.3294 -3.0744
  854MOL0     H12711  -1.201   2.019  12.019 -0.2126 -0.2580  1.5518
  854MOL0     H12712  -0.722   2.288  12.054 -2.0957 -0.8472  0.4520
  854MOL0     H12713  -0.542   2.326  11.885  0.2558  1.6638  1.3279
  854MOL0     H12714   0.832   1.656  10.974 -0.8777  1.1164  1.0765
  854MOL0     H12715   0.967   1.447  10.920 -1.9919 -1.2106  0.3249
  854MOL0     H12716   1.327   1.209  11.088  2.6966 -0.2483  2.0333
  854MOL0     H12717   1.473   1.011  11.081  0.1093  0.3093 -1.6225
  854MOL0     H12718   1.342   0.601  11.003 -0.1063 -3.2056  1.0950
  854MOL0     H12719   1.291   0.621  11.166 -0.8905  0.2893 -1.7000
  854MOL0     H12720   1.552   0.644  11.209 -1.0815  2.1395 -0.1966
  854MOL0     H12721   1.471   0.476  11.188  0.7931  0.7808  1.5292
  854MOL0     H12722   1.642   0.646  10.994 -0.2177 -1.4629 -4.5342
  854MOL0     H12723   1.534   0.511  10.939 -2.0447  0.9109  0.8964
  854MOL0     H12724   1.789   0.494  11.114  2.9180  0.4707 -1.9742
  854MOL0     H12725   1.682   0.356  11.094  0.1030  0.6462  0.7726
  854MOL0     H12726   1.934   0.339  10.772 -0.7161 -0.3479 -1.5985
  854MOL0     H12727   1.131   0.753  11.036  0.9905 -0.0131  0.9017
  854MOL0     H12728   0.985   0.941  11.037 -1.2052  0.0980  0.2526
  855MOL0     O12729   0.030   8.592   5.385 -0.1975  0.0251  0.4466
  855MOL0     C12730   0.074   8.501   5.457 -1.2732 -0.6396  0.7969
  855MOL0     O12731   0.007   8.384   5.487 -1.1468 -0.1766 -0.3413
  855MOL0     C12732  -0.115   8.373   5.425 -0.3962  0.2974  0.1970
  855MOL0     C12733  -0.236   8.420   5.483  0.0915 -0.4626  0.2298
  855MOL0     C12734  -0.365   8.387   5.423 -0.2170 -1.2102  0.1077
  855MOL0     C12735  -0.369   8.311   5.301  0.2519 -0.4051 -0.2996
  855MOL0     O12736  -0.500   8.293   5.266  0.1846 -0.1690 -0.0956
  855MOL0     C12737  -0.523   8.243   5.140  0.0710 -0.1861 -0.2707
  855MOL0     C12738  -0.667   8.223   5.100  0.6266  0.1167  0.6535
  855MOL0     C12739  -0.768   8.321   5.163 -0.7268 -0.3841 -0.3829
  855MOL0     C12740  -0.896   8.287   5.092  0.2753  0.1216 -0.5042
  855MOL0     C12741  -1.016   8.369   5.136 -0.5174 -0.1128 -0.7376
  855MOL0     C12742  -1.137   8.335   5.049 -0.3712  0.3184  0.5063
  855MOL0     C12743  -1.267   8.409   5.105 -0.1797  0.3275  0.1771
  855MOL0     C12744  -1.317   8.342   5.237  0.1822 -0.1974  0.4872
  855MOL0     N12745  -1.460   8.354   5.234 -0.0945  0.6837  0.5863
  855MOL0     C12746  -1.530   8.467   5.245 -0.7952  0.6688 -0.3075
  855MOL0     C12747  -1.660   8.434   5.229  0.0089 -0.0788  0.2778
  855MOL0     C12748  -1.777   8.530   5.220 -0.0767  0.6258  0.3869
  855MOL0     C12749  -1.866   8.504   5.098  0.2643  0.0029 -0.2662
  855MOL0     C12750  -1.963   8.613   5.076  1.5022 -0.2033 -0.2486
  855MOL0     C12751  -2.102   8.575   5.129  0.1119  0.1065 -0.9526
  855MOL0     O12752  -2.179   8.700   5.140 -0.3768  0.6195  0.0419
  855MOL0     C12753  -2.313   8.694   5.176 -0.6722  0.6889 -0.3958
  855MOL0     C12754  -2.390   8.807   5.168  0.8044  1.0870 -0.3052
  855MOL0     C12755  -2.521   8.807   5.208  0.3232  0.6615 -0.5877
  855MOL0     C12756  -2.581   8.706   5.281 -0.3118 -0.1536  0.2594
  855MOL0     C12757  -2.711   8.705   5.331  0.3829 -0.4764 -0.0519
  855MOL0     O12758  -2.789   8.812   5.302 -0.8017  0.2496 -0.0024
  855MOL0     C12759  -2.915   8.803   5.351 -0.0511 -0.2375  0.4077
  855MOL0     C12760  -3.028   8.809   5.262  0.0592  0.6022  0.1544
  855MOL0     C12761  -3.160   8.819   5.319  0.9513  0.0351  0.3045
  855MOL0     C12762  -3.179   8.829   5.459  0.2826 -0.2825  0.3410
  855MOL0     O12763  -3.304   8.845   5.528 -0.3680 -0.1568  0.2660
  855MOL0     C12764  -3.424   8.880   5.453  0.5745  0.4248  0.1198
  855MOL0     C12765  -3.525   8.927   5.563  0.2841 -0.3114  0.6242
  855MOL0     C12766  -3.663   8.983   5.502 -0.6508  0.0557 -0.8316
  855MOL0     C12767  -3.763   9.008   5.613 -0.4769 -0.4079  0.3860
  855MOL0     C12768  -3.914   9.002   5.573  0.4112  1.4148  0.8426
  855MOL0     C12769  -4.004   9.041   5.691  0.3712  0.6916  0.0666
  855MOL0     C12770  -4.003   9.192   5.716 -0.1651  1.4089 -0.7951
  855MOL0     C12771  -4.043   9.281   5.607  0.3270 -1.0081  0.8457
  855MOL0    Cl12772  -4.108   9.440   5.669 -0.7689 -0.5338  0.6216
  855MOL0     C12773  -3.069   8.832   5.538 -0.7131 -0.1525 -0.0634
  855MOL0     C12774  -2.941   8.810   5.489 -1.6275 -0.1890 -0.2191
  855MOL0     O12775  -2.750   8.595   5.370 -0.0111 -0.2116  0.0882
  855MOL0     C12776  -2.506   8.587   5.286  0.7063 -0.4056  0.3094
  855MOL0     C12777  -2.376   8.576   5.231  0.2699  0.0551 -0.0032
  855MOL0     N12778  -1.658   8.297   5.187 -1.0124 -0.0246 -0.6626
  855MOL0     N12779  -1.535   8.255   5.180  0.3124  0.5142 -0.4757
  855MOL0     C12780  -0.250   8.273   5.238  0.2957  0.1506 -0.1634
  855MOL0     C12781  -0.128   8.294   5.306 -0.8392 -0.2919 -0.3554
  855MOL0     C12782   0.221   8.506   5.482 -0.1965 -0.2277 -0.3660
  855MOL0     C12783   0.297   8.619   5.457 -0.3468  0.4035 -0.0197
  855MOL0     C12784   0.436   8.621   5.483  0.8915 -0.7114  0.0439
  855MOL0     C12785   0.486   8.516   5.554  0.7481  0.1671  0.1328
  855MOL0     O12786   0.613   8.520   5.594 -0.9807  0.1845  0.4810
  855MOL0     C12787   0.712   8.467   5.501  0.2647  0.2697  0.6682
  855MOL0     C12788   0.748   8.339   5.565  0.0922  0.9325  0.0216
  855MOL0     C12789   0.866   8.277   5.487  0.1723  0.3018 -0.4595
  855MOL0     C12790   0.908   8.147   5.559  0.9340 -0.8527  0.4331
  855MOL0     C12791   1.014   8.077   5.492  0.1809 -0.3089 -0.3595
  855MOL0     C12792   1.095   8.003   5.433  0.8166  0.8972 -0.0183
  855MOL0     C12793   0.410   8.404   5.587 -0.3541  0.5556 -0.1940
  855MOL0     C12794   0.282   8.392   5.539 -0.0571  0.4240  0.1148
  855MOL0     H12795  -0.243   8.491   5.564  3.1999 -1.3708  1.4450
  855MOL0     H12796  -0.456   8.421   5.472 -0.2663  1.7768 -1.7308
  855MOL0     H12797  -0.464   8.152   5.126  0.3122  0.0853 -1.0743
  855MOL0     H12798  -0.475   8.314   5.071 -1.6653  1.0441 -0.2594
  855MOL0     H12799  -0.697   8.121   5.125 -1.1106 -0.8950 -4.3614
  855MOL0     H12800  -0.671   8.235   4.991  0.8379 -3.8304  0.0830
  855MOL0     H12801  -0.743   8.424   5.138  2.0366 -0.5337  1.4164
  855MOL0     H12802  -0.761   8.291   5.268 -0.2358  0.6316 -0.1192
  855MOL0     H12803  -0.878   8.315   4.988  2.4999  1.7041  0.2132
  855MOL0     H12804  -0.915   8.182   5.115  2.9242 -0.1737  0.7755
  855MOL0     H12805  -1.004   8.477   5.146  0.1143 -0.2548  0.1746
  855MOL0     H12806  -1.048   8.335   5.236 -4.7264 -1.1371 -2.2319
  855MOL0     H12807  -1.154   8.227   5.050  0.9862 -0.0155 -2.1146
  855MOL0     H12808  -1.132   8.354   4.941 -4.1682 -1.3601 -0.1005
  855MOL0     H12809  -1.256   8.517   5.118 -0.2332  0.4147 -0.4611
  855MOL0     H12810  -1.340   8.391   5.026  1.9328  1.4970 -2.1766
  855MOL0     H12811  -1.280   8.387   5.329  2.0380  0.1921 -0.4114
  855MOL0     H12812  -1.292   8.236   5.227  1.3629  0.2188 -1.6230
  855MOL0     H12813  -1.486   8.559   5.282  2.7026 -0.8340 -0.2979
  855MOL0     H12814  -1.724   8.625   5.215 -2.4187  1.9732 -0.3292
  855MOL0     H12815  -1.844   8.527   5.307 -0.5277 -0.0012  0.0285
  855MOL0     H12816  -1.913   8.406   5.104  1.0862 -0.4993 -1.5404
  855MOL0     H12817  -1.795   8.507   5.015 -1.0480  0.7605 -1.3962
  855MOL0     H12818  -1.937   8.706   5.128 -1.0332  0.2773  0.3105
  855MOL0     H12819  -1.977   8.638   4.971 -2.5876  1.3301  0.5092
  855MOL0     H12820  -2.097   8.520   5.224 -1.6715 -0.3750 -1.1054
  855MOL0     H12821  -2.133   8.497   5.059  1.2977 -1.2215 -0.0584
  855MOL0     H12822  -2.343   8.896   5.126  1.8464  0.8741  0.3698
  855MOL0     H12823  -2.587   8.893   5.204 -1.6458 -0.5629  2.2363
  855MOL0     H12824  -3.017   8.800   5.154 -1.5611 -3.3723  0.1211
  855MOL0     H12825  -3.244   8.801   5.252 -0.5695 -2.2372  2.6376
  855MOL0     H12826  -3.475   8.793   5.411 -2.4928  0.7244  2.8086
  855MOL0     H12827  -3.409   8.951   5.371  0.8291 -1.1315 -1.2450
  855MOL0     H12828  -3.468   9.004   5.615  3.2948 -1.9451 -0.0149
  855MOL0     H12829  -3.540   8.849   5.638  0.2980  0.1723  1.1333
  855MOL0     H12830  -3.704   8.907   5.435  3.6283 -1.5337 -1.9377
  855MOL0     H12831  -3.647   9.075   5.444  0.7937  2.4451  2.9982
  855MOL0     H12832  -3.757   8.940   5.698 -2.2085  0.4730  1.2626
  855MOL0     H12833  -3.746   9.108   5.654 -1.3708 -0.2824  0.4667
  855MOL0     H12834  -3.924   8.894   5.568 -0.3927  1.5177 -0.2425
  855MOL0     H12835  -3.946   9.065   5.489  1.8903  1.9018  0.6176
  855MOL0     H12836  -3.989   8.983   5.782 -2.5230  0.8433  0.7380
  855MOL0     H12837  -4.108   9.010   5.675  1.1711 -2.4439  0.2937
  855MOL0     H12838  -4.078   9.207   5.795 -0.0294  0.4026 -0.4569
  855MOL0     H12839  -3.906   9.219   5.758  0.9446 -1.1881 -1.4764
  855MOL0     H12840  -4.118   9.237   5.540 -2.5959  0.1427  3.1717
  855MOL0     H12841  -3.951   9.302   5.552  2.0936  1.7763  4.4401
  855MOL0     H12842  -3.097   8.846   5.642  1.6995 -0.0103  0.6260
  855MOL0     H12843  -2.852   8.818   5.551 -0.6807  0.2390 -1.5881
  855MOL0     H12844  -2.543   8.496   5.331 -0.4610 -0.2593 -0.3206
  855MOL0     H12845  -2.327   8.481   5.241  0.5071 -0.1839 -2.7555
  855MOL0     H12846  -0.247   8.210   5.149  2.2316 -0.0825  0.0386
  855MOL0     H12847  -0.035   8.258   5.264  1.0259  2.9824  0.5658
  855MOL0     H12848   0.253   8.703   5.404  0.3620 -0.2717 -1.7473
  855MOL0     H12849   0.492   8.714   5.473  1.0341 -0.7429  0.4995
  855MOL0     H12850   0.801   8.529   5.486  0.3930  0.4757  2.1673
  855MOL0     H12851   0.670   8.460   5.400  1.2788  5.8760 -0.4825
  855MOL0     H12852   0.772   8.362   5.669 -0.9545 -0.5806  0.6484
  855MOL0     H12853   0.671   8.260   5.569  2.8975 -1.9755  2.4455
  855MOL0     H12854   0.941   8.356   5.495 -0.8417  1.5313 -2.3234
  855MOL0     H12855   0.854   8.258   5.380  1.4997 -0.7875 -0.4376
  855MOL0     H12856   0.942   8.168   5.661 -2.2360  0.4572  1.3396
  855MOL0     H12857   0.825   8.077   5.568  0.7982 -0.5881  1.2954
  855MOL0     H12858   1.174   7.948   5.385 -1.3392 -3.0174  0.5320
  855MOL0     H12859   0.451   8.314   5.631 -2.3655  0.0393  0.7467
  855MOL0     H12860   0.215   8.312   5.567  1.3874 -1.5369 -1.6613
  856MOL0     O12861  10.296   6.508   5.324 -0.8530 -0.5966 -0.1990
  856MOL0     C12862  10.379   6.524   5.422  0.6285 -0.4234  0.0902
  856MOL0     O12863  10.348   6.552   5.551 -0.2941  0.0835  0.6326
  856MOL0     C12864  10.230   6.512   5.589  0.0639  0.6417 -1.0009
  856MOL0     C12865  10.190   6.380   5.593  0.2274  0.4336 -0.3808
  856MOL0     C12866  10.058   6.345   5.635  0.8325 -0.9936 -0.5594
  856MOL0     C12867   9.963   6.444   5.663  0.4618 -0.4189 -0.0125
  856MOL0     O12868   9.840   6.411   5.704 -0.2616  0.3544  0.3986
  856MOL0     C12869   9.733   6.468   5.624  0.3697 -0.5689  0.0071
  856MOL0     C12870   9.603   6.394   5.667  0.8609  0.2104  0.4091
  856MOL0     C12871   9.588   6.267   5.575 -0.3629  0.2093  0.7613
  856MOL0     C12872   9.444   6.220   5.540  0.6390  0.1583 -0.2194
  856MOL0     C12873   9.361   6.165   5.655 -0.4407 -0.5709 -0.3276
  856MOL0     C12874   9.216   6.140   5.606 -0.8814 -0.0014  0.1560
  856MOL0     C12875   9.120   6.081   5.711  0.1456 -0.2053 -0.3523
  856MOL0     C12876   9.137   6.151   5.844 -0.0603 -0.4410 -0.8973
  856MOL0     N12877   9.046   6.111   5.953  0.0984  0.6503 -0.6787
  856MOL0     C12878   8.936   6.030   5.945  0.1084  0.0949  0.8823
  856MOL0     C12879   8.902   5.998   6.068 -0.5842 -0.9322 -0.5763
  856MOL0     C12880   8.788   5.906   6.101  0.7018  0.1262  0.0739
  856MOL0     C12881   8.656   5.982   6.080 -0.0398  1.0895 -0.4523
  856MOL0     C12882   8.586   5.938   5.941 -0.4101 -0.7871  0.3576
  856MOL0     C12883   8.469   6.034   5.905  0.5170 -0.0218  0.2943
  856MOL0     O12884   8.375   6.031   6.016  0.9831 -0.0808  0.0455
  856MOL0     C12885   8.271   5.945   6.020  0.1800 -0.8189 -0.0911
  856MOL0     C12886   8.156   5.993   6.087  0.2136  0.3768 -0.4521
  856MOL0     C12887   8.046   5.905   6.104  0.5182  0.1152 -1.1389
  856MOL0     C12888   8.042   5.774   6.047  0.8167 -0.7543 -0.2023
  856MOL0     C12889   7.917   5.704   6.072  0.1638 -0.7619  0.8381
  856MOL0     O12890   7.851   5.629   5.970 -0.5774 -0.4075 -0.2485
  856MOL0     C12891   7.739   5.557   6.000  1.1505  0.0740  1.2041
  856MOL0     C12892   7.742   5.446   6.085 -0.2585  0.0824 -0.5102
  856MOL0     C12893   7.627   5.361   6.113 -0.5388 -0.4705 -0.0251
  856MOL0     C12894   7.502   5.391   6.047  0.2919 -0.1697 -0.0440
  856MOL0     O12895   7.391   5.313   6.069 -0.4264  0.3683 -0.2444
  856MOL0     C12896   7.258   5.356   6.024 -0.0216 -0.2949  0.2904
  856MOL0     C12897   7.155   5.252   6.078  0.0447 -0.3840  0.4696
  856MOL0     C12898   7.011   5.247   6.018 -0.3644  0.3051 -0.9223
  856MOL0     C12899   6.943   5.121   6.090 -0.5115 -0.5400 -0.7892
  856MOL0     C12900   6.787   5.132   6.100  0.0124  0.5843 -0.0899
  856MOL0     C12901   6.717   5.144   5.958 -0.9217 -0.5815 -1.0026
  856MOL0     C12902   6.567   5.122   5.979  0.1091  0.4013 -0.3384
  856MOL0     C12903   6.504   5.103   5.842 -0.9348 -0.5292  0.4722
  856MOL0    Cl12904   6.341   5.041   5.858  0.1810 -0.2359  0.0785
  856MOL0     C12905   7.500   5.490   5.944 -0.6704  0.2476  0.4159
  856MOL0     C12906   7.621   5.560   5.926 -0.1690 -1.0385 -0.1513
  856MOL0     O12907   7.868   5.717   6.184  0.2008 -0.6646  0.1707
  856MOL0     C12908   8.146   5.742   5.959 -0.4287  0.6219  0.2840
  856MOL0     C12909   8.261   5.824   5.949 -0.1971  0.8511  0.9201
  856MOL0     N12910   8.987   6.057   6.160  0.2108 -0.7912  0.7190
  856MOL0     N12911   9.069   6.128   6.085 -0.4576  0.4304 -0.2368
  856MOL0     C12912  10.003   6.578   5.662 -0.1959  1.1976  0.3920
  856MOL0     C12913  10.132   6.605   5.621 -1.4390 -0.5769  0.1107
  856MOL0     C12914  10.520   6.517   5.393 -0.5949  0.1455  0.4569
  856MOL0     C12915  10.564   6.482   5.257  0.3505 -0.0642  0.6502
  856MOL0     C12916  10.695   6.450   5.230  0.1142 -0.0725  0.3731
  856MOL0     C12917  10.791   6.452   5.325  0.6480 -1.0464  0.7937
  856MOL0     O12918  10.918   6.465   5.272  1.1372 -0.7697 -0.0895
  856MOL0     C12919  11.019   6.511   5.356  0.6105 -1.5421  0.0586
  856MOL0     C12920  11.029   6.664   5.370  0.1109 -0.5761  0.9183
  856MOL0     C12921  11.077   6.738   5.240 -0.0936 -0.6378 -0.2761
  856MOL0     C12922  11.101   6.897   5.267  0.4824 -0.1546  0.7376
  856MOL0     C12923  11.233   6.923   5.320 -0.6274  1.0783  0.3316
  856MOL0     C12924  11.345   6.942   5.367  0.3507  0.7274 -0.0124
  856MOL0     C12925  10.756   6.472   5.462  0.4836 -0.3625  0.7271
  856MOL0     C12926  10.619   6.508   5.489 -0.5022 -1.0454 -0.1844
  856MOL0     H12927  10.258   6.298   5.576  0.0740  0.3950 -0.8163
  856MOL0     H12928  10.035   6.239   5.634  1.3108 -1.1186 -2.1187
  856MOL0     H12929   9.743   6.470   5.515  1.4708  1.4396  0.1074
  856MOL0     H12930   9.725   6.574   5.648  0.4762 -0.1894 -1.5116
  856MOL0     H12931   9.512   6.451   5.647  1.7914  0.8356 -2.4329
  856MOL0     H12932   9.595   6.355   5.769 -1.4517 -0.3704  0.0710
  856MOL0     H12933   9.641   6.178   5.610  0.0359 -0.1434 -0.6791
  856MOL0     H12934   9.639   6.290   5.481 -0.0661 -0.7546  0.6739
  856MOL0     H12935   9.388   6.295   5.484  0.3134 -0.6192 -0.9634
  856MOL0     H12936   9.451   6.146   5.459  0.4500  0.7377 -0.7662
  856MOL0     H12937   9.355   6.236   5.738 -0.4284 -1.7082  0.6784
  856MOL0     H12938   9.409   6.072   5.687 -0.7930 -1.3948 -2.0888
  856MOL0     H12939   9.207   6.077   5.517 -0.9199 -0.0621  0.2022
  856MOL0     H12940   9.182   6.240   5.577  2.3373  0.9720 -0.6472
  856MOL0     H12941   9.014   6.100   5.691  0.7234  4.6821  0.0986
  856MOL0     H12942   9.131   5.972   5.709 -3.2591 -0.7989 -5.5142
  856MOL0     H12943   9.121   6.260   5.848  0.6330 -0.3412  2.7844
  856MOL0     H12944   9.236   6.141   5.888  0.1932  3.3087 -0.2018
  856MOL0     H12945   8.890   6.002   5.851  0.4905  2.0313  0.0559
  856MOL0     H12946   8.783   5.874   6.206 -0.8876  0.1506  0.0251
  856MOL0     H12947   8.793   5.814   6.041  0.0017 -1.5889  2.4725
  856MOL0     H12948   8.652   6.091   6.090 -2.6753  1.0553 -0.5677
  856MOL0     H12949   8.595   5.952   6.165 -0.2909  1.3234 -0.5462
  856MOL0     H12950   8.659   5.943   5.861 -0.3712 -2.1517  0.2781
  856MOL0     H12951   8.554   5.833   5.937  0.1927 -0.9723  0.3155
  856MOL0     H12952   8.407   5.998   5.822  0.0498 -0.7117  0.9299
  856MOL0     H12953   8.497   6.133   5.868  0.4547 -0.2730 -0.4359
  856MOL0     H12954   8.160   6.095   6.124  0.0422  0.6933 -1.2956
  856MOL0     H12955   7.962   5.945   6.160  0.2551  0.3788 -1.7076
  856MOL0     H12956   7.836   5.430   6.138 -0.8243 -2.7335 -0.2288
  856MOL0     H12957   7.628   5.272   6.176  1.9831  0.5764  1.5815
  856MOL0     H12958   7.267   5.338   5.916 -2.2747 -1.0171  0.1733
  856MOL0     H12959   7.232   5.460   6.049  1.6838  0.3412 -0.4214
  856MOL0     H12960   7.148   5.278   6.184  1.0906 -1.6526  0.8851
  856MOL0     H12961   7.204   5.154   6.080  0.9829  0.0619  0.2376
  856MOL0     H12962   6.998   5.249   5.909 -3.9508  1.9085 -0.6350
  856MOL0     H12963   6.972   5.345   6.047 -1.0016  0.3162 -1.7590
  856MOL0     H12964   6.985   5.032   6.043  3.2014  1.1834 -1.1058
  856MOL0     H12965   6.971   5.116   6.196 -0.7199 -3.1547 -0.7797
  856MOL0     H12966   6.759   5.218   6.162 -0.7970 -0.1500  0.5739
  856MOL0     H12967   6.741   5.049   6.154 -0.5258  0.0710 -1.3188
  856MOL0     H12968   6.753   5.063   5.894 -1.9505  0.2566 -2.7352
  856MOL0     H12969   6.743   5.242   5.916 -0.1563  0.1354  1.0212
  856MOL0     H12970   6.560   5.031   6.039  2.3564  0.2091 -0.2859
  856MOL0     H12971   6.524   5.208   6.031  2.6478  1.1452  0.7071
  856MOL0     H12972   6.564   5.025   5.794  1.5710  0.8867  1.1198
  856MOL0     H12973   6.518   5.194   5.782  1.0516 -1.4749 -0.6175
  856MOL0     H12974   7.409   5.500   5.886 -3.6944  0.0032  4.6695
  856MOL0     H12975   7.616   5.642   5.855 -0.0208 -2.6762 -2.1522
  856MOL0     H12976   8.146   5.651   5.900  0.3618  1.1233 -0.5083
  856MOL0     H12977   8.349   5.790   5.896 -0.9273  0.0531  0.1745
  856MOL0     H12978   9.942   6.662   5.695  0.0410  0.9998  1.3513
  856MOL0     H12979  10.164   6.708   5.627  0.5052 -1.1313 -0.2322
  856MOL0     H12980  10.490   6.497   5.179  0.1648  1.9467  1.1629
  856MOL0     H12981  10.722   6.434   5.126 -1.3616  0.2569 -0.0784
  856MOL0     H12982  11.107   6.488   5.294 -1.4381 -0.5898 -3.5280
  856MOL0     H12983  11.013   6.458   5.451 -1.5525  0.4163  1.1114
  856MOL0     H12984  10.932   6.710   5.394 -1.5946 -1.1863 -3.7718
  856MOL0     H12985  11.087   6.690   5.459  0.2224  4.6114 -0.3447
  856MOL0     H12986  10.997   6.718   5.169  1.7876 -0.7400 -2.4797
  856MOL0     H12987  11.169   6.683   5.215 -0.0179 -0.9106  0.5605
  856MOL0     H12988  11.084   6.959   5.178 -0.5084 -0.5704  0.6265
  856MOL0     H12989  11.034   6.932   5.347  1.1415  0.1421  1.1678
  856MOL0     H12990  11.440   6.967   5.410  0.3142 -0.1788  0.6353
  856MOL0     H12991  10.823   6.472   5.547  0.1295  1.0516  1.0385
  856MOL0     H12992  10.583   6.518   5.591 -1.8863  0.0894 -0.7430
  857MOL0     O12993   0.075   4.874   0.962 -0.4321 -0.2492  0.0605
  857MOL0     C12994   0.133   4.793   1.033 -0.4885  0.4698  1.0030
  857MOL0     O12995   0.083   4.715   1.132  0.4243  0.1048  0.3048
  857MOL0     C12996  -0.059   4.703   1.124  0.5511 -0.7073 -0.2005
  857MOL0     C12997  -0.122   4.578   1.110  0.0945  0.3393  0.7547
  857MOL0     C12998  -0.256   4.563   1.107  0.3948 -0.0598  0.2726
  857MOL0     C12999  -0.341   4.678   1.134 -0.6233  1.4420 -0.0726
  857MOL0     O13000  -0.470   4.659   1.142  0.0833  0.2703 -0.0761
  857MOL0     C13001  -0.533   4.538   1.107  0.4979 -0.2443 -0.2908
  857MOL0     C13002  -0.686   4.565   1.102 -0.3729  0.6469 -0.0472
  857MOL0     C13003  -0.773   4.454   1.031 -0.3589  0.0524 -0.5034
  857MOL0     C13004  -0.921   4.474   1.068  0.6447 -0.1519 -0.0457
  857MOL0     C13005  -0.994   4.337   1.033  0.1158  0.3806 -0.3902
  857MOL0     C13006  -1.141   4.335   1.076 -0.8541  0.0535 -0.2339
  857MOL0     C13007  -1.201   4.196   1.060 -0.2951 -0.9411  0.3422
  857MOL0     C13008  -1.345   4.182   1.122  0.4954 -0.1713  0.0991
  857MOL0     N13009  -1.449   4.275   1.064 -0.3946 -0.9741  0.0117
  857MOL0     C13010  -1.527   4.245   0.958  0.5463  0.0960 -0.6485
  857MOL0     C13011  -1.616   4.353   0.952  0.1315  0.7542  0.6063
  857MOL0     C13012  -1.721   4.352   0.840  0.2292  0.5170 -0.2767
  857MOL0     C13013  -1.870   4.354   0.892 -0.0442  0.5219 -0.2117
  857MOL0     C13014  -1.958   4.377   0.774  0.4021 -0.5829  0.1576
  857MOL0     C13015  -2.104   4.398   0.809  0.3933 -0.1089 -0.2152
  857MOL0     O13016  -2.199   4.362   0.705 -0.3131 -0.2550 -0.4058
  857MOL0     C13017  -2.323   4.299   0.721  0.3647  0.6885 -1.0587
  857MOL0     C13018  -2.391   4.264   0.602  0.6754  0.5141 -0.5175
  857MOL0     C13019  -2.512   4.198   0.603 -0.3443  0.1654 -0.1432
  857MOL0     C13020  -2.568   4.154   0.722  0.1998  0.1284 -0.1341
  857MOL0     C13021  -2.693   4.066   0.739 -0.1447 -0.1104 -0.0395
  857MOL0     O13022  -2.736   3.996   0.632  0.3033 -0.6230  0.2445
  857MOL0     C13023  -2.866   3.947   0.627 -0.8164  1.1332  0.4699
  857MOL0     C13024  -2.969   3.978   0.717  0.4292 -0.5014  0.5299
  857MOL0     C13025  -3.092   3.916   0.683  0.1375 -1.0480 -0.6096
  857MOL0     C13026  -3.113   3.828   0.573  0.8770  0.1179  0.8128
  857MOL0     O13027  -3.237   3.768   0.557 -0.1031 -0.1314 -0.0496
  857MOL0     C13028  -3.283   3.737   0.425 -0.0926 -0.1532  0.5744
  857MOL0     C13029  -3.444   3.769   0.405 -0.4306  0.2084 -0.6770
  857MOL0     C13030  -3.525   3.691   0.504  1.5985  0.0613 -0.0686
  857MOL0     C13031  -3.683   3.728   0.516  0.8155 -0.4683 -1.1984
  857MOL0     C13032  -3.772   3.628   0.597 -0.8095  1.0937 -0.9296
  857MOL0     C13033  -3.904   3.679   0.640  0.4129  0.0782  0.6619
  857MOL0     C13034  -4.005   3.563   0.685  0.4737 -1.2391 -0.3086
  857MOL0     C13035  -4.132   3.631   0.740  0.3231 -0.4248  0.1132
  857MOL0    Cl13036  -4.216   3.762   0.652  0.2061 -0.1412  0.0031
  857MOL0     C13037  -3.008   3.797   0.485  0.0403 -0.4223  1.2619
  857MOL0     C13038  -2.882   3.852   0.519  0.3518  0.1473 -0.5916
  857MOL0     O13039  -2.735   4.066   0.852 -0.2009  0.4207  0.3438
  857MOL0     C13040  -2.508   4.202   0.837  1.2215 -0.2115 -0.6414
  857MOL0     C13041  -2.387   4.266   0.840 -0.0270  0.5485 -0.2529
  857MOL0     N13042  -1.581   4.444   1.052  0.1459  0.0415 -0.8218
  857MOL0     N13043  -1.496   4.388   1.126 -0.6756  0.4312  0.4249
  857MOL0     C13044  -0.280   4.797   1.143  0.0036  0.1976 -0.5851
  857MOL0     C13045  -0.144   4.812   1.129 -0.3528 -0.2198 -0.7957
  857MOL0     C13046   0.276   4.776   1.006 -0.5355 -0.9715  0.5261
  857MOL0     C13047   0.345   4.672   1.076  0.3441 -0.7304  0.2486
  857MOL0     C13048   0.483   4.658   1.054 -0.6129 -0.7856 -0.0192
  857MOL0     C13049   0.556   4.749   0.973 -0.2983 -0.4735 -0.3363
  857MOL0     O13050   0.692   4.721   0.961 -0.7693 -0.2268  0.3943
  857MOL0     C13051   0.778   4.836   0.940 -0.4327  0.1003  0.1748
  857MOL0     C13052   0.909   4.806   0.875  0.6562  0.1208 -0.0436
  857MOL0     C13053   0.882   4.748   0.732 -0.7763  0.3179  0.1534
  857MOL0     C13054   0.999   4.725   0.638  0.5214  0.2663  0.5490
  857MOL0     C13055   1.101   4.638   0.694  0.0676  0.9224 -0.0899
  857MOL0     C13056   1.173   4.560   0.749 -1.0487 -0.2242  0.4999
  857MOL0     C13057   0.488   4.854   0.915  0.5563  0.4523 -0.2952
  857MOL0     C13058   0.349   4.865   0.926 -0.2109  0.3213  1.9180
  857MOL0     H13059  -0.046   4.501   1.102  0.7806  1.1906 -1.9147
  857MOL0     H13060  -0.294   4.464   1.085 -0.7276 -0.2560  2.7422
  857MOL0     H13061  -0.508   4.449   1.164  0.7715 -1.5433 -2.3247
  857MOL0     H13062  -0.513   4.517   1.001  0.7184  2.2254 -0.8013
  857MOL0     H13063  -0.716   4.658   1.052  1.2414  0.6527 -1.0532
  857MOL0     H13064  -0.712   4.565   1.208  4.2295 -0.7675  1.3031
  857MOL0     H13065  -0.736   4.359   1.069  1.0797  0.4136 -0.9592
  857MOL0     H13066  -0.770   4.461   0.922 -1.0372  1.1422 -0.4693
  857MOL0     H13067  -0.935   4.492   1.175 -1.0919 -3.5469  0.4442
  857MOL0     H13068  -0.966   4.551   1.004  1.5695 -0.4725 -1.1107
  857MOL0     H13069  -0.938   4.260   1.086 -2.0833 -0.4951  0.7874
  857MOL0     H13070  -1.001   4.314   0.926 -0.4174 -1.6524  0.0496
  857MOL0     H13071  -1.195   4.415   1.025 -0.0443 -0.4294 -1.9365
  857MOL0     H13072  -1.137   4.360   1.182 -3.2023  2.7552 -0.6642
  857MOL0     H13073  -1.212   4.165   0.956 -0.7239 -2.2440  0.7575
  857MOL0     H13074  -1.139   4.128   1.119 -0.0373  0.8857  2.3309
  857MOL0     H13075  -1.341   4.203   1.229 -2.0499  0.5282  0.1141
  857MOL0     H13076  -1.377   4.078   1.115 -1.7617  0.4279  0.5046
  857MOL0     H13077  -1.524   4.156   0.895  1.5738 -0.1151 -0.3177
  857MOL0     H13078  -1.707   4.268   0.771  0.1573  1.2546 -1.2055
  857MOL0     H13079  -1.699   4.444   0.786 -0.1037  0.5146 -0.4221
  857MOL0     H13080  -1.875   4.431   0.969 -1.3962 -0.0432  0.3066
  857MOL0     H13081  -1.894   4.256   0.934  0.2350  1.3209  1.9312
  857MOL0     H13082  -1.920   4.472   0.736  0.4499  0.0289  1.6830
  857MOL0     H13083  -1.944   4.297   0.701  0.1946  0.8957 -1.5763
  857MOL0     H13084  -2.118   4.505   0.828 -0.9683 -0.1149 -1.0222
  857MOL0     H13085  -2.121   4.340   0.900  1.8559 -1.5054 -0.7766
  857MOL0     H13086  -2.351   4.278   0.502 -1.0038  2.4245 -0.9906
  857MOL0     H13087  -2.558   4.177   0.507 -1.3850 -4.2019  1.0554
  857MOL0     H13088  -2.958   4.051   0.797 -0.0568 -3.0938  3.1397
  857MOL0     H13089  -3.172   3.946   0.751  1.3013 -0.5970  0.5978
  857MOL0     H13090  -3.263   3.631   0.409 -0.6533 -0.3730  1.2971
  857MOL0     H13091  -3.227   3.806   0.361 -2.2651  4.8968  3.4966
  857MOL0     H13092  -3.473   3.754   0.300  0.5058 -1.1095 -0.7815
  857MOL0     H13093  -3.463   3.875   0.425  1.7964  0.8480 -1.6397
  857MOL0     H13094  -3.485   3.702   0.606 -2.8998 -1.1234  2.0798
  857MOL0     H13095  -3.527   3.587   0.470 -2.7454  0.0985 -0.4219
  857MOL0     H13096  -3.690   3.826   0.562 -2.0200 -0.5857 -1.2251
  857MOL0     H13097  -3.743   3.743   0.426 -1.2645  1.6894  0.4260
  857MOL0     H13098  -3.717   3.600   0.688 -1.8875 -1.2380 -0.9123
  857MOL0     H13099  -3.800   3.538   0.541 -2.7720  1.3738 -0.4919
  857MOL0     H13100  -3.952   3.719   0.550 -1.6082  0.8859  2.0301
  857MOL0     H13101  -3.897   3.753   0.720 -0.9477 -0.7447  1.5879
  857MOL0     H13102  -4.020   3.500   0.597  2.5062  0.2128 -1.7945
  857MOL0     H13103  -3.967   3.499   0.765  1.9339 -2.1139 -1.6544
  857MOL0     H13104  -4.085   3.674   0.829  2.5760 -5.4705  1.7429
  857MOL0     H13105  -4.208   3.560   0.774  0.2576  0.6998  2.5630
  857MOL0     H13106  -3.022   3.743   0.392  0.7100  2.1349 -0.4207
  857MOL0     H13107  -2.794   3.821   0.463  0.2789  1.2698 -1.3598
  857MOL0     H13108  -2.546   4.182   0.936  0.6990 -0.1764 -0.8293
  857MOL0     H13109  -2.345   4.288   0.938 -2.2097  1.9224  0.4383
  857MOL0     H13110  -0.344   4.882   1.165 -2.4425 -1.4517 -0.9422
  857MOL0     H13111  -0.101   4.910   1.145  1.2555 -0.7090 -1.8763
  857MOL0     H13112   0.282   4.610   1.140 -1.1499  1.4006  0.9819
  857MOL0     H13113   0.534   4.573   1.098  0.7740 -0.3543 -0.7419
  857MOL0     H13114   0.792   4.875   1.041  2.0998  1.6319 -0.6735
  857MOL0     H13115   0.743   4.920   0.880  2.7214  1.3601 -0.1105
  857MOL0     H13116   0.955   4.905   0.861 -0.6665  0.3675 -4.0749
  857MOL0     H13117   0.967   4.737   0.936 -3.5333 -5.1318 -1.2839
  857MOL0     H13118   0.823   4.823   0.678 -1.6783  1.3924  2.4871
  857MOL0     H13119   0.834   4.651   0.749  2.4964 -1.4636  0.1153
  857MOL0     H13120   0.961   4.678   0.547 -0.8669  3.4993 -0.7074
  857MOL0     H13121   1.054   4.814   0.606  0.0099 -0.2320 -1.9371
  857MOL0     H13122   1.239   4.493   0.800 -0.7332 -0.2228  0.0965
  857MOL0     H13123   0.525   4.925   0.841  4.5327 -1.4860 -0.4015
  857MOL0     H13124   0.308   4.946   0.867  3.1296  1.3989  0.8376
  858MOL0     O13125   8.969   5.928   6.881  0.9789 -0.0630  0.2499
  858MOL0     C13126   8.930   5.863   6.783 -0.1548  0.5575 -0.4143
  858MOL0     O13127   8.821   5.785   6.778 -0.2419  0.3563 -0.4283
  858MOL0     C13128   8.746   5.746   6.891  1.3217 -0.7017  0.2208
  858MOL0     C13129   8.602   5.738   6.880 -0.0688 -0.1657  0.2995
  858MOL0     C13130   8.533   5.684   6.991 -0.4637 -0.9339  0.0469
  858MOL0     C13131   8.594   5.641   7.104 -0.0557 -0.3754 -0.0176
  858MOL0     O13132   8.519   5.580   7.208  0.5781  0.1050  0.6346
  858MOL0     C13133   8.592   5.543   7.331  1.0261 -0.4397  0.7003
  858MOL0     C13134   8.494   5.514   7.446 -0.0512  0.2397 -0.4262
  858MOL0     C13135   8.366   5.432   7.413  0.1675 -0.2339 -0.0845
  858MOL0     C13136   8.285   5.409   7.541 -0.6579 -0.0198  0.7264
  858MOL0     C13137   8.139   5.338   7.514 -0.0934 -0.2900  0.7307
  858MOL0     C13138   8.159   5.196   7.459  0.3491  0.4063  0.7134
  858MOL0     C13139   8.148   5.171   7.307 -1.1962  0.6223  0.3221
  858MOL0     C13140   8.180   5.020   7.285 -0.2453 -0.0423  0.0809
  858MOL0     N13141   8.320   4.988   7.314 -0.4433 -0.3650  0.5212
  858MOL0     C13142   8.411   4.970   7.210  1.0045 -0.5095 -0.3220
  858MOL0     C13143   8.504   4.885   7.258  0.0785  0.2187 -0.1980
  858MOL0     C13144   8.612   4.829   7.184 -0.1086 -0.0330  0.3787
  858MOL0     C13145   8.556   4.758   7.064 -0.0684  0.1826  0.6944
  858MOL0     C13146   8.648   4.642   7.022  0.3618 -0.2107 -0.0156
  858MOL0     C13147   8.607   4.599   6.884  0.0219 -0.0245 -0.0993
  858MOL0     O13148   8.659   4.468   6.847  0.1365  0.8050  1.1679
  858MOL0     C13149   8.601   4.390   6.746  0.6051  0.7310  0.1157
  858MOL0     C13150   8.482   4.409   6.703  0.1350 -0.2259 -0.1132
  858MOL0     C13151   8.428   4.334   6.598 -0.5711 -0.0732 -1.0228
  858MOL0     C13152   8.506   4.229   6.543  0.1031 -0.3966 -0.8168
  858MOL0     C13153   8.443   4.148   6.436  0.2437 -0.2263  0.1543
  858MOL0     O13154   8.333   4.211   6.381 -0.2010  0.3310 -0.0457
  858MOL0     C13155   8.263   4.162   6.290  0.1438  0.3836  0.4350
  858MOL0     C13156   8.126   4.187   6.303  0.2896  0.6238  0.3782
  858MOL0     C13157   8.043   4.135   6.200  0.0926  0.1655  0.2168
  858MOL0     C13158   8.095   4.079   6.088 -1.1166  0.1406 -0.0026
  858MOL0     O13159   7.998   4.039   5.992  0.2260  0.1042 -0.9742
  858MOL0     C13160   7.993   3.900   5.963 -0.0240  0.4733 -0.4378
  858MOL0     C13161   7.919   3.893   5.824  1.1157  0.4528  0.0320
  858MOL0     C13162   7.780   3.933   5.825 -0.3788 -0.3776  0.7372
  858MOL0     C13163   7.690   3.860   5.732  1.3582  0.3249 -0.1601
  858MOL0     C13164   7.566   3.954   5.698 -0.1040  0.1939  0.9630
  858MOL0     C13165   7.472   3.976   5.815 -0.4775 -0.9769  0.7554
  858MOL0     C13166   7.383   3.854   5.852 -0.4285 -0.5244  0.0355
  858MOL0     C13167   7.340   3.826   5.994 -0.3195 -0.6990  0.6087
  858MOL0    Cl13168   7.193   3.932   6.017  0.1515  0.1980  0.1245
  858MOL0     C13169   8.231   4.062   6.066  0.3731 -0.1066 -0.0284
  858MOL0     C13170   8.310   4.092   6.173 -0.4054 -0.4863 -0.1525
  858MOL0     O13171   8.482   4.039   6.409 -0.1567  0.0192  0.2011
  858MOL0     C13172   8.640   4.212   6.585 -0.0883  0.1300 -0.7472
  858MOL0     C13173   8.682   4.293   6.685  0.0702  0.0380 -0.1451
  858MOL0     N13174   8.484   4.866   7.390  0.1899  0.0872 -0.3155
  858MOL0     N13175   8.368   4.929   7.421  0.1378 -0.9596  0.6108
  858MOL0     C13176   8.730   5.664   7.116  0.0671  0.3760 -0.3386
  858MOL0     C13177   8.809   5.718   7.012 -0.1107 -0.0186  0.2849
  858MOL0     C13178   9.003   5.877   6.658  0.3538  0.4078  0.6415
  858MOL0     C13179   8.971   5.827   6.530  0.7669  0.1476 -0.3094
  858MOL0     C13180   9.050   5.831   6.421 -0.2168  0.2876  0.2198
  858MOL0     C13181   9.173   5.899   6.425  0.7651  0.0484  0.0423
  858MOL0     O13182   9.256   5.873   6.316 -0.4953  0.6121 -0.3249
  858MOL0     C13183   9.351   5.976   6.300  0.3390 -0.3504  0.3196
  858MOL0     C13184   9.427   5.950   6.161 -0.6330 -0.3988 -0.3397
  858MOL0     C13185   9.536   6.042   6.113 -0.9010 -0.6077  0.2236
  858MOL0     C13186   9.580   5.998   5.966  0.0649 -0.4952  0.2442
  858MOL0     C13187   9.659   5.880   5.974 -0.0944 -0.6570  0.1888
  858MOL0     C13188   9.740   5.790   5.964  0.1230  0.3372 -0.3291
  858MOL0     C13189   9.209   5.962   6.542 -0.3859 -0.4153  0.4234
  858MOL0     C13190   9.131   5.941   6.655 -0.0046  0.2606  0.0011
  858MOL0     H13191   8.557   5.770   6.786  2.3336  0.4004 -0.7594
  858MOL0     H13192   8.426   5.663   6.987 -0.7721  0.6079 -0.6229
  858MOL0     H13193   8.648   5.632   7.361  1.0380  0.5902 -2.0874
  858MOL0     H13194   8.666   5.464   7.318 -0.6488 -1.8494 -0.8854
  858MOL0     H13195   8.463   5.616   7.473  0.0428  0.0475  0.4367
  858MOL0     H13196   8.548   5.464   7.527  0.1440 -0.7024 -1.1185
  858MOL0     H13197   8.385   5.333   7.370 -0.4664 -1.1532  1.6526
  858MOL0     H13198   8.300   5.494   7.351 -0.1657  0.6700  1.1239
  858MOL0     H13199   8.339   5.367   7.626  1.2577 -0.6940 -0.7625
  858MOL0     H13200   8.263   5.507   7.586 -0.9165 -0.3075  1.2438
  858MOL0     H13201   8.082   5.396   7.440  0.9261  0.6067  0.6235
  858MOL0     H13202   8.083   5.339   7.607 -0.9264  4.3210  0.4370
  858MOL0     H13203   8.078   5.131   7.494  0.5716 -0.4971 -0.3938
  858MOL0     H13204   8.251   5.159   7.507  0.1295  0.3078  1.0629
  858MOL0     H13205   8.049   5.199   7.268 -1.8704  3.1947  3.4484
  858MOL0     H13206   8.224   5.226   7.250 -1.0070  1.2516  1.1610
  858MOL0     H13207   8.166   4.996   7.179  2.4510 -1.2424 -0.0857
  858MOL0     H13208   8.121   4.956   7.351  1.6088 -2.5577 -0.5579
  858MOL0     H13209   8.386   4.994   7.107  0.9497  0.1792 -0.1469
  858MOL0     H13210   8.661   4.760   7.254 -0.4682  1.8404  2.5968
  858MOL0     H13211   8.693   4.899   7.161  2.0326 -1.4512  2.8699
  858MOL0     H13212   8.541   4.829   6.983  2.8554 -0.2994 -0.4076
  858MOL0     H13213   8.465   4.706   7.093  0.5662 -1.6246 -0.3975
  858MOL0     H13214   8.754   4.670   7.025  0.1005  0.8793 -0.6962
  858MOL0     H13215   8.637   4.557   7.091 -0.4156 -1.6871 -1.8634
  858MOL0     H13216   8.624   4.671   6.804 -1.2405  0.1950 -0.1891
  858MOL0     H13217   8.498   4.592   6.895 -0.0323 -0.4844 -0.8301
  858MOL0     H13218   8.413   4.474   6.756 -1.4503 -0.4811 -1.7604
  858MOL0     H13219   8.325   4.345   6.568 -0.4620 -1.8784 -2.2120
  858MOL0     H13220   8.083   4.238   6.388 -0.5507  0.3772  0.1105
  858MOL0     H13221   7.939   4.163   6.209  0.8461  3.5732 -0.3479
  858MOL0     H13222   7.939   3.839   6.035 -0.8062  0.8934 -0.6610
  858MOL0     H13223   8.093   3.857   5.954  0.2010  1.1933 -1.5787
  858MOL0     H13224   7.912   3.788   5.795 -2.3130 -0.0175  2.0721
  858MOL0     H13225   7.969   3.950   5.746 -0.2779  0.5233 -0.8243
  858MOL0     H13226   7.791   4.041   5.811  1.0710 -0.2488  2.4237
  858MOL0     H13227   7.730   3.927   5.922 -1.1015 -0.1323  0.3857
  858MOL0     H13228   7.742   3.840   5.638 -1.7307  0.2081 -1.9558
  858MOL0     H13229   7.648   3.770   5.779  1.6603  0.1922 -0.1419
  858MOL0     H13230   7.513   3.912   5.611  4.3415 -0.2799 -1.8214
  858MOL0     H13231   7.607   4.049   5.663 -0.7631  0.3553  0.6096
  858MOL0     H13232   7.396   4.050   5.788 -1.7702 -1.7059  2.2360
  858MOL0     H13233   7.518   4.013   5.907 -1.2646  2.0251  0.0466
  858MOL0     H13234   7.293   3.857   5.788 -0.5295 -2.2867  0.0349
  858MOL0     H13235   7.422   3.756   5.821 -1.4433 -1.0235  0.2713
  858MOL0     H13236   7.422   3.828   6.066 -0.8181  1.8803  1.2267
  858MOL0     H13237   7.316   3.720   5.991  0.2116 -0.9843  3.5656
  858MOL0     H13238   8.272   4.027   5.972 -0.6218 -0.0945 -0.4712
  858MOL0     H13239   8.415   4.073   6.155 -0.6195 -4.3495  1.6393
  858MOL0     H13240   8.699   4.131   6.545 -1.2838 -0.5414 -1.2171
  858MOL0     H13241   8.786   4.273   6.711 -0.4205 -1.3920  0.8510
  858MOL0     H13242   8.778   5.623   7.204 -1.2268 -1.8687 -0.5890
  858MOL0     H13243   8.916   5.736   7.017 -0.4595  2.9945 -0.7248
  858MOL0     H13244   8.868   5.795   6.514  0.8664 -0.4412  0.1595
  858MOL0     H13245   9.009   5.781   6.334 -1.0952 -0.3483  0.9733
  858MOL0     H13246   9.435   5.992   6.369  1.8675 -0.2399 -1.4779
  858MOL0     H13247   9.291   6.067   6.299  1.2237  0.3513  3.1820
  858MOL0     H13248   9.459   5.846   6.160  1.7375  0.2292  1.5170
  858MOL0     H13249   9.353   5.971   6.083 -0.5253  2.9824  0.2958
  858MOL0     H13250   9.620   6.035   6.182 -0.1326 -2.3802 -0.8197
  858MOL0     H13251   9.495   6.143   6.108  0.1366 -0.2260 -1.4960
  858MOL0     H13252   9.489   5.979   5.909 -0.3702 -0.7540  1.0110
  858MOL0     H13253   9.641   6.071   5.912  0.8173 -0.6840  0.8188
  858MOL0     H13254   9.806   5.709   5.946 -1.4337 -0.7875 -1.2222
  858MOL0     H13255   9.303   6.015   6.548  0.0208 -0.5333 -2.8618
  858MOL0     H13256   9.171   5.994   6.741 -0.1235  0.4786 -0.0789
  859MOL0     O13257   0.633   0.028  10.579 -0.5147  0.2483  0.1386
  859MOL0     C13258   0.585   0.027  10.467  0.1829  0.2767  0.2225
  859MOL0     O13259   0.453   0.039  10.445 -0.2491 -0.5165  0.3017
  859MOL0     C13260   0.346  -0.000  10.520  0.1782 -0.3649 -0.6133
  859MOL0     C13261   0.353  -0.096  10.615  0.5779  0.2381  0.8858
  859MOL0     C13262   0.246  -0.147  10.679 -0.2239  0.5489 -0.7191
  859MOL0     C13263   0.121  -0.091  10.655 -0.0975 -0.1840 -0.6541
  859MOL0     O13264   0.018  -0.134  10.738 -0.0864 -0.9502  0.6253
  859MOL0     C13265  -0.115  -0.080  10.727  0.2146 -0.8063 -0.0916
  859MOL0     C13266  -0.219  -0.167  10.639 -0.9249  0.5456  0.1249
  859MOL0     C13267  -0.243  -0.294  10.716  0.0859 -0.9834 -0.4069
  859MOL0     C13268  -0.357  -0.371  10.642 -0.4582 -0.4758  0.1730
  859MOL0     C13269  -0.486  -0.345  10.714  0.0216 -0.4294 -1.6175
  859MOL0     C13270  -0.607  -0.402  10.645 -0.1919  0.5277 -0.8197
  859MOL0     C13271  -0.629  -0.366  10.499 -0.1955 -0.7577  1.8126
  859MOL0     C13272  -0.605  -0.217  10.453  0.1615  0.6679 -0.7400
  859MOL0     N13273  -0.727  -0.139  10.475  0.2123 -0.0652  0.8556
  859MOL0     C13274  -0.846  -0.174  10.431 -0.5576  0.5111 -0.3583
  859MOL0     C13275  -0.929  -0.093  10.508  0.8261  0.2966  0.1789
  859MOL0     C13276  -1.077  -0.084  10.473 -0.1195 -0.2566  0.1406
  859MOL0     C13277  -1.159  -0.005  10.569  0.4233 -0.1735  0.8921
  859MOL0     C13278  -1.294   0.051  10.509 -0.1439  0.3759 -0.0191
  859MOL0     C13279  -1.388  -0.057  10.457  0.8314 -0.4971 -0.2818
  859MOL0     O13280  -1.424  -0.138  10.571 -0.3594 -0.7857 -0.0660
  859MOL0     C13281  -1.491  -0.255  10.540 -0.1034  0.3229  0.0715
  859MOL0     C13282  -1.509  -0.355  10.643  0.6239  0.0987 -0.3388
  859MOL0     C13283  -1.566  -0.478  10.611 -0.7290 -0.1997 -0.3215
  859MOL0     C13284  -1.614  -0.493  10.480  0.1869  0.2114 -0.1078
  859MOL0     C13285  -1.689  -0.616  10.440  0.4577 -0.5150 -0.4903
  859MOL0     O13286  -1.748  -0.630  10.321  0.5061  0.1186 -0.4063
  859MOL0     C13287  -1.855  -0.725  10.301  0.3864 -0.4381 -0.1655
  859MOL0     C13288  -1.946  -0.764  10.403 -0.4697  0.1721 -0.5648
  859MOL0     C13289  -2.049  -0.861  10.373 -0.6696  0.2870  0.4496
  859MOL0     C13290  -2.070  -0.901  10.243  1.1926  0.3673 -0.4668
  859MOL0     O13291  -2.183  -0.981  10.216  0.1935  0.2806  0.1711
  859MOL0     C13292  -2.213  -1.024  10.076  0.4511  0.1317 -0.0296
  859MOL0     C13293  -2.332  -1.123  10.085  0.3001  0.7011 -0.9524
  859MOL0     C13294  -2.300  -1.249  10.162  0.8157 -0.7592  0.3983
  859MOL0     C13295  -2.443  -1.317  10.193  0.7498  0.3824  0.4578
  859MOL0     C13296  -2.518  -1.354  10.063  0.0521  0.3520  0.9569
  859MOL0     C13297  -2.646  -1.429  10.098  0.1113 -0.8366 -0.6975
  859MOL0     C13298  -2.696  -1.502   9.977  0.4433  0.5389  0.1890
  859MOL0     C13299  -2.827  -1.585   9.980 -1.3060  0.0302 -0.1285
  859MOL0    Cl13300  -2.884  -1.647   9.827  0.6097  0.0711  0.0911
  859MOL0     C13301  -1.995  -0.844  10.133 -1.4569 -0.1269 -0.1909
  859MOL0     C13302  -1.886  -0.760  10.169 -0.0626  0.3710  0.5426
  859MOL0     O13303  -1.682  -0.699  10.532  0.2438  0.1851  0.2526
  859MOL0     C13304  -1.608  -0.392  10.388 -0.9720 -0.6093  0.0189
  859MOL0     C13305  -1.550  -0.274  10.419 -0.5761 -0.7554 -0.1860
  859MOL0     N13306  -0.854  -0.017  10.598 -0.8562 -0.4176  0.1029
  859MOL0     N13307  -0.739  -0.056  10.583  0.1965 -0.1662  0.0227
  859MOL0     C13308   0.101   0.008  10.549 -0.5982 -0.0174 -0.9173
  859MOL0     C13309   0.217   0.047  10.486 -0.2130 -0.4058 -0.5007
  859MOL0     C13310   0.677   0.006  10.353  0.1019 -0.3269  0.1035
  859MOL0     C13311   0.816   0.020  10.356 -0.2222 -0.3107  0.2352
  859MOL0     C13312   0.897   0.003  10.239 -0.9297 -0.1807  0.8760
  859MOL0     C13313   0.847  -0.031  10.116 -0.7066 -0.8074  0.5932
  859MOL0     O13314   0.920  -0.051  10.005  0.6489 -0.2942 -0.4295
  859MOL0     C13315   1.061  -0.060  10.003  0.3728 -1.2196 -0.8651
  859MOL0     C13316   1.087  -0.127   9.868 -1.0553 -0.4860  1.3159
  859MOL0     C13317   1.247  -0.121   9.840 -0.1552 -0.4344  0.0096
  859MOL0     C13318   1.305  -0.192   9.715  0.5137 -0.0146  0.4766
  859MOL0     C13319   1.416  -0.120   9.661  0.7000  0.1312  0.0772
  859MOL0     C13320   1.506  -0.076   9.603  0.2410  0.3372 -0.8576
  859MOL0     C13321   0.714  -0.035  10.112 -0.0702 -0.6900  0.5275
  859MOL0     C13322   0.622  -0.003  10.220  0.7959 -0.2261  0.5640
  859MOL0     H13323   0.449  -0.143  10.634  0.1832 -2.0971 -2.1622
  859MOL0     H13324   0.259  -0.229  10.749 -2.5952 -0.5937 -1.4845
  859MOL0     H13325  -0.110   0.021  10.686 -3.3757  0.5841  2.3744
  859MOL0     H13326  -0.153  -0.072  10.829 -0.2904  2.5704 -0.4442
  859MOL0     H13327  -0.165  -0.197  10.549 -1.0042  0.9708 -0.0640
  859MOL0     H13328  -0.307  -0.112  10.606 -1.2061 -0.1958 -0.3912
  859MOL0     H13329  -0.264  -0.268  10.820 -0.5227  1.0418 -0.9941
  859MOL0     H13330  -0.151  -0.352  10.707  1.2237  0.4069  1.5282
  859MOL0     H13331  -0.361  -0.348  10.535  0.3267 -1.9922 -0.2028
  859MOL0     H13332  -0.348  -0.479  10.653  1.6481 -0.2984  0.5909
  859MOL0     H13333  -0.508  -0.238  10.726 -3.2639 -0.9472 -2.0405
  859MOL0     H13334  -0.493  -0.389  10.814  2.0041 -0.6871 -1.5517
  859MOL0     H13335  -0.694  -0.352  10.690 -1.0065  1.9567 -3.7366
  859MOL0     H13336  -0.610  -0.509  10.667 -1.0572  0.7784  0.4144
  859MOL0     H13337  -0.559  -0.417  10.432 -1.4644  0.8388 -0.9245
  859MOL0     H13338  -0.725  -0.410  10.470  0.0698  0.9883 -2.4931
  859MOL0     H13339  -0.583  -0.224  10.346  1.4662 -1.5390 -0.3973
  859MOL0     H13340  -0.514  -0.183  10.505  0.3591  1.4674 -1.5902
  859MOL0     H13341  -0.885  -0.228  10.345  0.6282  3.1291 -2.6804
  859MOL0     H13342  -1.110  -0.188  10.477 -0.3190 -0.1917  0.1518
  859MOL0     H13343  -1.074  -0.049  10.369 -1.8935 -0.8627 -0.1485
  859MOL0     H13344  -1.101   0.084  10.596 -0.1430 -0.0299  1.6780
  859MOL0     H13345  -1.187  -0.059  10.660 -2.3954  1.2951  1.0088
  859MOL0     H13346  -1.345   0.105  10.590  2.3061  2.7173  0.0943
  859MOL0     H13347  -1.283   0.128  10.432 -2.6610  0.9824  0.1340
  859MOL0     H13348  -1.356  -0.121  10.374 -0.9162 -1.6468 -0.0984
  859MOL0     H13349  -1.477  -0.002  10.424  0.0056  0.1647  2.7933
  859MOL0     H13350  -1.478  -0.332  10.744 -1.3666 -0.3149  0.4131
  859MOL0     H13351  -1.577  -0.542  10.698 -0.8870  0.2355 -0.0212
  859MOL0     H13352  -1.929  -0.752  10.509 -0.6057  4.4798 -0.8726
  859MOL0     H13353  -2.107  -0.917  10.445 -3.0565 -0.0953 -1.6235
  859MOL0     H13354  -2.130  -1.088  10.046 -0.7304 -2.7012  2.2315
  859MOL0     H13355  -2.236  -0.932  10.022  1.2344  0.9297  0.9616
  859MOL0     H13356  -2.356  -1.151   9.982  0.4057  0.7503 -0.9912
  859MOL0     H13357  -2.417  -1.072  10.131  0.3944  0.5457 -0.6050
  859MOL0     H13358  -2.249  -1.226  10.256  1.0345 -0.4939  0.2164
  859MOL0     H13359  -2.229  -1.310  10.105 -1.9653 -1.8594 -2.1413
  859MOL0     H13360  -2.438  -1.409  10.252 -0.8044  0.9459  1.5172
  859MOL0     H13361  -2.499  -1.246  10.255 -0.0613  1.0264 -0.9736
  859MOL0     H13362  -2.457  -1.419  10.000 -0.9425  0.0816  0.2595
  859MOL0     H13363  -2.553  -1.272  10.000  1.9655 -1.0757 -2.2105
  859MOL0     H13364  -2.731  -1.366  10.124  0.0675 -1.1651 -0.0346
  859MOL0     H13365  -2.625  -1.497  10.181  1.5150  0.9396  0.4666
  859MOL0     H13366  -2.708  -1.429   9.896 -0.7669 -0.3786 -0.4991
  859MOL0     H13367  -2.630  -1.586   9.957 -0.3817 -0.1552  0.2972
  859MOL0     H13368  -2.906  -1.530  10.033 -1.4758  0.1370 -0.4904
  859MOL0     H13369  -2.799  -1.675  10.036  1.4581  0.6129 -0.4515
  859MOL0     H13370  -1.998  -0.859  10.026  0.3582  0.1165 -0.3155
  859MOL0     H13371  -1.825  -0.697  10.105  1.9272  0.2964  2.2734
  859MOL0     H13372  -1.642  -0.408  10.286 -1.6006  0.2389  0.0814
  859MOL0     H13373  -1.543  -0.195  10.345  2.2839 -0.6689  0.0420
  859MOL0     H13374   0.002   0.036  10.515 -2.0224 -0.7420  2.2942
  859MOL0     H13375   0.211   0.115  10.401 -0.3634 -1.5205 -1.4026
  859MOL0     H13376   0.850   0.035  10.459 -1.1071 -0.0837  0.5000
  859MOL0     H13377   1.005   0.008  10.245 -0.6305 -4.4491  2.6186
  859MOL0     H13378   1.108  -0.120  10.081 -1.5250 -2.1820 -0.4114
  859MOL0     H13379   1.103   0.041  10.003 -3.2178  0.4204 -1.4512
  859MOL0     H13380   1.064  -0.234   9.871 -0.8690 -0.4961  3.1884
  859MOL0     H13381   1.034  -0.083   9.783  1.1550 -2.4099 -1.2531
  859MOL0     H13382   1.295  -0.165   9.927  2.1827 -1.7085 -1.8038
  859MOL0     H13383   1.272  -0.015   9.835  0.0296 -0.5082 -0.8647
  859MOL0     H13384   1.322  -0.297   9.742 -3.5958 -1.1901 -0.9100
  859MOL0     H13385   1.221  -0.169   9.650 -0.3671  2.3976  2.3276
  859MOL0     H13386   1.577  -0.028   9.538  3.2532  0.0816  1.9699
  859MOL0     H13387   0.671  -0.063  10.016  0.3408 -0.8594  0.3911
  859MOL0     H13388   0.515  -0.000  10.204  0.9505  2.3059 -0.4064
  860MOL0     O13389   2.129   3.349   7.119 -0.5189 -0.6088 -0.1442
  860MOL0     C13390   2.221   3.413   7.172 -1.0182 -0.1438 -0.6134
  860MOL0     O13391   2.207   3.535   7.221 -0.1018  0.3259  0.0637
  860MOL0     C13392   2.087   3.598   7.219 -0.0400 -0.5877  0.3337
  860MOL0     C13393   2.054   3.695   7.121 -0.4831  1.0574  0.8597
  860MOL0     C13394   1.934   3.771   7.124 -0.0855 -0.0330 -0.1511
  860MOL0     C13395   1.836   3.749   7.227  0.2236 -0.2559 -0.0957
  860MOL0     O13396   1.722   3.824   7.230  0.7565 -0.1746 -0.2729
  860MOL0     C13397   1.698   3.906   7.352 -0.0623  0.3506 -1.1770
  860MOL0     C13398   1.568   3.871   7.419  1.1527  0.9463  0.1396
  860MOL0     C13399   1.468   3.993   7.448 -0.8738 -0.8767  0.3574
  860MOL0     C13400   1.335   3.935   7.491  0.8201 -0.1494 -0.0730
  860MOL0     C13401   1.244   4.045   7.555  0.8579 -0.1998 -0.2706
  860MOL0     C13402   1.099   3.979   7.568 -0.2823 -0.5893  0.0536
  860MOL0     C13403   1.000   4.080   7.635  0.2496  0.3452  1.0919
  860MOL0     C13404   0.854   4.034   7.641 -0.0854 -0.4534  0.1284
  860MOL0     N13405   0.777   4.149   7.694 -0.0211 -0.4387  0.0862
  860MOL0     C13406   0.765   4.261   7.625 -0.6936 -0.4465 -0.1887
  860MOL0     C13407   0.674   4.332   7.691 -0.8298  0.2184  0.8948
  860MOL0     C13408   0.631   4.474   7.648  0.3518  0.3296 -0.0123
  860MOL0     C13409   0.607   4.560   7.767 -0.2696 -0.5638  0.4422
  860MOL0     C13410   0.536   4.688   7.736 -0.3164 -0.6298 -0.6983
  860MOL0     C13411   0.556   4.787   7.849 -0.5791  0.0315  0.2727
  860MOL0     O13412   0.556   4.735   7.983  0.1080  0.0320 -0.4237
  860MOL0     C13413   0.574   4.818   8.091  0.1195 -0.4141  0.0383
  860MOL0     C13414   0.699   4.825   8.162 -0.0842  0.5322  0.3443
  860MOL0     C13415   0.713   4.913   8.270  0.3313 -0.3072 -0.7147
  860MOL0     C13416   0.606   4.998   8.313  0.7333  0.8539 -0.7290
  860MOL0     C13417   0.606   5.080   8.434  1.1389  0.8144  0.0721
  860MOL0     O13418   0.501   5.168   8.461 -0.1199 -0.5681  0.6568
  860MOL0     C13419   0.482   5.234   8.579  0.3901 -0.8118 -0.3930
  860MOL0     C13420   0.412   5.357   8.583  0.8653 -1.4120  0.1946
  860MOL0     C13421   0.370   5.425   8.698 -0.0635  0.9485 -0.9230
  860MOL0     C13422   0.407   5.371   8.826 -0.5325  0.6108  0.6893
  860MOL0     O13423   0.367   5.433   8.939  0.4378 -0.2407  0.5390
  860MOL0     C13424   0.317   5.349   9.043  0.2260  0.7041 -0.5915
  860MOL0     C13425   0.244   5.450   9.133  0.1075  0.3520 -0.3222
  860MOL0     C13426   0.106   5.492   9.071 -0.9063  0.4455 -0.1087
  860MOL0     C13427   0.014   5.564   9.164  0.2629  0.7368 -0.3554
  860MOL0     C13428  -0.103   5.612   9.083  0.2412 -0.2236 -0.4931
  860MOL0     C13429  -0.210   5.668   9.180 -0.4819 -0.5467  0.6110
  860MOL0     C13430  -0.348   5.708   9.100 -0.7793 -0.2692  0.1889
  860MOL0     C13431  -0.458   5.594   9.120 -0.4182  0.0226 -0.0583
  860MOL0    Cl13432  -0.617   5.667   9.111 -0.0341 -0.0762  0.3282
  860MOL0     C13433   0.485   5.247   8.824  0.4883 -0.7277  0.3793
  860MOL0     C13434   0.516   5.185   8.707 -0.0966 -0.2527 -0.1491
  860MOL0     O13435   0.698   5.058   8.509  0.3899 -0.2629  0.7986
  860MOL0     C13436   0.484   4.988   8.249  0.6992 -0.3004 -0.5420
  860MOL0     C13437   0.469   4.901   8.139 -0.2036  0.2278  0.5655
  860MOL0     N13438   0.637   4.268   7.801 -0.7426  0.4594  1.3996
  860MOL0     N13439   0.695   4.155   7.801 -0.4230 -1.5038 -0.4577
  860MOL0     C13440   1.869   3.660   7.322 -0.0990 -0.3577  0.0450
  860MOL0     C13441   1.988   3.583   7.315 -0.2680 -0.1780  0.7768
  860MOL0     C13442   2.358   3.351   7.197  0.6015  0.5918  0.0247
  860MOL0     C13443   2.376   3.217   7.165  0.0705 -0.0371  0.0711
  860MOL0     C13444   2.492   3.148   7.192 -0.0480  0.0372 -0.7136
  860MOL0     C13445   2.600   3.219   7.236  0.2793 -0.6001 -1.0574
  860MOL0     O13446   2.721   3.156   7.280 -0.0567 -0.0912  0.5204
  860MOL0     C13447   2.746   3.016   7.264 -0.3546  0.1910 -0.1277
  860MOL0     C13448   2.893   2.976   7.288  0.4509 -0.8465 -0.2592
  860MOL0     C13449   2.926   2.950   7.436 -0.2500 -0.0516 -0.6614
  860MOL0     C13450   3.063   2.903   7.459 -0.2274 -0.5054  0.3410
  860MOL0     C13451   3.169   2.976   7.391  0.2380 -0.0393 -0.1321
  860MOL0     C13452   3.273   3.026   7.361  0.6078 -0.6048 -0.0626
  860MOL0     C13453   2.583   3.353   7.272  0.2649  0.2403 -0.4658
  860MOL0     C13454   2.464   3.423   7.253  0.0646 -0.7029  0.2471
  860MOL0     H13455   2.131   3.711   7.047  0.2533 -0.8819  1.1379
  860MOL0     H13456   1.918   3.855   7.057 -1.0084 -0.4899 -0.5283
  860MOL0     H13457   1.697   4.008   7.312  1.2225  1.0491  0.4629
  860MOL0     H13458   1.775   3.893   7.428 -1.2877 -1.0352 -0.1107
  860MOL0     H13459   1.588   3.820   7.514 -2.7061  0.0891  0.6669
  860MOL0     H13460   1.519   3.790   7.364  1.7276 -1.5835  3.0382
  860MOL0     H13461   1.451   4.059   7.363  1.5367 -2.4210 -1.4405
  860MOL0     H13462   1.525   4.051   7.521  0.8941 -1.5271 -0.4670
  860MOL0     H13463   1.277   3.869   7.426  1.0975 -1.3499  0.8713
  860MOL0     H13464   1.350   3.864   7.573  2.5816  1.7755  1.3627
  860MOL0     H13465   1.227   4.130   7.488  0.3501 -0.6834 -0.7596
  860MOL0     H13466   1.280   4.085   7.650 -5.7032  1.4835  1.9916
  860MOL0     H13467   1.105   3.894   7.636 -0.5361 -0.0655  0.7480
  860MOL0     H13468   1.067   3.947   7.469 -0.3322 -2.0919  0.5407
  860MOL0     H13469   1.032   4.098   7.737  1.3108  3.6686  0.2798
  860MOL0     H13470   1.011   4.170   7.573 -1.0311 -1.6280 -2.3277
  860MOL0     H13471   0.846   3.949   7.710  0.7317 -0.4227  0.2757
  860MOL0     H13472   0.820   4.009   7.540 -0.6238 -0.1540  0.2337
  860MOL0     H13473   0.815   4.304   7.539 -0.9564 -0.6575 -0.4519
  860MOL0     H13474   0.536   4.464   7.596  1.0009 -2.9433 -0.7739
  860MOL0     H13475   0.699   4.512   7.572  4.0891 -0.3242  2.6913
  860MOL0     H13476   0.708   4.591   7.794  0.7271 -1.1348 -2.2719
  860MOL0     H13477   0.561   4.501   7.847 -0.4195 -1.3755 -0.2274
  860MOL0     H13478   0.575   4.740   7.648 -2.0902 -1.5104 -2.0520
  860MOL0     H13479   0.432   4.670   7.709 -0.0581 -0.5950 -1.7606
  860MOL0     H13480   0.472   4.857   7.844  0.6228  1.4369 -1.3491
  860MOL0     H13481   0.644   4.845   7.820 -0.8888 -0.1384 -1.0446
  860MOL0     H13482   0.768   4.747   8.131  0.1619  1.0086 -0.3299
  860MOL0     H13483   0.794   4.903   8.341  1.3122  2.0919 -1.3802
  860MOL0     H13484   0.390   5.390   8.482  0.8116 -1.7981  0.0779
  860MOL0     H13485   0.308   5.514   8.698 -2.2276 -0.3842  1.9605
  860MOL0     H13486   0.405   5.315   9.099 -1.0323  1.4396  2.0118
  860MOL0     H13487   0.252   5.269   9.007 -0.0572  0.6054  0.1075
  860MOL0     H13488   0.319   5.529   9.145  0.8109  0.1117 -2.7289
  860MOL0     H13489   0.203   5.410   9.226 -4.5860  2.5962 -1.1210
  860MOL0     H13490   0.051   5.404   9.036  0.2939 -1.4922  2.5396
  860MOL0     H13491   0.126   5.557   8.985 -2.0954  1.4092  0.3112
  860MOL0     H13492  -0.015   5.503   9.250  0.2153  0.6305 -0.4484
  860MOL0     H13493   0.059   5.656   9.204 -0.4585  1.2066 -0.5885
  860MOL0     H13494  -0.150   5.529   9.029  0.0177 -0.6332  0.3255
  860MOL0     H13495  -0.069   5.688   9.011  1.0892 -2.3312 -2.4335
  860MOL0     H13496  -0.185   5.751   9.247  1.8106  0.6281 -1.5528
  860MOL0     H13497  -0.241   5.582   9.240  2.5051 -1.8799  0.3838
  860MOL0     H13498  -0.382   5.798   9.152  1.0462  2.1920 -2.5602
  860MOL0     H13499  -0.317   5.730   8.997 -1.3755  0.6026  0.1793
  860MOL0     H13500  -0.442   5.562   9.223 -0.9156  0.0186  0.0210
  860MOL0     H13501  -0.447   5.510   9.051  1.5135 -0.1871  0.4537
  860MOL0     H13502   0.508   5.198   8.918 -0.7623  1.1511  1.7252
  860MOL0     H13503   0.570   5.090   8.713  0.8512  0.2862  0.0027
  860MOL0     H13504   0.396   5.041   8.283  1.9073  0.8123  1.0473
  860MOL0     H13505   0.366   4.889   8.110 -0.6669 -0.2501  2.2775
  860MOL0     H13506   1.810   3.642   7.411 -3.6154 -1.2357 -2.2337
  860MOL0     H13507   1.983   3.499   7.383 -1.7188 -0.1188  0.7660
  860MOL0     H13508   2.286   3.166   7.132 -0.5745  1.1857 -0.1384
  860MOL0     H13509   2.492   3.043   7.165  0.2810  0.0650 -0.8192
  860MOL0     H13510   2.712   2.983   7.165 -4.1834  0.6310  0.8833
  860MOL0     H13511   2.694   2.968   7.348  1.4719 -2.0483 -0.1684
  860MOL0     H13512   2.923   2.885   7.235  2.5510  0.4803 -1.4593
  860MOL0     H13513   2.952   3.056   7.242 -2.1715 -0.3629 -3.2307
  860MOL0     H13514   2.852   2.877   7.472 -0.4735 -1.0664 -3.0431
  860MOL0     H13515   2.911   3.047   7.486 -2.9204  0.0724 -1.5464
  860MOL0     H13516   3.080   2.918   7.566 -0.4203 -1.8215  0.5658
  860MOL0     H13517   3.073   2.795   7.448  0.9427 -0.2589 -1.5183
  860MOL0     H13518   3.371   3.068   7.358 -0.9792  3.5385 -0.8032
  860MOL0     H13519   2.670   3.404   7.312  2.0236  0.8264 -4.4935
  860MOL0     H13520   2.451   3.526   7.284 -0.3975 -0.5038 -0.5884
  861MOL0     O13521   0.815   3.712   0.538  0.3385 -0.1333 -0.1223
  861MOL0     C13522   0.840   3.780   0.436  1.0693  0.2333 -0.0154
  861MOL0     O13523   0.745   3.851   0.366  0.0251  0.6606 -0.0881
  861MOL0     C13524   0.626   3.886   0.416 -0.0195 -0.1081 -0.1994
  861MOL0     C13525   0.515   3.882   0.339 -0.3427  0.3077  0.3404
  861MOL0     C13526   0.390   3.927   0.381 -0.1080 -0.1975 -0.5856
  861MOL0     C13527   0.379   3.978   0.512 -0.7993 -0.4710  0.3133
  861MOL0     O13528   0.260   4.031   0.565  0.3667  0.1191  0.0352
  861MOL0     C13529   0.138   3.965   0.529  0.2395 -0.7080  0.3725
  861MOL0     C13530   0.032   3.994   0.631  0.0038 -0.3934 -0.3238
  861MOL0     C13531  -0.101   3.923   0.624  0.4014  0.2192 -0.0339
  861MOL0     C13532  -0.181   3.962   0.751 -0.7012  0.1644  0.2820
  861MOL0     C13533  -0.316   3.902   0.763  0.5784 -0.5530 -0.6203
  861MOL0     C13534  -0.400   3.914   0.639  0.5195  0.5331 -0.2327
  861MOL0     C13535  -0.543   3.875   0.649  0.9927 -0.0887 -0.2401
  861MOL0     C13536  -0.570   3.731   0.602  0.1754  0.4087  0.2056
  861MOL0     N13537  -0.697   3.674   0.638 -0.3832  0.0960  0.1818
  861MOL0     C13538  -0.779   3.612   0.546 -1.0439  0.5389 -0.9613
  861MOL0     C13539  -0.883   3.581   0.624 -0.0209  0.3303  0.5208
  861MOL0     C13540  -1.002   3.514   0.567  0.1517 -0.0989  0.6037
  861MOL0     C13541  -1.122   3.516   0.659  0.4227 -0.9556  0.0100
  861MOL0     C13542  -1.252   3.464   0.580  0.6132 -0.0851 -0.7206
  861MOL0     C13543  -1.375   3.455   0.671 -0.3818 -0.6419 -0.4455
  861MOL0     O13544  -1.476   3.422   0.584  0.0785  0.5107 -0.8327
  861MOL0     C13545  -1.596   3.374   0.636  0.2829  0.3219  0.4463
  861MOL0     C13546  -1.628   3.360   0.766  0.4976 -0.0430 -0.5242
  861MOL0     C13547  -1.753   3.309   0.806  0.0329  0.0616 -0.1450
  861MOL0     C13548  -1.842   3.258   0.711  0.3112 -1.0509 -0.3144
  861MOL0     C13549  -1.968   3.200   0.766 -0.1111  0.2160  0.5074
  861MOL0     O13550  -2.075   3.196   0.679 -0.2631  0.5965 -0.4537
  861MOL0     C13551  -2.197   3.156   0.714 -0.4257 -0.2564 -0.4199
  861MOL0     C13552  -2.288   3.164   0.613  0.4821  0.6456  0.4398
  861MOL0     C13553  -2.418   3.114   0.630 -0.4967  0.1687  0.0099
  861MOL0     C13554  -2.451   3.040   0.742  0.4883 -0.5060 -0.3231
  861MOL0     O13555  -2.577   2.982   0.762  0.0621  0.8491  0.1888
  861MOL0     C13556  -2.602   2.862   0.685  0.5838  0.4660 -0.6569
  861MOL0     C13557  -2.663   2.891   0.544  0.3435  0.0789  0.1559
  861MOL0     C13558  -2.774   3.007   0.547 -0.3341 -0.2605 -0.8004
  861MOL0     C13559  -2.874   2.977   0.664 -1.4227 -0.9267 -0.3026
  861MOL0     C13560  -2.959   2.855   0.645 -0.2333 -0.6828  0.1905
  861MOL0     C13561  -3.095   2.856   0.724  0.0298  0.5159  0.2409
  861MOL0     C13562  -3.181   2.736   0.689 -0.3206  0.3911 -1.2941
  861MOL0     C13563  -3.286   2.706   0.795  0.1584  0.2619 -0.8301
  861MOL0    Cl13564  -3.391   2.855   0.800  0.2352 -0.1404 -0.5991
  861MOL0     C13565  -2.364   3.035   0.848 -0.3021 -0.1173  0.5276
  861MOL0     C13566  -2.234   3.086   0.833 -0.7495  0.0750  0.2202
  861MOL0     O13567  -1.963   3.170   0.883 -0.5174 -0.1618  0.6504
  861MOL0     C13568  -1.814   3.272   0.577 -0.1910 -0.8396 -0.0057
  861MOL0     C13569  -1.689   3.330   0.541 -1.0800 -0.3466 -0.5256
  861MOL0     N13570  -0.865   3.623   0.757  0.8291  0.9137 -0.0311
  861MOL0     N13571  -0.758   3.682   0.757  0.4349  0.3768 -0.5858
  861MOL0     C13572   0.499   3.989   0.590  0.5838 -0.5080  0.5390
  861MOL0     C13573   0.616   3.938   0.540 -0.3010  0.3401  0.1300
  861MOL0     C13574   0.982   3.794   0.409 -0.1632 -1.3196  0.4029
  861MOL0     C13575   1.020   3.899   0.315  0.5595 -0.4134 -0.1454
  861MOL0     C13576   1.158   3.908   0.279  0.3560  0.2299 -0.0715
  861MOL0     C13577   1.254   3.828   0.344 -0.3384 -1.0724  1.1143
  861MOL0     O13578   1.388   3.833   0.311 -0.3959 -0.2331  0.1830
  861MOL0     C13579   1.441   3.948   0.262 -0.3308 -0.9446  0.2677
  861MOL0     C13580   1.596   3.952   0.258  0.3610  0.2430  0.6622
  861MOL0     C13581   1.639   3.965   0.409  1.5006  0.4992  0.1742
  861MOL0     C13582   1.795   3.965   0.407 -0.1425  0.1101 -0.2717
  861MOL0     C13583   1.848   4.086   0.338 -0.8380  0.7093 -0.1965
  861MOL0     C13584   1.889   4.187   0.273  0.6748 -0.5063  0.7042
  861MOL0     C13585   1.217   3.731   0.437  0.3267  0.3415  0.4842
  861MOL0     C13586   1.082   3.710   0.461 -0.1911 -0.5768 -0.7308
  861MOL0     H13587   0.526   3.839   0.241 -0.6668 -0.4980  0.6516
  861MOL0     H13588   0.308   3.905   0.313  1.8086 -1.3026 -2.6443
  861MOL0     H13589   0.165   3.859   0.531  3.9248  0.0519 -0.2566
  861MOL0     H13590   0.119   3.989   0.424 -0.0587 -2.3900  0.0108
  861MOL0     H13591   0.016   4.101   0.616  0.8765  0.2377  2.6859
  861MOL0     H13592   0.067   3.996   0.734 -2.2974  2.4817  0.5543
  861MOL0     H13593  -0.074   3.819   0.606 -1.6212  0.0372 -2.7081
  861MOL0     H13594  -0.152   3.962   0.535 -0.3706  0.6894  0.6002
  861MOL0     H13595  -0.129   3.938   0.844 -5.1108 -3.1861  2.2520
  861MOL0     H13596  -0.181   4.071   0.744  1.7387  0.2424  0.7548
  861MOL0     H13597  -0.367   3.964   0.837  5.0695  0.7933  1.6781
  861MOL0     H13598  -0.308   3.802   0.807 -0.0781 -0.2571  0.1997
  861MOL0     H13599  -0.349   3.840   0.575  0.9937 -3.0162  3.8125
  861MOL0     H13600  -0.382   4.016   0.604  0.9590  0.9918  1.2853
  861MOL0     H13601  -0.572   3.876   0.755 -4.0185 -5.0044 -1.1043
  861MOL0     H13602  -0.606   3.939   0.588  0.3284 -0.6056 -0.1125
  861MOL0     H13603  -0.496   3.661   0.643  0.8932  0.8106 -0.3713
  861MOL0     H13604  -0.577   3.734   0.493 -4.4621 -0.6475  0.2670
  861MOL0     H13605  -0.779   3.603   0.438 -1.1990  2.7188 -1.1938
  861MOL0     H13606  -0.987   3.408   0.544 -2.6720  0.0554 -2.7826
  861MOL0     H13607  -1.047   3.568   0.484 -0.8430 -0.9841  0.5585
  861MOL0     H13608  -1.138   3.619   0.691  1.6521 -1.4993  2.6004
  861MOL0     H13609  -1.109   3.465   0.754 -1.7043  0.4726  1.1713
  861MOL0     H13610  -1.275   3.537   0.502 -0.5435  0.8572  0.4624
  861MOL0     H13611  -1.235   3.363   0.540  1.4383 -0.5770  0.7870
  861MOL0     H13612  -1.392   3.554   0.716 -1.1992 -0.5702 -0.8861
  861MOL0     H13613  -1.360   3.376   0.744 -1.3699  0.1489  0.6527
  861MOL0     H13614  -1.561   3.394   0.845 -2.9980  2.9559  1.4541
  861MOL0     H13615  -1.761   3.300   0.914  1.5990  2.6342  0.2704
  861MOL0     H13616  -2.276   3.207   0.514 -0.5707 -0.2057 -0.0760
  861MOL0     H13617  -2.485   3.127   0.546 -0.0871  2.6285 -0.0256
  861MOL0     H13618  -2.651   2.796   0.758  1.6615  0.6801  0.2869
  861MOL0     H13619  -2.507   2.812   0.665 -0.0487 -2.4588  2.5552
  861MOL0     H13620  -2.706   2.798   0.506 -1.5579  1.0135 -0.1542
  861MOL0     H13621  -2.582   2.928   0.482  1.0007  0.4247  1.1975
  861MOL0     H13622  -2.820   3.019   0.448 -1.1153 -0.2522 -0.4378
  861MOL0     H13623  -2.725   3.103   0.567 -1.5648  0.0417  0.9400
  861MOL0     H13624  -2.828   2.959   0.761 -1.2169  2.6525  0.3829
  861MOL0     H13625  -2.928   3.069   0.688 -0.8236 -1.0892  1.8875
  861MOL0     H13626  -2.906   2.763   0.671 -1.1195 -1.8348 -1.8281
  861MOL0     H13627  -2.982   2.846   0.538  0.1636  1.7118 -0.1525
  861MOL0     H13628  -3.158   2.943   0.704  0.3423  0.4766 -1.0163
  861MOL0     H13629  -3.062   2.861   0.828  1.2709 -1.6398  0.0183
  861MOL0     H13630  -3.223   2.747   0.588 -1.2473  0.3360 -0.9269
  861MOL0     H13631  -3.105   2.658   0.685  2.2654  2.7552 -1.8875
  861MOL0     H13632  -3.235   2.692   0.890  0.9669  3.2192 -0.7443
  861MOL0     H13633  -3.341   2.614   0.771  0.9356 -0.0831 -1.3389
  861MOL0     H13634  -2.398   2.983   0.938 -0.9510  1.4272  1.2069
  861MOL0     H13635  -2.160   3.066   0.910  0.8107 -2.6514 -1.8251
  861MOL0     H13636  -1.869   3.232   0.494  3.2332 -4.2494 -0.9121
  861MOL0     H13637  -1.648   3.332   0.441 -1.0788  0.2333 -0.5210
  861MOL0     H13638   0.501   4.026   0.692  0.2284  0.5086  0.1899
  861MOL0     H13639   0.701   3.931   0.606 -2.0470  2.3545  2.8421
  861MOL0     H13640   0.947   3.970   0.278  0.3760  0.4629  1.7832
  861MOL0     H13641   1.169   3.989   0.208  0.5757 -0.4868 -0.8587
  861MOL0     H13642   1.405   4.038   0.312  0.7217 -0.1597 -0.3288
  861MOL0     H13643   1.412   3.965   0.158 -0.0780 -1.9702  0.0154
  861MOL0     H13644   1.633   3.854   0.228  0.5939  0.7892 -0.9381
  861MOL0     H13645   1.635   4.034   0.197  0.2248  0.3396  0.7040
  861MOL0     H13646   1.608   3.878   0.467 -2.1705  0.6748 -1.2273
  861MOL0     H13647   1.601   4.054   0.460 -1.0641 -0.2749 -0.2317
  861MOL0     H13648   1.831   3.981   0.509  2.2039  6.3662 -1.5881
  861MOL0     H13649   1.836   3.874   0.362 -2.7495 -0.7140 -1.1650
  861MOL0     H13650   1.919   4.276   0.223 -1.5171  1.7775  3.1599
  861MOL0     H13651   1.298   3.672   0.478 -0.2461 -0.8905 -0.1078
  861MOL0     H13652   1.056   3.629   0.529  0.6621 -1.5478 -1.5427
  862MOL0     O13653  10.814   4.455   9.624 -0.2977  0.4037  0.7101
  862MOL0     C13654  10.874   4.420   9.519 -0.4512  0.7946  0.2312
  862MOL0     O13655  10.812   4.365   9.409 -1.1439 -0.1475 -0.0592
  862MOL0     C13656  10.676   4.360   9.404  0.3127  0.5538  0.0447
  862MOL0     C13657  10.608   4.431   9.314 -0.2197 -0.6058 -0.1809
  862MOL0     C13658  10.472   4.421   9.283  0.3731  0.6721 -0.2884
  862MOL0     C13659  10.406   4.328   9.362 -0.0395  0.8231 -0.7431
  862MOL0     O13660  10.279   4.291   9.326 -0.8629 -0.1491  0.1958
  862MOL0     C13661  10.177   4.320   9.425 -0.1164  0.1615  0.1422
  862MOL0     C13662  10.038   4.287   9.374 -0.1757 -0.2775  0.5981
  862MOL0     C13663  10.032   4.132   9.347 -0.5606 -0.1693 -0.6988
  862MOL0     C13664   9.898   4.086   9.296  0.1757  0.4956 -0.1446
  862MOL0     C13665   9.792   4.084   9.403  0.8988 -0.4360 -0.0216
  862MOL0     C13666   9.660   4.080   9.335 -0.3068  0.4573  1.2293
  862MOL0     C13667   9.537   4.098   9.435  0.4183  0.3599  0.0980
  862MOL0     C13668   9.414   4.102   9.345 -0.0148 -0.2587 -0.8321
  862MOL0     N13669   9.285   4.101   9.421  0.1460 -0.6532  0.2251
  862MOL0     C13670   9.201   3.997   9.426  0.1199 -0.0718  0.1851
  862MOL0     C13671   9.084   4.057   9.485 -0.3717  0.1597  0.0827
  862MOL0     C13672   8.963   3.971   9.512  0.1305  0.0731 -0.4648
  862MOL0     C13673   8.854   3.962   9.404  0.8597  0.2608  0.3898
  862MOL0     C13674   8.794   4.099   9.348 -0.0284 -0.2946 -0.1625
  862MOL0     C13675   8.692   4.065   9.244  0.1754 -0.4232 -0.4639
  862MOL0     O13676   8.605   4.182   9.215  0.2874 -0.3619  0.1697
  862MOL0     C13677   8.488   4.142   9.166  0.3056 -0.0168  0.0507
  862MOL0     C13678   8.468   4.078   9.040 -0.0706 -0.0442  0.8529
  862MOL0     C13679   8.340   4.035   8.997  0.3948  0.5293  0.3804
  862MOL0     C13680   8.221   4.068   9.071 -0.6866  0.1290 -1.0602
  862MOL0     C13681   8.078   4.040   9.036  0.3114  0.0304 -0.7375
  862MOL0     O13682   8.055   4.035   8.905  0.5824 -0.2356 -0.1962
  862MOL0     C13683   7.929   4.003   8.866  0.5853 -0.3180 -1.0097
  862MOL0     C13684   7.888   3.872   8.844  0.5207  0.1834  0.5088
  862MOL0     C13685   7.748   3.846   8.811  0.7974  0.3904 -0.9876
  862MOL0     C13686   7.663   3.953   8.787  0.3567  0.4009  0.6818
  862MOL0     O13687   7.526   3.947   8.755 -0.3167 -0.3498 -0.0027
  862MOL0     C13688   7.444   3.837   8.809 -0.6116 -1.0551  0.4428
  862MOL0     C13689   7.322   3.840   8.726  0.8088  0.0219  0.8215
  862MOL0     C13690   7.223   3.955   8.775 -0.2659  0.2368 -0.4136
  862MOL0     C13691   7.188   3.948   8.926  0.7021 -0.0872  0.6648
  862MOL0     C13692   7.087   4.057   8.973 -0.3554 -0.1862 -0.0007
  862MOL0     C13693   7.037   4.033   9.109 -0.7213 -0.6127  0.0141
  862MOL0     C13694   6.927   4.142   9.146 -0.0001  0.2650 -0.7077
  862MOL0     C13695   6.890   4.132   9.298 -0.2479  0.1942  2.0356
  862MOL0    Cl13696   6.724   4.196   9.317 -0.2111 -0.1726 -0.4536
  862MOL0     C13697   7.714   4.082   8.799  0.1285 -0.1936 -0.3361
  862MOL0     C13698   7.836   4.108   8.849  0.3421  0.5737  0.4328
  862MOL0     O13699   7.988   4.034   9.125  0.2803 -0.2777 -0.0439
  862MOL0     C13700   8.247   4.136   9.193  0.1343  0.0278  0.2794
  862MOL0     C13701   8.376   4.167   9.241  0.6034  0.0273  0.2067
  862MOL0     N13702   9.104   4.196   9.492  0.0634 -0.6347  0.8383
  862MOL0     N13703   9.226   4.215   9.468 -0.7954  0.0233 -0.5463
  862MOL0     C13704  10.470   4.254   9.466 -0.9673  0.5125  1.3815
  862MOL0     C13705  10.604   4.270   9.486  0.9864  0.2177  0.1656
  862MOL0     C13706  11.019   4.440   9.532  0.3856  0.3803  0.1430
  862MOL0     C13707  11.094   4.383   9.434 -0.6076 -0.0843 -0.3147
  862MOL0     C13708  11.232   4.365   9.457  0.1599 -0.4171 -0.4564
  862MOL0     C13709  11.294   4.421   9.564 -0.7549 -0.7090  0.3093
  862MOL0     O13710  11.429   4.399   9.577  0.1308  0.2085 -0.2842
  862MOL0     C13711  11.501   4.430   9.701  0.7499  1.1615  0.6771
  862MOL0     C13712  11.639   4.370   9.668  0.0980  0.3822  0.4916
  862MOL0     C13713  11.697   4.456   9.550  0.0942  0.5206 -0.0083
  862MOL0     C13714  11.853   4.420   9.544 -0.1049 -0.8983 -0.4603
  862MOL0     C13715  11.904   4.492   9.425  0.4601  0.2335 -0.8200
  862MOL0     C13716  11.930   4.568   9.329 -0.0236 -0.1558  0.3486
  862MOL0     C13717  11.218   4.502   9.658 -0.7384  0.2980  0.7874
  862MOL0     C13718  11.080   4.514   9.633  0.9890  0.8607  0.2379
  862MOL0     H13719  10.669   4.487   9.244  1.6113 -3.6437 -1.2467
  862MOL0     H13720  10.419   4.477   9.207 -3.2525 -0.7795  0.9896
  862MOL0     H13721  10.176   4.427   9.450  2.0195  0.4285 -0.6581
  862MOL0     H13722  10.194   4.274   9.523  0.2362  3.0738  1.5711
  862MOL0     H13723  10.007   4.341   9.284  2.6066 -0.3590 -0.5025
  862MOL0     H13724   9.968   4.314   9.454  1.3437  2.3507  1.1917
  862MOL0     H13725  10.043   4.064   9.432 -3.3274 -2.1994 -1.8331
  862MOL0     H13726  10.112   4.115   9.273 -0.0603  3.9974 -1.3160
  862MOL0     H13727   9.874   4.161   9.220  2.9818  1.0748 -0.5706
  862MOL0     H13728   9.927   3.992   9.249  0.8378  0.0662  1.0969
  862MOL0     H13729   9.802   4.171   9.468  2.2738 -1.0863  0.6882
  862MOL0     H13730   9.812   3.999   9.470  0.0965  0.1158  0.9459
  862MOL0     H13731   9.645   3.980   9.294 -0.0331  0.6979  0.5301
  862MOL0     H13732   9.663   4.144   9.247 -1.2672 -1.6026 -0.3939
  862MOL0     H13733   9.541   4.022   9.513  1.2109  0.7174  0.4221
  862MOL0     H13734   9.546   4.197   9.481 -0.7314  0.1329  0.8520
  862MOL0     H13735   9.408   4.011   9.284  1.3658 -0.2047 -1.0638
  862MOL0     H13736   9.407   4.190   9.281 -1.9699  1.0887  1.0533
  862MOL0     H13737   9.212   3.893   9.397 -0.9723 -0.7802  2.1165
  862MOL0     H13738   8.911   3.993   9.606 -0.5277 -0.0595 -0.7947
  862MOL0     H13739   8.998   3.868   9.526 -1.2341 -0.5625 -1.5465
  862MOL0     H13740   8.774   3.898   9.443  0.5696  0.1334 -0.4082
  862MOL0     H13741   8.896   3.905   9.321  0.1174  0.2345  0.0218
  862MOL0     H13742   8.753   4.157   9.431  0.5861 -0.2591  0.1250
  862MOL0     H13743   8.876   4.164   9.316  0.5924  0.0386  1.9259
  862MOL0     H13744   8.624   3.986   9.276 -0.4998 -0.1474 -1.1809
  862MOL0     H13745   8.742   4.037   9.151 -0.3935  0.2806 -0.9899
  862MOL0     H13746   8.561   4.068   8.985 -0.1741  0.8894  0.4788
  862MOL0     H13747   8.320   3.983   8.904 -0.4375  5.5269 -2.6226
  862MOL0     H13748   7.962   3.793   8.848 -0.0769 -0.3246  2.6010
  862MOL0     H13749   7.711   3.746   8.793  0.4024  0.2882  0.2606
  862MOL0     H13750   7.415   3.850   8.913 -0.6021  0.4687  0.2877
  862MOL0     H13751   7.499   3.744   8.792 -0.7270 -1.3726  1.7190
  862MOL0     H13752   7.264   3.748   8.725 -1.2460  1.2620 -0.1825
  862MOL0     H13753   7.335   3.858   8.618 -0.3187 -5.1960 -0.4583
  862MOL0     H13754   7.133   3.928   8.719 -2.5775 -0.6473  3.3968
  862MOL0     H13755   7.254   4.058   8.756 -0.3310  0.6841  1.6786
  862MOL0     H13756   7.145   3.849   8.947  0.5631  0.0243  0.9051
  862MOL0     H13757   7.285   3.962   8.976  1.5690 -2.3286 -0.2338
  862MOL0     H13758   7.006   4.052   8.899 -1.3736 -0.4590  1.1012
  862MOL0     H13759   7.139   4.153   8.977  1.3106 -1.0909  1.0724
  862MOL0     H13760   7.120   4.057   9.177 -0.6045 -0.5344 -0.1573
  862MOL0     H13761   6.994   3.933   9.122 -3.8793  0.3751 -1.8983
  862MOL0     H13762   6.952   4.247   9.127  0.2551  0.2057 -0.6959
  862MOL0     H13763   6.840   4.115   9.085 -3.1035  2.8595  2.1380
  862MOL0     H13764   6.964   4.185   9.358 -0.4883 -1.1834  3.6199
  862MOL0     H13765   6.895   4.026   9.324 -0.8211 -1.1721 -2.4568
  862MOL0     H13766   7.643   4.163   8.784 -0.5736 -1.1057 -2.1890
  862MOL0     H13767   7.861   4.210   8.875  2.0551  0.9752 -2.3168
  862MOL0     H13768   8.172   4.154   9.268  1.5944  2.3005  1.2995
  862MOL0     H13769   8.385   4.204   9.342 -3.3636  2.0135  0.0154
  862MOL0     H13770  10.421   4.171   9.516  2.9785 -1.7477  1.9241
  862MOL0     H13771  10.663   4.213   9.557 -0.9995  0.8630  2.4615
  862MOL0     H13772  11.068   4.325   9.347  2.3963  0.2930 -1.5801
  862MOL0     H13773  11.284   4.307   9.382 -0.8138 -1.0413 -0.6656
  862MOL0     H13774  11.445   4.382   9.782  1.3959  2.3704  1.8902
  862MOL0     H13775  11.509   4.535   9.730 -1.8070  0.6593  3.7182
  862MOL0     H13776  11.693   4.378   9.763 -1.5430 -2.3128  1.7598
  862MOL0     H13777  11.635   4.262   9.651  2.5821  0.5075 -1.3841
  862MOL0     H13778  11.673   4.562   9.559 -1.2795  0.0795  2.3777
  862MOL0     H13779  11.653   4.409   9.462 -0.3552 -0.9305  0.9440
  862MOL0     H13780  11.907   4.444   9.635 -1.7765  0.8200  0.1518
  862MOL0     H13781  11.869   4.314   9.523  1.0403 -0.4119 -2.3625
  862MOL0     H13782  11.963   4.643   9.260 -1.0904  1.7904  1.8430
  862MOL0     H13783  11.257   4.547   9.748  2.1804  3.0460 -1.5826
  862MOL0     H13784  11.021   4.574   9.703  1.2118  0.4774  0.7610
  863MOL0     O13785   3.673   5.530   8.823 -0.3667  0.3785  0.2276
  863MOL0     C13786   3.698   5.633   8.764 -0.2347  0.5348  0.1965
  863MOL0     O13787   3.602   5.732   8.729 -0.1974  0.4743  0.1044
  863MOL0     C13788   3.474   5.689   8.743 -0.2912 -0.4523 -0.8153
  863MOL0     C13789   3.396   5.653   8.632  0.3207 -0.8832 -0.2067
  863MOL0     C13790   3.263   5.605   8.648 -0.0630 -0.0832 -0.2250
  863MOL0     C13791   3.214   5.581   8.777  0.9065  0.2756 -0.2398
  863MOL0     O13792   3.083   5.530   8.789 -0.7977 -0.3445  0.6940
  863MOL0     C13793   2.981   5.606   8.843  0.6132  0.1310 -0.6677
  863MOL0     C13794   2.953   5.716   8.738 -0.5647  0.0573 -0.1691
  863MOL0     C13795   2.801   5.728   8.704  1.1233  1.1870 -0.4394
  863MOL0     C13796   2.771   5.855   8.627  0.2741 -0.3682 -0.3328
  863MOL0     C13797   2.623   5.879   8.599  0.3586  0.0649 -0.0401
  863MOL0     C13798   2.601   5.999   8.509 -0.2449 -0.0896  0.4911
  863MOL0     C13799   2.444   6.020   8.473  0.0387 -0.4008  0.4920
  863MOL0     C13800   2.422   6.104   8.342 -0.0780 -0.5796  0.4793
  863MOL0     N13801   2.282   6.149   8.327  0.2653 -0.1316 -0.2376
  863MOL0     C13802   2.196   6.073   8.253  0.3100  0.0415 -0.6701
  863MOL0     C13803   2.089   6.148   8.257 -0.2529  0.6316  0.2660
  863MOL0     C13804   1.967   6.107   8.175 -0.4483  0.4748  0.0531
  863MOL0     C13805   1.886   5.996   8.244  0.2583 -0.0853  0.0074
  863MOL0     C13806   1.860   6.005   8.396 -0.0514 -0.2194 -0.3316
  863MOL0     C13807   1.752   5.904   8.436 -0.2858 -0.8363  0.7542
  863MOL0     O13808   1.803   5.775   8.468 -0.7303  0.8509 -0.0155
  863MOL0     C13809   1.806   5.735   8.601  0.0293 -0.3359 -0.0012
  863MOL0     C13810   1.776   5.601   8.630  0.0852 -0.1453 -0.9032
  863MOL0     C13811   1.786   5.555   8.762 -0.9978  0.1707  0.9764
  863MOL0     C13812   1.802   5.631   8.873  0.3261  0.1314  0.2889
  863MOL0     C13813   1.786   5.580   9.013  0.6150 -0.9140 -0.4530
  863MOL0     O13814   1.824   5.666   9.113  0.3652 -0.3362  0.0373
  863MOL0     C13815   1.843   5.634   9.248  0.1309 -0.5832 -0.7906
  863MOL0     C13816   1.865   5.507   9.298  0.5075 -0.5716  0.8788
  863MOL0     C13817   1.896   5.486   9.432 -0.7878  0.4895  0.1698
  863MOL0     C13818   1.901   5.598   9.521 -0.7400  0.0467  0.3846
  863MOL0     O13819   1.930   5.577   9.657  0.1352  0.8098 -0.8577
  863MOL0     C13820   2.000   5.684   9.726  0.7885 -0.2036 -1.1933
  863MOL0     C13821   1.886   5.735   9.823 -0.6196  0.1892  0.6167
  863MOL0     C13822   1.832   5.632   9.923  0.3657 -1.8206  0.2782
  863MOL0     C13823   1.929   5.559  10.017  0.4839  0.2570 -0.3018
  863MOL0     C13824   2.044   5.636  10.088  0.1289 -0.3693  0.0043
  863MOL0     C13825   2.122   5.534  10.168 -0.8161  0.1873  0.5039
  863MOL0     C13826   2.261   5.579  10.206 -0.0033 -0.5726 -0.4317
  863MOL0     C13827   2.325   5.470  10.282  0.4299 -0.4612  0.6613
  863MOL0    Cl13828   2.504   5.494  10.305 -0.2188 -0.0552  0.2108
  863MOL0     C13829   1.856   5.715   9.480 -0.4698 -0.7563 -0.6114
  863MOL0     C13830   1.830   5.738   9.340  0.3348 -1.0565 -0.1560
  863MOL0     O13831   1.745   5.464   9.027 -0.0462  0.0028  0.1673
  863MOL0     C13832   1.831   5.762   8.845 -0.2455 -0.6350 -0.0357
  863MOL0     C13833   1.837   5.818   8.715 -0.8130 -0.0101 -0.0151
  863MOL0     N13834   2.101   6.253   8.345 -0.5933 -0.0455  0.7898
  863MOL0     N13835   2.218   6.249   8.391 -0.6947  0.0638  0.1966
  863MOL0     C13836   3.299   5.612   8.891  0.8093 -0.0554  0.5719
  863MOL0     C13837   3.419   5.676   8.873 -0.4144 -0.1773  0.3320
  863MOL0     C13838   3.830   5.653   8.702 -0.1330  0.0461 -0.3159
  863MOL0     C13839   3.868   5.767   8.630 -1.2049  0.1220  0.2740
  863MOL0     C13840   3.993   5.785   8.558  1.2481  0.1456 -1.0775
  863MOL0     C13841   4.081   5.683   8.563 -0.4965 -0.6155  0.1547
  863MOL0     O13842   4.205   5.675   8.504  0.4368  0.1238 -0.4943
  863MOL0     C13843   4.245   5.787   8.421 -0.0819  0.2485 -0.2530
  863MOL0     C13844   4.378   5.751   8.350 -0.3480  0.9356 -0.1672
  863MOL0     C13845   4.462   5.877   8.307 -0.3711 -0.2219 -0.9140
  863MOL0     C13846   4.524   5.940   8.433  0.4831  0.0560  0.8024
  863MOL0     C13847   4.615   6.051   8.392  0.7832  0.2784 -0.2999
  863MOL0     C13848   4.696   6.130   8.355 -0.6007 -0.1164  0.6055
  863MOL0     C13849   4.050   5.575   8.639  0.0392  0.3662 -0.3952
  863MOL0     C13850   3.925   5.548   8.703  0.5312 -0.3497 -0.0098
  863MOL0     H13851   3.440   5.665   8.533 -1.6087  3.6902 -0.7747
  863MOL0     H13852   3.206   5.587   8.558  1.7130 -0.7873 -1.2634
  863MOL0     H13853   3.010   5.633   8.945  0.1386  0.1917 -0.5467
  863MOL0     H13854   2.893   5.541   8.848  2.1641 -2.4504 -3.3715
  863MOL0     H13855   3.007   5.691   8.645  1.4831  0.2036  0.9186
  863MOL0     H13856   3.003   5.810   8.763  0.8831 -0.5393 -0.7131
  863MOL0     H13857   2.749   5.733   8.800 -1.2641  1.4904 -1.6596
  863MOL0     H13858   2.768   5.638   8.650 -1.4095  2.0763 -0.5202
  863MOL0     H13859   2.796   5.951   8.673 -2.6221  1.7882 -2.8064
  863MOL0     H13860   2.819   5.839   8.529  2.0501  0.7713  0.3017
  863MOL0     H13861   2.580   5.893   8.699  1.3956  0.9974  0.2910
  863MOL0     H13862   2.569   5.792   8.561 -0.4493 -0.1123  1.4281
  863MOL0     H13863   2.661   5.997   8.417  2.3613  1.5091  2.0643
  863MOL0     H13864   2.638   6.091   8.554  0.7507 -1.3681  2.4304
  863MOL0     H13865   2.382   5.931   8.458 -0.4804 -0.2578  1.6266
  863MOL0     H13866   2.390   6.072   8.553 -0.5621  3.0235 -1.9102
  863MOL0     H13867   2.466   6.057   8.254 -1.1206  1.0972 -1.0134
  863MOL0     H13868   2.482   6.193   8.362 -1.2166  0.0505  1.2287
  863MOL0     H13869   2.223   5.988   8.191 -1.1405 -0.0392 -1.2186
  863MOL0     H13870   1.979   6.076   8.070 -4.4598  0.7914 -0.6557
  863MOL0     H13871   1.900   6.192   8.163 -1.1746  0.0856  1.1868
  863MOL0     H13872   1.918   5.895   8.219 -0.9555 -0.0547 -1.9188
  863MOL0     H13873   1.793   5.994   8.187  0.7484  0.7852 -0.8499
  863MOL0     H13874   1.952   5.986   8.453 -1.2034  0.6959  1.9327
  863MOL0     H13875   1.825   6.105   8.422  0.0614  0.0536 -1.2083
  863MOL0     H13876   1.675   5.890   8.359  0.1134  0.4685  0.0771
  863MOL0     H13877   1.698   5.949   8.519 -0.6040  1.7047 -0.7221
  863MOL0     H13878   1.749   5.528   8.554  0.5444 -0.5200 -0.7071
  863MOL0     H13879   1.772   5.449   8.779  2.3351 -0.3866  0.7592
  863MOL0     H13880   1.851   5.422   9.232 -3.9066  0.3895  0.2593
  863MOL0     H13881   1.936   5.393   9.471  2.6033  1.1618 -1.3636
  863MOL0     H13882   2.037   5.762   9.658  1.3145  1.5723  1.0170
  863MOL0     H13883   2.090   5.656   9.781  1.0969  1.4456 -0.8092
  863MOL0     H13884   1.802   5.764   9.759  1.6611  0.7018 -2.3747
  863MOL0     H13885   1.924   5.823   9.877  2.0111  1.4086 -2.8144
  863MOL0     H13886   1.773   5.556   9.873  0.4461 -1.0514 -1.0281
  863MOL0     H13887   1.773   5.696   9.990  0.4348 -1.5393  0.0729
  863MOL0     H13888   1.875   5.511  10.099 -0.8652  1.8254 -0.2171
  863MOL0     H13889   1.986   5.488   9.956  2.8032 -0.9056  2.9439
  863MOL0     H13890   2.020   5.703  10.171  0.1059 -2.2427  1.5797
  863MOL0     H13891   2.111   5.677  10.012 -0.8824  0.3322 -0.5257
  863MOL0     H13892   2.138   5.452  10.098  2.8698  1.7781 -0.7640
  863MOL0     H13893   2.063   5.509  10.257 -2.0655  1.9190  0.2394
  863MOL0     H13894   2.319   5.593  10.114 -1.3553  1.6598 -1.0149
  863MOL0     H13895   2.264   5.674  10.260  2.0216 -1.7811  1.7872
  863MOL0     H13896   2.315   5.379  10.222  0.2454 -1.9529  2.8700
  863MOL0     H13897   2.279   5.469  10.381  1.5864 -0.9248  1.2041
  863MOL0     H13898   1.848   5.801   9.546  1.3813 -0.2017 -1.0355
  863MOL0     H13899   1.793   5.833   9.302 -0.4077 -0.5218  1.7702
  863MOL0     H13900   1.843   5.832   8.927 -0.4018 -1.3526  0.6090
  863MOL0     H13901   1.862   5.920   8.689  1.2427 -0.8429 -1.5655
  863MOL0     H13902   3.270   5.590   8.993  2.9542  3.3962  2.1159
  863MOL0     H13903   3.474   5.717   8.958  1.7800  2.3118 -2.1166
  863MOL0     H13904   3.796   5.845   8.650 -2.3975 -0.5682 -1.1670
  863MOL0     H13905   4.025   5.876   8.508 -3.0545  2.1092 -0.6796
  863MOL0     H13906   4.262   5.869   8.492  1.7756 -0.8484  0.6612
  863MOL0     H13907   4.167   5.823   8.354 -0.1189  1.2163  0.2900
  863MOL0     H13908   4.435   5.681   8.412 -1.6386  0.1014  0.1154
  863MOL0     H13909   4.358   5.702   8.255 -0.5374  1.8173 -0.5957
  863MOL0     H13910   4.386   5.945   8.268 -1.7603  1.4174  3.9083
  863MOL0     H13911   4.541   5.862   8.233 -0.1060  3.4500 -1.6032
  863MOL0     H13912   4.438   5.975   8.491  0.0138 -1.1487  0.8643
  863MOL0     H13913   4.579   5.869   8.495  2.0496  1.2704  0.8864
  863MOL0     H13914   4.757   6.211   8.321 -1.6492  0.2480 -0.4423
  863MOL0     H13915   4.127   5.498   8.635  0.0716  0.2929  1.0417
  863MOL0     H13916   3.908   5.451   8.748  0.2533 -1.1492 -1.7639
  864MOL0     O13917   0.781   6.844   8.918 -0.2105 -0.1609  0.6011
  864MOL0     C13918   0.697   6.756   8.936 -0.0652  0.7638 -1.0816
  864MOL0     O13919   0.722   6.623   8.939  0.2314 -0.1282  0.1071
  864MOL0     C13920   0.853   6.587   8.920  1.0651  0.6046 -0.3459
  864MOL0     C13921   0.887   6.543   8.791 -0.3524  0.4853 -0.1407
  864MOL0     C13922   1.018   6.499   8.761  0.1371  0.9574  0.5436
  864MOL0     C13923   1.115   6.486   8.858  0.4082  0.1401  0.1865
  864MOL0     O13924   1.240   6.432   8.838  0.5063 -0.3383  0.0228
  864MOL0     C13925   1.268   6.374   8.706  0.2209 -0.9099 -0.0813
  864MOL0     C13926   1.405   6.318   8.712 -0.3837  1.5324 -0.3575
  864MOL0     C13927   1.428   6.212   8.826  0.5787 -0.8721 -0.2410
  864MOL0     C13928   1.554   6.126   8.812  0.0361 -0.5696 -0.0360
  864MOL0     C13929   1.576   6.046   8.938 -0.1254  0.6934 -0.1547
  864MOL0     C13930   1.481   5.925   8.941 -0.0753  0.6574 -0.2397
  864MOL0     C13931   1.494   5.837   9.070  0.0641  0.0306 -0.4205
  864MOL0     C13932   1.354   5.772   9.088  0.5881  0.4349 -0.4002
  864MOL0     N13933   1.355   5.655   9.181 -0.4339 -0.0601 -0.0275
  864MOL0     C13934   1.463   5.576   9.224 -0.7481 -0.3186  0.1975
  864MOL0     C13935   1.415   5.500   9.324  0.2108  0.3546  0.2804
  864MOL0     C13936   1.497   5.405   9.414  0.1373 -0.8533  0.6188
  864MOL0     C13937   1.511   5.442   9.565  1.1620  0.2313  0.9419
  864MOL0     C13938   1.486   5.592   9.594  0.3240  0.0583 -0.0995
  864MOL0     C13939   1.471   5.612   9.746  0.3978 -0.0128  0.3846
  864MOL0     O13940   1.461   5.745   9.797  0.1030  0.3898 -0.0825
  864MOL0     C13941   1.356   5.822   9.758  0.7492 -0.4531  0.4448
  864MOL0     C13942   1.236   5.787   9.687  0.3966  0.3634  0.0480
  864MOL0     C13943   1.137   5.888   9.645 -0.0559 -0.3119  0.4684
  864MOL0     C13944   1.154   6.020   9.676  0.4648 -0.4297 -0.1571
  864MOL0     C13945   1.062   6.128   9.626 -0.1835  0.3963 -0.3385
  864MOL0     O13946   0.991   6.114   9.500  0.2467 -0.0284 -0.6216
  864MOL0     C13947   0.895   6.208   9.478  0.1571  0.0505 -0.5674
  864MOL0     C13948   0.759   6.160   9.496 -0.0875  0.2526 -0.0476
  864MOL0     C13949   0.656   6.248   9.469 -0.3463  0.8770  0.2013
  864MOL0     C13950   0.680   6.373   9.418  0.3440  0.1384 -0.2334
  864MOL0     O13951   0.566   6.456   9.409 -0.3801  0.8103  0.3929
  864MOL0     C13952   0.580   6.592   9.365 -0.3745  0.4458 -0.3133
  864MOL0     C13953   0.445   6.627   9.308  0.5517 -0.5868  0.6137
  864MOL0     C13954   0.335   6.662   9.416 -0.7966 -0.2877  0.0328
  864MOL0     C13955   0.199   6.658   9.357  0.4982  0.5236 -0.0595
  864MOL0     C13956   0.092   6.682   9.465 -0.1831  0.8410  0.6738
  864MOL0     C13957  -0.049   6.695   9.411  0.3918 -0.2978  0.7218
  864MOL0     C13958  -0.097   6.576   9.340  0.2376  0.6552 -0.2859
  864MOL0     C13959  -0.250   6.574   9.334  0.6900  0.1349  0.1347
  864MOL0    Cl13960  -0.343   6.731   9.281  0.3672 -0.3436 -0.4927
  864MOL0     C13961   0.820   6.419   9.393  0.6375 -0.2537  0.6733
  864MOL0     C13962   0.922   6.331   9.435  0.2732 -0.8112  0.2994
  864MOL0     O13963   1.050   6.218   9.704 -0.1281  0.0532  0.1628
  864MOL0     C13964   1.266   6.058   9.753  1.1009  0.6660 -0.6259
  864MOL0     C13965   1.359   5.958   9.790 -0.5313  0.4986 -0.0626
  864MOL0     N13966   1.279   5.518   9.322 -0.2355  0.0886 -0.4386
  864MOL0     N13967   1.242   5.605   9.237  0.4801  0.4568 -0.0085
  864MOL0     C13968   1.075   6.526   8.987 -0.0171  0.9928 -0.2639
  864MOL0     C13969   0.952   6.581   9.024 -0.3524 -0.3240  0.6517
  864MOL0     C13970   0.550   6.802   8.933  0.4802 -0.8832  0.4419
  864MOL0     C13971   0.513   6.941   8.898  0.2771  0.3877  1.0034
  864MOL0     C13972   0.370   6.976   8.895 -0.3168 -0.6196 -0.5911
  864MOL0     C13973   0.271   6.880   8.926 -0.0731  0.1192  0.4561
  864MOL0     O13974   0.133   6.889   8.932  0.3118 -0.0277 -0.3306
  864MOL0     C13975   0.071   7.019   8.901 -0.3742  0.3045 -0.1773
  864MOL0     C13976  -0.058   7.032   8.972 -0.5303  0.2937  0.9693
  864MOL0     C13977  -0.035   7.019   9.126  0.0601 -0.5501  0.0177
  864MOL0     C13978  -0.162   6.998   9.212 -0.0802  0.4056  0.5406
  864MOL0     C13979  -0.269   7.095   9.192 -0.1308  0.4289  0.3232
  864MOL0     C13980  -0.354   7.174   9.171 -0.7133 -0.6025 -0.2169
  864MOL0     C13981   0.317   6.752   8.965 -0.0450 -0.0560  0.6424
  864MOL0     C13982   0.449   6.711   8.968 -0.7423 -0.1840 -0.5927
  864MOL0     H13983   0.807   6.554   8.718  0.4615 -2.2644 -1.5852
  864MOL0     H13984   1.035   6.475   8.656  1.8768 -1.2078  1.2552
  864MOL0     H13985   1.259   6.446   8.624  1.9428  0.3342  0.7494
  864MOL0     H13986   1.208   6.283   8.702  2.4581 -2.4303 -0.7214
  864MOL0     H13987   1.473   6.401   8.734 -1.3161  1.8928  1.3080
  864MOL0     H13988   1.411   6.265   8.616 -1.2077 -1.3317  1.0399
  864MOL0     H13989   1.342   6.145   8.829 -0.9755  1.0893  0.5379
  864MOL0     H13990   1.421   6.272   8.917  0.1279 -0.9301 -0.2345
  864MOL0     H13991   1.541   6.061   8.725  0.5266 -0.3892 -0.2479
  864MOL0     H13992   1.630   6.202   8.791 -1.0427  0.0617 -1.8806
  864MOL0     H13993   1.568   6.107   9.028  2.4930 -1.2134  1.5361
  864MOL0     H13994   1.680   6.012   8.935 -0.0799  0.7677  0.4649
  864MOL0     H13995   1.483   5.861   8.853 -2.1347 -2.0609  1.5388
  864MOL0     H13996   1.380   5.966   8.946  0.1751  1.2724 -0.0459
  864MOL0     H13997   1.577   5.769   9.051 -0.1059  0.1228 -1.5797
  864MOL0     H13998   1.514   5.899   9.158 -1.8977  1.2545 -0.7746
  864MOL0     H13999   1.310   5.737   8.995  1.5405 -1.9110 -0.0508
  864MOL0     H14000   1.289   5.845   9.136 -1.0410 -0.9677 -0.3548
  864MOL0     H14001   1.563   5.582   9.182 -0.9770  1.5449 -0.1888
  864MOL0     H14002   1.596   5.399   9.368  1.5340 -1.9581  3.5165
  864MOL0     H14003   1.468   5.301   9.395  1.1465 -1.4848  2.3494
  864MOL0     H14004   1.608   5.415   9.607  0.7607 -1.7743  0.6577
  864MOL0     H14005   1.446   5.378   9.627 -1.5180  1.3323 -0.5319
  864MOL0     H14006   1.579   5.640   9.563  0.7952 -1.3664 -0.9797
  864MOL0     H14007   1.407   5.637   9.534 -0.1974 -1.4111 -0.5541
  864MOL0     H14008   1.547   5.556   9.801  0.4953 -1.1084 -0.8304
  864MOL0     H14009   1.376   5.565   9.774 -1.6392  3.9567  0.8878
  864MOL0     H14010   1.211   5.685   9.663 -0.4183  0.9832 -1.9402
  864MOL0     H14011   1.045   5.876   9.589 -0.2920 -0.6606  0.9234
  864MOL0     H14012   0.741   6.055   9.517  4.9205 -0.5870  1.2812
  864MOL0     H14013   0.554   6.210   9.468 -0.3129  0.6462 -2.3615
  864MOL0     H14014   0.650   6.590   9.281 -0.2966 -1.9837 -0.2650
  864MOL0     H14015   0.626   6.656   9.441  1.0344 -0.4804 -0.3497
  864MOL0     H14016   0.412   6.547   9.241  0.1168 -0.2181  0.3833
  864MOL0     H14017   0.461   6.715   9.246  0.2009  0.0180  1.3648
  864MOL0     H14018   0.356   6.764   9.449  3.3915 -0.6879 -0.8290
  864MOL0     H14019   0.350   6.599   9.504  3.5044  0.4997  0.0799
  864MOL0     H14020   0.185   6.736   9.282 -5.1902  1.3916  1.4413
  864MOL0     H14021   0.179   6.566   9.302 -0.7198  0.9073 -0.2827
  864MOL0     H14022   0.117   6.769   9.528  3.7783  0.0887  0.3380
  864MOL0     H14023   0.090   6.593   9.529  2.0048  1.1867  1.2960
  864MOL0     H14024  -0.050   6.774   9.335 -0.9263 -1.6822 -0.7467
  864MOL0     H14025  -0.126   6.719   9.485 -2.4441 -2.5177 -1.2826
  864MOL0     H14026  -0.049   6.573   9.242  2.9757  1.3957  0.9413
  864MOL0     H14027  -0.061   6.481   9.381 -1.5454  0.4087  0.8410
  864MOL0     H14028  -0.288   6.557   9.435 -1.7799  2.2690 -0.2967
  864MOL0     H14029  -0.277   6.487   9.273 -2.7750  0.2626  1.2213
  864MOL0     H14030   0.842   6.521   9.366 -1.1826 -0.5565 -2.4869
  864MOL0     H14031   1.026   6.362   9.448  0.1926  0.8095 -2.2614
  864MOL0     H14032   1.290   6.163   9.762 -2.6702  1.4837  2.4785
  864MOL0     H14033   1.453   5.997   9.827 -1.8868  2.4392  1.5944
  864MOL0     H14034   1.141   6.503   9.071  0.2074  1.4679 -0.3111
  864MOL0     H14035   0.925   6.596   9.128 -1.2586  0.1562  0.3592
  864MOL0     H14036   0.591   7.014   8.883  0.0067  1.0102  2.4688
  864MOL0     H14037   0.332   7.078   8.887 -0.6348 -0.8700 -3.1198
  864MOL0     H14038   0.083   7.043   8.795 -0.6112  2.0587  0.1531
  864MOL0     H14039   0.137   7.093   8.947  1.9604 -1.7636 -0.0220
  864MOL0     H14040  -0.089   7.137   8.968 -1.5842 -0.0450 -0.4794
  864MOL0     H14041  -0.133   6.964   8.931  0.9827 -1.1560  0.4915
  864MOL0     H14042   0.007   7.112   9.165  0.6265 -0.4255 -0.8534
  864MOL0     H14043   0.029   6.938   9.159 -0.5758  0.1426  3.2873
  864MOL0     H14044  -0.202   6.897   9.198 -0.2910  0.4443  0.8470
  864MOL0     H14045  -0.137   6.989   9.318 -0.2976 -4.3289  0.3591
  864MOL0     H14046  -0.431   7.248   9.160  1.9313  2.5150  0.7820
  864MOL0     H14047   0.243   6.679   8.995 -1.0269  0.9891  0.7968
  864MOL0     H14048   0.472   6.608   8.995  2.7827  0.5222 -0.4164
  865MOL0     O14049   9.332   4.539   0.170  0.6943  0.0984 -0.9771
  865MOL0     C14050   9.315   4.557   0.295 -0.3911  0.8815 -0.1605
  865MOL0     O14051   9.195   4.574   0.358 -0.4262  0.4524 -0.1527
  865MOL0     C14052   9.070   4.559   0.304 -0.0499  0.3908  0.2123
  865MOL0     C14053   9.042   4.509   0.175  0.3569 -0.2270 -0.4306
  865MOL0     C14054   8.908   4.513   0.132  0.2048  0.1466 -0.6179
  865MOL0     C14055   8.807   4.564   0.208  0.0188  0.7890 -0.3509
  865MOL0     O14056   8.686   4.565   0.134  0.1593 -0.1237  0.0350
  865MOL0     C14057   8.558   4.572   0.195  0.4569 -0.3176 -0.2505
  865MOL0     C14058   8.555   4.450   0.284  0.1587  0.2532 -0.3027
  865MOL0     C14059   8.414   4.389   0.276  0.9832  0.3500  0.1898
  865MOL0     C14060   8.378   4.281   0.383 -0.1998  0.4110  0.0795
  865MOL0     C14061   8.238   4.208   0.354 -0.1226 -0.1792 -0.0638
  865MOL0     C14062   8.116   4.303   0.334 -0.3158  0.4570 -0.4582
  865MOL0     C14063   8.005   4.221   0.273 -1.1032 -0.3573  0.4281
  865MOL0     C14064   7.885   4.307   0.223 -0.7502 -0.3597 -0.1402
  865MOL0     N14065   7.765   4.233   0.258  0.0391 -0.3604  0.2781
  865MOL0     C14066   7.653   4.209   0.175 -1.4035  0.6233  1.0167
  865MOL0     C14067   7.567   4.160   0.266 -0.5960 -0.6141  0.5897
  865MOL0     C14068   7.424   4.124   0.223  0.7088 -0.5348  0.4752
  865MOL0     C14069   7.345   4.246   0.224 -0.3946 -1.6472  0.6448
  865MOL0     C14070   7.205   4.248   0.159 -0.0448 -0.3483 -0.0701
  865MOL0     C14071   7.123   4.128   0.168  0.2263 -0.3646 -0.0201
  865MOL0     O14072   7.008   4.150   0.246  0.5961  0.2448  0.3314
  865MOL0     C14073   6.911   4.053   0.226 -0.5346  0.5096  0.3219
  865MOL0     C14074   6.783   4.091   0.254 -0.4305  0.0980 -0.7054
  865MOL0     C14075   6.671   4.006   0.238 -0.4532 -0.4116  0.4760
  865MOL0     C14076   6.694   3.882   0.179 -0.2822  0.5318  0.2412
  865MOL0     C14077   6.580   3.795   0.141  0.2865 -0.5548  0.3444
  865MOL0     O14078   6.610   3.669   0.090 -0.3825 -0.1383  0.6711
  865MOL0     C14079   6.497   3.589   0.069 -0.8259  0.8816 -0.3573
  865MOL0     C14080   6.494   3.469   0.133  0.2003  0.1684 -0.1738
  865MOL0     C14081   6.378   3.388   0.122  0.4289  1.1211 -0.2312
  865MOL0     C14082   6.276   3.418   0.027 -1.0199 -0.1619  0.1234
  865MOL0     O14083   6.164   3.338   0.026  0.2784 -0.0368  0.1107
  865MOL0     C14084   6.056   3.377  -0.056 -0.8471 -0.7093  0.6411
  865MOL0     C14085   6.083   3.348  -0.208 -0.0551 -0.0710 -0.7841
  865MOL0     C14086   5.993   3.441  -0.303  0.5225  0.3810 -0.2912
  865MOL0     C14087   5.985   3.374  -0.434  0.2132 -0.1535  0.6865
  865MOL0     C14088   5.939   3.465  -0.544  0.3434 -0.7767 -0.0023
  865MOL0     C14089   5.899   3.401  -0.677 -0.5898  0.2981 -0.6931
  865MOL0     C14090   5.814   3.495  -0.768  0.5659 -1.0251 -0.0985
  865MOL0     C14091   5.724   3.414  -0.848  0.3831  1.4420  0.7707
  865MOL0    Cl14092   5.582   3.361  -0.740  0.1468 -0.5109 -0.0049
  865MOL0     C14093   6.307   3.521  -0.060  0.4685 -0.4249  0.5075
  865MOL0     C14094   6.419   3.605  -0.044  0.0043 -0.3092 -0.4929
  865MOL0     O14095   6.464   3.836   0.162  0.6122 -0.0221  0.2894
  865MOL0     C14096   6.827   3.838   0.148  0.6656 -0.3946  0.7144
  865MOL0     C14097   6.930   3.923   0.174  0.8049 -1.0535 -0.4239
  865MOL0     N14098   7.623   4.150   0.396  0.7196  0.3638  0.2883
  865MOL0     N14099   7.741   4.194   0.383 -0.5695 -0.2598 -0.4891
  865MOL0     C14100   8.837   4.586   0.346 -0.0351  0.1908 -0.0643
  865MOL0     C14101   8.965   4.582   0.395  0.3622  0.6012  0.5703
  865MOL0     C14102   9.429   4.579   0.387 -0.1556 -0.1620  0.2111
  865MOL0     C14103   9.411   4.629   0.520 -0.6027  0.3109  0.1969
  865MOL0     C14104   9.525   4.639   0.607  0.1794  0.0219 -0.0448
  865MOL0     C14105   9.656   4.615   0.561  0.4268  1.0731 -0.1151
  865MOL0     O14106   9.759   4.637   0.650  0.0803  0.0324 -0.4485
  865MOL0     C14107   9.889   4.606   0.616 -0.0401  0.5779  0.0680
  865MOL0     C14108   9.986   4.636   0.732  0.2009  0.4316  0.4254
  865MOL0     C14109   9.929   4.726   0.841  0.0436  0.6010 -0.0579
  865MOL0     C14110  10.019   4.732   0.959  0.0542  0.6004  0.4846
  865MOL0     C14111  10.138   4.808   0.933 -0.1689 -0.1806 -0.6630
  865MOL0     C14112  10.228   4.890   0.899  0.8117  0.3503 -0.5330
  865MOL0     C14113   9.671   4.560   0.433 -0.1051  0.2102  0.1806
  865MOL0     C14114   9.560   4.534   0.345  0.5372 -1.0063 -0.7565
  865MOL0     H14115   9.123   4.487   0.106  0.2058 -3.2293  0.1903
  865MOL0     H14116   8.877   4.480   0.033 -1.0551  1.1397 -0.5765
  865MOL0     H14117   8.479   4.559   0.121  0.2710 -0.7251  0.0130
  865MOL0     H14118   8.537   4.665   0.247 -0.8986  0.6792 -2.4643
  865MOL0     H14119   8.563   4.488   0.387  1.8626 -0.9040  0.0205
  865MOL0     H14120   8.624   4.368   0.262 -0.8116 -0.7941  0.4295
  865MOL0     H14121   8.396   4.359   0.173  0.3565  4.0534 -0.9073
  865MOL0     H14122   8.344   4.472   0.292 -0.4400 -0.6625 -0.5582
  865MOL0     H14123   8.459   4.209   0.371  0.0571  0.7433 -0.2275
  865MOL0     H14124   8.379   4.324   0.483 -0.8361  2.1637 -0.6322
  865MOL0     H14125   8.215   4.137   0.435 -2.8713 -1.0029 -1.4368
  865MOL0     H14126   8.245   4.158   0.257  0.8242 -0.0840 -0.0468
  865MOL0     H14127   8.149   4.389   0.275 -0.1365  1.4752  1.0809
  865MOL0     H14128   8.079   4.349   0.427  2.3105  0.8638  0.4605
  865MOL0     H14129   8.037   4.160   0.188  1.2955 -1.2102  1.8642
  865MOL0     H14130   7.978   4.145   0.347 -1.0563 -1.7562 -0.9195
  865MOL0     H14131   7.891   4.320   0.115  1.1969 -0.6370 -0.0976
  865MOL0     H14132   7.861   4.398   0.279 -4.0651 -0.6440 -0.8843
  865MOL0     H14133   7.632   4.223   0.070  1.9400 -0.7655  0.0169
  865MOL0     H14134   7.390   4.047   0.293  0.4268 -0.5576  0.3175
  865MOL0     H14135   7.423   4.073   0.127 -0.0162 -3.0831  1.7480
  865MOL0     H14136   7.400   4.333   0.186  2.9319 -3.5088  0.8460
  865MOL0     H14137   7.328   4.266   0.330  0.8814 -1.1515  0.7764
  865MOL0     H14138   7.156   4.334   0.206 -1.1416  1.5304 -4.1890
  865MOL0     H14139   7.220   4.291   0.059  2.1159 -1.7625 -0.4006
  865MOL0     H14140   7.180   4.054   0.224 -1.2750 -0.3053  1.6699
  865MOL0     H14141   7.100   4.097   0.065 -0.6426  1.5664 -0.4578
  865MOL0     H14142   6.770   4.194   0.287  1.0740  0.0706  0.0749
  865MOL0     H14143   6.573   4.044   0.264  0.1388  0.9245  0.8768
  865MOL0     H14144   6.562   3.445   0.214 -2.0989 -0.9057  1.5586
  865MOL0     H14145   6.371   3.300   0.186  1.1351  2.5893  1.9794
  865MOL0     H14146   6.027   3.481  -0.041  0.0670 -0.5671  1.5629
  865MOL0     H14147   5.970   3.313  -0.034  0.7648 -3.1916  0.1877
  865MOL0     H14148   6.079   3.241  -0.231  0.1157 -0.4471  0.7865
  865MOL0     H14149   6.184   3.379  -0.238 -1.0270  1.5236 -2.5493
  865MOL0     H14150   6.036   3.541  -0.309  0.5999  0.5881  2.3947
  865MOL0     H14151   5.890   3.456  -0.269  0.5561  2.9639 -1.0691
  865MOL0     H14152   6.087   3.341  -0.456  0.7193  0.8039  1.5301
  865MOL0     H14153   5.910   3.295  -0.423  0.5143 -0.4937  0.3284
  865MOL0     H14154   6.019   3.539  -0.553 -0.7761  0.2933 -1.9940
  865MOL0     H14155   5.852   3.516  -0.502  1.1464 -0.3112  1.1184
  865MOL0     H14156   5.839   3.311  -0.659  0.3466  0.1555  2.0891
  865MOL0     H14157   5.985   3.354  -0.724 -0.3877 -2.1565  1.8837
  865MOL0     H14158   5.751   3.554  -0.701  0.2902  0.2307 -1.4060
  865MOL0     H14159   5.879   3.563  -0.824  0.9961  0.3166  1.8954
  865MOL0     H14160   5.775   3.329  -0.894 -0.7373  0.8020  0.6762
  865MOL0     H14161   5.676   3.481  -0.919  3.9897  2.4595 -0.9610
  865MOL0     H14162   6.240   3.565  -0.134 -1.3008 -0.4755  1.9965
  865MOL0     H14163   6.439   3.674  -0.125  0.1360 -1.4276 -1.4419
  865MOL0     H14164   6.858   3.747   0.097 -2.5845 -1.1838 -0.1403
  865MOL0     H14165   7.028   3.892   0.141  1.2934 -0.3370  0.3408
  865MOL0     H14166   8.753   4.613   0.410  1.7381  2.8685  1.3420
  865MOL0     H14167   8.994   4.601   0.498  3.1955  1.2059 -0.2469
  865MOL0     H14168   9.323   4.681   0.556 -1.0635  0.4291 -1.0308
  865MOL0     H14169   9.505   4.702   0.693 -2.2451 -0.4123 -0.2279
  865MOL0     H14170   9.924   4.671   0.536 -1.4889  2.0687  0.5831
  865MOL0     H14171   9.885   4.502   0.584  0.2769  1.3299 -2.7143
  865MOL0     H14172  10.013   4.537   0.770  2.8284  0.3354 -1.3830
  865MOL0     H14173  10.075   4.672   0.680  1.5937 -1.7201  1.1677
  865MOL0     H14174   9.844   4.683   0.894 -0.1556  0.2882 -0.6231
  865MOL0     H14175   9.904   4.827   0.806  0.7706  0.3333 -1.4333
  865MOL0     H14176   9.964   4.771   1.045 -0.8186 -2.3303  1.3908
  865MOL0     H14177  10.052   4.631   0.984 -1.4644 -0.4906 -1.5917
  865MOL0     H14178  10.302   4.961   0.868  3.5881 -2.2598 -0.4676
  865MOL0     H14179   9.768   4.525   0.400  0.0337 -0.2271  1.0244
  865MOL0     H14180   9.580   4.501   0.244  0.8397 -2.5019 -0.2282
  866MOL0     O14181   5.206   1.824   2.477 -0.2085 -0.4055 -0.2181
  866MOL0     C14182   5.268   1.886   2.566 -0.3694 -1.1060 -0.1567
  866MOL0     O14183   5.405   1.890   2.595 -0.6934  0.1219 -0.3301
  866MOL0     C14184   5.510   1.836   2.520  0.6247 -0.5691 -0.4129
  866MOL0     C14185   5.492   1.790   2.380  0.0472  0.3262 -0.2756
  866MOL0     C14186   5.603   1.732   2.307 -0.3856  0.0265  0.4463
  866MOL0     C14187   5.731   1.725   2.362  0.6325  0.1647 -0.0693
  866MOL0     O14188   5.829   1.659   2.295 -0.1804  0.3117 -0.1734
  866MOL0     C14189   5.964   1.707   2.320  0.2324 -0.2146 -0.1632
  866MOL0     C14190   6.057   1.630   2.224 -1.3246  0.3467 -0.2250
  866MOL0     C14191   6.199   1.699   2.217 -0.4501  0.0553  0.3712
  866MOL0     C14192   6.203   1.836   2.142  0.2655  0.5140  0.6479
  866MOL0     C14193   6.337   1.883   2.096  0.4420  0.2467  0.3441
  866MOL0     C14194   6.433   1.892   2.209 -0.8953  0.1549 -0.2112
  866MOL0     C14195   6.538   2.011   2.184 -0.3473  0.5296 -0.0536
  866MOL0     C14196   6.642   2.010   2.297 -0.2559 -0.3360 -0.0904
  866MOL0     N14197   6.749   2.112   2.290 -0.4297  0.6210  0.0505
  866MOL0     C14198   6.790   2.174   2.174 -0.0884  0.1689 -0.1375
  866MOL0     C14199   6.892   2.254   2.214  0.2298  0.0016 -0.4764
  866MOL0     C14200   7.006   2.317   2.140  0.2950 -0.4263 -0.5482
  866MOL0     C14201   6.964   2.427   2.052 -0.1299  0.4032 -0.5190
  866MOL0     C14202   7.088   2.508   2.006 -0.3323  0.0551  0.3528
  866MOL0     C14203   7.065   2.636   1.918 -0.2399  0.3762  0.3237
  866MOL0     O14204   6.962   2.708   1.990  0.9500  0.0032  0.2374
  866MOL0     C14205   6.850   2.762   1.916  0.6143  0.5571 -0.9506
  866MOL0     C14206   6.782   2.862   1.982  0.7715 -0.6220 -0.3954
  866MOL0     C14207   6.665   2.920   1.923 -0.5918  0.2923 -0.0859
  866MOL0     C14208   6.607   2.867   1.808  0.5194 -0.1165  0.4242
  866MOL0     C14209   6.478   2.924   1.756 -0.5530 -0.5123 -0.1257
  866MOL0     O14210   6.441   2.874   1.636 -0.3328  0.6832 -0.1471
  866MOL0     C14211   6.325   2.916   1.584 -0.1251 -0.3748  0.4725
  866MOL0     C14212   6.279   3.048   1.586  0.7343  0.4399  0.3005
  866MOL0     C14213   6.160   3.077   1.519  0.0277  0.3508 -0.9040
  866MOL0     C14214   6.081   2.973   1.459 -0.5425 -0.0877  0.3002
  866MOL0     O14215   5.972   2.997   1.384 -0.5750  0.3167  0.7225
  866MOL0     C14216   5.900   3.112   1.424 -0.2016 -0.3005 -0.3525
  866MOL0     C14217   5.765   3.088   1.365  0.2136 -0.3222 -0.6336
  866MOL0     C14218   5.649   3.171   1.422 -0.0109  0.5238  0.8900
  866MOL0     C14219   5.524   3.098   1.367  0.4172  0.6400 -0.2227
  866MOL0     C14220   5.393   3.173   1.405 -0.4207 -0.1925 -0.4902
  866MOL0     C14221   5.269   3.088   1.379 -0.0384  0.1476  0.3686
  866MOL0     C14222   5.268   3.006   1.249 -0.3114  0.5908 -0.1074
  866MOL0     C14223   5.141   2.920   1.214 -0.4192 -0.1839  0.1209
  866MOL0    Cl14224   5.096   2.817   1.341 -0.4961  0.0706  0.3573
  866MOL0     C14225   6.130   2.841   1.465  0.4614 -0.0574  0.2769
  866MOL0     C14226   6.255   2.817   1.523  0.0176  0.8815  0.0019
  866MOL0     O14227   6.401   2.991   1.825  0.1413 -0.1726 -1.2255
  866MOL0     C14228   6.677   2.769   1.736 -0.3564  0.2091  0.2971
  866MOL0     C14229   6.798   2.718   1.795 -0.9955  0.1165  0.0006
  866MOL0     N14230   6.898   2.251   2.345 -0.0272  0.4363 -0.0160
  866MOL0     N14231   6.803   2.176   2.396 -0.1481  0.4865 -0.2607
  866MOL0     C14232   5.756   1.787   2.490  0.2532  0.2664  0.0750
  866MOL0     C14233   5.642   1.833   2.566 -0.6211 -0.0532  0.2443
  866MOL0     C14234   5.182   1.975   2.644  0.2988  0.6680 -0.4052
  866MOL0     C14235   5.231   2.038   2.767  0.1182 -0.0020 -0.8283
  866MOL0     C14236   5.147   2.109   2.849 -0.7437  0.1171 -0.3224
  866MOL0     C14237   5.006   2.124   2.815  0.1906 -0.2088 -0.8526
  866MOL0     O14238   4.922   2.194   2.900 -0.1687 -0.8436  0.1701
  866MOL0     C14239   4.965   2.254   3.024  0.0913 -0.5234  0.2759
  866MOL0     C14240   4.840   2.305   3.100 -0.0828  0.8001 -0.4563
  866MOL0     C14241   4.759   2.184   3.147  0.6115 -0.1724 -0.6025
  866MOL0     C14242   4.617   2.225   3.167 -0.1907  0.2920  0.7127
  866MOL0     C14243   4.551   2.138   3.274  0.1340 -0.0132  0.5161
  866MOL0     C14244   4.488   2.060   3.345  0.0982 -0.3796  0.1888
  866MOL0     C14245   4.957   2.082   2.685 -0.4263 -0.4258 -0.1861
  866MOL0     C14246   5.048   2.009   2.603 -0.2327 -0.0436 -0.2756
  866MOL0     H14247   5.391   1.794   2.340  0.5831  1.5588 -1.5563
  866MOL0     H14248   5.595   1.695   2.205 -5.0246 -2.4307  1.4092
  866MOL0     H14249   6.010   1.693   2.418 -0.1777  1.1295  0.2393
  866MOL0     H14250   5.960   1.815   2.303 -0.4718 -0.2218 -0.0575
  866MOL0     H14251   6.012   1.605   2.128 -0.1673  0.4812 -0.8282
  866MOL0     H14252   6.081   1.541   2.282 -1.7678  1.2340  1.3586
  866MOL0     H14253   6.270   1.626   2.178 -1.4575 -1.1348  0.7025
  866MOL0     H14254   6.233   1.720   2.319  1.0585 -0.6706  0.0459
  866MOL0     H14255   6.149   1.823   2.047  2.5776 -4.2974 -0.3156
  866MOL0     H14256   6.159   1.917   2.201 -1.0653  3.0361 -3.3282
  866MOL0     H14257   6.330   1.983   2.051  0.1669  0.8716  1.7428
  866MOL0     H14258   6.381   1.816   2.021 -2.2627  0.4016 -1.5371
  866MOL0     H14259   6.481   1.793   2.206 -1.9316 -0.3787  0.4179
  866MOL0     H14260   6.389   1.902   2.309 -1.6403  1.0427 -0.6193
  866MOL0     H14261   6.581   2.000   2.084  0.7627  0.5661  0.4074
  866MOL0     H14262   6.488   2.108   2.183  0.7187  1.1073  0.6368
  866MOL0     H14263   6.692   1.913   2.301  2.0505  0.7911 -0.5511
  866MOL0     H14264   6.587   2.027   2.391 -1.0722  0.9938 -0.7825
  866MOL0     H14265   6.775   2.149   2.070  0.2021  2.5768 -0.8077
  866MOL0     H14266   7.054   2.239   2.081 -0.5855 -1.3210 -0.0994
  866MOL0     H14267   7.069   2.348   2.224 -3.8260 -0.8896  3.0549
  866MOL0     H14268   6.898   2.490   2.111 -0.7017  0.4564 -1.2092
  866MOL0     H14269   6.917   2.388   1.961  0.4717  0.3188 -0.8004
  866MOL0     H14270   7.139   2.547   2.095 -0.7126  0.8731  0.2201
  866MOL0     H14271   7.162   2.453   1.947  0.4478  1.9189 -0.4897
  866MOL0     H14272   7.043   2.612   1.814 -2.6063  0.2234  0.7957
  866MOL0     H14273   7.154   2.695   1.940 -0.5051  0.2369  1.9551
  866MOL0     H14274   6.810   2.890   2.083 -0.6207 -0.5428 -0.0103
  866MOL0     H14275   6.620   2.998   1.983 -0.5070 -1.0322  1.8034
  866MOL0     H14276   6.335   3.122   1.642  0.4180 -0.0716  1.3121
  866MOL0     H14277   6.124   3.179   1.532 -2.1883 -0.6576  1.9323
  866MOL0     H14278   5.938   3.207   1.387 -0.4276 -0.6714 -1.5852
  866MOL0     H14279   5.895   3.112   1.533 -1.0036 -0.8963 -0.3821
  866MOL0     H14280   5.737   2.984   1.382 -1.7890  0.4447  1.3913
  866MOL0     H14281   5.776   3.109   1.259  0.3902  0.2789 -0.5025
  866MOL0     H14282   5.647   3.277   1.395 -0.8039 -0.3084 -2.9007
  866MOL0     H14283   5.651   3.152   1.530  0.3266 -2.9247  0.4031
  866MOL0     H14284   5.533   3.098   1.258  3.3267  0.9996 -0.0606
  866MOL0     H14285   5.523   2.992   1.393 -1.6575  0.3046 -1.4203
  866MOL0     H14286   5.391   3.267   1.349  0.8659 -0.4568 -1.0241
  866MOL0     H14287   5.404   3.198   1.511  2.0574 -0.4120 -0.6323
  866MOL0     H14288   5.187   3.158   1.363  1.1112  1.6445  0.7509
  866MOL0     H14289   5.255   3.024   1.467 -1.3880  1.2828  1.0068
  866MOL0     H14290   5.286   3.074   1.166  1.0491  1.5259  0.9173
  866MOL0     H14291   5.349   2.932   1.248  1.0322  2.0177 -1.0961
  866MOL0     H14292   5.159   2.858   1.126  0.2347 -1.6296  1.2305
  866MOL0     H14293   5.061   2.994   1.198 -0.6724 -0.6476 -0.8792
  866MOL0     H14294   6.095   2.757   1.407  0.9437  1.0248 -1.6841
  866MOL0     H14295   6.305   2.721   1.516 -2.9868 -1.0499  2.3091
  866MOL0     H14296   6.649   2.744   1.634  2.3720 -0.9607 -0.2556
  866MOL0     H14297   6.850   2.643   1.736  1.5661  0.2492  1.9195
  866MOL0     H14298   5.853   1.777   2.538  0.3430 -1.2381 -0.3649
  866MOL0     H14299   5.663   1.881   2.661 -1.9603 -0.2531  0.6624
  866MOL0     H14300   5.328   2.031   2.814  0.6047  2.7420 -1.2213
  866MOL0     H14301   5.196   2.139   2.941  0.9704  2.0525 -1.7889
  866MOL0     H14302   5.018   2.348   3.006 -2.3796  1.0570  0.7867
  866MOL0     H14303   5.012   2.177   3.086  0.5038 -0.0737  0.5247
  866MOL0     H14304   4.863   2.382   3.174 -0.6730 -0.5019  1.1253
  866MOL0     H14305   4.789   2.344   3.011 -1.7080 -1.3773 -0.5372
  866MOL0     H14306   4.812   2.161   3.240  1.2442 -1.0127 -1.1597
  866MOL0     H14307   4.766   2.098   3.080 -0.9372  2.1620 -4.0759
  866MOL0     H14308   4.608   2.332   3.189  1.9611  0.7583 -0.3953
  866MOL0     H14309   4.576   2.219   3.066  1.6592  0.9494 -0.1200
  866MOL0     H14310   4.428   1.989   3.399  0.9819 -3.1902 -2.2162
  866MOL0     H14311   4.859   2.116   2.654  0.0057  1.0134 -0.0681
  866MOL0     H14312   5.008   1.982   2.506 -1.8233  1.2975 -0.0419
  867MOL0     O14313   6.716   6.153   0.054  0.5142  0.2870 -0.0422
  867MOL0     C14314   6.772   6.080   0.135 -0.6998  0.3194 -0.1660
  867MOL0     O14315   6.717   6.026   0.243 -0.4823  0.5446 -0.0281
  867MOL0     C14316   6.584   6.043   0.273  0.0332 -0.0325  0.9276
  867MOL0     C14317   6.548   6.032   0.408  0.4489  0.1588 -0.7013
  867MOL0     C14318   6.417   6.030   0.449 -0.5378  0.9001 -0.9862
  867MOL0     C14319   6.315   6.032   0.354 -1.0768  0.4720  0.1092
  867MOL0     O14320   6.187   6.035   0.369  0.5680 -0.3613  0.2287
  867MOL0     C14321   6.128   6.070   0.499 -0.1101  0.7917  0.4881
  867MOL0     C14322   5.975   6.059   0.483  0.3642  0.4268 -0.6437
  867MOL0     C14323   5.904   6.146   0.594  0.5427  1.1513  0.9913
  867MOL0     C14324   5.758   6.094   0.628 -1.1642 -0.7171 -0.0084
  867MOL0     C14325   5.694   6.152   0.759 -0.0483 -0.5827  0.5644
  867MOL0     C14326   5.541   6.152   0.749  0.3257  0.5971 -1.6763
  867MOL0     C14327   5.475   6.006   0.729  0.5819  0.4526  0.2980
  867MOL0     C14328   5.334   5.995   0.787  0.7259  0.3666  0.2598
  867MOL0     N14329   5.245   6.101   0.722  0.3827  0.0467 -0.4964
  867MOL0     C14330   5.175   6.080   0.605  0.5046 -0.4413 -0.1135
  867MOL0     C14331   5.112   6.194   0.585  0.4324 -0.0454  0.0994
  867MOL0     C14332   5.033   6.226   0.468  0.1628 -0.0992 -0.0020
  867MOL0     C14333   4.898   6.286   0.489  0.1787 -0.0931  0.6984
  867MOL0     C14334   4.814   6.302   0.359 -1.0099  0.3018  0.4949
  867MOL0     C14335   4.852   6.430   0.276  0.3251 -0.2156 -0.5208
  867MOL0     O14336   4.743   6.467   0.184 -0.2572  0.6158  0.2996
  867MOL0     C14337   4.628   6.512   0.235  0.1700 -0.2335 -0.0261
  867MOL0     C14338   4.518   6.489   0.148  0.2215  0.0910  0.2462
  867MOL0     C14339   4.388   6.539   0.185 -0.2103  0.7829 -0.0941
  867MOL0     C14340   4.371   6.613   0.308 -0.5526  0.6208 -0.4029
  867MOL0     C14341   4.236   6.644   0.355 -0.3962 -0.7795 -0.3964
  867MOL0     O14342   4.129   6.591   0.282  0.4357 -0.0291  0.3571
  867MOL0     C14343   4.012   6.657   0.330  0.5050  0.2059  0.0039
  867MOL0     C14344   3.923   6.579   0.397 -0.2185 -0.2341 -0.8219
  867MOL0     C14345   3.791   6.628   0.419  0.1662 -1.1374 -0.0411
  867MOL0     C14346   3.760   6.759   0.390  0.3644  0.4964 -0.0271
  867MOL0     O14347   3.638   6.816   0.415 -0.4905 -0.9480  0.9030
  867MOL0     C14348   3.532   6.754   0.340  0.8010  0.0558 -0.3753
  867MOL0     C14349   3.393   6.775   0.411  0.0595  0.9188 -0.8348
  867MOL0     C14350   3.287   6.697   0.330 -0.0446 -0.0380  0.2402
  867MOL0     C14351   3.156   6.698   0.397 -0.7007  0.8248  0.0552
  867MOL0     C14352   3.037   6.615   0.334  0.0693  0.0190 -0.7125
  867MOL0     C14353   2.924   6.599   0.437 -0.0820 -0.5454 -0.2455
  867MOL0     C14354   2.840   6.727   0.461 -1.0855 -0.9709 -0.5410
  867MOL0     C14355   2.736   6.743   0.349  0.2924  1.2480  0.2372
  867MOL0    Cl14356   2.678   6.907   0.377  0.3190 -0.4054 -0.3729
  867MOL0     C14357   3.854   6.839   0.319  1.1079 -0.2748 -0.6202
  867MOL0     C14358   3.980   6.786   0.295  0.2406 -0.4883  0.3527
  867MOL0     O14359   4.232   6.706   0.463 -0.3850  0.8041 -0.1005
  867MOL0     C14360   4.488   6.634   0.387 -0.4851  0.6289 -0.0204
  867MOL0     C14361   4.616   6.592   0.348  0.3281  0.7926 -0.4222
  867MOL0     N14362   5.146   6.291   0.676 -0.4664  0.7082 -0.1369
  867MOL0     N14363   5.226   6.231   0.767  0.5309  0.1882  0.6773
  867MOL0     C14364   6.357   6.053   0.217  0.6247  0.5356 -1.5532
  867MOL0     C14365   6.488   6.056   0.178  0.5946 -0.1285  0.3056
  867MOL0     C14366   6.922   6.062   0.122 -0.2082 -0.7153 -0.3138
  867MOL0     C14367   7.006   6.006   0.226 -0.2061 -0.7108  0.4041
  867MOL0     C14368   7.147   6.002   0.210 -0.3079  0.1834 -0.8368
  867MOL0     C14369   7.209   6.036   0.097 -0.6440 -0.8016 -0.1570
  867MOL0     O14370   7.338   6.012   0.086 -0.5004 -0.3125 -0.7016
  867MOL0     C14371   7.419   6.081  -0.018 -0.0254 -0.0602 -0.3601
  867MOL0     C14372   7.561   6.022  -0.020 -0.3699 -0.1377 -0.8164
  867MOL0     C14373   7.655   6.115  -0.101 -0.1341 -0.7590  0.0953
  867MOL0     C14374   7.805   6.076  -0.119 -0.2229  0.8118 -0.5083
  867MOL0     C14375   7.817   5.940  -0.167  0.8229  0.3460 -0.4078
  867MOL0     C14376   7.829   5.827  -0.206  0.7502 -0.0950 -0.8993
  867MOL0     C14377   7.131   6.097  -0.003  0.0486  0.3466 -0.4793
  867MOL0     C14378   6.992   6.110   0.013 -0.5974 -0.0053 -0.3680
  867MOL0     H14379   6.625   6.014   0.483 -0.5345 -0.4296  0.1977
  867MOL0     H14380   6.400   6.019   0.556 -2.2552  0.3955 -1.2910
  867MOL0     H14381   6.159   6.173   0.523  0.5276  0.0864  2.9651
  867MOL0     H14382   6.160   6.005   0.580 -2.6026 -3.0294 -1.2932
  867MOL0     H14383   5.953   5.955   0.512  2.9754  0.7486  3.3273
  867MOL0     H14384   5.934   6.096   0.388  0.1172 -0.1297 -0.7588
  867MOL0     H14385   5.896   6.243   0.545  2.2654 -0.3732 -2.6581
  867MOL0     H14386   5.970   6.144   0.681  1.1957  1.9218  0.5274
  867MOL0     H14387   5.693   6.140   0.552  0.6718 -0.4604 -1.4857
  867MOL0     H14388   5.744   5.986   0.628  0.6593 -0.9759  0.8719
  867MOL0     H14389   5.725   6.254   0.784  1.7363 -1.3598  1.6888
  867MOL0     H14390   5.722   6.097   0.849  0.0035  1.5274  1.9030
  867MOL0     H14391   5.517   6.233   0.679  3.3907  2.1681 -1.0975
  867MOL0     H14392   5.508   6.183   0.848 -1.1663 -0.3302 -1.8588
  867MOL0     H14393   5.471   5.970   0.626 -1.1421 -0.1266  0.5445
  867MOL0     H14394   5.536   5.929   0.778  2.0551  0.3544 -1.5381
  867MOL0     H14395   5.338   6.001   0.897  1.3436 -0.2460  0.2796
  867MOL0     H14396   5.287   5.898   0.771  0.4481  0.6589 -0.7212
  867MOL0     H14397   5.184   5.987   0.551  1.9481 -0.3506 -0.0647
  867MOL0     H14398   5.014   6.132   0.416 -1.9938 -0.1628  0.8088
  867MOL0     H14399   5.094   6.290   0.404 -1.4854  1.5902  0.0402
  867MOL0     H14400   4.887   6.380   0.544 -2.5839  1.7692 -2.6697
  867MOL0     H14401   4.852   6.209   0.552  1.0863  0.8956  2.6649
  867MOL0     H14402   4.817   6.213   0.296 -0.1173  0.0969  0.8098
  867MOL0     H14403   4.711   6.318   0.389 -0.7878 -1.6077  2.5062
  867MOL0     H14404   4.938   6.407   0.212  1.3347 -0.3808  0.8659
  867MOL0     H14405   4.882   6.515   0.338 -0.5092  0.2287 -0.6981
  867MOL0     H14406   4.527   6.437   0.053  1.4295  2.8798 -1.3061
  867MOL0     H14407   4.316   6.519   0.106  2.7693 -1.1528 -2.5743
  867MOL0     H14408   3.940   6.476   0.428 -0.1589 -0.2551 -0.9263
  867MOL0     H14409   3.707   6.571   0.456 -0.0417 -0.2453  0.9306
  867MOL0     H14410   3.549   6.646   0.338 -0.1899 -0.1118 -0.1711
  867MOL0     H14411   3.532   6.796   0.239 -2.0418  0.4760 -0.2982
  867MOL0     H14412   3.377   6.882   0.429  1.2462  0.6663  2.4361
  867MOL0     H14413   3.401   6.728   0.510 -0.8455 -0.1099 -1.2380
  867MOL0     H14414   3.327   6.597   0.310 -0.9493  0.1031 -2.6712
  867MOL0     H14415   3.275   6.750   0.236 -2.9112  1.9908  1.6344
  867MOL0     H14416   3.173   6.664   0.500 -0.0411 -3.0472 -1.1584
  867MOL0     H14417   3.133   6.805   0.394  1.7706  1.4402  0.9857
  867MOL0     H14418   3.071   6.515   0.307  2.1465  0.6530 -0.6576
  867MOL0     H14419   3.002   6.666   0.243 -1.1129 -1.8385 -1.3691
  867MOL0     H14420   2.975   6.586   0.533 -0.4266 -0.8776 -0.1047
  867MOL0     H14421   2.850   6.520   0.418 -0.0077 -1.0036  1.2649
  867MOL0     H14422   2.787   6.724   0.557  3.2637 -1.9234  2.1036
  867MOL0     H14423   2.901   6.817   0.450 -0.0920 -1.8282 -2.6917
  867MOL0     H14424   2.668   6.659   0.366  2.4002 -0.5334  0.3337
  867MOL0     H14425   2.785   6.733   0.252  0.6494 -0.5689  0.5844
  867MOL0     H14426   3.839   6.940   0.283 -1.5238  0.6366  2.5464
  867MOL0     H14427   4.051   6.843   0.236 -1.4734  1.9248  0.4444
  867MOL0     H14428   4.482   6.684   0.483 -0.2968 -0.5026  0.5916
  867MOL0     H14429   4.706   6.614   0.405  1.9584  2.1601 -3.2804
  867MOL0     H14430   6.273   6.058   0.148 -2.2650  0.9492  1.7256
  867MOL0     H14431   6.504   6.076   0.072 -0.9830 -3.7052 -0.7648
  867MOL0     H14432   6.963   5.975   0.320 -1.5198  0.8766  0.3637
  867MOL0     H14433   7.205   5.955   0.289  0.8154  1.4474 -0.8564
  867MOL0     H14434   7.424   6.189  -0.002  3.8074  0.5882 -4.0828
  867MOL0     H14435   7.376   6.054  -0.115  0.5804 -1.4472 -0.2641
  867MOL0     H14436   7.589   6.020   0.086 -0.8178  2.4256 -0.5863
  867MOL0     H14437   7.566   5.920  -0.060  0.0839  0.1232 -1.4440
  867MOL0     H14438   7.660   6.214  -0.054 -2.4994  0.1636 -1.4294
  867MOL0     H14439   7.611   6.119  -0.201  1.6755  1.1229 -0.7114
  867MOL0     H14440   7.848   6.134  -0.202  2.7914 -1.0653 -0.4024
  867MOL0     H14441   7.868   6.090  -0.032  2.0038 -1.4784 -1.6149
  867MOL0     H14442   7.817   5.729  -0.247  0.0646 -0.1317 -0.6237
  867MOL0     H14443   7.174   6.146  -0.090 -0.4591  1.7448  0.0173
  867MOL0     H14444   6.944   6.174  -0.060 -1.0188 -0.9864 -0.9560
  868MOL0     O14445   7.851   4.485   2.513  0.3357 -0.6944 -0.5675
  868MOL0     C14446   7.792   4.551   2.434 -0.0714 -0.2557 -0.2598
  868MOL0     O14447   7.827   4.576   2.309 -0.6452  0.0991  0.2656
  868MOL0     C14448   7.934   4.503   2.266  0.4934 -0.3565  0.6869
  868MOL0     C14449   8.041   4.572   2.216 -0.5156  0.3221  0.2964
  868MOL0     C14450   8.159   4.511   2.175  0.2461 -0.1944  0.2816
  868MOL0     C14451   8.171   4.374   2.180  0.1243  0.8801 -0.0751
  868MOL0     O14452   8.279   4.313   2.127  0.3753  0.4324  0.1275
  868MOL0     C14453   8.391   4.346   2.214  0.2068  0.3588  0.0083
  868MOL0     C14454   8.430   4.237   2.324 -0.4281 -0.2285  0.3412
  868MOL0     C14455   8.439   4.281   2.471 -0.4673  0.3219  0.8074
  868MOL0     C14456   8.306   4.323   2.528 -0.6795 -0.2434  0.2576
  868MOL0     C14457   8.330   4.420   2.650  0.3830 -0.1004 -0.2342
  868MOL0     C14458   8.197   4.479   2.702  0.4083  0.4919  0.7007
  868MOL0     C14459   8.147   4.590   2.599  0.1977  0.2654 -0.2924
  868MOL0     C14460   8.037   4.675   2.666 -0.8226  0.5622 -0.1248
  868MOL0     N14461   7.995   4.796   2.586 -0.1503 -0.2225  0.7221
  868MOL0     C14462   7.934   4.909   2.643  0.3254 -0.3291  0.4083
  868MOL0     C14463   7.957   5.011   2.558 -0.2368 -0.2819 -0.1178
  868MOL0     C14464   7.933   5.156   2.579  0.2112 -0.9063  0.2106
  868MOL0     C14465   7.811   5.206   2.496 -0.1427 -0.4818 -0.1412
  868MOL0     C14466   7.858   5.235   2.358  0.2107  0.7318  0.2197
  868MOL0     C14467   7.741   5.292   2.291 -0.9202 -0.2018  0.4661
  868MOL0     O14468   7.632   5.206   2.261 -0.3636 -0.9991 -0.0352
  868MOL0     C14469   7.513   5.253   2.218 -0.0043  0.2754  0.7843
  868MOL0     C14470   7.429   5.154   2.169  0.0472 -0.4622  0.0627
  868MOL0     C14471   7.297   5.176   2.127  0.1735 -0.5796  0.1828
  868MOL0     C14472   7.245   5.305   2.137  0.6264 -0.9916 -0.0944
  868MOL0     C14473   7.109   5.335   2.086  0.3181 -0.1244 -0.3077
  868MOL0     O14474   7.077   5.466   2.081  0.0092  0.1129 -0.8793
  868MOL0     C14475   6.949   5.503   2.094 -0.1285 -0.4596  0.0794
  868MOL0     C14476   6.867   5.535   1.980 -0.4275 -0.9134 -0.7344
  868MOL0     C14477   6.732   5.559   1.997 -0.0829  0.1909 -0.2342
  868MOL0     C14478   6.676   5.559   2.127 -0.1704 -0.0595 -0.2934
  868MOL0     O14479   6.550   5.590   2.135 -0.3951  0.0254  0.5819
  868MOL0     C14480   6.508   5.681   2.238  0.0541 -0.0273 -0.1886
  868MOL0     C14481   6.400   5.767   2.184  0.3854 -0.1748 -0.3837
  868MOL0     C14482   6.266   5.692   2.170 -0.7366 -0.3579  0.1539
  868MOL0     C14483   6.144   5.787   2.156 -0.3753 -0.2330 -0.0479
  868MOL0     C14484   6.010   5.723   2.175  0.6569  0.6021  0.1300
  868MOL0     C14485   5.969   5.646   2.049  0.1767 -0.4374 -0.3423
  868MOL0     C14486   5.820   5.623   2.054 -0.0315  0.2979 -0.4660
  868MOL0     C14487   5.775   5.500   1.971  0.4193 -0.3619 -0.2462
  868MOL0    Cl14488   5.835   5.519   1.801  0.1170  0.5071 -0.3485
  868MOL0     C14489   6.757   5.537   2.244  0.5242 -0.3464  0.1240
  868MOL0     C14490   6.893   5.500   2.227 -0.3814 -0.4166  0.4371
  868MOL0     O14491   7.032   5.239   2.075  0.2764  0.1048 -0.3378
  868MOL0     C14492   7.327   5.407   2.199  0.0943 -0.0864 -0.7314
  868MOL0     C14493   7.460   5.376   2.228  0.0700 -0.9421  0.4870
  868MOL0     N14494   8.039   4.948   2.451  0.5156 -0.1988  0.2552
  868MOL0     N14495   8.042   4.820   2.464  0.5193 -0.3285 -0.1213
  868MOL0     C14496   8.064   4.296   2.225  0.1515 -0.6105 -0.3605
  868MOL0     C14497   7.943   4.362   2.267  0.4502  0.4906 -0.6312
  868MOL0     C14498   7.693   4.645   2.490 -0.0335  0.8467  0.1080
  868MOL0     C14499   7.606   4.610   2.598  0.3409  1.9515 -0.1443
  868MOL0     C14500   7.512   4.695   2.656 -0.5160 -1.1784  0.9336
  868MOL0     C14501   7.499   4.826   2.603 -0.0326 -0.2597 -0.1356
  868MOL0     O14502   7.433   4.926   2.661  0.2155  0.1750 -0.2529
  868MOL0     C14503   7.317   4.901   2.732 -0.6433 -0.2830 -0.3416
  868MOL0     C14504   7.198   4.858   2.655  0.3676 -0.1207 -0.1172
  868MOL0     C14505   7.075   4.847   2.741 -0.4300  0.8591  0.0024
  868MOL0     C14506   6.951   4.799   2.657 -0.9237  0.3820 -0.4724
  868MOL0     C14507   6.830   4.813   2.734  0.6186  0.6979 -0.9948
  868MOL0     C14508   6.714   4.821   2.779  0.3540  0.4406 -0.0073
  868MOL0     C14509   7.591   4.859   2.495 -0.0661 -0.8403 -1.0965
  868MOL0     C14510   7.671   4.769   2.433  0.3770 -0.1808 -0.9245
  868MOL0     H14511   8.038   4.680   2.210  2.2246  0.5361  1.1354
  868MOL0     H14512   8.246   4.557   2.130  0.3691  1.2958  1.9227
  868MOL0     H14513   8.375   4.439   2.269 -0.2529 -0.3489  1.1043
  868MOL0     H14514   8.475   4.356   2.146 -0.3898 -2.1502 -1.2186
  868MOL0     H14515   8.530   4.198   2.303 -1.3195 -1.7472 -1.3720
  868MOL0     H14516   8.353   4.159   2.319 -0.7293  0.1450 -1.6032
  868MOL0     H14517   8.500   4.372   2.479  1.2689 -0.7041 -0.0443
  868MOL0     H14518   8.485   4.207   2.537  0.2705  1.3259  1.4446
  868MOL0     H14519   8.242   4.373   2.454 -1.5231  0.8038  1.6538
  868MOL0     H14520   8.244   4.243   2.568  0.3535 -1.2863 -0.1357
  868MOL0     H14521   8.400   4.501   2.626 -0.0911  0.9748  1.8281
  868MOL0     H14522   8.369   4.352   2.726  0.2971  0.5257  0.3851
  868MOL0     H14523   8.209   4.516   2.805  0.3467  1.1472  0.4796
  868MOL0     H14524   8.125   4.398   2.711  0.7279 -0.3121 -2.7416
  868MOL0     H14525   8.233   4.652   2.572  1.5838 -1.6035 -0.3029
  868MOL0     H14526   8.113   4.544   2.506  2.7944 -0.7398 -0.8182
  868MOL0     H14527   8.059   4.713   2.766  2.7327 -1.3574 -0.0369
  868MOL0     H14528   7.946   4.615   2.671 -1.0487  0.9726  0.8531
  868MOL0     H14529   7.879   4.914   2.736 -0.7241  2.7620 -0.2639
  868MOL0     H14530   8.026   5.211   2.565  0.7741 -1.6508  0.9121
  868MOL0     H14531   7.907   5.179   2.683  3.6512  0.2686  0.9278
  868MOL0     H14532   7.780   5.294   2.553  1.8107 -1.0674  2.0011
  868MOL0     H14533   7.729   5.134   2.492  0.8549 -1.7502  1.1618
  868MOL0     H14534   7.945   5.302   2.360 -0.3720  1.7655 -3.1203
  868MOL0     H14535   7.877   5.138   2.311  0.1335  1.1789 -0.7611
  868MOL0     H14536   7.781   5.338   2.200  1.7298 -1.8461  0.6607
  868MOL0     H14537   7.698   5.363   2.362  0.8209 -0.7768  2.1985
  868MOL0     H14538   7.475   5.056   2.181 -2.1960 -1.8521 -1.8504
  868MOL0     H14539   7.243   5.094   2.081 -1.4678  1.3918 -1.6937
  868MOL0     H14540   6.912   5.518   1.883 -0.1031 -0.7754 -0.6104
  868MOL0     H14541   6.668   5.580   1.911 -0.3280  1.5075  0.2389
  868MOL0     H14542   6.594   5.742   2.266 -0.1398  0.8807 -1.4577
  868MOL0     H14543   6.466   5.627   2.323  1.8005 -0.3564  0.5191
  868MOL0     H14544   6.437   5.814   2.093  0.4798  1.5482  0.4981
  868MOL0     H14545   6.390   5.850   2.255  2.2699 -1.4825  1.5315
  868MOL0     H14546   6.247   5.645   2.267  0.0523  2.7204  1.9377
  868MOL0     H14547   6.268   5.621   2.086 -0.1887 -0.2990  0.1097
  868MOL0     H14548   6.146   5.855   2.242 -4.7966 -0.3583  0.3514
  868MOL0     H14549   6.162   5.848   2.066 -0.5731 -0.1562 -0.0352
  868MOL0     H14550   5.929   5.795   2.188 -0.6197 -0.1250 -2.8818
  868MOL0     H14551   6.011   5.651   2.258 -1.8173  1.2570  0.8038
  868MOL0     H14552   6.027   5.554   2.054  2.5418  0.8203 -2.5169
  868MOL0     H14553   5.995   5.710   1.964 -1.2375  1.9682  0.9265
  868MOL0     H14554   5.791   5.601   2.157 -2.8286 -1.1765 -1.4538
  868MOL0     H14555   5.770   5.715   2.023 -0.4604  0.8820  1.7865
  868MOL0     H14556   5.666   5.499   1.972  0.3910  0.4263  1.2458
  868MOL0     H14557   5.809   5.411   2.024  1.9434  1.2811  1.6890
  868MOL0     H14558   6.699   5.542   2.335 -1.7267  1.7360 -1.3213
  868MOL0     H14559   6.958   5.481   2.312  1.1936 -0.0037 -0.6261
  868MOL0     H14560   7.284   5.505   2.217  1.4005  0.1289  1.6718
  868MOL0     H14561   7.521   5.456   2.268 -0.2072 -2.2415  3.8028
  868MOL0     H14562   8.070   4.188   2.223 -0.3508 -0.6432 -2.4805
  868MOL0     H14563   7.866   4.299   2.311  1.4070  0.4060  1.0140
  868MOL0     H14564   7.617   4.508   2.635  2.0643  0.9078 -3.1267
  868MOL0     H14565   7.444   4.671   2.737 -1.7401  1.9576  1.0001
  868MOL0     H14566   7.297   4.999   2.777 -2.4976 -1.2497  1.0838
  868MOL0     H14567   7.327   4.841   2.822  0.9388  1.7771  0.9500
  868MOL0     H14568   7.168   4.923   2.572  1.1596  2.8814  1.7812
  868MOL0     H14569   7.220   4.763   2.606 -2.0951 -1.1041  0.5240
  868MOL0     H14570   7.050   4.936   2.800  2.8812  2.7737 -1.2077
  868MOL0     H14571   7.101   4.767   2.811  0.5627  1.4029  0.2704
  868MOL0     H14572   6.937   4.868   2.573 -3.2665  1.2516  0.5656
  868MOL0     H14573   6.954   4.694   2.626 -1.6652  0.0682  0.5084
  868MOL0     H14574   6.609   4.826   2.804 -0.1239 -5.3633  0.4170
  868MOL0     H14575   7.590   4.963   2.462  1.1646 -0.2464  0.5807
  868MOL0     H14576   7.731   4.803   2.350 -1.2207  3.8425 -0.6974
  869MOL0     O14577  10.384  11.134   8.814  0.2577  0.5706 -0.5221
  869MOL0     C14578  10.472  11.106   8.892 -0.8521 -0.1061  0.4683
  869MOL0     O14579  10.454  11.086   9.021  1.1035 -0.0759 -0.6005
  869MOL0     C14580  10.322  11.107   9.078 -0.6921  0.1765  0.0107
  869MOL0     C14581  10.309  11.198   9.186  0.4772  0.3167 -0.3619
  869MOL0     C14582  10.190  11.227   9.243  0.4984  0.2417 -0.7438
  869MOL0     C14583  10.076  11.151   9.213  0.5126  0.0841  0.2633
  869MOL0     O14584   9.963  11.173   9.292  0.4603  0.1669  0.5674
  869MOL0     C14585   9.838  11.123   9.240  0.8234 -0.4194 -0.0438
  869MOL0     C14586   9.722  11.210   9.290  0.3508 -1.1136  0.2455
  869MOL0     C14587   9.596  11.173   9.204  0.2252  0.0866 -0.7390
  869MOL0     C14588   9.486  11.268   9.233  0.5503 -1.0169  0.3542
  869MOL0     C14589   9.365  11.246   9.147 -0.0022  0.4121  0.0826
  869MOL0     C14590   9.269  11.356   9.177  1.1978 -0.2382 -0.7664
  869MOL0     C14591   9.144  11.339   9.095 -0.0623  0.0709 -0.0587
  869MOL0     C14592   9.074  11.471   9.093  0.7001 -0.4479 -0.3247
  869MOL0     N14593   8.937  11.463   9.044  0.2732  0.3136  0.2151
  869MOL0     C14594   8.837  11.377   9.082  0.1527  0.0820 -0.0281
  869MOL0     C14595   8.731  11.399   9.001  0.6575  0.5590 -0.0149
  869MOL0     C14596   8.597  11.336   9.020  0.6397  0.3740  0.1020
  869MOL0     C14597   8.482  11.427   9.057  0.3003 -0.6011 -0.8372
  869MOL0     C14598   8.420  11.464   8.927  0.5748  0.3215  0.4487
  869MOL0     C14599   8.305  11.565   8.945 -0.2573  0.0708 -0.8721
  869MOL0     O14600   8.190  11.501   9.002 -0.0257  0.2073 -0.8176
  869MOL0     C14601   8.061  11.547   8.986  0.5185  1.4187 -0.6022
  869MOL0     C14602   7.955  11.460   9.007 -0.4025 -0.0997  0.2613
  869MOL0     C14603   7.822  11.507   8.991  0.0873  0.3813 -0.1440
  869MOL0     C14604   7.796  11.639   8.943 -0.0782 -0.2636  0.2030
  869MOL0     C14605   7.653  11.678   8.922 -0.2069 -0.8428 -0.5829
  869MOL0     O14606   7.559  11.602   8.993  0.8646  0.4632  0.6934
  869MOL0     C14607   7.426  11.644   8.986  0.2227  0.5616  0.1227
  869MOL0     C14608   7.325  11.569   8.924  0.0450 -0.0872  0.5797
  869MOL0     C14609   7.189  11.612   8.925 -0.4167  0.6557 -0.4535
  869MOL0     C14610   7.158  11.725   8.999  0.3493 -0.3011 -0.6983
  869MOL0     O14611   7.037  11.779   9.037  0.6717 -0.2375  0.4937
  869MOL0     C14612   6.926  11.723   8.975 -0.1356 -0.1606  0.3509
  869MOL0     C14613   6.810  11.755   9.068  0.0912 -0.0523  1.4660
  869MOL0     C14614   6.682  11.702   9.000 -0.5499  0.0205  0.1002
  869MOL0     C14615   6.549  11.761   9.057 -0.3824  0.4703 -0.2597
  869MOL0     C14616   6.446  11.692   8.975 -0.7797  0.2677 -0.0084
  869MOL0     C14617   6.315  11.765   8.966 -0.2036 -0.5905  0.2347
  869MOL0     C14618   6.249  11.810   9.094 -0.3946  0.1301  0.5746
  869MOL0     C14619   6.168  11.936   9.083  0.2056 -0.0623  0.1530
  869MOL0    Cl14620   6.043  11.937   8.955 -0.3639  0.1801  0.1761
  869MOL0     C14621   7.255  11.805   9.046 -0.0797 -0.0805 -0.0701
  869MOL0     C14622   7.388  11.767   9.038  0.0972 -0.4356  1.1350
  869MOL0     O14623   7.630  11.763   8.837 -0.1334 -0.3017 -0.1332
  869MOL0     C14624   7.899  11.723   8.912  0.9737 -1.2408  0.0873
  869MOL0     C14625   8.028  11.674   8.932  0.3458 -0.7881 -0.6411
  869MOL0     N14626   8.780  11.491   8.915  0.8514  0.6712  0.0758
  869MOL0     N14627   8.891  11.531   8.942 -0.3490  0.3155  0.9306
  869MOL0     C14628  10.085  11.059   9.100 -0.1142  0.1009  0.1262
  869MOL0     C14629  10.205  11.049   9.027 -0.4919 -0.0022  0.4380
  869MOL0     C14630  10.617  11.110   8.855  0.3951  0.3145 -0.7445
  869MOL0     C14631  10.666  11.111   8.724 -0.1106 -0.0397 -0.2696
  869MOL0     C14632  10.805  11.114   8.694  0.5942 -1.1233  1.1423
  869MOL0     C14633  10.896  11.112   8.795  0.8004  1.0268  0.5074
  869MOL0     O14634  11.022  11.102   8.750 -0.3268  0.1371  0.5714
  869MOL0     C14635  11.133  11.136   8.823 -1.4172  0.1886  0.0169
  869MOL0     C14636  11.263  11.043   8.803  0.5363 -0.3389  0.5235
  869MOL0     C14637  11.231  10.904   8.850  0.3972 -0.2307 -0.4904
  869MOL0     C14638  11.357  10.821   8.861  0.3153  0.7184  0.8023
  869MOL0     C14639  11.454  10.856   8.965  0.0841 -1.0994  0.3602
  869MOL0     C14640  11.530  10.895   9.052 -0.0416  0.3699 -1.2160
  869MOL0     C14641  10.852  11.122   8.930 -0.1859 -0.0608  0.4031
  869MOL0     C14642  10.711  11.124   8.961 -1.0377 -0.6416 -0.5703
  869MOL0     H14643  10.405  11.248   9.201  0.0659  0.4732  2.2184
  869MOL0     H14644  10.170  11.300   9.322 -2.3381 -0.9493 -0.2174
  869MOL0     H14645   9.819  11.019   9.268  0.0063 -0.5324 -0.9484
  869MOL0     H14646   9.837  11.124   9.131 -0.1919 -1.2841 -0.0549
  869MOL0     H14647   9.751  11.311   9.259  1.8152 -1.9775 -1.3470
  869MOL0     H14648   9.696  11.198   9.396 -2.1832 -1.3498 -0.3366
  869MOL0     H14649   9.561  11.072   9.229 -3.5255  1.4561  0.2709
  869MOL0     H14650   9.634  11.175   9.102 -0.4204 -1.9385 -1.0702
  869MOL0     H14651   9.464  11.253   9.339  1.0166  0.3416  0.6602
  869MOL0     H14652   9.513  11.373   9.216  4.7552 -2.3483 -3.5599
  869MOL0     H14653   9.323  11.146   9.159  0.5403 -0.1104 -2.0439
  869MOL0     H14654   9.407  11.254   9.047  1.4213 -0.7695  0.5389
  869MOL0     H14655   9.325  11.448   9.158 -0.4676  1.2003  0.8777
  869MOL0     H14656   9.243  11.356   9.283  0.3848  0.6408 -0.9461
  869MOL0     H14657   9.176  11.318   8.993  0.8016  0.6916  0.0637
  869MOL0     H14658   9.078  11.259   9.128 -0.8798 -0.0517 -1.9199
  869MOL0     H14659   9.135  11.551   9.050 -1.9650  3.0480  1.8311
  869MOL0     H14660   9.062  11.509   9.195  3.4728  0.7423 -0.3392
  869MOL0     H14661   8.848  11.305   9.162  0.2084  0.4201  0.2749
  869MOL0     H14662   8.601  11.274   9.109  1.9480  0.7800  0.3409
  869MOL0     H14663   8.584  11.266   8.937  2.5634 -1.0217  0.9110
  869MOL0     H14664   8.515  11.521   9.101 -1.9115  0.3798 -1.1448
  869MOL0     H14665   8.418  11.381   9.133 -0.6879  2.6642  0.4731
  869MOL0     H14666   8.496  11.509   8.863  1.3562  0.0581  1.1777
  869MOL0     H14667   8.380  11.376   8.875 -2.7727  0.1751  2.9103
  869MOL0     H14668   8.286  11.608   8.847  1.0516 -0.7542 -1.5167
  869MOL0     H14669   8.344  11.642   9.013 -0.3501  1.1033 -1.9550
  869MOL0     H14670   7.974  11.361   9.047  1.1566 -0.9362 -2.3009
  869MOL0     H14671   7.752  11.429   9.017 -0.4346  0.2906 -1.7447
  869MOL0     H14672   7.356  11.474   8.883  0.4805 -0.1373  1.0068
  869MOL0     H14673   7.121  11.541   8.879  0.4497  1.2004 -2.6778
  869MOL0     H14674   6.923  11.614   8.965 -0.4248 -0.0049 -1.5985
  869MOL0     H14675   6.913  11.772   8.878  2.5470 -1.8893 -1.0164
  869MOL0     H14676   6.806  11.864   9.073  0.3495  0.0957 -0.5505
  869MOL0     H14677   6.828  11.703   9.163  2.0944 -2.5310 -0.1278
  869MOL0     H14678   6.681  11.593   8.989  0.5957  0.1397 -1.5919
  869MOL0     H14679   6.688  11.731   8.894 -2.8454  1.4273  0.2794
  869MOL0     H14680   6.539  11.754   9.166 -1.8314  1.6297 -0.2874
  869MOL0     H14681   6.549  11.870   9.046  2.2565  1.1521  4.0953
  869MOL0     H14682   6.432  11.594   9.021  0.6137 -1.6702 -3.3383
  869MOL0     H14683   6.481  11.662   8.876 -0.5910 -0.3165  0.2290
  869MOL0     H14684   6.251  11.702   8.904 -0.2715 -0.0701 -0.2338
  869MOL0     H14685   6.326  11.856   8.906  3.7521  2.6042  5.0114
  869MOL0     H14686   6.184  11.734   9.137  0.9214 -0.4409  1.6065
  869MOL0     H14687   6.334  11.827   9.161  1.5075  0.5161 -1.7589
  869MOL0     H14688   6.242  12.010   9.050  0.2718 -0.9896 -1.9226
  869MOL0     H14689   6.129  11.964   9.181  1.0013  0.9863  0.1965
  869MOL0     H14690   7.224  11.894   9.100 -0.3678 -1.7722  2.7869
  869MOL0     H14691   7.460  11.829   9.091 -0.2590 -0.4961  1.6993
  869MOL0     H14692   7.882  11.825   8.879 -1.3578 -2.0064 -1.3219
  869MOL0     H14693   8.114  11.740   8.922  0.0961  0.2313  2.8637
  869MOL0     H14694   9.998  11.009   9.061 -1.3236  1.6043  0.7648
  869MOL0     H14695  10.204  10.982   8.942 -2.1577 -3.1146  2.6639
  869MOL0     H14696  10.591  11.105   8.646 -1.4298  0.3876  0.9492
  869MOL0     H14697  10.836  11.110   8.590  0.8614  1.4038  1.0469
  869MOL0     H14698  11.113  11.131   8.930  2.4823 -0.0972  0.8847
  869MOL0     H14699  11.156  11.240   8.797 -0.8130  0.0742  0.0847
  869MOL0     H14700  11.292  11.049   8.698  0.3209 -1.1924  0.4072
  869MOL0     H14701  11.352  11.075   8.858  1.1785 -2.0681  0.5333
  869MOL0     H14702  11.156  10.863   8.781  0.8114 -0.1120 -1.0128
  869MOL0     H14703  11.190  10.892   8.951  1.7772 -1.0367 -0.0059
  869MOL0     H14704  11.319  10.720   8.877  2.4464 -0.2986 -0.1529
  869MOL0     H14705  11.406  10.825   8.763 -2.4616 -1.0436 -0.7922
  869MOL0     H14706  11.596  10.941   9.122  1.3531 -0.0544 -2.1985
  869MOL0     H14707  10.923  11.109   9.011  3.6091 -2.3448 -2.9852
  869MOL0     H14708  10.672  11.120   9.063 -0.8981  1.3795 -0.4010
  870MOL0     O14709   0.763   2.114   7.566 -0.1024 -0.1948 -0.5465
  870MOL0     C14710   0.774   2.235   7.547  0.5912  0.1257 -0.1873
  870MOL0     O14711   0.664   2.320   7.527 -0.3022  0.3203  0.4111
  870MOL0     C14712   0.544   2.250   7.516  0.0192 -0.9111  0.5029
  870MOL0     C14713   0.448   2.263   7.614  0.1862 -0.6971 -0.0257
  870MOL0     C14714   0.321   2.209   7.608  1.0320  0.8305 -0.0637
  870MOL0     C14715   0.288   2.119   7.497  0.1516 -0.5413  0.1879
  870MOL0     O14716   0.159   2.068   7.492  0.4233 -0.3891  0.0035
  870MOL0     C14717   0.094   2.040   7.616  0.4068  0.4612  0.7455
  870MOL0     C14718  -0.058   2.055   7.617  0.7475  0.5696 -0.4572
  870MOL0     C14719  -0.110   2.171   7.540  0.6609 -0.4071  0.2550
  870MOL0     C14720  -0.098   2.309   7.621 -1.0805  0.0630  0.5168
  870MOL0     C14721  -0.175   2.425   7.556 -0.6990 -0.5223 -0.2230
  870MOL0     C14722  -0.153   2.561   7.625  1.3098 -1.1741 -0.4410
  870MOL0     C14723  -0.027   2.621   7.590 -0.3430  0.3591 -0.0489
  870MOL0     C14724  -0.027   2.770   7.617 -0.5050 -0.8795 -0.2526
  870MOL0     N14725  -0.032   2.805   7.762  0.4284 -0.1660  0.9418
  870MOL0     C14726   0.068   2.770   7.844 -0.7354 -0.5483  0.5058
  870MOL0     C14727   0.020   2.808   7.964 -0.3982 -0.2026  0.3550
  870MOL0     C14728   0.085   2.788   8.107 -0.5797 -0.5842 -0.5958
  870MOL0     C14729   0.177   2.665   8.123  1.2567  0.0559  0.7785
  870MOL0     C14730   0.249   2.666   8.257 -0.1086 -0.4227  0.6653
  870MOL0     C14731   0.154   2.653   8.385 -0.3328 -0.3561 -0.2963
  870MOL0     O14732   0.044   2.566   8.357  0.0509  0.0907  0.1161
  870MOL0     C14733  -0.078   2.600   8.391  0.4389  0.1255 -0.3329
  870MOL0     C14734  -0.101   2.686   8.503  0.1358  0.0109  0.9373
  870MOL0     C14735  -0.230   2.721   8.544 -0.4967 -0.4806 -0.3774
  870MOL0     C14736  -0.345   2.667   8.475  0.0404 -0.3303 -0.2957
  870MOL0     C14737  -0.486   2.708   8.506  0.1288  0.4692 -0.3495
  870MOL0     O14738  -0.578   2.674   8.404 -0.1055  0.0670 -0.9732
  870MOL0     C14739  -0.708   2.681   8.435  0.9021 -0.7022  0.4374
  870MOL0     C14740  -0.786   2.717   8.328  0.2294  0.2960 -0.6242
  870MOL0     C14741  -0.925   2.698   8.329 -0.9520  0.3750  0.4972
  870MOL0     C14742  -0.991   2.653   8.452 -0.4192  0.2151 -0.1100
  870MOL0     O14743  -1.131   2.651   8.477 -0.7992  0.2653 -0.0027
  870MOL0     C14744  -1.216   2.657   8.369 -0.5108  0.1837 -0.0210
  870MOL0     C14745  -1.361   2.689   8.411 -1.0080 -0.1549 -0.2959
  870MOL0     C14746  -1.434   2.780   8.310 -0.4726 -0.2125  0.2529
  870MOL0     C14747  -1.582   2.791   8.344 -0.2056 -0.1260 -0.1699
  870MOL0     C14748  -1.643   2.887   8.244  0.3160  0.7186 -0.0273
  870MOL0     C14749  -1.799   2.897   8.256  0.6146  0.1405  0.5499
  870MOL0     C14750  -1.875   3.005   8.167  0.0555  0.3123  0.7949
  870MOL0     C14751  -2.020   2.969   8.156 -0.1296 -0.2983 -0.4482
  870MOL0    Cl14752  -2.082   2.944   8.319  0.3174 -0.0361  0.1380
  870MOL0     C14753  -0.913   2.614   8.562 -0.7184  0.2721 -0.2300
  870MOL0     C14754  -0.773   2.615   8.551 -0.6434  0.1863  0.4101
  870MOL0     O14755  -0.510   2.757   8.613  0.7895  0.6655 -0.6349
  870MOL0     C14756  -0.321   2.582   8.363  0.0093 -0.4584 -0.3042
  870MOL0     C14757  -0.193   2.535   8.333 -0.9413  0.3346  0.0392
  870MOL0     N14758  -0.104   2.878   7.945  0.2816  0.6884 -1.3587
  870MOL0     N14759  -0.132   2.869   7.825 -0.0479 -0.3172  0.6479
  870MOL0     C14760   0.387   2.107   7.394 -0.3482 -0.2051  0.1391
  870MOL0     C14761   0.513   2.162   7.400 -0.0875  0.7145 -0.3088
  870MOL0     C14762   0.905   2.294   7.561 -0.3849 -0.6973  0.3325
  870MOL0     C14763   1.012   2.219   7.618 -1.0307 -0.3134 -0.3337
  870MOL0     C14764   1.141   2.276   7.626  0.1980  1.0873  0.5578
  870MOL0     C14765   1.160   2.408   7.584  1.2458 -0.3749 -0.6208
  870MOL0     O14766   1.285   2.467   7.601 -0.4338  0.3306  0.1722
  870MOL0     C14767   1.387   2.396   7.669  0.5845  0.0697  0.1059
  870MOL0     C14768   1.506   2.492   7.671 -0.2358 -0.5458 -0.1331
  870MOL0     C14769   1.573   2.499   7.531  0.6739 -0.3913  0.1293
  870MOL0     C14770   1.692   2.596   7.525  0.0860  0.3945  0.0742
  870MOL0     C14771   1.802   2.545   7.610  0.6693  0.6750 -0.4163
  870MOL0     C14772   1.892   2.498   7.674 -0.1116 -0.0450 -0.5633
  870MOL0     C14773   1.057   2.480   7.515  0.1416  0.0278  0.0854
  870MOL0     C14774   0.927   2.420   7.511  0.1159 -0.0882 -0.5907
  870MOL0     H14775   0.483   2.334   7.688  0.6208 -1.9607  1.0109
  870MOL0     H14776   0.256   2.244   7.688 -0.2565 -3.4875  1.0179
  870MOL0     H14777   0.140   2.085   7.705 -0.8732  1.1433  1.0909
  870MOL0     H14778   0.114   1.934   7.630  2.6138  0.7941  0.4784
  870MOL0     H14779  -0.090   2.065   7.721  0.6102 -3.3382  0.0231
  870MOL0     H14780  -0.099   1.964   7.571  0.9698 -0.0472  0.5433
  870MOL0     H14781  -0.215   2.150   7.518  1.0050  1.0787 -3.6358
  870MOL0     H14782  -0.068   2.178   7.439 -2.7767 -0.6353 -1.3373
  870MOL0     H14783  -0.137   2.296   7.723 -3.7227 -0.6700 -0.4855
  870MOL0     H14784   0.009   2.329   7.632 -1.0586 -1.1208  3.1057
  870MOL0     H14785  -0.283   2.408   7.559 -0.8905  0.6363 -0.1708
  870MOL0     H14786  -0.157   2.420   7.448  1.2029  2.2066 -0.1269
  870MOL0     H14787  -0.168   2.546   7.733  0.5960 -0.0008 -0.3554
  870MOL0     H14788  -0.235   2.623   7.588  0.9498 -1.8072 -0.7081
  870MOL0     H14789   0.053   2.570   7.643 -2.2153 -0.0957  2.5184
  870MOL0     H14790  -0.008   2.606   7.483  0.0188 -2.0755  0.2859
  870MOL0     H14791  -0.110   2.817   7.562 -0.1007  0.4343  0.2426
  870MOL0     H14792   0.062   2.816   7.574 -0.1352  0.1061  1.4763
  870MOL0     H14793   0.163   2.721   7.825 -0.6852 -0.1297 -0.3791
  870MOL0     H14794   0.012   2.787   8.189  1.4915 -0.2204  1.3300
  870MOL0     H14795   0.148   2.873   8.135 -0.5159 -0.7263 -0.2967
  870MOL0     H14796   0.240   2.661   8.035  0.1761 -0.5369 -0.0010
  870MOL0     H14797   0.119   2.572   8.114  2.3675 -0.6884  1.1770
  870MOL0     H14798   0.319   2.583   8.264 -0.0946 -0.2893  3.1582
  870MOL0     H14799   0.298   2.764   8.264 -0.5395 -0.2350  1.2498
  870MOL0     H14800   0.126   2.753   8.419 -0.5513 -0.8008  0.8872
  870MOL0     H14801   0.222   2.606   8.457  1.4631 -1.2427 -2.4374
  870MOL0     H14802  -0.019   2.741   8.548  0.6914  0.6299 -0.7676
  870MOL0     H14803  -0.244   2.800   8.618  0.9868 -0.6764  0.1359
  870MOL0     H14804  -0.751   2.749   8.231 -0.7910  0.2145 -1.0330
  870MOL0     H14805  -0.977   2.711   8.234  0.4914 -0.5001 -0.4479
  870MOL0     H14806  -1.212   2.568   8.305 -1.4545  0.3297 -0.3109
  870MOL0     H14807  -1.171   2.736   8.308  0.9519  0.1896  1.0364
  870MOL0     H14808  -1.364   2.738   8.509 -0.3353  1.3111 -0.9761
  870MOL0     H14809  -1.414   2.594   8.421  0.0131 -0.6488  0.5517
  870MOL0     H14810  -1.408   2.743   8.211  0.5613 -0.0334  0.4447
  870MOL0     H14811  -1.392   2.880   8.318 -0.8211 -0.0290 -0.1622
  870MOL0     H14812  -1.630   2.692   8.339 -2.3311  0.7624  1.3738
  870MOL0     H14813  -1.595   2.810   8.451 -1.7536  1.7404 -0.6344
  870MOL0     H14814  -1.616   2.870   8.139  1.0532  4.2162 -0.5489
  870MOL0     H14815  -1.607   2.986   8.276  1.0595  0.2499  0.6190
  870MOL0     H14816  -1.825   2.912   8.361  0.6591 -2.7612  1.0641
  870MOL0     H14817  -1.836   2.796   8.233  4.6289 -2.3764  3.6866
  870MOL0     H14818  -1.873   3.101   8.218 -1.2523 -0.0125  1.5121
  870MOL0     H14819  -1.837   3.018   8.065 -2.3192  0.7483 -0.1005
  870MOL0     H14820  -2.038   2.876   8.101 -1.2128 -1.1347  1.2393
  870MOL0     H14821  -2.062   3.056   8.106  1.2463  0.4457 -0.3610
  870MOL0     H14822  -0.964   2.577   8.650  0.5209 -0.6604  0.1340
  870MOL0     H14823  -0.710   2.555   8.615 -0.8441 -0.7820 -0.2823
  870MOL0     H14824  -0.400   2.545   8.298 -0.1420  2.6860 -2.1190
  870MOL0     H14825  -0.178   2.457   8.259  0.6556 -0.2852  0.9683
  870MOL0     H14826   0.358   2.038   7.315 -3.0510  3.1614 -2.1279
  870MOL0     H14827   0.582   2.152   7.317  0.9559 -1.5577  0.7579
  870MOL0     H14828   1.001   2.114   7.642 -1.5832 -0.8387 -2.6972
  870MOL0     H14829   1.221   2.208   7.652 -0.3728 -0.9554 -2.5980
  870MOL0     H14830   1.417   2.302   7.623 -3.3222 -1.7970  0.9866
  870MOL0     H14831   1.342   2.377   7.767 -1.7314 -0.3645 -0.9754
  870MOL0     H14832   1.477   2.595   7.691  1.4359  0.4115 -2.3151
  870MOL0     H14833   1.582   2.452   7.739  0.0562 -3.7600 -2.1544
  870MOL0     H14834   1.507   2.549   7.459  0.0279 -0.9675  0.3169
  870MOL0     H14835   1.600   2.397   7.502  3.4677  0.0113  1.0217
  870MOL0     H14836   1.731   2.606   7.423  0.8215  0.2040  0.3274
  870MOL0     H14837   1.646   2.692   7.553 -3.9245 -0.9308 -1.2645
  870MOL0     H14838   1.975   2.454   7.726  1.9744  0.7494 -3.0027
  870MOL0     H14839   1.087   2.575   7.473 -1.0487  0.6400  0.5831
  870MOL0     H14840   0.842   2.463   7.459 -1.7497 -1.5346  1.1188
  871MOL0     O14841   1.321   2.650   3.878 -0.1689  0.6809  0.6147
  871MOL0     C14842   1.260   2.559   3.930  0.0927 -0.4296 -0.5049
  871MOL0     O14843   1.317   2.462   4.005  0.1591  0.5623  0.4510
  871MOL0     C14844   1.442   2.416   3.983  0.8343 -1.0909  0.0452
  871MOL0     C14845   1.466   2.279   3.990  1.0910  0.3075  0.7434
  871MOL0     C14846   1.588   2.229   3.964  0.5790  0.3473  0.9434
  871MOL0     C14847   1.692   2.310   3.927  0.3135 -0.2202 -0.2259
  871MOL0     O14848   1.811   2.246   3.890  0.3471  0.4027  0.0633
  871MOL0     C14849   1.884   2.309   3.778  0.7545  0.7335 -1.4356
  871MOL0     C14850   2.005   2.224   3.749  0.9186  0.0597  0.0671
  871MOL0     C14851   2.076   2.245   3.611 -0.1629  0.7392 -0.2412
  871MOL0     C14852   2.167   2.129   3.562 -0.5891  0.1035  0.0991
  871MOL0     C14853   2.274   2.099   3.677 -0.9738 -0.0659 -0.2195
  871MOL0     C14854   2.381   2.005   3.625 -0.1035 -0.1241 -1.0287
  871MOL0     C14855   2.493   2.009   3.744 -0.0468 -0.4246 -0.1198
  871MOL0     C14856   2.605   2.108   3.720 -0.0707 -0.2719  0.0044
  871MOL0     N14857   2.651   2.117   3.581  0.2099  0.3701  0.1144
  871MOL0     C14858   2.769   2.077   3.540 -0.3699  0.3466 -0.9822
  871MOL0     C14859   2.789   2.124   3.418  0.3938 -0.5616 -0.7820
  871MOL0     C14860   2.906   2.100   3.339 -0.5912  1.0222  0.6343
  871MOL0     C14861   2.998   2.218   3.343 -0.7561  0.6886  0.3849
  871MOL0     C14862   3.066   2.259   3.474 -0.5242 -1.0866  1.0715
  871MOL0     C14863   3.177   2.162   3.526  0.1660 -0.6446 -0.0234
  871MOL0     O14864   3.255   2.236   3.612  0.2178  0.0462  0.1393
  871MOL0     C14865   3.385   2.280   3.575  0.7920  0.3600  0.2544
  871MOL0     C14866   3.464   2.234   3.472  0.3086  0.3634  0.6543
  871MOL0     C14867   3.596   2.266   3.465  0.0191 -0.4030  0.1609
  871MOL0     C14868   3.651   2.350   3.569 -0.0144  0.1518  0.3109
  871MOL0     C14869   3.798   2.380   3.574  0.2625 -0.0602 -0.7384
  871MOL0     O14870   3.873   2.368   3.463  0.2759 -0.6377 -0.0093
  871MOL0     C14871   4.007   2.401   3.462  1.5266  0.1066 -0.4818
  871MOL0     C14872   4.083   2.326   3.370  0.1103 -0.3550 -0.7746
  871MOL0     C14873   4.213   2.372   3.347  0.0042 -0.1578  0.4524
  871MOL0     C14874   4.270   2.482   3.415 -0.5697 -0.5392 -0.1040
  871MOL0     O14875   4.400   2.518   3.395 -0.0814  0.1184  0.4443
  871MOL0     C14876   4.450   2.648   3.404 -0.5119 -0.0979  0.1058
  871MOL0     C14877   4.523   2.671   3.533  0.6370 -0.1495 -0.3283
  871MOL0     C14878   4.636   2.576   3.561  0.7711 -0.7289  0.3833
  871MOL0     C14879   4.761   2.597   3.470 -0.4232 -0.3431 -0.3716
  871MOL0     C14880   4.884   2.508   3.521  0.4244  0.2269  0.5081
  871MOL0     C14881   5.007   2.511   3.432 -0.0612  0.3759 -0.1797
  871MOL0     C14882   5.126   2.460   3.505 -0.2218  0.0662  0.5234
  871MOL0     C14883   5.129   2.310   3.516 -0.5482 -0.2670  0.4495
  871MOL0    Cl14884   5.181   2.247   3.356 -0.2344  0.5110 -0.2593
  871MOL0     C14885   4.202   2.548   3.513  0.5193 -0.3441  0.6031
  871MOL0     C14886   4.065   2.506   3.533 -0.0003 -0.0904  0.8189
  871MOL0     O14887   3.846   2.406   3.686 -0.3666 -0.8949  0.0153
  871MOL0     C14888   3.567   2.405   3.665  0.4488  0.0452  0.6922
  871MOL0     C14889   3.436   2.368   3.671 -0.0289 -0.4417 -0.3486
  871MOL0     N14890   2.671   2.176   3.375 -0.1050 -0.1837 -0.3587
  871MOL0     N14891   2.591   2.186   3.476  0.0855  0.1173 -0.1823
  871MOL0     C14892   1.681   2.449   3.929  1.0206  0.8595 -0.5717
  871MOL0     C14893   1.554   2.500   3.961 -0.1009 -0.2225 -0.1661
  871MOL0     C14894   1.115   2.545   3.902  1.2283  0.5873  0.3973
  871MOL0     C14895   1.061   2.416   3.894 -1.0504 -0.5662 -0.0556
  871MOL0     C14896   0.928   2.404   3.844 -0.4891 -0.2169  0.2081
  871MOL0     C14897   0.854   2.514   3.794 -0.4815 -0.0882 -0.2536
  871MOL0     O14898   0.737   2.488   3.736 -0.5106  0.6936 -0.1133
  871MOL0     C14899   0.648   2.595   3.697 -0.1967 -0.5086  0.7743
  871MOL0     C14900   0.575   2.643   3.825 -0.0377  0.3302  0.1483
  871MOL0     C14901   0.424   2.593   3.828 -1.3102 -0.4908 -0.1358
  871MOL0     C14902   0.339   2.690   3.902 -0.3468  0.6300 -0.3993
  871MOL0     C14903   0.200   2.666   3.865  0.8307 -0.1087  0.5491
  871MOL0     C14904   0.088   2.646   3.815 -0.0990 -0.8224  0.0765
  871MOL0     C14905   0.912   2.645   3.800 -0.3835 -0.1509 -0.4737
  871MOL0     C14906   1.043   2.656   3.862 -0.4154 -0.5553 -0.1150
  871MOL0     H14907   1.378   2.217   4.003  0.9976  0.8929  3.5642
  871MOL0     H14908   1.595   2.121   3.965 -0.4508  0.2786  2.0599
  871MOL0     H14909   1.914   2.411   3.805 -0.9073  0.8154  0.3204
  871MOL0     H14910   1.817   2.322   3.693 -1.5049  0.1806  0.1561
  871MOL0     H14911   1.978   2.119   3.763 -1.6762  0.8033  1.1328
  871MOL0     H14912   2.067   2.245   3.836 -1.7602  1.2933  1.8001
  871MOL0     H14913   2.126   2.343   3.608 -0.2604  0.7597 -1.7631
  871MOL0     H14914   2.000   2.254   3.533  0.3039 -0.7659 -0.9131
  871MOL0     H14915   2.130   2.037   3.515  2.6790  0.3053 -3.3370
  871MOL0     H14916   2.227   2.167   3.478 -1.3536 -1.9544 -1.4585
  871MOL0     H14917   2.225   2.051   3.762 -0.1898 -3.6124 -1.6253
  871MOL0     H14918   2.324   2.194   3.697  0.8272 -0.4538 -2.4757
  871MOL0     H14919   2.428   2.021   3.528 -0.9553  0.7838 -1.3076
  871MOL0     H14920   2.328   1.910   3.626 -1.9507  0.8589  0.3775
  871MOL0     H14921   2.450   2.026   3.843  1.1170  2.5413 -0.0097
  871MOL0     H14922   2.534   1.909   3.762 -3.4733 -1.9277  0.1154
  871MOL0     H14923   2.696   2.104   3.781 -1.3344 -0.6045  1.9615
  871MOL0     H14924   2.554   2.202   3.744  1.9612  0.4888  1.6381
  871MOL0     H14925   2.845   2.030   3.601 -1.6344 -0.3229  0.1357
  871MOL0     H14926   2.883   2.084   3.233  1.0345  0.3799  0.3465
  871MOL0     H14927   2.949   2.003   3.364  1.2644  1.7021  0.2617
  871MOL0     H14928   2.946   2.312   3.325 -2.5926 -0.5008 -0.8646
  871MOL0     H14929   3.072   2.207   3.264  0.5587  1.6401  1.4555
  871MOL0     H14930   3.120   2.352   3.455 -1.6142 -0.5793  0.3989
  871MOL0     H14931   2.997   2.282   3.556  1.4579  1.2108  2.2190
  871MOL0     H14932   3.236   2.125   3.441  0.3694  1.0602 -0.6595
  871MOL0     H14933   3.138   2.075   3.580 -2.2229 -1.2446 -2.5156
  871MOL0     H14934   3.423   2.177   3.389 -1.6813  2.7542 -0.1394
  871MOL0     H14935   3.656   2.229   3.383 -0.0105 -2.2476  0.9058
  871MOL0     H14936   4.057   2.223   3.351 -0.2982 -0.3981 -0.0121
  871MOL0     H14937   4.277   2.299   3.299  1.2109  0.1697  1.4920
  871MOL0     H14938   4.363   2.714   3.392 -1.6185 -1.6448 -0.8272
  871MOL0     H14939   4.524   2.671   3.328  0.2492  1.6969  1.3104
  871MOL0     H14940   4.450   2.655   3.614  1.3748 -2.1676  0.0042
  871MOL0     H14941   4.551   2.775   3.552  1.3559 -0.7684  2.4110
  871MOL0     H14942   4.607   2.473   3.537 -0.3447 -0.3609  0.0926
  871MOL0     H14943   4.669   2.577   3.665 -2.3604 -0.8446  1.4897
  871MOL0     H14944   4.745   2.588   3.363 -0.1236 -0.2207 -0.4292
  871MOL0     H14945   4.805   2.696   3.487  0.6611 -1.1790  2.3144
  871MOL0     H14946   4.841   2.407   3.520 -2.0353  1.1816  1.1922
  871MOL0     H14947   4.910   2.539   3.622 -0.1927  2.1600  0.1318
  871MOL0     H14948   5.018   2.619   3.421 -0.1401  0.6801  2.1622
  871MOL0     H14949   4.989   2.473   3.331 -0.7975  3.1818 -1.1950
  871MOL0     H14950   5.215   2.499   3.455 -0.6308 -1.4153 -1.4602
  871MOL0     H14951   5.121   2.518   3.598  0.2430  1.5518 -0.3394
  871MOL0     H14952   5.035   2.257   3.529 -1.0573  0.0831 -1.5658
  871MOL0     H14953   5.200   2.282   3.595  0.2679  2.2789  0.7178
  871MOL0     H14954   4.248   2.626   3.572 -0.0562  0.1313  0.4294
  871MOL0     H14955   3.999   2.573   3.587  0.4021  1.6710 -0.8160
  871MOL0     H14956   3.607   2.480   3.731 -0.4465 -0.1013  1.4252
  871MOL0     H14957   3.364   2.406   3.743  1.3721  0.9320  0.3726
  871MOL0     H14958   1.770   2.505   3.906  1.9372 -0.5765 -0.6451
  871MOL0     H14959   1.559   2.609   3.958 -3.0329 -0.0086  0.3143
  871MOL0     H14960   1.119   2.331   3.928 -0.5330 -0.0057  0.4882
  871MOL0     H14961   0.884   2.305   3.844  0.7619 -0.7947  0.1338
  871MOL0     H14962   0.572   2.551   3.632 -1.7501 -0.0396  2.2332
  871MOL0     H14963   0.700   2.669   3.634  0.7597 -1.5716  0.2669
  871MOL0     H14964   0.629   2.626   3.919  1.5036  2.1764 -0.3371
  871MOL0     H14965   0.577   2.752   3.829  0.0850  0.3242  0.2594
  871MOL0     H14966   0.424   2.496   3.877  4.1302  0.6026  2.8139
  871MOL0     H14967   0.393   2.577   3.724 -0.9807 -0.5936 -0.2195
  871MOL0     H14968   0.344   2.698   4.011 -2.3943  2.5622 -0.3750
  871MOL0     H14969   0.364   2.790   3.864 -2.4045  0.6259 -1.9679
  871MOL0     H14970  -0.009   2.629   3.773 -0.2087 -0.1300  0.0451
  871MOL0     H14971   0.856   2.734   3.772  0.1170  2.3762  5.0804
  871MOL0     H14972   1.087   2.752   3.887 -2.1321  0.0050  0.8750
  872MOL0     O14973   4.086   1.099   3.453  0.4402  0.1360  0.1103
  872MOL0     C14974   4.126   1.178   3.546  0.3080  0.0652  0.7527
  872MOL0     O14975   4.044   1.212   3.649  0.9987 -0.3806  0.2105
  872MOL0     C14976   3.915   1.164   3.638 -1.2867  0.9120 -0.0996
  872MOL0     C14977   3.859   1.053   3.715  0.2369 -0.1546 -0.3567
  872MOL0     C14978   3.723   1.010   3.705  0.8376 -0.0097  0.9564
  872MOL0     C14979   3.646   1.072   3.606  0.4096 -0.3066 -1.1751
  872MOL0     O14980   3.513   1.030   3.606 -0.3389 -0.4732 -0.1679
  872MOL0     C14981   3.423   1.126   3.670  0.2716 -0.3299  0.9036
  872MOL0     C14982   3.382   1.069   3.802 -0.2966  0.1274 -0.2952
  872MOL0     C14983   3.282   0.943   3.804  0.5164  0.7712  0.8802
  872MOL0     C14984   3.143   0.971   3.750  0.5665 -0.0746 -0.5694
  872MOL0     C14985   3.033   0.869   3.781 -0.3802  0.1987 -0.3583
  872MOL0     C14986   3.059   0.740   3.697 -0.1542 -0.2205 -0.8100
  872MOL0     C14987   2.945   0.640   3.727  0.1526 -0.1024 -0.7806
  872MOL0     C14988   2.807   0.695   3.686  0.1644  0.8783  0.3589
  872MOL0     N14989   2.720   0.580   3.668 -0.3174  0.3681  0.3764
  872MOL0     C14990   2.665   0.493   3.763  0.0880 -0.6386  0.6179
  872MOL0     C14991   2.582   0.410   3.698  0.1465 -0.5481  0.4523
  872MOL0     C14992   2.487   0.298   3.738 -0.5417  0.1405  0.5801
  872MOL0     C14993   2.342   0.339   3.722 -0.1352 -0.0458  0.1289
  872MOL0     C14994   2.246   0.237   3.789 -0.1271  0.4194  0.4029
  872MOL0     C14995   2.101   0.270   3.786 -0.0758 -0.2834 -0.6867
  872MOL0     O14996   2.030   0.163   3.842  0.0133  0.9134  0.0885
  872MOL0     C14997   1.914   0.198   3.892  0.4627  0.6620  0.2804
  872MOL0     C14998   1.882   0.142   4.018  0.2074  0.6154  0.0898
  872MOL0     C14999   1.765   0.171   4.088  0.1286 -0.2866  1.0437
  872MOL0     C15000   1.665   0.247   4.021  0.1382  0.7387  0.0030
  872MOL0     C15001   1.536   0.275   4.087 -0.6042 -0.5078 -0.5927
  872MOL0     O15002   1.480   0.384   4.033  0.2843  0.0109 -0.0831
  872MOL0     C15003   1.351   0.418   4.082  0.1861 -0.8276  0.5817
  872MOL0     C15004   1.251   0.335   4.118 -0.2202  0.1027 -0.9403
  872MOL0     C15005   1.133   0.402   4.156 -0.5098 -0.0550 -1.1010
  872MOL0     C15006   1.113   0.542   4.152  0.8189  0.0806 -0.3383
  872MOL0     O15007   0.999   0.615   4.186  0.0281 -0.1466  0.2038
  872MOL0     C15008   0.895   0.548   4.251  0.1385  0.7513  0.3283
  872MOL0     C15009   0.788   0.630   4.310 -0.9060  0.5178  0.1808
  872MOL0     C15010   0.743   0.740   4.211 -0.1397  0.0330  0.0423
  872MOL0     C15011   0.611   0.801   4.253 -0.4768  0.1975 -0.1931
  872MOL0     C15012   0.577   0.900   4.145 -0.6525  0.3639  0.9086
  872MOL0     C15013   0.441   0.971   4.162 -0.1539 -0.0742 -0.0095
  872MOL0     C15014   0.416   1.061   4.047 -0.6524 -0.5266 -0.8051
  872MOL0     C15015   0.317   1.004   3.954  0.7661 -0.1077  0.2948
  872MOL0    Cl15016   0.243   1.133   3.848 -0.4301  0.5048  0.0273
  872MOL0     C15017   1.217   0.618   4.095  0.3534 -0.0844 -0.2814
  872MOL0     C15018   1.334   0.558   4.060 -0.0722 -0.0228 -0.8270
  872MOL0     O15019   1.504   0.212   4.186 -0.2193 -0.1705  1.2874
  872MOL0     C15020   1.693   0.301   3.890  0.0628 -0.0117 -0.5555
  872MOL0     C15021   1.819   0.276   3.830 -0.7148 -0.3449  0.5491
  872MOL0     N15022   2.589   0.433   3.554 -0.7271 -0.0504  0.2213
  872MOL0     N15023   2.672   0.533   3.547  0.6139  0.3327  0.3081
  872MOL0     C15024   3.697   1.174   3.528  0.1962  0.0846  0.2411
  872MOL0     C15025   3.828   1.219   3.548 -0.0042  0.4105  0.3096
  872MOL0     C15026   4.264   1.221   3.542 -0.9076  0.6895 -0.6495
  872MOL0     C15027   4.341   1.192   3.434  0.0739  0.9240  0.3428
  872MOL0     C15028   4.481   1.207   3.447 -0.7064 -0.0754 -0.0032
  872MOL0     C15029   4.535   1.276   3.557  0.3377 -0.0180  0.7116
  872MOL0     O15030   4.675   1.296   3.564 -0.6003 -0.3139 -0.2819
  872MOL0     C15031   4.728   1.359   3.680  0.3183  0.4803 -0.8979
  872MOL0     C15032   4.884   1.364   3.679  0.5211  1.4367 -0.3576
  872MOL0     C15033   4.919   1.467   3.572  0.0963 -0.6370  0.4783
  872MOL0     C15034   5.064   1.440   3.506  0.7038 -0.6208 -0.7160
  872MOL0     C15035   5.039   1.366   3.383  0.4471  0.8152  0.7218
  872MOL0     C15036   5.015   1.299   3.281 -0.4010  0.7455 -0.1114
  872MOL0     C15037   4.449   1.311   3.659  0.9500  0.0020 -0.2953
  872MOL0     C15038   4.312   1.291   3.653  0.2060  0.1548  0.6538
  872MOL0     H15039   3.920   0.990   3.778 -0.9311  0.2672  1.2680
  872MOL0     H15040   3.672   0.927   3.752 -2.0754  0.1307 -1.5941
  872MOL0     H15041   3.336   1.143   3.607  3.6243  1.3213 -3.8615
  872MOL0     H15042   3.469   1.225   3.681  1.3659 -0.8849  1.5641
  872MOL0     H15043   3.323   1.148   3.850  1.0571  0.6109  0.6352
  872MOL0     H15044   3.474   1.049   3.857  0.8040 -1.3452 -2.5085
  872MOL0     H15045   3.267   0.925   3.911  2.6296  3.7774  1.8256
  872MOL0     H15046   3.334   0.857   3.763 -2.2856 -1.1726  1.1323
  872MOL0     H15047   3.112   1.069   3.789 -1.5687 -0.5614 -0.9009
  872MOL0     H15048   3.140   0.979   3.641  2.4515 -4.1691 -1.0978
  872MOL0     H15049   2.934   0.913   3.767 -1.0797 -0.5020  1.9162
  872MOL0     H15050   3.040   0.842   3.887 -1.1006 -0.4099 -0.4587
  872MOL0     H15051   3.154   0.691   3.719 -0.9240 -1.2328  0.4135
  872MOL0     H15052   3.056   0.762   3.590 -1.0308  1.6364 -0.4514
  872MOL0     H15053   2.968   0.547   3.674  2.5798  0.4421 -0.7960
  872MOL0     H15054   2.952   0.613   3.833  2.9251 -0.7048 -1.0403
  872MOL0     H15055   2.822   0.755   3.596  2.0837  2.8720  1.8727
  872MOL0     H15056   2.771   0.765   3.763  1.6449  3.0819 -0.8416
  872MOL0     H15057   2.675   0.502   3.871  1.4248  1.3380  0.3736
  872MOL0     H15058   2.514   0.282   3.843 -1.0761  0.1480  0.7205
  872MOL0     H15059   2.518   0.208   3.685 -3.1104 -0.1773 -0.5426
  872MOL0     H15060   2.325   0.352   3.615  4.4269 -1.0028 -0.9051
  872MOL0     H15061   2.326   0.435   3.772  1.8142  0.0301  0.6998
  872MOL0     H15062   2.256   0.141   3.737 -1.5612 -0.6827  2.0599
  872MOL0     H15063   2.278   0.223   3.893  1.4883 -0.6378 -0.1885
  872MOL0     H15064   2.068   0.285   3.683  1.3083  0.9623 -0.9885
  872MOL0     H15065   2.086   0.368   3.833  2.8995 -0.7186  1.5171
  872MOL0     H15066   1.962   0.100   4.078  2.4172  1.8421 -1.8312
  872MOL0     H15067   1.757   0.144   4.192  1.2823 -0.1900  1.1723
  872MOL0     H15068   1.276   0.230   4.109 -0.3336 -0.3645  2.6486
  872MOL0     H15069   1.052   0.338   4.190 -0.5795  1.3018  1.4550
  872MOL0     H15070   0.930   0.489   4.336 -3.2749  0.1396  1.4541
  872MOL0     H15071   0.854   0.485   4.172 -1.9241 -0.9627  2.6118
  872MOL0     H15072   0.816   0.678   4.404  1.8305 -1.0924  0.3102
  872MOL0     H15073   0.705   0.563   4.337  0.1860 -0.4864  1.1895
  872MOL0     H15074   0.737   0.693   4.113  3.3734 -0.4350 -0.0733
  872MOL0     H15075   0.814   0.823   4.205  1.8564 -1.6770 -2.4136
  872MOL0     H15076   0.536   0.723   4.266  0.1750 -0.8667 -2.2836
  872MOL0     H15077   0.615   0.859   4.345  2.3768  2.2977 -1.4666
  872MOL0     H15078   0.578   0.858   4.044 -0.8320  2.6354 -0.1062
  872MOL0     H15079   0.646   0.984   4.152 -1.5378  1.5458 -2.6454
  872MOL0     H15080   0.453   1.028   4.255  0.4098 -2.1539  1.2498
  872MOL0     H15081   0.355   0.907   4.184  1.2155 -2.0657 -0.2438
  872MOL0     H15082   0.379   1.157   4.084 -0.4351 -1.3738  1.8306
  872MOL0     H15083   0.514   1.086   4.005 -0.5159 -0.3491 -0.3959
  872MOL0     H15084   0.235   0.948   4.000 -0.7053 -0.3950 -2.4252
  872MOL0     H15085   0.376   0.938   3.890 -0.0175  0.3666 -0.9739
  872MOL0     H15086   1.206   0.726   4.100 -1.8247 -0.3115  1.5929
  872MOL0     H15087   1.414   0.618   4.017 -1.5503  2.2468 -0.6046
  872MOL0     H15088   1.606   0.346   3.842 -2.2961 -1.4699  2.0206
  872MOL0     H15089   1.838   0.300   3.726  1.6331 -1.2115  0.7191
  872MOL0     H15090   3.627   1.219   3.458 -5.0419 -3.2198  2.7197
  872MOL0     H15091   3.876   1.297   3.490  0.0956 -0.3868 -0.6955
  872MOL0     H15092   4.306   1.129   3.353 -0.3526  1.2665  0.2546
  872MOL0     H15093   4.546   1.185   3.364  2.4087  3.1485  1.3237
  872MOL0     H15094   4.696   1.285   3.754  1.2691  0.9768  0.0304
  872MOL0     H15095   4.688   1.454   3.717  0.9812  0.3853  0.0932
  872MOL0     H15096   4.912   1.397   3.779 -0.0100 -1.3799  0.8240
  872MOL0     H15097   4.936   1.268   3.666 -0.1036  0.6168  2.5789
  872MOL0     H15098   4.918   1.567   3.615 -0.7436 -0.2010 -0.5176
  872MOL0     H15099   4.839   1.456   3.497  1.0813  1.3243 -0.9422
  872MOL0     H15100   5.117   1.533   3.486  0.0355 -0.0598  0.0152
  872MOL0     H15101   5.128   1.388   3.577 -0.0798 -1.5213 -0.6387
  872MOL0     H15102   5.003   1.242   3.191 -3.2284 -0.6497  1.0493
  872MOL0     H15103   4.484   1.358   3.750 -2.0627  0.0269  0.9515
  872MOL0     H15104   4.253   1.318   3.740 -0.5557  0.7258 -0.0332
  873MOL0     O15105   2.400   1.551   5.828 -0.4296  0.4985  0.0510
  873MOL0     C15106   2.469   1.629   5.893  0.0105 -0.4619  0.7644
  873MOL0     O15107   2.417   1.746   5.951 -0.0871  0.4415  0.1132
  873MOL0     C15108   2.302   1.806   5.907 -0.2481  0.7093 -1.1691
  873MOL0     C15109   2.189   1.725   5.897  0.6554 -0.5231 -0.9528
  873MOL0     C15110   2.062   1.783   5.871  0.4675  0.7986 -0.1371
  873MOL0     C15111   2.042   1.918   5.840  0.4085 -0.6439 -0.6731
  873MOL0     O15112   1.914   1.954   5.819  0.2720 -0.1034  0.3384
  873MOL0     C15113   1.888   2.092   5.819 -0.2425 -0.5916  0.3401
  873MOL0     C15114   1.743   2.106   5.814  0.6509 -0.5485 -0.3776
  873MOL0     C15115   1.668   2.010   5.906  0.1570 -0.4999 -0.2828
  873MOL0     C15116   1.531   2.085   5.931 -0.5313  0.0609 -0.3775
  873MOL0     C15117   1.459   2.023   6.042 -0.7271 -0.7910  0.4056
  873MOL0     C15118   1.432   1.866   6.037  0.4210 -0.6922 -1.4180
  873MOL0     C15119   1.345   1.831   5.917  1.5124 -0.6623 -0.3130
  873MOL0     C15120   1.334   1.681   5.900 -0.2354  0.2246  0.1534
  873MOL0     N15121   1.220   1.636   5.978  0.4721 -0.6492 -0.9843
  873MOL0     C15122   1.222   1.580   6.101 -0.7670 -0.3070 -0.6164
  873MOL0     C15123   1.103   1.601   6.163 -0.3633  0.2915  0.0448
  873MOL0     C15124   1.052   1.567   6.304  0.6635  0.1819 -0.2634
  873MOL0     C15125   1.005   1.418   6.316  0.3215  0.5493 -0.1553
  873MOL0     C15126   0.888   1.399   6.220 -0.2089  0.0538  0.2790
  873MOL0     C15127   0.827   1.255   6.249 -0.8259 -0.3331 -0.0827
  873MOL0     O15128   0.754   1.253   6.378  0.1275 -0.4814  0.0130
  873MOL0     C15129   0.655   1.161   6.405  0.5754  0.5666  0.2494
  873MOL0     C15130   0.615   1.057   6.321 -0.5905  0.2540  0.1417
  873MOL0     C15131   0.509   0.973   6.354  0.1160 -0.5140 -0.7564
  873MOL0     C15132   0.444   0.991   6.481  0.3896  1.1920  0.6987
  873MOL0     C15133   0.333   0.908   6.523 -0.8544 -0.0149 -0.5124
  873MOL0     O15134   0.247   0.950   6.616 -0.5189 -0.0832 -0.4821
  873MOL0     C15135   0.121   0.904   6.619  0.7977 -0.1256 -0.2149
  873MOL0     C15136   0.046   0.919   6.737  0.2204  0.3359 -0.5185
  873MOL0     C15137  -0.084   0.881   6.753  0.1914  0.0797  0.1355
  873MOL0     C15138  -0.146   0.819   6.653  0.3905 -0.6417  0.7390
  873MOL0     O15139  -0.281   0.795   6.670  0.5156 -0.6299 -0.7476
  873MOL0     C15140  -0.370   0.737   6.575  0.2521  0.4962 -0.7022
  873MOL0     C15141  -0.500   0.704   6.646 -0.1898  0.0432  1.0634
  873MOL0     C15142  -0.589   0.824   6.671 -0.4164 -0.3204  0.2980
  873MOL0     C15143  -0.711   0.788   6.742 -1.2354  0.4306  0.7617
  873MOL0     C15144  -0.793   0.692   6.643 -0.1638 -0.6156 -0.6099
  873MOL0     C15145  -0.937   0.678   6.691  0.4061 -0.1652 -0.3562
  873MOL0     C15146  -1.020   0.801   6.715  0.3863  1.2070 -1.5373
  873MOL0     C15147  -1.173   0.782   6.704 -0.1052  0.9233 -1.1284
  873MOL0    Cl15148  -1.231   0.716   6.555 -0.2070 -0.5210 -0.2081
  873MOL0     C15149  -0.079   0.800   6.533  1.1034  0.3545 -0.4076
  873MOL0     C15150   0.053   0.836   6.514 -0.2353  0.2424 -0.3563
  873MOL0     O15151   0.330   0.802   6.463  0.0842  0.2610  0.3650
  873MOL0     C15152   0.501   1.087   6.571 -0.0113  0.3296 -0.8180
  873MOL0     C15153   0.600   1.167   6.528 -0.6193  0.0835 -0.8094
  873MOL0     N15154   1.023   1.665   6.067  0.4047  0.8723  0.5555
  873MOL0     N15155   1.091   1.677   5.955  0.3892  0.6026  0.2208
  873MOL0     C15156   2.158   1.997   5.859 -0.9368 -0.3605  0.5265
  873MOL0     C15157   2.286   1.940   5.890 -1.0041  0.8487 -0.1970
  873MOL0     C15158   2.607   1.590   5.937  0.4225  1.0673  0.1966
  873MOL0     C15159   2.692   1.667   6.025  0.1214  0.9400  0.1140
  873MOL0     C15160   2.822   1.626   6.066 -0.1777  0.2665 -0.0909
  873MOL0     C15161   2.872   1.500   6.024 -0.4951  0.6614  0.7755
  873MOL0     O15162   3.005   1.473   6.054 -0.6135  0.5751 -0.5647
  873MOL0     C15163   3.078   1.349   6.027  0.4015 -0.3463 -0.4500
  873MOL0     C15164   3.231   1.360   6.029  0.5315  0.1336 -0.7185
  873MOL0     C15165   3.281   1.439   6.153 -0.3307  0.1241  0.9789
  873MOL0     C15166   3.436   1.443   6.175  0.6937 -0.3314  0.1438
  873MOL0     C15167   3.476   1.330   6.250  0.4340  0.0175 -0.1753
  873MOL0     C15168   3.509   1.227   6.302 -0.1645 -0.3410  0.0188
  873MOL0     C15169   2.780   1.420   5.946  0.0192 -0.0797 -0.3734
  873MOL0     C15170   2.657   1.468   5.897 -0.2769  0.0655  0.3726
  873MOL0     H15171   2.187   1.617   5.914  1.0546 -0.4923 -0.6876
  873MOL0     H15172   1.969   1.727   5.869  0.6061  0.3139  2.9756
  873MOL0     H15173   1.944   2.128   5.732 -0.9364  2.2838  0.9989
  873MOL0     H15174   1.937   2.126   5.910  0.9807 -0.8905 -0.1811
  873MOL0     H15175   1.696   2.085   5.717 -0.3311 -1.5395  0.2928
  873MOL0     H15176   1.724   2.211   5.838 -0.7632 -0.8949  0.1005
  873MOL0     H15177   1.721   2.000   6.001  1.4867  2.5017 -0.5835
  873MOL0     H15178   1.642   1.911   5.868 -1.8703 -0.9615  2.0836
  873MOL0     H15179   1.543   2.186   5.970 -2.4438 -0.6536  2.3042
  873MOL0     H15180   1.468   2.079   5.842  0.1277  1.0753 -0.9332
  873MOL0     H15181   1.360   2.069   6.045 -0.9612 -1.3092  0.8336
  873MOL0     H15182   1.514   2.035   6.135  2.6878  1.3433 -1.6669
  873MOL0     H15183   1.380   1.824   6.124  0.3553 -0.4099 -1.3192
  873MOL0     H15184   1.529   1.816   6.034 -0.3880 -2.3973 -0.4495
  873MOL0     H15185   1.247   1.879   5.918  3.2836  3.5044  2.0173
  873MOL0     H15186   1.400   1.865   5.828  4.2444 -0.1367  1.4445
  873MOL0     H15187   1.427   1.635   5.937  0.7781  0.5356 -1.8847
  873MOL0     H15188   1.312   1.652   5.797 -1.3598  3.7302 -0.7341
  873MOL0     H15189   1.302   1.536   6.159 -0.0471  2.2134  0.4086
  873MOL0     H15190   0.978   1.642   6.333  3.1912  3.3471 -1.4328
  873MOL0     H15191   1.140   1.591   6.364  0.2382  1.0201  0.0377
  873MOL0     H15192   0.980   1.388   6.419  2.1958 -1.3768 -0.2143
  873MOL0     H15193   1.083   1.348   6.286  0.4995  1.1183 -1.0461
  873MOL0     H15194   0.810   1.474   6.230 -0.7047  0.0914 -2.8796
  873MOL0     H15195   0.920   1.405   6.115 -2.1043  1.5300 -0.2542
  873MOL0     H15196   0.899   1.173   6.256  0.1437  0.4756 -0.3134
  873MOL0     H15197   0.759   1.240   6.164 -0.7539 -2.5222  0.1997
  873MOL0     H15198   0.670   1.045   6.228  2.6608  2.0700  1.6904
  873MOL0     H15199   0.478   0.892   6.289 -4.2495 -1.7648  2.4268
  873MOL0     H15200   0.103   0.959   6.820 -1.2689 -0.8162  1.1344
  873MOL0     H15201  -0.131   0.895   6.850 -0.3091  0.3665 -0.1455
  873MOL0     H15202  -0.323   0.650   6.528  1.5482  1.4290 -1.1904
  873MOL0     H15203  -0.397   0.806   6.494 -0.5598 -0.0639 -0.9256
  873MOL0     H15204  -0.475   0.650   6.738  2.9317  1.8516  1.4029
  873MOL0     H15205  -0.555   0.648   6.571 -0.2861  2.6325 -0.9316
  873MOL0     H15206  -0.613   0.856   6.569  0.4662 -1.4282 -0.2821
  873MOL0     H15207  -0.541   0.902   6.731  0.0235 -0.5237  0.2173
  873MOL0     H15208  -0.695   0.735   6.836 -3.3982  0.4131  1.1723
  873MOL0     H15209  -0.765   0.880   6.765 -1.3383 -0.1057  2.8911
  873MOL0     H15210  -0.753   0.590   6.644  0.2500 -0.5145 -2.4428
  873MOL0     H15211  -0.792   0.728   6.540 -0.3404 -0.0168 -0.4096
  873MOL0     H15212  -0.935   0.609   6.776  0.5077 -0.5746 -0.6835
  873MOL0     H15213  -0.984   0.616   6.614 -1.3995 -1.7839  1.8977
  873MOL0     H15214  -0.993   0.842   6.813  0.7604 -1.6602 -0.3496
  873MOL0     H15215  -0.985   0.875   6.642  1.0488 -1.3360 -3.9661
  873MOL0     H15216  -1.225   0.878   6.716 -1.8710 -0.0632 -0.5975
  873MOL0     H15217  -1.214   0.713   6.779 -0.5068  0.3330 -1.8761
  873MOL0     H15218  -0.134   0.759   6.448 -0.0180 -1.3099  1.0471
  873MOL0     H15219   0.101   0.817   6.419  2.0710 -0.9815  0.9523
  873MOL0     H15220   0.447   1.099   6.665 -0.4685  0.3645 -1.0800
  873MOL0     H15221   0.642   1.241   6.595 -3.0732 -0.3960  1.4295
  873MOL0     H15222   2.154   2.105   5.855  1.8839 -0.1906  0.0175
  873MOL0     H15223   2.376   2.000   5.893  1.0770 -2.0690  0.2858
  873MOL0     H15224   2.641   1.758   6.058  0.7759  1.6840 -0.8517
  873MOL0     H15225   2.889   1.688   6.125 -1.5421  0.3067  1.4714
  873MOL0     H15226   3.036   1.310   5.933  1.4335 -3.1317  0.1561
  873MOL0     H15227   3.052   1.269   6.097 -0.1527  3.6361  4.4188
  873MOL0     H15228   3.271   1.259   6.020  0.6953  0.1992 -0.7286
  873MOL0     H15229   3.257   1.425   5.945 -0.2838  0.0713 -1.0259
  873MOL0     H15230   3.238   1.394   6.243 -0.2707 -3.1953 -0.4829
  873MOL0     H15231   3.248   1.541   6.135  0.2971  0.0178 -1.1794
  873MOL0     H15232   3.475   1.437   6.072 -3.3585 -1.7894 -1.5080
  873MOL0     H15233   3.471   1.533   6.226 -0.9134  0.9302 -0.8837
  873MOL0     H15234   3.537   1.128   6.332  2.1156 -0.1094 -1.0986
  873MOL0     H15235   2.805   1.320   5.913  1.6115  0.0269  0.4257
  873MOL0     H15236   2.603   1.395   5.838  1.8584 -1.4201  0.1638
  874MOL0     O15237   5.594  10.104   1.614 -0.1387  0.1408  0.2688
  874MOL0     C15238   5.647  10.068   1.720  0.0913 -0.1261 -0.2702
  874MOL0     O15239   5.596  10.086   1.841  0.1626  0.5776  0.7039
  874MOL0     C15240   5.477  10.130   1.873  0.5619 -0.2025  0.4832
  874MOL0     C15241   5.433  10.097   2.001 -1.1556  0.7529 -0.7643
  874MOL0     C15242   5.311  10.154   2.044  0.5514  0.0273  0.5147
  874MOL0     C15243   5.233  10.248   1.961 -0.5296  1.0775 -0.3210
  874MOL0     O15244   5.113  10.310   1.989 -0.5698 -0.0483  0.5148
  874MOL0     C15245   5.048  10.294   2.112  0.7214  0.4655 -0.2132
  874MOL0     C15246   4.924  10.383   2.103  0.6634 -0.1743  0.1774
  874MOL0     C15247   4.812  10.378   2.217  0.4548  0.5950  0.3373
  874MOL0     C15248   4.684  10.461   2.187  0.2992 -0.3825 -0.5879
  874MOL0     C15249   4.591  10.470   2.309  0.2879  0.1598 -0.0024
  874MOL0     C15250   4.470  10.544   2.267 -0.2054  0.0294 -0.0205
  874MOL0     C15251   4.364  10.547   2.376  0.0817 -0.1535 -0.3044
  874MOL0     C15252   4.235  10.600   2.327 -1.0168 -0.5057 -0.0597
  874MOL0     N15253   4.119  10.542   2.401 -0.5459  0.2551  0.0619
  874MOL0     C15254   4.100  10.538   2.539 -0.2646 -0.1068 -0.9471
  874MOL0     C15255   4.017  10.431   2.557 -0.0248 -0.1695 -0.6251
  874MOL0     C15256   3.960  10.379   2.690 -0.6016  0.4439  1.3799
  874MOL0     C15257   3.816  10.416   2.703 -0.0931  0.3448 -0.4820
  874MOL0     C15258   3.743  10.287   2.664 -0.0909  0.1130  0.2683
  874MOL0     C15259   3.584  10.285   2.689 -0.6031  0.0632  0.2900
  874MOL0     O15260   3.527  10.392   2.622 -0.0593 -0.4733 -0.0667
  874MOL0     C15261   3.395  10.422   2.649  0.0159 -0.5545  1.1210
  874MOL0     C15262   3.310  10.357   2.737 -0.9684  0.9976 -0.9546
  874MOL0     C15263   3.170  10.385   2.757  0.2754 -0.0757  0.2694
  874MOL0     C15264   3.115  10.498   2.689 -0.5228  0.1329  0.2484
  874MOL0     C15265   2.973  10.538   2.712  0.5334  0.6797 -0.7837
  874MOL0     O15266   2.913  10.484   2.825 -0.2546  0.0669 -0.0824
  874MOL0     C15267   2.781  10.507   2.854  0.9596  0.2657 -0.4307
  874MOL0     C15268   2.738  10.547   2.987 -0.7397 -1.2787  0.2917
  874MOL0     C15269   2.602  10.553   3.025  0.2333  0.2403  0.1409
  874MOL0     C15270   2.501  10.516   2.927  0.4867  0.4736  1.0717
  874MOL0     O15271   2.368  10.525   2.965  0.8065 -0.1225 -0.1919
  874MOL0     C15272   2.268  10.484   2.878  0.4671  0.1720  0.0868
  874MOL0     C15273   2.133  10.486   2.941 -0.0440  0.3808 -0.1398
  874MOL0     C15274   2.061  10.622   2.936  0.0152  0.5174 -0.0754
  874MOL0     C15275   1.910  10.614   2.985  1.1641 -0.0286 -0.0153
  874MOL0     C15276   1.850  10.746   3.025  0.2551 -0.2702  0.7368
  874MOL0     C15277   1.695  10.760   3.001 -0.4639 -0.7613  0.6582
  874MOL0     C15278   1.647  10.890   3.072 -0.4157 -0.2836 -0.5984
  874MOL0     C15279   1.500  10.884   3.099  0.4271  0.0807 -0.4378
  874MOL0    Cl15280   1.458  11.017   3.218  0.4520  0.0296 -0.0989
  874MOL0     C15281   2.549  10.469   2.801  0.7729 -0.6922 -0.4098
  874MOL0     C15282   2.681  10.474   2.761 -0.1928 -0.8108 -0.9298
  874MOL0     O15283   2.926  10.626   2.641  0.3126  0.3917 -0.1201
  874MOL0     C15284   3.200  10.562   2.607 -0.7085 -0.1330 -0.0090
  874MOL0     C15285   3.335  10.533   2.580 -1.0167  0.2098  0.4166
  874MOL0     N15286   3.975  10.394   2.434 -0.4668  0.5591  0.5405
  874MOL0     N15287   4.043  10.448   2.338 -0.0514  0.6683 -0.2045
  874MOL0     C15288   5.282  10.275   1.832  0.6173 -0.3231  0.0498
  874MOL0     C15289   5.401  10.224   1.788  0.0612 -0.8324  0.4673
  874MOL0     C15290   5.777  10.013   1.706  0.1380 -0.1531 -0.7153
  874MOL0     C15291   5.845  10.026   1.592 -0.2447  0.7210 -0.2381
  874MOL0     C15292   5.972   9.964   1.577  0.0583  0.0947 -0.2574
  874MOL0     C15293   6.033   9.900   1.683 -0.4450  0.2923  0.8133
  874MOL0     O15294   6.149   9.820   1.672  0.3760 -0.6931  0.0620
  874MOL0     C15295   6.256   9.866   1.593 -0.3656 -0.8656 -0.0002
  874MOL0     C15296   6.271   9.799   1.460  0.2002  1.4490  1.3088
  874MOL0     C15297   6.319   9.653   1.488  0.4891 -0.3551 -0.1557
  874MOL0     C15298   6.373   9.577   1.366 -0.2284  0.5279  0.0289
  874MOL0     C15299   6.502   9.630   1.310 -0.7544 -0.4435 -0.2142
  874MOL0     C15300   6.608   9.681   1.268  0.0297  1.0765  0.2509
  874MOL0     C15301   5.969   9.892   1.808 -0.2962 -0.1452  0.0434
  874MOL0     C15302   5.846   9.951   1.816 -0.1070  1.1622 -0.0941
  874MOL0     H15303   5.493  10.032   2.065 -0.6946  0.8883 -1.0557
  874MOL0     H15304   5.275  10.131   2.144 -1.2525  2.4956  0.5066
  874MOL0     H15305   5.120  10.332   2.186  1.2777  1.4542 -1.2349
  874MOL0     H15306   5.016  10.193   2.140  1.0657 -0.7318 -3.6815
  874MOL0     H15307   4.867  10.358   2.013  1.5852  1.9103 -1.0656
  874MOL0     H15308   4.952  10.488   2.089 -2.6613  0.8137  0.0999
  874MOL0     H15309   4.865  10.404   2.308  1.7418  3.9777 -1.2083
  874MOL0     H15310   4.786  10.273   2.232 -2.0146  0.8115 -1.7342
  874MOL0     H15311   4.719  10.560   2.157 -0.5361 -0.9835 -3.9448
  874MOL0     H15312   4.634  10.423   2.097 -1.4752  0.4100  0.0154
  874MOL0     H15313   4.634  10.523   2.395 -2.7415  2.8409  0.0745
  874MOL0     H15314   4.558  10.369   2.336 -1.1941  1.0199  1.6474
  874MOL0     H15315   4.430  10.509   2.172 -0.3593 -0.9542  0.3983
  874MOL0     H15316   4.508  10.645   2.248  2.1318  0.3775  4.9353
  874MOL0     H15317   4.362  10.442   2.408 -0.8048  0.0574  0.3875
  874MOL0     H15318   4.401  10.608   2.459  0.1095 -0.9061  0.2494
  874MOL0     H15319   4.227  10.575   2.221 -0.5198  1.9421 -0.7168
  874MOL0     H15320   4.234  10.709   2.337 -0.3371 -0.4821 -0.2210
  874MOL0     H15321   4.149  10.591   2.620 -1.3523  1.5392 -1.3205
  874MOL0     H15322   4.014  10.415   2.778  0.3775  0.1968  0.9041
  874MOL0     H15323   3.977  10.271   2.684 -0.1692  0.5291 -4.2638
  874MOL0     H15324   3.806  10.495   2.628 -2.3663  1.7990  1.1939
  874MOL0     H15325   3.776  10.443   2.802 -1.5669 -0.5581 -0.7972
  874MOL0     H15326   3.775  10.249   2.567  2.4720 -0.7459  1.3676
  874MOL0     H15327   3.783  10.206   2.726  1.1623 -0.4609 -1.2204
  874MOL0     H15328   3.566  10.292   2.796  1.8573  0.8449  0.7292
  874MOL0     H15329   3.540  10.194   2.646 -2.5219  1.0667  0.0653
  874MOL0     H15330   3.353  10.281   2.801  1.1967  1.7670 -1.3762
  874MOL0     H15331   3.108  10.317   2.815 -0.6726  0.0068 -0.6192
  874MOL0     H15332   2.810  10.570   3.066  0.0830  4.5687 -1.6930
  874MOL0     H15333   2.561  10.571   3.124  1.6977  1.0977  0.6248
  874MOL0     H15334   2.285  10.379   2.855  0.1767  0.4323 -1.4302
  874MOL0     H15335   2.268  10.534   2.780 -1.9473 -2.0639 -1.1806
  874MOL0     H15336   2.129  10.448   3.044  1.2917  1.0790  0.1984
  874MOL0     H15337   2.072  10.427   2.872 -1.2785  1.4290  0.0248
  874MOL0     H15338   2.070  10.671   2.838  2.3895  0.6801  0.1617
  874MOL0     H15339   2.119  10.690   2.999 -1.6273  0.9020  1.0834
  874MOL0     H15340   1.848  10.567   2.909 -3.1168  1.7781  2.0399
  874MOL0     H15341   1.904  10.552   3.075 -2.4865  1.0428  0.6591
  874MOL0     H15342   1.902  10.825   2.969 -0.3794 -0.7338 -0.5406
  874MOL0     H15343   1.859  10.757   3.134  1.1320 -2.9502  1.0004
  874MOL0     H15344   1.638  10.674   3.036  0.7843 -1.6846  0.4743
  874MOL0     H15345   1.666  10.764   2.895  0.3088 -2.9749  0.3186
  874MOL0     H15346   1.691  10.881   3.172  0.5906  2.5067 -0.7078
  874MOL0     H15347   1.685  10.980   3.024 -0.3318 -0.4085 -0.7672
  874MOL0     H15348   1.468  10.782   3.120 -1.1476  0.4931 -0.7123
  874MOL0     H15349   1.451  10.911   3.005  0.6581  2.0577 -0.0412
  874MOL0     H15350   2.472  10.438   2.731 -1.5524 -0.8535  2.0603
  874MOL0     H15351   2.709  10.455   2.658 -0.0051 -0.3654 -0.9626
  874MOL0     H15352   3.176  10.652   2.550  1.0760  1.9959  2.3332
  874MOL0     H15353   3.396  10.594   2.514  0.8060  0.3200  2.1272
  874MOL0     H15354   5.223  10.336   1.765  1.4403  0.0664 -0.3305
  874MOL0     H15355   5.444  10.252   1.692  2.0848 -1.4698  1.1581
  874MOL0     H15356   5.803  10.074   1.504  0.0193  0.4420 -0.5181
  874MOL0     H15357   6.016   9.959   1.478  1.1370  0.5457  0.1844
  874MOL0     H15358   6.344   9.857   1.657  0.5060  1.1497 -0.8173
  874MOL0     H15359   6.245   9.971   1.564 -3.5751 -1.6454 -2.1381
  874MOL0     H15360   6.179   9.794   1.402  1.9138 -0.5631 -1.4854
  874MOL0     H15361   6.350   9.846   1.401  3.4811  1.1225  5.0164
  874MOL0     H15362   6.233   9.600   1.530  0.3210  1.5067  2.0503
  874MOL0     H15363   6.406   9.659   1.554  0.0208  1.8648  0.3301
  874MOL0     H15364   6.397   9.478   1.405  0.1431 -1.0058 -3.6836
  874MOL0     H15365   6.308   9.558   1.281 -0.3814 -0.9338  0.4405
  874MOL0     H15366   6.701   9.719   1.231  1.5050  0.3117  2.9449
  874MOL0     H15367   6.017   9.855   1.898 -0.2626 -1.7843 -0.6124
  874MOL0     H15368   5.798   9.954   1.914 -1.7928 -0.0613 -0.8457
  875MOL0     O15369   5.890   2.524   4.142 -0.2391  0.2588  0.2036
  875MOL0     C15370   5.997   2.579   4.125  0.0983  0.9861  0.6200
  875MOL0     O15371   6.019   2.649   4.015 -0.2686  0.3100 -0.5715
  875MOL0     C15372   5.921   2.690   3.934 -0.8013  0.0145 -0.2406
  875MOL0     C15373   5.964   2.733   3.809  0.2642  0.4811  0.2033
  875MOL0     C15374   5.876   2.802   3.730  0.2109 -0.6008  0.5898
  875MOL0     C15375   5.747   2.838   3.760  0.2277  0.3249  0.3287
  875MOL0     O15376   5.664   2.913   3.682  0.3681 -0.1704  0.1933
  875MOL0     C15377   5.694   2.937   3.544  0.3879 -0.3529 -0.1375
  875MOL0     C15378   5.592   3.026   3.480 -0.1837 -0.8562 -0.0757
  875MOL0     C15379   5.437   3.008   3.521 -0.6839  1.1226 -0.1598
  875MOL0     C15380   5.366   3.126   3.462  0.6953  0.7366  0.2209
  875MOL0     C15381   5.216   3.130   3.497 -0.5436 -0.5697 -0.2804
  875MOL0     C15382   5.144   3.017   3.420  0.9234  0.4091  0.9316
  875MOL0     C15383   4.992   3.021   3.426 -0.5521 -0.4450  0.1599
  875MOL0     C15384   4.943   3.096   3.306 -0.3866 -0.1074 -0.4912
  875MOL0     N15385   4.800   3.146   3.326  0.2819  1.4878 -0.4728
  875MOL0     C15386   4.763   3.273   3.374  0.2522 -0.5074  0.2124
  875MOL0     C15387   4.631   3.261   3.393  0.4594  0.2996  0.4011
  875MOL0     C15388   4.528   3.364   3.453 -0.6577  0.2573  0.1056
  875MOL0     C15389   4.571   3.507   3.426 -0.3090  0.4733  0.4367
  875MOL0     C15390   4.578   3.550   3.275 -0.4105  0.1760  0.0916
  875MOL0     C15391   4.441   3.534   3.214  0.7036 -0.5395  0.0015
  875MOL0     O15392   4.335   3.584   3.289  0.0126  0.4012 -0.1964
  875MOL0     C15393   4.207   3.549   3.251  0.1656  0.4015 -1.0086
  875MOL0     C15394   4.178   3.479   3.133  0.1943 -0.3869  0.2746
  875MOL0     C15395   4.044   3.458   3.096  0.7374 -0.2726  0.7949
  875MOL0     C15396   3.936   3.521   3.163 -0.8358  0.1878  0.3706
  875MOL0     C15397   3.803   3.493   3.116 -0.2272 -0.3571 -0.1050
  875MOL0     O15398   3.713   3.577   3.157  0.4216  0.6425 -0.4034
  875MOL0     C15399   3.581   3.540   3.170  1.1403 -0.8639 -0.7401
  875MOL0     C15400   3.488   3.637   3.142  0.6224  0.1298 -0.0593
  875MOL0     C15401   3.349   3.615   3.150 -0.7379 -0.1917  0.3315
  875MOL0     C15402   3.302   3.486   3.187  0.3235 -0.1341  0.0683
  875MOL0     O15403   3.167   3.462   3.181  0.1319  0.3596 -0.1492
  875MOL0     C15404   3.138   3.388   3.061  0.2878 -0.1843 -0.3047
  875MOL0     C15405   2.982   3.407   3.043 -0.4228  0.5601 -0.0882
  875MOL0     C15406   2.890   3.343   3.164 -0.3716 -0.8915  0.5363
  875MOL0     C15407   2.747   3.403   3.164 -0.2285 -0.1480  0.2974
  875MOL0     C15408   2.644   3.334   3.243  0.1620 -0.2170 -0.0840
  875MOL0     C15409   2.615   3.181   3.193 -0.6661 -0.2546 -0.3770
  875MOL0     C15410   2.676   3.087   3.298  0.4699  0.1108 -0.2089
  875MOL0     C15411   2.564   3.049   3.392  0.5150 -1.1382  0.2415
  875MOL0    Cl15412   2.485   2.903   3.325  0.0299 -0.1470  0.0549
  875MOL0     C15413   3.386   3.386   3.223  0.7161  0.1967 -0.3238
  875MOL0     C15414   3.528   3.411   3.216 -1.0338  1.0774  0.6795
  875MOL0     O15415   3.787   3.395   3.039 -0.3769 -0.2522 -0.5287
  875MOL0     C15416   3.969   3.588   3.289 -0.6699  0.0277 -0.4856
  875MOL0     C15417   4.100   3.601   3.332 -0.7878 -0.5753  0.5648
  875MOL0     N15418   4.594   3.139   3.335 -0.1621 -0.0095 -0.4710
  875MOL0     N15419   4.690   3.065   3.296  0.2000 -1.0340 -0.3456
  875MOL0     C15420   5.703   2.792   3.885  0.2434 -0.1173 -0.9773
  875MOL0     C15421   5.789   2.725   3.977  0.4781  0.5086  0.9903
  875MOL0     C15422   6.101   2.553   4.226 -0.0694  0.3530 -0.0528
  875MOL0     C15423   6.234   2.592   4.209 -0.1379 -0.2232  0.1571
  875MOL0     C15424   6.321   2.585   4.320  0.3133  0.8611  0.7029
  875MOL0     C15425   6.290   2.532   4.439  0.1727 -0.9842 -0.3472
  875MOL0     O15426   6.393   2.533   4.534 -0.9465 -0.3041  0.9608
  875MOL0     C15427   6.358   2.467   4.658 -0.0171  0.3911  0.1105
  875MOL0     C15428   6.473   2.468   4.760  0.7032  0.3822 -0.5691
  875MOL0     C15429   6.605   2.413   4.703  0.3042  0.2379 -0.7457
  875MOL0     C15430   6.592   2.267   4.676 -0.8525  0.6218  0.0430
  875MOL0     C15431   6.731   2.218   4.637 -0.4969  0.3096 -0.0816
  875MOL0     C15432   6.846   2.193   4.603  0.4526 -0.0564  0.7358
  875MOL0     C15433   6.158   2.484   4.464 -0.6424 -0.1952 -0.4434
  875MOL0     C15434   6.062   2.495   4.358  0.7992 -1.0247 -0.2148
  875MOL0     H15435   6.066   2.707   3.783  0.7742  2.5027  0.0141
  875MOL0     H15436   5.933   2.842   3.646  1.7055 -2.1035  0.8450
  875MOL0     H15437   5.702   2.844   3.488  0.2398 -0.1695 -0.4681
  875MOL0     H15438   5.792   2.985   3.539  0.3891 -0.0213  2.0052
  875MOL0     H15439   5.599   3.022   3.371 -1.5877 -2.7931 -0.1448
  875MOL0     H15440   5.615   3.131   3.501  1.1524 -1.6455  3.1448
  875MOL0     H15441   5.424   3.019   3.629 -0.0537 -0.3340  0.0859
  875MOL0     H15442   5.399   2.912   3.483 -1.3263  2.0149 -1.8860
  875MOL0     H15443   5.418   3.215   3.498  1.0394  0.7061 -0.1840
  875MOL0     H15444   5.389   3.125   3.355 -1.0769  1.2913 -0.1965
  875MOL0     H15445   5.184   3.233   3.478 -1.0127 -1.0691 -2.5113
  875MOL0     H15446   5.213   3.112   3.605 -1.7075 -2.5197 -0.5977
  875MOL0     H15447   5.167   2.911   3.439  4.8063  0.1857 -3.2629
  875MOL0     H15448   5.184   3.026   3.319  0.6473 -2.4267  0.4680
  875MOL0     H15449   4.944   2.923   3.429  0.5713 -1.0757 -1.1203
  875MOL0     H15450   4.961   3.068   3.519  0.8739 -1.8493  1.4149
  875MOL0     H15451   4.950   3.032   3.217 -2.2665 -0.2374 -0.5858
  875MOL0     H15452   5.011   3.179   3.286  1.6069 -1.8644 -1.3678
  875MOL0     H15453   4.823   3.360   3.398  1.1509 -0.3200 -2.3656
  875MOL0     H15454   4.523   3.351   3.561 -2.0917  0.9684  0.1388
  875MOL0     H15455   4.427   3.349   3.415 -1.3794 -3.0001  2.7876
  875MOL0     H15456   4.666   3.535   3.471  0.1437  1.4883 -1.0554
  875MOL0     H15457   4.500   3.580   3.465 -1.2312  0.2780 -0.8118
  875MOL0     H15458   4.611   3.655   3.272 -1.4192  0.5897  1.8600
  875MOL0     H15459   4.654   3.486   3.231 -1.6607 -1.6074  0.4133
  875MOL0     H15460   4.431   3.427   3.194 -1.8193 -0.4528  0.5202
  875MOL0     H15461   4.448   3.580   3.114 -2.4291 -2.1460 -1.0814
  875MOL0     H15462   4.256   3.433   3.073 -0.8626  0.3974 -1.8183
  875MOL0     H15463   4.026   3.379   3.023  2.9254  1.8820 -2.3202
  875MOL0     H15464   3.541   3.731   3.130  1.6877 -0.1707  1.8728
  875MOL0     H15465   3.278   3.684   3.104 -1.3188 -0.0860  1.3491
  875MOL0     H15466   3.164   3.284   3.083  3.3367  0.4273 -0.6257
  875MOL0     H15467   3.183   3.435   2.973  1.1953  1.6505  1.0517
  875MOL0     H15468   2.947   3.380   2.943 -1.0609 -1.2334  0.5736
  875MOL0     H15469   2.960   3.513   3.055 -0.5904  0.6792 -1.2809
  875MOL0     H15470   2.945   3.366   3.256  0.8620 -0.9075 -0.1733
  875MOL0     H15471   2.884   3.235   3.155 -1.1463 -1.2105  3.8188
  875MOL0     H15472   2.761   3.506   3.198  1.9705 -0.4822  0.5561
  875MOL0     H15473   2.715   3.415   3.060 -0.6957  2.3317  0.6679
  875MOL0     H15474   2.549   3.387   3.233  0.5999  0.7763  0.8918
  875MOL0     H15475   2.664   3.336   3.350 -0.7788  0.3618  0.0931
  875MOL0     H15476   2.670   3.163   3.100 -0.9398  1.7494 -0.9732
  875MOL0     H15477   2.509   3.162   3.179 -1.5764  2.8698  1.3469
  875MOL0     H15478   2.709   2.993   3.253 -1.7482 -2.3145  2.8245
  875MOL0     H15479   2.762   3.133   3.349  0.6071 -1.2750  0.8968
  875MOL0     H15480   2.489   3.126   3.414  0.3406 -1.4245  0.6656
  875MOL0     H15481   2.612   3.036   3.489  1.0412 -0.5849  0.0619
  875MOL0     H15482   3.359   3.287   3.258  2.6823 -0.6069 -0.8857
  875MOL0     H15483   3.586   3.322   3.235  0.8524  1.4195 -2.7163
  875MOL0     H15484   3.890   3.640   3.343  1.5629  1.5604  1.5156
  875MOL0     H15485   4.130   3.663   3.416  1.4204  0.0698 -0.6220
  875MOL0     H15486   5.600   2.809   3.912  0.7777  1.1984  0.4021
  875MOL0     H15487   5.750   2.708   4.077  0.0889  0.8546  0.8997
  875MOL0     H15488   6.261   2.633   4.112 -1.9376  0.9099  0.0874
  875MOL0     H15489   6.424   2.617   4.306 -0.2720  2.2921 -0.7210
  875MOL0     H15490   6.314   2.367   4.659 -1.9046  1.1696 -1.0055
  875MOL0     H15491   6.280   2.530   4.701 -0.3338  0.1656 -0.1304
  875MOL0     H15492   6.491   2.570   4.795  0.3364 -1.2681  5.5261
  875MOL0     H15493   6.446   2.421   4.855  1.2419  2.8838  0.9126
  875MOL0     H15494   6.695   2.432   4.763  1.2177  1.4701 -2.4107
  875MOL0     H15495   6.631   2.473   4.615  0.4775 -0.2095 -1.0058
  875MOL0     H15496   6.556   2.215   4.765 -1.0663  0.6205 -0.0419
  875MOL0     H15497   6.514   2.249   4.602  0.0756  0.2228 -0.8672
  875MOL0     H15498   6.940   2.153   4.570 -0.1655  0.3125 -1.6459
  875MOL0     H15499   6.137   2.451   4.565  1.3864  1.7117  0.7005
  875MOL0     H15500   5.958   2.465   4.371  0.0853  2.1037  2.9647
  876MOL0     O15501   6.397   8.388   0.833 -0.3492 -0.2845 -0.6907
  876MOL0     C15502   6.415   8.277   0.782  0.1830 -0.9710  1.3298
  876MOL0     O15503   6.333   8.167   0.782  0.9988 -0.0121  0.3696
  876MOL0     C15504   6.225   8.179   0.865 -0.3935  0.5756 -0.6334
  876MOL0     C15505   6.228   8.090   0.970 -0.4861  0.5667 -0.3667
  876MOL0     C15506   6.121   8.077   1.053 -0.6409 -0.2137 -0.2870
  876MOL0     C15507   6.007   8.145   1.044 -0.5250 -0.5269  0.0089
  876MOL0     O15508   5.901   8.105   1.125  0.8176  0.7335 -0.2870
  876MOL0     C15509   5.836   8.228   1.165  0.2933  0.2507 -0.9045
  876MOL0     C15510   5.747   8.217   1.289  0.3743 -0.1798 -0.3195
  876MOL0     C15511   5.797   8.105   1.385  0.4454 -0.0755  0.6551
  876MOL0     C15512   5.931   8.121   1.440  0.8106 -0.1679 -0.2403
  876MOL0     C15513   5.975   7.993   1.516 -1.1000  0.4029  0.5960
  876MOL0     C15514   5.891   7.954   1.636  0.2394 -0.2006  0.3615
  876MOL0     C15515   5.962   7.841   1.708  0.4006 -0.5149 -0.2327
  876MOL0     C15516   5.891   7.820   1.839  0.1934  0.1145 -0.0800
  876MOL0     N15517   5.846   7.680   1.860  0.2463 -0.3148 -0.1874
  876MOL0     C15518   5.709   7.646   1.849 -0.0895 -0.0853 -0.3301
  876MOL0     C15519   5.696   7.529   1.910  0.5621 -0.0730  0.3885
  876MOL0     C15520   5.567   7.448   1.928 -0.2161 -0.0012 -0.0231
  876MOL0     C15521   5.451   7.541   1.956 -0.5679 -0.5447 -0.8061
  876MOL0     C15522   5.321   7.456   1.954 -0.0802  0.5601 -0.3348
  876MOL0     C15523   5.218   7.520   2.048  0.7158  0.2935  0.6777
  876MOL0     O15524   5.100   7.432   2.027 -0.0632  0.0210  0.6680
  876MOL0     C15525   4.986   7.454   2.103 -1.2991 -0.2636  0.1580
  876MOL0     C15526   4.971   7.570   2.177  0.1395  0.3393  0.4995
  876MOL0     C15527   4.845   7.590   2.238 -0.2569  0.3136 -0.1181
  876MOL0     C15528   4.749   7.493   2.238  0.2630  0.1464  0.1020
  876MOL0     C15529   4.613   7.524   2.284  0.1794  0.6243  0.4377
  876MOL0     O15530   4.594   7.647   2.342  0.4456  0.0544  0.5146
  876MOL0     C15531   4.464   7.685   2.375 -0.7461 -0.2120  1.2119
  876MOL0     C15532   4.404   7.788   2.307 -0.4050 -0.4431  0.1824
  876MOL0     C15533   4.271   7.813   2.328  1.0346  0.6553  1.1100
  876MOL0     C15534   4.203   7.743   2.434 -0.9730 -0.2909 -0.5451
  876MOL0     O15535   4.073   7.753   2.462  0.2717 -0.4208  0.6534
  876MOL0     C15536   4.004   7.874   2.422  0.8582 -0.3432 -0.3152
  876MOL0     C15537   3.872   7.901   2.497 -0.0036 -0.0843 -0.1536
  876MOL0     C15538   3.768   7.787   2.464 -0.0132 -0.6353 -0.1557
  876MOL0     C15539   3.624   7.847   2.469  0.5123  0.6730 -0.3510
  876MOL0     C15540   3.507   7.757   2.437 -0.3508  0.0574 -0.5020
  876MOL0     C15541   3.373   7.820   2.435  0.5592  0.1988 -0.1065
  876MOL0     C15542   3.287   7.768   2.313  0.1832 -0.3802  0.4214
  876MOL0     C15543   3.149   7.838   2.294 -0.2649 -0.2640 -1.0026
  876MOL0    Cl15544   3.048   7.779   2.436  0.5754  0.2715 -0.2664
  876MOL0     C15545   4.278   7.643   2.504  0.4576 -0.2814  0.5639
  876MOL0     C15546   4.405   7.613   2.472  0.0925  0.5358 -0.0258
  876MOL0     O15547   4.523   7.442   2.254  1.0377 -0.1982  0.3074
  876MOL0     C15548   4.779   7.379   2.165  0.0954  0.3795  0.5302
  876MOL0     C15549   4.894   7.357   2.098  0.4764 -0.5196  0.3351
  876MOL0     N15550   5.817   7.495   1.962  0.1420  0.0255  0.0993
  876MOL0     N15551   5.910   7.588   1.938  0.4394 -0.3529  0.7518
  876MOL0     C15552   6.003   8.237   0.938  0.9584  0.0428 -0.7601
  876MOL0     C15553   6.111   8.258   0.850 -0.9019  0.6448  0.2144
  876MOL0     C15554   6.540   8.265   0.705 -0.1063  1.3348 -0.5449
  876MOL0     C15555   6.540   8.175   0.599 -0.1305  0.6071  0.2098
  876MOL0     C15556   6.654   8.158   0.525 -0.2681  0.9580 -0.2994
  876MOL0     C15557   6.771   8.215   0.566  0.5453  0.6270  0.5228
  876MOL0     O15558   6.883   8.176   0.491  0.6693  0.4137 -0.5835
  876MOL0     C15559   6.999   8.251   0.492  0.6656  1.4586 -0.8619
  876MOL0     C15560   7.099   8.209   0.380 -1.1475  0.1282 -0.1652
  876MOL0     C15561   7.234   8.290   0.403  0.9268  0.2884  0.9940
  876MOL0     C15562   7.345   8.207   0.339 -0.5172 -0.6303  0.2456
  876MOL0     C15563   7.471   8.285   0.357  0.1084 -0.5071  0.4895
  876MOL0     C15564   7.583   8.333   0.375  0.0560  0.0360 -0.0391
  876MOL0     C15565   6.769   8.315   0.665 -0.7271 -0.1533 -0.4363
  876MOL0     C15566   6.653   8.337   0.737 -0.7320 -0.3671  0.1884
  876MOL0     H15567   6.324   8.038   0.977  2.4155  5.2992 -0.4449
  876MOL0     H15568   6.132   7.998   1.127  1.8490  0.3701  0.0446
  876MOL0     H15569   5.777   8.278   1.088  0.9170  0.8805 -0.9908
  876MOL0     H15570   5.910   8.307   1.185 -3.5749  3.2896  3.6165
  876MOL0     H15571   5.641   8.198   1.270 -0.2554  2.3072  0.4173
  876MOL0     H15572   5.753   8.314   1.339 -0.8287  0.3079 -1.1000
  876MOL0     H15573   5.796   8.012   1.327 -1.5651 -0.2747  0.9166
  876MOL0     H15574   5.726   8.078   1.464 -0.3372 -1.5771 -0.5039
  876MOL0     H15575   6.007   8.137   1.363  1.8942 -0.1839  0.8028
  876MOL0     H15576   5.929   8.211   1.502  2.2331  0.4964 -1.1012
  876MOL0     H15577   6.081   7.995   1.543 -0.5617 -4.6130 -0.3269
  876MOL0     H15578   5.970   7.907   1.450  0.5668  0.2466  0.6315
  876MOL0     H15579   5.788   7.930   1.609 -0.4538  1.3123  1.5712
  876MOL0     H15580   5.890   8.045   1.696  1.5885  0.2857 -0.3193
  876MOL0     H15581   5.952   7.761   1.634  0.1656  1.5472 -2.5641
  876MOL0     H15582   6.069   7.861   1.719  0.5924 -2.0633  1.1157
  876MOL0     H15583   5.807   7.889   1.838  1.0015  1.1351  0.5150
  876MOL0     H15584   5.963   7.834   1.920  0.3369  1.3468 -0.3960
  876MOL0     H15585   5.632   7.703   1.798 -0.4956 -0.9789 -0.7330
  876MOL0     H15586   5.583   7.385   2.017 -0.1690 -0.1927 -0.1662
  876MOL0     H15587   5.552   7.388   1.838  2.4946  0.1885 -0.6724
  876MOL0     H15588   5.445   7.614   1.875 -0.9198 -0.0314 -0.3255
  876MOL0     H15589   5.461   7.585   2.056 -0.6332 -3.5500  0.6358
  876MOL0     H15590   5.278   7.446   1.853 -1.0470  0.4531  0.0750
  876MOL0     H15591   5.346   7.355   1.987 -1.6031 -0.5664 -2.3788
  876MOL0     H15592   5.204   7.618   2.002 -2.2824 -1.1750 -1.8593
  876MOL0     H15593   5.271   7.515   2.144  3.4515 -1.1054 -0.7808
  876MOL0     H15594   5.051   7.641   2.194 -0.1323  1.4742 -2.3452
  876MOL0     H15595   4.831   7.684   2.290 -1.4788  0.0374  0.0684
  876MOL0     H15596   4.467   7.849   2.242  0.1720 -2.2033 -0.9880
  876MOL0     H15597   4.219   7.882   2.262 -0.0589 -1.4774 -0.3575
  876MOL0     H15598   3.982   7.883   2.315  2.4980 -0.6830 -0.7189
  876MOL0     H15599   4.066   7.956   2.459  2.0585 -0.4657 -1.9471
  876MOL0     H15600   3.839   8.003   2.477  2.3045  1.1492  1.7492
  876MOL0     H15601   3.893   7.894   2.605  1.1792 -1.0806 -0.4251
  876MOL0     H15602   3.785   7.708   2.538  4.4991  1.6138  1.5762
  876MOL0     H15603   3.780   7.751   2.362 -2.7949  1.3166 -1.3110
  876MOL0     H15604   3.606   7.883   2.571  1.4895 -2.2650  0.9786
  876MOL0     H15605   3.628   7.928   2.396  0.0692  0.3781 -0.7071
  876MOL0     H15606   3.507   7.677   2.511 -1.5413  1.4520  1.0686
  876MOL0     H15607   3.522   7.723   2.334 -1.2177  2.8849 -1.6632
  876MOL0     H15608   3.380   7.929   2.437 -0.4946  0.2551  1.0196
  876MOL0     H15609   3.322   7.793   2.528  0.4877 -0.8010 -0.4208
  876MOL0     H15610   3.344   7.800   2.225 -1.4886 -0.4907 -0.7453
  876MOL0     H15611   3.265   7.661   2.310 -1.7257 -0.0085 -0.3657
  876MOL0     H15612   3.108   7.843   2.192 -4.4819 -0.8613  0.4653
  876MOL0     H15613   3.153   7.942   2.327 -1.3604 -1.4508  3.4912
  876MOL0     H15614   4.240   7.579   2.583  1.9009 -1.4767  0.3412
  876MOL0     H15615   4.468   7.547   2.530 -0.9639 -1.7109 -1.2985
  876MOL0     H15616   4.715   7.291   2.163 -0.3976  0.7381 -0.4883
  876MOL0     H15617   4.912   7.265   2.042 -4.3223 -1.1737 -0.5289
  876MOL0     H15618   5.916   8.301   0.924 -0.3242 -1.4067  0.2871
  876MOL0     H15619   6.094   8.320   0.762  1.1350 -0.3970 -0.9928
  876MOL0     H15620   6.448   8.125   0.571 -0.9485  1.5691  1.1063
  876MOL0     H15621   6.652   8.098   0.436 -1.2639 -1.3405  1.1853
  876MOL0     H15622   7.037   8.236   0.593 -3.4208 -1.0747  0.5465
  876MOL0     H15623   6.970   8.357   0.491 -3.9434  0.4052 -2.0073
  876MOL0     H15624   7.118   8.102   0.389  2.1415  0.6265  0.0439
  876MOL0     H15625   7.052   8.221   0.282  1.2206 -1.1675 -1.5351
  876MOL0     H15626   7.266   8.289   0.508  3.6960 -2.2450  0.2523
  876MOL0     H15627   7.229   8.388   0.353  0.8627  0.6046  1.6035
  876MOL0     H15628   7.343   8.109   0.387 -1.2899  0.0337  1.6624
  876MOL0     H15629   7.319   8.206   0.233 -2.4453 -0.4947  0.6624
  876MOL0     H15630   7.682   8.366   0.400  1.0368 -2.4087 -0.4262
  876MOL0     H15631   6.860   8.363   0.700 -0.5863 -1.0348  0.4745
  876MOL0     H15632   6.655   8.411   0.816 -1.5951  0.0117 -0.1375
  877MOL0     O15633   7.740   4.133   1.574 -0.1394 -0.8368  0.4588
  877MOL0     C15634   7.779   4.230   1.508  0.1203  0.0210  0.1940
  877MOL0     O15635   7.712   4.286   1.402 -0.2521  0.0020  0.5481
  877MOL0     C15636   7.614   4.212   1.337  0.4077  0.2722  0.3696
  877MOL0     C15637   7.617   4.070   1.315 -0.9034  0.0199  0.7641
  877MOL0     C15638   7.510   4.012   1.242  0.0486 -0.6134 -0.2429
  877MOL0     C15639   7.403   4.082   1.194  0.1276  0.4955 -0.2889
  877MOL0     O15640   7.306   4.014   1.122  1.0044  0.4006  0.2825
  877MOL0     C15641   7.185   4.081   1.072 -0.1835 -0.1413  0.1622
  877MOL0     C15642   7.087   3.992   1.008  0.2655 -0.2820  0.3712
  877MOL0     C15643   7.048   3.856   1.077 -0.0144  0.2465  0.9119
  877MOL0     C15644   6.926   3.878   1.174  0.5516  0.1392 -0.8581
  877MOL0     C15645   6.908   3.758   1.262  0.2944 -1.0816 -0.0503
  877MOL0     C15646   6.763   3.742   1.319 -0.0880 -0.1633  0.0746
  877MOL0     C15647   6.780   3.647   1.432  0.1382 -0.0174  0.0637
  877MOL0     C15648   6.652   3.591   1.489 -0.1442  0.0312  0.1379
  877MOL0     N15649   6.611   3.463   1.421 -0.7912  0.3704 -0.3341
  877MOL0     C15650   6.541   3.441   1.307  0.3574  0.4923  0.6413
  877MOL0     C15651   6.550   3.312   1.264 -1.1214 -0.3616 -0.6080
  877MOL0     C15652   6.484   3.248   1.137  0.4855  0.1771  0.0111
  877MOL0     C15653   6.366   3.158   1.179  0.0752  0.4429  0.0365
  877MOL0     C15654   6.265   3.245   1.241  0.4752 -0.7258  0.3060
  877MOL0     C15655   6.202   3.345   1.149 -0.1311  0.4288 -0.3322
  877MOL0     O15656   6.092   3.405   1.224 -0.7934 -0.6099 -0.1529
  877MOL0     C15657   5.969   3.427   1.166  0.6089  0.7619 -0.2520
  877MOL0     C15658   5.886   3.502   1.251  0.8425  0.7541 -0.0447
  877MOL0     C15659   5.756   3.532   1.209 -0.1353 -0.0251  0.2700
  877MOL0     C15660   5.713   3.493   1.084  0.1330  0.4162 -0.0596
  877MOL0     C15661   5.570   3.494   1.055  0.6897 -0.7828  0.5200
  877MOL0     O15662   5.484   3.508   1.164 -0.4936 -0.1219 -0.5160
  877MOL0     C15663   5.348   3.518   1.133 -0.2790 -0.1825 -0.3791
  877MOL0     C15664   5.289   3.649   1.125 -0.1020  0.7192 -1.0228
  877MOL0     C15665   5.150   3.655   1.097 -0.5695  0.0151  0.9283
  877MOL0     C15666   5.072   3.541   1.085  0.4365  0.2841 -0.2523
  877MOL0     O15667   4.935   3.562   1.080  0.4509  0.1768  0.2095
  877MOL0     C15668   4.849   3.456   1.044  0.2951 -0.0913 -0.3121
  877MOL0     C15669   4.711   3.502   1.008  0.0527 -0.2402  0.9485
  877MOL0     C15670   4.720   3.622   0.911  0.6748 -0.5728  0.3730
  877MOL0     C15671   4.584   3.645   0.843 -0.6707  0.6309  0.2738
  877MOL0     C15672   4.581   3.719   0.711  0.1309 -0.6026  0.0220
  877MOL0     C15673   4.432   3.755   0.673 -0.8527 -0.3052 -0.6338
  877MOL0     C15674   4.426   3.817   0.532  0.1736  0.9292 -0.5053
  877MOL0     C15675   4.312   3.913   0.506  0.7443 -0.0021  0.8536
  877MOL0    Cl15676   4.154   3.885   0.573  0.1445  0.1164 -0.0673
  877MOL0     C15677   5.134   3.415   1.086  0.6424 -0.0528 -0.3273
  877MOL0     C15678   5.270   3.405   1.118  0.1539 -0.7602  0.0573
  877MOL0     O15679   5.534   3.481   0.934  0.1473  0.8975 -0.7511
  877MOL0     C15680   5.798   3.421   1.001  0.3273  0.3826  0.1518
  877MOL0     C15681   5.928   3.382   1.039 -0.0566 -0.9738 -1.1477
  877MOL0     N15682   6.631   3.257   1.365 -0.1307  0.0847  0.2040
  877MOL0     N15683   6.671   3.343   1.446  0.2031 -0.6596 -0.3861
  877MOL0     C15684   7.404   4.223   1.222 -0.1604  0.0079 -0.0684
  877MOL0     C15685   7.507   4.290   1.293  1.1636  1.3024  0.1491
  877MOL0     C15686   7.912   4.284   1.543 -0.0940  1.1727 -0.1584
  877MOL0     C15687   8.002   4.231   1.638  0.2133 -0.5752 -0.2268
  877MOL0     C15688   8.129   4.287   1.665 -0.4454  0.5629 -0.5870
  877MOL0     C15689   8.171   4.395   1.603 -0.4057 -0.7051  0.3674
  877MOL0     O15690   8.282   4.458   1.634 -0.0748 -0.0935 -0.3511
  877MOL0     C15691   8.349   4.447   1.771 -0.4078 -0.2860 -0.9735
  877MOL0     C15692   8.435   4.568   1.790  0.0126  0.4849 -0.1179
  877MOL0     C15693   8.509   4.532   1.917  0.0931  0.2267  0.0024
  877MOL0     C15694   8.611   4.641   1.952  0.3900 -0.0904  0.1325
  877MOL0     C15695   8.720   4.651   1.850 -0.6795 -0.1693 -0.2070
  877MOL0     C15696   8.810   4.673   1.774 -0.4028  0.0333  0.4780
  877MOL0     C15697   8.092   4.450   1.504 -0.0787 -0.5349 -1.2148
  877MOL0     C15698   7.962   4.398   1.472 -0.8770  0.1839 -0.0933
  877MOL0     H15699   7.699   4.006   1.343 -0.9052 -0.8594 -1.1028
  877MOL0     H15700   7.511   3.903   1.237  0.5325 -0.6084 -0.2701
  877MOL0     H15701   7.216   4.157   1.000  0.7733 -1.5529 -0.9817
  877MOL0     H15702   7.131   4.121   1.159 -1.2921 -0.6712 -0.2792
  877MOL0     H15703   7.125   3.963   0.910 -1.5221 -4.3921  0.6973
  877MOL0     H15704   7.000   4.056   0.989  1.3003  0.7450 -1.1016
  877MOL0     H15705   7.129   3.808   1.133 -1.7676 -1.4647  2.0797
  877MOL0     H15706   7.017   3.790   0.996  1.0906  2.6008 -1.5629
  877MOL0     H15707   6.944   3.971   1.228  0.2221  0.7740 -1.8115
  877MOL0     H15708   6.827   3.896   1.131  0.7527  1.7640 -0.6904
  877MOL0     H15709   6.975   3.759   1.348 -1.7688  0.2706  1.6591
  877MOL0     H15710   6.923   3.673   1.195 -0.8646 -0.3479 -1.3025
  877MOL0     H15711   6.702   3.705   1.236  1.0370  0.5817 -1.1230
  877MOL0     H15712   6.713   3.835   1.349  2.3480  1.5682 -0.8913
  877MOL0     H15713   6.838   3.556   1.412 -0.6696 -0.1703 -1.7592
  877MOL0     H15714   6.818   3.697   1.522 -0.0547 -0.3047  0.3075
  877MOL0     H15715   6.574   3.664   1.463  0.2674  0.0880 -1.0079
  877MOL0     H15716   6.656   3.592   1.598  1.6572  0.7622  0.0983
  877MOL0     H15717   6.481   3.513   1.251  0.5050 -1.1651 -1.8466
  877MOL0     H15718   6.564   3.188   1.094  0.8177  1.6216 -1.4864
  877MOL0     H15719   6.459   3.316   1.055  0.6910 -0.0494 -0.2369
  877MOL0     H15720   6.401   3.077   1.243 -2.8989 -0.2572  0.9258
  877MOL0     H15721   6.320   3.114   1.090 -0.5470  0.4149  0.3718
  877MOL0     H15722   6.180   3.181   1.268  2.0344 -3.2743 -0.5292
  877MOL0     H15723   6.309   3.287   1.332 -1.1832  0.4833  0.5993
  877MOL0     H15724   6.171   3.291   1.060  3.0145  0.3805 -1.5044
  877MOL0     H15725   6.274   3.423   1.123  0.5684  1.0025  2.8883
  877MOL0     H15726   5.919   3.548   1.344  0.5169  0.1606  0.3772
  877MOL0     H15727   5.702   3.582   1.288  0.6202 -0.2195  0.9218
  877MOL0     H15728   5.340   3.742   1.147 -0.3537  0.0520  3.2378
  877MOL0     H15729   5.095   3.749   1.098  1.5014  1.3497 -1.2709
  877MOL0     H15730   4.834   3.384   1.125 -0.0102 -2.6920 -2.5523
  877MOL0     H15731   4.883   3.408   0.952 -3.6394  2.2683 -3.3610
  877MOL0     H15732   4.667   3.535   1.103 -3.5550  1.5361 -1.1370
  877MOL0     H15733   4.659   3.421   0.957 -0.7555  0.7749  0.1247
  877MOL0     H15734   4.805   3.602   0.845  0.1138  1.0269 -0.9053
  877MOL0     H15735   4.736   3.712   0.971  0.4825 -0.3829  0.1415
  877MOL0     H15736   4.553   3.542   0.820  1.1958 -0.7290  3.2735
  877MOL0     H15737   4.517   3.679   0.922  1.2335  1.6176  1.5417
  877MOL0     H15738   4.639   3.664   0.636  3.8238  1.5743  0.9961
  877MOL0     H15739   4.632   3.816   0.715 -0.9440  0.0321 -1.0821
  877MOL0     H15740   4.383   3.826   0.741 -1.2631 -0.0701 -1.1587
  877MOL0     H15741   4.368   3.666   0.677 -0.6445 -0.4228  0.2675
  877MOL0     H15742   4.514   3.879   0.513  0.2598  1.4409  1.3658
  877MOL0     H15743   4.401   3.735   0.464  1.8833  1.5116 -1.9148
  877MOL0     H15744   4.306   3.917   0.397 -1.5588 -1.5648  0.8680
  877MOL0     H15745   4.336   4.016   0.535 -0.6220  2.0117 -4.1803
  877MOL0     H15746   5.074   3.324   1.078  0.9167 -0.5285  2.1033
  877MOL0     H15747   5.315   3.307   1.124 -0.0528 -0.9796 -1.6142
  877MOL0     H15748   5.757   3.365   0.917  0.6017  1.6044 -0.8297
  877MOL0     H15749   5.990   3.326   0.969 -1.7784 -1.9553 -1.9509
  877MOL0     H15750   7.336   4.290   1.169  2.4955  0.3925 -3.3306
  877MOL0     H15751   7.503   4.398   1.286 -0.8138  1.3448  1.3641
  877MOL0     H15752   7.978   4.143   1.696 -1.2635  0.6885  1.1903
  877MOL0     H15753   8.189   4.241   1.743 -1.6991  0.3537  0.2699
  877MOL0     H15754   8.412   4.358   1.779  1.0516  0.7309 -0.7337
  877MOL0     H15755   8.269   4.435   1.844 -2.0519 -0.6898 -2.7444
  877MOL0     H15756   8.512   4.572   1.712  0.5948 -0.6813  0.3667
  877MOL0     H15757   8.375   4.659   1.799 -1.6373 -0.7703  4.0122
  877MOL0     H15758   8.545   4.428   1.913 -1.0361 -0.2702  1.4876
  877MOL0     H15759   8.434   4.527   1.997  1.6441 -0.2181  1.4819
  877MOL0     H15760   8.551   4.732   1.954 -2.3381 -1.7396 -1.2277
  877MOL0     H15761   8.652   4.610   2.049  0.3191 -1.1274 -0.1563
  877MOL0     H15762   8.902   4.682   1.720  1.3634 -0.5133  3.2154
  877MOL0     H15763   8.139   4.530   1.449 -0.0760 -1.8622 -3.2398
  877MOL0     H15764   7.899   4.443   1.396 -1.2790 -2.4203 -1.4063
  878MOL0     O15765   2.512  10.179  10.235  0.0429  0.2361  0.2707
  878MOL0     C15766   2.606  10.170  10.319 -0.2591 -0.8267  0.2726
  878MOL0     O15767   2.610  10.095  10.429  1.3887  0.3521  0.3047
  878MOL0     C15768   2.492  10.047  10.479  0.4023 -0.5284  0.3565
  878MOL0     C15769   2.404   9.972  10.408 -0.0429  0.0317  0.1750
  878MOL0     C15770   2.297   9.910  10.470  0.8113  0.2653  0.1176
  878MOL0     C15771   2.268   9.935  10.609 -0.2417 -0.6843  1.3816
  878MOL0     O15772   2.166   9.874  10.673 -0.0300 -0.4796 -0.0121
  878MOL0     C15773   2.194   9.836  10.813  0.1071 -0.5038  0.5658
  878MOL0     C15774   2.130   9.701  10.833  0.1335 -0.1613 -0.6621
  878MOL0     C15775   1.979   9.708  10.841 -1.3929  0.0171  0.0673
  878MOL0     C15776   1.921   9.562  10.847 -0.5519  0.0971  0.3549
  878MOL0     C15777   1.776   9.570  10.899  0.5287 -0.2520 -0.2020
  878MOL0     C15778   1.680   9.634  10.797 -0.1008 -0.5908 -0.9543
  878MOL0     C15779   1.542   9.665  10.855 -0.3051 -0.2758 -0.5585
  878MOL0     C15780   1.538   9.735  10.988 -0.8754 -0.8793 -0.6148
  878MOL0     N15781   1.401   9.775  11.026 -0.4769  0.3395  0.4076
  878MOL0     C15782   1.357   9.879  11.094 -0.3071  0.1192  0.9788
  878MOL0     C15783   1.226   9.861  11.107  0.0795  0.2561 -0.1192
  878MOL0     C15784   1.134   9.952  11.181  0.2488  0.2001  0.4641
  878MOL0     C15785   1.021   9.879  11.262  0.9696 -0.9859  0.4872
  878MOL0     C15786   0.923   9.976  11.333 -0.1297  0.1532 -0.1441
  878MOL0     C15787   0.975  10.034  11.463 -1.3129  0.2641 -0.1004
  878MOL0     O15788   0.890  10.156  11.499 -0.7003 -0.2632 -0.6780
  878MOL0     C15789   0.762  10.129  11.537 -0.3103  0.4702  0.9547
  878MOL0     C15790   0.665  10.216  11.483 -0.0824  0.6471  0.2100
  878MOL0     C15791   0.528  10.199  11.489 -0.4814  0.5524 -0.3801
  878MOL0     C15792   0.484  10.086  11.555  0.5209 -0.1275 -0.3122
  878MOL0     C15793   0.336  10.061  11.564 -1.1082 -0.0717  0.0137
  878MOL0     O15794   0.252  10.144  11.490  0.0389 -0.3277  0.0149
  878MOL0     C15795   0.118  10.137  11.499  0.8247 -0.0801 -0.1135
  878MOL0     C15796   0.041  10.108  11.609 -0.3753  0.2611  0.0042
  878MOL0     C15797  -0.097  10.100  11.599 -0.0539  0.0731 -0.8516
  878MOL0     C15798  -0.174  10.127  11.483  0.5117  0.4367 -0.8376
  878MOL0     O15799  -0.313  10.140  11.474 -0.1815  0.2601  0.0541
  878MOL0     C15800  -0.384  10.163  11.598 -0.1794 -0.5427 -0.2517
  878MOL0     C15801  -0.535  10.163  11.576  0.6237 -0.1138  0.6828
  878MOL0     C15802  -0.578  10.301  11.532  0.1095 -0.3378  0.0759
  878MOL0     C15803  -0.733  10.297  11.508  0.6278 -0.4738  0.0489
  878MOL0     C15804  -0.781  10.444  11.455 -0.5965 -1.2040 -0.6046
  878MOL0     C15805  -0.931  10.458  11.461 -0.6582  0.1494  0.3065
  878MOL0     C15806  -0.980  10.454  11.608  0.5748  0.1619  0.1028
  878MOL0     C15807  -1.132  10.473  11.619 -0.5789  0.3036 -0.1113
  878MOL0    Cl15808  -1.197  10.639  11.597 -0.7922  0.1018 -0.3702
  878MOL0     C15809  -0.096  10.157  11.378 -0.8955 -0.4466  0.4166
  878MOL0     C15810   0.048  10.168  11.382  0.4367 -0.6183 -0.4116
  878MOL0     O15811   0.307   9.975  11.644 -0.3137  0.1007 -0.6894
  878MOL0     C15812   0.574  10.003  11.623 -0.4348  0.1794 -0.0649
  878MOL0     C15813   0.713  10.022  11.616  0.0887  1.1576  0.4509
  878MOL0     N15814   1.196   9.741  11.050 -0.3699  0.3357 -0.1374
  878MOL0     N15815   1.302   9.690  11.000  1.1796 -0.8837 -0.6699
  878MOL0     C15816   2.356  10.020  10.682 -0.3416 -0.0832  0.2564
  878MOL0     C15817   2.474  10.075  10.615  0.4446  1.3196 -0.1993
  878MOL0     C15818   2.730  10.259  10.295 -0.2701 -0.1078 -0.7064
  878MOL0     C15819   2.823  10.262  10.396  0.4825  0.3734  0.3405
  878MOL0     C15820   2.921  10.361  10.384 -0.1284  1.0428  0.2116
  878MOL0     C15821   2.935  10.438  10.272 -0.0591  0.0642  0.2260
  878MOL0     O15822   3.045  10.528  10.275  0.6348  0.5614 -0.3866
  878MOL0     C15823   3.088  10.601  10.157  0.4730  0.1604  1.3723
  878MOL0     C15824   3.232  10.622  10.137 -0.5528  0.0127 -0.5580
  878MOL0     C15825   3.296  10.708  10.252  0.6535 -0.3034  0.0898
  878MOL0     C15826   3.425  10.772  10.207  0.7556  0.1913  0.4020
  878MOL0     C15827   3.521  10.662  10.183 -0.4160  0.2559  0.4408
  878MOL0     C15828   3.603  10.574  10.158 -0.6633  0.3232 -0.8608
  878MOL0     C15829   2.849  10.422  10.166  1.1941 -0.1341 -0.4389
  878MOL0     C15830   2.744  10.330  10.177 -0.3058  0.3273 -0.6698
  878MOL0     H15831   2.431   9.955  10.304 -3.0340  1.1038 -0.8694
  878MOL0     H15832   2.210   9.859  10.430 -0.8516  1.8664  1.5155
  878MOL0     H15833   2.161   9.917  10.879 -2.7899 -0.4822 -0.7377
  878MOL0     H15834   2.302   9.823  10.825  0.6503 -0.3769 -3.1155
  878MOL0     H15835   2.165   9.656  10.927 -0.0199 -0.1569 -0.6013
  878MOL0     H15836   2.174   9.643  10.752  1.1790  0.4484 -0.5463
  878MOL0     H15837   1.945   9.774  10.761  0.8047  2.1326  0.7480
  878MOL0     H15838   1.965   9.760  10.937  1.6338  1.4468 -0.1449
  878MOL0     H15839   1.915   9.519  10.747 -0.6571 -0.2174  0.4977
  878MOL0     H15840   1.976   9.490  10.908 -2.4208 -2.4452 -0.7683
  878MOL0     H15841   1.770   9.627  10.992 -0.4480  1.6067 -1.3414
  878MOL0     H15842   1.734   9.473  10.925  4.0477 -2.2672 -1.4088
  878MOL0     H15843   1.681   9.565  10.712  1.8048 -2.5551  0.5360
  878MOL0     H15844   1.712   9.735  10.767 -1.5836 -0.4390 -2.1428
  878MOL0     H15845   1.469   9.712  10.788  0.1078  4.6479  2.0106
  878MOL0     H15846   1.506   9.566  10.884 -1.9075  0.9511  2.0173
  878MOL0     H15847   1.589   9.831  10.975 -0.1802 -0.5202  3.5278
  878MOL0     H15848   1.570   9.684  11.079 -2.0458  1.1098  1.0075
  878MOL0     H15849   1.411   9.964  11.133 -0.8912  0.3397  1.3147
  878MOL0     H15850   1.081  10.028  11.122 -1.9604  0.4775  2.6218
  878MOL0     H15851   1.188  10.012  11.255 -1.3502 -0.0471  1.9158
  878MOL0     H15852   1.062   9.812  11.338  0.2162 -2.2457 -0.2001
  878MOL0     H15853   0.964   9.821  11.189  0.3818 -2.1827  1.8598
  878MOL0     H15854   0.898  10.052  11.258 -5.2668 -2.7895 -1.9666
  878MOL0     H15855   0.826   9.925  11.345  0.4046 -2.2058 -3.9792
  878MOL0     H15856   1.080  10.064  11.456 -1.3225  0.9245  1.9435
  878MOL0     H15857   0.963   9.955  11.537 -4.0089 -1.3050 -2.0156
  878MOL0     H15858   0.711  10.292  11.421  1.4615 -1.9873 -2.1101
  878MOL0     H15859   0.473  10.268  11.426  3.0541  4.9703  0.8059
  878MOL0     H15860   0.088  10.078  11.702 -0.0509  0.5894 -0.0504
  878MOL0     H15861  -0.147  10.081  11.693  0.6547  0.4124 -0.4010
  878MOL0     H15862  -0.359  10.266  11.625  1.0405 -0.3237 -2.0116
  878MOL0     H15863  -0.354  10.101  11.683  0.7239 -0.6170 -0.6084
  878MOL0     H15864  -0.589  10.144  11.669 -2.2904 -0.8411 -1.0161
  878MOL0     H15865  -0.560  10.085  11.503 -0.5924  1.5660 -0.8017
  878MOL0     H15866  -0.528  10.322  11.436 -0.5020 -2.4981 -0.7766
  878MOL0     H15867  -0.545  10.371  11.609  3.1286 -1.4970 -0.0247
  878MOL0     H15868  -0.761  10.229  11.426 -0.1265 -0.3821  0.2288
  878MOL0     H15869  -0.773  10.265  11.604 -3.2082 -1.7123 -1.7894
  878MOL0     H15870  -0.756  10.448  11.349  3.2684 -2.7788  0.0734
  878MOL0     H15871  -0.734  10.525  11.511 -5.0613 -1.5532  4.5230
  878MOL0     H15872  -0.971  10.380  11.396  0.7909 -0.1035 -0.3121
  878MOL0     H15873  -0.955  10.559  11.427 -2.7192  0.1922  1.7081
  878MOL0     H15874  -0.948  10.361  11.657 -2.1879 -0.9703 -0.0555
  878MOL0     H15875  -0.929  10.536  11.660  2.6685 -0.4522 -0.8855
  878MOL0     H15876  -1.168  10.428  11.712 -2.6376  0.5647 -0.7267
  878MOL0     H15877  -1.173  10.407  11.543 -0.9470 -1.5990  1.6340
  878MOL0     H15878  -0.129  10.198  11.284  2.1267  3.4606  0.7946
  878MOL0     H15879   0.105  10.208  11.299 -0.3929  0.1699 -0.6156
  878MOL0     H15880   0.549   9.921  11.689  5.4689 -2.3624 -0.3635
  878MOL0     H15881   0.770   9.957  11.681  1.2715  1.6311 -0.1006
  878MOL0     H15882   2.348  10.051  10.786  0.4078 -1.3601  0.7167
  878MOL0     H15883   2.552  10.135  10.663  0.4366 -0.4425  2.1676
  878MOL0     H15884   2.828  10.188  10.475  0.5548  1.9934  1.8937
  878MOL0     H15885   2.992  10.365  10.465 -1.6321 -1.7659  1.8283
  878MOL0     H15886   3.034  10.696  10.161 -1.1104 -0.7018  4.6512
  878MOL0     H15887   3.058  10.550  10.065 -0.8585  0.8987  1.3694
  878MOL0     H15888   3.281  10.525  10.121 -0.4323 -0.0705  0.2737
  878MOL0     H15889   3.238  10.681  10.045  4.0755  2.2236  0.8527
  878MOL0     H15890   3.308  10.654  10.347 -0.6479 -0.4085  0.2123
  878MOL0     H15891   3.219  10.782  10.278 -1.8750 -1.9768 -2.0837
  878MOL0     H15892   3.408  10.834  10.119 -1.6831  0.8257  1.2406
  878MOL0     H15893   3.487  10.834  10.272 -0.5385 -0.1929  2.0476
  878MOL0     H15894   3.675  10.496  10.143 -1.7354 -0.6673 -1.0350
  878MOL0     H15895   2.849  10.482  10.076 -3.4877  1.0392  0.0525
  878MOL0     H15896   2.686  10.305  10.089  0.9932 -2.0128 -0.9396
  879MOL0     O15897   1.808   7.632  10.657 -0.5507  0.2344 -0.2605
  879MOL0     C15898   1.843   7.564  10.562 -1.4784  0.2856 -0.2304
  879MOL0     O15899   1.785   7.448  10.525  0.2158  0.5571 -0.3600
  879MOL0     C15900   1.689   7.407  10.612  0.6909 -0.8519 -0.0910
  879MOL0     C15901   1.564   7.453  10.605  0.2938 -0.0794  0.2313
  879MOL0     C15902   1.461   7.403  10.691 -0.6561 -0.1169  0.9633
  879MOL0     C15903   1.496   7.340  10.808  0.1674 -0.6414  0.3234
  879MOL0     O15904   1.389   7.339  10.892  0.2918  0.5686  0.0485
  879MOL0     C15905   1.389   7.259  11.004  0.1661 -0.0688  0.1611
  879MOL0     C15906   1.248   7.210  11.048  0.0677  0.2339  0.1669
  879MOL0     C15907   1.172   7.326  11.098 -0.5762  0.2383 -0.4662
  879MOL0     C15908   1.034   7.285  11.139 -0.5443  0.2228  0.2570
  879MOL0     C15909   0.948   7.404  11.202 -0.3654 -0.9260  0.0074
  879MOL0     C15910   0.808   7.367  11.254 -0.1441 -0.1674  0.9712
  879MOL0     C15911   0.750   7.477  11.335 -0.0429  0.5323  0.5227
  879MOL0     C15912   0.697   7.595  11.255  0.2846 -0.4240 -0.4707
  879MOL0     N15913   0.590   7.664  11.327  1.1155  0.4492  1.0905
  879MOL0     C15914   0.457   7.633  11.325 -0.7003  0.4702 -0.2313
  879MOL0     C15915   0.396   7.716  11.415  0.0904 -0.3894 -0.4135
  879MOL0     C15916   0.263   7.696  11.488 -0.4289  0.1037 -0.5338
  879MOL0     C15917   0.135   7.657  11.407 -0.2740  0.4873  0.1409
  879MOL0     C15918   0.067   7.764  11.312  0.1626 -0.2488 -0.6680
  879MOL0     C15919  -0.029   7.699  11.214  0.2375  0.0319  0.1464
  879MOL0     O15920  -0.156   7.661  11.277 -0.4218  0.2174 -0.0222
  879MOL0     C15921  -0.268   7.659  11.196 -0.5434 -0.0872 -0.9576
  879MOL0     C15922  -0.269   7.600  11.067 -0.6586 -0.7713  0.2147
  879MOL0     C15923  -0.395   7.586  11.002 -0.3036  0.2181 -0.7561
  879MOL0     C15924  -0.520   7.624  11.062  0.4514  0.0166 -0.4771
  879MOL0     C15925  -0.648   7.599  10.993  0.4550 -0.3444  0.0074
  879MOL0     O15926  -0.641   7.561  10.861 -0.1192  0.3884  0.3691
  879MOL0     C15927  -0.746   7.586  10.780  0.6978 -0.1701 -1.0362
  879MOL0     C15928  -0.728   7.668  10.669 -0.8866 -0.5851  0.6470
  879MOL0     C15929  -0.832   7.705  10.587  0.2763 -0.0433  0.3300
  879MOL0     C15930  -0.961   7.651  10.600  0.0627  0.9573 -0.6150
  879MOL0     O15931  -1.060   7.685  10.519 -0.3098 -0.1498 -0.4788
  879MOL0     C15932  -1.174   7.736  10.596 -0.4128 -0.4258  0.3694
  879MOL0     C15933  -1.254   7.822  10.494  0.1877 -0.5525  0.6689
  879MOL0     C15934  -1.345   7.744  10.399 -0.4720  0.6443  0.5387
  879MOL0     C15935  -1.296   7.751  10.255  0.2260 -0.0468 -0.0602
  879MOL0     C15936  -1.405   7.684  10.163 -0.4994 -1.0817 -0.1401
  879MOL0     C15937  -1.536   7.770  10.149 -0.2385  0.3087 -1.2714
  879MOL0     C15938  -1.623   7.734  10.027  0.1978 -0.0038 -0.1716
  879MOL0     C15939  -1.735   7.827  10.022  0.3510  0.2321  0.7508
  879MOL0    Cl15940  -1.682   7.964   9.923 -0.0530 -0.7656 -0.0660
  879MOL0     C15941  -0.980   7.559  10.710 -0.3072  0.2088 -0.2234
  879MOL0     C15942  -0.872   7.525  10.792 -0.2186 -0.7452  0.9831
  879MOL0     O15943  -0.753   7.623  11.063  0.3012  0.0176  0.6749
  879MOL0     C15944  -0.509   7.674  11.193 -0.1488  0.4211 -0.1427
  879MOL0     C15945  -0.388   7.694  11.255 -0.2023  0.9695  0.3121
  879MOL0     N15946   0.488   7.795  11.475 -0.1158  0.4862  0.4222
  879MOL0     N15947   0.602   7.773  11.420 -1.0299  0.7494 -0.0315
  879MOL0     C15948   1.638   7.307  10.829  0.1908 -0.9440  0.0622
  879MOL0     C15949   1.730   7.342  10.727  0.1986  0.3632 -0.2196
  879MOL0     C15950   1.965   7.612  10.480 -0.2409  1.4814  0.3714
  879MOL0     C15951   2.032   7.722  10.529 -0.8174  0.1105  0.6614
  879MOL0     C15952   2.154   7.751  10.480 -0.4315 -0.1187 -0.1812
  879MOL0     C15953   2.215   7.678  10.383  0.4318 -0.0327  0.0174
  879MOL0     O15954   2.338   7.702  10.341 -0.3513 -0.5029 -0.0596
  879MOL0     C15955   2.437   7.733  10.435  0.1619 -0.0557 -0.2260
  879MOL0     C15956   2.466   7.591  10.495 -0.5315 -0.6806  0.8912
  879MOL0     C15957   2.611   7.588  10.558 -0.3253  1.1744  0.0729
  879MOL0     C15958   2.656   7.438  10.582  0.7454  0.2868 -0.2690
  879MOL0     C15959   2.793   7.426  10.632 -0.9821 -0.7644 -0.1212
  879MOL0     C15960   2.911   7.422  10.660 -0.2044  0.2657  0.0856
  879MOL0     C15961   2.151   7.561  10.335  0.6560 -0.5352 -0.3945
  879MOL0     C15962   2.021   7.527  10.377  0.2140  0.9735 -0.9778
  879MOL0     H15963   1.532   7.496  10.511  0.9291  2.4437  1.0969
  879MOL0     H15964   1.357   7.418  10.665  0.1778  1.1426 -2.1426
  879MOL0     H15965   1.438   7.319  11.081  0.7022 -1.3427  0.8317
  879MOL0     H15966   1.467   7.187  10.978  2.0777  2.0619 -0.4314
  879MOL0     H15967   1.257   7.122  11.113  0.9304  0.3609  0.2303
  879MOL0     H15968   1.208   7.167  10.955  0.7773 -0.6927  0.2765
  879MOL0     H15969   1.167   7.405  11.022 -0.4921  4.2604  3.3301
  879MOL0     H15970   1.230   7.360  11.185  0.3826 -2.1060 -0.1168
  879MOL0     H15971   0.994   7.260  11.041  1.0979  2.2894 -1.0197
  879MOL0     H15972   1.022   7.196  11.202 -1.2207  1.2217  1.5989
  879MOL0     H15973   0.931   7.490  11.136 -0.6515 -0.4408  0.7011
  879MOL0     H15974   1.012   7.424  11.288  1.1751 -0.4082 -1.2042
  879MOL0     H15975   0.805   7.269  11.302  3.4123 -0.3702  1.0667
  879MOL0     H15976   0.744   7.366  11.166  0.5947  1.3186  0.3857
  879MOL0     H15977   0.664   7.439  11.391 -1.1920  0.1445 -1.3891
  879MOL0     H15978   0.813   7.503  11.420  0.5106  0.3582  0.1751
  879MOL0     H15979   0.657   7.561  11.159  0.0896 -1.8484  0.0953
  879MOL0     H15980   0.780   7.667  11.248 -0.7821  0.7006 -2.2190
  879MOL0     H15981   0.400   7.551  11.283 -3.6082  0.7493  2.7053
  879MOL0     H15982   0.232   7.780  11.551  0.2782 -1.5476  2.1752
  879MOL0     H15983   0.289   7.606  11.545 -0.2075  1.2697  1.2972
  879MOL0     H15984   0.071   7.604  11.478  0.6194  1.5994  1.8426
  879MOL0     H15985   0.168   7.580  11.336 -0.1380  2.9513 -2.6912
  879MOL0     H15986   0.006   7.829  11.375 -1.9960 -1.6647 -1.1759
  879MOL0     H15987   0.140   7.826  11.260 -2.1527  1.4226 -2.1197
  879MOL0     H15988   0.021   7.615  11.165  1.0798  0.8263 -0.3870
  879MOL0     H15989  -0.056   7.782  11.148  0.5046 -0.8492 -1.0970
  879MOL0     H15990  -0.184   7.569  11.007 -1.9857  1.8115 -3.3509
  879MOL0     H15991  -0.400   7.550  10.900 -0.6537  1.3678 -1.1687
  879MOL0     H15992  -0.631   7.715  10.662 -1.3340  0.5352  1.5719
  879MOL0     H15993  -0.806   7.769  10.503  0.0941  1.7127  1.5524
  879MOL0     H15994  -1.137   7.807  10.671 -1.4146  0.9437 -0.3659
  879MOL0     H15995  -1.238   7.663  10.645 -2.1085  1.0629  0.4883
  879MOL0     H15996  -1.183   7.882  10.436 -0.9852 -0.8039 -1.1041
  879MOL0     H15997  -1.321   7.887  10.550  0.3255 -1.2236  1.6357
  879MOL0     H15998  -1.446   7.783  10.409 -0.0374  1.4335  2.4227
  879MOL0     H15999  -1.355   7.640  10.432  0.4159  0.8442  1.5029
  879MOL0     H16000  -1.274   7.854  10.226  0.4097  0.0455  0.3814
  879MOL0     H16001  -1.202   7.694  10.254 -0.1835 -0.7220 -0.7966
  879MOL0     H16002  -1.431   7.585  10.201 -5.1412 -0.3623 -0.8335
  879MOL0     H16003  -1.372   7.688  10.059  1.8068 -0.5936  0.5437
  879MOL0     H16004  -1.512   7.874  10.127 -2.0154  1.2453  0.8029
  879MOL0     H16005  -1.592   7.771  10.243  2.6608  1.7394  0.5909
  879MOL0     H16006  -1.572   7.749   9.931 -0.6145  0.3847 -0.5437
  879MOL0     H16007  -1.661   7.632  10.040 -0.3731 -0.0223 -1.7382
  879MOL0     H16008  -1.765   7.859  10.122  1.5985  0.6641  0.9960
  879MOL0     H16009  -1.818   7.788   9.961  2.6712 -2.4401 -0.9274
  879MOL0     H16010  -1.082   7.523  10.719 -1.1212  2.5996  1.2119
  879MOL0     H16011  -0.877   7.451  10.871 -0.1437 -0.2500  1.4679
  879MOL0     H16012  -0.590   7.691  11.264  0.8466  1.0108  0.8952
  879MOL0     H16013  -0.401   7.727  11.358  1.5424  2.8866 -0.0271
  879MOL0     H16014   1.668   7.292  10.932 -3.1357 -0.4562  1.2333
  879MOL0     H16015   1.833   7.310  10.737 -0.0273 -0.7661 -1.2585
  879MOL0     H16016   1.981   7.796  10.591  0.9511  1.4179  0.6575
  879MOL0     H16017   2.204   7.839  10.520 -1.7760  0.9443 -0.7620
  879MOL0     H16018   2.413   7.801  10.518 -0.9175 -0.2498 -0.3579
  879MOL0     H16019   2.513   7.775  10.369 -1.1871 -0.4729 -2.1218
  879MOL0     H16020   2.400   7.567  10.579 -1.1628 -4.1596 -0.4089
  879MOL0     H16021   2.469   7.508  10.423  1.1724 -1.5192  1.8582
  879MOL0     H16022   2.613   7.645  10.652 -1.7359  3.2439 -1.0818
  879MOL0     H16023   2.692   7.632  10.499  1.3682 -1.0687  0.5660
  879MOL0     H16024   2.595   7.390  10.660 -2.3048  0.2102 -2.5302
  879MOL0     H16025   2.633   7.380  10.493 -3.1168  2.4166 -0.8459
  879MOL0     H16026   3.017   7.424  10.677 -0.1235  1.8041 -0.4284
  879MOL0     H16027   2.202   7.497  10.263 -0.0106 -2.7252  0.9572
  879MOL0     H16028   1.976   7.436  10.338  1.3828 -1.1553  2.2014
  880MOL0     O16029   9.924   2.538   7.060  0.1019 -0.0179 -0.0224
  880MOL0     C16030   9.948   2.426   7.098  0.1269  0.6347 -0.5377
  880MOL0     O16031   9.856   2.328   7.127  0.2198 -0.6744 -0.0556
  880MOL0     C16032   9.722   2.344   7.106  0.8494 -0.2879 -0.8688
  880MOL0     C16033   9.657   2.447   7.033  1.0514  0.4715 -0.2718
  880MOL0     C16034   9.519   2.449   7.036  0.0380  0.9405 -1.3651
  880MOL0     C16035   9.440   2.349   7.098 -1.3852 -0.5470  0.0890
  880MOL0     O16036   9.306   2.355   7.084 -0.0554  0.8089 -0.7216
  880MOL0     C16037   9.240   2.238   7.028  0.6791 -0.0182 -1.2149
  880MOL0     C16038   9.098   2.281   6.990  0.2405  0.4498  0.5146
  880MOL0     C16039   9.006   2.169   6.949 -0.4704  0.2864 -0.9938
  880MOL0     C16040   9.054   2.094   6.824  0.2012 -1.1135 -0.5298
  880MOL0     C16041   8.963   1.971   6.808  0.0336  0.2524  0.0725
  880MOL0     C16042   8.999   1.908   6.678  0.2538 -0.4371 -0.2622
  880MOL0     C16043   8.946   1.766   6.655  1.9596  0.2311  0.3872
  880MOL0     C16044   8.799   1.747   6.692 -0.0524  0.2650  0.3899
  880MOL0     N16045   8.709   1.838   6.608 -1.1744  0.3485  0.2723
  880MOL0     C16046   8.667   1.818   6.481  0.0623 -0.5691 -0.0417
  880MOL0     C16047   8.598   1.931   6.445  0.3350  0.0477  0.7317
  880MOL0     C16048   8.538   1.955   6.309 -0.6701 -0.9670 -0.6441
  880MOL0     C16049   8.397   1.896   6.309  0.2175  1.2225 -0.1766
  880MOL0     C16050   8.316   1.959   6.194  0.1605 -0.2595 -1.0398
  880MOL0     C16051   8.164   1.919   6.185 -0.2298  0.4618  0.4247
  880MOL0     O16052   8.144   1.774   6.178 -0.0262 -0.4962  0.0417
  880MOL0     C16053   8.023   1.719   6.156 -0.1180  0.7856  0.1085
  880MOL0     C16054   8.016   1.581   6.168  1.4975 -0.2356  0.0619
  880MOL0     C16055   7.897   1.511   6.153 -0.2941 -0.3158 -0.4132
  880MOL0     C16056   7.778   1.578   6.109 -0.2996 -0.1897 -0.1964
  880MOL0     C16057   7.656   1.504   6.072 -0.1429  0.0512  0.1295
  880MOL0     O16058   7.668   1.376   6.038  0.3368 -0.2981 -0.2173
  880MOL0     C16059   7.558   1.306   6.007 -0.5294  0.7321  0.3751
  880MOL0     C16060   7.570   1.222   5.898 -0.8237  0.3110 -0.1572
  880MOL0     C16061   7.459   1.139   5.859  0.3810 -0.2076  0.0446
  880MOL0     C16062   7.335   1.132   5.931  0.4033 -0.6206 -0.1523
  880MOL0     O16063   7.235   1.049   5.888 -0.3291 -0.0473 -1.0136
  880MOL0     C16064   7.120   1.045   5.968 -0.1090  0.9891  0.2423
  880MOL0     C16065   7.062   0.901   5.939  0.3274  0.5720  0.4829
  880MOL0     C16066   6.915   0.895   5.962 -0.0197  0.2148  0.7890
  880MOL0     C16067   6.863   0.757   5.926  0.8498  0.3254  0.1565
  880MOL0     C16068   6.711   0.735   5.955  0.8218 -0.3848  0.6258
  880MOL0     C16069   6.655   0.590   5.944 -0.0415  0.1584 -0.2390
  880MOL0     C16070   6.504   0.571   5.979  0.7738  0.6050  0.7506
  880MOL0     C16071   6.475   0.584   6.127  0.3307 -0.0150 -0.4019
  880MOL0    Cl16072   6.296   0.590   6.179 -0.3365  0.0094 -0.6171
  880MOL0     C16073   7.326   1.228   6.043  0.1707 -0.3719 -0.2697
  880MOL0     C16074   7.434   1.308   6.079 -0.3435  0.6490 -0.3926
  880MOL0     O16075   7.552   1.566   6.064 -0.1942  0.3975 -0.0833
  880MOL0     C16076   7.787   1.719   6.099  0.8536  0.4668  0.5232
  880MOL0     C16077   7.908   1.784   6.111 -0.6593 -0.1295  0.2448
  880MOL0     N16078   8.585   2.006   6.555  0.2474 -0.3737 -0.1975
  880MOL0     N16079   8.651   1.952   6.656  1.0140  0.3475  0.3000
  880MOL0     C16080   9.508   2.243   7.165 -0.1844 -0.2388 -0.3014
  880MOL0     C16081   9.643   2.246   7.169 -0.5408 -0.5033 -0.5287
  880MOL0     C16082  10.089   2.383   7.103 -0.8040  0.1911  0.3242
  880MOL0     C16083  10.126   2.254   7.143 -0.1391 -0.0408 -0.6804
  880MOL0     C16084  10.265   2.223   7.149 -1.3250  0.4116  0.9328
  880MOL0     C16085  10.363   2.311   7.111 -1.2200 -0.7212 -0.1435
  880MOL0     O16086  10.496   2.275   7.109  1.2811 -0.2408 -0.2677
  880MOL0     C16087  10.553   2.320   6.982 -1.1693 -0.1540  0.3687
  880MOL0     C16088  10.711   2.330   7.008  0.6131  0.3538  0.6594
  880MOL0     C16089  10.736   2.454   7.080 -0.1823  0.5632  0.8402
  880MOL0     C16090  10.887   2.461   7.080  0.0555  0.6908 -0.9438
  880MOL0     C16091  10.938   2.539   7.192  0.0509  0.4209 -0.4414
  880MOL0     C16092  10.975   2.619   7.274 -1.0998 -0.1068 -0.1667
  880MOL0     C16093  10.319   2.445   7.085  0.2143 -0.4633 -0.9650
  880MOL0     C16094  10.190   2.477   7.088  0.4711 -0.6827  0.1420
  880MOL0     H16095   9.703   2.535   6.989  0.5133  1.6156  1.3425
  880MOL0     H16096   9.460   2.529   6.992  0.2708 -0.3154 -4.1476
  880MOL0     H16097   9.243   2.157   7.102  1.3819 -0.9222 -2.2134
  880MOL0     H16098   9.294   2.198   6.943  0.6680 -1.4796 -0.5602
  880MOL0     H16099   9.105   2.353   6.909 -0.9488  0.7618  0.6687
  880MOL0     H16100   9.045   2.334   7.069 -1.2424 -2.3108  1.5003
  880MOL0     H16101   8.905   2.207   6.937 -0.9576  0.1357  1.8351
  880MOL0     H16102   9.008   2.085   7.020  0.4957  1.0303 -0.1171
  880MOL0     H16103   9.049   2.162   6.738  1.5243  1.8318  1.5385
  880MOL0     H16104   9.155   2.057   6.839  0.5163  0.4037  1.5338
  880MOL0     H16105   8.857   1.999   6.800 -1.2919 -3.8966  0.5933
  880MOL0     H16106   8.969   1.900   6.891  0.4219 -0.1961 -0.3398
  880MOL0     H16107   9.107   1.899   6.668  0.1809 -2.0342  0.1212
  880MOL0     H16108   8.957   1.975   6.603 -0.0290 -0.9205 -0.5413
  880MOL0     H16109   8.965   1.742   6.550 -1.5943 -0.6451 -0.1636
  880MOL0     H16110   9.005   1.694   6.713  0.8702  0.1111  1.3894
  880MOL0     H16111   8.781   1.754   6.799  0.9114 -0.0341  0.5835
  880MOL0     H16112   8.785   1.645   6.655 -1.7062  0.3225  0.8037
  880MOL0     H16113   8.708   1.738   6.420 -1.9107 -0.8951 -1.0297
  880MOL0     H16114   8.588   1.921   6.218 -1.3048 -1.1551 -0.9314
  880MOL0     H16115   8.530   2.063   6.294  0.4159 -0.7815  0.0292
  880MOL0     H16116   8.344   1.905   6.405 -2.1619  1.2808 -1.4239
  880MOL0     H16117   8.403   1.790   6.283 -2.3518  1.3865 -1.8607
  880MOL0     H16118   8.300   2.058   6.238 -3.0811 -1.0037 -0.2327
  880MOL0     H16119   8.367   1.965   6.098  2.4452  2.3158  0.2022
  880MOL0     H16120   8.132   1.963   6.090 -1.1835 -1.0201  0.0173
  880MOL0     H16121   8.117   1.957   6.275 -3.5096 -2.0555 -0.0420
  880MOL0     H16122   8.108   1.533   6.201  2.6962  2.0313  0.1923
  880MOL0     H16123   7.896   1.403   6.166 -0.6143 -0.2051  0.5633
  880MOL0     H16124   7.668   1.232   5.854 -0.4023 -0.7637  0.5147
  880MOL0     H16125   7.463   1.082   5.767  1.2176 -2.5767  1.4571
  880MOL0     H16126   7.050   1.123   5.939  1.5339  3.0426  1.4540
  880MOL0     H16127   7.147   1.060   6.073  2.1728  4.1383 -0.6210
  880MOL0     H16128   7.100   0.833   6.016  0.6383  0.1139 -0.0677
  880MOL0     H16129   7.086   0.865   5.838 -3.6969  0.8618 -0.7528
  880MOL0     H16130   6.871   0.972   5.898  0.6915  1.1100  1.3637
  880MOL0     H16131   6.876   0.909   6.064 -4.9210 -0.4460 -0.7145
  880MOL0     H16132   6.876   0.732   5.820  0.5812 -4.4482  1.0157
  880MOL0     H16133   6.918   0.693   5.996 -1.0342  2.4560  3.8701
  880MOL0     H16134   6.654   0.795   5.884  1.2760  1.5496  1.8360
  880MOL0     H16135   6.678   0.763   6.055 -0.9158 -3.5557  1.0754
  880MOL0     H16136   6.717   0.524   6.005 -3.2796 -0.5291  2.5980
  880MOL0     H16137   6.668   0.553   5.842 -0.8782 -1.9443  0.3754
  880MOL0     H16138   6.448   0.648   5.925  0.9949 -0.0694 -0.4611
  880MOL0     H16139   6.463   0.473   5.952 -0.6753  0.9140  1.7186
  880MOL0     H16140   6.519   0.674   6.170  0.8873 -0.1447 -0.6850
  880MOL0     H16141   6.521   0.491   6.163  1.0447 -0.1284 -1.5411
  880MOL0     H16142   7.235   1.248   6.098 -0.8360  4.4106 -3.0790
  880MOL0     H16143   7.432   1.378   6.162 -1.6576  0.1149  0.0531
  880MOL0     H16144   7.697   1.778   6.087  1.8687  2.1204  0.7627
  880MOL0     H16145   7.911   1.891   6.090  1.3036  0.2744  2.1110
  880MOL0     H16146   9.444   2.184   7.229  1.1232  1.2921  2.6043
  880MOL0     H16147   9.684   2.176   7.240 -0.0986  0.5779  0.3126
  880MOL0     H16148  10.056   2.175   7.168  2.2191 -1.8224  0.7780
  880MOL0     H16149  10.307   2.127   7.175  0.1873  1.4461  2.5126
  880MOL0     H16150  10.517   2.419   6.952 -0.7599 -0.1966 -0.2641
  880MOL0     H16151  10.537   2.253   6.898  0.8475 -2.2221  1.5201
  880MOL0     H16152  10.744   2.235   7.049  3.4026  0.3018 -1.4331
  880MOL0     H16153  10.751   2.332   6.907 -2.3356 -0.0843 -0.6307
  880MOL0     H16154  10.691   2.434   7.178 -0.1553 -0.4470  0.6582
  880MOL0     H16155  10.678   2.537   7.038 -1.3545 -1.5601 -2.0526
  880MOL0     H16156  10.934   2.362   7.081 -1.3172 -0.0029 -1.4303
  880MOL0     H16157  10.919   2.511   6.988  2.1784  0.2562 -0.4956
  880MOL0     H16158  11.005   2.688   7.350  1.2236  1.8503 -2.6622
  880MOL0     H16159  10.396   2.522   7.077  1.2743 -0.9041  3.0491
  880MOL0     H16160  10.163   2.582   7.075 -1.6126 -1.2609 -0.5692
  881MOL0     O16161   8.204   1.369   3.643 -0.1934  0.0602  0.1863
  881MOL0     C16162   8.218   1.260   3.691 -0.8531  0.9054  0.2953
  881MOL0     O16163   8.113   1.192   3.752  0.5495  0.9144  0.5930
  881MOL0     C16164   8.015   1.279   3.809 -0.5003  0.2586  0.2908
  881MOL0     C16165   7.885   1.260   3.764 -0.3844  0.1096  0.0991
  881MOL0     C16166   7.787   1.326   3.839  0.4079  0.5060 -0.1546
  881MOL0     C16167   7.816   1.424   3.934  0.6904 -0.0650 -0.1347
  881MOL0     O16168   7.717   1.505   3.991 -0.1519 -0.2435 -0.2451
  881MOL0     C16169   7.608   1.558   3.909 -0.3342  0.3718 -0.0641
  881MOL0     C16170   7.501   1.658   3.978  0.0700 -0.5093  0.3128
  881MOL0     C16171   7.388   1.573   4.043  0.7105 -0.3951 -0.3975
  881MOL0     C16172   7.274   1.667   4.089  0.2512 -0.5951 -0.3881
  881MOL0     C16173   7.170   1.583   4.184 -0.7013 -0.8129  0.1173
  881MOL0     C16174   7.085   1.482   4.108  0.0345  0.5690  0.0202
  881MOL0     C16175   6.987   1.426   4.192  0.5661 -0.2827  0.7224
  881MOL0     C16176   7.033   1.317   4.288  0.2521  0.3268 -0.0466
  881MOL0     N16177   6.926   1.221   4.330  0.3606  0.2125  0.3723
  881MOL0     C16178   6.852   1.133   4.247  0.1016 -0.6659  0.3239
  881MOL0     C16179   6.773   1.051   4.327  0.0758 -0.2806  0.9067
  881MOL0     C16180   6.693   0.948   4.254  0.0843  0.7325 -1.0419
  881MOL0     C16181   6.548   0.999   4.208 -0.3215  0.0512  0.5759
  881MOL0     C16182   6.560   1.076   4.074 -0.0128  0.3273  0.6116
  881MOL0     C16183   6.422   1.120   4.016 -0.4954 -0.6750 -0.5499
  881MOL0     O16184   6.433   1.173   3.883  0.5400 -0.1379 -0.1341
  881MOL0     C16185   6.312   1.170   3.810 -0.2465 -0.2334  0.1706
  881MOL0     C16186   6.217   1.253   3.863 -0.0924 -0.2968  0.3067
  881MOL0     C16187   6.087   1.237   3.823 -0.8573 -0.2990  0.6312
  881MOL0     C16188   6.046   1.158   3.721 -0.3581  0.2151  0.7909
  881MOL0     C16189   5.905   1.153   3.686  0.6653  0.0259 -0.7590
  881MOL0     O16190   5.825   1.248   3.733  0.1022  0.5004  0.1111
  881MOL0     C16191   5.686   1.235   3.725  0.0143  0.6728 -0.4753
  881MOL0     C16192   5.605   1.340   3.685 -0.1479  0.2585  0.5243
  881MOL0     C16193   5.468   1.333   3.672  0.3182  0.0584 -0.1650
  881MOL0     C16194   5.392   1.218   3.711 -1.2304  0.6810 -0.7609
  881MOL0     O16195   5.256   1.215   3.677  0.2278 -0.6875  0.0927
  881MOL0     C16196   5.171   1.112   3.730  0.4498 -0.3666 -0.2774
  881MOL0     C16197   5.119   1.162   3.868  0.0458 -0.0347  0.2377
  881MOL0     C16198   4.996   1.087   3.917 -0.5761  1.0546  0.2261
  881MOL0     C16199   4.970   1.119   4.068  0.3227  0.2110 -0.3455
  881MOL0     C16200   4.832   1.055   4.112  0.6051  0.6519  0.0878
  881MOL0     C16201   4.706   1.120   4.043  0.0444 -0.2402  0.5189
  881MOL0     C16202   4.581   1.076   4.110 -0.0606  0.5004 -1.0617
  881MOL0     C16203   4.445   1.122   4.080  0.5400  0.8450  0.1712
  881MOL0    Cl16204   4.457   1.296   4.060 -0.2730 -0.3031 -0.4557
  881MOL0     C16205   5.471   1.115   3.765  0.4078 -0.2263 -0.9552
  881MOL0     C16206   5.617   1.130   3.775  0.2565  0.6499 -0.0626
  881MOL0     O16207   5.872   1.068   3.606  0.7170 -0.4663  0.0690
  881MOL0     C16208   6.140   1.078   3.657 -0.5122 -0.7060 -0.2352
  881MOL0     C16209   6.276   1.081   3.708 -1.0488 -0.2687 -0.0736
  881MOL0     N16210   6.791   1.096   4.453 -0.0261 -0.4658  0.3721
  881MOL0     N16211   6.883   1.192   4.459  0.2867  0.2726 -0.0347
  881MOL0     C16212   7.946   1.419   3.987  0.3903 -0.9420 -0.7902
  881MOL0     C16213   8.041   1.359   3.918  0.2829 -0.2147 -0.3323
  881MOL0     C16214   8.354   1.200   3.697 -0.0038 -0.0194 -1.3392
  881MOL0     C16215   8.466   1.273   3.664  0.4054  0.1478 -0.2408
  881MOL0     C16216   8.591   1.229   3.697  1.0313  0.6695 -0.0126
  881MOL0     C16217   8.610   1.105   3.754  0.1731  0.8157 -0.6332
  881MOL0     O16218   8.742   1.080   3.785  0.3963 -0.3707 -0.4108
  881MOL0     C16219   8.783   0.942   3.757 -0.4592  0.2962 -0.0694
  881MOL0     C16220   8.759   0.917   3.604  0.6096 -0.7280  0.6652
  881MOL0     C16221   8.832   1.012   3.513 -0.6898  0.9011 -0.6344
  881MOL0     C16222   8.827   0.974   3.362  0.6898 -0.1798 -0.0624
  881MOL0     C16223   8.905   1.077   3.296  0.3586 -0.3794  0.6622
  881MOL0     C16224   8.964   1.164   3.241 -0.0162 -0.6487  0.9207
  881MOL0     C16225   8.498   1.024   3.788  0.0338 -0.5039 -0.9823
  881MOL0     C16226   8.371   1.070   3.761  0.0272 -0.0259  1.0701
  881MOL0     H16227   7.871   1.197   3.677  2.2806  2.7907 -2.5354
  881MOL0     H16228   7.684   1.313   3.805  1.1645 -2.2877 -1.7116
  881MOL0     H16229   7.553   1.472   3.872  2.7745 -1.5712 -0.5076
  881MOL0     H16230   7.649   1.611   3.823  0.6292  0.8663  0.6724
  881MOL0     H16231   7.462   1.735   3.911 -0.3782  0.8626  2.0638
  881MOL0     H16232   7.559   1.714   4.052  2.0979 -1.4560 -0.4789
  881MOL0     H16233   7.427   1.507   4.121 -2.7684 -1.4311  0.6475
  881MOL0     H16234   7.357   1.506   3.962  1.3810 -0.7027 -0.4170
  881MOL0     H16235   7.317   1.746   4.152 -3.5029 -0.4622  2.4017
  881MOL0     H16236   7.218   1.708   4.004 -3.9974 -0.6582  2.0615
  881MOL0     H16237   7.100   1.660   4.216  2.5228  2.6601 -0.4298
  881MOL0     H16238   7.220   1.540   4.272  1.7190 -0.4098 -0.9690
  881MOL0     H16239   7.152   1.405   4.069  0.3182  0.1708  1.2407
  881MOL0     H16240   7.027   1.523   4.025  1.2788  3.5586  0.5012
  881MOL0     H16241   6.943   1.506   4.252 -5.2362 -1.9725 -0.6540
  881MOL0     H16242   6.908   1.389   4.126  3.0363 -1.2492 -1.9162
  881MOL0     H16243   7.073   1.365   4.377  0.6153  0.5764 -0.3422
  881MOL0     H16244   7.117   1.260   4.247  0.0505  0.2845 -0.4131
  881MOL0     H16245   6.864   1.115   4.140  0.0626  1.4487 -0.0831
  881MOL0     H16246   6.678   0.868   4.328 -1.7255  3.2192  1.4912
  881MOL0     H16247   6.754   0.900   4.177  2.5582  1.6869  0.2247
  881MOL0     H16248   6.500   1.062   4.284  0.9324  2.0710 -0.2249
  881MOL0     H16249   6.489   0.909   4.189  0.5586 -0.1878 -1.2266
  881MOL0     H16250   6.618   1.168   4.088 -3.3943  2.2364  3.9354
  881MOL0     H16251   6.601   1.002   4.004 -2.6577 -0.5944 -0.0734
  881MOL0     H16252   6.381   1.200   4.077 -0.7165  0.0958 -1.6803
  881MOL0     H16253   6.368   1.025   4.020  4.0685 -3.5906 -1.0732
  881MOL0     H16254   6.246   1.320   3.943 -1.1302  1.1616 -0.4930
  881MOL0     H16255   6.024   1.318   3.858  1.5138  2.4964 -1.0506
  881MOL0     H16256   5.657   1.431   3.660  0.5621 -0.6376 -1.4304
  881MOL0     H16257   5.407   1.410   3.625 -3.3536 -2.1085  0.5890
  881MOL0     H16258   5.218   1.014   3.741  2.0789  0.3491 -0.5996
  881MOL0     H16259   5.094   1.095   3.655  1.4060 -0.3455 -1.2807
  881MOL0     H16260   5.081   1.265   3.867 -6.3860 -1.8936 -2.1796
  881MOL0     H16261   5.200   1.157   3.941 -1.4124 -2.0068  1.8394
  881MOL0     H16262   5.034   0.985   3.910 -3.2371 -0.4957  4.4235
  881MOL0     H16263   4.915   1.115   3.848  0.9684  3.5150 -0.7214
  881MOL0     H16264   5.051   1.080   4.130 -0.8230  0.3872  1.3248
  881MOL0     H16265   4.953   1.226   4.084 -2.3745  0.0378 -1.4551
  881MOL0     H16266   4.821   1.061   4.221 -2.2111 -0.6858 -0.0460
  881MOL0     H16267   4.833   0.948   4.088  1.5963  0.9286 -1.2416
  881MOL0     H16268   4.713   1.093   3.937  0.2956  1.9708 -0.0741
  881MOL0     H16269   4.730   1.225   4.060 -0.6580 -0.5046  3.9927
  881MOL0     H16270   4.583   0.967   4.110  1.4293  0.4871  0.5983
  881MOL0     H16271   4.592   1.097   4.217 -1.2897 -2.3924 -0.2771
  881MOL0     H16272   4.368   1.101   4.155  0.6615  1.6056  0.5174
  881MOL0     H16273   4.413   1.078   3.985  0.3250 -1.4939  1.2568
  881MOL0     H16274   5.423   1.030   3.811 -0.4964  1.5219  1.5854
  881MOL0     H16275   5.673   1.043   3.807 -2.2289 -0.1996  2.3546
  881MOL0     H16276   6.119   1.009   3.576  0.8866 -1.1878 -0.2031
  881MOL0     H16277   6.361   1.024   3.672  0.7936  1.8969  0.5992
  881MOL0     H16278   7.959   1.484   4.073 -1.1508  3.6627 -3.6708
  881MOL0     H16279   8.140   1.355   3.962  0.0409 -0.4793  0.2024
  881MOL0     H16280   8.463   1.368   3.611 -1.2493 -0.1390 -0.7152
  881MOL0     H16281   8.679   1.293   3.691  1.1669  0.4486 -0.3927
  881MOL0     H16282   8.722   0.870   3.812  1.5474 -1.3793  0.0824
  881MOL0     H16283   8.888   0.916   3.772 -1.4341 -2.5245  2.9415
  881MOL0     H16284   8.779   0.813   3.576 -0.3242 -0.1351 -2.5666
  881MOL0     H16285   8.652   0.931   3.585  0.3122  2.3895  3.6561
  881MOL0     H16286   8.940   1.015   3.531 -0.0170 -2.7602 -2.9374
  881MOL0     H16287   8.784   1.108   3.535  0.0587  0.7000  2.2481
  881MOL0     H16288   8.862   0.871   3.359 -2.7344 -1.5172  1.2160
  881MOL0     H16289   8.723   0.972   3.328  0.3713  2.1615  0.5547
  881MOL0     H16290   9.011   1.240   3.182 -2.5528 -0.6807 -1.2989
  881MOL0     H16291   8.509   0.947   3.864 -0.0447  0.1659 -0.2890
  881MOL0     H16292   8.282   1.017   3.795 -1.9505  1.3464 -1.5762
  882MOL0     O16293  10.060   6.690   4.662  0.0355  0.3368  0.2762
  882MOL0     C16294  10.169   6.747   4.685 -0.1181  0.1949  0.0636
  882MOL0     O16295  10.192   6.859   4.761 -0.0343 -0.1328  0.3104
  882MOL0     C16296  10.086   6.948   4.754 -0.3161  0.5492 -0.0307
  882MOL0     C16297   9.980   6.932   4.845  0.6709 -0.1838 -0.1671
  882MOL0     C16298   9.872   7.026   4.837 -0.1226  0.3400 -0.1256
  882MOL0     C16299   9.866   7.124   4.740  0.4600 -0.1336 -0.5062
  882MOL0     O16300   9.756   7.208   4.734 -0.1299  0.6619 -0.0227
  882MOL0     C16301   9.755   7.320   4.824  0.5902  0.4937  0.3276
  882MOL0     C16302   9.617   7.386   4.824 -0.2254 -0.3993  0.5929
  882MOL0     C16303   9.509   7.297   4.872 -0.2759  0.2207 -0.2625
  882MOL0     C16304   9.367   7.372   4.888 -0.9115 -0.2727 -0.6382
  882MOL0     C16305   9.291   7.365   4.760  0.0087  0.1232  0.0943
  882MOL0     C16306   9.175   7.456   4.766  0.9151  0.6343 -0.4134
  882MOL0     C16307   9.059   7.369   4.816 -0.5007  0.8485  0.2005
  882MOL0     C16308   8.940   7.366   4.717 -0.4113  0.2919  0.6347
  882MOL0     N16309   8.855   7.248   4.734  0.4531 -0.3522  0.5976
  882MOL0     C16310   8.870   7.129   4.660 -0.5594 -1.6263 -0.0545
  882MOL0     C16311   8.780   7.042   4.713  0.0527 -0.6308 -0.0051
  882MOL0     C16312   8.778   6.897   4.685  0.3822 -0.0764 -0.3729
  882MOL0     C16313   8.669   6.817   4.761  0.2540  0.6531  0.5096
  882MOL0     C16314   8.631   6.673   4.699  0.0180 -0.0094 -0.1141
  882MOL0     C16315   8.509   6.604   4.746  0.8751 -0.3856  0.4174
  882MOL0     O16316   8.492   6.468   4.705 -0.2965 -0.0406 -0.3848
  882MOL0     C16317   8.382   6.398   4.750  0.0120  0.3494  0.4599
  882MOL0     C16318   8.371   6.267   4.716 -0.0766 -0.4090  0.5753
  882MOL0     C16319   8.257   6.194   4.754  0.0942 -0.1520  0.1694
  882MOL0     C16320   8.157   6.250   4.843  0.1090  1.0165  0.4853
  882MOL0     C16321   8.041   6.175   4.882 -0.0957  0.6986 -0.6618
  882MOL0     O16322   7.934   6.247   4.926 -1.2132 -0.3515  0.1530
  882MOL0     C16323   7.815   6.194   4.952  0.5391 -0.6797 -0.1378
  882MOL0     C16324   7.756   6.198   5.076  0.7036  0.2983  0.5281
  882MOL0     C16325   7.633   6.148   5.102  0.1371 -0.2844 -0.0831
  882MOL0     C16326   7.562   6.085   4.996  0.6987 -0.8636 -1.2739
  882MOL0     O16327   7.432   6.042   5.028  1.4393 -0.0316 -0.0426
  882MOL0     C16328   7.354   6.015   4.914  0.5085 -0.1998 -0.0638
  882MOL0     C16329   7.232   5.956   4.976 -0.3755 -0.0219 -0.4339
  882MOL0     C16330   7.141   5.868   4.876 -1.0488 -0.3245  0.3120
  882MOL0     C16331   7.016   5.826   4.948 -0.3994 -0.2259 -0.1509
  882MOL0     C16332   6.922   5.736   4.858  0.1236 -0.3449 -0.4619
  882MOL0     C16333   6.985   5.588   4.872  0.7382 -0.0702 -0.3414
  882MOL0     C16334   6.875   5.497   4.820  0.4037  0.7185 -0.2870
  882MOL0     C16335   6.890   5.355   4.876 -0.7747 -0.4623  0.1111
  882MOL0    Cl16336   6.741   5.269   4.813 -0.1106  0.3800 -0.1359
  882MOL0     C16337   7.619   6.080   4.872  0.8451  0.0993 -0.1867
  882MOL0     C16338   7.746   6.135   4.851  0.2471  0.7477 -0.0417
  882MOL0     O16339   8.046   6.051   4.867  0.2927  0.2350 -0.0335
  882MOL0     C16340   8.175   6.387   4.877 -0.0705  0.5256  0.7237
  882MOL0     C16341   8.282   6.459   4.826  0.3957  0.7389  0.1935
  882MOL0     N16342   8.700   7.111   4.801  0.2168 -0.3562  0.4170
  882MOL0     N16343   8.742   7.237   4.806 -0.4251  1.1279 -0.3117
  882MOL0     C16344   9.968   7.137   4.642  0.4114 -0.1432 -0.4207
  882MOL0     C16345  10.075   7.042   4.647 -0.2056  0.0792 -0.6641
  882MOL0     C16346  10.296   6.694   4.627 -0.1509  0.3923 -0.2181
  882MOL0     C16347  10.295   6.618   4.503 -0.2002  0.0915 -0.3973
  882MOL0     C16348  10.421   6.564   4.452  0.8861 -0.2041 -0.2565
  882MOL0     C16349  10.538   6.597   4.510  0.0678 -0.1414 -0.4992
  882MOL0     O16350  10.654   6.570   4.440  0.2685 -0.3385 -0.2206
  882MOL0     C16351  10.763   6.665   4.472 -0.5621 -0.4838  0.6668
  882MOL0     C16352  10.834   6.670   4.334 -0.1240 -1.5245 -0.9639
  882MOL0     C16353  10.945   6.777   4.330  0.3082 -0.9361 -1.1141
  882MOL0     C16354  11.030   6.763   4.209 -0.2433  0.6470  0.5792
  882MOL0     C16355  11.150   6.849   4.220 -0.4132 -0.1303  1.5849
  882MOL0     C16356  11.259   6.901   4.215 -0.9114  0.1787  0.4347
  882MOL0     C16357  10.533   6.654   4.638  0.8412 -0.3058  0.3243
  882MOL0     C16358  10.417   6.702   4.700  0.1357  1.0095  0.5544
  882MOL0     H16359   9.967   6.843   4.906 -0.6838 -0.8887 -1.4244
  882MOL0     H16360   9.785   7.005   4.899 -1.4151 -0.1472 -2.0037
  882MOL0     H16361   9.819   7.395   4.778 -0.0394  1.1493  0.4994
  882MOL0     H16362   9.794   7.291   4.922 -0.4368  0.8131  0.8434
  882MOL0     H16363   9.600   7.411   4.719  0.5732 -3.3627 -0.3606
  882MOL0     H16364   9.625   7.471   4.892  2.4759  0.4090 -0.6322
  882MOL0     H16365   9.543   7.258   4.969  0.9183 -2.3687 -1.6129
  882MOL0     H16366   9.499   7.206   4.812  0.3184  0.6690 -1.0672
  882MOL0     H16367   9.312   7.329   4.972 -1.2946 -0.7133 -1.1077
  882MOL0     H16368   9.391   7.475   4.917  0.3335  0.4418 -3.7540
  882MOL0     H16369   9.265   7.265   4.722  0.4971  1.0043 -2.8753
  882MOL0     H16370   9.363   7.405   4.688 -0.7461  1.5162  0.0721
  882MOL0     H16371   9.145   7.496   4.669 -1.5770  1.4004  0.5757
  882MOL0     H16372   9.194   7.544   4.829 -0.1493 -0.8825  2.1755
  882MOL0     H16373   9.088   7.266   4.838 -0.8706  1.0444  1.6491
  882MOL0     H16374   9.016   7.400   4.911  1.9950 -0.2765  1.8123
  882MOL0     H16375   8.990   7.349   4.622  0.5621  0.7248  1.0517
  882MOL0     H16376   8.879   7.457   4.723  0.9968  1.2947  0.2213
  882MOL0     H16377   8.957   7.106   4.600 -1.5482 -3.8145 -0.7294
  882MOL0     H16378   8.871   6.843   4.706 -0.6937 -1.8088  0.1733
  882MOL0     H16379   8.774   6.882   4.576  0.8949 -1.1480 -0.2672
  882MOL0     H16380   8.579   6.880   4.762  1.3959  2.3556  0.6840
  882MOL0     H16381   8.700   6.793   4.863 -4.0758 -1.3621  1.5629
  882MOL0     H16382   8.630   6.686   4.591  1.3249 -2.7753 -0.5504
  882MOL0     H16383   8.714   6.602   4.701  0.6494  0.5949 -2.3794
  882MOL0     H16384   8.428   6.667   4.709  1.6677 -0.6769 -1.9715
  882MOL0     H16385   8.514   6.595   4.855  1.2211 -1.5066  0.3204
  882MOL0     H16386   8.450   6.221   4.658 -3.0229 -3.9906 -1.0394
  882MOL0     H16387   8.258   6.092   4.716 -1.9131  0.5130 -1.8673
  882MOL0     H16388   7.810   6.242   5.160  0.8521 -1.8211  1.6119
  882MOL0     H16389   7.579   6.162   5.195  0.2180  2.4332 -0.3672
  882MOL0     H16390   7.405   5.945   4.846  1.2789  3.0518 -3.1328
  882MOL0     H16391   7.326   6.102   4.854  1.2274  1.2170  1.6020
  882MOL0     H16392   7.167   6.038   5.008 -2.0482 -1.1527 -0.7649
  882MOL0     H16393   7.264   5.898   5.063  1.8853  1.8669  0.0908
  882MOL0     H16394   7.202   5.795   4.822 -0.7814  1.0523 -1.3412
  882MOL0     H16395   7.103   5.927   4.792 -3.5128  1.5875  2.5904
  882MOL0     H16396   7.039   5.770   5.039 -2.3332  1.1304  1.2407
  882MOL0     H16397   6.956   5.910   4.983 -2.2137 -0.9888 -1.2978
  882MOL0     H16398   6.916   5.766   4.753 -1.9417  3.2053  0.4919
  882MOL0     H16399   6.823   5.735   4.903  0.0389 -2.3151 -0.5926
  882MOL0     H16400   6.999   5.572   4.979  0.7982 -1.7989 -0.5829
  882MOL0     H16401   7.083   5.570   4.825  1.1301  1.7297 -0.2875
  882MOL0     H16402   6.773   5.525   4.850 -1.0334 -3.2425 -0.7887
  882MOL0     H16403   6.892   5.485   4.712  2.9078 -0.3426  0.1578
  882MOL0     H16404   6.896   5.343   4.984 -0.8301 -1.9578 -0.0376
  882MOL0     H16405   6.978   5.311   4.829 -1.9444 -2.1989 -0.5688
  882MOL0     H16406   7.568   6.020   4.798 -2.3823  1.4994  0.7140
  882MOL0     H16407   7.789   6.139   4.751  0.5941  0.6142  0.0993
  882MOL0     H16408   8.096   6.432   4.936 -0.3081  0.7333  0.2558
  882MOL0     H16409   8.276   6.562   4.859 -2.4809 -0.0708  2.7226
  882MOL0     H16410   9.947   7.208   4.563 -1.4369 -0.1145  0.0443
  882MOL0     H16411  10.139   7.047   4.559 -0.5124  1.1951 -0.8326
  882MOL0     H16412  10.198   6.587   4.465  0.9170 -2.6431 -1.2862
  882MOL0     H16413  10.415   6.529   4.349 -0.3343  1.2418 -0.7209
  882MOL0     H16414  10.821   6.627   4.557 -1.1886  0.9651  1.7966
  882MOL0     H16415  10.719   6.760   4.504 -0.6035 -1.6849  4.7188
  882MOL0     H16416  10.873   6.570   4.317 -0.7488 -2.9287  4.1199
  882MOL0     H16417  10.765   6.709   4.259  4.0322  2.5253 -3.2572
  882MOL0     H16418  10.999   6.758   4.423  0.0811  1.1550 -0.5150
  882MOL0     H16419  10.910   6.881   4.329  1.5904 -0.4715 -0.1408
  882MOL0     H16420  11.074   6.664   4.196  0.9369  1.4133 -1.7091
  882MOL0     H16421  10.969   6.787   4.122 -0.3108 -1.3060  0.0556
  882MOL0     H16422  11.357   6.943   4.204  1.0644 -4.1203 -0.6659
  882MOL0     H16423  10.629   6.656   4.689  1.0489 -0.1981 -0.0721
  882MOL0     H16424  10.425   6.746   4.799  2.2260 -3.0965  2.4499
  883MOL0     O16425  10.781  10.900   7.269 -0.9496 -0.0045 -0.5019
  883MOL0     C16426  10.862  10.918   7.181  0.3471 -0.3917 -0.7976
  883MOL0     O16427  10.829  10.916   7.055 -0.2974  1.2054  0.0411
  883MOL0     C16428  10.702  10.862   7.031  0.1574  0.6037  0.2160
  883MOL0     C16429  10.690  10.730   6.985 -0.0421 -0.9210  0.3436
  883MOL0     C16430  10.558  10.688   6.947 -0.2299  0.5637  0.0114
  883MOL0     C16431  10.444  10.766   6.960 -0.5705 -0.8246  0.2072
  883MOL0     O16432  10.326  10.713   6.919  0.7314 -0.5975 -0.8743
  883MOL0     C16433  10.208  10.758   6.981 -0.2629 -0.2440  0.7981
  883MOL0     C16434  10.091  10.700   6.923 -1.3512 -0.2412 -0.2605
  883MOL0     C16435   9.968  10.702   7.009 -0.0079 -1.2121  0.3779
  883MOL0     C16436   9.846  10.646   6.927 -0.2014  0.2628  0.5729
  883MOL0     C16437   9.726  10.616   7.020  0.7739 -0.5023  0.4510
  883MOL0     C16438   9.653  10.740   7.072 -0.3175 -0.7946  0.5775
  883MOL0     C16439   9.526  10.703   7.152 -0.0041  0.6447  0.3077
  883MOL0     C16440   9.399  10.708   7.066 -0.2487 -0.6751  0.1432
  883MOL0     N16441   9.275  10.688   7.145  0.1517  1.3300  0.9448
  883MOL0     C16442   9.230  10.754   7.253 -0.6319 -0.0296 -0.2096
  883MOL0     C16443   9.110  10.688   7.299 -0.1468  0.3222  0.7281
  883MOL0     C16444   9.007  10.719   7.405 -0.1317  0.5471  0.0512
  883MOL0     C16445   8.969  10.867   7.409  0.6806  0.4497  0.0181
  883MOL0     C16446   9.081  10.946   7.482  0.6213  0.0074  0.5386
  883MOL0     C16447   9.086  11.097   7.459 -0.6309 -0.1098  0.5091
  883MOL0     O16448   9.149  11.134   7.337  0.1925  0.2432 -0.4987
  883MOL0     C16449   9.284  11.138   7.327  0.5534  0.2829  0.0808
  883MOL0     C16450   9.370  11.125   7.427 -1.2547  0.4245 -0.4535
  883MOL0     C16451   9.508  11.124   7.403  0.8626  0.6064 -0.8326
  883MOL0     C16452   9.555  11.130   7.273 -0.6955  0.6360 -0.6144
  883MOL0     C16453   9.704  11.115   7.243  0.4489 -0.4638 -0.0411
  883MOL0     O16454   9.789  11.162   7.334 -0.5798  0.6217  0.0557
  883MOL0     C16455   9.930  11.182   7.307  0.6623  0.7727  0.2267
  883MOL0     C16456  10.004  11.235   7.411  0.3151 -1.0172  0.1031
  883MOL0     C16457  10.145  11.250   7.401 -0.1971 -0.8756  0.3511
  883MOL0     C16458  10.215  11.204   7.290 -0.3492 -0.1689  0.6397
  883MOL0     O16459  10.346  11.200   7.271  0.3261  0.1654  0.0732
  883MOL0     C16460  10.432  11.267   7.359  0.7454 -0.2108 -0.1721
  883MOL0     C16461  10.577  11.249   7.331 -0.1652  0.2923  0.4852
  883MOL0     C16462  10.647  11.341   7.420 -0.0794  0.1224 -0.8406
  883MOL0     C16463  10.799  11.338   7.387 -0.3608 -0.5749  0.6075
  883MOL0     C16464  10.900  11.406   7.479 -0.6858  0.2595 -0.0665
  883MOL0     C16465  11.029  11.299   7.494  0.9149  0.3910 -0.3955
  883MOL0     C16466  11.151  11.365   7.558  0.0473  0.2156  0.6519
  883MOL0     C16467  11.121  11.442   7.693  0.4389 -0.0687  1.3152
  883MOL0    Cl16468  11.058  11.328   7.804 -0.0526 -0.0782  0.1770
  883MOL0     C16469  10.137  11.156   7.178  0.4207  0.3255 -0.3697
  883MOL0     C16470  10.001  11.147   7.195  0.5025  0.0638  0.0184
  883MOL0     O16471   9.732  11.049   7.149  0.2678 -0.2107  0.7211
  883MOL0     C16472   9.468  11.148   7.172 -0.7334  0.4323  0.9560
  883MOL0     C16473   9.327  11.150   7.198 -0.1409 -0.5333  0.7172
  883MOL0     N16474   9.091  10.593   7.205  0.2508 -0.1258  0.5022
  883MOL0     N16475   9.182  10.595   7.112  0.4531 -0.1440  0.3129
  883MOL0     C16476  10.459  10.903   7.008  0.3798  0.2683  0.6005
  883MOL0     C16477  10.591  10.952   7.035  0.6051 -0.5128  0.1465
  883MOL0     C16478  11.000  10.962   7.220  0.1299  0.6984 -0.1186
  883MOL0     C16479  11.075  11.018   7.125 -0.2833 -0.5846  0.6247
  883MOL0     C16480  11.207  11.060   7.153  0.4463  0.7581  0.1967
  883MOL0     C16481  11.254  11.039   7.283  0.5026  0.0374  0.5137
  883MOL0     O16482  11.374  11.093   7.332  0.3615 -0.3329 -0.5977
  883MOL0     C16483  11.494  11.123   7.258  1.7023  0.4117 -0.8139
  883MOL0     C16484  11.594  11.014   7.255  0.1976 -0.2422 -0.7914
  883MOL0     C16485  11.725  11.071   7.220  0.2161  0.1726 -0.1433
  883MOL0     C16486  11.830  10.968   7.171  0.2970 -0.7462 -0.3930
  883MOL0     C16487  11.960  11.035   7.149  0.3641 -0.5477 -1.0710
  883MOL0     C16488  12.069  11.082   7.149  0.1190 -0.8089 -0.6975
  883MOL0     C16489  11.175  11.007   7.384 -0.0530  0.5665  0.3434
  883MOL0     C16490  11.052  10.963   7.355 -0.6072 -0.9283  0.2670
  883MOL0     H16491  10.784  10.676   6.979  0.1737 -0.6856  1.4281
  883MOL0     H16492  10.561  10.583   6.922 -1.7973  0.0648  1.7883
  883MOL0     H16493  10.201  10.866   6.964 -3.6592 -0.7900 -2.1594
  883MOL0     H16494  10.224  10.744   7.089  0.2477  0.2742  0.7987
  883MOL0     H16495  10.106  10.591   6.924 -3.4169 -0.5695 -0.1578
  883MOL0     H16496  10.067  10.733   6.822 -0.6205 -0.2444 -0.4430
  883MOL0     H16497   9.944  10.806   7.031 -2.5488 -1.9250  1.3574
  883MOL0     H16498   9.989  10.641   7.098 -0.6952  0.7877  1.9874
  883MOL0     H16499   9.809  10.712   6.848 -3.5127  0.7449  2.3476
  883MOL0     H16500   9.866  10.548   6.882 -2.3714  1.0565 -2.3988
  883MOL0     H16501   9.764  10.558   7.104  0.6050 -0.4925  0.5326
  883MOL0     H16502   9.661  10.554   6.959  1.8371  0.4726 -1.8124
  883MOL0     H16503   9.629  10.804   6.987 -0.1456  0.0400  1.1504
  883MOL0     H16504   9.732  10.781   7.135 -0.8779  0.0669  0.7379
  883MOL0     H16505   9.529  10.607   7.206  2.1088 -0.0893 -0.9667
  883MOL0     H16506   9.512  10.781   7.228 -0.9089  2.1378 -1.3372
  883MOL0     H16507   9.405  10.644   6.978  1.4675 -0.0307 -0.2286
  883MOL0     H16508   9.399  10.806   7.018  2.6164 -0.6381  0.0955
  883MOL0     H16509   9.278  10.842   7.295 -0.1898 -0.5923  0.4921
  883MOL0     H16510   9.052  10.697   7.502  0.6420  0.5036 -0.3108
  883MOL0     H16511   8.917  10.661   7.382 -1.6006  2.7097 -0.0346
  883MOL0     H16512   8.877  10.889   7.465 -0.0752  0.5887 -1.2525
  883MOL0     H16513   8.954  10.903   7.307  0.3684  0.2225 -0.0187
  883MOL0     H16514   9.072  10.908   7.585 -0.4108 -3.0007 -0.5418
  883MOL0     H16515   9.182  10.912   7.455 -0.0154 -0.3130 -1.6188
  883MOL0     H16516   9.141  11.136   7.546  1.9976 -3.1986  0.4414
  883MOL0     H16517   8.983  11.132   7.460  0.2166  2.9100 -1.7015
  883MOL0     H16518   9.344  11.110   7.531 -2.1024 -1.6462 -0.9197
  883MOL0     H16519   9.564  11.103   7.493 -1.0564 -3.5483 -0.3350
  883MOL0     H16520   9.948  11.262   7.500 -0.3335  0.0239 -0.6060
  883MOL0     H16521  10.207  11.289   7.481  2.2949 -2.5818 -0.6409
  883MOL0     H16522  10.406  11.240   7.461 -1.3675  0.3355 -0.5320
  883MOL0     H16523  10.412  11.373   7.343  1.8571  0.2322  1.1612
  883MOL0     H16524  10.593  11.281   7.227  0.4295  2.6824  1.2533
  883MOL0     H16525  10.604  11.143   7.332  0.3934  0.4268 -0.0021
  883MOL0     H16526  10.626  11.304   7.521  1.7407 -1.8031 -1.0780
  883MOL0     H16527  10.610  11.443   7.410  1.9014  1.1026  1.0060
  883MOL0     H16528  10.825  11.232   7.397  0.5966 -0.5114 -0.8883
  883MOL0     H16529  10.819  11.382   7.289 -2.7637 -2.1074 -0.6746
  883MOL0     H16530  10.848  11.420   7.574 -0.4153 -0.3051  0.1638
  883MOL0     H16531  10.920  11.507   7.440 -1.2667  0.5130  0.2811
  883MOL0     H16532  11.045  11.256   7.395 -1.1282  0.6559 -0.8884
  883MOL0     H16533  11.010  11.210   7.555  2.1747  0.0359 -0.4906
  883MOL0     H16534  11.231  11.290   7.559 -0.6208 -0.5075  1.7758
  883MOL0     H16535  11.193  11.440   7.490  1.6069 -3.1023 -2.3535
  883MOL0     H16536  11.044  11.518   7.680 -0.1435 -0.6505  1.2846
  883MOL0     H16537  11.211  11.493   7.727  1.1770 -0.1145 -0.4317
  883MOL0     H16538  10.181  11.138   7.080  2.3600 -0.9465  0.6682
  883MOL0     H16539   9.933  11.119   7.115 -0.6086 -1.0330  1.3134
  883MOL0     H16540   9.507  11.169   7.073  0.8137  0.5873  1.5764
  883MOL0     H16541   9.255  11.175   7.121  3.0038  3.0504 -1.4324
  883MOL0     H16542  10.369  10.963   7.007 -0.3020 -0.6598 -1.6269
  883MOL0     H16543  10.604  11.055   7.067  3.7951 -1.0947  1.1294
  883MOL0     H16544  11.051  11.040   7.022  0.8930 -0.9277  0.2587
  883MOL0     H16545  11.271  11.097   7.073  1.0668 -1.0816 -0.2004
  883MOL0     H16546  11.539  11.202   7.319  1.5103 -0.3496  0.3375
  883MOL0     H16547  11.456  11.162   7.163 -2.1404 -0.4755  0.1785
  883MOL0     H16548  11.602  10.947   7.342  0.5381 -0.0861 -0.7033
  883MOL0     H16549  11.563  10.948   7.173  0.4395 -1.1828 -0.1526
  883MOL0     H16550  11.751  11.133   7.306 -0.7765 -0.6808  0.8037
  883MOL0     H16551  11.709  11.127   7.128 -0.7382 -0.8917 -0.6592
  883MOL0     H16552  11.832  10.882   7.239  2.1386 -0.1256  0.4033
  883MOL0     H16553  11.797  10.925   7.076 -4.8239  0.7203  0.4367
  883MOL0     H16554  12.163  11.130   7.168 -1.3550  1.2048  2.4714
  883MOL0     H16555  11.200  11.026   7.488 -2.3418 -0.7995  1.2206
  883MOL0     H16556  10.979  10.922   7.424 -2.6405 -0.3523 -1.4154
  884MOL0     O16557   0.757   9.505   5.088  0.3263  1.0753  0.0879
  884MOL0     C16558   0.776   9.445   4.980  0.7999 -1.1778  0.2237
  884MOL0     O16559   0.743   9.503   4.861  0.0335  0.1343  0.3623
  884MOL0     C16560   0.625   9.570   4.869  0.4183  0.9288  0.5031
  884MOL0     C16561   0.610   9.702   4.893  0.1600  0.1706 -0.0511
  884MOL0     C16562   0.486   9.756   4.876  0.6323  0.9100  0.5350
  884MOL0     C16563   0.371   9.684   4.830 -1.0966  0.7787  0.7715
  884MOL0     O16564   0.249   9.728   4.794  0.1584  0.2593 -0.6626
  884MOL0     C16565   0.219   9.865   4.781 -0.1836 -0.0676  0.2427
  884MOL0     C16566   0.069   9.877   4.755 -0.1662  0.0455 -0.4905
  884MOL0     C16567  -0.010   9.856   4.896 -0.8985 -0.2997  0.0260
  884MOL0     C16568  -0.153   9.899   4.870  0.7993 -0.1053 -0.4729
  884MOL0     C16569  -0.228   9.863   5.008 -1.2796 -0.5837  0.2646
  884MOL0     C16570  -0.279   9.719   5.005  0.5049 -0.8418 -0.0149
  884MOL0     C16571  -0.365   9.661   5.131  0.4152  0.6276  0.1797
  884MOL0     C16572  -0.501   9.726   5.136  0.5657  0.7483 -0.5461
  884MOL0     N16573  -0.598   9.665   5.228 -0.1998 -0.6179 -0.4908
  884MOL0     C16574  -0.704   9.588   5.195  0.1709 -0.9868  0.0103
  884MOL0     C16575  -0.784   9.580   5.308  0.2037  0.6128  0.1015
  884MOL0     C16576  -0.915   9.492   5.312  0.0739  0.7336  0.4416
  884MOL0     C16577  -1.045   9.545   5.265 -0.5666 -0.4627 -0.4313
  884MOL0     C16578  -1.129   9.613   5.372 -0.9560  0.4382  0.0571
  884MOL0     C16579  -1.273   9.647   5.329  0.6232  0.5699  0.2812
  884MOL0     O16580  -1.344   9.531   5.373  0.3908  0.6964  0.2767
  884MOL0     C16581  -1.476   9.515   5.337  0.6749 -0.4259  0.5501
  884MOL0     C16582  -1.551   9.403   5.379  0.2357  0.9089 -0.2537
  884MOL0     C16583  -1.690   9.410   5.376 -0.0749  0.1130 -0.2474
  884MOL0     C16584  -1.770   9.519   5.336  0.4846  0.1059  0.3844
  884MOL0     C16585  -1.923   9.513   5.333  0.4697  0.2444 -0.7720
  884MOL0     O16586  -1.989   9.619   5.287  0.4108  0.4439 -0.8199
  884MOL0     C16587  -2.124   9.605   5.265  0.2024  0.1529  1.0609
  884MOL0     C16588  -2.176   9.632   5.133 -0.4010 -0.1923  0.2990
  884MOL0     C16589  -2.318   9.628   5.117 -0.1063 -0.7075 -0.2247
  884MOL0     C16590  -2.400   9.597   5.231 -0.2959  0.1158 -0.0116
  884MOL0     O16591  -2.542   9.601   5.214  0.1885 -0.0139  0.1193
  884MOL0     C16592  -2.624   9.533   5.314 -0.3427  0.6770 -0.0473
  884MOL0     C16593  -2.779   9.549   5.285 -0.2048  0.7881 -0.6835
  884MOL0     C16594  -2.853   9.462   5.383 -0.4311 -0.0634 -0.3841
  884MOL0     C16595  -3.007   9.484   5.361 -0.3859 -0.2119  0.2633
  884MOL0     C16596  -3.092   9.372   5.424 -0.1224 -0.6021 -0.2525
  884MOL0     C16597  -3.240   9.380   5.376  0.4575 -0.1781  0.2218
  884MOL0     C16598  -3.309   9.506   5.437 -0.0738 -0.5029  0.0507
  884MOL0     C16599  -3.459   9.466   5.464 -0.1818 -0.0247 -0.2462
  884MOL0    Cl16600  -3.455   9.316   5.571  0.0635 -0.1111  0.3226
  884MOL0     C16601  -2.344   9.560   5.351  0.2571  0.6446  0.3189
  884MOL0     C16602  -2.210   9.562   5.366  0.1527  0.1041 -0.4364
  884MOL0     O16603  -1.967   9.402   5.351  0.4625  0.5055 -0.2052
  884MOL0     C16604  -1.699   9.634   5.291  0.3618  0.0818 -0.4234
  884MOL0     C16605  -1.555   9.629   5.288  0.1038  0.5102 -0.5589
  884MOL0     N16606  -0.719   9.650   5.409  0.0740 -0.2214  0.6141
  884MOL0     N16607  -0.612   9.698   5.352  0.4979 -0.5129  0.6581
  884MOL0     C16608   0.390   9.548   4.807 -0.3460  1.0039 -0.8337
  884MOL0     C16609   0.519   9.492   4.829 -0.4102 -0.3661  0.4057
  884MOL0     C16610   0.838   9.307   4.987  0.0185  0.2300 -0.2743
  884MOL0     C16611   0.877   9.238   5.109  0.0879 -0.8622  0.4450
  884MOL0     C16612   0.913   9.104   5.106  0.3744  0.0031 -0.7200
  884MOL0     C16613   0.942   9.033   4.994 -0.0881  0.4647  0.5305
  884MOL0     O16614   1.004   8.908   5.000 -0.2607 -0.7647 -0.2341
  884MOL0     C16615   1.037   8.852   5.124  0.4958 -0.2236 -0.8523
  884MOL0     C16616   1.128   8.732   5.102  0.3539  0.7451 -0.1360
  884MOL0     C16617   1.192   8.678   5.225 -0.3156  0.2163 -0.0017
  884MOL0     C16618   1.096   8.610   5.315  0.7905 -0.9734  0.5290
  884MOL0     C16619   1.152   8.549   5.429 -0.6458 -0.1625 -0.3212
  884MOL0     C16620   1.192   8.490   5.530 -0.4331 -1.2919  0.1549
  884MOL0     C16621   0.922   9.096   4.873  0.0643 -0.4585 -0.4785
  884MOL0     C16622   0.871   9.228   4.864 -0.4090  0.0489 -1.3274
  884MOL0     H16623   0.696   9.765   4.913 -0.1891  0.5970  0.1081
  884MOL0     H16624   0.472   9.859   4.909 -0.6015  0.9716 -0.1164
  884MOL0     H16625   0.270   9.895   4.690  1.6097  0.1456  1.2704
  884MOL0     H16626   0.244   9.927   4.868 -2.6220  0.5321  0.6159
  884MOL0     H16627   0.037   9.800   4.684  0.4565  1.0660 -1.9301
  884MOL0     H16628   0.050   9.978   4.717 -0.4753  1.4125  2.9315
  884MOL0     H16629   0.033   9.931   4.964  0.4234  0.0348 -1.1278
  884MOL0     H16630  -0.000   9.758   4.943  0.6403  0.5916  1.6667
  884MOL0     H16631  -0.159  10.007   4.855  0.4546 -0.5166 -4.2467
  884MOL0     H16632  -0.195   9.853   4.780  0.4998  3.0122 -2.0541
  884MOL0     H16633  -0.309   9.936   5.019 -0.3666  0.4719  0.1687
  884MOL0     H16634  -0.167   9.868   5.099  0.6219 -0.3505 -0.9768
  884MOL0     H16635  -0.188   9.664   4.983  0.8921 -0.1354 -0.2014
  884MOL0     H16636  -0.345   9.709   4.918 -0.3162 -0.6653  0.5704
  884MOL0     H16637  -0.387   9.556   5.110 -1.0402  0.9531  0.0021
  884MOL0     H16638  -0.314   9.672   5.227 -1.7895 -2.1120  1.8111
  884MOL0     H16639  -0.547   9.720   5.036 -0.6285 -0.2062  0.0326
  884MOL0     H16640  -0.486   9.829   5.169 -0.8237 -0.0656  3.0151
  884MOL0     H16641  -0.735   9.566   5.093  3.6747  0.6066 -1.5773
  884MOL0     H16642  -0.919   9.443   5.410  0.8309 -0.5606 -0.1431
  884MOL0     H16643  -0.894   9.410   5.243  0.2247 -1.6614  3.1333
  884MOL0     H16644  -1.102   9.470   5.209  2.3093  0.4269 -5.0779
  884MOL0     H16645  -1.012   9.626   5.199  1.4516 -0.7916  0.0931
  884MOL0     H16646  -1.126   9.549   5.461  0.4915  1.5969  0.8848
  884MOL0     H16647  -1.075   9.704   5.399  1.0673 -1.7773  4.6684
  884MOL0     H16648  -1.289   9.678   5.226 -0.5900  0.2541  0.3581
  884MOL0     H16649  -1.293   9.736   5.390  1.0904  0.5048  0.5325
  884MOL0     H16650  -1.495   9.314   5.408  0.1960  0.3601 -1.7742
  884MOL0     H16651  -1.742   9.324   5.417  0.0551 -0.0153 -0.3505
  884MOL0     H16652  -2.115   9.674   5.054 -1.1173 -0.6852 -0.5458
  884MOL0     H16653  -2.369   9.672   5.032 -0.1817  1.7958  1.0352
  884MOL0     H16654  -2.621   9.590   5.408 -0.1521  0.3547  0.1428
  884MOL0     H16655  -2.598   9.427   5.327 -2.2069  0.2808  0.9302
  884MOL0     H16656  -2.818   9.530   5.185 -1.6017  2.6624 -0.5395
  884MOL0     H16657  -2.811   9.652   5.300  0.7085  0.7512  2.0205
  884MOL0     H16658  -2.823   9.487   5.485  0.8419 -2.4844 -0.0818
  884MOL0     H16659  -2.817   9.362   5.356  1.5550  0.9213 -1.6377
  884MOL0     H16660  -3.032   9.577   5.412  1.5656  1.7618 -2.1171
  884MOL0     H16661  -3.032   9.497   5.256  0.9081 -0.5148 -0.1067
  884MOL0     H16662  -3.089   9.365   5.533  2.1824 -1.1184 -0.2997
  884MOL0     H16663  -3.044   9.278   5.395 -0.0753 -0.6747  0.0580
  884MOL0     H16664  -3.299   9.289   5.383 -3.0453  1.8924 -0.2032
  884MOL0     H16665  -3.236   9.397   5.268 -0.9603 -3.7417 -0.5148
  884MOL0     H16666  -3.276   9.536   5.537 -0.8350 -1.0696  0.4834
  884MOL0     H16667  -3.292   9.580   5.359  1.2985  0.1921  0.9567
  884MOL0     H16668  -3.513   9.444   5.371 -0.8942  3.4035 -0.7570
  884MOL0     H16669  -3.513   9.549   5.509 -0.9217  0.5306 -2.0716
  884MOL0     H16670  -2.396   9.521   5.439  1.6311 -3.1544 -0.3417
  884MOL0     H16671  -2.173   9.542   5.466 -0.6920 -1.4012 -0.4026
  884MOL0     H16672  -1.744   9.724   5.250  2.7986  1.2845 -0.6506
  884MOL0     H16673  -1.513   9.724   5.258 -0.4641  0.7130 -0.7374
  884MOL0     H16674   0.309   9.486   4.768 -1.6241  1.3099  1.1597
  884MOL0     H16675   0.536   9.389   4.801 -0.1712  0.1046 -1.2854
  884MOL0     H16676   0.847   9.298   5.194 -0.1675  0.3173 -0.4478
  884MOL0     H16677   0.894   9.047   5.197 -0.9101  0.0348 -0.9474
  884MOL0     H16678   0.948   8.814   5.174  1.1459 -2.8129 -1.5027
  884MOL0     H16679   1.074   8.922   5.199 -1.9561 -0.1113  0.3475
  884MOL0     H16680   1.079   8.648   5.050 -2.5133  1.0206  1.8871
  884MOL0     H16681   1.209   8.766   5.037  1.9293 -0.9831  0.8231
  884MOL0     H16682   1.245   8.759   5.277 -1.5520  0.3091  1.1701
  884MOL0     H16683   1.271   8.609   5.192  1.3452  2.6548 -1.4244
  884MOL0     H16684   1.032   8.689   5.354 -1.0876 -1.5532 -1.2149
  884MOL0     H16685   1.034   8.539   5.259  1.4232 -0.6517 -0.6116
  884MOL0     H16686   1.242   8.451   5.616  1.5766  0.6238 -0.0601
  884MOL0     H16687   0.930   9.053   4.774 -1.9568 -0.7873 -0.5284
  884MOL0     H16688   0.860   9.277   4.767  2.0446 -1.3996 -2.4137
  885MOL0     O16689  10.343   9.985   6.165  0.1233  0.0193 -0.5026
  885MOL0     C16690  10.283  10.087   6.202 -0.5344  1.3191  0.6024
  885MOL0     O16691  10.334  10.211   6.216  0.3200 -0.1916  0.9725
  885MOL0     C16692  10.440  10.255   6.131  0.9592 -0.4314 -0.8798
  885MOL0     C16693  10.570  10.217   6.159  0.1386  0.4879  0.4033
  885MOL0     C16694  10.672  10.288   6.095  0.4532 -0.5949  0.0354
  885MOL0     C16695  10.643  10.385   6.003 -0.3022 -0.3538  0.0066
  885MOL0     O16696  10.741  10.440   5.923 -0.3014 -0.2845 -0.4647
  885MOL0     C16697  10.863  10.370   5.891 -0.1864 -0.0851  0.4534
  885MOL0     C16698  10.931  10.456   5.782  0.1657 -0.2210  0.7277
  885MOL0     C16699  11.049  10.373   5.723 -0.0155  0.8167  0.0289
  885MOL0     C16700  11.164  10.383   5.820 -0.3738 -1.0694 -0.2834
  885MOL0     C16701  11.293  10.319   5.764  0.2456  0.0284  0.0175
  885MOL0     C16702  11.299  10.166   5.768  0.2436 -0.8525  0.9169
  885MOL0     C16703  11.306  10.110   5.909 -0.8872 -0.5206  0.6033
  885MOL0     C16704  11.414   9.991   5.923  1.5119 -0.6633  0.8462
  885MOL0     N16705  11.409   9.959   6.058 -0.1552  0.1202  0.1911
  885MOL0     C16706  11.505   9.991   6.155  0.2826 -0.8479  0.1790
  885MOL0     C16707  11.478   9.913   6.253 -0.0547  0.1308  0.1281
  885MOL0     C16708  11.550   9.914   6.384 -0.8427 -0.1314  0.9413
  885MOL0     C16709  11.503  10.040   6.470  0.1659 -0.6069  0.5518
  885MOL0     C16710  11.499  10.038   6.624  0.0615 -0.9297  0.0913
  885MOL0     C16711  11.398  10.148   6.678 -0.4404  0.6333  0.2575
  885MOL0     O16712  11.363  10.130   6.814  0.7827 -0.9273 -0.1453
  885MOL0     C16713  11.244  10.088   6.858  0.1275 -0.6882 -0.9029
  885MOL0     C16714  11.191  10.143   6.980  0.2028 -0.6913 -0.1963
  885MOL0     C16715  11.067  10.113   7.028  0.5124  0.8178 -0.5903
  885MOL0     C16716  10.978  10.033   6.960 -0.7013  0.6200  0.9416
  885MOL0     C16717  10.838  10.003   7.004 -0.0067  0.3854 -1.2136
  885MOL0     O16718  10.766   9.905   6.936 -0.4585  0.3192 -0.2742
  885MOL0     C16719  10.636   9.895   6.965 -0.2042 -0.1157 -1.3294
  885MOL0     C16720  10.586   9.767   6.956  0.4884  0.7151  0.0819
  885MOL0     C16721  10.451   9.736   6.996 -0.3837 -0.6701 -0.5622
  885MOL0     C16722  10.359   9.842   7.034 -0.5213 -0.6623 -0.9862
  885MOL0     O16723  10.233   9.820   7.086 -0.7445 -0.1565 -0.0482
  885MOL0     C16724  10.176   9.682   7.094 -0.9508 -0.2259  0.6921
  885MOL0     C16725  10.052   9.674   7.194  0.0260  0.2016  0.2304
  885MOL0     C16726   9.955   9.780   7.159  0.2624 -0.8732 -0.0333
  885MOL0     C16727   9.821   9.777   7.233 -0.1226  0.1458 -0.1396
  885MOL0     C16728   9.722   9.686   7.158  0.1230 -0.5602 -0.4735
  885MOL0     C16729   9.611   9.653   7.253  0.8546  0.1543  0.5276
  885MOL0     C16730   9.507   9.575   7.171  0.9548 -0.1738  0.1966
  885MOL0     C16731   9.386   9.555   7.266 -0.0960  1.1424 -0.9109
  885MOL0    Cl16732   9.416   9.470   7.417 -0.0432 -0.3840  0.1926
  885MOL0     C16733  10.404   9.967   7.021  0.1153  0.4689 -0.0284
  885MOL0     C16734  10.541   9.993   6.993 -0.4045  0.3045  0.0202
  885MOL0     O16735  10.802  10.063   7.103 -0.4153 -0.1394 -0.0244
  885MOL0     C16736  11.021   9.982   6.834  0.9405 -0.8039 -0.7808
  885MOL0     C16737  11.152  10.005   6.785 -0.7328  0.0187  0.3355
  885MOL0     N16738  11.367   9.843   6.227  0.1107 -0.0942  0.3901
  885MOL0     N16739  11.334   9.855   6.105  0.2590 -0.0944  0.1465
  885MOL0     C16740  10.508  10.424   5.979 -1.0410 -0.0229  0.2236
  885MOL0     C16741  10.406  10.359   6.041 -0.6515  0.3545 -0.2253
  885MOL0     C16742  10.132  10.079   6.225 -0.4202  0.0974 -0.1494
  885MOL0     C16743  10.074   9.956   6.245  0.2835  0.0841  0.9298
  885MOL0     C16744   9.936   9.942   6.260 -0.5078  0.1876 -0.6201
  885MOL0     C16745   9.852  10.049   6.234 -0.3435 -0.6519 -0.0951
  885MOL0     O16746   9.717  10.040   6.224  0.2260  0.1297 -0.2168
  885MOL0     C16747   9.652   9.917   6.208  0.8574 -0.1499  0.1041
  885MOL0     C16748   9.602   9.850   6.335  0.2987  0.3465  0.4150
  885MOL0     C16749   9.557   9.697   6.313  0.2603 -0.4097  0.9740
  885MOL0     C16750   9.479   9.634   6.426  0.4892  0.3771  0.0636
  885MOL0     C16751   9.350   9.704   6.449  0.6249 -0.4826 -0.3062
  885MOL0     C16752   9.233   9.742   6.457 -0.5965  0.5009  0.0166
  885MOL0     C16753   9.911  10.175   6.219 -0.3297  0.7328  1.0046
  885MOL0     C16754  10.050  10.187   6.218 -0.2939 -0.8756  0.1685
  885MOL0     H16755  10.583  10.134   6.227  0.0849 -1.3204 -1.6806
  885MOL0     H16756  10.776  10.280   6.127  1.0762  4.6350  0.1368
  885MOL0     H16757  10.836  10.271   5.851 -0.8762  0.7971 -1.3719
  885MOL0     H16758  10.929  10.375   5.978  1.7214  1.6329 -1.0241
  885MOL0     H16759  10.959  10.557   5.813  0.5818  0.5684 -1.9701
  885MOL0     H16760  10.862  10.468   5.699  1.2665 -0.0442 -0.1791
  885MOL0     H16761  11.076  10.414   5.625  1.7096  1.0092  0.5518
  885MOL0     H16762  11.014  10.270   5.711  1.8157  0.2610 -0.8800
  885MOL0     H16763  11.188  10.490   5.826  0.3705 -1.1844 -1.0091
  885MOL0     H16764  11.139  10.340   5.917 -0.6983  1.9869  1.0899
  885MOL0     H16765  11.376  10.361   5.823 -1.4260 -0.8527  3.2587
  885MOL0     H16766  11.307  10.361   5.664 -0.0119 -0.8346 -0.3871
  885MOL0     H16767  11.392  10.143   5.715  0.1700  2.1844 -0.8190
  885MOL0     H16768  11.214  10.128   5.710 -0.2070 -1.5642  2.0130
  885MOL0     H16769  11.335  10.184   5.984 -2.6181  1.3242 -0.4647
  885MOL0     H16770  11.212  10.071   5.948 -1.1207  1.3316  2.0307
  885MOL0     H16771  11.514  10.020   5.887 -0.0033  1.9659 -1.6905
  885MOL0     H16772  11.371   9.913   5.859  0.4919  0.3983  0.2003
  885MOL0     H16773  11.590  10.058   6.148  1.8496 -2.7782 -0.1655
  885MOL0     H16774  11.657   9.924   6.366 -0.3714 -3.2730  1.4531
  885MOL0     H16775  11.541   9.823   6.444  2.7574 -0.3700  1.3390
  885MOL0     H16776  11.402  10.065   6.438  1.5737 -0.3632 -4.4911
  885MOL0     H16777  11.565  10.128   6.447 -0.0161  0.0501  2.3724
  885MOL0     H16778  11.468   9.942   6.666  0.2218 -1.1410 -0.2693
  885MOL0     H16779  11.602  10.057   6.653  0.8707 -1.0846 -2.4539
  885MOL0     H16780  11.311  10.154   6.612  1.5740 -3.4199 -3.2786
  885MOL0     H16781  11.446  10.246   6.686  0.5749  0.5534 -3.3708
  885MOL0     H16782  11.253  10.215   7.032 -0.4708 -0.3721  0.1858
  885MOL0     H16783  11.039  10.173   7.114 -0.1218 -0.9921  0.5453
  885MOL0     H16784  10.654   9.688   6.923 -1.1441 -0.3269 -0.9478
  885MOL0     H16785  10.417   9.633   7.001  1.4740 -1.3018 -0.4085
  885MOL0     H16786  10.249   9.617   7.145  1.2554  1.0022 -0.7487
  885MOL0     H16787  10.144   9.640   6.998 -1.2636 -1.0717  1.1560
  885MOL0     H16788  10.092   9.675   7.295  1.9545  0.7773 -0.4879
  885MOL0     H16789  10.000   9.580   7.173  1.2862 -0.5158  0.1946
  885MOL0     H16790   9.942   9.774   7.050 -2.8963 -0.0688  0.1923
  885MOL0     H16791  10.007   9.875   7.177 -1.0454  0.3201 -2.0792
  885MOL0     H16792   9.827   9.745   7.337 -1.9057  2.7455  0.8689
  885MOL0     H16793   9.785   9.880   7.236  2.8391  1.2496  1.0166
  885MOL0     H16794   9.772   9.598   7.118  0.9598 -0.5320  0.4701
  885MOL0     H16795   9.689   9.745   7.071 -0.1860  0.7467  0.4935
  885MOL0     H16796   9.567   9.737   7.307  0.8591  0.2775  0.3380
  885MOL0     H16797   9.651   9.583   7.327  1.3006  0.0267  0.1682
  885MOL0     H16798   9.469   9.631   7.085  1.4751  1.3322  0.9094
  885MOL0     H16799   9.547   9.481   7.132  0.4881  0.9571 -3.4296
  885MOL0     H16800   9.316   9.490   7.214  0.8415 -0.4956 -0.2001
  885MOL0     H16801   9.336   9.649   7.290 -3.7074 -1.2043  1.8713
  885MOL0     H16802  10.336  10.050   7.039 -1.2726 -0.6501  0.0840
  885MOL0     H16803  10.572  10.097   6.993 -0.6161  0.3833 -1.0844
  885MOL0     H16804  10.954   9.907   6.792  0.0205 -1.3491  1.5404
  885MOL0     H16805  11.178   9.962   6.689 -0.6861 -2.6674  1.4720
  885MOL0     H16806  10.489  10.506   5.911 -2.4971  0.6853  1.4075
  885MOL0     H16807  10.305  10.398   6.049 -1.1238 -1.1643  2.6498
  885MOL0     H16808  10.127   9.861   6.251 -2.1934 -1.3034  3.5955
  885MOL0     H16809   9.888   9.845   6.266 -0.2072 -0.0420 -1.6707
  885MOL0     H16810   9.720   9.853   6.151  1.1637  1.8978 -1.9646
  885MOL0     H16811   9.562   9.940   6.149 -1.4394  0.3513  3.4981
  885MOL0     H16812   9.681   9.853   6.411  1.4493  2.9650 -0.7624
  885MOL0     H16813   9.520   9.909   6.378  0.0420  1.1189 -1.0775
  885MOL0     H16814   9.644   9.631   6.303  1.1582  1.0092 -1.5257
  885MOL0     H16815   9.492   9.683   6.227  4.5364 -0.4802 -2.6213
  885MOL0     H16816   9.453   9.533   6.393  0.7074 -0.4096  2.1772
  885MOL0     H16817   9.549   9.627   6.510  0.1495 -2.2350  0.1867
  885MOL0     H16818   9.134   9.784   6.458 -0.9405 -0.0252 -2.7942
  885MOL0     H16819   9.866  10.269   6.188 -0.8199  0.0985 -0.3039
  885MOL0     H16820  10.093  10.284   6.195 -3.4482  0.6365  0.0672
  886MOL0     O16821   8.555  10.805  10.814  1.1193  0.6804 -0.3541
  886MOL0     C16822   8.554  10.747  10.928  0.5163  0.0139 -0.1033
  886MOL0     O16823   8.456  10.668  10.980  0.0421  0.3041 -0.4538
  886MOL0     C16824   8.353  10.621  10.895  0.2090 -0.3848 -0.6903
  886MOL0     C16825   8.249  10.709  10.861 -0.0448 -0.0749 -0.4684
  886MOL0     C16826   8.139  10.662  10.791  0.5734 -0.0809 -0.3647
  886MOL0     C16827   8.148  10.536  10.727  0.7950 -0.3350 -0.2765
  886MOL0     O16828   8.044  10.500  10.646  0.2538  0.0400  0.6980
  886MOL0     C16829   7.920  10.470  10.712 -0.7631  0.1616 -0.4677
  886MOL0     C16830   7.908  10.319  10.716 -0.1113 -0.2036  0.6766
  886MOL0     C16831   7.768  10.296  10.779  1.1173  0.8769  0.0145
  886MOL0     C16832   7.651  10.341  10.683  0.8149 -1.4951  0.7111
  886MOL0     C16833   7.512  10.314  10.747 -0.7169 -0.2167 -0.2016
  886MOL0     C16834   7.415  10.250  10.656 -0.3739 -0.5196  0.0927
  886MOL0     C16835   7.376  10.351  10.543 -1.0152 -0.6051  0.9376
  886MOL0     C16836   7.296  10.471  10.592 -0.3007 -0.2133 -0.1708
  886MOL0     N16837   7.217  10.533  10.483  0.7656  0.9551  0.6095
  886MOL0     C16838   7.079  10.521  10.480  0.1453 -0.2640 -0.4703
  886MOL0     C16839   7.038  10.608  10.387  0.1399  0.1312 -0.1809
  886MOL0     C16840   6.903  10.625  10.331 -0.4926  0.1633  0.1472
  886MOL0     C16841   6.799  10.648  10.440  0.3901  0.0634  0.8984
  886MOL0     C16842   6.664  10.593  10.391 -0.2510  1.2525 -0.5754
  886MOL0     C16843   6.548  10.623  10.487  0.7910  0.3800  0.1362
  886MOL0     O16844   6.429  10.593  10.415 -0.5539 -0.8462  0.4147
  886MOL0     C16845   6.331  10.511  10.464  0.1604  0.1639 -0.5035
  886MOL0     C16846   6.349  10.404  10.562 -0.3079 -0.1204 -0.0671
  886MOL0     C16847   6.235  10.340  10.618  0.2439 -0.6421 -0.5213
  886MOL0     C16848   6.099  10.376  10.563  0.5405  0.5123 -0.1894
  886MOL0     C16849   5.989  10.279  10.608  0.3113  0.3235  0.9626
  886MOL0     O16850   5.873  10.301  10.538  0.0825  0.1732  0.6723
  886MOL0     C16851   5.756  10.243  10.567  0.3572 -0.2385 -0.7844
  886MOL0     C16852   5.665  10.242  10.456 -0.4545  0.0249 -0.7577
  886MOL0     C16853   5.536  10.198  10.475 -0.3500  0.3721 -0.4974
  886MOL0     C16854   5.491  10.166  10.604  0.8954 -0.7686  0.0659
  886MOL0     O16855   5.359  10.134  10.619 -0.0684  0.4335  0.3292
  886MOL0     C16856   5.288  10.193  10.738 -0.4198  0.0560  0.2782
  886MOL0     C16857   5.143  10.220  10.696 -0.3800 -0.1176  0.3383
  886MOL0     C16858   5.060  10.096  10.691  0.0527 -0.2602  0.1706
  886MOL0     C16859   4.912  10.142  10.674 -0.3003 -0.6657 -0.5332
  886MOL0     C16860   4.840  10.008  10.660  0.3519 -0.6513  0.5846
  886MOL0     C16861   4.686  10.032  10.659 -0.4090  0.0901  0.0978
  886MOL0     C16862   4.626  10.018  10.799  0.5105 -0.9824  0.7713
  886MOL0     C16863   4.489  10.067  10.801 -0.4019 -1.2977  0.3580
  886MOL0    Cl16864   4.366   9.951  10.750 -0.0273 -0.1073  0.0279
  886MOL0     C16865   5.579  10.171  10.716 -0.5389  0.0833 -0.0687
  886MOL0     C16866   5.709  10.203  10.694  0.7099  0.6167 -0.3047
  886MOL0     O16867   6.016  10.186  10.685  1.0309  0.1549  0.9512
  886MOL0     C16868   6.085  10.476  10.472  0.1480  0.8667  0.2256
  886MOL0     C16869   6.201  10.542  10.423  1.1158 -0.0406  0.2607
  886MOL0     N16870   7.154  10.660  10.329 -1.1191  0.0918 -0.2073
  886MOL0     N16871   7.259  10.616  10.384 -0.0585 -0.4486  0.2687
  886MOL0     C16872   8.250  10.441  10.762  0.1525  0.4576 -0.0716
  886MOL0     C16873   8.356  10.489  10.839 -0.7554 -0.6738  0.3022
  886MOL0     C16874   8.673  10.780  11.018 -0.4647  0.0820  0.2292
  886MOL0     C16875   8.685  10.724  11.151  0.6386 -0.3572  0.2393
  886MOL0     C16876   8.805  10.736  11.223  1.0711 -0.1304 -0.0656
  886MOL0     C16877   8.919  10.810  11.173  0.7798  0.7455  1.1057
  886MOL0     O16878   9.033  10.835  11.243 -0.0034 -1.0616 -0.2293
  886MOL0     C16879   9.084  10.716  11.306 -0.4839  0.2553  0.0486
  886MOL0     C16880   9.147  10.623  11.201 -0.3904  0.4836  0.9500
  886MOL0     C16881   9.286  10.668  11.143 -1.1739  0.4747 -0.6925
  886MOL0     C16882   9.284  10.797  11.061  0.3304  0.9741  0.7909
  886MOL0     C16883   9.410  10.802  10.989  0.2753 -0.4660 -0.6391
  886MOL0     C16884   9.513  10.797  10.922  0.7346  0.1905 -0.0441
  886MOL0     C16885   8.900  10.864  11.044 -0.5882  0.8076 -0.9293
  886MOL0     C16886   8.787  10.837  10.966 -1.0856  1.1327  0.7994
  886MOL0     H16887   8.254  10.816  10.878  4.3534  0.1827 -2.0530
  886MOL0     H16888   8.063  10.733  10.759  0.2301  0.2241  1.0412
  886MOL0     H16889   7.843  10.526  10.658  2.0276  4.0692 -0.8878
  886MOL0     H16890   7.926  10.509  10.814  1.3320  1.2111 -0.9258
  886MOL0     H16891   7.975  10.257  10.777 -0.3606 -2.4301 -1.1813
  886MOL0     H16892   7.893  10.276  10.617 -1.2541  0.1958  0.6625
  886MOL0     H16893   7.759  10.331  10.883  2.9473 -4.7656  2.4275
  886MOL0     H16894   7.760  10.188  10.793  1.9672  0.9769  1.5894
  886MOL0     H16895   7.664  10.445  10.655 -0.7369 -2.0218 -2.2822
  886MOL0     H16896   7.655  10.290  10.586  0.4198 -0.1082 -0.0465
  886MOL0     H16897   7.489  10.407  10.799  3.6195 -1.0150  3.8775
  886MOL0     H16898   7.513  10.234  10.821 -0.7085  0.5849  0.6783
  886MOL0     H16899   7.325  10.222  10.711 -2.6112  0.8375 -2.6322
  886MOL0     H16900   7.460  10.159  10.616 -0.2523 -0.6559  0.5364
  886MOL0     H16901   7.464  10.390  10.491 -2.4565 -1.8370 -2.7583
  886MOL0     H16902   7.318  10.312  10.460  0.3897 -0.4337 -0.1720
  886MOL0     H16903   7.357  10.536  10.655 -0.8319 -2.1610  2.5661
  886MOL0     H16904   7.227  10.419  10.660 -0.7696  1.5544  0.7867
  886MOL0     H16905   7.016  10.468  10.551  1.2548 -0.1090  0.6716
  886MOL0     H16906   6.880  10.536  10.273  1.5857 -0.2252 -0.1487
  886MOL0     H16907   6.897  10.715  10.269 -2.2468 -0.2754 -0.3952
  886MOL0     H16908   6.807  10.755  10.461 -0.0182  0.1409  0.6691
  886MOL0     H16909   6.827  10.601  10.534 -0.0869 -0.3951  0.8128
  886MOL0     H16910   6.641  10.633  10.292 -0.3337  1.5252 -0.4486
  886MOL0     H16911   6.674  10.484  10.387  0.0305  1.3125 -3.3542
  886MOL0     H16912   6.551  10.728  10.518 -4.1169  0.9555 -0.5764
  886MOL0     H16913   6.553  10.557  10.574  1.8440 -2.4870 -1.9323
  886MOL0     H16914   6.447  10.377  10.598 -0.9506 -1.0300  1.0408
  886MOL0     H16915   6.249  10.258  10.687 -1.0808 -2.3056 -2.1165
  886MOL0     H16916   5.693  10.275  10.357 -2.6027 -4.5464 -3.1955
  886MOL0     H16917   5.480  10.178  10.384  0.6397  0.7802 -1.2217
  886MOL0     H16918   5.330  10.292  10.757 -0.6442 -0.0104  1.1736
  886MOL0     H16919   5.299  10.141  10.833 -2.5073  1.3729  1.3034
  886MOL0     H16920   5.149  10.266  10.597 -0.0743  1.4406  1.0533
  886MOL0     H16921   5.103  10.295  10.765  3.7879  2.7637  0.0026
  886MOL0     H16922   5.073  10.036  10.781  0.1171  0.9012  0.9564
  886MOL0     H16923   5.086  10.029  10.608 -1.0761 -1.2913  0.6128
  886MOL0     H16924   4.868  10.200  10.756 -1.1689 -0.7557 -0.9238
  886MOL0     H16925   4.899  10.194  10.578  2.0559 -3.3165 -2.4582
  886MOL0     H16926   4.859   9.941  10.744  3.7815 -0.3876  0.1490
  886MOL0     H16927   4.862   9.954  10.567  1.2812 -0.5350  0.7299
  886MOL0     H16928   4.650   9.949  10.597  2.6255 -0.1826 -1.4643
  886MOL0     H16929   4.655  10.120  10.602 -0.5329 -0.2092 -0.3048
  886MOL0     H16930   4.625   9.913  10.829 -0.0192 -1.2076  0.0017
  886MOL0     H16931   4.685  10.077  10.870  2.5702 -1.1436 -0.7280
  886MOL0     H16932   4.470  10.159  10.745 -1.8153 -2.3561 -1.0118
  886MOL0     H16933   4.468  10.091  10.906  0.3858  2.4709 -0.2007
  886MOL0     H16934   5.544  10.136  10.813 -3.0166 -0.4105 -1.0880
  886MOL0     H16935   5.771  10.204  10.783  2.2850 -0.6058 -1.3323
  886MOL0     H16936   5.984  10.496  10.438 -1.4651 -0.5382  3.7119
  886MOL0     H16937   6.190  10.612  10.342 -1.4709  1.1997  1.5476
  886MOL0     H16938   8.255  10.341  10.721  1.4076  0.8627 -0.9685
  886MOL0     H16939   8.445  10.430  10.858  1.5426  1.4318 -2.9486
  886MOL0     H16940   8.606  10.670  11.203 -0.4323  1.2084  0.3137
  886MOL0     H16941   8.810  10.681  11.316 -0.5592 -1.2892 -0.6171
  886MOL0     H16942   9.005  10.655  11.348 -0.9622 -0.4174 -1.7314
  886MOL0     H16943   9.163  10.753  11.372  0.1506  1.2155 -1.1895
  886MOL0     H16944   9.175  10.536  11.261  0.5963 -0.1726 -0.4021
  886MOL0     H16945   9.081  10.603  11.116  0.0111 -0.1248  0.7754
  886MOL0     H16946   9.336  10.591  11.083 -0.5389  2.5647 -3.0208
  886MOL0     H16947   9.359  10.682  11.223 -0.9756 -0.5951 -0.6741
  886MOL0     H16948   9.201  10.784  10.991  1.6213 -2.7517 -0.2783
  886MOL0     H16949   9.274  10.882  11.129 -0.9098  1.3107  0.2013
  886MOL0     H16950   9.589  10.806  10.847  1.4180 -2.1425  0.3121
  886MOL0     H16951   8.983  10.916  10.996 -0.5736  2.8202  1.1256
  886MOL0     H16952   8.788  10.863  10.861  1.0828 -2.9365 -0.4230
  887MOL0     O16953  10.311   4.095   2.252  0.0912  0.3442  0.5311
  887MOL0     C16954  10.366   4.201   2.281  0.9166  0.5771  0.1980
  887MOL0     O16955  10.308   4.322   2.282 -0.6421  0.2959  0.3411
  887MOL0     C16956  10.172   4.352   2.290 -0.1191 -0.8548  0.7602
  887MOL0     C16957  10.137   4.485   2.276  1.2540 -0.3249  0.3053
  887MOL0     C16958  10.000   4.525   2.277  0.3076 -0.1029  0.7961
  887MOL0     C16959   9.903   4.435   2.305  0.1646  0.0837  0.6575
  887MOL0     O16960   9.768   4.464   2.306 -0.2872 -0.4141  0.3413
  887MOL0     C16961   9.726   4.603   2.310 -0.6550 -0.6553 -0.0715
  887MOL0     C16962   9.575   4.608   2.305 -0.1587 -0.6827 -0.3749
  887MOL0     C16963   9.521   4.733   2.357 -0.2972  0.0183 -0.5304
  887MOL0     C16964   9.372   4.752   2.332  1.1258  0.4667 -0.3670
  887MOL0     C16965   9.308   4.887   2.378 -0.5708 -0.6104  0.1041
  887MOL0     C16966   9.179   4.930   2.326  0.1771  0.3284  0.2884
  887MOL0     C16967   9.116   5.058   2.400 -1.3221  0.1974 -0.3810
  887MOL0     C16968   8.985   5.095   2.327  0.5273  0.6930 -0.1013
  887MOL0     N16969   8.924   5.221   2.368 -0.1516 -0.1368 -0.2311
  887MOL0     C16970   8.973   5.347   2.342 -0.3907 -0.4691 -0.2350
  887MOL0     C16971   8.881   5.431   2.386 -0.2950 -0.0978  0.3144
  887MOL0     C16972   8.903   5.576   2.381  0.4946 -0.4308 -0.6684
  887MOL0     C16973   8.947   5.633   2.524 -0.7495  0.3430  0.8543
  887MOL0     C16974   9.023   5.536   2.614  0.0678  0.7692  0.4174
  887MOL0     C16975   9.167   5.517   2.553 -0.9665 -0.1045  0.6685
  887MOL0     O16976   9.233   5.403   2.615  0.6088 -0.7117  0.9074
  887MOL0     C16977   9.355   5.362   2.569 -0.1213  0.2742 -0.8131
  887MOL0     C16978   9.399   5.231   2.589 -0.4398  0.4284  0.5533
  887MOL0     C16979   9.514   5.181   2.520 -0.1747 -0.6040 -0.5039
  887MOL0     C16980   9.598   5.264   2.446  0.6212 -0.4390  0.7373
  887MOL0     C16981   9.719   5.209   2.380  0.3609 -0.6833 -0.1091
  887MOL0     O16982   9.746   5.079   2.402  0.1544 -0.8851 -0.1372
  887MOL0     C16983   9.858   5.027   2.354  0.8423  0.6955  0.3600
  887MOL0     C16984   9.860   4.965   2.227 -0.1828 -0.3855  0.1677
  887MOL0     C16985   9.971   4.896   2.187 -0.3767 -0.2827  0.0762
  887MOL0     C16986  10.085   4.890   2.264  0.4328  0.5309  0.1170
  887MOL0     O16987  10.205   4.839   2.213  0.0187 -0.7780  0.1387
  887MOL0     C16988  10.230   4.825   2.072 -1.2880 -1.3094 -0.3747
  887MOL0     C16989  10.385   4.799   2.075  0.0488 -0.4479  0.2867
  887MOL0     C16990  10.460   4.808   1.934 -0.1934 -0.0987 -0.4491
  887MOL0     C16991  10.611   4.810   1.965  0.5318  0.5985  0.8307
  887MOL0     C16992  10.693   4.776   1.832  0.7268  0.1503  0.1209
  887MOL0     C16993  10.846   4.772   1.855 -0.4218 -0.7967 -0.8297
  887MOL0     C16994  10.893   4.673   1.962  0.4724 -0.6594 -0.3599
  887MOL0     C16995  11.039   4.689   1.999  1.3075 -0.0383 -0.0030
  887MOL0    Cl16996  11.073   4.847   2.084  0.3235 -0.3220 -0.1459
  887MOL0     C16997  10.081   4.944   2.390  0.3094 -0.1556  0.5479
  887MOL0     C16998   9.969   5.015   2.436  0.5245 -0.5104 -0.3180
  887MOL0     O16999   9.791   5.283   2.305  0.7386 -0.2672  0.3606
  887MOL0     C17000   9.565   5.397   2.433  0.3130 -0.3392 -0.4148
  887MOL0     C17001   9.443   5.442   2.490 -0.7587  0.7127  0.2969
  887MOL0     N17002   8.767   5.354   2.427 -0.6383 -0.0544  0.2337
  887MOL0     N17003   8.795   5.230   2.416  0.4798  0.0061  0.6515
  887MOL0     C17004   9.943   4.300   2.318  0.9563  0.0855 -0.5717
  887MOL0     C17005  10.069   4.260   2.317  0.0347  0.9939 -0.2119
  887MOL0     C17006  10.512   4.191   2.319  0.6046  0.8456  0.6155
  887MOL0     C17007  10.592   4.295   2.355 -0.3982 -0.4322  0.5365
  887MOL0     C17008  10.728   4.273   2.397  0.9750  0.6316 -0.1238
  887MOL0     C17009  10.772   4.144   2.416 -0.6293 -0.2863 -0.7026
  887MOL0     O17010  10.905   4.122   2.470  0.7807  0.4756 -0.1612
  887MOL0     C17011  10.941   3.983   2.506 -0.0591 -0.3324 -0.9345
  887MOL0     C17012  11.013   3.909   2.398  0.2940  0.6171 -0.3059
  887MOL0     C17013  11.146   3.980   2.361  1.0740  1.0233  0.8498
  887MOL0     C17014  11.255   3.952   2.460 -0.7185 -0.3184 -1.1696
  887MOL0     C17015  11.384   3.996   2.411  0.8171 -0.3253  0.1914
  887MOL0     C17016  11.494   4.040   2.393 -0.3274  0.0876  0.4651
  887MOL0     C17017  10.684   4.033   2.387  0.3201 -0.2074  0.4013
  887MOL0     C17018  10.561   4.059   2.331  0.5881  0.3910  0.7301
  887MOL0     H17019  10.215   4.559   2.261 -0.1776  0.9857 -1.0288
  887MOL0     H17020   9.982   4.631   2.260 -1.5795  0.3129  4.2484
  887MOL0     H17021   9.764   4.655   2.221  0.2058 -0.4216  0.4129
  887MOL0     H17022   9.766   4.656   2.397  0.6965  0.7786 -1.4882
  887MOL0     H17023   9.529   4.528   2.363 -0.6354 -0.1784 -0.0586
  887MOL0     H17024   9.541   4.599   2.202 -0.0050  0.6189 -0.5522
  887MOL0     H17025   9.588   4.814   2.324  2.5815 -1.8295  0.3748
  887MOL0     H17026   9.528   4.740   2.466 -0.4798  1.1261 -0.5799
  887MOL0     H17027   9.347   4.731   2.228  0.8921 -1.3859  0.0188
  887MOL0     H17028   9.322   4.676   2.393  2.6320 -0.9920 -0.8863
  887MOL0     H17029   9.382   4.963   2.350  3.3297 -3.0582  2.8346
  887MOL0     H17030   9.306   4.901   2.486 -0.2808 -1.1718  0.1849
  887MOL0     H17031   9.101   4.853   2.319 -0.5402  1.1171 -0.8077
  887MOL0     H17032   9.190   4.957   2.221 -2.0627  0.1304 -0.0508
  887MOL0     H17033   9.108   5.032   2.506  2.7406 -1.9179 -0.3910
  887MOL0     H17034   9.181   5.142   2.373  1.5187 -1.7124  0.0981
  887MOL0     H17035   8.923   5.014   2.367  1.3964  1.4711  3.1427
  887MOL0     H17036   8.996   5.085   2.219 -0.7735  0.3614 -0.2256
  887MOL0     H17037   9.071   5.371   2.300  1.6977 -3.2932  2.5080
  887MOL0     H17038   8.810   5.633   2.366  1.7682  1.6984 -0.9526
  887MOL0     H17039   8.981   5.612   2.314  0.9628  0.6054  0.3940
  887MOL0     H17040   8.856   5.653   2.582 -1.8056 -2.0300  0.1343
  887MOL0     H17041   9.004   5.723   2.502  1.3551 -1.6911 -3.0842
  887MOL0     H17042   9.025   5.582   2.713  2.8742  1.8638 -0.0570
  887MOL0     H17043   8.972   5.440   2.625  2.4538 -0.9774 -2.1151
  887MOL0     H17044   9.212   5.614   2.575  1.8187 -1.6101  2.1899
  887MOL0     H17045   9.166   5.491   2.447  3.5226 -0.5982  0.5681
  887MOL0     H17046   9.327   5.164   2.635 -1.2346  0.3445 -0.7672
  887MOL0     H17047   9.538   5.075   2.531  0.1996 -0.6013 -1.2376
  887MOL0     H17048   9.767   4.965   2.171  0.4370  3.4377 -1.1623
  887MOL0     H17049   9.973   4.848   2.090  0.2673  0.1369 -0.1281
  887MOL0     H17050  10.211   4.917   2.016  3.4915 -0.9802 -1.8650
  887MOL0     H17051  10.185   4.739   2.022  0.0175 -2.9833  1.2024
  887MOL0     H17052  10.395   4.696   2.111 -1.7399  0.1052  2.5854
  887MOL0     H17053  10.421   4.873   2.147 -1.1707 -0.4624  0.9446
  887MOL0     H17054  10.433   4.901   1.883  1.9066  0.9451  0.2484
  887MOL0     H17055  10.434   4.727   1.865  0.6123 -0.1459 -0.6974
  887MOL0     H17056  10.638   4.901   2.018 -1.1108  1.5748  0.1000
  887MOL0     H17057  10.630   4.727   2.033  1.0171  1.6172  1.9629
  887MOL0     H17058  10.663   4.844   1.752 -1.9736  0.0756  0.9473
  887MOL0     H17059  10.668   4.677   1.792  0.6995  0.2360 -0.0736
  887MOL0     H17060  10.887   4.873   1.869 -1.2837 -0.2226 -2.2484
  887MOL0     H17061  10.899   4.733   1.768  1.2582  1.0448 -0.6943
  887MOL0     H17062  10.831   4.676   2.052 -0.8942 -3.9222 -1.0551
  887MOL0     H17063  10.867   4.578   1.915 -0.9726 -0.1068 -0.7508
  887MOL0     H17064  11.098   4.679   1.907 -1.0833 -1.1333 -1.5054
  887MOL0     H17065  11.064   4.615   2.075  0.0580 -2.5331 -1.8957
  887MOL0     H17066  10.176   4.943   2.444  0.3460  1.7897  0.5875
  887MOL0     H17067   9.973   5.064   2.533  1.9830 -0.0207 -0.6120
  887MOL0     H17068   9.635   5.466   2.387 -0.3954  0.3985 -0.4357
  887MOL0     H17069   9.409   5.544   2.475 -3.2096  0.1706  1.6434
  887MOL0     H17070   9.865   4.225   2.326 -0.4952  1.5299 -0.5651
  887MOL0     H17071  10.090   4.157   2.346 -3.3988  0.8512  2.4585
  887MOL0     H17072  10.557   4.397   2.348  0.2057  0.0203  3.0810
  887MOL0     H17073  10.793   4.357   2.417  0.5002  1.1700 -0.7722
  887MOL0     H17074  10.857   3.927   2.547  1.0832 -0.3025  1.6619
  887MOL0     H17075  10.998   4.007   2.596 -2.8164  4.2969 -0.1104
  887MOL0     H17076  11.035   3.812   2.444  2.1305  0.7345 -0.8851
  887MOL0     H17077  10.955   3.899   2.306  1.4921 -1.2992 -0.9042
  887MOL0     H17078  11.133   4.088   2.350 -0.7805  0.6523 -1.5602
  887MOL0     H17079  11.164   3.961   2.255 -2.9550 -0.8025  0.2906
  887MOL0     H17080  11.232   4.007   2.552  2.3236 -0.6468 -0.1256
  887MOL0     H17081  11.260   3.844   2.475 -4.2955 -0.5329 -0.5967
  887MOL0     H17082  11.597   4.067   2.378 -0.8670  1.1202 -1.9389
  887MOL0     H17083  10.707   3.928   2.398 -0.4040 -0.4356 -0.2007
  887MOL0     H17084  10.505   3.972   2.298  1.0627 -0.6179  2.4771
  888MOL0     O17085   2.080   3.837   6.338 -0.4937 -0.6474 -0.1794
  888MOL0     C17086   2.058   3.875   6.454  0.1280  0.6063  0.0489
  888MOL0     O17087   1.948   3.933   6.499  0.3188 -0.5278  0.2842
  888MOL0     C17088   1.841   3.941   6.410  0.4508  0.0332 -0.1315
  888MOL0     C17089   1.798   3.841   6.319 -0.0167  0.4351 -0.2397
  888MOL0     C17090   1.691   3.864   6.229 -0.2280 -1.1873  0.5978
  888MOL0     C17091   1.626   3.983   6.226 -0.1739  0.4080 -0.5990
  888MOL0     O17092   1.528   3.988   6.141 -0.0301  0.3923 -0.5335
  888MOL0     C17093   1.408   4.047   6.179  0.2331 -0.0669  0.1389
  888MOL0     C17094   1.294   3.980   6.091  0.3401  0.2014  0.6799
  888MOL0     C17095   1.211   4.083   6.031 -0.9365 -0.0021  0.2501
  888MOL0     C17096   1.095   4.019   5.955 -0.6882 -0.1342 -0.7753
  888MOL0     C17097   1.035   4.113   5.858 -1.1610  0.5261 -0.3050
  888MOL0     C17098   0.965   4.227   5.912  0.2774 -0.4623  0.5325
  888MOL0     C17099   0.873   4.294   5.808  0.1607  0.3696 -0.4536
  888MOL0     C17100   0.790   4.398   5.878 -0.1894  0.1667 -0.2061
  888MOL0     N17101   0.691   4.446   5.773 -0.5343  0.1911 -0.4226
  888MOL0     C17102   0.707   4.544   5.679  0.3294  1.5701 -0.6459
  888MOL0     C17103   0.610   4.521   5.594  0.7371 -0.1604 -0.2261
  888MOL0     C17104   0.566   4.600   5.476 -0.8013 -0.2385 -1.2441
  888MOL0     C17105   0.425   4.656   5.495  0.9704 -0.3828 -0.8598
  888MOL0     C17106   0.370   4.690   5.358 -0.0701  0.5291  0.4107
  888MOL0     C17107   0.239   4.768   5.354 -0.0329 -0.0871  0.2126
  888MOL0     O17108   0.132   4.681   5.396  0.6677 -0.8721  0.6619
  888MOL0     C17109   0.004   4.695   5.357  0.2065  0.4652  0.3468
  888MOL0     C17110  -0.083   4.590   5.365  0.3391  0.1671  1.4147
  888MOL0     C17111  -0.219   4.605   5.332  0.6594  0.2835  0.2761
  888MOL0     C17112  -0.270   4.726   5.286 -0.3785  0.3555 -0.1467
  888MOL0     C17113  -0.410   4.746   5.250  0.7076 -0.1137 -0.1028
  888MOL0     O17114  -0.497   4.639   5.254 -0.0656 -0.4299 -0.8162
  888MOL0     C17115  -0.624   4.649   5.195 -0.7087 -0.0360  0.3373
  888MOL0     C17116  -0.672   4.752   5.107  0.2935  0.0000 -0.4279
  888MOL0     C17117  -0.810   4.758   5.063 -0.1776 -0.1600 -0.3105
  888MOL0     C17118  -0.896   4.662   5.108  0.3014 -0.1431  0.4686
  888MOL0     O17119  -1.030   4.663   5.083 -0.1271 -0.7341 -0.2908
  888MOL0     C17120  -1.085   4.719   4.970  0.2151 -0.5043 -0.5369
  888MOL0     C17121  -1.222   4.645   4.952 -0.1928 -0.2163  0.4192
  888MOL0     C17122  -1.338   4.697   5.025 -1.0940 -0.0789  0.7014
  888MOL0     C17123  -1.479   4.642   4.984  0.2064  0.8895  0.9760
  888MOL0     C17124  -1.495   4.490   4.976  0.1609 -0.3921 -0.1785
  888MOL0     C17125  -1.628   4.435   4.980 -0.3978 -0.2537  0.2988
  888MOL0     C17126  -1.720   4.487   4.868 -0.0381  0.1034  0.7258
  888MOL0     C17127  -1.841   4.387   4.822 -0.6619 -0.2954  0.1178
  888MOL0    Cl17128  -1.930   4.315   4.968 -0.0600 -0.0914  0.1061
  888MOL0     C17129  -0.852   4.568   5.187 -0.0432  0.5257 -0.6090
  888MOL0     C17130  -0.721   4.560   5.238  0.0741  0.1071 -0.3510
  888MOL0     O17131  -0.448   4.866   5.241  0.1234  0.5030  0.1371
  888MOL0     C17132  -0.173   4.825   5.267  0.4570  0.2492 -0.3907
  888MOL0     C17133  -0.037   4.814   5.294 -0.0927 -0.1893 -0.0818
  888MOL0     N17134   0.532   4.408   5.632 -0.1868 -0.4059 -0.4571
  888MOL0     N17135   0.586   4.367   5.741 -0.0284  0.2228  0.3369
  888MOL0     C17136   1.655   4.080   6.326  0.1214  0.2153 -0.0911
  888MOL0     C17137   1.763   4.057   6.415 -0.2974 -0.9479 -0.2259
  888MOL0     C17138   2.169   3.873   6.549  1.0152  0.6478  0.6311
  888MOL0     C17139   2.303   3.852   6.509  0.8351  0.0693  0.0552
  888MOL0     C17140   2.403   3.855   6.597 -0.4371 -0.2786  0.4562
  888MOL0     C17141   2.373   3.883   6.735 -0.5782 -0.5437  0.0169
  888MOL0     O17142   2.461   3.863   6.838 -0.3042 -0.4517  0.2308
  888MOL0     C17143   2.602   3.878   6.810 -0.0047 -0.2979  0.1293
  888MOL0     C17144   2.654   4.014   6.749 -0.3956 -0.3149  0.1254
  888MOL0     C17145   2.715   4.104   6.860  0.2282 -0.0880 -0.3738
  888MOL0     C17146   2.857   4.088   6.884 -0.3556  0.3472 -0.0103
  888MOL0     C17147   2.886   4.133   7.014 -0.8343  0.1478  0.8825
  888MOL0     C17148   2.906   4.175   7.128  0.4625  0.0819 -0.2968
  888MOL0     C17149   2.241   3.901   6.771 -0.3250  0.1615 -0.0563
  888MOL0     C17150   2.135   3.899   6.679  0.8186 -0.3231 -0.7129
  888MOL0     H17151   1.842   3.742   6.318 -4.4202 -1.8250  0.9544
  888MOL0     H17152   1.663   3.778   6.170  1.6892 -0.5650 -1.3129
  888MOL0     H17153   1.403   4.154   6.159 -1.2325 -0.2525 -0.6496
  888MOL0     H17154   1.394   4.026   6.286 -1.9147 -0.0764 -0.0921
  888MOL0     H17155   1.231   3.922   6.159 -1.2598  1.7461  0.5878
  888MOL0     H17156   1.337   3.918   6.011  0.4415  1.6700 -0.4336
  888MOL0     H17157   1.279   4.135   5.963 -0.4975  0.2246  0.8486
  888MOL0     H17158   1.179   4.161   6.100  1.8159  1.8306 -0.3793
  888MOL0     H17159   1.122   3.928   5.901 -1.9114 -0.4106 -0.9630
  888MOL0     H17160   1.017   3.994   6.028  1.6133 -1.8377  1.2777
  888MOL0     H17161   0.959   4.045   5.819  1.8009 -3.9699  1.0779
  888MOL0     H17162   1.116   4.143   5.792  0.0880 -0.8501  0.5392
  888MOL0     H17163   1.030   4.302   5.958 -1.1190  0.2860  1.3425
  888MOL0     H17164   0.897   4.190   5.989  1.0015 -0.1730  1.3314
  888MOL0     H17165   0.946   4.345   5.745  0.4657 -2.1783 -2.2946
  888MOL0     H17166   0.818   4.227   5.741 -0.5395  1.1972 -0.7217
  888MOL0     H17167   0.868   4.465   5.917 -0.7467 -0.1471  1.5478
  888MOL0     H17168   0.737   4.352   5.962  0.6852 -3.0096 -1.2838
  888MOL0     H17169   0.777   4.626   5.667  3.2895 -0.4334  1.4765
  888MOL0     H17170   0.584   4.530   5.394  1.5791  0.8267 -1.7161
  888MOL0     H17171   0.634   4.684   5.471 -0.7542 -0.2286 -0.5829
  888MOL0     H17172   0.421   4.740   5.564 -0.3229 -2.8222  2.2926
  888MOL0     H17173   0.350   4.593   5.543  0.4052  1.1304  0.3136
  888MOL0     H17174   0.450   4.744   5.306  0.2503  0.8952  1.2597
  888MOL0     H17175   0.345   4.595   5.310 -0.2490  0.7218  0.1232
  888MOL0     H17176   0.225   4.792   5.248  0.6084  0.1753  0.1832
  888MOL0     H17177   0.238   4.857   5.417 -1.9249  0.9377 -1.1508
  888MOL0     H17178  -0.042   4.494   5.394  2.2649  0.0282 -1.3884
  888MOL0     H17179  -0.289   4.522   5.334  0.1639  0.6355 -1.3797
  888MOL0     H17180  -0.616   4.840   5.078 -0.3248 -0.4101 -3.1810
  888MOL0     H17181  -0.849   4.845   5.011  2.0928  0.9951 -0.1627
  888MOL0     H17182  -1.017   4.688   4.890  1.7740 -2.1469  1.3094
  888MOL0     H17183  -1.092   4.828   4.976 -0.5849 -0.3471 -3.1021
  888MOL0     H17184  -1.206   4.537   4.952  0.5818 -0.1322 -0.9374
  888MOL0     H17185  -1.240   4.665   4.846  0.8525 -2.4807 -0.2593
  888MOL0     H17186  -1.337   4.806   5.009 -3.3438 -0.0981  0.1224
  888MOL0     H17187  -1.315   4.697   5.132  0.2420  1.6530  0.4589
  888MOL0     H17188  -1.557   4.692   5.042 -0.8906  0.6544 -0.2721
  888MOL0     H17189  -1.503   4.682   4.886 -1.4309  0.1071  1.0261
  888MOL0     H17190  -1.439   4.451   5.062  1.9154  1.5610 -0.3417
  888MOL0     H17191  -1.449   4.446   4.888 -3.0142 -2.4251 -1.0095
  888MOL0     H17192  -1.682   4.454   5.074 -0.1385  1.7617  0.0827
  888MOL0     H17193  -1.629   4.327   4.960 -0.1629 -0.0812 -0.6493
  888MOL0     H17194  -1.769   4.584   4.881  1.4915  1.2004 -1.1168
  888MOL0     H17195  -1.660   4.513   4.781  0.8790  1.2026  1.6541
  888MOL0     H17196  -1.803   4.298   4.771 -0.4093  0.3220 -0.8045
  888MOL0     H17197  -1.910   4.440   4.755 -0.9419 -2.6998 -1.6269
  888MOL0     H17198  -0.940   4.523   5.232 -0.8083  3.5577  1.1787
  888MOL0     H17199  -0.694   4.480   5.307 -1.7460  0.7534  1.2148
  888MOL0     H17200  -0.211   4.922   5.235  0.8308 -0.1844 -2.2613
  888MOL0     H17201   0.033   4.896   5.285 -0.7796  0.4479  0.2183
  888MOL0     H17202   1.623   4.181   6.345  3.0689  0.9255  1.6509
  888MOL0     H17203   1.786   4.131   6.491  0.6763 -0.2476 -1.1827
  888MOL0     H17204   2.335   3.836   6.406 -0.3639  2.9025 -0.8502
  888MOL0     H17205   2.502   3.844   6.553  0.0856  5.0286 -0.3041
  888MOL0     H17206   2.624   3.796   6.741 -3.1220 -0.3078 -1.0028
  888MOL0     H17207   2.652   3.859   6.905  0.0687  1.5332  0.4896
  888MOL0     H17208   2.728   3.997   6.670  0.6329 -1.6143  1.3232
  888MOL0     H17209   2.574   4.070   6.699  1.7739 -0.7199 -4.1924
  888MOL0     H17210   2.661   4.101   6.955  1.9174 -1.1491  0.6192
  888MOL0     H17211   2.694   4.207   6.831 -1.1828 -0.1399  0.4073
  888MOL0     H17212   2.889   3.984   6.893  1.4481  0.9960  1.9046
  888MOL0     H17213   2.910   4.149   6.810 -0.0684  1.8173  1.3361
  888MOL0     H17214   2.914   4.204   7.231  1.6452 -2.6974  0.4788
  888MOL0     H17215   2.215   3.924   6.874 -1.4161 -1.5703  0.0776
  888MOL0     H17216   2.032   3.908   6.714  0.5307 -1.9489 -1.0201
  889MOL0     O17217   4.405   9.206   9.747 -0.3652 -0.4613  0.0688
  889MOL0     C17218   4.450   9.170   9.854  0.1139 -0.1043  0.5831
  889MOL0     O17219   4.380   9.128   9.965  0.2744  0.6434  0.2256
  889MOL0     C17220   4.246   9.132   9.942  0.8476 -0.2613 -0.0377
  889MOL0     C17221   4.159   9.018   9.930 -0.3943 -0.6252  0.1078
  889MOL0     C17222   4.020   9.037   9.904 -0.4510  1.4065 -0.2632
  889MOL0     C17223   3.962   9.163   9.890 -0.1690  0.1029  0.4649
  889MOL0     O17224   3.832   9.167   9.856 -0.5457  0.0048 -0.1429
  889MOL0     C17225   3.791   9.291   9.781 -0.6699  0.4652 -0.7589
  889MOL0     C17226   3.665   9.249   9.709 -0.2003 -0.1184  0.6739
  889MOL0     C17227   3.549   9.183   9.802 -0.0010 -0.4798 -0.4590
  889MOL0     C17228   3.521   9.273   9.921 -0.0177 -0.8413 -0.1005
  889MOL0     C17229   3.410   9.211  10.008  0.4318 -0.3972 -0.3877
  889MOL0     C17230   3.279   9.183   9.940  0.2246 -0.1379 -1.0246
  889MOL0     C17231   3.168   9.125  10.031 -0.4294 -0.2525 -0.0711
  889MOL0     C17232   3.200   8.976  10.063  0.1121 -0.4612 -0.1007
  889MOL0     N17233   3.112   8.923  10.169 -0.0603 -0.3466 -0.0615
  889MOL0     C17234   2.973   8.918  10.144  0.0143 -0.0808 -0.0783
  889MOL0     C17235   2.933   8.865  10.262  0.2025  0.1465  0.6866
  889MOL0     C17236   2.785   8.830  10.284 -0.0731  1.1343  0.4803
  889MOL0     C17237   2.771   8.739  10.410  0.7093 -0.3227  0.6847
  889MOL0     C17238   2.793   8.586  10.371  0.0948  0.1973 -0.1463
  889MOL0     C17239   2.679   8.524  10.290  0.3770 -0.3237  0.1284
  889MOL0     O17240   2.722   8.398  10.255  0.5439 -0.3135  0.0719
  889MOL0     C17241   2.622   8.320  10.193  0.2534 -0.8505  0.2251
  889MOL0     C17242   2.602   8.186  10.236 -0.2822 -0.3977  0.7278
  889MOL0     C17243   2.496   8.116  10.184 -0.1440  0.5321  0.6469
  889MOL0     C17244   2.408   8.168  10.096  0.1081 -1.2831  0.8118
  889MOL0     C17245   2.276   8.117  10.061 -0.3150 -0.2131 -0.7487
  889MOL0     O17246   2.269   7.979  10.051  0.2516  0.4061  0.3801
  889MOL0     C17247   2.157   7.921  10.006  0.2421 -0.0501 -0.0168
  889MOL0     C17248   2.075   7.855  10.104  0.3084  0.1638 -0.6648
  889MOL0     C17249   1.960   7.789  10.064  0.3984  0.3611 -0.1089
  889MOL0     C17250   1.910   7.787   9.935  0.1897 -0.2731  0.0096
  889MOL0     O17251   1.804   7.713   9.891  0.0485  0.3425 -0.0853
  889MOL0     C17252   1.754   7.619   9.979  0.4551 -0.1860  0.2560
  889MOL0     C17253   1.642   7.541   9.907  0.2806 -0.2997  0.4115
  889MOL0     C17254   1.532   7.487   9.999 -0.4459  0.7347  0.8544
  889MOL0     C17255   1.478   7.594  10.101  0.7207  0.4831 -1.0107
  889MOL0     C17256   1.342   7.543  10.146  0.8120 -0.7207 -1.1464
  889MOL0     C17257   1.283   7.620  10.266  0.0885 -0.0296 -0.4353
  889MOL0     C17258   1.124   7.613  10.266 -0.2518 -0.0858  0.1380
  889MOL0     C17259   1.072   7.672  10.387  0.1209  0.0991 -0.3055
  889MOL0    Cl17260   0.894   7.666  10.381  0.1531 -0.3134 -0.2300
  889MOL0     C17261   1.991   7.855   9.840  0.2496 -0.5842 -0.3260
  889MOL0     C17262   2.109   7.925   9.871 -0.0784 -0.4436  0.2518
  889MOL0     O17263   2.183   8.199  10.048 -0.3595  0.2251 -0.7565
  889MOL0     C17264   2.427   8.294  10.043  0.4847  0.6979 -1.0745
  889MOL0     C17265   2.535   8.371  10.086 -0.0759 -0.5008  0.2200
  889MOL0     N17266   3.041   8.839  10.346  0.3724  0.4368  0.3432
  889MOL0     N17267   3.148   8.870  10.284 -0.2666  0.3479 -1.2137
  889MOL0     C17268   4.053   9.271   9.903  1.0774  0.9274 -0.3601
  889MOL0     C17269   4.185   9.257   9.932 -0.5776  0.3868  0.3830
  889MOL0     C17270   4.601   9.182   9.869  0.2383  0.4875  0.5531
  889MOL0     C17271   4.656   9.207   9.992  0.8926  0.5700  0.2003
  889MOL0     C17272   4.786   9.224  10.004 -0.1810  0.2897  0.7325
  889MOL0     C17273   4.876   9.227   9.895 -0.0730  0.3881  0.1614
  889MOL0     O17274   5.008   9.251   9.908 -0.4614  0.5756  0.5139
  889MOL0     C17275   5.099   9.167   9.833 -0.0045 -0.2562  0.5372
  889MOL0     C17276   5.237   9.202   9.885  0.9173  0.3614 -0.0040
  889MOL0     C17277   5.338   9.138   9.793  1.1590  0.0546  0.7861
  889MOL0     C17278   5.483   9.145   9.844 -0.0732  0.0899  0.2070
  889MOL0     C17279   5.566   9.094   9.742 -0.3594  0.4186 -0.4451
  889MOL0     C17280   5.627   9.031   9.658 -0.2745 -0.8966  0.0922
  889MOL0     C17281   4.819   9.204   9.773  0.1320  0.8578  0.2548
  889MOL0     C17282   4.683   9.194   9.757  1.5538  0.5336  0.5207
  889MOL0     H17283   4.209   8.922   9.938  0.9755  0.2239  3.0200
  889MOL0     H17284   3.962   8.948   9.885 -1.3729  2.0694 -0.6112
  889MOL0     H17285   3.862   9.324   9.705  1.2179 -1.7037 -0.0349
  889MOL0     H17286   3.769   9.377   9.846 -0.5851  1.4843 -2.0423
  889MOL0     H17287   3.696   9.183   9.628  2.3612  1.9586 -0.1653
  889MOL0     H17288   3.629   9.342   9.663 -0.4895 -0.5247  0.0800
  889MOL0     H17289   3.573   9.082   9.839  0.0459  0.3637  1.9966
  889MOL0     H17290   3.462   9.174   9.737  1.0574 -1.2352 -1.8260
  889MOL0     H17291   3.612   9.288   9.980  0.7541 -1.7854 -1.0125
  889MOL0     H17292   3.486   9.371   9.886 -0.0446 -0.3388  1.2529
  889MOL0     H17293   3.390   9.290  10.080 -1.0382 -2.8261  2.0449
  889MOL0     H17294   3.451   9.119  10.051  1.5741 -0.7889 -2.1794
  889MOL0     H17295   3.288   9.105   9.864 -0.7978  0.5535 -1.8979
  889MOL0     H17296   3.242   9.275   9.893 -0.7695 -0.3140 -0.6230
  889MOL0     H17297   3.151   9.177  10.126 -2.2218 -1.2918  0.2327
  889MOL0     H17298   3.071   9.135   9.980  0.4320  4.4906 -1.1603
  889MOL0     H17299   3.302   8.961  10.100 -0.3475 -0.2578  1.3132
  889MOL0     H17300   3.184   8.915   9.973 -0.7617  2.6564 -2.2327
  889MOL0     H17301   2.906   8.948  10.064 -2.4773 -0.5179  1.7066
  889MOL0     H17302   2.740   8.784  10.195 -0.4738 -0.5746  1.5195
  889MOL0     H17303   2.730   8.923  10.304 -0.4622  1.1316 -0.5309
  889MOL0     H17304   2.669   8.754  10.446 -0.6211 -0.2285 -2.7520
  889MOL0     H17305   2.843   8.758  10.490  0.4289 -1.2210  1.1680
  889MOL0     H17306   2.889   8.573  10.321  0.7761  0.5904  1.0066
  889MOL0     H17307   2.788   8.533  10.466 -0.2768  2.4100  1.1572
  889MOL0     H17308   2.658   8.579  10.197 -1.1533 -0.7011  0.2193
  889MOL0     H17309   2.588   8.527  10.351  0.5885  0.2349  0.4271
  889MOL0     H17310   2.659   8.142  10.317  0.3649 -0.5457  0.1960
  889MOL0     H17311   2.460   8.020  10.221 -0.4123  0.9875  1.5975
  889MOL0     H17312   2.096   7.864  10.210 -1.8763 -1.6407  0.0075
  889MOL0     H17313   1.902   7.743  10.143 -0.6364  2.8289  0.6812
  889MOL0     H17314   1.708   7.682  10.055 -2.3566 -0.5440 -1.0411
  889MOL0     H17315   1.834   7.556  10.019 -1.1243 -1.4252  1.6016
  889MOL0     H17316   1.685   7.452   9.861  3.5237 -0.4886  3.4508
  889MOL0     H17317   1.601   7.601   9.825 -2.8135 -1.8688  0.6599
  889MOL0     H17318   1.571   7.399  10.050  0.1411  0.6797  0.3238
  889MOL0     H17319   1.455   7.443   9.935  0.5598 -0.3598  0.3657
  889MOL0     H17320   1.533   7.592  10.196 -2.0560 -2.1372  0.7109
  889MOL0     H17321   1.469   7.695  10.060 -1.9910  0.0813 -1.5410
  889MOL0     H17322   1.342   7.442  10.186  0.6176  0.0816  0.9854
  889MOL0     H17323   1.273   7.563  10.064 -1.9464  0.0912  1.2191
  889MOL0     H17324   1.317   7.724  10.271  4.1101 -1.1148 -1.5328
  889MOL0     H17325   1.321   7.574  10.358 -0.7658  0.5860  0.2465
  889MOL0     H17326   1.082   7.673  10.185 -0.6338 -0.9337 -0.2987
  889MOL0     H17327   1.101   7.506  10.260  0.8753 -0.2847 -1.2871
  889MOL0     H17328   1.108   7.775  10.401  0.1510  0.0124  0.2720
  889MOL0     H17329   1.103   7.611  10.472 -0.2745 -2.2077 -1.7469
  889MOL0     H17330   1.948   7.855   9.740 -0.3888 -0.7220 -0.0605
  889MOL0     H17331   2.162   7.988   9.801 -2.6051  0.9456 -0.4923
  889MOL0     H17332   2.363   8.342   9.970  1.0644 -0.2129 -2.1968
  889MOL0     H17333   2.563   8.471  10.053 -0.1475 -0.5715 -0.0486
  889MOL0     H17334   4.006   9.369   9.896 -3.4138 -0.8846  0.7917
  889MOL0     H17335   4.254   9.340   9.945  2.5690 -1.8314 -0.9842
  889MOL0     H17336   4.590   9.213  10.078  1.1751  2.1509  0.3215
  889MOL0     H17337   4.828   9.242  10.102 -1.8009  0.6027  1.4049
  889MOL0     H17338   5.091   9.182   9.725 -0.8948 -0.6265  0.5453
  889MOL0     H17339   5.064   9.066   9.857 -0.0693 -0.7743 -1.5610
  889MOL0     H17340   5.257   9.310   9.889  0.0582  0.7017 -2.6330
  889MOL0     H17341   5.252   9.159   9.984  0.0441  0.0787  0.0150
  889MOL0     H17342   5.333   9.185   9.694 -1.5541  0.0866  0.8615
  889MOL0     H17343   5.315   9.032   9.782 -1.6361  0.4231  2.2790
  889MOL0     H17344   5.514   9.247   9.868  0.8228 -0.0491 -0.2965
  889MOL0     H17345   5.490   9.071   9.924 -2.1006 -0.1359  0.2399
  889MOL0     H17346   5.698   8.979   9.597  0.0814  1.0958 -1.3115
  889MOL0     H17347   4.885   9.194   9.688  3.8732 -1.2179  3.0875
  889MOL0     H17348   4.653   9.164   9.657  2.8583 -0.9983  0.5364
  890MOL0     O17349   5.014   1.184   6.394  0.6223 -0.9240 -0.5223
  890MOL0     C17350   5.027   1.152   6.281  0.2431 -0.4685  0.2804
  890MOL0     O17351   4.929   1.158   6.183 -0.4205 -0.6140 -0.3430
  890MOL0     C17352   4.794   1.166   6.213  0.2688 -0.3680  0.2493
  890MOL0     C17353   4.735   1.196   6.335  0.1057  0.0731  0.7986
  890MOL0     C17354   4.587   1.198   6.340 -0.0865 -0.7527  0.3650
  890MOL0     C17355   4.511   1.184   6.229  0.0615  0.5285 -0.6535
  890MOL0     O17356   4.370   1.204   6.255 -0.6815 -0.7280  0.5458
  890MOL0     C17357   4.279   1.195   6.148 -0.2072 -0.6838 -0.1109
  890MOL0     C17358   4.135   1.228   6.183 -0.2672 -0.8115 -0.2093
  890MOL0     C17359   4.106   1.367   6.230  0.4071 -0.6797 -1.1123
  890MOL0     C17360   3.958   1.385   6.272 -0.6769  0.0234  0.3128
  890MOL0     C17361   3.928   1.532   6.312  0.7397  0.0147 -0.2841
  890MOL0     C17362   3.952   1.644   6.208  0.7786  0.2671  0.4855
  890MOL0     C17363   3.905   1.780   6.266 -0.5450  0.4627  0.3745
  890MOL0     C17364   3.992   1.831   6.384  0.6892 -1.5548  0.5973
  890MOL0     N17365   3.900   1.898   6.475 -0.1456 -0.3596  0.7601
  890MOL0     C17366   3.814   1.994   6.438  0.6944  0.8252 -0.2000
  890MOL0     C17367   3.710   1.987   6.515  0.1644  0.4549 -1.6575
  890MOL0     C17368   3.596   2.081   6.519  0.2934 -0.2905  0.9017
  890MOL0     C17369   3.461   2.032   6.587  0.3800 -0.5473  1.0014
  890MOL0     C17370   3.364   1.960   6.489 -0.0021 -0.5608 -0.4896
  890MOL0     C17371   3.414   1.823   6.461  0.8199  0.7596  0.8278
  890MOL0     O17372   3.339   1.771   6.347 -1.1442  0.1126 -0.3161
  890MOL0     C17373   3.202   1.745   6.374 -0.8583 -0.3282 -0.0004
  890MOL0     C17374   3.099   1.826   6.318 -0.3984  0.5716  0.5707
  890MOL0     C17375   2.966   1.815   6.358 -0.2408  0.5813  0.0859
  890MOL0     C17376   2.930   1.722   6.462  0.0478 -0.4918 -0.0137
  890MOL0     C17377   2.786   1.707   6.500  0.4064  0.0071 -0.8040
  890MOL0     O17378   2.697   1.786   6.423 -0.1551  0.7313  0.4272
  890MOL0     C17379   2.556   1.783   6.436  0.0405  0.1498 -0.3315
  890MOL0     C17380   2.477   1.714   6.526  1.0305 -0.4891  0.4858
  890MOL0     C17381   2.343   1.727   6.516  0.4297 -0.1339 -0.5036
  890MOL0     C17382   2.284   1.765   6.394  0.5377 -0.7559  0.3243
  890MOL0     O17383   2.155   1.731   6.370  0.5544  0.1085 -0.5695
  890MOL0     C17384   2.081   1.787   6.262 -0.0416 -0.3790  0.2006
  890MOL0     C17385   1.939   1.816   6.317  0.5400 -1.0800  0.4456
  890MOL0     C17386   1.869   1.705   6.397 -0.2115  0.3897  0.2515
  890MOL0     C17387   1.736   1.755   6.442 -0.3709  0.2504  0.3024
  890MOL0     C17388   1.650   1.654   6.519 -1.2071  0.3896 -0.0044
  890MOL0     C17389   1.527   1.709   6.587  0.5389  0.0921 -0.2469
  890MOL0     C17390   1.426   1.777   6.495 -0.3217  0.4486  0.3657
  890MOL0     C17391   1.306   1.829   6.575  0.0925  0.2035 -0.3674
  890MOL0    Cl17392   1.167   1.884   6.466 -0.7574 -0.3265  0.3240
  890MOL0     C17393   2.365   1.833   6.300 -0.3314 -0.4619  0.1941
  890MOL0     C17394   2.505   1.846   6.326  0.0142 -0.0461 -0.0713
  890MOL0     O17395   2.749   1.617   6.575 -1.2751  1.0249 -0.3998
  890MOL0     C17396   3.027   1.639   6.516  0.0813 -0.6338  0.6071
  890MOL0     C17397   3.167   1.651   6.472 -0.1629  1.2847 -0.4155
  890MOL0     N17398   3.743   1.893   6.605  0.4281  0.0716 -0.1966
  890MOL0     N17399   3.860   1.847   6.589  0.4800 -0.6749 -0.3591
  890MOL0     C17400   4.572   1.167   6.110 -0.5380 -0.1437 -0.1382
  890MOL0     C17401   4.710   1.149   6.101  0.7602  0.3298 -0.0229
  890MOL0     C17402   5.150   1.099   6.234  0.6634  1.1287 -0.4686
  890MOL0     C17403   5.174   1.100   6.091  0.0752 -1.0636 -0.2467
  890MOL0     C17404   5.294   1.050   6.035  0.6014 -0.9112 -0.1971
  890MOL0     C17405   5.389   0.994   6.117 -0.3351  0.4705  0.3849
  890MOL0     O17406   5.504   0.930   6.073  0.8365 -0.3542  0.2733
  890MOL0     C17407   5.555   0.950   5.939 -0.4446  0.9575 -0.0925
  890MOL0     C17408   5.653   1.076   5.958 -0.2043  0.1460  0.2951
  890MOL0     C17409   5.734   1.106   5.826  0.4460 -0.5078 -0.6580
  890MOL0     C17410   5.678   1.218   5.743  0.3654  0.6461 -0.4309
  890MOL0     C17411   5.544   1.178   5.690 -0.6741 -0.4504 -0.7530
  890MOL0     C17412   5.446   1.139   5.639  0.7390  0.3887  0.0484
  890MOL0     C17413   5.374   0.995   6.246  0.9806  0.7170 -0.4822
  890MOL0     C17414   5.250   1.034   6.307  0.8457  1.2416 -0.4030
  890MOL0     H17415   4.782   1.224   6.429  0.1247  2.5338  0.1279
  890MOL0     H17416   4.536   1.220   6.434 -3.1280 -0.4661 -1.2205
  890MOL0     H17417   4.282   1.092   6.109 -1.7588 -0.3785 -1.1634
  890MOL0     H17418   4.309   1.268   6.073 -2.6007  0.7571  0.2422
  890MOL0     H17419   4.100   1.154   6.255 -0.0651 -1.6703 -0.9647
  890MOL0     H17420   4.068   1.206   6.099 -2.2969 -0.8328  1.3341
  890MOL0     H17421   4.134   1.435   6.149 -0.7508 -0.7223 -1.5596
  890MOL0     H17422   4.168   1.386   6.318 -1.4950  0.9520 -0.0513
  890MOL0     H17423   3.884   1.362   6.195 -3.4066  2.0409  2.1781
  890MOL0     H17424   3.921   1.316   6.349  1.6241 -1.2470  0.3836
  890MOL0     H17425   3.993   1.559   6.397  1.5940 -0.2541 -0.8422
  890MOL0     H17426   3.822   1.540   6.338 -0.2539 -6.5148 -0.7745
  890MOL0     H17427   3.897   1.615   6.117  0.8281  0.5819  0.3530
  890MOL0     H17428   4.058   1.645   6.180  1.1884  1.3341  1.9934
  890MOL0     H17429   3.909   1.853   6.184 -3.5300 -1.4917 -1.7420
  890MOL0     H17430   3.804   1.770   6.307  0.3120 -1.6325  2.1944
  890MOL0     H17431   4.065   1.901   6.345  1.3598 -2.3613  0.3772
  890MOL0     H17432   4.043   1.744   6.426  3.6293 -2.3788 -3.9657
  890MOL0     H17433   3.831   2.071   6.363 -1.3522 -0.8414 -2.5368
  890MOL0     H17434   3.573   2.105   6.415  0.6984 -0.9959  0.6458
  890MOL0     H17435   3.635   2.168   6.572  0.3912 -0.9442  1.9514
  890MOL0     H17436   3.414   2.127   6.616 -2.0921 -1.4593  0.2338
  890MOL0     H17437   3.480   1.957   6.665 -1.0128 -2.1537 -0.1379
  890MOL0     H17438   3.263   1.961   6.531  0.5617  1.1951  0.9255
  890MOL0     H17439   3.358   2.018   6.397 -0.7387 -1.0790 -0.7829
  890MOL0     H17440   3.410   1.758   6.549  1.5009 -0.1543  0.1975
  890MOL0     H17441   3.521   1.831   6.441  1.5108 -1.9073  2.8929
  890MOL0     H17442   3.109   1.894   6.234 -0.8086 -2.1892 -1.8711
  890MOL0     H17443   2.886   1.871   6.310 -0.1449  0.6155 -0.0353
  890MOL0     H17444   2.521   1.645   6.598 -0.0663  1.7271  3.4999
  890MOL0     H17445   2.278   1.675   6.585 -0.3018 -0.0338 -1.1067
  890MOL0     H17446   2.067   1.720   6.177  0.6867  1.6284 -1.5912
  890MOL0     H17447   2.119   1.882   6.226  0.0486  0.1919  1.7209
  890MOL0     H17448   1.870   1.849   6.239 -0.6386  4.6880  3.3820
  890MOL0     H17449   1.944   1.901   6.386  0.2951  1.0643 -2.0167
  890MOL0     H17450   1.928   1.666   6.481 -1.3053  0.2675  0.9961
  890MOL0     H17451   1.854   1.626   6.324  0.8508  0.0821  0.3538
  890MOL0     H17452   1.747   1.851   6.493  0.1505  1.3188 -1.6865
  890MOL0     H17453   1.686   1.785   6.349 -1.0811 -2.8614 -0.4211
  890MOL0     H17454   1.711   1.638   6.608 -1.8105  0.8112  0.4878
  890MOL0     H17455   1.619   1.563   6.467  2.5613 -2.4714  2.2373
  890MOL0     H17456   1.556   1.785   6.659  1.1309 -1.6447  1.4262
  890MOL0     H17457   1.476   1.628   6.640 -1.2651  0.2013 -1.6769
  890MOL0     H17458   1.476   1.863   6.448  0.0890 -0.9844 -2.0187
  890MOL0     H17459   1.396   1.703   6.419  2.7990  0.4414 -1.0118
  890MOL0     H17460   1.331   1.911   6.644 -0.0833  1.7860 -2.0818
  890MOL0     H17461   1.268   1.737   6.619 -2.3657  0.9786 -0.7549
  890MOL0     H17462   2.330   1.872   6.204  0.8078 -0.2956 -0.1606
  890MOL0     H17463   2.564   1.897   6.251 -1.6471  0.5005 -1.0739
  890MOL0     H17464   3.008   1.570   6.598  0.5373 -1.9680 -0.3775
  890MOL0     H17465   3.242   1.582   6.510 -0.8204 -0.2462 -1.7588
  890MOL0     H17466   4.514   1.152   6.019  1.3399 -1.4822 -1.1758
  890MOL0     H17467   4.744   1.123   6.001 -2.1920  0.9887 -1.3034
  890MOL0     H17468   5.104   1.150   6.025 -0.3339 -2.0819 -0.6074
  890MOL0     H17469   5.292   1.042   5.926  1.8820 -1.4245 -0.1925
  890MOL0     H17470   5.477   0.970   5.866  0.2751  1.4315 -0.7473
  890MOL0     H17471   5.606   0.859   5.907 -0.1442  1.9337 -2.5532
  890MOL0     H17472   5.593   1.165   5.975  1.2036  1.3843 -0.8902
  890MOL0     H17473   5.724   1.078   6.042  2.5394  2.8728 -1.8493
  890MOL0     H17474   5.736   1.016   5.764 -0.6089 -1.0382  0.0463
  890MOL0     H17475   5.837   1.137   5.848 -0.2123  1.6918 -0.4758
  890MOL0     H17476   5.669   1.308   5.805  1.2235 -0.4310  1.3194
  890MOL0     H17477   5.748   1.235   5.660  1.2777  2.2402  0.6129
  890MOL0     H17478   5.357   1.104   5.591  0.5020 -0.1911  0.8848
  890MOL0     H17479   5.453   0.953   6.307  1.1842  1.3998 -0.2690
  890MOL0     H17480   5.235   1.023   6.414  0.6026 -0.2795 -0.5733
  891MOL0     O17481   3.961   9.688   0.938  0.3484 -0.4113 -0.3755
  891MOL0     C17482   4.032   9.651   1.030 -0.3416 -0.4571 -0.1928
  891MOL0     O17483   4.004   9.661   1.163  0.0148 -0.2263 -1.6637
  891MOL0     C17484   3.877   9.676   1.199  0.3077 -0.1215  0.1788
  891MOL0     C17485   3.801   9.567   1.244 -0.2060 -0.3616 -0.2202
  891MOL0     C17486   3.674   9.585   1.289  0.9813 -0.0536  0.0848
  891MOL0     C17487   3.609   9.707   1.270  1.4731  0.0800 -0.3692
  891MOL0     O17488   3.478   9.723   1.318  0.0129  0.6809 -0.1108
  891MOL0     C17489   3.387   9.828   1.275 -0.3663 -0.1775  1.5565
  891MOL0     C17490   3.251   9.790   1.329 -0.0196  0.6902  0.4144
  891MOL0     C17491   3.151   9.898   1.298 -0.4851 -0.1251 -0.0758
  891MOL0     C17492   3.149  10.025   1.385 -0.7414 -0.2877 -0.1414
  891MOL0     C17493   3.018  10.113   1.377  0.8749  1.2177  0.4300
  891MOL0     C17494   2.888  10.039   1.397 -0.1782  0.0599 -0.1590
  891MOL0     C17495   2.881   9.968   1.532 -0.2683  0.3582 -0.5033
  891MOL0     C17496   2.747   9.895   1.537  0.3260  0.3751  0.1378
  891MOL0     N17497   2.622   9.978   1.557 -0.5036 -0.1364  0.2545
  891MOL0     C17498   2.535  10.005   1.458  0.3310  0.9328  1.2342
  891MOL0     C17499   2.415  10.044   1.519  0.0437  0.1803  0.1063
  891MOL0     C17500   2.292  10.106   1.458 -0.0156  0.4080 -0.6372
  891MOL0     C17501   2.170  10.011   1.479 -0.8893 -0.1845  0.1611
  891MOL0     C17502   2.045  10.089   1.436  0.0164 -0.1355  0.4656
  891MOL0     C17503   1.915  10.032   1.477 -0.4737  0.4555 -0.3043
  891MOL0     O17504   1.824  10.122   1.410  0.1284  0.0357 -0.5414
  891MOL0     C17505   1.689  10.096   1.417 -0.1830  0.0917  0.0930
  891MOL0     C17506   1.630  10.018   1.518  0.4384  1.0226  0.3399
  891MOL0     C17507   1.487  10.018   1.532 -0.1549  1.1574 -0.2935
  891MOL0     C17508   1.406  10.077   1.440  0.2776 -0.2563  0.7370
  891MOL0     C17509   1.262  10.063   1.454  0.1684  0.8261  1.2531
  891MOL0     O17510   1.194  10.089   1.566 -0.4339  0.1115 -0.8765
  891MOL0     C17511   1.060  10.079   1.569  0.5422 -1.0539  0.9188
  891MOL0     C17512   1.008  10.024   1.680  0.1758  0.3758  0.2888
  891MOL0     C17513   0.870   9.987   1.682  0.2505 -0.4730 -0.2875
  891MOL0     C17514   0.781  10.038   1.591 -0.6134 -0.9083  0.3399
  891MOL0     O17515   0.646  10.021   1.598 -0.5164  0.1362 -0.4857
  891MOL0     C17516   0.588  10.002   1.730  0.1606 -1.0079  0.6535
  891MOL0     C17517   0.437  10.021   1.726  0.1982 -0.0290 -0.0642
  891MOL0     C17518   0.371   9.909   1.645 -0.0535  0.6785 -1.0971
  891MOL0     C17519   0.236   9.946   1.602  0.1885  0.0084  0.8877
  891MOL0     C17520   0.170   9.828   1.519  0.5777 -0.1406 -0.0289
  891MOL0     C17521   0.033   9.849   1.463 -0.0712 -0.1470 -0.6591
  891MOL0     C17522  -0.067   9.913   1.563  0.7103 -0.8458 -0.3449
  891MOL0     C17523  -0.213   9.883   1.528 -0.6740  0.0390 -0.4857
  891MOL0    Cl17524  -0.358   9.941   1.624 -0.1859  0.3967  0.2606
  891MOL0     C17525   0.827  10.110   1.483 -0.2367 -0.5418  0.2360
  891MOL0     C17526   0.965  10.135   1.476  0.2690  0.7679  0.1232
  891MOL0     O17527   1.211  10.021   1.351  0.2240  0.1538  0.7136
  891MOL0     C17528   1.468  10.139   1.329 -0.1054  1.0830  0.2493
  891MOL0     C17529   1.604  10.167   1.333 -0.3260 -0.2707 -0.5118
  891MOL0     N17530   2.436  10.037   1.653 -0.2706 -0.4550 -0.1913
  891MOL0     N17531   2.560   9.997   1.671 -0.3404  0.5058  0.1265
  891MOL0     C17532   3.681   9.819   1.224 -0.1433  0.5651  0.3888
  891MOL0     C17533   3.813   9.796   1.184 -0.2059  0.1868  0.1306
  891MOL0     C17534   4.165   9.613   0.991  0.6262 -0.3147 -0.4501
  891MOL0     C17535   4.260   9.600   1.094 -0.0061  0.6123  0.5073
  891MOL0     C17536   4.390   9.560   1.065  0.5573 -0.2084  0.1525
  891MOL0     C17537   4.434   9.528   0.930 -0.0838  0.0450 -0.4474
  891MOL0     O17538   4.562   9.477   0.908 -0.0253  0.4081  0.2467
  891MOL0     C17539   4.650   9.455   1.022 -0.4051 -0.2699 -0.2271
  891MOL0     C17540   4.781   9.405   0.959 -0.7237 -0.3661 -0.4150
  891MOL0     C17541   4.847   9.510   0.880 -0.3443  0.1185  0.4085
  891MOL0     C17542   4.971   9.437   0.815  0.0463 -0.4972  0.6802
  891MOL0     C17543   5.069   9.544   0.765  0.0745  0.7897 -0.2689
  891MOL0     C17544   5.134   9.632   0.722  0.3255 -0.5296 -0.0580
  891MOL0     C17545   4.336   9.554   0.827 -0.1507  0.3156  0.1117
  891MOL0     C17546   4.207   9.596   0.854 -0.5937 -0.2664  0.9748
  891MOL0     H17547   3.844   9.468   1.241  2.0701  0.5795 -1.7446
  891MOL0     H17548   3.607   9.508   1.323  0.8660 -0.2947 -0.6733
  891MOL0     H17549   3.370   9.838   1.167  2.0431  1.5390  1.2678
  891MOL0     H17550   3.423   9.922   1.316 -0.9715 -0.4035  2.6332
  891MOL0     H17551   3.250   9.768   1.436  0.4640 -1.2118  0.0584
  891MOL0     H17552   3.224   9.697   1.279 -0.4489 -1.9326  4.9858
  891MOL0     H17553   3.055   9.855   1.326 -1.0298  2.7387  3.1753
  891MOL0     H17554   3.152   9.933   1.194  3.2605  3.4943  0.9109
  891MOL0     H17555   3.155   9.999   1.491 -2.4523 -2.6667 -0.5509
  891MOL0     H17556   3.233  10.091   1.360  1.0689 -2.8475 -1.3424
  891MOL0     H17557   3.013  10.164   1.281  3.2260  1.4826  0.3882
  891MOL0     H17558   3.023  10.192   1.452  1.3227  0.9709  0.6707
  891MOL0     H17559   2.869   9.970   1.315  4.2519 -1.5878 -0.0522
  891MOL0     H17560   2.812  10.117   1.386 -0.5262 -0.2446  0.0330
  891MOL0     H17561   2.965   9.899   1.545 -0.4288 -0.4805 -3.3620
  891MOL0     H17562   2.876  10.034   1.619  1.6345 -0.0766 -0.0145
  891MOL0     H17563   2.753   9.822   1.618 -0.3723 -0.6418 -0.6991
  891MOL0     H17564   2.746   9.840   1.442 -0.6061  3.1309 -1.5696
  891MOL0     H17565   2.546  10.010   1.350  1.7857 -3.5075  0.9768
  891MOL0     H17566   2.307  10.126   1.352  0.5940 -1.2916 -0.9054
  891MOL0     H17567   2.274  10.203   1.507  0.3167 -0.1394  0.6107
  891MOL0     H17568   2.162  10.001   1.587 -0.4110  2.0383  0.4564
  891MOL0     H17569   2.188   9.916   1.428 -2.4531 -0.6321  0.3959
  891MOL0     H17570   2.060  10.180   1.496  1.2584 -1.4053  2.1952
  891MOL0     H17571   2.047  10.104   1.328  3.3615  0.0548  0.4681
  891MOL0     H17572   1.904  10.033   1.586  1.6418 -3.4223  0.0954
  891MOL0     H17573   1.898   9.933   1.436 -2.2925 -0.8469  3.1273
  891MOL0     H17574   1.690   9.973   1.596  0.2333  1.5038  0.7765
  891MOL0     H17575   1.452   9.984   1.629 -0.3529  0.0170 -0.7484
  891MOL0     H17576   1.067   9.980   1.760 -0.5476 -0.8628  0.1555
  891MOL0     H17577   0.850   9.937   1.776 -0.1451  0.8814  0.3736
  891MOL0     H17578   0.633  10.065   1.807  1.1867 -1.9122  0.8159
  891MOL0     H17579   0.621   9.900   1.752  3.7595 -0.7695 -2.5278
  891MOL0     H17580   0.403  10.114   1.678  1.2231  0.9143  0.9870
  891MOL0     H17581   0.386  10.028   1.823  2.1497  0.8937  0.9555
  891MOL0     H17582   0.371   9.819   1.708  0.4288  1.5309  0.1659
  891MOL0     H17583   0.418   9.886   1.549 -1.1608  1.4800 -1.8559
  891MOL0     H17584   0.174   9.956   1.691 -1.0707  0.4351 -0.0047
  891MOL0     H17585   0.245  10.039   1.545 -2.5184 -0.4108 -0.4189
  891MOL0     H17586   0.158   9.738   1.579 -3.4310  0.1211 -0.1716
  891MOL0     H17587   0.233   9.794   1.435 -0.9484 -0.4498 -1.0831
  891MOL0     H17588  -0.012   9.754   1.435  1.0388 -1.3432  1.3745
  891MOL0     H17589   0.043   9.923   1.383  3.1459  0.4428  0.1386
  891MOL0     H17590  -0.059   9.891   1.670 -1.4629 -1.4040 -0.2500
  891MOL0     H17591  -0.055  10.022   1.564  0.3066 -0.8020  0.1631
  891MOL0     H17592  -0.218   9.774   1.524  0.2016 -0.0128 -0.3749
  891MOL0     H17593  -0.233   9.910   1.424 -2.9303 -0.1536 -0.1709
  891MOL0     H17594   0.754  10.140   1.408  2.7320 -0.3668 -2.8364
  891MOL0     H17595   1.000  10.181   1.384  0.5201 -1.6227 -1.0463
  891MOL0     H17596   1.406  10.187   1.254  1.4304  1.9752 -0.4844
  891MOL0     H17597   1.633  10.243   1.261 -2.5953  1.7345  0.5295
  891MOL0     H17598   3.642   9.920   1.226 -1.7467  0.0588 -1.8547
  891MOL0     H17599   3.866   9.884   1.150  1.2086 -0.7465 -0.1910
  891MOL0     H17600   4.238   9.614   1.199 -0.8500  0.4839  0.3541
  891MOL0     H17601   4.452   9.543   1.153  3.0559  2.4033 -0.9527
  891MOL0     H17602   4.605   9.376   1.084 -4.0223  1.2232 -0.6971
  891MOL0     H17603   4.657   9.543   1.086 -1.8423 -1.6979  2.0893
  891MOL0     H17604   4.846   9.378   1.044 -0.3747 -0.9490 -0.8595
  891MOL0     H17605   4.761   9.313   0.904 -1.4778  0.0678 -0.8776
  891MOL0     H17606   4.876   9.593   0.945  2.4056 -0.4923  0.0835
  891MOL0     H17607   4.779   9.554   0.807 -1.0165 -1.4763  0.0388
  891MOL0     H17608   5.013   9.366   0.887 -1.3380 -0.7784  1.2420
  891MOL0     H17609   4.941   9.382   0.726  1.2022  1.0490 -0.7410
  891MOL0     H17610   5.190   9.715   0.686 -0.4028  1.4393  2.9824
  891MOL0     H17611   4.362   9.542   0.723 -0.5978 -0.0824  0.0437
  891MOL0     H17612   4.133   9.611   0.777 -1.1688 -0.3535  1.5029
  892MOL0     O17613   1.987   9.869   1.788 -0.0603 -0.6717  0.4555
  892MOL0     C17614   2.027   9.826   1.897  0.0907 -0.0937  1.0511
  892MOL0     O17615   1.948   9.824   2.006 -0.0366 -0.2620  0.5082
  892MOL0     C17616   1.834   9.893   1.994  0.8603  0.6286  0.3374
  892MOL0     C17617   1.715   9.825   2.027  0.2559  0.5878 -0.4279
  892MOL0     C17618   1.589   9.884   2.004 -0.3759  0.9144  0.3230
  892MOL0     C17619   1.571  10.006   1.952 -0.0828  0.6772  0.4173
  892MOL0     O17620   1.447  10.071   1.931 -0.9384  1.4271 -0.2665
  892MOL0     C17621   1.336  10.016   2.008 -0.4059  0.6161 -0.0238
  892MOL0     C17622   1.228  10.120   1.998  0.3368  0.8558  0.2884
  892MOL0     C17623   1.100  10.072   2.072 -0.0623  0.4159  0.0127
  892MOL0     C17624   0.996  10.183   2.080  0.5563  0.2060 -0.2351
  892MOL0     C17625   0.868  10.107   2.111  0.0011 -0.5883 -0.3404
  892MOL0     C17626   0.746  10.212   2.122 -0.0673 -0.2968  0.9518
  892MOL0     C17627   0.612  10.136   2.137 -0.4119 -0.6225  0.3575
  892MOL0     C17628   0.493  10.219   2.126  0.5982 -1.3990 -0.8593
  892MOL0     N17629   0.381  10.145   2.169  0.2965  0.0020 -0.1168
  892MOL0     C17630   0.355  10.095   2.299  0.2575 -0.4179  0.3771
  892MOL0     C17631   0.240  10.030   2.285  0.4807  0.1089  0.3349
  892MOL0     C17632   0.169   9.935   2.381  0.3055 -0.1021 -0.6635
  892MOL0     C17633   0.023   9.962   2.398  0.2893 -0.2778  0.6432
  892MOL0     C17634  -0.058   9.858   2.490 -0.0042 -0.3039  0.6303
  892MOL0     C17635  -0.085   9.723   2.419 -0.1694  0.0056 -0.2455
  892MOL0     O17636  -0.193   9.738   2.319  0.0049 -0.3023 -0.3157
  892MOL0     C17637  -0.329   9.745   2.361 -0.3632  0.5814 -0.0473
  892MOL0     C17638  -0.367   9.725   2.492 -0.1754  0.1564  0.8053
  892MOL0     C17639  -0.500   9.749   2.542 -0.7311 -0.1301  0.9559
  892MOL0     C17640  -0.603   9.764   2.441 -0.5736 -0.4169  0.3837
  892MOL0     C17641  -0.740   9.762   2.483 -0.0250  0.3065  0.1076
  892MOL0     O17642  -0.769   9.753   2.615  0.5664  0.4281  0.0670
  892MOL0     C17643  -0.898   9.778   2.653 -0.7673 -0.1025 -0.2666
  892MOL0     C17644  -0.937   9.727   2.774 -0.2492 -0.7373 -0.4399
  892MOL0     C17645  -1.044   9.778   2.843  0.5159  0.2516  0.2061
  892MOL0     C17646  -1.137   9.868   2.790 -0.6253  0.1280  0.2508
  892MOL0     O17647  -1.254   9.899   2.858  0.8838  0.5841 -0.0110
  892MOL0     C17648  -1.358   9.997   2.807 -0.6782  0.0121 -0.4142
  892MOL0     C17649  -1.473   9.909   2.760 -0.3801 -1.0753 -0.2138
  892MOL0     C17650  -1.594   9.990   2.729  0.4124 -0.7852 -0.2681
  892MOL0     C17651  -1.727   9.914   2.715  0.0134  0.0848 -0.0299
  892MOL0     C17652  -1.836  10.012   2.697  0.2310 -0.1545  0.4593
  892MOL0     C17653  -1.874  10.101   2.815  1.5321 -0.0411 -0.5512
  892MOL0     C17654  -1.994  10.199   2.786  0.5465 -0.6762 -0.7210
  892MOL0     C17655  -2.129  10.126   2.786 -0.2160  0.0724  0.0434
  892MOL0    Cl17656  -2.194  10.096   2.954 -0.0319 -0.1617 -0.1349
  892MOL0     C17657  -1.104   9.916   2.655 -0.1650 -0.0929 -0.3489
  892MOL0     C17658  -0.988   9.878   2.595 -0.7247  0.1181 -0.4706
  892MOL0     O17659  -0.822   9.772   2.397  1.0553  0.5583  0.5428
  892MOL0     C17660  -0.565   9.765   2.305 -0.7539 -0.0785  0.1751
  892MOL0     C17661  -0.428   9.771   2.262 -0.7771 -0.3178 -0.2291
  892MOL0     N17662   0.196  10.032   2.154  0.6978 -0.3476 -0.3911
  892MOL0     N17663   0.282  10.102   2.088 -0.2691  0.5810 -0.8263
  892MOL0     C17664   1.690  10.073   1.913  0.1284 -0.4185 -0.6434
  892MOL0     C17665   1.820  10.026   1.946  1.1333 -0.1609  0.1004
  892MOL0     C17666   2.169   9.772   1.903  0.0714  0.8516  0.6300
  892MOL0     C17667   2.253   9.765   1.793  0.1932  0.5406 -0.4956
  892MOL0     C17668   2.384   9.717   1.804  0.7661 -0.4295 -0.5899
  892MOL0     C17669   2.431   9.669   1.920 -0.2930  0.1892  0.0657
  892MOL0     O17670   2.568   9.644   1.952  0.0624 -0.0315 -0.0728
  892MOL0     C17671   2.643   9.590   1.840 -0.0778  0.2845 -0.9168
  892MOL0     C17672   2.785   9.539   1.882  0.2716 -0.0035 -0.0678
  892MOL0     C17673   2.828   9.422   1.798 -0.8800  0.5201 -0.2327
  892MOL0     C17674   2.975   9.374   1.843  0.3030 -0.3200 -0.2226
  892MOL0     C17675   2.998   9.261   1.757  0.3225  0.1143 -0.2678
  892MOL0     C17676   3.024   9.163   1.688 -0.2592  0.7061  0.3664
  892MOL0     C17677   2.344   9.668   2.032 -0.6913 -0.2239  0.9999
  892MOL0     C17678   2.219   9.720   2.024  0.6767 -0.0069 -0.9240
  892MOL0     H17679   1.726   9.723   2.062 -2.2840  0.3007 -0.3147
  892MOL0     H17680   1.495   9.838   2.032  0.6014 -2.1037 -0.9952
  892MOL0     H17681   1.371   9.999   2.110 -2.2278 -1.2747  0.3503
  892MOL0     H17682   1.298   9.925   1.961  1.8726 -2.5007  3.5959
  892MOL0     H17683   1.196  10.146   1.896 -2.9166 -2.1271  0.3531
  892MOL0     H17684   1.270  10.210   2.043 -1.1602  2.2035 -0.8887
  892MOL0     H17685   1.120  10.040   2.175 -0.6487  2.4533  0.8182
  892MOL0     H17686   1.067   9.989   2.009  3.1881 -0.2039 -1.0699
  892MOL0     H17687   1.009  10.256   2.160  2.6570  0.3855 -0.6893
  892MOL0     H17688   0.987  10.239   1.987  0.9118 -3.2402 -2.5382
  892MOL0     H17689   0.876  10.057   2.208 -0.8245 -1.0026 -0.4744
  892MOL0     H17690   0.840  10.032   2.036  0.3653 -3.7857  2.4774
  892MOL0     H17691   0.742  10.269   2.029 -3.7690 -1.9890 -0.1462
  892MOL0     H17692   0.782  10.279   2.201  0.8228  0.2351  0.1126
  892MOL0     H17693   0.614  10.057   2.061  0.1654 -0.8051  0.5599
  892MOL0     H17694   0.613  10.080   2.231 -1.0797  1.5384  1.7225
  892MOL0     H17695   0.479  10.242   2.020  0.3021  0.0640 -0.5190
  892MOL0     H17696   0.497  10.309   2.188 -3.2796 -0.1229 -2.1843
  892MOL0     H17697   0.417  10.127   2.382  0.7083  0.3608 -0.2508
  892MOL0     H17698   0.224   9.947   2.475  1.4017  0.0606 -1.3117
  892MOL0     H17699   0.191   9.831   2.356  1.5587 -0.0186 -0.0039
  892MOL0     H17700  -0.026   9.955   2.301 -1.2058  0.1577  1.3288
  892MOL0     H17701   0.022  10.067   2.431  2.0781  0.1587 -0.5839
  892MOL0     H17702  -0.007   9.847   2.586  0.4759  1.4440  0.6106
  892MOL0     H17703  -0.149   9.913   2.515 -0.7976 -0.9784 -0.6716
  892MOL0     H17704  -0.111   9.649   2.496  0.7305  0.3495  0.4176
  892MOL0     H17705   0.006   9.685   2.372  0.2144 -2.1276  1.9912
  892MOL0     H17706  -0.290   9.710   2.567 -0.0259 -0.9643  0.4581
  892MOL0     H17707  -0.523   9.757   2.648  2.4572  1.1619  1.6754
  892MOL0     H17708  -0.864   9.662   2.822  0.9411 -0.1636 -1.4228
  892MOL0     H17709  -1.079   9.727   2.932  1.0507 -2.8107 -1.2054
  892MOL0     H17710  -1.313  10.077   2.749 -0.4547  0.5647  0.4991
  892MOL0     H17711  -1.396  10.046   2.897 -2.3603 -1.0270 -0.5098
  892MOL0     H17712  -1.491   9.842   2.845  2.4700  2.0203  3.2421
  892MOL0     H17713  -1.449   9.848   2.673  1.6619 -0.8622  0.1436
  892MOL0     H17714  -1.574  10.047   2.638 -3.1894 -1.3206 -1.5423
  892MOL0     H17715  -1.615  10.048   2.819 -4.1208  1.1763 -2.2787
  892MOL0     H17716  -1.722   9.840   2.634 -2.6557 -0.3899  0.1717
  892MOL0     H17717  -1.754   9.851   2.799  0.6946 -0.4672 -0.2103
  892MOL0     H17718  -1.924   9.952   2.674 -0.7436  1.3870 -0.0056
  892MOL0     H17719  -1.812  10.075   2.611  0.6963  2.7013  2.5498
  892MOL0     H17720  -1.793  10.160   2.857  0.0537  1.1210  0.7700
  892MOL0     H17721  -1.917  10.028   2.883 -1.9018  2.0075 -0.2967
  892MOL0     H17722  -1.994  10.282   2.857  0.3361  0.4933 -2.0314
  892MOL0     H17723  -1.968  10.252   2.694 -1.3549  1.9171  0.1329
  892MOL0     H17724  -2.120  10.033   2.730 -0.8451  1.1495 -1.9482
  892MOL0     H17725  -2.198  10.190   2.730  1.7927  1.9002 -0.4672
  892MOL0     H17726  -1.158   9.992   2.600  0.2305 -0.9127 -1.9165
  892MOL0     H17727  -0.953   9.938   2.512  1.6183  0.7527  0.8969
  892MOL0     H17728  -0.642   9.777   2.230  0.4853  0.1984 -1.0927
  892MOL0     H17729  -0.409   9.781   2.155 -0.1405  3.1618  0.1009
  892MOL0     H17730   1.685  10.174   1.874 -2.3060  0.3038  1.2358
  892MOL0     H17731   1.904  10.092   1.925 -0.9790  2.3470 -0.9951
  892MOL0     H17732   2.214   9.802   1.698 -3.5377  0.5831  0.9021
  892MOL0     H17733   2.429   9.724   1.705 -1.3395  0.0974 -1.5796
  892MOL0     H17734   2.656   9.659   1.757  2.0032 -0.1111 -0.9766
  892MOL0     H17735   2.591   9.503   1.799  0.7731  0.4796 -2.4814
  892MOL0     H17736   2.852   9.625   1.884  0.8165 -0.4375  1.1323
  892MOL0     H17737   2.781   9.494   1.981  0.6053  1.2352  0.5225
  892MOL0     H17738   2.823   9.471   1.700 -0.9851  0.6006 -0.1881
  892MOL0     H17739   2.760   9.337   1.801  2.5006 -2.3896 -0.5117
  892MOL0     H17740   3.052   9.449   1.825  0.0385  0.2377  0.8945
  892MOL0     H17741   2.985   9.353   1.950 -0.2720  0.5922  0.0234
  892MOL0     H17742   3.063   9.088   1.622 -1.4125 -0.8134  1.3220
  892MOL0     H17743   2.382   9.631   2.127  2.1272  1.0615  0.4627
  892MOL0     H17744   2.153   9.724   2.110  1.2811 -0.9901 -0.4062
  893MOL0     O17745   8.428   8.852   9.580  0.8121 -0.0034 -0.3950
  893MOL0     C17746   8.422   8.808   9.703 -0.0615 -0.4820  0.0981
  893MOL0     O17747   8.312   8.755   9.772  1.2594 -0.3369 -0.5774
  893MOL0     C17748   8.188   8.776   9.716 -0.6652  0.5281 -0.0087
  893MOL0     C17749   8.153   8.903   9.681  0.4896 -0.0589  1.1609
  893MOL0     C17750   8.019   8.930   9.634 -0.7032 -0.4400  0.3612
  893MOL0     C17751   7.928   8.822   9.611  0.6402 -0.1181  0.2609
  893MOL0     O17752   7.805   8.851   9.554 -0.5523 -0.3165  0.7655
  893MOL0     C17753   7.704   8.747   9.557  0.0294 -0.3311  0.2385
  893MOL0     C17754   7.571   8.813   9.524 -0.2292  0.4263  0.9092
  893MOL0     C17755   7.445   8.727   9.537 -0.0945 -0.5938 -0.0580
  893MOL0     C17756   7.409   8.644   9.419 -0.6061 -0.2332  1.0232
  893MOL0     C17757   7.264   8.596   9.433  0.6583  0.6558 -0.4115
  893MOL0     C17758   7.217   8.539   9.295 -0.5342 -0.0674  0.8581
  893MOL0     C17759   7.078   8.484   9.303  0.5676 -0.2779  1.0620
  893MOL0     C17760   7.064   8.378   9.195 -0.3287  0.7102 -0.4461
  893MOL0     N17761   6.922   8.335   9.196 -0.2555 -0.0308  0.0805
  893MOL0     C17762   6.845   8.279   9.295 -0.2783 -0.2445 -1.2799
  893MOL0     C17763   6.730   8.231   9.239 -0.2022  0.2919 -0.7385
  893MOL0     C17764   6.617   8.161   9.305  0.5458  0.0523  0.2428
  893MOL0     C17765   6.483   8.165   9.237 -0.5157  0.1353  0.3445
  893MOL0     C17766   6.378   8.072   9.303  0.5711  0.0475  0.2654
  893MOL0     C17767   6.253   8.075   9.208  0.1890  0.3476  0.9322
  893MOL0     O17768   6.154   7.981   9.259  0.5183  0.1189 -0.3177
  893MOL0     C17769   6.047   8.025   9.343 -0.0732 -0.3300  0.0424
  893MOL0     C17770   6.030   8.154   9.397  0.2603  0.4520 -0.7122
  893MOL0     C17771   5.913   8.177   9.469  0.0687  0.2658  0.2428
  893MOL0     C17772   5.815   8.076   9.494  1.2153 -0.5013  0.9520
  893MOL0     C17773   5.699   8.097   9.574  0.4089  0.0190 -0.1873
  893MOL0     O17774   5.638   7.991   9.633  0.0433 -0.7258 -0.0375
  893MOL0     C17775   5.523   8.014   9.691  0.7023 -0.3946 -0.2806
  893MOL0     C17776   5.514   8.009   9.832 -0.4060  0.1357  0.2778
  893MOL0     C17777   5.397   8.034   9.902  1.3073 -0.4451 -0.4503
  893MOL0     C17778   5.272   8.044   9.836  0.3753  0.8253 -0.1455
  893MOL0     O17779   5.160   8.039   9.915 -0.1103  0.0218  0.0686
  893MOL0     C17780   5.030   8.023   9.856  0.5971  0.5208  0.0414
  893MOL0     C17781   4.941   8.018   9.985 -0.5555  0.2377  0.0693
  893MOL0     C17782   4.801   7.989   9.940  0.8698 -0.7539 -0.3190
  893MOL0     C17783   4.702   7.969  10.059  0.4785  0.7188  0.9907
  893MOL0     C17784   4.564   7.935  10.004  0.1141  1.2630 -0.1140
  893MOL0     C17785   4.451   7.978  10.100  0.2509  0.4977 -0.6266
  893MOL0     C17786   4.314   7.937  10.044  1.0003 -1.0971 -0.5252
  893MOL0     C17787   4.212   8.045  10.081  0.3113  0.5427  0.4057
  893MOL0    Cl17788   4.054   8.002  10.029 -0.2601 -0.0053  0.2269
  893MOL0     C17789   5.270   8.037   9.692 -0.6790 -0.3789 -0.0897
  893MOL0     C17790   5.395   8.024   9.625 -0.1810 -0.0550  0.5124
  893MOL0     O17791   5.656   8.212   9.580 -0.3704 -0.8849 -0.5444
  893MOL0     C17792   5.828   7.959   9.431  0.0041  0.2396  0.0082
  893MOL0     C17793   5.946   7.928   9.361 -0.6339 -0.2720  0.8410
  893MOL0     N17794   6.735   8.273   9.107  0.3911  0.3559 -0.0271
  893MOL0     N17795   6.850   8.331   9.080 -0.0337  0.6256 -0.8001
  893MOL0     C17796   7.970   8.689   9.649 -1.0534 -0.3118  0.2003
  893MOL0     C17797   8.098   8.666   9.706 -0.1401 -0.6700  0.0797
  893MOL0     C17798   8.550   8.826   9.780 -0.2304  0.1730  0.7447
  893MOL0     C17799   8.575   8.736   9.892  0.1720 -0.1398 -0.5998
  893MOL0     C17800   8.695   8.750   9.965 -0.7230  0.6412  0.1012
  893MOL0     C17801   8.776   8.856   9.941 -0.4582  0.5062 -0.9046
  893MOL0     O17802   8.880   8.900  10.019 -0.4444 -0.7347 -0.4342
  893MOL0     C17803   8.946   8.800  10.105 -0.7426  0.1018  0.7856
  893MOL0     C17804   9.105   8.817  10.105  0.2355  0.1988  0.7690
  893MOL0     C17805   9.148   8.942  10.162  0.4213 -0.2301  0.8700
  893MOL0     C17806   9.154   8.944  10.308  0.5404  0.2441  0.4824
  893MOL0     C17807   9.219   9.067  10.348 -0.0387  0.5180  0.3437
  893MOL0     C17808   9.285   9.158  10.387  0.7852  0.3143 -1.0055
  893MOL0     C17809   8.752   8.937   9.829 -0.7449 -0.1210  0.3895
  893MOL0     C17810   8.644   8.927   9.742  0.6364  0.3910  0.4687
  893MOL0     H17811   8.229   8.980   9.677  1.5268 -1.0694  0.7044
  893MOL0     H17812   7.991   9.031   9.603 -0.2940 -0.6254 -0.6610
  893MOL0     H17813   7.698   8.692   9.651  2.1992 -1.2585 -0.1172
  893MOL0     H17814   7.716   8.681   9.471 -0.2483  0.5406 -0.4943
  893MOL0     H17815   7.572   8.853   9.422  0.4238  1.0996  1.1704
  893MOL0     H17816   7.558   8.899   9.591 -0.5364  0.2070  1.1356
  893MOL0     H17817   7.359   8.792   9.552  0.1869 -0.0692 -0.6804
  893MOL0     H17818   7.450   8.662   9.625  2.4367  2.2387  2.0910
  893MOL0     H17819   7.428   8.700   9.327 -3.0469 -5.2106 -3.0282
  893MOL0     H17820   7.479   8.560   9.421 -1.3940 -0.9273  3.9964
  893MOL0     H17821   7.206   8.684   9.461  0.1827  0.8297 -1.8435
  893MOL0     H17822   7.249   8.525   9.515 -2.9533  1.7442  0.0500
  893MOL0     H17823   7.294   8.466   9.267 -0.4322 -0.1906  1.4389
  893MOL0     H17824   7.218   8.612   9.213 -1.6250 -1.3998 -0.4083
  893MOL0     H17825   7.064   8.439   9.402  0.3670 -0.1187  1.1054
  893MOL0     H17826   7.003   8.562   9.288 -0.7087 -1.6857 -0.1799
  893MOL0     H17827   7.130   8.296   9.221  1.4602  2.0391 -0.6145
  893MOL0     H17828   7.095   8.417   9.097  1.2507  1.1198  0.1896
  893MOL0     H17829   6.882   8.268   9.396 -4.1037 -2.5150  0.0899
  893MOL0     H17830   6.599   8.207   9.403 -3.1152 -2.2846  0.8935
  893MOL0     H17831   6.660   8.061   9.318  0.8319  0.3027  1.3401
  893MOL0     H17832   6.480   8.134   9.132 -0.0508 -0.7134  0.5730
  893MOL0     H17833   6.445   8.267   9.245 -1.9456 -0.4547  1.6086
  893MOL0     H17834   6.422   7.973   9.318  2.1422  0.0721 -3.0742
  893MOL0     H17835   6.349   8.110   9.401 -0.1417  2.7153 -0.8857
  893MOL0     H17836   6.274   8.043   9.106 -1.7625 -2.1844  1.2371
  893MOL0     H17837   6.212   8.175   9.193 -0.2512  0.1737  0.9661
  893MOL0     H17838   6.103   8.232   9.379  1.4975  0.2711  2.8138
  893MOL0     H17839   5.895   8.274   9.516 -0.5232  1.1988 -1.7686
  893MOL0     H17840   5.592   7.992   9.905 -1.9299 -1.2057  1.6788
  893MOL0     H17841   5.375   8.041  10.008 -1.0897 -2.3896 -0.7135
  893MOL0     H17842   5.021   7.931   9.797  0.8408  1.3337 -1.3058
  893MOL0     H17843   5.016   8.107   9.788 -2.8483  0.1491  0.1312
  893MOL0     H17844   4.955   8.117  10.029 -2.1972  0.2891  0.5237
  893MOL0     H17845   4.973   7.944  10.059 -1.7459 -0.7139 -0.3381
  893MOL0     H17846   4.794   7.897   9.881 -2.0702 -2.3567  2.2473
  893MOL0     H17847   4.769   8.080   9.889  1.3998  0.2891  1.1079
  893MOL0     H17848   4.742   7.891  10.124  2.1169 -1.3094 -2.2697
  893MOL0     H17849   4.689   8.065  10.111  1.6059  2.1488 -1.2054
  893MOL0     H17850   4.546   7.831   9.976 -0.3206  1.1362  0.5867
  893MOL0     H17851   4.563   7.998   9.915  0.6446  0.7048 -0.5209
  893MOL0     H17852   4.452   8.087  10.112 -1.0889  0.6253 -1.4711
  893MOL0     H17853   4.453   7.925  10.195 -0.4572 -0.1520 -0.9603
  893MOL0     H17854   4.328   7.938   9.935  4.0612  0.5117 -0.2333
  893MOL0     H17855   4.287   7.837  10.080 -1.4507 -0.9688 -1.7782
  893MOL0     H17856   4.239   8.134  10.022  1.7631  1.2850  2.1110
  893MOL0     H17857   4.225   8.066  10.187  2.2231  1.9751 -0.0553
  893MOL0     H17858   5.173   8.029   9.643  1.0334 -2.6801 -3.5280
  893MOL0     H17859   5.407   7.998   9.521 -2.3366  0.5962  0.0375
  893MOL0     H17860   5.745   7.891   9.446 -1.5884  1.6973 -1.7649
  893MOL0     H17861   5.962   7.821   9.346  2.1026 -0.3065  3.3097
  893MOL0     H17862   7.904   8.606   9.628  0.9138 -1.3384 -2.6057
  893MOL0     H17863   8.135   8.566   9.722  1.4603 -0.3311 -1.1998
  893MOL0     H17864   8.503   8.664   9.930 -1.5933  1.7928 -0.0970
  893MOL0     H17865   8.718   8.681  10.046 -0.8365  0.3404 -0.1215
  893MOL0     H17866   8.922   8.700  10.069 -0.2455 -0.1106  1.0422
  893MOL0     H17867   8.906   8.812  10.206  2.6827  0.6326  2.2075
  893MOL0     H17868   9.159   8.739  10.159 -0.1993  2.1321  4.3788
  893MOL0     H17869   9.126   8.817   9.998  1.7472  0.3014  1.0371
  893MOL0     H17870   9.087   9.026  10.128 -2.5363 -1.6231  2.3755
  893MOL0     H17871   9.245   8.967  10.119 -0.5558  1.5489 -0.4669
  893MOL0     H17872   9.054   8.931  10.352  1.8007 -1.0413  3.2734
  893MOL0     H17873   9.224   8.865  10.337 -0.7617 -1.2328 -0.2350
  893MOL0     H17874   9.337   9.239  10.433 -0.4832 -0.4148  1.9479
  893MOL0     H17875   8.817   9.020   9.802  1.6389 -2.1866 -0.6442
  893MOL0     H17876   8.630   9.001   9.665  1.6798  1.1379  0.9673
  894MOL0     O17877  11.084   8.448   4.705  0.1856  0.0834  0.1502
  894MOL0     C17878  11.089   8.436   4.826  0.4728  0.8648 -0.0648
  894MOL0     O17879  10.985   8.408   4.906 -0.0271  0.0346  0.1278
  894MOL0     C17880  10.858   8.431   4.858 -0.2046  0.1142  0.4789
  894MOL0     C17881  10.799   8.350   4.758 -0.7583 -0.4952  0.0535
  894MOL0     C17882  10.665   8.367   4.715 -0.2175 -1.0521 -0.1308
  894MOL0     C17883  10.589   8.474   4.772  0.7168  0.6872  0.1449
  894MOL0     O17884  10.455   8.486   4.735  0.6463 -0.3608  0.2895
  894MOL0     C17885  10.429   8.617   4.690 -0.0140  0.2753  0.1035
  894MOL0     C17886  10.285   8.609   4.645 -0.1539  0.4761  0.6738
  894MOL0     C17887  10.182   8.638   4.760 -0.0019  0.3993 -0.0167
  894MOL0     C17888  10.038   8.642   4.708 -0.9106 -0.6572  0.0347
  894MOL0     C17889   9.947   8.672   4.828 -0.1872  0.8044  0.3827
  894MOL0     C17890   9.954   8.807   4.889  0.3979 -1.1121 -0.1894
  894MOL0     C17891   9.962   8.924   4.787  0.1400 -0.1706  0.2215
  894MOL0     C17892   9.912   9.062   4.839  0.2956 -0.1221  0.0491
  894MOL0     N17893   9.763   9.049   4.841  0.7407  1.2544  0.1764
  894MOL0     C17894   9.682   9.026   4.730 -0.2595  0.3365 -0.4119
  894MOL0     C17895   9.561   9.000   4.783  0.0711 -1.2942  0.2985
  894MOL0     C17896   9.444   8.979   4.698  0.0792  0.4800  0.3779
  894MOL0     C17897   9.342   8.887   4.759  0.6180 -0.2841 -0.2231
  894MOL0     C17898   9.231   8.848   4.656  0.1575  0.6835  0.2326
  894MOL0     C17899   9.118   8.792   4.737  0.5404 -0.0064  1.0499
  894MOL0     O17900   9.004   8.782   4.644 -0.6288 -0.3901 -0.0851
  894MOL0     C17901   8.885   8.765   4.698  0.5066  0.4634  0.4465
  894MOL0     C17902   8.786   8.834   4.636  0.4658  0.2047 -0.3044
  894MOL0     C17903   8.649   8.815   4.671 -0.1376 -0.0028  0.1396
  894MOL0     C17904   8.611   8.745   4.781 -0.3742 -0.1080 -0.6513
  894MOL0     C17905   8.481   8.723   4.824 -0.4669  0.2580 -0.7266
  894MOL0     O17906   8.456   8.627   4.915  0.8128 -0.1242 -0.0579
  894MOL0     C17907   8.325   8.589   4.937  0.2239  0.3223  0.4082
  894MOL0     C17908   8.308   8.514   5.052  0.5897 -0.6699 -0.2012
  894MOL0     C17909   8.180   8.475   5.102  0.0102 -0.2807 -0.4178
  894MOL0     C17910   8.062   8.500   5.026  1.0102 -0.1146  0.4883
  894MOL0     O17911   7.931   8.461   5.058  0.4678  0.2732  0.3899
  894MOL0     C17912   7.884   8.482   5.191 -0.0742  0.2351 -0.5309
  894MOL0     C17913   7.754   8.552   5.182  0.7766 -0.9148  1.0348
  894MOL0     C17914   7.633   8.483   5.120 -0.0532 -0.0646 -0.5313
  894MOL0     C17915   7.594   8.349   5.197  0.4772  0.3864  0.3833
  894MOL0     C17916   7.439   8.308   5.179 -0.6904  0.7911 -0.2899
  894MOL0     C17917   7.414   8.293   5.031 -0.4350 -0.6067  0.6245
  894MOL0     C17918   7.299   8.196   5.015  0.3134 -0.9667  0.8088
  894MOL0     C17919   7.229   8.208   4.878 -0.0316 -0.3100  0.1210
  894MOL0    Cl17920   7.359   8.217   4.756  0.0784  0.1783  0.3158
  894MOL0     C17921   8.080   8.563   4.899  0.0015 -0.2564  0.6072
  894MOL0     C17922   8.205   8.601   4.858  0.0204  0.4440 -0.4400
  894MOL0     O17923   8.402   8.795   4.770 -0.3887  0.1194 -0.2837
  894MOL0     C17924   8.722   8.685   4.851  0.6748  0.8476 -0.3918
  894MOL0     C17925   8.855   8.693   4.813 -0.0048  0.8540  0.0332
  894MOL0     N17926   9.560   9.019   4.919 -0.0131 -0.2317 -0.0320
  894MOL0     N17927   9.679   9.053   4.950  0.2904 -0.4395 -0.2456
  894MOL0     C17928  10.650   8.561   4.872 -0.0740  0.1127  0.4463
  894MOL0     C17929  10.781   8.536   4.913  0.1524  0.0681 -0.7176
  894MOL0     C17930  11.221   8.445   4.884  0.7406 -1.0563 -0.2819
  894MOL0     C17931  11.240   8.463   5.023 -0.5761  0.9171 -0.2853
  894MOL0     C17932  11.374   8.467   5.067  0.5886 -0.4472 -0.5335
  894MOL0     C17933  11.477   8.452   4.979  0.2314  0.5458 -0.1280
  894MOL0     O17934  11.607   8.477   5.004 -0.0717  0.3801  0.1795
  894MOL0     C17935  11.648   8.526   5.134  0.9183  0.1393 -0.3114
  894MOL0     C17936  11.790   8.580   5.140  1.2666 -0.2550 -0.3810
  894MOL0     C17937  11.803   8.701   5.045 -0.0589 -0.4507  0.8168
  894MOL0     C17938  11.930   8.790   5.074 -0.0761  0.1239  1.1716
  894MOL0     C17939  11.924   8.848   5.205 -0.3075  0.1040  0.4949
  894MOL0     C17940  11.895   8.890   5.317  0.4679 -0.4831  0.6726
  894MOL0     C17941  11.461   8.417   4.849  0.1848  0.3565 -0.6916
  894MOL0     C17942  11.329   8.420   4.805 -1.4493  0.0587 -0.0241
  894MOL0     H17943  10.856   8.268   4.717 -0.1668 -0.3741  0.6238
  894MOL0     H17944  10.634   8.292   4.643  1.5526 -0.6775 -1.3633
  894MOL0     H17945  10.508   8.632   4.616  1.1722 -2.5205  0.7130
  894MOL0     H17946  10.447   8.695   4.765 -3.4603 -0.0272  1.3983
  894MOL0     H17947  10.256   8.515   4.598 -1.6849  1.0435  0.4153
  894MOL0     H17948  10.274   8.695   4.577 -2.2038  0.8708  1.4049
  894MOL0     H17949  10.200   8.731   4.815 -1.0291 -0.4609  1.8833
  894MOL0     H17950  10.179   8.561   4.837 -2.7068  0.2350 -0.1894
  894MOL0     H17951  10.023   8.713   4.626  1.6149 -1.1268 -0.9389
  894MOL0     H17952  10.023   8.544   4.662  0.7359  0.5128 -3.3391
  894MOL0     H17953   9.975   8.599   4.905  3.8417 -0.9211 -2.3706
  894MOL0     H17954   9.842   8.662   4.800  0.0121  0.8144 -0.3802
  894MOL0     H17955  10.042   8.817   4.953  1.1062 -3.4987 -0.6988
  894MOL0     H17956   9.859   8.810   4.942 -0.4628 -0.1296 -1.6888
  894MOL0     H17957  10.058   8.923   4.734 -0.7897 -3.9116 -1.7926
  894MOL0     H17958   9.890   8.904   4.707  0.0793 -1.4813  0.5738
  894MOL0     H17959   9.946   9.133   4.764 -0.2369  2.2331  1.9397
  894MOL0     H17960   9.950   9.083   4.939  1.5420  0.3337 -0.5061
  894MOL0     H17961   9.705   9.027   4.624 -0.1712  2.3797 -0.4035
  894MOL0     H17962   9.480   8.937   4.603  0.0971  2.9574 -0.7931
  894MOL0     H17963   9.408   9.080   4.675  1.8283  1.0325 -0.0981
  894MOL0     H17964   9.311   8.936   4.851 -0.1859 -0.7302 -0.2385
  894MOL0     H17965   9.405   8.803   4.788  2.6109  0.7753 -1.3106
  894MOL0     H17966   9.198   8.932   4.595  0.6131 -0.1383 -1.1862
  894MOL0     H17967   9.273   8.770   4.592 -1.4473  0.3490 -0.4736
  894MOL0     H17968   9.085   8.845   4.827 -0.5417 -0.6309  1.0378
  894MOL0     H17969   9.141   8.690   4.771 -1.8993 -1.6799 -1.8088
  894MOL0     H17970   8.809   8.898   4.552 -1.7706  1.1087 -0.3044
  894MOL0     H17971   8.574   8.873   4.619 -1.2079 -1.9882 -0.6416
  894MOL0     H17972   8.400   8.499   5.108  1.7311 -1.1409 -2.0876
  894MOL0     H17973   8.161   8.419   5.193 -0.3355 -3.1499 -2.1236
  894MOL0     H17974   7.951   8.549   5.246 -0.4477  0.6939 -0.6300
  894MOL0     H17975   7.876   8.392   5.252  1.4572 -0.1271 -0.8113
  894MOL0     H17976   7.766   8.638   5.116 -1.3911 -1.7286 -0.5270
  894MOL0     H17977   7.726   8.595   5.279 -0.9707  0.7733 -0.1364
  894MOL0     H17978   7.666   8.474   5.016 -0.9102 -0.0801 -0.8104
  894MOL0     H17979   7.551   8.556   5.119  1.0508  1.2174 -0.5588
  894MOL0     H17980   7.656   8.262   5.175  0.1198  0.4989 -1.2332
  894MOL0     H17981   7.611   8.370   5.303  0.1546  0.9722  0.3247
  894MOL0     H17982   7.368   8.372   5.231 -1.0222 -1.7830  2.7580
  894MOL0     H17983   7.417   8.209   5.219 -3.4295  1.6009  0.3885
  894MOL0     H17984   7.508   8.266   4.982  0.2882  2.2678  0.2127
  894MOL0     H17985   7.378   8.388   4.989 -0.3715 -1.2977 -1.0496
  894MOL0     H17986   7.337   8.095   5.035  1.1452 -0.2023  3.5179
  894MOL0     H17987   7.234   8.231   5.096  0.5087 -3.0437  1.9257
  894MOL0     H17988   7.161   8.294   4.873 -0.9037 -1.0547 -3.0183
  894MOL0     H17989   7.169   8.118   4.864 -0.9490 -0.0150  1.9234
  894MOL0     H17990   8.000   8.589   4.830  1.2152  0.5235 -0.5785
  894MOL0     H17991   8.201   8.664   4.769  1.0571 -0.8142 -1.3968
  894MOL0     H17992   8.703   8.616   4.933 -0.9573  1.7597  0.0404
  894MOL0     H17993   8.933   8.636   4.863 -0.4615 -0.4519 -0.7055
  894MOL0     H17994  10.590   8.629   4.931  0.5930  0.0778  1.1987
  894MOL0     H17995  10.822   8.597   4.993 -0.0756 -1.0932  0.3072
  894MOL0     H17996  11.155   8.480   5.088 -0.9837  0.7839 -0.7787
  894MOL0     H17997  11.390   8.493   5.171  3.0066 -0.8454 -0.7501
  894MOL0     H17998  11.638   8.450   5.212  1.1670  1.8546  1.4510
  894MOL0     H17999  11.574   8.603   5.154  0.7422 -0.8088  3.3017
  894MOL0     H18000  11.819   8.595   5.244  0.1579  1.2225 -0.2572
  894MOL0     H18001  11.858   8.503   5.104 -0.3920 -3.0882  2.0311
  894MOL0     H18002  11.712   8.762   5.042  0.2484 -0.0340 -0.8796
  894MOL0     H18003  11.802   8.653   4.947 -1.9136 -1.1025  1.1181
  894MOL0     H18004  12.020   8.729   5.066 -1.7341 -2.3764  0.3240
  894MOL0     H18005  11.939   8.869   4.998 -1.0960 -0.8961 -0.0721
  894MOL0     H18006  11.877   8.920   5.418  0.5378 -1.7360  1.0787
  894MOL0     H18007  11.540   8.387   4.781  0.3481  0.7671 -0.6892
  894MOL0     H18008  11.330   8.402   4.698 -0.6576 -1.1949  0.1737
  895MOL0     O18009   7.238   6.733   0.075  0.1662  0.5180  0.6009
  895MOL0     C18010   7.244   6.849   0.115 -1.2397  0.6212 -0.1376
  895MOL0     O18011   7.136   6.930   0.131 -0.1741  1.0380  0.2165
  895MOL0     C18012   7.009   6.895   0.131  0.6732  0.2732 -0.3239
  895MOL0     C18013   6.905   6.989   0.103 -0.0318 -0.2360 -0.6208
  895MOL0     C18014   6.770   6.942   0.102  0.7904 -0.0976 -0.1445
  895MOL0     C18015   6.733   6.810   0.155 -0.6775  1.2801 -0.4164
  895MOL0     O18016   6.605   6.759   0.178  0.0219 -0.3162  0.1346
  895MOL0     C18017   6.490   6.849   0.169 -0.9948  1.0121  0.8486
  895MOL0     C18018   6.360   6.770   0.178  0.0499  0.7869 -0.8933
  895MOL0     C18019   6.230   6.858   0.158 -0.9782  0.7693 -0.0098
  895MOL0     C18020   6.098   6.784   0.206  0.0708 -0.2022 -0.0178
  895MOL0     C18021   5.970   6.867   0.166  0.2023 -0.6548  0.0758
  895MOL0     C18022   5.841   6.814   0.223  0.3948 -0.2515 -0.5416
  895MOL0     C18023   5.731   6.906   0.173  0.7291  0.5400 -0.1554
  895MOL0     C18024   5.594   6.876   0.234 -0.5668  0.5006 -0.7771
  895MOL0     N18025   5.487   6.978   0.207 -0.2256 -0.2036 -0.7271
  895MOL0     C18026   5.436   7.014   0.082 -0.1108  1.0624  0.0594
  895MOL0     C18027   5.336   7.103   0.105 -0.5764  1.0612  0.6229
  895MOL0     C18028   5.261   7.166  -0.001  0.1197 -0.0204  0.2417
  895MOL0     C18029   5.266   7.320  -0.020 -0.0539 -1.3698  0.0650
  895MOL0     C18030   5.238   7.400   0.107  0.9680  0.4821 -0.3284
  895MOL0     C18031   5.087   7.383   0.140  0.0716  0.5001 -1.3208
  895MOL0     O18032   4.999   7.388   0.027 -0.0348 -0.1176 -0.1453
  895MOL0     C18033   4.872   7.439   0.039 -0.1099  0.7119 -0.5082
  895MOL0     C18034   4.795   7.422  -0.082  0.2755  0.3034  0.7499
  895MOL0     C18035   4.663   7.458  -0.090 -0.0196  0.6426 -0.5786
  895MOL0     C18036   4.589   7.496   0.024  0.4677  0.4616  0.3665
  895MOL0     C18037   4.448   7.527   0.013  0.7041  0.1794  0.7014
  895MOL0     O18038   4.391   7.591   0.121 -0.2773 -0.2820  0.9859
  895MOL0     C18039   4.262   7.623   0.122  0.0869  0.2337 -0.8036
  895MOL0     C18040   4.174   7.643   0.015 -0.5157 -0.5101 -0.1461
  895MOL0     C18041   4.037   7.679   0.026 -0.0067 -0.1795 -0.1203
  895MOL0     C18042   3.982   7.678   0.159 -0.4600  0.5877 -0.2110
  895MOL0     O18043   3.847   7.683   0.165 -0.1225 -0.4299  0.3972
  895MOL0     C18044   3.769   7.622   0.270  0.7192 -0.1634  0.2367
  895MOL0     C18045   3.619   7.610   0.230  0.3648 -0.1403  0.1760
  895MOL0     C18046   3.528   7.604   0.360 -0.3588 -0.9229 -0.2230
  895MOL0     C18047   3.384   7.557   0.346 -0.4924  0.6654 -0.2886
  895MOL0     C18048   3.370   7.421   0.273  0.4431  1.2086 -0.2326
  895MOL0     C18049   3.459   7.303   0.335 -0.4680  0.9504  0.2627
  895MOL0     C18050   3.409   7.157   0.317  0.6051 -0.6225 -0.2798
  895MOL0     C18051   3.409   7.121   0.169 -0.9069 -0.6592 -0.3119
  895MOL0    Cl18052   3.573   7.104   0.093 -0.0557 -0.7146  0.5044
  895MOL0     C18053   4.070   7.650   0.268  0.2641  0.3258  0.2388
  895MOL0     C18054   4.203   7.627   0.255 -0.6170 -0.0518 -0.3694
  895MOL0     O18055   4.397   7.492  -0.090  0.3437  0.3664 -0.3291
  895MOL0     C18056   4.662   7.488   0.142  0.3916  0.2234  1.2672
  895MOL0     C18057   4.798   7.475   0.149  1.6659 -0.5968 -0.2977
  895MOL0     N18058   5.327   7.139   0.235 -1.1177  0.1400  0.9607
  895MOL0     N18059   5.423   7.067   0.294 -0.5580  0.2369 -0.0960
  895MOL0     C18060   6.840   6.735   0.194  0.3390  1.0364  0.1949
  895MOL0     C18061   6.978   6.767   0.183  0.6887  0.1786 -0.2814
  895MOL0     C18062   7.378   6.917   0.106  0.2149  0.6810  0.1912
  895MOL0     C18063   7.390   7.057   0.142  0.3863  0.1668 -0.2519
  895MOL0     C18064   7.515   7.120   0.120 -0.2151  0.3383 -0.0350
  895MOL0     C18065   7.624   7.061   0.059 -0.4342 -0.9380 -0.2739
  895MOL0     O18066   7.730   7.145   0.043 -0.7890 -0.8029  0.5233
  895MOL0     C18067   7.861   7.100   0.003  0.4992  0.8441  0.1158
  895MOL0     C18068   7.936   7.220   0.021 -0.1215 -0.5522  0.0133
  895MOL0     C18069   8.080   7.187   0.032  0.2586 -0.7668  0.5328
  895MOL0     C18070   8.173   7.307   0.070  0.5119 -0.3087  0.0595
  895MOL0     C18071   8.304   7.265   0.127  0.0322  0.9691 -0.0178
  895MOL0     C18072   8.399   7.203   0.169  0.5918  0.3080 -0.0662
  895MOL0     C18073   7.609   6.929   0.020 -0.6409 -0.3167 -0.1119
  895MOL0     C18074   7.488   6.862   0.042 -0.1352 -0.5823 -1.3046
  895MOL0     H18075   6.924   7.091   0.071 -1.2453  0.9316  2.1571
  895MOL0     H18076   6.698   7.017   0.070  2.7798  2.7592  1.5918
  895MOL0     H18077   6.477   6.885   0.067 -0.7428  0.8781  0.7707
  895MOL0     H18078   6.492   6.931   0.242  2.0427  0.0289  2.0068
  895MOL0     H18079   6.358   6.718   0.274 -0.2822 -2.8527 -2.7036
  895MOL0     H18080   6.363   6.697   0.097  1.0678 -0.2115  0.0060
  895MOL0     H18081   6.225   6.888   0.053  1.8342 -0.0066 -0.4456
  895MOL0     H18082   6.249   6.941   0.226 -1.1909  0.1339  0.8413
  895MOL0     H18083   6.100   6.688   0.153 -0.2926  0.5581 -1.4852
  895MOL0     H18084   6.104   6.770   0.314  2.5315  2.6161  0.3503
  895MOL0     H18085   5.957   6.878   0.058 -1.5364  0.5004  0.3506
  895MOL0     H18086   5.978   6.971   0.199  2.7051 -0.6128 -0.4965
  895MOL0     H18087   5.844   6.805   0.332  0.7175 -0.4811 -0.5668
  895MOL0     H18088   5.829   6.714   0.180  0.6659 -1.2405  1.5428
  895MOL0     H18089   5.761   7.010   0.192  1.2463  1.2430 -4.0564
  895MOL0     H18090   5.724   6.892   0.065  3.7972 -0.4019 -0.3058
  895MOL0     H18091   5.613   6.870   0.342  0.9880 -0.9499 -1.0887
  895MOL0     H18092   5.549   6.783   0.199  0.2149 -0.9699  1.8620
  895MOL0     H18093   5.476   6.986  -0.016 -2.0057 -1.6016 -0.0616
  895MOL0     H18094   5.157   7.135   0.018  0.1512  0.0855  0.6048
  895MOL0     H18095   5.289   7.105  -0.087  1.4058 -1.7888  1.8353
  895MOL0     H18096   5.201   7.345  -0.104 -1.5901 -3.7296  0.4852
  895MOL0     H18097   5.366   7.348  -0.056  0.0477 -1.9395 -0.1001
  895MOL0     H18098   5.297   7.364   0.192  0.6063  1.8568  0.5548
  895MOL0     H18099   5.261   7.506   0.090  2.8031  0.6407  2.5252
  895MOL0     H18100   5.058   7.461   0.211  0.4014 -1.2560  0.8772
  895MOL0     H18101   5.077   7.286   0.189  3.1734  0.9263  0.4170
  895MOL0     H18102   4.852   7.393  -0.170  0.3714  2.7253 -0.0699
  895MOL0     H18103   4.620   7.452  -0.189  0.4989  1.4257 -0.8655
  895MOL0     H18104   4.221   7.635  -0.083  2.7172  1.5067  1.1065
  895MOL0     H18105   3.971   7.693  -0.059 -1.7504  3.2690  1.6091
  895MOL0     H18106   3.772   7.693   0.353 -1.0561 -3.1090  3.0336
  895MOL0     H18107   3.803   7.525   0.307  0.9716  0.0591  0.5825
  895MOL0     H18108   3.604   7.518   0.173  0.4559  0.8967 -1.5805
  895MOL0     H18109   3.576   7.686   0.165  0.4206 -1.0764 -0.9952
  895MOL0     H18110   3.528   7.702   0.409  1.5630 -0.3101 -1.3846
  895MOL0     H18111   3.580   7.534   0.426  2.3772  1.7122  0.6503
  895MOL0     H18112   3.341   7.527   0.442  0.5741  1.1346  0.3632
  895MOL0     H18113   3.326   7.640   0.304 -0.2282 -1.0199 -4.4837
  895MOL0     H18114   3.393   7.423   0.166 -1.2442 -1.5341 -0.7483
  895MOL0     H18115   3.262   7.405   0.280  0.3518  1.0512 -1.6442
  895MOL0     H18116   3.479   7.317   0.442  3.3466 -3.2164  0.4435
  895MOL0     H18117   3.558   7.300   0.289 -0.7868  1.6482 -0.4839
  895MOL0     H18118   3.477   7.100   0.381 -0.4799  2.6677  4.2792
  895MOL0     H18119   3.310   7.150   0.363  0.2707  0.1718 -0.8589
  895MOL0     H18120   3.357   7.205   0.122  1.6632  0.5806 -1.1245
  895MOL0     H18121   3.350   7.034   0.139 -1.5094 -0.6578  0.8030
  895MOL0     H18122   4.015   7.637   0.361 -0.7806 -0.9081 -0.5293
  895MOL0     H18123   4.265   7.631   0.345 -1.2275  1.9623  0.0037
  895MOL0     H18124   4.603   7.491   0.232  0.2826 -3.8130  1.4686
  895MOL0     H18125   4.846   7.490   0.246 -0.8467 -0.2932  0.9814
  895MOL0     H18126   6.821   6.639   0.239  1.5339  0.6891 -0.0076
  895MOL0     H18127   7.058   6.713   0.233 -0.4884  2.0716  4.1827
  895MOL0     H18128   7.306   7.121   0.166 -0.6272 -1.3353  0.3698
  895MOL0     H18129   7.529   7.225   0.145  2.6823  0.0231 -0.0836
  895MOL0     H18130   7.866   7.066  -0.101  4.6325  0.9955  0.1047
  895MOL0     H18131   7.906   7.015   0.056 -0.4413 -0.7623 -1.5356
  895MOL0     H18132   7.912   7.288  -0.062 -1.2329  2.0428  2.3308
  895MOL0     H18133   7.897   7.277   0.106 -2.7154 -4.0366  1.3656
  895MOL0     H18134   8.107   7.151  -0.068 -1.6531 -3.0509  0.7484
  895MOL0     H18135   8.094   7.108   0.107 -1.0279 -0.9248  0.6372
  895MOL0     H18136   8.184   7.376  -0.014 -0.4625  3.5469  2.8302
  895MOL0     H18137   8.123   7.375   0.140  3.2219  0.9547  0.9197
  895MOL0     H18138   8.470   7.142   0.222  0.5758 -2.2252 -2.7054
  895MOL0     H18139   7.693   6.887  -0.036 -1.3804  1.1757 -2.4983
  895MOL0     H18140   7.490   6.756   0.021 -0.5810 -1.2005  1.3451
  896MOL0     O18141   3.605   3.581  10.073 -0.2439  0.1374 -0.1572
  896MOL0     C18142   3.632   3.695  10.034  0.0976  0.1252  0.1689
  896MOL0     O18143   3.542   3.792  10.009  0.5846 -0.2449 -0.1858
  896MOL0     C18144   3.409   3.759  10.036 -0.0577 -0.7042  0.2262
  896MOL0     C18145   3.324   3.710   9.938  0.5825 -0.7257 -0.2486
  896MOL0     C18146   3.188   3.681   9.972  0.7254  0.3015 -1.4348
  896MOL0     C18147   3.142   3.700  10.104 -0.9000  0.0636 -0.3928
  896MOL0     O18148   3.013   3.688  10.147  0.5924  0.2791  0.1425
  896MOL0     C18149   2.905   3.660  10.049 -0.1947  0.2674  0.4046
  896MOL0     C18150   2.884   3.509  10.044 -0.0010  0.2986 -0.0765
  896MOL0     C18151   2.817   3.460  10.173  0.6345 -0.0002 -0.5813
  896MOL0     C18152   2.710   3.548  10.236 -0.1341 -0.5556 -0.2144
  896MOL0     C18153   2.590   3.587  10.147  0.5675  0.2535 -0.5879
  896MOL0     C18154   2.475   3.649  10.232  0.1055 -0.3763 -0.3283
  896MOL0     C18155   2.344   3.638  10.148  0.2130 -0.3830 -0.0857
  896MOL0     C18156   2.239   3.727  10.203  0.9190  0.2639  0.4264
  896MOL0     N18157   2.264   3.875  10.194 -0.6227 -0.4104  0.4012
  896MOL0     C18158   2.316   3.940  10.088 -0.3076  0.1802  0.0799
  896MOL0     C18159   2.333   4.067  10.129 -1.0951  0.2157 -0.4003
  896MOL0     C18160   2.386   4.182  10.056  0.9389 -0.1239 -0.4881
  896MOL0     C18161   2.286   4.229   9.954  0.3286  0.4729  0.6385
  896MOL0     C18162   2.336   4.353   9.872 -0.2956 -0.4110 -1.2759
  896MOL0     C18163   2.234   4.391   9.769  0.3277 -0.9213  0.0540
  896MOL0     O18164   2.262   4.495   9.682  0.4880 -0.1780 -0.7105
  896MOL0     C18165   2.175   4.507   9.580 -0.1877 -0.7201 -0.6814
  896MOL0     C18166   2.049   4.565   9.585 -0.0023 -0.9520  0.8066
  896MOL0     C18167   1.962   4.555   9.478  0.9689 -0.6031  0.5285
  896MOL0     C18168   2.005   4.496   9.363 -0.9365 -0.1321  0.9233
  896MOL0     C18169   1.907   4.498   9.246  0.1497 -0.2749 -0.3032
  896MOL0     O18170   1.787   4.540   9.274 -0.5059  0.1417 -0.6853
  896MOL0     C18171   1.687   4.539   9.187  0.3760  0.3490 -0.9711
  896MOL0     C18172   1.563   4.549   9.250  0.5906 -0.4232  0.5668
  896MOL0     C18173   1.437   4.552   9.174 -0.5849 -0.1144 -0.1898
  896MOL0     C18174   1.432   4.547   9.039  0.2899  1.2641  0.2621
  896MOL0     O18175   1.308   4.561   8.986  0.6504 -0.3375  0.4246
  896MOL0     C18176   1.297   4.629   8.857 -0.9644 -0.1374 -0.2732
  896MOL0     C18177   1.316   4.782   8.866  0.3937 -0.3971 -0.4623
  896MOL0     C18178   1.216   4.847   8.975 -0.3711  0.0587  0.0916
  896MOL0     C18179   1.081   4.848   8.912  0.9490  0.2656 -0.3218
  896MOL0     C18180   0.989   4.885   9.018 -0.5790  0.3186 -0.3608
  896MOL0     C18181   0.848   4.887   8.964 -0.1284 -0.8087 -0.2778
  896MOL0     C18182   0.749   4.913   9.074  0.0217 -0.7014 -0.3284
  896MOL0     C18183   0.750   5.068   9.120 -0.9371 -0.1814  0.2675
  896MOL0    Cl18184   0.606   5.089   9.218 -0.5940 -0.4614  0.3517
  896MOL0     C18185   1.559   4.557   8.976  1.0110  0.3450 -0.1287
  896MOL0     C18186   1.676   4.552   9.048 -0.6672  0.3227 -0.2196
  896MOL0     O18187   1.956   4.475   9.136 -0.1970  0.3850 -0.3040
  896MOL0     C18188   2.137   4.450   9.351 -0.0705 -0.0082 -0.2719
  896MOL0     C18189   2.213   4.444   9.464 -0.2287  0.5515  0.1571
  896MOL0     N18190   2.307   4.076  10.260 -0.6362 -0.7919  0.2770
  896MOL0     N18191   2.254   3.960  10.298 -0.2588 -0.3713 -0.4310
  896MOL0     C18192   3.231   3.745  10.200  0.9576 -0.5773 -0.2457
  896MOL0     C18193   3.361   3.770  10.166 -0.0701 -0.5476 -0.0015
  896MOL0     C18194   3.772   3.738  10.016 -1.0434  0.3175 -0.0916
  896MOL0     C18195   3.875   3.665  10.068 -0.5863  0.2784  0.2208
  896MOL0     C18196   4.011   3.690  10.046  0.0244  0.5545 -0.2398
  896MOL0     C18197   4.037   3.825  10.002 -0.6077  0.1770  0.9612
  896MOL0     O18198   4.155   3.886  10.020  0.1338  0.5035 -0.5125
  896MOL0     C18199   4.275   3.807  10.032 -0.1333 -0.5044 -0.5038
  896MOL0     C18200   4.399   3.896  10.015  0.6348  0.4763  0.1236
  896MOL0     C18201   4.522   3.865  10.103  0.0635 -0.0373 -0.6738
  896MOL0     C18202   4.632   3.949  10.050  0.4787 -0.3777  0.1174
  896MOL0     C18203   4.611   4.097  10.080  0.6928 -0.4154  0.1755
  896MOL0     C18204   4.585   4.219  10.103 -0.6294  0.2956  0.5946
  896MOL0     C18205   3.944   3.908   9.955  0.7248 -0.1934  0.3495
  896MOL0     C18206   3.811   3.860   9.957 -0.5807  0.4147  0.7255
  896MOL0     H18207   3.368   3.703   9.839 -0.4965 -0.0362 -0.7840
  896MOL0     H18208   3.124   3.638   9.896 -0.3880 -1.6088  0.4683
  896MOL0     H18209   2.927   3.697   9.948  0.6264  1.3575  0.9615
  896MOL0     H18210   2.816   3.717  10.076 -0.4611 -0.5168  1.2310
  896MOL0     H18211   2.982   3.468  10.019 -0.3725 -0.5067 -0.2290
  896MOL0     H18212   2.821   3.477   9.960 -0.1057 -2.0123  0.8107
  896MOL0     H18213   2.892   3.460  10.253  2.1286  2.9581 -1.8234
  896MOL0     H18214   2.775   3.360  10.159  1.3741 -0.5307  0.7552
  896MOL0     H18215   2.674   3.488  10.320 -0.5643  3.1094  2.4551
  896MOL0     H18216   2.758   3.634  10.284 -0.1301 -1.0493  0.6966
  896MOL0     H18217   2.561   3.495  10.096  1.0648  1.0067 -2.2781
  896MOL0     H18218   2.625   3.664  10.078  0.9814  0.3682 -0.2537
  896MOL0     H18219   2.506   3.751  10.258 -0.4095 -0.6258  1.4118
  896MOL0     H18220   2.457   3.591  10.323  0.0046  0.4002  0.1517
  896MOL0     H18221   2.361   3.680  10.049  0.5987  0.4095  0.3126
  896MOL0     H18222   2.313   3.534  10.130 -0.5306  0.1094 -1.8302
  896MOL0     H18223   2.228   3.713  10.310  0.8853 -0.6500  0.3102
  896MOL0     H18224   2.142   3.709  10.157  0.4834 -0.7091  1.6881
  896MOL0     H18225   2.350   3.895   9.995 -0.1643 -4.7032  2.1913
  896MOL0     H18226   2.473   4.155   9.995  1.1323  0.5980 -0.5437
  896MOL0     H18227   2.406   4.270  10.118  0.1285 -1.5649  1.9332
  896MOL0     H18228   2.195   4.251  10.010 -0.5605  0.9830 -0.9293
  896MOL0     H18229   2.262   4.140   9.894  0.4665  0.2312  0.9405
  896MOL0     H18230   2.354   4.436   9.940  0.0251 -1.3760 -0.1558
  896MOL0     H18231   2.435   4.340   9.828  1.7177 -1.3336  2.9718
  896MOL0     H18232   2.144   4.418   9.824  0.0487 -0.9121 -0.3961
  896MOL0     H18233   2.213   4.300   9.711 -1.3859 -2.1583  2.4457
  896MOL0     H18234   2.020   4.624   9.671 -1.7603 -4.1302  2.5782
  896MOL0     H18235   1.870   4.613   9.473  1.3709 -0.0667 -3.3078
  896MOL0     H18236   1.559   4.570   9.357 -3.0371  2.1066  0.0981
  896MOL0     H18237   1.342   4.575   9.222 -1.0469  1.5362 -1.7451
  896MOL0     H18238   1.192   4.608   8.834 -1.8070  0.4334  2.6080
  896MOL0     H18239   1.361   4.580   8.783 -2.5216  0.6307 -2.2212
  896MOL0     H18240   1.294   4.817   8.765 -0.0202 -0.0103 -0.2404
  896MOL0     H18241   1.421   4.803   8.890  0.0202 -0.9924  2.0883
  896MOL0     H18242   1.245   4.951   8.992  0.0310  0.5488 -2.9832
  896MOL0     H18243   1.212   4.794   9.070 -0.1987 -0.3161 -0.1098
  896MOL0     H18244   1.071   4.915   8.827 -0.7720 -1.8326 -1.9051
  896MOL0     H18245   1.041   4.754   8.872 -1.7727  0.1684  2.2509
  896MOL0     H18246   1.013   4.986   9.053 -2.7767  2.4196 -4.2351
  896MOL0     H18247   1.003   4.814   9.100  0.5880 -0.4131 -1.1697
  896MOL0     H18248   0.817   4.784   8.943 -2.9245 -0.8545  3.1381
  896MOL0     H18249   0.838   4.947   8.873  1.9669 -1.9026 -1.3074
  896MOL0     H18250   0.648   4.887   9.041 -0.5062 -0.0377  0.6967
  896MOL0     H18251   0.768   4.863   9.170  3.3240  1.5363  0.3541
  896MOL0     H18252   0.743   5.129   9.030  2.1933 -0.3342 -0.1750
  896MOL0     H18253   0.845   5.085   9.171  0.1544 -6.1140  0.9493
  896MOL0     H18254   1.569   4.573   8.869 -0.7365  1.3488 -0.1942
  896MOL0     H18255   1.769   4.539   8.994 -0.7671 -0.8183 -0.1367
  896MOL0     H18256   2.173   4.424   9.252 -1.9781 -0.2404 -0.9536
  896MOL0     H18257   2.314   4.405   9.465 -0.3626  0.1819 -0.4385
  896MOL0     H18258   3.189   3.767  10.297 -0.0087  0.3068 -0.8442
  896MOL0     H18259   3.427   3.811  10.242  1.0183  3.0853 -2.5758
  896MOL0     H18260   3.870   3.574  10.127 -0.8481 -0.7459 -1.3293
  896MOL0     H18261   4.084   3.628  10.098  0.0803 -0.1436 -1.1203
  896MOL0     H18262   4.279   3.723   9.962  1.8721 -0.6918 -0.2437
  896MOL0     H18263   4.275   3.772  10.136  0.5733  1.1283  0.0769
  896MOL0     H18264   4.419   3.901   9.907 -2.9468  1.2273 -0.6290
  896MOL0     H18265   4.370   3.992  10.058  0.8265  0.0529  1.2279
  896MOL0     H18266   4.525   3.756  10.092 -1.9515 -0.0624 -1.2757
  896MOL0     H18267   4.499   3.886  10.207  0.4717  3.5182 -1.1888
  896MOL0     H18268   4.728   3.909  10.084  2.0587  0.3132 -3.1785
  896MOL0     H18269   4.634   3.946   9.941 -0.7644 -1.5690  0.1159
  896MOL0     H18270   4.571   4.325  10.100 -0.5343  0.2872 -0.6248
  896MOL0     H18271   3.966   4.009   9.922  0.9936 -0.7513 -1.2343
  896MOL0     H18272   3.745   3.932   9.908  3.0075  1.7149 -2.8034
  897MOL0     O18273   3.412   4.400   8.367  0.2202  0.3598  0.9646
  897MOL0     C18274   3.495   4.398   8.458 -0.0682 -0.2649  0.3641
  897MOL0     O18275   3.482   4.458   8.576  0.8119  0.9918 -0.6033
  897MOL0     C18276   3.375   4.546   8.590  0.7780 -0.9076 -0.0044
  897MOL0     C18277   3.254   4.500   8.643 -0.2824 -0.7955  0.4580
  897MOL0     C18278   3.144   4.586   8.645  0.0429 -0.9463 -0.3836
  897MOL0     C18279   3.153   4.723   8.619  0.4386  0.2908  0.8981
  897MOL0     O18280   3.048   4.815   8.620  0.5747 -0.0924 -0.2549
  897MOL0     C18281   3.053   4.912   8.730 -0.0811  0.1327 -0.2650
  897MOL0     C18282   2.915   4.953   8.764 -0.0216 -0.3761  0.0078
  897MOL0     C18283   2.902   5.078   8.846 -0.4830  0.0040  0.0200
  897MOL0     C18284   2.758   5.137   8.842 -1.0002 -0.5445 -0.0053
  897MOL0     C18285   2.745   5.256   8.943  0.0238  0.9040  0.4161
  897MOL0     C18286   2.617   5.327   8.944  0.3282  0.1651 -0.2868
  897MOL0     C18287   2.606   5.418   9.060  0.0586  0.0831 -0.2379
  897MOL0     C18288   2.563   5.349   9.192  0.1960  0.0769  0.2062
  897MOL0     N18289   2.539   5.455   9.284 -0.2983 -0.3730 -0.0537
  897MOL0     C18290   2.415   5.514   9.306 -0.8591  1.0250 -0.2719
  897MOL0     C18291   2.444   5.613   9.392 -0.3494 -0.0096  0.2440
  897MOL0     C18292   2.348   5.716   9.442  0.1710 -0.9727 -0.7854
  897MOL0     C18293   2.418   5.820   9.535 -0.5869 -0.2704  0.1920
  897MOL0     C18294   2.334   5.914   9.617  0.0088 -0.0667  0.3894
  897MOL0     C18295   2.217   5.963   9.540 -0.7217  0.0716 -0.8809
  897MOL0     O18296   2.135   6.060   9.615  0.0027  0.8020 -0.1152
  897MOL0     C18297   2.003   6.077   9.565  0.4627  1.2808  0.0324
  897MOL0     C18298   1.972   6.098   9.433  0.7273  1.4224  0.5521
  897MOL0     C18299   1.838   6.113   9.391  0.2644  1.2656  0.8579
  897MOL0     C18300   1.733   6.107   9.482  1.0251 -0.9892 -1.4711
  897MOL0     C18301   1.584   6.124   9.455  0.4003 -0.2247  0.5767
  897MOL0     O18302   1.558   6.132   9.324  0.1585  0.3186 -0.2361
  897MOL0     C18303   1.431   6.145   9.285  0.5211  1.1416  0.1524
  897MOL0     C18304   1.403   6.239   9.186 -0.6989  0.0221  0.2574
  897MOL0     C18305   1.276   6.251   9.135 -0.1379  0.2534  0.2221
  897MOL0     C18306   1.171   6.164   9.177 -0.8867  0.0088 -0.2115
  897MOL0     O18307   1.046   6.183   9.122 -1.1528  0.4160  0.0276
  897MOL0     C18308   0.968   6.065   9.092  0.0946  0.8715 -0.0725
  897MOL0     C18309   0.881   6.095   8.970  0.6699 -0.2784  0.3247
  897MOL0     C18310   0.779   6.208   8.997  0.8648  0.0106 -0.8173
  897MOL0     C18311   0.676   6.161   9.096 -0.1015  0.5586 -0.4963
  897MOL0     C18312   0.540   6.231   9.072 -0.5724  0.0118 -0.1656
  897MOL0     C18313   0.430   6.154   9.152 -0.1278  0.3901  0.4695
  897MOL0     C18314   0.308   6.247   9.175  0.4846 -0.1556 -0.2265
  897MOL0     C18315   0.240   6.263   9.032  0.2032 -0.7974  0.6733
  897MOL0    Cl18316   0.135   6.395   9.023 -0.0057 -0.2318  0.1571
  897MOL0     C18317   1.204   6.062   9.269  0.4015 -0.2137 -0.2740
  897MOL0     C18318   1.328   6.052   9.324  0.2595  0.3903  0.1681
  897MOL0     O18319   1.502   6.140   9.543  0.0891  0.0735  0.1863
  897MOL0     C18320   1.755   6.070   9.615 -0.3228  0.0585 -0.1709
  897MOL0     C18321   1.893   6.054   9.652  1.4145 -0.5065  0.2690
  897MOL0     N18322   2.579   5.605   9.429  0.4112  0.2759  0.0232
  897MOL0     N18323   2.634   5.512   9.369  0.2097  0.3713 -0.0970
  897MOL0     C18324   3.276   4.771   8.584 -0.0703 -0.2575 -0.4389
  897MOL0     C18325   3.373   4.686   8.565 -0.1368  0.1722 -0.6938
  897MOL0     C18326   3.616   4.307   8.434 -0.0584  0.0288  0.8740
  897MOL0     C18327   3.679   4.240   8.543 -0.0652 -0.8397  0.2755
  897MOL0     C18328   3.789   4.166   8.515 -1.5198 -0.0558  0.0215
  897MOL0     C18329   3.843   4.157   8.386 -0.5323  0.4273  0.4415
  897MOL0     O18330   3.960   4.088   8.381  0.2984 -0.6801 -0.7725
  897MOL0     C18331   4.031   4.075   8.257 -0.1453  0.1032 -0.5595
  897MOL0     C18332   3.976   3.956   8.179 -0.1297 -0.2301 -0.3706
  897MOL0     C18333   4.080   3.926   8.069 -0.6574 -0.4686  0.7791
  897MOL0     C18334   4.024   3.838   7.956 -0.6534  0.7513 -1.0595
  897MOL0     C18335   4.138   3.802   7.865 -0.4084  0.6848 -0.0277
  897MOL0     C18336   4.237   3.785   7.803  0.2684 -0.6155  0.0850
  897MOL0     C18337   3.784   4.220   8.284  0.0417  0.2160 -0.7425
  897MOL0     C18338   3.667   4.299   8.308 -0.0443 -0.0381 -0.4951
  897MOL0     H18339   3.246   4.394   8.665  1.9960 -0.7212  1.9697
  897MOL0     H18340   3.047   4.541   8.666 -1.5300  1.8475 -1.1695
  897MOL0     H18341   3.104   5.000   8.689  0.8386 -0.2788 -0.0301
  897MOL0     H18342   3.102   4.866   8.816 -1.2286 -0.5144  0.0533
  897MOL0     H18343   2.853   4.881   8.817 -0.0402 -0.3270  0.0526
  897MOL0     H18344   2.862   4.969   8.669 -1.8245 -1.8915  0.6988
  897MOL0     H18345   2.972   5.158   8.819 -2.3105  1.4148 -0.7740
  897MOL0     H18346   2.929   5.049   8.948  0.0894 -2.5861 -0.7871
  897MOL0     H18347   2.734   5.180   8.745  1.4921  0.1918 -0.3708
  897MOL0     H18348   2.689   5.058   8.874  0.6677 -2.5687 -1.1776
  897MOL0     H18349   2.829   5.323   8.920 -1.8775  2.4156 -2.8148
  897MOL0     H18350   2.764   5.211   9.040  2.8914 -0.8654 -0.8123
  897MOL0     H18351   2.539   5.251   8.945 -0.0078  0.5095 -0.4781
  897MOL0     H18352   2.607   5.386   8.852 -0.5529  3.7510  1.8979
  897MOL0     H18353   2.700   5.469   9.086 -0.5817 -0.4970  3.9353
  897MOL0     H18354   2.526   5.488   9.034 -1.9093 -1.8482  0.3365
  897MOL0     H18355   2.640   5.278   9.224  0.8167 -0.1114 -1.5729
  897MOL0     H18356   2.471   5.290   9.179  0.6619 -0.1885 -2.5113
  897MOL0     H18357   2.319   5.481   9.268 -1.6270  2.0310  0.7242
  897MOL0     H18358   2.268   5.667   9.498  0.5597 -1.8954 -1.0168
  897MOL0     H18359   2.301   5.780   9.368 -0.3245  0.1729  0.4747
  897MOL0     H18360   2.484   5.882   9.473 -1.8175  1.6191  0.6652
  897MOL0     H18361   2.482   5.768   9.606  2.6077  0.5190 -1.8702
  897MOL0     H18362   2.311   5.862   9.710  2.9946 -0.9089  0.7705
  897MOL0     H18363   2.391   6.001   9.649 -2.1593  1.3872  0.5115
  897MOL0     H18364   2.154   5.878   9.510  0.7473 -0.6545 -2.0804
  897MOL0     H18365   2.250   6.010   9.447  5.3757 -0.1525  0.7359
  897MOL0     H18366   2.054   6.099   9.362 -1.8003  2.1231 -2.6257
  897MOL0     H18367   1.828   6.110   9.283  3.3963 -2.0547  0.4579
  897MOL0     H18368   1.487   6.294   9.144 -0.8068 -1.5063 -2.1308
  897MOL0     H18369   1.266   6.317   9.049  1.1624 -2.4537 -2.1820
  897MOL0     H18370   0.916   6.037   9.184  1.7451  0.5634  0.7962
  897MOL0     H18371   1.043   5.987   9.077  0.8498  1.2352  1.5827
  897MOL0     H18372   0.831   6.000   8.950 -2.2500  0.8265  1.6688
  897MOL0     H18373   0.941   6.123   8.883  2.0372  0.5619  1.5137
  897MOL0     H18374   0.728   6.229   8.902  2.2115  1.3651 -1.2705
  897MOL0     H18375   0.818   6.305   9.030  1.9489 -0.4152 -0.8295
  897MOL0     H18376   0.662   6.053   9.087 -0.2869  0.3627  1.6066
  897MOL0     H18377   0.714   6.187   9.196  1.3036 -0.4313 -0.7437
  897MOL0     H18378   0.523   6.241   8.964  1.6552  0.3621 -0.5461
  897MOL0     H18379   0.559   6.330   9.115  0.2347 -0.9521  1.8135
  897MOL0     H18380   0.468   6.140   9.254 -1.2236  2.0819  1.1507
  897MOL0     H18381   0.403   6.064   9.096  0.3199  1.7741 -2.0765
  897MOL0     H18382   0.229   6.199   9.234  0.2814  1.7273  1.1044
  897MOL0     H18383   0.332   6.339   9.228  3.2375 -0.3164 -1.0692
  897MOL0     H18384   0.194   6.168   9.002 -1.3722  0.1205  0.0106
  897MOL0     H18385   0.317   6.293   8.962 -0.7065  0.1994  0.0640
  897MOL0     H18386   1.118   5.998   9.288  0.7867 -0.6149  0.1571
  897MOL0     H18387   1.355   5.973   9.393 -1.1099 -2.0902 -1.9557
  897MOL0     H18388   1.680   6.061   9.693  0.4390 -1.0808  0.4653
  897MOL0     H18389   1.895   6.032   9.759  0.2462  1.1618  0.6771
  897MOL0     H18390   3.298   4.876   8.568 -3.5841  0.7526  0.3954
  897MOL0     H18391   3.465   4.729   8.527  1.2850 -1.0423  1.1763
  897MOL0     H18392   3.643   4.258   8.644  1.7871 -0.1770  0.8692
  897MOL0     H18393   3.833   4.114   8.600  0.6189  0.5533 -0.6544
  897MOL0     H18394   4.133   4.046   8.283  0.8898  1.3407 -2.9536
  897MOL0     H18395   4.046   4.165   8.197  5.1850  0.0368  0.2059
  897MOL0     H18396   3.965   3.867   8.242  1.3905  1.4209  2.4332
  897MOL0     H18397   3.875   3.990   8.155  0.3662 -0.0885 -2.4266
  897MOL0     H18398   4.171   3.887   8.116 -0.1039 -0.4365 -0.2269
  897MOL0     H18399   4.118   4.020   8.026 -0.1736 -0.8013  0.4702
  897MOL0     H18400   3.980   3.745   7.994 -0.8731  0.8643 -1.0387
  897MOL0     H18401   3.943   3.887   7.902  0.7582  2.3743 -1.8300
  897MOL0     H18402   4.328   3.776   7.746 -0.8588  1.5772 -2.2504
  897MOL0     H18403   3.832   4.222   8.187 -1.8791  2.2341 -1.7228
  897MOL0     H18404   3.631   4.357   8.223 -1.6967  1.9556  1.4362
  898MOL0     O18405   5.161  10.704   9.407  0.0729 -0.1075  0.9053
  898MOL0     C18406   5.242  10.793   9.361 -0.3233  0.3834 -0.1913
  898MOL0     O18407   5.213  10.886   9.272 -0.1640  0.0832 -0.0354
  898MOL0     C18408   5.091  10.919   9.214  0.6546  0.7677 -0.3494
  898MOL0     C18409   4.987  10.951   9.304  0.6078  0.0618 -0.6186
  898MOL0     C18410   4.856  10.980   9.261 -0.4169  0.6820 -0.6256
  898MOL0     C18411   4.836  10.976   9.120 -0.2358 -0.3450  0.5343
  898MOL0     O18412   4.713  10.989   9.060  0.1176 -0.5704 -0.1886
  898MOL0     C18413   4.608  11.051   9.136  0.0313 -0.5430  0.4529
  898MOL0     C18414   4.521  10.952   9.213 -0.6863 -0.0696 -0.6940
  898MOL0     C18415   4.409  11.025   9.285 -0.0123 -0.0445  0.4680
  898MOL0     C18416   4.309  10.915   9.332  0.2987 -0.0941  0.1210
  898MOL0     C18417   4.179  10.977   9.392 -0.3673 -0.4439  0.3597
  898MOL0     C18418   4.099  11.045   9.285  0.4208  0.1947 -0.5695
  898MOL0     C18419   3.966  11.095   9.357 -0.2443 -0.2060  0.2346
  898MOL0     C18420   3.857  11.153   9.258 -0.6718  1.6399 -0.6321
  898MOL0     N18421   3.915  11.256   9.182 -0.0812 -0.9712  0.6179
  898MOL0     C18422   3.921  11.385   9.225  0.2508  0.1214 -0.6248
  898MOL0     C18423   4.008  11.442   9.147 -0.8556  0.6329 -0.0589
  898MOL0     C18424   4.066  11.582   9.170 -1.3061 -0.5017 -0.5000
  898MOL0     C18425   3.957  11.675   9.136 -0.8114 -0.9157 -0.3792
  898MOL0     C18426   3.985  11.829   9.147 -0.1590 -0.3462 -0.3045
  898MOL0     C18427   4.122  11.869   9.088  0.7996 -0.1208 -0.1963
  898MOL0     O18428   4.153  12.013   9.088 -0.2836 -0.1926 -0.0517
  898MOL0     C18429   4.251  12.059   9.008  0.0737 -0.4926 -0.8161
  898MOL0     C18430   4.247  12.192   8.993  1.1246  0.4772  0.5470
  898MOL0     C18431   4.341  12.274   8.933  0.2596 -0.6743 -0.2172
  898MOL0     C18432   4.457  12.208   8.881  0.1126 -0.4617  0.5240
  898MOL0     C18433   4.567  12.279   8.806  0.3627 -0.5096 -0.0754
  898MOL0     O18434   4.698  12.234   8.815  0.9312  0.7144  0.5326
  898MOL0     C18435   4.791  12.308   8.746 -0.6600  0.9903 -0.3017
  898MOL0     C18436   4.859  12.417   8.807 -1.1795  0.3360  0.0130
  898MOL0     C18437   4.946  12.496   8.720  0.3613  0.2901 -0.2478
  898MOL0     C18438   4.967  12.464   8.583 -0.5792  0.2596  0.2080
  898MOL0     O18439   5.043  12.553   8.512 -0.9145 -0.1079 -0.1899
  898MOL0     C18440   5.135  12.505   8.413  0.2937 -0.7461 -0.0762
  898MOL0     C18441   5.244  12.602   8.378 -0.6503 -1.1535  0.7347
  898MOL0     C18442   5.208  12.718   8.286  0.6778  0.1035  0.3581
  898MOL0     C18443   5.319  12.831   8.274  0.0240 -0.5827 -0.2436
  898MOL0     C18444   5.314  12.921   8.150  0.1952  0.2889 -0.3329
  898MOL0     C18445   5.209  13.027   8.170  0.1895  0.2172 -0.3933
  898MOL0     C18446   5.214  13.137   8.061  0.1406  0.3931  0.1158
  898MOL0     C18447   5.151  13.268   8.108 -0.6475  0.5454 -0.2152
  898MOL0    Cl18448   4.987  13.263   8.180 -0.1711 -0.3220 -0.5035
  898MOL0     C18449   4.915  12.346   8.533  0.0269 -0.7299  0.6449
  898MOL0     C18450   4.827  12.271   8.615 -0.2467  0.7214  0.0088
  898MOL0     O18451   4.529  12.366   8.733  0.2278 -0.6388 -0.3017
  898MOL0     C18452   4.465  12.058   8.891 -0.3826 -0.1828 -0.6425
  898MOL0     C18453   4.362  11.995   8.956 -0.3908  0.2844 -0.5397
  898MOL0     N18454   4.046  11.353   9.048 -0.2555  0.7867 -0.4405
  898MOL0     N18455   3.983  11.239   9.064 -0.1551 -0.1744  0.3836
  898MOL0     C18456   4.938  10.944   9.037 -0.2697 -0.7830  0.2902
  898MOL0     C18457   5.071  10.911   9.079 -0.0195  0.2109 -0.3596
  898MOL0     C18458   5.380  10.773   9.411  0.0683 -0.9329  0.6832
  898MOL0     C18459   5.416  10.682   9.511 -0.7753  1.0424 -0.2532
  898MOL0     C18460   5.548  10.650   9.545  0.1484 -0.6625 -0.3411
  898MOL0     C18461   5.645  10.729   9.482  0.6012  0.6172 -0.2763
  898MOL0     O18462   5.780  10.709   9.522  0.2463 -0.3914 -0.8159
  898MOL0     C18463   5.868  10.821   9.508  0.3448 -0.2459  0.2600
  898MOL0     C18464   5.944  10.816   9.382 -0.2656  0.7072  0.3003
  898MOL0     C18465   6.002  10.671   9.365  0.9325 -0.3841  0.3407
  898MOL0     C18466   6.100  10.680   9.251 -0.0523  0.0275  0.5253
  898MOL0     C18467   6.167  10.557   9.200 -0.8869 -0.3286 -0.3380
  898MOL0     C18468   6.215  10.456   9.161 -0.1846  0.8003  0.4690
  898MOL0     C18469   5.613  10.829   9.389  0.2332  1.1583 -0.4195
  898MOL0     C18470   5.480  10.846   9.355 -0.6356  0.0405  0.7762
  898MOL0     H18471   5.023  10.966   9.405  0.0297 -2.4996  0.0417
  898MOL0     H18472   4.782  11.016   9.331 -0.1210  0.6087 -0.2735
  898MOL0     H18473   4.538  11.100   9.067  0.3092  0.2837  0.7467
  898MOL0     H18474   4.661  11.123   9.199  1.3581 -2.3086  1.4541
  898MOL0     H18475   4.576  10.911   9.299 -3.2401 -0.8984  0.6407
  898MOL0     H18476   4.485  10.878   9.142 -1.3273 -2.2955  1.7895
  898MOL0     H18477   4.366  11.093   9.211  0.3839 -0.9984 -0.6910
  898MOL0     H18478   4.452  11.083   9.367  0.2478 -0.6364  0.7598
  898MOL0     H18479   4.280  10.848   9.252  2.1553 -2.0014  0.9542
  898MOL0     H18480   4.355  10.860   9.414 -0.6952  0.4558  1.0792
  898MOL0     H18481   4.207  11.042   9.476 -1.7804 -1.2575  1.4919
  898MOL0     H18482   4.114  10.895   9.422  0.8642 -1.0466  1.4731
  898MOL0     H18483   4.078  10.972   9.206 -0.9307 -1.1912  0.9848
  898MOL0     H18484   4.154  11.130   9.245  0.8469 -0.3718 -1.2150
  898MOL0     H18485   3.920  11.006   9.402 -0.0901 -0.7804 -0.7045
  898MOL0     H18486   3.995  11.166   9.435  0.7038  0.8732 -1.0574
  898MOL0     H18487   3.771  11.192   9.313 -0.6364  2.3637 -1.0738
  898MOL0     H18488   3.841  11.077   9.181  0.2431  0.7190  0.0673
  898MOL0     H18489   3.868  11.425   9.311 -1.8399 -3.6292  0.0341
  898MOL0     H18490   4.154  11.594   9.106 -1.8330 -1.4147 -1.4059
  898MOL0     H18491   4.087  11.603   9.276 -0.0318 -0.1556 -0.7954
  898MOL0     H18492   3.874  11.655   9.205 -0.0255 -2.2753  0.2328
  898MOL0     H18493   3.920  11.649   9.036 -1.7427 -4.3226  0.7197
  898MOL0     H18494   3.909  11.877   9.087  0.6630  0.2855 -0.8615
  898MOL0     H18495   3.981  11.853   9.254 -0.8216  1.0069 -0.6191
  898MOL0     H18496   4.128  11.820   8.991  1.4169 -0.5868  0.0719
  898MOL0     H18497   4.199  11.813   9.142  2.0774  1.0601 -0.7350
  898MOL0     H18498   4.160  12.245   9.028  0.5309  0.2995 -0.6059
  898MOL0     H18499   4.315  12.379   8.921  0.5310 -0.7860 -2.1312
  898MOL0     H18500   4.855  12.441   8.913  1.8969 -0.2527  0.3483
  898MOL0     H18501   5.001  12.575   8.770  1.3377  0.1526 -1.0631
  898MOL0     H18502   5.095  12.468   8.318  1.8990 -0.7059 -0.7878
  898MOL0     H18503   5.170  12.412   8.458  0.2006  0.4658  2.6684
  898MOL0     H18504   5.322  12.540   8.334 -1.5308 -1.6317 -0.1795
  898MOL0     H18505   5.282  12.657   8.466 -0.2212 -0.3946  0.0891
  898MOL0     H18506   5.119  12.763   8.330 -1.6386 -2.9870 -0.7274
  898MOL0     H18507   5.177  12.679   8.188 -2.6781  2.5359  0.2824
  898MOL0     H18508   5.317  12.894   8.363  0.1099  1.0248 -1.3338
  898MOL0     H18509   5.416  12.781   8.288 -0.0199 -1.4841 -2.5629
  898MOL0     H18510   5.291  12.857   8.065  1.8007  1.5880 -1.8077
  898MOL0     H18511   5.415  12.964   8.143 -0.4557  1.6894 -1.3968
  898MOL0     H18512   5.224  13.071   8.269 -0.9979 -1.1513  0.4371
  898MOL0     H18513   5.110  12.982   8.167  0.9756 -1.6574 -3.0036
  898MOL0     H18514   5.312  13.152   8.015  1.0495 -0.1284  1.7895
  898MOL0     H18515   5.154  13.105   7.975 -0.6041  0.3216  0.6506
  898MOL0     H18516   5.159  13.338   8.025 -2.0090  2.0724  0.8942
  898MOL0     H18517   5.215  13.304   8.190  1.1519 -0.8070 -0.9550
  898MOL0     H18518   4.939  12.339   8.427 -1.9358  1.8479 -0.0928
  898MOL0     H18519   4.774  12.195   8.559 -0.1679 -0.4732  1.4740
  898MOL0     H18520   4.543  11.994   8.852  1.0984 -0.2486  2.1579
  898MOL0     H18521   4.372  11.888   8.971 -1.9707  0.4326  2.3810
  898MOL0     H18522   4.917  10.933   8.931  0.0461 -0.1854  0.1624
  898MOL0     H18523   5.146  10.871   9.011 -1.5556 -1.9248 -0.8962
  898MOL0     H18524   5.336  10.635   9.568  1.3695 -1.0205  1.2366
  898MOL0     H18525   5.572  10.578   9.622  1.6041  1.8347  1.7114
  898MOL0     H18526   5.934  10.825   9.595 -0.1273  0.7978  0.5924
  898MOL0     H18527   5.815  10.917   9.519  1.0390  0.0286  1.3776
  898MOL0     H18528   5.879  10.839   9.297 -0.9487  0.6480  0.7994
  898MOL0     H18529   6.019  10.896   9.381  0.9054 -0.3444 -0.1856
  898MOL0     H18530   5.924  10.596   9.348  0.1228  0.1142  1.7424
  898MOL0     H18531   6.061  10.654   9.455  0.3713  0.7742  0.9540
  898MOL0     H18532   6.053  10.723   9.162 -0.3776 -4.6397 -1.8358
  898MOL0     H18533   6.183  10.745   9.280 -1.0616  1.3386  0.5820
  898MOL0     H18534   6.259  10.368   9.119 -1.8238  0.5001 -0.6869
  898MOL0     H18535   5.680  10.905   9.349  0.8995  0.9988  0.3685
  898MOL0     H18536   5.450  10.926   9.288 -1.3651 -0.2842  0.7029
  899MOL0     O18537   5.850   0.309  11.265  0.8221  0.2207 -0.3102
  899MOL0     C18538   5.895   0.415  11.310 -0.6463  0.1596 -0.3416
  899MOL0     O18539   5.824   0.526  11.351  0.5517  0.4034 -0.3507
  899MOL0     C18540   5.691   0.498  11.371  0.0248 -0.9169  0.3941
  899MOL0     C18541   5.652   0.490  11.508  1.0065  0.1349 -0.8263
  899MOL0     C18542   5.528   0.431  11.540 -0.0468 -0.0774 -0.6151
  899MOL0     C18543   5.432   0.406  11.444 -0.4408  0.1417 -0.4562
  899MOL0     O18544   5.308   0.355  11.464 -1.0532 -0.1006  0.6809
  899MOL0     C18545   5.254   0.371  11.595  0.3099  0.2833 -0.6544
  899MOL0     C18546   5.101   0.359  11.605  0.5959 -0.6676 -0.2000
  899MOL0     C18547   5.041   0.476  11.542  0.7037 -0.7914  0.3119
  899MOL0     C18548   4.899   0.456  11.493  0.0069 -0.1467 -0.2542
  899MOL0     C18549   4.804   0.587  11.522 -0.6913  1.0789  0.3465
  899MOL0     C18550   4.820   0.690  11.413  0.5800  1.0636  0.5350
  899MOL0     C18551   4.748   0.818  11.441 -0.2564 -0.6724 -0.1111
  899MOL0     C18552   4.765   0.915  11.317  0.6076 -0.8869 -0.5961
  899MOL0     N18553   4.893   0.913  11.249 -0.2547 -0.4477 -0.2893
  899MOL0     C18554   5.010   0.973  11.297  0.3295 -0.6055 -0.3200
  899MOL0     C18555   5.107   0.941  11.213  0.0334  0.2293 -0.1617
  899MOL0     C18556   5.246   0.993  11.199 -0.1051 -1.0058  0.5273
  899MOL0     C18557   5.347   0.922  11.278 -0.4869  0.3008  0.3671
  899MOL0     C18558   5.431   0.827  11.194 -0.5635 -0.0360 -0.8786
  899MOL0     C18559   5.346   0.719  11.142  0.1994  0.5729 -0.3012
  899MOL0     O18560   5.413   0.614  11.062  0.7110  0.1859  0.1029
  899MOL0     C18561   5.462   0.640  10.932 -0.6426  0.8443  0.2618
  899MOL0     C18562   5.433   0.752  10.852 -0.0202  0.1747  1.1770
  899MOL0     C18563   5.490   0.759  10.720 -0.2856  0.2960  0.5599
  899MOL0     C18564   5.573   0.656  10.672 -0.6946 -1.0625  0.7078
  899MOL0     C18565   5.654   0.674  10.538  0.0674  0.0417 -0.4569
  899MOL0     O18566   5.636   0.789  10.472  0.1342 -0.0314  0.5688
  899MOL0     C18567   5.681   0.811  10.339  0.0359  0.3421 -0.0487
  899MOL0     C18568   5.815   0.795  10.294 -0.0382  0.3973  0.7778
  899MOL0     C18569   5.850   0.826  10.163 -0.1245 -0.4831  0.3768
  899MOL0     C18570   5.754   0.855  10.066  0.4368 -0.1736 -0.2469
  899MOL0     O18571   5.785   0.879   9.940  0.1104  0.4246 -0.0502
  899MOL0     C18572   5.792   1.019   9.900  0.0789  0.4865 -0.9662
  899MOL0     C18573   5.848   1.029   9.756 -0.4753  0.0945 -1.0102
  899MOL0     C18574   5.776   0.935   9.657  0.3246 -0.1530  0.0333
  899MOL0     C18575   5.846   0.936   9.523  0.4201 -0.4587  0.4045
  899MOL0     C18576   5.774   0.847   9.415  0.3314  0.7701  1.7230
  899MOL0     C18577   5.861   0.849   9.292  0.9650  0.3235 -0.6227
  899MOL0     C18578   5.838   0.971   9.198 -0.2498  0.1048  0.5613
  899MOL0     C18579   5.955   1.008   9.114 -0.1328  0.9429 -0.2012
  899MOL0    Cl18580   6.060   1.110   9.224  0.3994 -0.2265  0.4186
  899MOL0     C18581   5.619   0.865  10.111 -0.1568  0.2817  0.3728
  899MOL0     C18582   5.586   0.841  10.241  1.4432 -0.3830  0.1870
  899MOL0     O18583   5.725   0.586  10.505  0.3632  0.1284  0.5681
  899MOL0     C18584   5.604   0.549  10.755 -0.6497  0.2211  0.5031
  899MOL0     C18585   5.553   0.544  10.888 -0.4439 -0.7300  1.0862
  899MOL0     N18586   5.046   0.861  11.114 -0.0122  0.5258 -0.4755
  899MOL0     N18587   4.926   0.842  11.142  0.8667  0.3134  1.1090
  899MOL0     C18588   5.462   0.440  11.309  1.0645 -0.0432 -0.6412
  899MOL0     C18589   5.587   0.485  11.270  0.8855 -0.0435 -0.9258
  899MOL0     C18590   6.046   0.429  11.327 -0.7600  0.2732 -0.0983
  899MOL0     C18591   6.132   0.333  11.258  0.1381  0.4251 -0.5659
  899MOL0     C18592   6.271   0.331  11.282 -0.4547  0.3496 -0.3774
  899MOL0     C18593   6.328   0.441  11.360  0.4443 -0.0998  0.5615
  899MOL0     O18594   6.454   0.461  11.413 -0.3980 -0.1843 -0.6333
  899MOL0     C18595   6.559   0.387  11.353 -0.7670 -0.3329  0.0695
  899MOL0     C18596   6.685   0.401  11.441  0.0750  0.1561  0.7744
  899MOL0     C18597   6.800   0.336  11.373 -0.0155 -0.2726 -0.0870
  899MOL0     C18598   6.933   0.326  11.451 -0.3639  0.1509  0.2053
  899MOL0     C18599   6.998   0.450  11.435 -0.4073  0.2304  0.1612
  899MOL0     C18600   7.058   0.559  11.427  0.6642 -0.2796 -0.5545
  899MOL0     C18601   6.247   0.527  11.421  0.4156  0.0377 -0.0294
  899MOL0     C18602   6.105   0.520  11.411 -0.6471  0.4173  0.1714
  899MOL0     H18603   5.709   0.501  11.599 -1.2225  1.3524  0.4988
  899MOL0     H18604   5.514   0.386  11.638  0.6341 -1.5066 -1.1475
  899MOL0     H18605   5.288   0.473  11.615 -1.0284  0.6755 -0.2752
  899MOL0     H18606   5.300   0.295  11.658 -1.2963 -0.0991  0.1167
  899MOL0     H18607   5.059   0.357  11.706 -2.8028  0.6663 -1.4472
  899MOL0     H18608   5.056   0.270  11.559 -3.9295  1.2005  0.1077
  899MOL0     H18609   5.096   0.507  11.453 -0.6779 -0.0342 -0.2996
  899MOL0     H18610   5.043   0.561  11.611  2.4672 -1.0395  0.6124
  899MOL0     H18611   4.888   0.411  11.394 -0.5952 -2.1456  0.6639
  899MOL0     H18612   4.853   0.373  11.547 -1.7325  0.9062 -0.0241
  899MOL0     H18613   4.835   0.625  11.620 -1.4165 -2.2905  2.0202
  899MOL0     H18614   4.702   0.552  11.537 -0.9587  1.8997  0.5137
  899MOL0     H18615   4.772   0.659  11.320 -0.0232  0.8070  0.9278
  899MOL0     H18616   4.926   0.705  11.389  0.4277 -1.4213 -2.1240
  899MOL0     H18617   4.644   0.786  11.455  0.1921 -2.8385 -1.2686
  899MOL0     H18618   4.778   0.873  11.531  0.8407  0.1341 -0.9361
  899MOL0     H18619   4.745   1.016  11.354  3.4194 -1.3315  2.6949
  899MOL0     H18620   4.691   0.888  11.242  0.5630  1.2042 -1.3815
  899MOL0     H18621   5.020   1.038  11.383  2.2430 -2.0377  0.6124
  899MOL0     H18622   5.247   1.094  11.241 -0.6015 -2.0372  3.2024
  899MOL0     H18623   5.264   0.997  11.091 -0.6441  0.1492  0.4611
  899MOL0     H18624   5.300   0.862  11.357 -3.4750  1.0704 -0.6766
  899MOL0     H18625   5.410   0.997  11.327 -0.2314  0.3610 -0.0531
  899MOL0     H18626   5.478   0.881  11.111 -3.0965  1.6588 -1.3198
  899MOL0     H18627   5.506   0.785  11.262 -0.6777 -2.3410 -2.0586
  899MOL0     H18628   5.275   0.754  11.067  0.6729 -0.6404 -1.3577
  899MOL0     H18629   5.288   0.666  11.218  1.5040 -0.0688  0.2841
  899MOL0     H18630   5.365   0.829  10.888 -0.8440 -0.3522  0.7919
  899MOL0     H18631   5.475   0.841  10.651  1.3028 -0.6124 -0.9345
  899MOL0     H18632   5.884   0.755  10.368 -0.5570  2.2059  2.3358
  899MOL0     H18633   5.950   0.814  10.123 -0.8329  1.6845 -2.3574
  899MOL0     H18634   5.864   1.074   9.961  1.5197 -0.7410 -1.4862
  899MOL0     H18635   5.689   1.055   9.903  0.2996  1.1262 -0.9074
  899MOL0     H18636   5.951   0.995   9.752 -1.0624 -1.6854 -2.3732
  899MOL0     H18637   5.842   1.133   9.723 -1.2054  1.5062  3.0118
  899MOL0     H18638   5.675   0.975   9.660  1.6490  3.7906  4.0690
  899MOL0     H18639   5.769   0.831   9.689 -0.2822  0.3545  1.6920
  899MOL0     H18640   5.844   1.036   9.478  1.0728  0.2483  1.8644
  899MOL0     H18641   5.949   0.903   9.538  2.3285  3.2589 -2.5712
  899MOL0     H18642   5.675   0.884   9.387  0.5784 -0.5151 -1.2037
  899MOL0     H18643   5.763   0.740   9.434  2.5564 -0.3199 -1.9775
  899MOL0     H18644   5.822   0.766   9.233  2.5436 -0.4205 -0.6960
  899MOL0     H18645   5.966   0.844   9.325  0.1658  1.4862  2.4060
  899MOL0     H18646   5.749   0.963   9.135 -0.2066  2.0728  0.2063
  899MOL0     H18647   5.805   1.056   9.257 -0.5598  1.3015 -1.2536
  899MOL0     H18648   5.917   1.082   9.042 -0.2940  2.0323  0.9699
  899MOL0     H18649   5.983   0.913   9.069  1.9087  1.8968 -1.0824
  899MOL0     H18650   5.531   0.879  10.048 -0.5483 -3.0334  0.0121
  899MOL0     H18651   5.480   0.837  10.263  0.6611 -1.5406 -3.2713
  899MOL0     H18652   5.660   0.461  10.726  0.1553  1.2636 -1.3508
  899MOL0     H18653   5.575   0.462  10.955  0.7653 -0.6315  0.8359
  899MOL0     H18654   5.388   0.411  11.235 -2.3865 -2.3569  3.2901
  899MOL0     H18655   5.599   0.496  11.162 -0.6047 -1.3255 -1.2644
  899MOL0     H18656   6.090   0.261  11.188  0.2271 -1.1074  0.9059
  899MOL0     H18657   6.334   0.257  11.235 -1.4115 -1.2612  0.7916
  899MOL0     H18658   6.578   0.424  11.252  0.3541  1.2529  0.8110
  899MOL0     H18659   6.538   0.280  11.358 -0.7645 -0.3687 -0.5575
  899MOL0     H18660   6.711   0.506  11.455 -0.9940  0.6517 -0.7201
  899MOL0     H18661   6.666   0.361  11.541  1.4291  1.7241  1.7170
  899MOL0     H18662   6.816   0.381  11.274  2.0413 -0.4174  0.1433
  899MOL0     H18663   6.772   0.233  11.350 -1.7698  0.2432 -0.3801
  899MOL0     H18664   6.906   0.304  11.555 -0.4962 -1.6479 -0.1821
  899MOL0     H18665   6.988   0.241  11.410 -2.3606 -1.1166  0.0054
  899MOL0     H18666   7.087   0.662  11.433 -3.2342  1.0041 -0.8908
  899MOL0     H18667   6.297   0.597  11.488  0.8659 -2.8388  2.8770
  899MOL0     H18668   6.042   0.576  11.479 -0.1145  1.0388  0.1615
  900MOL0     O18669   8.871   3.302   9.073  0.2509  0.0224  0.0378
  900MOL0     C18670   8.941   3.399   9.112 -0.0858 -0.4106 -0.3026
  900MOL0     O18671   8.894   3.524   9.138 -0.8000  0.7347 -0.2350
  900MOL0     C18672   8.764   3.560   9.111  1.1861  0.2364 -0.0965
  900MOL0     C18673   8.692   3.516   8.999 -0.0214 -0.0716  0.2803
  900MOL0     C18674   8.558   3.555   8.970  0.1106  0.1810  0.5623
  900MOL0     C18675   8.487   3.634   9.070  0.8815  0.6889  0.9305
  900MOL0     O18676   8.353   3.669   9.041  0.0101  0.9857 -0.8549
  900MOL0     C18677   8.266   3.702   9.153  0.4613 -0.4532  1.2731
  900MOL0     C18678   8.122   3.695   9.097 -0.1340  0.5761 -0.2236
  900MOL0     C18679   8.071   3.556   9.101  0.0512  0.5969  1.2455
  900MOL0     C18680   7.937   3.553   9.024 -0.6709  0.2130  0.6967
  900MOL0     C18681   7.827   3.647   9.080 -0.1954  0.5331  0.0674
  900MOL0     C18682   7.766   3.609   9.215  0.4729  0.3481  0.3420
  900MOL0     C18683   7.637   3.699   9.225 -0.8759  0.6461  0.2578
  900MOL0     C18684   7.650   3.851   9.214 -0.0039 -0.4985 -0.2750
  900MOL0     N18685   7.538   3.917   9.264  0.9616  0.3358  0.3923
  900MOL0     C18686   7.509   3.925   9.397 -0.8981  0.7907 -0.8150
  900MOL0     C18687   7.395   3.999   9.408 -0.5270 -0.0536  0.1073
  900MOL0     C18688   7.330   4.032   9.537  0.4961  0.3640  0.2392
  900MOL0     C18689   7.178   4.044   9.528 -0.1961 -0.0437  0.6042
  900MOL0     C18690   7.112   4.036   9.679 -0.1270  0.3189  0.9739
  900MOL0     C18691   6.961   4.052   9.675 -0.8920  0.8410 -1.4736
  900MOL0     O18692   6.906   3.995   9.799 -0.3841 -0.0722  0.5913
  900MOL0     C18693   6.770   3.988   9.810  0.2460 -0.3880  0.6738
  900MOL0     C18694   6.720   3.947   9.929 -0.7625  0.0975  0.2996
  900MOL0     C18695   6.582   3.946   9.953 -0.3632 -0.3105 -0.7128
  900MOL0     C18696   6.496   3.978   9.849  0.4364  1.1919 -0.4469
  900MOL0     C18697   6.344   3.969   9.870  0.1772  0.3803  0.3654
  900MOL0     O18698   6.292   4.022   9.988 -0.0016  0.8145  0.3525
  900MOL0     C18699   6.160   3.988   9.998 -0.0628  0.6920 -0.3184
  900MOL0     C18700   6.055   4.080   9.990  0.0258  0.9604  0.1662
  900MOL0     C18701   5.925   4.043   9.990  0.0308  0.5876 -0.0998
  900MOL0     C18702   5.889   3.908  10.012  0.3243  0.8141  0.7388
  900MOL0     O18703   5.751   3.883  10.001 -0.2061 -0.0460 -0.7328
  900MOL0     C18704   5.707   3.747  10.021  0.2830 -0.0197 -0.8937
  900MOL0     C18705   5.562   3.736   9.962  0.4831  0.4748  0.0593
  900MOL0     C18706   5.492   3.600   9.993 -1.2457 -0.2000 -0.3041
  900MOL0     C18707   5.418   3.616  10.130 -0.4173  0.8203  0.3044
  900MOL0     C18708   5.371   3.475  10.174 -0.1635  0.3571  0.1477
  900MOL0     C18709   5.276   3.484  10.300  0.7378  0.1736  0.2564
  900MOL0     C18710   5.256   3.353  10.374 -0.1248 -0.1823 -1.1306
  900MOL0     C18711   5.192   3.360  10.507 -0.9196 -0.7349 -0.2060
  900MOL0    Cl18712   5.026   3.441  10.492  0.5162 -0.0198 -0.3346
  900MOL0     C18713   5.991   3.812  10.021  0.0527 -0.2705  0.0044
  900MOL0     C18714   6.128   3.855  10.025 -0.2161  0.1422  0.5965
  900MOL0     O18715   6.284   3.921   9.775 -0.0697  0.1147 -0.0357
  900MOL0     C18716   6.547   4.024   9.727 -0.1897  0.4096  0.5265
  900MOL0     C18717   6.683   4.035   9.708  0.5679  0.4564  0.2047
  900MOL0     N18718   7.353   4.036   9.282 -0.5478  0.7649  0.1059
  900MOL0     N18719   7.439   3.979   9.202 -0.3892  0.1916  0.0829
  900MOL0     C18720   8.557   3.665   9.191 -0.6090 -0.1825  0.1237
  900MOL0     C18721   8.698   3.632   9.207  0.0440 -0.1607 -0.8124
  900MOL0     C18722   9.091   3.380   9.120  0.8137  0.2079  0.4519
  900MOL0     C18723   9.156   3.261   9.101 -0.1480 -0.3022  0.2639
  900MOL0     C18724   9.289   3.247   9.070 -0.0518 -0.3126  0.4421
  900MOL0     C18725   9.376   3.362   9.083 -0.1261  0.0997 -1.6496
  900MOL0     O18726   9.512   3.357   9.057  0.0711  0.4133  0.1294
  900MOL0     C18727   9.565   3.252   8.964  0.2251 -0.3780 -0.8755
  900MOL0     C18728   9.723   3.253   8.962 -0.6441  0.8861  0.0897
  900MOL0     C18729   9.777   3.368   8.875  0.1177 -0.5515 -0.0707
  900MOL0     C18730   9.905   3.442   8.928  0.2350  0.4030 -0.4264
  900MOL0     C18731  10.020   3.355   8.936 -0.0081 -0.8664 -0.0941
  900MOL0     C18732  10.129   3.294   8.934 -0.1546  0.9530 -0.2308
  900MOL0     C18733   9.312   3.485   9.118 -0.3021 -0.1838 -0.4015
  900MOL0     C18734   9.176   3.493   9.132  0.8043 -0.0787  0.1603
  900MOL0     H18735   8.740   3.443   8.933  0.0102 -0.8552  1.1505
  900MOL0     H18736   8.503   3.540   8.878 -0.6608  1.0163  0.8730
  900MOL0     H18737   8.289   3.800   9.198 -0.3850 -0.5670  1.9838
  900MOL0     H18738   8.271   3.624   9.229  1.3176 -1.7180 -0.0421
  900MOL0     H18739   8.130   3.738   8.996  0.8862 -1.7563 -1.2194
  900MOL0     H18740   8.062   3.750   9.170 -1.6896 -1.5473  0.1932
  900MOL0     H18741   8.041   3.523   9.201 -1.4175 -1.1380  0.2958
  900MOL0     H18742   8.132   3.479   9.054 -2.3619  0.1255 -1.4063
  900MOL0     H18743   7.965   3.569   8.920  1.1011 -0.1884  1.0685
  900MOL0     H18744   7.895   3.452   9.028 -0.3681 -0.0869 -1.8677
  900MOL0     H18745   7.749   3.656   9.004  4.1867  2.1494 -4.8400
  900MOL0     H18746   7.870   3.747   9.092 -1.2811  0.7294  3.1779
  900MOL0     H18747   7.832   3.610   9.302 -0.0154 -0.8600  0.7404
  900MOL0     H18748   7.735   3.505   9.201 -0.1290  0.3455  1.5930
  900MOL0     H18749   7.567   3.672   9.146 -2.8898  1.0551  1.8105
  900MOL0     H18750   7.597   3.682   9.326  1.1437 -2.7814  0.6181
  900MOL0     H18751   7.665   3.883   9.110  4.1125  1.5898  0.7680
  900MOL0     H18752   7.730   3.899   9.271  0.4170  1.8707 -2.6897
  900MOL0     H18753   7.564   3.887   9.483 -0.8397  3.5102  0.4509
  900MOL0     H18754   7.371   4.124   9.581  0.2603  0.0290  1.1869
  900MOL0     H18755   7.338   3.940   9.595 -1.9072 -2.7425 -3.8447
  900MOL0     H18756   7.139   3.962   9.468 -0.2497  0.1392  0.3883
  900MOL0     H18757   7.149   4.137   9.480  0.3588  0.8360  1.9017
  900MOL0     H18758   7.128   3.935   9.718  0.5154  0.1726  0.3564
  900MOL0     H18759   7.172   4.106   9.738  1.0336 -1.6882  2.2681
  900MOL0     H18760   6.924   4.001   9.586 -0.7409  0.5132 -1.3509
  900MOL0     H18761   6.938   4.159   9.675 -3.0268  0.4414 -0.2038
  900MOL0     H18762   6.790   3.916  10.005 -0.6722 -1.8021 -0.4903
  900MOL0     H18763   6.560   3.914  10.054  2.1270 -2.1243 -0.6342
  900MOL0     H18764   6.072   4.188   9.989 -3.8267  1.7137  0.7764
  900MOL0     H18765   5.851   4.122   9.985  0.1594  0.8584  1.6090
  900MOL0     H18766   5.695   3.711  10.123 -2.9729  1.7798 -0.4722
  900MOL0     H18767   5.776   3.680   9.970  0.8996  1.8466 -2.6540
  900MOL0     H18768   5.576   3.753   9.855  2.3931  1.1095  0.3840
  900MOL0     H18769   5.493   3.819   9.982 -1.8563 -1.3752  0.2276
  900MOL0     H18770   5.559   3.514  10.000 -3.7458 -2.1507  1.3506
  900MOL0     H18771   5.419   3.580   9.914  0.5234  0.8066 -2.2904
  900MOL0     H18772   5.489   3.655  10.203  0.4434 -1.6271  0.8792
  900MOL0     H18773   5.328   3.677  10.118 -1.0630 -0.3146 -0.9251
  900MOL0     H18774   5.465   3.429  10.205 -0.1068 -0.2317 -0.8673
  900MOL0     H18775   5.318   3.419  10.096 -0.5384  2.1716 -0.9554
  900MOL0     H18776   5.177   3.522  10.274  0.4336 -1.9915 -2.2229
  900MOL0     H18777   5.319   3.548  10.378 -3.1181 -1.1052  3.7275
  900MOL0     H18778   5.222   3.273  10.307 -0.1776 -0.3961 -0.8464
  900MOL0     H18779   5.359   3.319  10.388 -0.0502 -0.5084 -2.3180
  900MOL0     H18780   5.249   3.422  10.578 -2.1637 -1.5709  1.6075
  900MOL0     H18781   5.179   3.263  10.555 -3.3397 -0.2939  0.2017
  900MOL0     H18782   5.981   3.704  10.010 -2.3307  0.1018 -2.5224
  900MOL0     H18783   6.209   3.787  10.050 -0.7960 -0.5764  0.5487
  900MOL0     H18784   6.479   4.062   9.651 -0.9595  1.1989  1.5718
  900MOL0     H18785   6.715   4.089   9.620  2.0673 -1.5064 -0.5094
  900MOL0     H18786   8.506   3.707   9.277 -1.6477 -0.2687 -0.4350
  900MOL0     H18787   8.758   3.652   9.294  1.1663  0.6013 -1.7289
  900MOL0     H18788   9.098   3.171   9.086 -2.3777  0.3418  3.7996
  900MOL0     H18789   9.317   3.146   9.043  1.5054 -0.7765  3.3610
  900MOL0     H18790   9.523   3.283   8.868 -1.6986  0.9841  0.3249
  900MOL0     H18791   9.525   3.153   8.986  0.8050 -0.3631  0.2837
  900MOL0     H18792   9.747   3.269   9.067 -2.1107  1.3375  0.3749
  900MOL0     H18793   9.765   3.157   8.930 -0.6121 -0.5102  3.8310
  900MOL0     H18794   9.697   3.441   8.861  2.5507  2.3968  0.3159
  900MOL0     H18795   9.795   3.329   8.774 -1.7293 -0.0210 -0.6265
  900MOL0     H18796   9.941   3.519   8.859  1.9476  1.2521  1.3286
  900MOL0     H18797   9.887   3.484   9.027  4.2635 -0.8867  1.0461
  900MOL0     H18798  10.229   3.257   8.932 -0.0273  0.7143  3.5137
  900MOL0     H18799   9.367   3.577   9.136  1.3113 -1.4674  1.8429
  900MOL0     H18800   9.135   3.591   9.154  0.5880  0.1232 -1.0692
  901MOL0     O18801   7.206   4.678   5.448 -0.7072 -0.2362 -0.9378
  901MOL0     C18802   7.255   4.597   5.369  0.8692  0.4252 -0.0417
  901MOL0     O18803   7.355   4.508   5.396 -0.2665  0.1513  0.6238
  901MOL0     C18804   7.442   4.509   5.497 -1.1340  0.3861 -0.2846
  901MOL0     C18805   7.517   4.397   5.540 -0.0802  0.3002  0.8524
  901MOL0     C18806   7.608   4.399   5.646 -0.0972 -0.2419 -0.1349
  901MOL0     C18807   7.627   4.520   5.716 -0.7759  0.0227  0.8691
  901MOL0     O18808   7.718   4.528   5.816  0.2688  0.0386 -0.3939
  901MOL0     C18809   7.774   4.418   5.882  0.4500 -0.1474 -0.3212
  901MOL0     C18810   7.764   4.455   6.033 -0.3759  1.2376  0.9326
  901MOL0     C18811   7.861   4.564   6.076 -0.8465  0.5178 -0.2063
  901MOL0     C18812   7.861   4.583   6.229  0.0058 -0.2848  0.5123
  901MOL0     C18813   7.957   4.679   6.285  0.2441 -0.1402  0.3486
  901MOL0     C18814   7.963   4.656   6.441 -0.6419 -0.1539 -0.1498
  901MOL0     C18815   8.051   4.755   6.520  0.1601  0.6509  0.2617
  901MOL0     C18816   8.199   4.731   6.508 -0.1776 -0.3196  0.1512
  901MOL0     N18817   8.280   4.835   6.571 -0.6572 -0.0635  0.1493
  901MOL0     C18818   8.288   4.959   6.530  0.3742 -0.2688 -0.3254
  901MOL0     C18819   8.405   4.990   6.582 -0.7061 -0.2320 -0.4807
  901MOL0     C18820   8.467   5.132   6.559  0.1111 -0.0288  0.4157
  901MOL0     C18821   8.458   5.209   6.429  0.1027  0.1725  0.3660
  901MOL0     C18822   8.554   5.164   6.315  0.2262 -0.2359 -0.5868
  901MOL0     C18823   8.517   5.025   6.259  0.0885  0.1971  0.0762
  901MOL0     O18824   8.410   5.035   6.162 -0.2170 -0.0270 -0.2822
  901MOL0     C18825   8.437   5.055   6.032  0.0236  0.4011  1.0928
  901MOL0     C18826   8.564   5.077   5.970  0.5957 -0.0914  0.0769
  901MOL0     C18827   8.573   5.091   5.831 -0.5682  0.8533  0.1869
  901MOL0     C18828   8.468   5.079   5.746  0.5382 -0.3461 -0.6042
  901MOL0     C18829   8.477   5.116   5.602  0.1895  0.2851 -0.5240
  901MOL0     O18830   8.600   5.124   5.539 -0.3208  0.3199  0.5897
  901MOL0     C18831   8.606   5.117   5.400  0.3737 -0.2271  0.0113
  901MOL0     C18832   8.505   5.052   5.314 -0.2043 -0.6362  0.0840
  901MOL0     C18833   8.521   5.052   5.178 -0.2240 -0.0599  0.0013
  901MOL0     C18834   8.631   5.120   5.121 -0.2742  1.0152 -0.7380
  901MOL0     O18835   8.641   5.118   4.988 -0.1067 -0.0858  0.0829
  901MOL0     C18836   8.654   5.239   4.904  1.0573  0.0058 -0.0169
  901MOL0     C18837   8.638   5.183   4.763  0.2850  0.4023  0.1911
  901MOL0     C18838   8.495   5.160   4.718 -0.2840 -0.3843 -0.0957
  901MOL0     C18839   8.493   5.074   4.589 -0.2142 -0.3389 -0.4736
  901MOL0     C18840   8.359   5.011   4.570 -0.0225  0.0400 -0.0680
  901MOL0     C18841   8.333   4.953   4.432 -0.7332 -0.1176  0.7907
  901MOL0     C18842   8.186   4.929   4.409  0.7858 -0.4304 -0.1140
  901MOL0     C18843   8.177   4.869   4.269  0.2348 -0.0298 -0.0825
  901MOL0    Cl18844   8.001   4.914   4.211  0.3255  0.1595 -0.0679
  901MOL0     C18845   8.728   5.182   5.199  0.4692  0.2536 -0.4043
  901MOL0     C18846   8.713   5.185   5.341 -0.3902 -0.1303  0.4246
  901MOL0     O18847   8.368   5.150   5.548 -0.8959  0.1066 -0.1923
  901MOL0     C18848   8.337   5.055   5.796 -0.3772  0.2096 -0.4129
  901MOL0     C18849   8.325   5.046   5.940 -0.2016  0.1021  0.2724
  901MOL0     N18850   8.458   4.889   6.660 -1.1438 -0.0746 -0.6810
  901MOL0     N18851   8.369   4.801   6.664 -0.1832 -0.2861  0.1731
  901MOL0     C18852   7.560   4.633   5.674  0.5251  0.6341  0.5531
  901MOL0     C18853   7.465   4.631   5.565  0.3354 -0.7326 -1.1608
  901MOL0     C18854   7.170   4.594   5.238 -0.4743 -0.1062  0.3007
  901MOL0     C18855   7.189   4.488   5.147 -0.2209 -1.0407 -0.1172
  901MOL0     C18856   7.120   4.486   5.021  0.5556 -0.8703  0.0450
  901MOL0     C18857   7.021   4.589   4.992  0.9852  0.6476 -0.0767
  901MOL0     O18858   6.938   4.556   4.880 -0.9527  0.4022  0.5451
  901MOL0     C18859   6.835   4.650   4.854  0.1597  0.2229  0.4512
  901MOL0     C18860   6.779   4.623   4.715  0.4131  0.2396 -0.4956
  901MOL0     C18861   6.694   4.492   4.718  0.1586 -0.0847  0.7093
  901MOL0     C18862   6.621   4.464   4.588  0.6426  0.2178 -0.0138
  901MOL0     C18863   6.533   4.570   4.538 -0.5722 -1.0901  0.9998
  901MOL0     C18864   6.490   4.682   4.508  0.4769  0.0271  0.8904
  901MOL0     C18865   6.995   4.687   5.093  0.2383 -0.3459  0.7110
  901MOL0     C18866   7.065   4.689   5.210  0.5111 -0.4840  0.5654
  901MOL0     H18867   7.516   4.300   5.491 -0.5484  1.5978 -1.9036
  901MOL0     H18868   7.669   4.317   5.683 -1.4573 -0.8199  0.9059
  901MOL0     H18869   7.879   4.406   5.853  1.6206  3.0434  2.0281
  901MOL0     H18870   7.723   4.322   5.868  2.2874 -0.9511 -2.1341
  901MOL0     H18871   7.789   4.360   6.081  2.5792  1.6191  0.3153
  901MOL0     H18872   7.658   4.478   6.048 -1.8043 -3.6813  0.2171
  901MOL0     H18873   7.840   4.655   6.019  0.0747  0.6837 -0.3066
  901MOL0     H18874   7.960   4.528   6.045 -1.9698 -0.6775 -2.5667
  901MOL0     H18875   7.764   4.624   6.259  0.2291 -0.0184  0.8820
  901MOL0     H18876   7.873   4.483   6.271  0.7354 -0.9508 -1.2057
  901MOL0     H18877   7.937   4.781   6.252 -0.7680 -0.5676 -0.3946
  901MOL0     H18878   8.057   4.643   6.261 -0.6482 -2.9224  0.4442
  901MOL0     H18879   7.993   4.552   6.453 -0.5444 -0.3254 -1.6776
  901MOL0     H18880   7.864   4.659   6.487 -1.4486 -3.1371 -1.4727
  901MOL0     H18881   8.037   4.860   6.493  2.1307  0.6631 -0.9661
  901MOL0     H18882   8.030   4.743   6.626  2.5902  2.2661  1.0070
  901MOL0     H18883   8.230   4.739   6.403  1.7085  0.9418  0.7505
  901MOL0     H18884   8.231   4.630   6.533  2.0874  0.2674 -0.0837
  901MOL0     H18885   8.219   5.015   6.468  1.5890  0.8065 -0.7470
  901MOL0     H18886   8.570   5.130   6.595  0.9644 -2.0794 -1.8649
  901MOL0     H18887   8.415   5.195   6.632  1.9844  1.7295  0.3066
  901MOL0     H18888   8.485   5.313   6.450 -0.5270  0.1606  1.3118
  901MOL0     H18889   8.355   5.212   6.393 -0.0419  0.0615  0.7594
  901MOL0     H18890   8.548   5.242   6.239 -1.6922  1.4565  1.1941
  901MOL0     H18891   8.658   5.174   6.350 -0.2100  2.2778  0.1862
  901MOL0     H18892   8.482   4.962   6.341  1.8593  1.3897  1.8293
  901MOL0     H18893   8.597   4.978   6.200  0.7518  2.0378 -0.5750
  901MOL0     H18894   8.659   5.094   6.019  0.9699  2.2399 -1.3006
  901MOL0     H18895   8.670   5.114   5.788  0.0969 -0.7758  0.7169
  901MOL0     H18896   8.421   5.006   5.363 -0.2463  1.6181  2.3333
  901MOL0     H18897   8.446   4.996   5.124  0.3077 -0.2382 -0.5649
  901MOL0     H18898   8.753   5.281   4.923  1.7635 -0.0675 -2.9646
  901MOL0     H18899   8.583   5.322   4.910 -1.3016 -1.7044 -1.8924
  901MOL0     H18900   8.678   5.083   4.743 -0.7740  0.2505 -1.2735
  901MOL0     H18901   8.688   5.252   4.696 -1.0152  1.1745 -0.0217
  901MOL0     H18902   8.449   5.258   4.702 -2.3699 -1.4040 -0.7253
  901MOL0     H18903   8.433   5.108   4.792  1.5555 -1.3728  0.8071
  901MOL0     H18904   8.501   5.142   4.503 -3.1434  0.2084 -0.4304
  901MOL0     H18905   8.570   4.997   4.587 -0.6935 -0.8165 -1.8915
  901MOL0     H18906   8.283   5.087   4.590  0.8299  0.6715  0.9042
  901MOL0     H18907   8.346   4.939   4.650  1.2314  0.4569  0.5415
  901MOL0     H18908   8.387   4.860   4.413  0.1360  0.1850  1.7262
  901MOL0     H18909   8.371   5.029   4.362 -1.0766 -1.4639 -0.9360
  901MOL0     H18910   8.150   4.853   4.479 -0.3801  0.1593 -0.0394
  901MOL0     H18911   8.125   5.020   4.420  0.0637 -0.6941 -1.6631
  901MOL0     H18912   8.185   4.761   4.261 -3.6187 -0.4369 -0.3971
  901MOL0     H18913   8.255   4.917   4.209 -0.1890 -0.3209 -0.8794
  901MOL0     H18914   8.821   5.222   5.158  0.2443  1.3273  0.0865
  901MOL0     H18915   8.782   5.243   5.402  1.8525 -0.0301 -2.0232
  901MOL0     H18916   8.247   5.057   5.736 -1.1732  1.4184  0.7714
  901MOL0     H18917   8.229   5.022   5.984  1.5577 -2.9907  2.8220
  901MOL0     H18918   7.585   4.720   5.734  0.0035  0.4610  1.0255
  901MOL0     H18919   7.412   4.719   5.530 -1.1660 -1.3162 -0.4584
  901MOL0     H18920   7.261   4.410   5.167  0.4137 -0.3009  0.5799
  901MOL0     H18921   7.145   4.416   4.942  1.2614  0.7090 -1.1936
  901MOL0     H18922   6.878   4.750   4.849  1.5743 -0.2302  2.3810
  901MOL0     H18923   6.758   4.654   4.932 -0.6615 -0.2684 -0.3056
  901MOL0     H18924   6.712   4.706   4.691  1.4323  0.9429 -0.9867
  901MOL0     H18925   6.852   4.604   4.635  3.2387  3.3691  1.0780
  901MOL0     H18926   6.618   4.503   4.795  2.6950  0.7479  3.2911
  901MOL0     H18927   6.757   4.406   4.744 -0.9134 -1.7382 -1.8117
  901MOL0     H18928   6.695   4.434   4.513  3.3735 -0.1381  2.5912
  901MOL0     H18929   6.561   4.376   4.609  1.5908 -1.0362 -2.2057
  901MOL0     H18930   6.461   4.782   4.484  0.3650 -0.6045 -1.9042
  901MOL0     H18931   6.935   4.775   5.073  0.2725 -0.9357 -2.3881
  901MOL0     H18932   7.059   4.770   5.282  2.6719 -1.5792  2.0947
  902MOL0     O18933   6.577   8.086   7.500  0.3886 -0.5261  1.1266
  902MOL0     C18934   6.667   8.136   7.564 -0.6859  0.5235  0.0981
  902MOL0     O18935   6.681   8.121   7.691 -1.4518  0.2192 -0.3070
  902MOL0     C18936   6.586   8.063   7.771  0.4767  0.8799 -0.2906
  902MOL0     C18937   6.626   7.989   7.873 -0.1306 -0.1922  0.0212
  902MOL0     C18938   6.544   7.946   7.977 -0.6661  0.4857  1.4433
  902MOL0     C18939   6.408   7.966   7.969 -0.0979 -0.5098 -0.6943
  902MOL0     O18940   6.327   7.910   8.065 -0.0084  0.1464 -0.2289
  902MOL0     C18941   6.191   7.873   8.033  0.3827 -0.4331 -0.4415
  902MOL0     C18942   6.095   7.992   8.075 -0.2541  0.0434 -0.0546
  902MOL0     C18943   5.948   7.964   8.050  0.5622 -1.0473  1.1271
  902MOL0     C18944   5.903   7.958   7.906 -0.0166 -1.1298  0.1394
  902MOL0     C18945   5.753   7.987   7.904  0.6830 -0.4228  0.9022
  902MOL0     C18946   5.670   7.860   7.945  0.3911 -0.2660  0.0977
  902MOL0     C18947   5.520   7.893   7.961 -0.0917 -0.1062  0.3953
  902MOL0     C18948   5.453   7.766   8.012  0.2577 -0.1623 -0.4776
  902MOL0     N18949   5.360   7.776   8.117 -0.6298  0.5226 -0.4568
  902MOL0     C18950   5.237   7.831   8.114  0.6593 -0.8212 -0.3410
  902MOL0     C18951   5.176   7.800   8.226 -0.9623 -0.7811  0.0331
  902MOL0     C18952   5.057   7.863   8.273 -0.0537  0.6353 -0.0038
  902MOL0     C18953   4.929   7.793   8.222  0.2072  0.8064  0.5568
  902MOL0     C18954   4.895   7.650   8.283 -0.1424  0.0077  0.0450
  902MOL0     C18955   4.871   7.663   8.437 -0.2028  0.0643  0.3564
  902MOL0     O18956   4.756   7.742   8.469 -0.3975 -0.7167  0.2382
  902MOL0     C18957   4.632   7.694   8.425 -0.2304  0.7360  1.2640
  902MOL0     C18958   4.591   7.563   8.424  0.0097 -0.3334  1.0365
  902MOL0     C18959   4.457   7.523   8.394 -0.2534 -0.4134 -0.0357
  902MOL0     C18960   4.355   7.618   8.373 -0.2890 -0.2164  1.7313
  902MOL0     C18961   4.217   7.571   8.351  0.8149  0.0406 -0.1103
  902MOL0     O18962   4.112   7.667   8.352  0.5193  0.1801  0.1014
  902MOL0     C18963   3.979   7.628   8.339  0.2285 -0.1524  0.5801
  902MOL0     C18964   3.940   7.542   8.238  0.1518  0.2545  0.1727
  902MOL0     C18965   3.800   7.504   8.225  1.1972 -0.2122 -0.2742
  902MOL0     C18966   3.700   7.564   8.306 -0.2422 -0.6550 -0.1421
  902MOL0     O18967   3.561   7.547   8.294 -0.4396 -0.3567 -0.5638
  902MOL0     C18968   3.514   7.493   8.174 -0.1108 -0.1074  0.3751
  902MOL0     C18969   3.362   7.485   8.197 -0.3797  1.2744 -0.9797
  902MOL0     C18970   3.284   7.456   8.068 -0.3031 -0.5685  0.2220
  902MOL0     C18971   3.140   7.473   8.099 -0.6568 -0.7097  0.4662
  902MOL0     C18972   3.044   7.446   7.986  0.1036  0.3490  0.8293
  902MOL0     C18973   2.897   7.466   8.020 -0.4676 -0.1089 -0.9595
  902MOL0     C18974   2.800   7.430   7.903 -0.5281 -1.0964 -0.2787
  902MOL0     C18975   2.650   7.452   7.942  0.6797  0.8661 -0.7321
  902MOL0    Cl18976   2.541   7.443   7.794 -0.0640 -0.3848 -0.2283
  902MOL0     C18977   3.747   7.653   8.403  1.3555 -0.3580  0.0266
  902MOL0     C18978   3.882   7.669   8.427 -0.6927  0.2496 -0.5307
  902MOL0     O18979   4.204   7.452   8.344  0.1515  0.6690  0.1543
  902MOL0     C18980   4.394   7.754   8.374 -0.8368 -0.3174 -0.5817
  902MOL0     C18981   4.527   7.788   8.399  0.1256  0.7096 -0.7648
  902MOL0     N18982   5.266   7.710   8.299  0.1682 -0.0565  0.7188
  902MOL0     N18983   5.375   7.704   8.234 -0.3971 -0.8279 -0.2913
  902MOL0     C18984   6.363   8.022   7.854 -0.1242 -0.9350  1.0161
  902MOL0     C18985   6.445   8.075   7.755  0.5590 -0.2627  0.0944
  902MOL0     C18986   6.787   8.193   7.502  0.7547 -0.0745  0.7107
  902MOL0     C18987   6.885   8.265   7.583 -0.2689  0.1868  0.5959
  902MOL0     C18988   7.010   8.294   7.537 -0.2143 -0.3343 -0.9061
  902MOL0     C18989   7.043   8.264   7.404 -0.2492  0.1523  0.5445
  902MOL0     O18990   7.167   8.293   7.348 -0.2997 -0.6114  0.6098
  902MOL0     C18991   7.198   8.425   7.297 -0.0165  0.2020 -0.7850
  902MOL0     C18992   7.196   8.526   7.413 -0.0058  0.4585  0.6595
  902MOL0     C18993   7.269   8.649   7.364  0.1014 -0.3262  0.1390
  902MOL0     C18994   7.269   8.764   7.476  0.3322  0.3079 -0.5892
  902MOL0     C18995   7.392   8.747   7.560  0.0303  0.8696  1.5816
  902MOL0     C18996   7.494   8.732   7.625 -0.3597  0.1479  0.0394
  902MOL0     C18997   6.945   8.200   7.319 -1.0373 -0.6756 -0.0294
  902MOL0     C18998   6.819   8.167   7.365  0.5404 -0.1338  0.3977
  902MOL0     H18999   6.727   7.965   7.902  0.1235  1.2195  0.3827
  902MOL0     H19000   6.584   7.881   8.054 -2.2235 -2.3953 -0.0063
  902MOL0     H19001   6.158   7.787   8.092  2.3772 -0.4388  0.7654
  902MOL0     H19002   6.173   7.846   7.929 -2.2819 -1.2146  0.1378
  902MOL0     H19003   6.119   8.077   8.011  0.6804 -1.5690 -1.9458
  902MOL0     H19004   6.110   8.024   8.178 -2.1551  1.0249 -0.0377
  902MOL0     H19005   5.899   8.040   8.111  1.4789  1.9434 -1.5738
  902MOL0     H19006   5.932   7.863   8.089  2.0353 -1.3672  0.9451
  902MOL0     H19007   5.956   8.037   7.852  0.0287 -1.0693  0.2704
  902MOL0     H19008   5.911   7.859   7.863 -2.3639 -1.0549 -0.6278
  902MOL0     H19009   5.726   8.016   7.802 -4.2015 -0.6906  1.8484
  902MOL0     H19010   5.729   8.077   7.962  1.0019 -1.9031  3.4436
  902MOL0     H19011   5.697   7.824   8.045  0.6933 -1.6148 -0.4450
  902MOL0     H19012   5.693   7.779   7.875 -1.6545 -0.3558 -0.5279
  902MOL0     H19013   5.502   7.966   8.041 -1.7337  0.9708 -0.8846
  902MOL0     H19014   5.482   7.930   7.865  1.2807  0.0963 -0.0823
  902MOL0     H19015   5.529   7.694   8.044  0.1898  0.4944  1.3043
  902MOL0     H19016   5.398   7.730   7.925  0.5364  2.3826 -1.7867
  902MOL0     H19017   5.193   7.896   8.039 -1.2923 -0.1447  1.2824
  902MOL0     H19018   5.048   7.968   8.246  1.7034  0.9795  0.6428
  902MOL0     H19019   5.058   7.863   8.383 -0.3698 -1.4044  0.0394
  902MOL0     H19020   4.933   7.792   8.113  2.7201 -0.2207  0.5861
  902MOL0     H19021   4.842   7.852   8.249 -1.5228 -1.8075  1.1359
  902MOL0     H19022   4.803   7.616   8.235  0.1153 -2.7398  1.2974
  902MOL0     H19023   4.974   7.576   8.265 -1.6396 -1.2164 -1.9274
  902MOL0     H19024   4.963   7.704   8.478  1.0345  1.1703 -3.1257
  902MOL0     H19025   4.873   7.559   8.471  2.8388 -1.0452 -2.6086
  902MOL0     H19026   4.667   7.494   8.462 -0.3437 -0.9970  0.5576
  902MOL0     H19027   4.435   7.416   8.388  1.8657 -1.3479  4.4351
  902MOL0     H19028   4.001   7.514   8.153 -2.7239 -2.5519 -1.2142
  902MOL0     H19029   3.779   7.426   8.152  0.5666 -0.6352  0.3510
  902MOL0     H19030   3.555   7.393   8.164  2.4892  0.8321  0.8340
  902MOL0     H19031   3.535   7.564   8.093 -3.6299  2.4110  1.4096
  902MOL0     H19032   3.320   7.566   8.257  2.3533  0.0200  3.0950
  902MOL0     H19033   3.354   7.401   8.267  2.1145  2.6934  1.2008
  902MOL0     H19034   3.301   7.352   8.041  1.9208 -0.7257  1.8946
  902MOL0     H19035   3.305   7.519   7.980 -0.4015  0.4652  0.9150
  902MOL0     H19036   3.120   7.408   8.184  1.3763  2.4209  3.6042
  902MOL0     H19037   3.119   7.575   8.132  3.1777  0.1589  0.6795
  902MOL0     H19038   3.050   7.340   7.958  3.2045 -0.4944  4.0219
  902MOL0     H19039   3.062   7.507   7.897 -2.3505  0.2019  0.1595
  902MOL0     H19040   2.891   7.574   8.039 -0.7151  0.0221 -1.7377
  902MOL0     H19041   2.875   7.394   8.100  1.9213  0.4286  0.2847
  902MOL0     H19042   2.830   7.503   7.827  1.3441  2.4612  3.4561
  902MOL0     H19043   2.811   7.325   7.877 -0.7474 -1.2457  0.2282
  902MOL0     H19044   2.645   7.553   7.983  0.4522  0.5011  0.1613
  902MOL0     H19045   2.616   7.382   8.019  1.2325  1.5619  0.1614
  902MOL0     H19046   3.674   7.704   8.465  1.4500  0.5853 -0.6167
  902MOL0     H19047   3.911   7.714   8.521 -1.3619  0.6191 -0.4957
  902MOL0     H19048   4.316   7.829   8.375  0.6816  1.3168 -0.4694
  902MOL0     H19049   4.549   7.890   8.428 -0.6859  0.0808  2.4818
  902MOL0     H19050   6.257   8.041   7.836  0.0527  1.8877  2.3721
  902MOL0     H19051   6.409   8.118   7.662 -1.1431 -0.1850  0.7489
  902MOL0     H19052   6.856   8.283   7.687  0.8884 -2.9953  1.5780
  902MOL0     H19053   7.074   8.346   7.607  0.5468 -0.0547 -1.7939
  902MOL0     H19054   7.119   8.441   7.223  0.3251 -5.1262 -2.7505
  902MOL0     H19055   7.293   8.431   7.243  0.4711  0.2710  0.0572
  902MOL0     H19056   7.092   8.547   7.440 -0.3976  0.9164 -1.1024
  902MOL0     H19057   7.250   8.468   7.489  2.3533  0.8689 -0.5997
  902MOL0     H19058   7.209   8.687   7.281 -0.4134 -2.2550 -0.4224
  902MOL0     H19059   7.373   8.623   7.340 -0.3162 -1.1741 -0.8317
  902MOL0     H19060   7.274   8.859   7.421 -1.9669  0.0084 -1.4341
  902MOL0     H19061   7.176   8.762   7.533  1.6745 -0.4063  1.6932
  902MOL0     H19062   7.579   8.727   7.691  1.6427  0.8422 -2.3229
  902MOL0     H19063   6.975   8.193   7.214  0.3681  0.5571  0.2569
  902MOL0     H19064   6.745   8.112   7.309 -0.5810  1.1777  0.5432
  903MOL0     O19065   6.074   1.861  10.288 -0.0169  0.1403 -0.7497
  903MOL0     C19066   6.036   1.818  10.176 -0.6145  0.4593 -0.7045
  903MOL0     O19067   6.065   1.688  10.137 -0.7999 -0.3515  0.2450
  903MOL0     C19068   6.204   1.648  10.134  0.3532 -0.3223 -0.5695
  903MOL0     C19069   6.313   1.712  10.183  0.3581 -0.0919  0.6942
  903MOL0     C19070   6.433   1.650  10.184 -0.9297  0.0668  0.1615
  903MOL0     C19071   6.457   1.526  10.127 -0.6524 -0.0781 -0.0342
  903MOL0     O19072   6.589   1.477  10.138  0.3975  0.0192 -0.4971
  903MOL0     C19073   6.628   1.371  10.053  0.0634  0.9273 -0.5598
  903MOL0     C19074   6.779   1.355  10.075 -0.0491  0.1923 -0.5300
  903MOL0     C19075   6.862   1.485  10.049  0.0980 -0.1288 -0.6352
  903MOL0     C19076   7.006   1.467  10.003 -1.0920  0.0532 -0.6706
  903MOL0     C19077   7.110   1.448  10.114  0.3722  0.0735  0.6261
  903MOL0     C19078   7.253   1.409  10.054 -0.0430  0.5023 -0.1059
  903MOL0     C19079   7.345   1.357  10.171 -0.2228 -0.0664 -0.3484
  903MOL0     C19080   7.484   1.328  10.123 -0.0131  0.5048  0.6706
  903MOL0     N19081   7.474   1.252  10.003 -0.4439 -0.0888 -0.3253
  903MOL0     C19082   7.448   1.116   9.999  0.4895  0.4679 -0.1287
  903MOL0     C19083   7.424   1.096   9.870 -1.1257  0.1902  0.0668
  903MOL0     C19084   7.389   0.963   9.811 -0.2536  0.4443  0.1426
  903MOL0     C19085   7.239   0.960   9.799 -0.5480  0.7294  0.2491
  903MOL0     C19086   7.188   0.820   9.753 -0.4289 -0.2136 -0.3178
  903MOL0     C19087   7.040   0.798   9.793 -0.4124 -1.2187 -0.0289
  903MOL0     O19088   6.991   0.675   9.744  0.1721  0.4923 -0.0889
  903MOL0     C19089   6.865   0.641   9.779  0.4030  0.3445 -0.1845
  903MOL0     C19090   6.774   0.730   9.843 -0.4915 -0.7085 -0.6073
  903MOL0     C19091   6.637   0.694   9.870  0.1316  1.1506 -0.6540
  903MOL0     C19092   6.588   0.573   9.829  0.3842 -0.6756  0.1263
  903MOL0     C19093   6.450   0.523   9.858 -0.1086  0.0199  0.3582
  903MOL0     O19094   6.363   0.603   9.919 -0.6981  0.1998  0.0093
  903MOL0     C19095   6.254   0.548   9.964  0.6836  0.1622 -0.0416
  903MOL0     C19096   6.245   0.446  10.056 -0.5233  0.6042  0.0646
  903MOL0     C19097   6.120   0.390  10.089 -0.6131 -0.3506 -0.0810
  903MOL0     C19098   5.996   0.446  10.055 -0.9931  1.0363 -0.0674
  903MOL0     O19099   5.889   0.387  10.099  0.5470  0.0435 -0.0351
  903MOL0     C19100   5.767   0.467  10.090  0.8778 -0.0063  1.2207
  903MOL0     C19101   5.641   0.388  10.143 -0.6701  0.3518  0.0266
  903MOL0     C19102   5.525   0.484  10.142  0.3692 -0.3326  1.0646
  903MOL0     C19103   5.392   0.420  10.181 -0.5719  0.6354  0.0018
  903MOL0     C19104   5.280   0.522  10.216  0.1514  0.5132 -0.4253
  903MOL0     C19105   5.249   0.632  10.121  0.8199  1.2699  0.1123
  903MOL0     C19106   5.230   0.587   9.970 -0.5086  0.4500 -0.2332
  903MOL0     C19107   5.229   0.706   9.879  0.5674  0.5911 -0.4393
  903MOL0    Cl19108   5.375   0.804   9.871  0.2875 -0.0432 -0.2289
  903MOL0     C19109   6.005   0.566   9.971  1.2718 -0.2326  0.7502
  903MOL0     C19110   6.128   0.609   9.926  0.6994 -0.6124 -0.9677
  903MOL0     O19111   6.427   0.403   9.829 -0.1500 -1.2985 -0.4680
  903MOL0     C19112   6.688   0.486   9.771  0.7009  0.7834  1.1745
  903MOL0     C19113   6.822   0.515   9.746  0.0906  0.6717 -0.5264
  903MOL0     N19114   7.445   1.211   9.797 -1.0218  0.5156 -0.6756
  903MOL0     N19115   7.480   1.305   9.876  1.1443 -0.5946  0.4087
  903MOL0     C19116   6.347   1.459  10.087  1.0971  0.0102 -0.3994
  903MOL0     C19117   6.216   1.517  10.102 -0.1694  0.4812  0.1237
  903MOL0     C19118   5.935   1.897  10.098  0.1363 -0.5770 -1.0376
  903MOL0     C19119   5.853   1.999  10.164 -1.0614 -0.7845  0.4750
  903MOL0     C19120   5.759   2.069  10.088 -0.4584  0.6820  0.0684
  903MOL0     C19121   5.748   2.046   9.951  0.7361  0.7106 -0.1515
  903MOL0     O19122   5.659   2.107   9.861  0.6778 -0.0736 -0.2203
  903MOL0     C19123   5.515   2.141   9.890 -1.1489 -0.4120 -0.5458
  903MOL0     C19124   5.416   2.056   9.811  0.1990  0.1032 -0.0402
  903MOL0     C19125   5.374   2.107   9.675  0.1241 -1.0371 -0.1201
  903MOL0     C19126   5.403   2.016   9.556 -0.1521 -0.1964 -0.1056
  903MOL0     C19127   5.327   2.058   9.434  0.0588  0.1608  0.7336
  903MOL0     C19128   5.247   2.087   9.349 -0.7194 -0.2290  0.4610
  903MOL0     C19129   5.824   1.950   9.887  0.8095 -0.3565 -1.6211
  903MOL0     C19130   5.919   1.884   9.963  0.5938 -0.0384  0.8469
  903MOL0     H19131   6.316   1.811  10.228  2.7462  0.0404  0.3653
  903MOL0     H19132   6.509   1.702  10.242  0.1118  1.1382 -2.0160
  903MOL0     H19133   6.618   1.401   9.949  0.2993  0.1093 -0.8221
  903MOL0     H19134   6.566   1.285  10.078  2.0801 -0.7516 -1.0819
  903MOL0     H19135   6.813   1.270  10.015  0.0526 -0.8890  1.0029
  903MOL0     H19136   6.806   1.339  10.180 -1.0053  1.6492 -0.0399
  903MOL0     H19137   6.848   1.553  10.133  0.9937 -1.0993  0.3285
  903MOL0     H19138   6.813   1.532   9.963 -0.4413  2.3988  0.9558
  903MOL0     H19139   7.008   1.382   9.933  1.3894 -0.0494 -0.5616
  903MOL0     H19140   7.034   1.548   9.935  3.5027  0.0110  0.8147
  903MOL0     H19141   7.075   1.364  10.174  3.2576 -2.0958 -0.5144
  903MOL0     H19142   7.120   1.534  10.181  1.5209 -0.1758  0.7923
  903MOL0     H19143   7.293   1.500  10.009  1.4130 -1.0739 -2.1897
  903MOL0     H19144   7.226   1.338   9.976  0.9777  1.0688 -0.9927
  903MOL0     H19145   7.349   1.427  10.254  2.4624 -0.0560 -0.3985
  903MOL0     H19146   7.301   1.265  10.210  1.0868 -0.3953  0.4146
  903MOL0     H19147   7.535   1.268  10.199  1.3451  0.0449 -0.5553
  903MOL0     H19148   7.540   1.422  10.114 -1.1655  1.3841  2.1641
  903MOL0     H19149   7.433   1.044  10.078 -0.5037 -0.3083 -0.9928
  903MOL0     H19150   7.420   0.874   9.866 -2.5761 -1.0284 -0.7783
  903MOL0     H19151   7.435   0.961   9.712 -4.0019  1.0294 -1.7911
  903MOL0     H19152   7.215   1.038   9.725 -0.0598  0.9532  0.3191
  903MOL0     H19153   7.202   0.981   9.900 -2.2184  1.0391 -0.3935
  903MOL0     H19154   7.188   0.819   9.643 -1.5469 -0.1117 -0.3345
  903MOL0     H19155   7.242   0.729   9.783 -0.1802  0.1937  0.4809
  903MOL0     H19156   6.986   0.890   9.773  1.1078  0.0818  1.5368
  903MOL0     H19157   7.035   0.785   9.902 -2.3970 -3.2053 -0.2752
  903MOL0     H19158   6.804   0.826   9.884  1.0087 -1.3647 -0.0934
  903MOL0     H19159   6.574   0.774   9.907  0.2360  0.4336  1.1615
  903MOL0     H19160   6.332   0.401  10.102  2.0190  4.1853 -0.8049
  903MOL0     H19161   6.111   0.296  10.143 -0.1370 -0.7577 -0.7084
  903MOL0     H19162   5.747   0.470   9.983 -2.4712  2.3287  1.7496
  903MOL0     H19163   5.773   0.568  10.132  1.8704  0.0802  0.8779
  903MOL0     H19164   5.651   0.348  10.244 -3.3020 -0.1064  0.1789
  903MOL0     H19165   5.622   0.304  10.076  1.7402 -1.1128  1.0408
  903MOL0     H19166   5.517   0.506  10.035  1.9962  0.0050  0.9977
  903MOL0     H19167   5.542   0.580  10.190 -0.2431  1.3986 -1.9330
  903MOL0     H19168   5.358   0.349  10.105  0.1210  1.2223 -0.8763
  903MOL0     H19169   5.414   0.355  10.267  2.0119 -0.1592 -1.1505
  903MOL0     H19170   5.312   0.572  10.308  0.4800  1.0781 -0.8422
  903MOL0     H19171   5.198   0.455  10.247  1.0414  0.4555  2.0130
  903MOL0     H19172   5.335   0.698  10.130  3.2731 -1.1940 -2.6539
  903MOL0     H19173   5.167   0.685  10.171  0.8037 -0.0861  1.6116
  903MOL0     H19174   5.309   0.518   9.938 -1.3300 -1.0100  0.8099
  903MOL0     H19175   5.133   0.538   9.960 -0.8385  1.0688 -0.1362
  903MOL0     H19176   5.148   0.771   9.915  1.3972  0.7109  1.3442
  903MOL0     H19177   5.212   0.665   9.780  0.7915 -0.6129  0.0118
  903MOL0     H19178   5.917   0.628   9.961  1.5980  1.4860  5.9131
  903MOL0     H19179   6.136   0.703   9.872  0.1931  4.3187  6.1542
  903MOL0     H19180   6.649   0.396   9.724  2.1317  0.7106  0.0686
  903MOL0     H19181   6.888   0.440   9.704 -1.8795 -1.4174 -0.0510
  903MOL0     H19182   6.350   1.354  10.062  2.8206 -0.5438  1.7490
  903MOL0     H19183   6.121   1.466  10.089  0.1025 -0.4114  1.4592
  903MOL0     H19184   5.866   2.021  10.269 -0.9482 -1.7820  0.6885
  903MOL0     H19185   5.696   2.144  10.134 -2.0516  0.1569 -1.1354
  903MOL0     H19186   5.492   2.248   9.880 -0.5827 -0.4145 -2.1766
  903MOL0     H19187   5.501   2.103   9.992  1.4461  0.9060  0.4005
  903MOL0     H19188   5.472   1.962   9.813  2.7359  1.4189  4.3370
  903MOL0     H19189   5.324   2.051   9.870  1.4312  2.2434  2.2470
  903MOL0     H19190   5.426   2.196   9.638  1.0685 -1.4984  0.0602
  903MOL0     H19191   5.270   2.138   9.671  0.8898  1.5556 -3.0872
  903MOL0     H19192   5.512   2.018   9.549  0.1643  1.2423  3.2434
  903MOL0     H19193   5.363   1.918   9.584  1.5914 -0.2811  2.4603
  903MOL0     H19194   5.176   2.100   9.270 -3.8544 -0.8049  2.9594
  903MOL0     H19195   5.813   1.933   9.781 -0.2773 -3.5087 -1.1090
  903MOL0     H19196   5.984   1.817   9.907 -0.1758  2.7110 -3.8790
  904MOL0     O19197  10.928   7.971   6.199  0.7391 -0.7979  0.5095
  904MOL0     C19198  10.982   7.890   6.130  0.5703 -0.3421 -0.7861
  904MOL0     O19199  10.917   7.807   6.044 -0.3261 -0.0989  0.0154
  904MOL0     C19200  10.788   7.814   6.023 -0.5870  0.0206  0.0090
  904MOL0     C19201  10.751   7.828   5.891  0.3719 -0.4721  0.4151
  904MOL0     C19202  10.619   7.814   5.862  0.2819 -0.1700 -0.0542
  904MOL0     C19203  10.523   7.786   5.958  0.0423  0.8471  0.5033
  904MOL0     O19204  10.403   7.776   5.898 -0.0008 -0.2762 -0.2946
  904MOL0     C19205  10.290   7.748   5.988  0.2877 -0.0284 -0.5078
  904MOL0     C19206  10.164   7.722   5.915 -0.0720  0.4488 -0.2916
  904MOL0     C19207  10.049   7.679   5.998  0.2098  0.1674 -0.0813
  904MOL0     C19208   9.940   7.596   5.919 -0.6666  0.1321 -0.3591
  904MOL0     C19209   9.814   7.562   6.000 -1.5034 -0.4540  0.0058
  904MOL0     C19210   9.688   7.629   5.944 -0.6399  0.9760  0.1050
  904MOL0     C19211   9.636   7.554   5.821 -0.3122 -0.7918 -0.4268
  904MOL0     C19212   9.517   7.619   5.752 -0.7560  0.2755 -0.5188
  904MOL0     N19213   9.389   7.586   5.803 -0.4956 -0.9201  0.3290
  904MOL0     C19214   9.321   7.473   5.768 -0.5434  0.3148 -0.0687
  904MOL0     C19215   9.201   7.486   5.830  0.4696 -0.2481  0.1761
  904MOL0     C19216   9.094   7.380   5.828  0.4005  0.2241 -0.3464
  904MOL0     C19217   8.957   7.455   5.837 -0.9166  0.4182  0.8977
  904MOL0     C19218   8.844   7.359   5.799 -0.4421  0.5410  0.3344
  904MOL0     C19219   8.714   7.429   5.814 -0.3950 -0.7242 -0.3105
  904MOL0     O19220   8.682   7.435   5.957  0.1096  0.1738 -0.3686
  904MOL0     C19221   8.553   7.408   5.990 -0.5495  0.1761 -0.0943
  904MOL0     C19222   8.463   7.502   6.032 -0.0433 -0.0594 -0.1656
  904MOL0     C19223   8.342   7.461   6.081  0.3008  0.1365 -0.1282
  904MOL0     C19224   8.304   7.330   6.073 -0.4840 -0.6224 -0.0324
  904MOL0     C19225   8.164   7.285   6.110 -1.0359 -0.3897 -0.2176
  904MOL0     O19226   8.107   7.170   6.052 -0.8681 -0.2865 -0.0066
  904MOL0     C19227   7.975   7.140   6.088  0.1413  0.0382  0.6178
  904MOL0     C19228   7.945   7.023   6.157 -0.2741  1.2842  0.4304
  904MOL0     C19229   7.815   6.981   6.186  0.1506  1.1349 -0.4537
  904MOL0     C19230   7.708   7.066   6.151  0.0305 -1.0960  0.8411
  904MOL0     O19231   7.580   7.032   6.184  0.3633  0.6111  0.2633
  904MOL0     C19232   7.547   6.894   6.197  0.1317  0.7031 -0.1925
  904MOL0     C19233   7.401   6.879   6.264 -0.2796  0.2237 -0.1259
  904MOL0     C19234   7.320   6.747   6.255  0.7446  0.0360 -0.0840
  904MOL0     C19235   7.193   6.747   6.345 -0.2525 -0.1226  0.2479
  904MOL0     C19236   7.110   6.879   6.362  0.8521  0.2199 -0.4309
  904MOL0     C19237   6.971   6.827   6.413  0.1690  0.0876  0.0523
  904MOL0     C19238   6.895   6.959   6.422 -0.4126  0.4750  0.2661
  904MOL0     C19239   6.746   6.930   6.468  0.3602 -0.3287 -0.3842
  904MOL0    Cl19240   6.655   7.081   6.480  0.2172 -0.4164  0.0971
  904MOL0     C19241   7.735   7.187   6.081  0.0473 -0.4657  0.3868
  904MOL0     C19242   7.868   7.221   6.068  0.0741 -0.5450  0.1324
  904MOL0     O19243   8.112   7.346   6.204 -0.5165 -0.2639 -0.6476
  904MOL0     C19244   8.385   7.232   6.012  0.9576 -0.4071  0.2732
  904MOL0     C19245   8.511   7.275   5.974  0.3983  0.4626 -0.3364
  904MOL0     N19246   9.193   7.614   5.887 -0.3864  0.2651 -0.9775
  904MOL0     N19247   9.302   7.670   5.871 -0.1634  0.5349 -0.0386
  904MOL0     C19248  10.560   7.765   6.091  0.0423  0.1644  0.2005
  904MOL0     C19249  10.695   7.774   6.122 -0.6106  0.9556 -0.2530
  904MOL0     C19250  11.125   7.867   6.148 -0.4986 -0.3244  0.1878
  904MOL0     C19251  11.197   7.756   6.107 -0.0664  0.4767  0.9663
  904MOL0     C19252  11.334   7.753   6.104 -0.2834  0.4771  0.2803
  904MOL0     C19253  11.412   7.865   6.153 -0.2194  0.0149 -0.7034
  904MOL0     O19254  11.544   7.853   6.137 -0.0805 -0.1999 -0.3914
  904MOL0     C19255  11.629   7.941   6.210  0.7828  0.8781  0.4489
  904MOL0     C19256  11.770   7.898   6.222 -0.7146  0.1367 -0.7421
  904MOL0     C19257  11.858   7.996   6.298  1.0057  0.3985  0.3139
  904MOL0     C19258  11.988   7.938   6.369 -0.0544 -0.8538  0.3316
  904MOL0     C19259  12.078   8.049   6.407 -0.0440  0.0133  0.2962
  904MOL0     C19260  12.156   8.134   6.452  1.6453 -0.6044  0.3400
  904MOL0     C19261  11.346   7.974   6.206  0.6961  1.0076 -0.4879
  904MOL0     C19262  11.199   7.970   6.205  0.2272 -0.2130 -0.3724
  904MOL0     H19263  10.829   7.859   5.824  1.7025  2.2912  2.9925
  904MOL0     H19264  10.584   7.833   5.761 -0.1575  0.9072  0.2810
  904MOL0     H19265  10.275   7.828   6.061 -0.3406 -1.7882  1.3894
  904MOL0     H19266  10.314   7.655   6.039  2.2736 -0.1610 -1.6020
  904MOL0     H19267  10.190   7.664   5.825 -0.9859  2.7812 -2.1517
  904MOL0     H19268  10.129   7.808   5.859 -2.2524 -0.4181 -0.3452
  904MOL0     H19269   9.997   7.768   6.033 -2.5149 -1.7566  1.1328
  904MOL0     H19270  10.089   7.625   6.085 -2.8782  0.9151  1.9760
  904MOL0     H19271   9.913   7.649   5.827 -1.4266  1.9476  0.8622
  904MOL0     H19272   9.982   7.505   5.876 -0.3443 -0.3564  0.9344
  904MOL0     H19273   9.837   7.599   6.101  0.3121  1.4258 -1.0123
  904MOL0     H19274   9.797   7.456   6.019 -2.9546 -0.1194  0.7308
  904MOL0     H19275   9.701   7.737   5.930 -1.2240  1.8343  4.4876
  904MOL0     H19276   9.611   7.618   6.021  2.0309  0.5795  2.9356
  904MOL0     H19277   9.707   7.543   5.739 -0.6152 -1.8448 -0.5684
  904MOL0     H19278   9.606   7.458   5.864  0.2889 -1.2841 -1.0897
  904MOL0     H19279   9.514   7.586   5.647  0.4729  0.2837 -0.5684
  904MOL0     H19280   9.521   7.729   5.754 -2.1632  0.4037 -2.1952
  904MOL0     H19281   9.354   7.380   5.724 -1.3716  0.0363 -0.1164
  904MOL0     H19282   9.113   7.321   5.918 -1.4828  0.1759  0.0608
  904MOL0     H19283   9.103   7.319   5.738  0.2507 -0.0259 -0.1899
  904MOL0     H19284   8.953   7.547   5.778  0.6670  0.0722  0.2160
  904MOL0     H19285   8.943   7.489   5.940 -0.2275  3.9761 -0.0506
  904MOL0     H19286   8.868   7.319   5.700 -0.8068  0.1514  0.3995
  904MOL0     H19287   8.838   7.266   5.856  0.5731 -0.6298 -1.3946
  904MOL0     H19288   8.637   7.372   5.762 -0.1819  0.5900 -2.1811
  904MOL0     H19289   8.720   7.527   5.766  0.9677 -2.0093 -2.9849
  904MOL0     H19290   8.488   7.608   6.035 -2.3437  0.5941  3.9620
  904MOL0     H19291   8.271   7.538   6.111 -1.9538 -1.7160 -0.3629
  904MOL0     H19292   8.026   6.957   6.187  1.5545  3.5086  0.6949
  904MOL0     H19293   7.810   6.882   6.231  1.0096  0.6136 -1.4509
  904MOL0     H19294   7.616   6.828   6.250 -0.5866  0.8908  1.0182
  904MOL0     H19295   7.540   6.857   6.094  1.5788  1.0741 -0.4596
  904MOL0     H19296   7.339   6.958   6.221  0.6692  0.3291 -1.3710
  904MOL0     H19297   7.427   6.883   6.371  0.5116 -0.2184 -0.2890
  904MOL0     H19298   7.370   6.653   6.279  0.6121 -0.4311 -1.5381
  904MOL0     H19299   7.286   6.749   6.151 -0.7228  0.9091  0.3799
  904MOL0     H19300   7.122   6.682   6.292 -0.4595 -1.4125  2.0271
  904MOL0     H19301   7.215   6.706   6.443 -1.2153 -2.2830 -0.3776
  904MOL0     H19302   7.098   6.933   6.267  1.6659 -1.0987 -1.3176
  904MOL0     H19303   7.151   6.945   6.439  0.7515 -3.3855  3.0188
  904MOL0     H19304   6.986   6.784   6.512  0.7527  1.1366  0.4423
  904MOL0     H19305   6.916   6.755   6.351 -0.7994  1.8618 -1.2702
  904MOL0     H19306   6.954   7.028   6.482  1.0792  1.3695 -2.1078
  904MOL0     H19307   6.896   6.997   6.319 -1.1008  2.9792  1.1175
  904MOL0     H19308   6.752   6.877   6.564  2.3139  0.5532  0.0256
  904MOL0     H19309   6.691   6.860   6.405  1.0129  1.4215 -3.0486
  904MOL0     H19310   7.655   7.259   6.070  3.8542  4.2942  0.2478
  904MOL0     H19311   7.886   7.305   6.002 -0.3853 -0.7730 -0.2823
  904MOL0     H19312   8.364   7.127   5.996 -0.1439 -0.2229  0.4650
  904MOL0     H19313   8.579   7.203   5.928  0.6239  0.8948 -0.6918
  904MOL0     H19314  10.484   7.742   6.166 -0.2818  0.3612 -0.0624
  904MOL0     H19315  10.722   7.759   6.226 -1.3148  0.5087 -0.1302
  904MOL0     H19316  11.131   7.681   6.063 -0.2347  1.4063 -0.4653
  904MOL0     H19317  11.394   7.677   6.054  0.5449  1.8492 -0.9126
  904MOL0     H19318  11.587   7.955   6.310 -1.3381 -1.1953 -0.0764
  904MOL0     H19319  11.634   8.038   6.161 -1.5087  1.0218  0.4081
  904MOL0     H19320  11.758   7.806   6.280 -2.7556  0.5677 -0.4144
  904MOL0     H19321  11.809   7.880   6.121  1.9417 -0.3320  0.2771
  904MOL0     H19322  11.806   8.040   6.384  0.0610 -0.6429  0.2915
  904MOL0     H19323  11.888   8.078   6.233  0.0274  0.9388  0.5089
  904MOL0     H19324  11.948   7.896   6.461 -3.4154 -0.4268 -0.7811
  904MOL0     H19325  12.041   7.865   6.308  1.0827  1.4439 -1.6327
  904MOL0     H19326  12.221   8.211   6.488  0.7025  0.1353  0.5096
  904MOL0     H19327  11.410   8.056   6.234  1.6809  0.5189 -1.2480
  904MOL0     H19328  11.151   8.065   6.225  0.0444 -0.4106  0.1547
  905MOL0     O19329   6.974  10.960   7.158 -0.6203 -0.9807  0.0874
  905MOL0     C19330   6.985  11.016   7.051  0.5373 -0.1654  0.0141
  905MOL0     O19331   7.102  11.054   6.985 -0.5147 -0.1492  0.7152
  905MOL0     C19332   7.232  11.042   7.040  1.0538  0.3692  0.9629
  905MOL0     C19333   7.280  10.931   7.122  0.4935  0.7056  1.7466
  905MOL0     C19334   7.420  10.928   7.166  0.0329 -0.4363 -0.2534
  905MOL0     C19335   7.500  11.033   7.129 -0.0257 -0.2812 -0.5812
  905MOL0     O19336   7.626  11.045   7.176  0.4260  0.5323  0.0656
  905MOL0     C19337   7.698  10.921   7.204 -0.4662 -0.6463  0.2303
  905MOL0     C19338   7.844  10.937   7.235 -0.6064  0.3737 -0.1499
  905MOL0     C19339   7.880  11.024   7.355  0.0778  0.0279 -0.4238
  905MOL0     C19340   7.793  11.002   7.475  0.9828  0.2478  0.1048
  905MOL0     C19341   7.821  11.091   7.599 -0.7408 -1.0676 -0.4041
  905MOL0     C19342   7.971  11.078   7.637 -0.2537 -0.1821  0.2003
  905MOL0     C19343   7.997  11.175   7.758  0.1314 -1.3865 -0.3693
  905MOL0     C19344   8.134  11.145   7.834 -0.7825 -0.0171 -0.0306
  905MOL0     N19345   8.150  11.210   7.964  0.3928 -0.1732  0.3465
  905MOL0     C19346   8.093  11.174   8.084  0.1700  0.1479 -0.6046
  905MOL0     C19347   8.086  11.284   8.161 -0.4991 -0.0295  0.8457
  905MOL0     C19348   8.024  11.324   8.295 -0.3156 -0.3355  0.3120
  905MOL0     C19349   7.876  11.322   8.285  0.1224  0.8680 -0.3206
  905MOL0     C19350   7.821  11.427   8.193 -0.6337  0.4016 -0.1521
  905MOL0     C19351   7.673  11.455   8.192 -0.4894 -1.0258  0.0437
  905MOL0     O19352   7.597  11.335   8.167  0.3429 -0.9650  0.0261
  905MOL0     C19353   7.457  11.333   8.155 -0.7003 -0.1452 -1.0123
  905MOL0     C19354   7.381  11.449   8.160  0.1323  0.5618  0.5148
  905MOL0     C19355   7.244  11.447   8.141 -0.0036  0.6226  0.0257
  905MOL0     C19356   7.174  11.333   8.134  0.5089  0.2225 -0.4502
  905MOL0     C19357   7.022  11.318   8.150 -0.4098 -0.0010 -0.1914
  905MOL0     O19358   6.981  11.192   8.132  0.4345  0.5243 -0.0019
  905MOL0     C19359   6.856  11.149   8.100  0.6791 -0.9404  0.3398
  905MOL0     C19360   6.776  11.221   8.014 -0.0334 -0.2354  0.0242
  905MOL0     C19361   6.641  11.186   7.992 -1.0097  0.7309  0.8780
  905MOL0     C19362   6.606  11.061   8.044  0.6724 -1.2847  0.1622
  905MOL0     O19363   6.482  11.009   8.020 -0.0460  0.1050  0.1114
  905MOL0     C19364   6.378  11.082   7.949  0.5491  0.1397 -0.0626
  905MOL0     C19365   6.231  11.024   7.967  0.1960  0.6082 -0.1747
  905MOL0     C19366   6.213  10.880   7.901  0.5944  0.7153 -1.1277
  905MOL0     C19367   6.064  10.838   7.892 -0.8430 -0.0561 -0.2378
  905MOL0     C19368   5.962  10.907   7.806  0.3037 -0.1142  0.5897
  905MOL0     C19369   5.980  10.876   7.657  0.4400  0.5644 -0.2113
  905MOL0     C19370   5.878  10.938   7.556  0.2588 -0.8893 -0.2848
  905MOL0     C19371   5.899  11.083   7.520 -0.1006 -0.5902  1.1324
  905MOL0    Cl19372   6.055  11.102   7.460 -0.1357  0.1838 -0.5736
  905MOL0     C19373   6.687  10.978   8.122 -0.1077 -1.0903 -0.1020
  905MOL0     C19374   6.809  11.027   8.154 -0.2856  0.5627 -0.0059
  905MOL0     O19375   6.951  11.411   8.173 -0.3468 -0.2234  0.2958
  905MOL0     C19376   7.251  11.217   8.161  0.8335 -0.2654 -0.0250
  905MOL0     C19377   7.390  11.214   8.153  1.0329 -0.3458  0.3184
  905MOL0     N19378   8.158  11.374   8.084  0.1630 -0.5908 -0.7966
  905MOL0     N19379   8.199  11.332   7.973  0.0395  1.1511 -0.0871
  905MOL0     C19380   7.451  11.147   7.068  0.0917  0.3228 -0.9463
  905MOL0     C19381   7.324  11.151   7.014 -0.2873 -0.1407 -0.1626
  905MOL0     C19382   6.864  11.071   6.987 -0.2028  0.1791 -0.0056
  905MOL0     C19383   6.741  11.020   7.025 -0.1632  1.1130 -0.0713
  905MOL0     C19384   6.624  11.078   6.986  0.1661 -0.6340  0.7258
  905MOL0     C19385   6.618  11.189   6.898 -0.2559 -0.4127 -0.1308
  905MOL0     O19386   6.496  11.240   6.851  0.4674 -0.2762 -1.1511
  905MOL0     C19387   6.369  11.172   6.871 -0.7706 -0.5808 -0.3155
  905MOL0     C19388   6.337  11.088   6.745  0.2151 -1.5425 -0.2093
  905MOL0     C19389   6.187  11.035   6.741 -0.4622  0.7456  0.0661
  905MOL0     C19390   6.144  10.979   6.607  0.2276 -0.3355  0.4225
  905MOL0     C19391   6.000  10.950   6.610  1.3621 -0.7963 -0.2964
  905MOL0     C19392   5.876  10.941   6.627 -0.3003 -0.1718  0.6102
  905MOL0     C19393   6.740  11.241   6.863 -0.3201  0.0017 -0.3419
  905MOL0     C19394   6.862  11.189   6.904 -0.6506 -0.6316 -0.1860
  905MOL0     H19395   7.212  10.849   7.147 -1.4058  0.5790 -2.8101
  905MOL0     H19396   7.452  10.839   7.218 -1.5027  0.4240  2.3200
  905MOL0     H19397   7.696  10.853   7.119 -1.8756  1.6955 -1.7285
  905MOL0     H19398   7.648  10.871   7.288  0.7168  1.3646  2.2362
  905MOL0     H19399   7.893  10.973   7.144 -1.2768 -0.6808 -0.9728
  905MOL0     H19400   7.882  10.835   7.249 -0.1034  0.5809 -0.0159
  905MOL0     H19401   7.878  11.130   7.329  1.7600  0.6813  1.8309
  905MOL0     H19402   7.983  11.000   7.386 -0.3139 -0.8058  0.2914
  905MOL0     H19403   7.687  10.999   7.447  1.1432 -2.0932 -0.4189
  905MOL0     H19404   7.814  10.899   7.506 -0.0047 -0.3744 -1.1801
  905MOL0     H19405   7.758  11.060   7.683 -2.2397  3.3125  0.3619
  905MOL0     H19406   7.801  11.195   7.573  0.5221 -1.1431 -1.8444
  905MOL0     H19407   8.038  11.112   7.558 -0.9489  1.9105  0.4360
  905MOL0     H19408   7.990  10.973   7.661  3.2687  0.3974  0.5041
  905MOL0     H19409   8.004  11.277   7.718  1.8993 -1.3284 -0.0031
  905MOL0     H19410   7.922  11.181   7.837 -0.2298 -0.8848 -0.7415
  905MOL0     H19411   8.221  11.165   7.770  0.0274  0.2399  1.1151
  905MOL0     H19412   8.133  11.037   7.853  2.4770  0.0057  0.8927
  905MOL0     H19413   8.059  11.081   8.129  2.7440  0.1064  1.4961
  905MOL0     H19414   8.050  11.429   8.308 -2.5231  0.3795 -0.6802
  905MOL0     H19415   8.061  11.270   8.383  1.8358  3.4903  2.0262
  905MOL0     H19416   7.836  11.332   8.386  0.7351 -1.0817  0.1576
  905MOL0     H19417   7.844  11.223   8.249  0.3719  1.4743 -2.3605
  905MOL0     H19418   7.862  11.527   8.209  1.1581 -0.3920  0.5942
  905MOL0     H19419   7.851  11.406   8.090  2.0567  2.4851  0.0972
  905MOL0     H19420   7.650  11.533   8.118 -1.6186  1.2252  2.6131
  905MOL0     H19421   7.647  11.495   8.290 -1.5411  2.3913 -1.4662
  905MOL0     H19422   7.418  11.550   8.174 -0.0980  0.5914  0.9306
  905MOL0     H19423   7.200  11.547   8.142 -1.7619 -0.0697 -1.8797
  905MOL0     H19424   6.816  11.301   7.953 -3.3257  1.2444 -0.3898
  905MOL0     H19425   6.584  11.254   7.928 -2.5251  0.1942  1.6029
  905MOL0     H19426   6.400  11.087   7.842  2.8551  3.3289  0.3780
  905MOL0     H19427   6.382  11.187   7.980  3.9273 -0.7521  3.2564
  905MOL0     H19428   6.155  11.095   7.930 -0.4172  0.1676  0.2155
  905MOL0     H19429   6.204  11.008   8.072 -2.3310 -0.0965 -0.8450
  905MOL0     H19430   6.268  10.802   7.954 -2.2701 -1.2988 -0.8833
  905MOL0     H19431   6.248  10.884   7.798  0.8221 -1.5405 -1.1753
  905MOL0     H19432   6.067  10.730   7.878 -0.9740 -0.5205  2.6236
  905MOL0     H19433   6.019  10.854   7.990 -2.9178  1.9071 -1.4333
  905MOL0     H19434   5.989  11.012   7.818  0.1898 -0.0744  0.5003
  905MOL0     H19435   5.859  10.879   7.833 -0.3672  1.4333 -0.2429
  905MOL0     H19436   5.980  10.766   7.651  0.1783  0.6162 -1.8318
  905MOL0     H19437   6.081  10.909   7.628  0.3879  0.6144 -0.3386
  905MOL0     H19438   5.884  10.874   7.468  0.0094 -1.1799 -0.0937
  905MOL0     H19439   5.774  10.922   7.588 -0.4582 -1.1650 -2.6263
  905MOL0     H19440   5.880  11.154   7.601  2.9340  0.8467  0.7195
  905MOL0     H19441   5.838  11.119   7.437  0.2422 -0.3100  1.0005
  905MOL0     H19442   6.646  10.885   8.160 -2.2679  1.0475  3.5063
  905MOL0     H19443   6.873  10.976   8.225  3.5358  0.0923 -3.3979
  905MOL0     H19444   7.202  11.120   8.157 -1.9517  1.0034  0.6830
  905MOL0     H19445   7.434  11.115   8.165 -0.9243 -1.1127  1.6454
  905MOL0     H19446   7.517  11.233   7.061 -0.9476  1.1095 -1.3772
  905MOL0     H19447   7.293  11.242   6.964 -1.6327  0.1514  1.1314
  905MOL0     H19448   6.731  10.943   7.101 -0.1217  1.0784 -0.1016
  905MOL0     H19449   6.533  11.031   7.023 -1.7043  1.6600 -0.6885
  905MOL0     H19450   6.293  11.250   6.878  0.4577  0.8320 -1.8735
  905MOL0     H19451   6.371  11.116   6.966  2.2862  3.0204  2.0244
  905MOL0     H19452   6.360  11.156   6.663  2.6262 -2.1646 -0.1290
  905MOL0     H19453   6.407  11.006   6.725  0.6343 -1.0878 -0.6520
  905MOL0     H19454   6.118  11.104   6.790 -0.5249  0.0853  0.9323
  905MOL0     H19455   6.182  10.945   6.804  0.1340  0.0026 -0.9127
  905MOL0     H19456   6.156  11.058   6.532 -1.2101 -1.4384 -1.0505
  905MOL0     H19457   6.191  10.886   6.572 -2.9570 -2.3188  1.0354
  905MOL0     H19458   5.770  10.924   6.632 -0.6270 -0.2807 -3.5347
  905MOL0     H19459   6.743  11.327   6.798 -0.4471  0.3892  0.1619
  905MOL0     H19460   6.954  11.244   6.886 -1.7086  0.5522 -2.3815
  906MOL0     O19461   6.805   7.420   0.231 -0.4489  0.4160 -0.5851
  906MOL0     C19462   6.857   7.326   0.292 -0.0297 -0.0694  0.7548
  906MOL0     O19463   6.791   7.218   0.350  0.1320  0.9054 -0.5632
  906MOL0     C19464   6.656   7.216   0.358  0.0912  0.0942  0.0598
  906MOL0     C19465   6.595   7.248   0.484  0.1387  0.2848  0.2226
  906MOL0     C19466   6.448   7.243   0.497  0.6222 -0.1697  0.0340
  906MOL0     C19467   6.369   7.228   0.380 -0.0234 -0.1005 -0.7039
  906MOL0     O19468   6.226   7.239   0.401  0.2657 -0.0500 -0.0395
  906MOL0     C19469   6.140   7.284   0.287 -0.0198  0.1507 -0.4169
  906MOL0     C19470   5.993   7.286   0.335  0.7371  0.9454  1.0153
  906MOL0     C19471   5.972   7.392   0.445  0.0760  0.3790 -0.1606
  906MOL0     C19472   5.824   7.417   0.467 -0.9561  0.8454  0.3829
  906MOL0     C19473   5.760   7.310   0.554 -0.5284 -0.4161  0.1933
  906MOL0     C19474   5.617   7.339   0.596 -0.5932 -0.0651 -0.5473
  906MOL0     C19475   5.516   7.378   0.481  0.8188  0.0583  0.9215
  906MOL0     C19476   5.378   7.401   0.536 -0.9821 -0.7285 -0.8255
  906MOL0     N19477   5.352   7.517   0.617 -0.2084 -0.4628 -0.3645
  906MOL0     C19478   5.251   7.526   0.707  0.2274 -0.6554 -1.1786
  906MOL0     C19479   5.260   7.655   0.749 -0.3639  0.6339  0.2522
  906MOL0     C19480   5.164   7.719   0.846 -1.3776  0.2028  0.1390
  906MOL0     C19481   5.034   7.770   0.785 -0.1144 -0.0801  0.1805
  906MOL0     C19482   4.935   7.817   0.893 -0.5554  0.1304 -0.8174
  906MOL0     C19483   4.789   7.828   0.849  0.0485  0.8209 -0.0583
  906MOL0     O19484   4.732   7.702   0.809  0.1992  0.6183  0.0036
  906MOL0     C19485   4.597   7.697   0.811  0.2522  0.7592  0.2249
  906MOL0     C19486   4.528   7.664   0.695 -1.1243  0.3667  0.3935
  906MOL0     C19487   4.392   7.677   0.687 -0.3464  0.8863  0.3664
  906MOL0     C19488   4.307   7.684   0.797 -0.1775 -0.2476  0.2691
  906MOL0     C19489   4.160   7.690   0.803  0.1199 -0.6026 -0.6529
  906MOL0     O19490   4.096   7.678   0.924 -0.7685  0.0449  0.1130
  906MOL0     C19491   3.957   7.664   0.912 -0.3043  0.6324  0.3569
  906MOL0     C19492   3.900   7.546   0.951 -0.3035 -0.5579  0.1352
  906MOL0     C19493   3.765   7.527   0.959  0.6164  0.1622  0.9517
  906MOL0     C19494   3.677   7.630   0.919  0.5608  0.3493 -0.5483
  906MOL0     O19495   3.532   7.621   0.934  0.0196  0.8151  0.0942
  906MOL0     C19496   3.481   7.521   1.026 -0.1898  0.1377  0.6984
  906MOL0     C19497   3.335   7.552   1.052 -0.1842 -0.2910  0.2107
  906MOL0     C19498   3.248   7.429   1.082  0.5914 -0.0663  0.1125
  906MOL0     C19499   3.118   7.473   1.152  0.2973 -0.0097  0.3909
  906MOL0     C19500   3.026   7.354   1.161  0.5570  0.2646  0.1375
  906MOL0     C19501   3.067   7.260   1.275  0.2019  0.0934 -0.6386
  906MOL0     C19502   3.083   7.305   1.426  0.5674  0.2897  0.5383
  906MOL0     C19503   2.952   7.383   1.464 -0.5100  0.6482  0.4722
  906MOL0    Cl19504   2.975   7.551   1.419 -0.3837  0.0634 -0.2295
  906MOL0     C19505   3.738   7.744   0.878  0.2129 -0.9783 -0.4232
  906MOL0     C19506   3.875   7.773   0.879 -0.0313 -0.3144 -0.3092
  906MOL0     O19507   4.104   7.696   0.696 -0.7968 -0.2204  0.2099
  906MOL0     C19508   4.377   7.697   0.921 -0.2715 -0.2964  0.7632
  906MOL0     C19509   4.518   7.712   0.927  0.4801  0.1722  0.3033
  906MOL0     N19510   5.360   7.724   0.678 -0.0788 -0.3053  0.3594
  906MOL0     N19511   5.414   7.644   0.599  0.5969  0.1734  0.1724
  906MOL0     C19512   6.432   7.215   0.250 -0.1474 -0.0449 -0.1014
  906MOL0     C19513   6.574   7.212   0.242 -0.5400  0.0321  0.8530
  906MOL0     C19514   6.997   7.329   0.321  0.3206 -0.1808 -0.2626
  906MOL0     C19515   7.082   7.443   0.277 -0.1644  0.2625  0.1407
  906MOL0     C19516   7.217   7.443   0.305 -1.7330  0.0675  0.9987
  906MOL0     C19517   7.280   7.342   0.368 -0.6414  0.1948  0.4069
  906MOL0     O19518   7.415   7.345   0.401 -0.6994 -0.4848  0.0439
  906MOL0     C19519   7.496   7.453   0.358 -0.7640 -0.4648  0.3830
  906MOL0     C19520   7.643   7.461   0.400 -0.8229 -0.0315  0.2425
  906MOL0     C19521   7.724   7.333   0.397  0.7435  0.1945  0.9063
  906MOL0     C19522   7.857   7.345   0.474 -0.1765  0.2973  0.4673
  906MOL0     C19523   7.954   7.448   0.425  0.4895 -0.7975 -0.3147
  906MOL0     C19524   8.007   7.533   0.369 -0.2763 -0.5799  0.0155
  906MOL0     C19525   7.207   7.230   0.396  0.2700 -0.3397 -0.7297
  906MOL0     C19526   7.068   7.223   0.381 -0.3194 -0.6225  0.1480
  906MOL0     H19527   6.665   7.270   0.564  1.8243 -2.2332 -0.4548
  906MOL0     H19528   6.406   7.262   0.596  0.9623  1.5601 -0.1303
  906MOL0     H19529   6.150   7.222   0.197  2.2823  1.2323 -0.9925
  906MOL0     H19530   6.189   7.379   0.262  1.1578 -0.3046  0.1013
  906MOL0     H19531   5.958   7.187   0.363  3.0177  0.4720  2.4345
  906MOL0     H19532   5.934   7.310   0.246 -1.2520  0.3504  2.1209
  906MOL0     H19533   6.018   7.488   0.419  0.5600 -0.0888 -1.0881
  906MOL0     H19534   6.019   7.358   0.538 -1.1638  0.2879  0.4625
  906MOL0     H19535   5.816   7.515   0.514  0.9383  0.9339  0.5972
  906MOL0     H19536   5.784   7.422   0.365 -1.6623 -0.6657  0.5538
  906MOL0     H19537   5.830   7.304   0.638 -0.5936 -1.2582  0.1987
  906MOL0     H19538   5.758   7.211   0.508 -0.4999  0.1668 -1.1056
  906MOL0     H19539   5.612   7.429   0.658 -1.9617 -2.4785  3.2488
  906MOL0     H19540   5.570   7.256   0.651 -2.4471  0.1539 -1.6878
  906MOL0     H19541   5.557   7.469   0.437 -0.4244  0.9355  1.5344
  906MOL0     H19542   5.512   7.302   0.402 -0.9872  0.2907  0.7473
  906MOL0     H19543   5.362   7.308   0.590  1.0920 -0.7564 -0.2042
  906MOL0     H19544   5.301   7.407   0.458 -0.9755  5.1462 -0.8420
  906MOL0     H19545   5.179   7.455   0.746 -1.0685  0.7192 -0.9674
  906MOL0     H19546   5.219   7.798   0.898  0.8287 -2.4354  2.1161
  906MOL0     H19547   5.154   7.636   0.917  1.8567 -1.2056 -0.8915
  906MOL0     H19548   4.991   7.693   0.722  2.1684 -0.2177 -1.3092
  906MOL0     H19549   5.055   7.854   0.718  0.4951 -0.3553  0.0179
  906MOL0     H19550   4.941   7.754   0.982 -1.8072  1.9428  0.6264
  906MOL0     H19551   4.966   7.920   0.912 -1.7466  0.4648 -0.6233
  906MOL0     H19552   4.782   7.893   0.762  0.4883  0.7753 -0.1313
  906MOL0     H19553   4.732   7.872   0.931 -2.4252 -0.1630 -1.1738
  906MOL0     H19554   4.593   7.649   0.609 -2.7852  1.7767 -1.2153
  906MOL0     H19555   4.336   7.667   0.594  1.0493 -1.5725 -0.3223
  906MOL0     H19556   3.967   7.467   0.982 -1.9265 -1.2247  2.1346
  906MOL0     H19557   3.719   7.432   0.984 -0.3472  0.5314  0.6291
  906MOL0     H19558   3.528   7.506   1.124 -1.5658  0.2562  1.4069
  906MOL0     H19559   3.493   7.421   0.984 -1.1497  0.2313  0.1764
  906MOL0     H19560   3.291   7.596   0.962  0.2201 -0.8607 -0.2704
  906MOL0     H19561   3.336   7.628   1.131 -1.7925  0.2918 -0.2750
  906MOL0     H19562   3.302   7.355   1.143 -0.2434 -1.2109 -0.4923
  906MOL0     H19563   3.219   7.385   0.986 -1.8536  2.9648 -0.6559
  906MOL0     H19564   3.145   7.514   1.250 -1.0805  1.9740 -0.0063
  906MOL0     H19565   3.065   7.547   1.092  1.5697  1.4823  1.0087
  906MOL0     H19566   3.032   7.295   1.069  0.7097  0.0216  0.3041
  906MOL0     H19567   2.923   7.390   1.168  0.7173  1.7760 -3.2563
  906MOL0     H19568   3.165   7.218   1.249 -0.4846 -2.4971  0.6296
  906MOL0     H19569   2.991   7.181   1.273  1.9094 -1.6428 -0.2371
  906MOL0     H19570   3.084   7.215   1.488 -2.2797 -0.1304  0.0812
  906MOL0     H19571   3.174   7.366   1.432 -0.1329  1.4227  0.0555
  906MOL0     H19572   2.933   7.379   1.572  0.1575  0.2090  0.5774
  906MOL0     H19573   2.860   7.354   1.412 -0.1774  0.4237  0.0016
  906MOL0     H19574   3.673   7.828   0.857  1.6543  2.0624  5.2828
  906MOL0     H19575   3.909   7.870   0.844  2.2766  0.3287  3.2343
  906MOL0     H19576   4.322   7.702   1.014 -1.9305  0.9430 -0.2092
  906MOL0     H19577   4.569   7.723   1.022  1.3222 -0.1294 -0.0980
  906MOL0     H19578   6.373   7.190   0.163 -2.4315 -0.6551  1.5447
  906MOL0     H19579   6.631   7.204   0.150  4.3493 -1.4000  3.6325
  906MOL0     H19580   7.043   7.529   0.224 -0.7642  0.4126  0.8233
  906MOL0     H19581   7.270   7.532   0.273  1.7680 -1.7417  1.2967
  906MOL0     H19582   7.453   7.547   0.392  2.0561  1.9038 -1.9729
  906MOL0     H19583   7.485   7.474   0.251 -0.4102  0.2371  0.4753
  906MOL0     H19584   7.689   7.546   0.350  1.4215  0.7558  3.3633
  906MOL0     H19585   7.643   7.488   0.506 -0.7296  2.1913 -0.2800
  906MOL0     H19586   7.739   7.295   0.296  1.7967  0.4866  0.9366
  906MOL0     H19587   7.662   7.262   0.452  0.7626 -1.7138 -1.3887
  906MOL0     H19588   7.834   7.369   0.578  2.2090  0.5743  0.9887
  906MOL0     H19589   7.903   7.246   0.463  1.5813  1.2529 -1.3161
  906MOL0     H19590   8.076   7.600   0.322  1.7289 -3.0060 -0.6824
  906MOL0     H19591   7.253   7.151   0.455  1.8107  0.0945 -1.3060
  906MOL0     H19592   7.030   7.136   0.434 -1.3599 -1.0727 -1.2904
  907MOL0     O19593   4.551   1.566  10.638  0.1340  0.8634 -0.1327
  907MOL0     C19594   4.606   1.659  10.700  0.1277  0.1112  0.2413
  907MOL0     O19595   4.540   1.742  10.797 -0.0070  0.0759  0.8661
  907MOL0     C19596   4.409   1.724  10.825 -0.2563 -0.1598  0.3666
  907MOL0     C19597   4.309   1.695  10.727 -0.4085 -0.2303 -1.3080
  907MOL0     C19598   4.185   1.657  10.771 -0.0118  0.3839 -0.1625
  907MOL0     C19599   4.155   1.628  10.905  0.4657 -1.2643 -0.7050
  907MOL0     O19600   4.026   1.576  10.931 -1.1293 -0.8674  0.4621
  907MOL0     C19601   3.976   1.576  11.067 -0.1577  0.4387 -0.2284
  907MOL0     C19602   3.815   1.566  11.067 -0.3383  0.2381 -0.7039
  907MOL0     C19603   3.747   1.685  10.994 -0.6240 -0.4699  1.1363
  907MOL0     C19604   3.600   1.668  11.022  0.0356 -0.2850  0.2116
  907MOL0     C19605   3.518   1.778  10.953  1.0637  0.2783 -0.1378
  907MOL0     C19606   3.372   1.744  10.978 -0.7563 -0.1191  1.0404
  907MOL0     C19607   3.277   1.837  10.905 -0.3510 -0.2081 -0.4142
  907MOL0     C19608   3.259   1.972  10.978 -0.5978  0.0360 -0.2736
  907MOL0     N19609   3.171   1.950  11.096  0.8801  0.6241  0.1634
  907MOL0     C19610   3.037   1.961  11.084  0.4396  0.1243  0.4512
  907MOL0     C19611   2.987   1.937  11.208  0.1111 -0.7264  0.3868
  907MOL0     C19612   2.845   1.925  11.241 -0.0397  0.6733  0.0485
  907MOL0     C19613   2.781   2.043  11.301 -0.2456  0.1787 -0.2615
  907MOL0     C19614   2.629   2.012  11.327 -0.4032  0.1171  0.3291
  907MOL0     C19615   2.529   2.135  11.368 -0.0719  0.4541 -0.0090
  907MOL0     O19616   2.501   2.216  11.255 -0.5144  0.1159 -0.2174
  907MOL0     C19617   2.376   2.252  11.224  0.0134  0.1555 -0.1188
  907MOL0     C19618   2.368   2.332  11.115 -0.6107 -0.2406  1.5249
  907MOL0     C19619   2.242   2.370  11.064 -0.5703 -0.4719  0.4223
  907MOL0     C19620   2.122   2.333  11.123 -0.6643 -0.7478 -0.8709
  907MOL0     C19621   1.991   2.379  11.080  0.2823  0.1011  0.1411
  907MOL0     O19622   1.884   2.286  11.068  0.1310 -0.0922  0.4889
  907MOL0     C19623   1.748   2.308  11.057 -0.2709  0.1727 -0.9060
  907MOL0     C19624   1.663   2.201  11.022  0.5136 -0.3213 -0.6080
  907MOL0     C19625   1.529   2.226  10.997 -0.2162  1.0822  0.0553
  907MOL0     C19626   1.472   2.349  11.008 -0.0168 -0.6866  0.0462
  907MOL0     O19627   1.333   2.355  10.990 -0.6969  0.8406 -0.1434
  907MOL0     C19628   1.275   2.475  10.962  0.2075 -0.8723 -1.4143
  907MOL0     C19629   1.147   2.450  10.882  0.1839  0.2921  0.2497
  907MOL0     C19630   1.012   2.429  10.963 -0.2584 -0.3231 -0.0625
  907MOL0     C19631   0.886   2.411  10.871  0.0594  0.8100 -0.0177
  907MOL0     C19632   0.749   2.400  10.947 -0.4122  0.1121  0.8279
  907MOL0     C19633   0.625   2.392  10.847  0.0550 -0.0855  0.1433
  907MOL0     C19634   0.511   2.336  10.929  0.2951  1.3965  0.7534
  907MOL0     C19635   0.369   2.341  10.866  0.9911  0.4342 -0.4318
  907MOL0    Cl19636   0.344   2.210  10.752 -0.3684 -0.2450 -0.2951
  907MOL0     C19637   1.555   2.457  11.047  0.0025 -0.0752 -0.1449
  907MOL0     C19638   1.689   2.432  11.087  0.5813  0.2364  0.1701
  907MOL0     O19639   1.976   2.499  11.057 -0.3774 -0.1060  0.2631
  907MOL0     C19640   2.133   2.247  11.237 -0.5251  0.4257  0.8879
  907MOL0     C19641   2.256   2.207  11.289 -0.1823 -0.0055 -0.4199
  907MOL0     N19642   3.095   1.922  11.294 -0.6119  0.3433 -0.2474
  907MOL0     N19643   3.204   1.924  11.223  0.2548  0.8149 -0.1576
  907MOL0     C19644   4.256   1.663  11.003  0.3954  0.6765  0.1311
  907MOL0     C19645   4.377   1.713  10.962 -0.1770 -0.5271 -0.6221
  907MOL0     C19646   4.732   1.704  10.660  0.1491 -0.1918 -0.9078
  907MOL0     C19647   4.801   1.656  10.540  0.4594 -0.6574  0.1957
  907MOL0     C19648   4.931   1.695  10.515 -0.3249 -0.1359  0.1591
  907MOL0     C19649   4.989   1.792  10.601 -0.6858 -1.0517 -0.0007
  907MOL0     O19650   5.117   1.854  10.573 -0.1935  0.9363  0.3307
  907MOL0     C19651   5.186   1.796  10.455  1.2536 -0.8151  0.2687
  907MOL0     C19652   5.329   1.851  10.452  0.0348 -0.9576 -0.1380
  907MOL0     C19653   5.401   1.795  10.337 -0.3884  0.0002 -0.2267
  907MOL0     C19654   5.543   1.855  10.312  1.1676  0.1569 -0.2198
  907MOL0     C19655   5.608   1.771  10.212  0.0563  0.8800  0.0996
  907MOL0     C19656   5.649   1.698  10.126  0.2957 -0.1718  0.1504
  907MOL0     C19657   4.924   1.833  10.707  0.2737  0.2060 -0.6589
  907MOL0     C19658   4.803   1.793  10.738 -0.4400  0.0718  0.4704
  907MOL0     H19659   4.321   1.684  10.620  1.9007 -2.6865 -0.8843
  907MOL0     H19660   4.111   1.637  10.694  2.3897 -1.5418 -2.1526
  907MOL0     H19661   4.007   1.671  11.112 -0.7900  1.2071 -1.3549
  907MOL0     H19662   4.023   1.494  11.122 -0.7382 -0.6676 -1.3471
  907MOL0     H19663   3.788   1.566  11.173 -0.3132  4.0991 -0.5383
  907MOL0     H19664   3.786   1.467  11.032 -0.8091  0.4659 -0.9743
  907MOL0     H19665   3.763   1.689  10.886 -2.0884  3.0539  0.8907
  907MOL0     H19666   3.782   1.781  11.035  3.1444 -1.1457 -0.1113
  907MOL0     H19667   3.549   1.573  11.003 -0.1242 -0.8554  3.0169
  907MOL0     H19668   3.583   1.680  11.129 -0.1849  0.1216  0.1330
  907MOL0     H19669   3.529   1.785  10.845  1.3836  1.6595 -0.0332
  907MOL0     H19670   3.552   1.872  10.996  1.0708  0.8252 -1.3126
  907MOL0     H19671   3.347   1.748  11.084 -1.8968 -3.5129  1.0047
  907MOL0     H19672   3.362   1.640  10.947  2.6447 -0.2507 -0.0423
  907MOL0     H19673   3.303   1.870  10.804 -1.3820 -3.5282 -1.8870
  907MOL0     H19674   3.176   1.797  10.891  0.9940 -3.1701 -2.9726
  907MOL0     H19675   3.207   2.037  10.907 -1.7830 -0.6763 -0.0776
  907MOL0     H19676   3.358   2.015  11.000 -0.6587  0.0882 -0.0974
  907MOL0     H19677   2.988   1.971  10.988  0.9440  1.2441  0.3012
  907MOL0     H19678   2.845   1.838  11.307 -3.2031 -0.3480 -1.1199
  907MOL0     H19679   2.795   1.900  11.148  0.3051 -0.1087  0.0696
  907MOL0     H19680   2.786   2.138  11.245 -0.9265  1.2783  1.4658
  907MOL0     H19681   2.848   2.067  11.384  0.9704  1.7705 -1.6304
  907MOL0     H19682   2.586   1.954  11.245 -0.4228  0.8655 -0.2081
  907MOL0     H19683   2.626   1.939  11.408  0.3536 -1.0083 -0.6325
  907MOL0     H19684   2.571   2.200  11.445 -1.6181  1.7184 -0.1929
  907MOL0     H19685   2.435   2.093  11.405 -0.7729  0.4935 -1.6521
  907MOL0     H19686   2.455   2.375  11.066 -1.0686 -0.6235  0.3215
  907MOL0     H19687   2.241   2.433  10.976 -2.3688 -1.8396 -0.6011
  907MOL0     H19688   1.705   2.102  11.006 -0.4082 -0.9492  0.6210
  907MOL0     H19689   1.467   2.147  10.958  0.6701  0.5159 -0.2244
  907MOL0     H19690   1.349   2.538  10.912  0.8188  0.6335  1.1738
  907MOL0     H19691   1.246   2.526  11.055 -0.1359 -0.3802 -1.7851
  907MOL0     H19692   1.172   2.359  10.827  2.5338 -0.1165  1.8640
  907MOL0     H19693   1.140   2.530  10.808  0.3295  1.9619  1.9633
  907MOL0     H19694   0.997   2.510  11.034  1.5074  1.1265 -1.2581
  907MOL0     H19695   1.028   2.335  11.017 -2.1013 -0.6623 -0.0580
  907MOL0     H19696   0.877   2.492  10.798  1.8905 -0.8411 -2.2473
  907MOL0     H19697   0.904   2.317  10.818  0.6083  0.0469  1.4754
  907MOL0     H19698   0.736   2.491  11.006 -0.0183  0.5773  0.2149
  907MOL0     H19699   0.753   2.315  11.015 -3.2063 -3.0178 -2.5274
  907MOL0     H19700   0.653   2.335  10.758 -1.0043  0.0268 -0.2717
  907MOL0     H19701   0.603   2.494  10.814 -1.1110  0.9370  3.5933
  907MOL0     H19702   0.531   2.234  10.962 -0.3203 -0.1200 -3.0594
  907MOL0     H19703   0.512   2.392  11.022  1.6347  1.6090  0.6302
  907MOL0     H19704   0.351   2.436  10.815 -1.6941 -1.3363 -3.1029
  907MOL0     H19705   0.300   2.323  10.949  0.1294  1.0203 -0.9959
  907MOL0     H19706   1.513   2.552  11.079  0.8567  0.3049 -0.1393
  907MOL0     H19707   1.735   2.518  11.136 -3.6808  2.3372  0.9425
  907MOL0     H19708   2.042   2.207  11.280 -0.3346 -0.1339  0.7811
  907MOL0     H19709   2.249   2.147  11.379  0.3449 -0.6117 -0.7748
  907MOL0     H19710   4.244   1.655  11.111  1.6213 -0.2592  0.2176
  907MOL0     H19711   4.451   1.724  11.041 -2.4279  1.4864  1.3446
  907MOL0     H19712   4.754   1.575  10.485  1.2207 -0.5152 -0.6668
  907MOL0     H19713   4.987   1.654  10.431 -1.3954 -0.8649 -0.2124
  907MOL0     H19714   5.133   1.814  10.361  1.3140 -0.1223  0.3637
  907MOL0     H19715   5.189   1.687  10.466  0.4128 -0.9381 -0.5999
  907MOL0     H19716   5.343   1.958  10.467  0.3133 -1.1164  0.8104
  907MOL0     H19717   5.379   1.815  10.542  1.6754  0.8006 -0.3013
  907MOL0     H19718   5.343   1.814  10.246 -2.1901 -0.9932  0.6477
  907MOL0     H19719   5.413   1.686  10.336 -3.1931 -0.4716 -4.1645
  907MOL0     H19720   5.538   1.957  10.270  0.8195  0.3199  0.2215
  907MOL0     H19721   5.611   1.855  10.398  0.3610 -1.0238  0.4369
  907MOL0     H19722   5.682   1.639  10.043 -2.2483 -1.9159  0.2673
  907MOL0     H19723   4.983   1.885  10.782 -1.4423 -0.3037  1.1411
  907MOL0     H19724   4.775   1.844  10.830  1.5187  2.1762  0.0019
  908MOL0     O19725   5.009   4.625  11.110  0.0406 -0.1910 -0.0025
  908MOL0     C19726   5.053   4.513  11.144 -1.2545  0.0571  1.1850
  908MOL0     O19727   4.997   4.392  11.106 -0.2494 -0.5693 -0.4386
  908MOL0     C19728   4.868   4.369  11.061 -0.0168  0.7722 -0.8953
  908MOL0     C19729   4.842   4.240  11.012 -0.9993  0.7049  0.3121
  908MOL0     C19730   4.720   4.208  10.955 -0.3875 -0.2362  0.3084
  908MOL0     C19731   4.617   4.297  10.954  1.6396  0.3166  0.1134
  908MOL0     O19732   4.504   4.264  10.881  0.1364  0.2284  0.5050
  908MOL0     C19733   4.414   4.352  10.825  0.4287 -1.1482 -0.0256
  908MOL0     C19734   4.298   4.283  10.747 -0.1486 -0.5203  0.1435
  908MOL0     C19735   4.196   4.379  10.674 -0.2893  0.0801 -0.1270
  908MOL0     C19736   4.102   4.442  10.769 -0.4307  0.2200 -0.2884
  908MOL0     C19737   4.011   4.554  10.706 -0.4862  0.1192  0.0121
  908MOL0     C19738   3.884   4.506  10.635  0.0847 -0.7392  0.4427
  908MOL0     C19739   3.816   4.620  10.558  0.6951  0.8267  0.6508
  908MOL0     C19740   3.678   4.580  10.506 -0.3948  0.5023  0.0257
  908MOL0     N19741   3.600   4.696  10.475  0.2389  0.1149  0.1572
  908MOL0     C19742   3.559   4.736  10.351 -1.1540  0.3483 -0.1940
  908MOL0     C19743   3.467   4.831  10.380  0.7520  0.3234 -0.4977
  908MOL0     C19744   3.385   4.917  10.282  0.5975  0.5982 -0.1190
  908MOL0     C19745   3.240   4.891  10.255 -0.1490  0.2307  0.7490
  908MOL0     C19746   3.154   4.961  10.361 -0.4618  0.5607 -0.1048
  908MOL0     C19747   3.006   4.933  10.341 -0.3627  0.0734 -0.6301
  908MOL0     O19748   2.956   5.029  10.249 -0.0341 -0.2264 -0.7173
  908MOL0     C19749   2.824   5.037  10.227  0.4461 -0.0191  0.2221
  908MOL0     C19750   2.770   5.109  10.122  0.1025  0.0197  0.6725
  908MOL0     C19751   2.631   5.120  10.095  0.0283 -0.6094  0.5674
  908MOL0     C19752   2.541   5.047  10.165  0.8132  0.3661 -0.2055
  908MOL0     C19753   2.402   5.030  10.114  0.3205 -0.3517  0.6175
  908MOL0     O19754   2.376   5.084   9.990  0.2962  0.6243  0.7757
  908MOL0     C19755   2.255   5.062   9.930  0.3948  0.6664 -1.1742
  908MOL0     C19756   2.236   4.937   9.867  0.3052  0.4673 -0.4773
  908MOL0     C19757   2.126   4.914   9.790  0.4824 -0.9090 -0.4440
  908MOL0     C19758   2.033   5.015   9.760 -0.2470 -0.1507  0.0100
  908MOL0     O19759   1.920   4.981   9.689  0.0380  0.7231  0.1335
  908MOL0     C19760   1.854   5.089   9.615  1.2047  0.1611  0.0212
  908MOL0     C19761   1.763   5.012   9.522 -0.1307 -0.5620 -0.1979
  908MOL0     C19762   1.849   4.943   9.416 -0.2955  0.4158 -0.6868
  908MOL0     C19763   1.755   4.887   9.308 -0.2590  0.0676  0.9570
  908MOL0     C19764   1.693   4.999   9.217  0.5908 -0.6847 -0.0763
  908MOL0     C19765   1.775   5.116   9.154 -0.3016  0.0000  1.2521
  908MOL0     C19766   1.897   5.061   9.067 -0.1367 -0.4651 -0.3061
  908MOL0     C19767   2.000   5.174   9.022  0.4932  0.5921  0.1454
  908MOL0    Cl19768   2.072   5.271   9.162 -0.0311  0.4666 -0.6310
  908MOL0     C19769   2.043   5.136   9.831  0.0780  0.4177  0.3357
  908MOL0     C19770   2.148   5.155   9.919 -0.1348 -0.6904 -0.0739
  908MOL0     O19771   2.325   4.970  10.181  0.2076 -0.0439 -0.4883
  908MOL0     C19772   2.585   4.984  10.285 -0.5823 -0.2363  0.2323
  908MOL0     C19773   2.723   4.976  10.308 -0.3157 -0.0878 -0.4770
  908MOL0     N19774   3.445   4.838  10.510  0.6028  0.4463  0.0634
  908MOL0     N19775   3.529   4.750  10.568  0.2323  0.1219  0.0049
  908MOL0     C19776   4.637   4.426  11.003 -1.0016  0.4926  1.1448
  908MOL0     C19777   4.760   4.460  11.060  0.1597 -0.3125  0.5332
  908MOL0     C19778   5.185   4.502  11.209  0.0268  1.2131 -0.4369
  908MOL0     C19779   5.245   4.375  11.243 -0.3410  0.4387 -0.1097
  908MOL0     C19780   5.379   4.382  11.293 -0.6282  0.2164 -0.4165
  908MOL0     C19781   5.451   4.496  11.313 -0.6247 -0.9299 -0.7733
  908MOL0     O19782   5.575   4.488  11.362 -0.3775 -1.0455 -0.0961
  908MOL0     C19783   5.659   4.602  11.353  0.7219 -0.0613 -0.2500
  908MOL0     C19784   5.790   4.553  11.412 -0.7314 -0.7633 -0.7940
  908MOL0     C19785   5.901   4.660  11.418  0.1304  0.2588  0.3479
  908MOL0     C19786   6.014   4.605  11.493  0.0595  0.0665 -0.0028
  908MOL0     C19787   6.075   4.704  11.582  0.0914 -0.5324 -0.2367
  908MOL0     C19788   6.115   4.786  11.659  0.5250 -0.9199 -0.0275
  908MOL0     C19789   5.383   4.616  11.291 -0.1663 -0.1914  0.4890
  908MOL0     C19790   5.255   4.618  11.243  0.5112 -0.5250 -0.2203
  908MOL0     H19791   4.924   4.170  10.996 -0.6898  1.4756 -1.8095
  908MOL0     H19792   4.704   4.113  10.904 -2.7442 -0.2066  0.8762
  908MOL0     H19793   4.465   4.427  10.764 -1.7345  1.5144  1.2366
  908MOL0     H19794   4.364   4.411  10.902  0.1697  0.0241 -1.0499
  908MOL0     H19795   4.241   4.227  10.821  2.6974  1.3594  4.1906
  908MOL0     H19796   4.346   4.210  10.682 -0.7410 -0.7200 -0.0773
  908MOL0     H19797   4.145   4.322  10.596 -1.3205  0.3076  0.3611
  908MOL0     H19798   4.248   4.454  10.614 -0.1783  0.9740  1.0370
  908MOL0     H19799   4.043   4.363  10.817  1.1362 -0.3500  0.7736
  908MOL0     H19800   4.161   4.481  10.852  1.9261 -1.3125 -1.1500
  908MOL0     H19801   4.079   4.611  10.642  0.3550  0.1213  0.8911
  908MOL0     H19802   3.980   4.609  10.795 -0.2874  1.2892 -0.6329
  908MOL0     H19803   3.814   4.467  10.709 -0.1206 -0.2739  0.4968
  908MOL0     H19804   3.913   4.426  10.565  2.9914 -1.3804  2.2217
  908MOL0     H19805   3.797   4.699  10.631  2.2287 -0.7613  2.8773
  908MOL0     H19806   3.877   4.660  10.476 -1.0027  1.1903 -0.4943
  908MOL0     H19807   3.625   4.512  10.573 -1.7212 -0.2200 -1.6464
  908MOL0     H19808   3.686   4.523  10.413 -0.2116  3.0319 -1.6087
  908MOL0     H19809   3.599   4.701  10.257  0.2952 -1.3824  0.9810
  908MOL0     H19810   3.443   4.911  10.190 -1.5261  1.2692 -1.5779
  908MOL0     H19811   3.387   5.023  10.309 -0.7870  0.3244  1.1842
  908MOL0     H19812   3.224   4.783  10.256 -1.1048  0.3458  3.2782
  908MOL0     H19813   3.203   4.923  10.157  0.4970  0.4415  0.5747
  908MOL0     H19814   3.194   4.927  10.457  4.3935 -0.4054 -2.2057
  908MOL0     H19815   3.167   5.070  10.364  2.4372  0.3079 -1.0404
  908MOL0     H19816   2.943   4.949  10.429 -3.2151 -0.8327 -2.3678
  908MOL0     H19817   2.992   4.828  10.315 -0.1904 -0.0213 -0.3454
  908MOL0     H19818   2.848   5.149  10.058  1.8798 -1.9856  1.4620
  908MOL0     H19819   2.611   5.180  10.007 -1.5978  1.4989  2.2738
  908MOL0     H19820   2.322   4.870   9.872  0.6497  0.9419  0.0956
  908MOL0     H19821   2.132   4.835   9.716 -1.4275 -2.4996  1.0146
  908MOL0     H19822   1.917   5.160   9.561 -1.9163  2.6582 -0.6810
  908MOL0     H19823   1.792   5.146   9.686  0.9596 -2.5757  2.1765
  908MOL0     H19824   1.686   5.080   9.482 -1.9918 -2.5318 -0.1763
  908MOL0     H19825   1.704   4.934   9.572  1.4863 -1.3030  0.6045
  908MOL0     H19826   1.904   4.856   9.453 -1.2901 -0.9126 -2.2247
  908MOL0     H19827   1.921   5.012   9.370  0.4305 -2.2569 -3.9396
  908MOL0     H19828   1.815   4.813   9.253 -0.5486  1.1104 -0.8566
  908MOL0     H19829   1.672   4.839   9.359 -2.2501  2.0088 -0.2914
  908MOL0     H19830   1.616   5.051   9.274  0.6729  0.2276 -0.7791
  908MOL0     H19831   1.655   4.947   9.129  1.1927 -2.3333  0.5974
  908MOL0     H19832   1.821   5.184   9.227  0.5255  0.4404  0.3363
  908MOL0     H19833   1.714   5.181   9.090  2.8129  2.1675  0.2488
  908MOL0     H19834   1.943   4.985   9.131 -3.0291 -0.6953  1.7403
  908MOL0     H19835   1.870   5.014   8.973  1.9741 -2.4018 -0.0324
  908MOL0     H19836   1.951   5.239   8.949  0.5513  0.0551 -0.3845
  908MOL0     H19837   2.080   5.134   8.959  2.1171 -2.7171  3.8257
  908MOL0     H19838   1.976   5.217   9.807  0.8744  0.2201 -3.0948
  908MOL0     H19839   2.163   5.249   9.972  2.4089 -0.7512 -0.5800
  908MOL0     H19840   2.524   4.922  10.349 -0.7827 -1.1187 -0.7775
  908MOL0     H19841   2.752   4.927  10.400  1.6514 -2.0371 -2.0092
  908MOL0     H19842   4.552   4.492  10.990 -2.0900 -1.1690 -0.8369
  908MOL0     H19843   4.785   4.561  11.093  0.5663 -0.4092  0.5306
  908MOL0     H19844   5.194   4.280  11.237 -1.1105  0.7348  1.2495
  908MOL0     H19845   5.424   4.285  11.316 -1.3767 -0.1397 -0.4401
  908MOL0     H19846   5.616   4.679  11.418 -2.2614 -1.1482 -0.8197
  908MOL0     H19847   5.669   4.635  11.249 -0.4763 -0.8352 -0.6258
  908MOL0     H19848   5.770   4.518  11.514  0.0880 -0.2021 -0.4224
  908MOL0     H19849   5.820   4.463  11.359 -0.5560 -2.1077  1.4788
  908MOL0     H19850   5.865   4.742  11.481  0.4688 -0.3746  1.3754
  908MOL0     H19851   5.925   4.693  11.316 -0.7542  0.0649  0.0661
  908MOL0     H19852   5.982   4.521  11.555 -0.7794  2.0832  2.4781
  908MOL0     H19853   6.096   4.573  11.428  0.4931 -2.5726  1.6832
  908MOL0     H19854   6.155   4.861  11.725 -2.4663 -0.0052  0.9147
  908MOL0     H19855   5.432   4.711  11.307  1.5082  0.0732 -4.4626
  908MOL0     H19856   5.207   4.715  11.238 -0.4665 -0.9210  1.1160
  909MOL0     O19857  10.592   0.818   8.743  0.0348  0.3172  0.3704
  909MOL0     C19858  10.675   0.745   8.679  0.1406 -1.1037 -0.0253
  909MOL0     O19859  10.643   0.648   8.597  0.1708 -0.2280 -0.6987
  909MOL0     C19860  10.513   0.626   8.582  1.5307 -0.0854  0.3085
  909MOL0     C19861  10.421   0.582   8.675 -0.1502  0.3069  0.7625
  909MOL0     C19862  10.288   0.535   8.644  1.1061 -0.2415 -0.3327
  909MOL0     C19863  10.242   0.540   8.517 -0.5119 -0.1376 -0.4515
  909MOL0     O19864  10.114   0.511   8.484  0.3105  0.1089 -0.0507
  909MOL0     C19865  10.081   0.365   8.496 -0.1812 -0.8915 -0.3797
  909MOL0     C19866   9.942   0.346   8.436 -0.2521  0.3902  0.9922
  909MOL0     C19867   9.846   0.375   8.553 -0.0107 -0.5305  0.2128
  909MOL0     C19868   9.701   0.340   8.512 -0.7979 -0.4671 -0.1150
  909MOL0     C19869   9.641   0.473   8.475 -0.4417 -0.6535 -0.1232
  909MOL0     C19870   9.501   0.464   8.410 -0.0001 -0.0287  0.4689
  909MOL0     C19871   9.447   0.608   8.371  0.5705  0.0876  0.5145
  909MOL0     C19872   9.446   0.707   8.483 -0.1191  0.3751 -0.0016
  909MOL0     N19873   9.394   0.841   8.448  0.0942  0.0955 -0.2257
  909MOL0     C19874   9.471   0.948   8.401  0.5938 -0.4325  0.4491
  909MOL0     C19875   9.383   1.049   8.389 -1.4048 -0.5185  0.1756
  909MOL0     C19876   9.431   1.191   8.356 -0.5689 -0.0257 -0.1740
  909MOL0     C19877   9.432   1.281   8.473 -0.3528 -0.3675 -0.2213
  909MOL0     C19878   9.297   1.309   8.550  0.0096  0.7316  0.6387
  909MOL0     C19879   9.193   1.350   8.445  0.5928 -0.0196  1.2062
  909MOL0     O19880   9.088   1.400   8.527  0.4156 -0.1768  0.2902
  909MOL0     C19881   8.977   1.468   8.471 -0.6727  0.5802  0.4793
  909MOL0     C19882   8.927   1.467   8.338  0.9170  0.3254  0.2546
  909MOL0     C19883   8.810   1.541   8.303 -0.5369 -0.0036  1.0418
  909MOL0     C19884   8.739   1.610   8.401  1.2372  0.3465  0.7483
  909MOL0     C19885   8.618   1.677   8.358  0.9716 -0.0032  0.6109
  909MOL0     O19886   8.573   1.786   8.436  0.2440  0.1598  0.2881
  909MOL0     C19887   8.475   1.868   8.370 -0.6848  0.1612  0.5960
  909MOL0     C19888   8.508   1.970   8.279 -0.5175 -1.0874 -0.4229
  909MOL0     C19889   8.411   2.053   8.228  0.2237 -0.4593 -0.9333
  909MOL0     C19890   8.281   2.042   8.274  0.2100 -0.5955  0.6870
  909MOL0     O19891   8.179   2.126   8.243  0.3625  0.5218  0.1832
  909MOL0     C19892   8.194   2.259   8.296 -0.1470 -0.3259  0.0489
  909MOL0     C19893   8.061   2.329   8.309  0.1975  0.4785 -0.4029
  909MOL0     C19894   7.944   2.237   8.335 -0.6141 -0.0421  0.2624
  909MOL0     C19895   7.804   2.313   8.352  0.1150  0.7716  1.1598
  909MOL0     C19896   7.685   2.223   8.356  0.4276 -0.1066  0.8686
  909MOL0     C19897   7.557   2.312   8.312  0.7328 -0.4961  0.1291
  909MOL0     C19898   7.503   2.399   8.430 -0.9810  0.3348  0.0692
  909MOL0     C19899   7.360   2.345   8.461  0.0337 -1.0545  0.2721
  909MOL0    Cl19900   7.367   2.171   8.516 -0.1274  0.6525  0.1785
  909MOL0     C19901   8.248   1.943   8.349 -0.4526  0.4900 -0.6622
  909MOL0     C19902   8.342   1.851   8.394 -0.0723 -0.1669  0.2548
  909MOL0     O19903   8.569   1.646   8.255  1.0902 -0.5364  0.2071
  909MOL0     C19904   8.775   1.612   8.532 -0.3464  0.7217 -0.6389
  909MOL0     C19905   8.896   1.541   8.564 -0.3002  0.6346  0.6276
  909MOL0     N19906   9.256   1.005   8.418 -0.0296  0.6688  0.6879
  909MOL0     N19907   9.262   0.883   8.453  0.7078  0.4107 -0.1246
  909MOL0     C19908  10.332   0.574   8.420 -0.2021  0.0129  1.0049
  909MOL0     C19909  10.463   0.614   8.449  0.1915 -0.1954  0.0474
  909MOL0     C19910  10.823   0.768   8.710 -0.3595 -1.3980 -0.2896
  909MOL0     C19911  10.869   0.867   8.797 -0.0755  0.4259 -0.2292
  909MOL0     C19912  11.001   0.881   8.837  0.1184  0.0814  0.4520
  909MOL0     C19913  11.098   0.787   8.789  0.0457  1.7034  0.8603
  909MOL0     O19914  11.229   0.783   8.830  0.0733  0.4724 -0.2322
  909MOL0     C19915  11.271   0.904   8.895  0.3379  0.1864  1.0373
  909MOL0     C19916  11.422   0.873   8.940 -0.7005 -0.6927  0.4598
  909MOL0     C19917  11.509   0.867   8.810 -0.6951 -0.1832 -0.6102
  909MOL0     C19918  11.661   0.870   8.838 -0.4890 -0.7485 -0.5781
  909MOL0     C19919  11.721   0.745   8.876 -0.2988 -0.4117 -1.0944
  909MOL0     C19920  11.783   0.648   8.923 -0.7943 -0.1985  0.1728
  909MOL0     C19921  11.050   0.688   8.702 -0.1210 -0.0793 -0.2002
  909MOL0     C19922  10.917   0.684   8.655  1.1175  0.3866 -0.1595
  909MOL0     H19923  10.445   0.592   8.781 -0.2980 -0.6829  0.8997
  909MOL0     H19924  10.219   0.522   8.727 -1.3561 -0.0291 -2.2237
  909MOL0     H19925  10.086   0.331   8.600  1.6328  0.9895  0.2265
  909MOL0     H19926  10.149   0.301   8.438  1.7254 -1.5401  2.3701
  909MOL0     H19927   9.925   0.245   8.398  0.4871  0.3625  0.7308
  909MOL0     H19928   9.928   0.414   8.352  0.3316  0.1813  0.7230
  909MOL0     H19929   9.858   0.479   8.585 -1.0732  0.5904 -2.7443
  909MOL0     H19930   9.864   0.302   8.632 -2.8931 -2.1890 -0.5081
  909MOL0     H19931   9.699   0.273   8.426  3.0848 -1.3670  0.3189
  909MOL0     H19932   9.640   0.286   8.585 -0.1058 -2.7775 -1.1541
  909MOL0     H19933   9.714   0.535   8.423  0.8155 -2.6394 -0.8578
  909MOL0     H19934   9.628   0.527   8.569 -3.3550 -0.6684 -0.4089
  909MOL0     H19935   9.430   0.403   8.466  1.0750 -2.0175 -0.2355
  909MOL0     H19936   9.496   0.399   8.322  2.0063  1.1164 -0.5626
  909MOL0     H19937   9.506   0.648   8.289  4.5338 -2.6466  1.7023
  909MOL0     H19938   9.344   0.611   8.335  0.5657  1.9453  0.6116
  909MOL0     H19939   9.540   0.721   8.539 -0.0636  1.6886 -0.3779
  909MOL0     H19940   9.379   0.660   8.555  3.3329 -1.4292  2.3423
  909MOL0     H19941   9.574   0.938   8.371  0.4582 -1.6567  0.3356
  909MOL0     H19942   9.372   1.241   8.278 -0.0434  0.2595 -0.3915
  909MOL0     H19943   9.535   1.176   8.325 -1.0413  1.3686 -2.6943
  909MOL0     H19944   9.471   1.379   8.446 -0.7561  0.3370  1.6282
  909MOL0     H19945   9.493   1.233   8.550 -0.9586  0.1708  0.6155
  909MOL0     H19946   9.274   1.217   8.605  3.8498 -0.5603  0.4125
  909MOL0     H19947   9.305   1.390   8.624 -1.1898 -1.1241  2.9529
  909MOL0     H19948   9.152   1.273   8.379 -1.7782  4.2440 -2.8571
  909MOL0     H19949   9.226   1.432   8.381  1.7911 -0.8547  0.7134
  909MOL0     H19950   8.967   1.399   8.263  0.0573 -2.7810  2.4247
  909MOL0     H19951   8.760   1.545   8.207  2.0987 -0.4143 -0.4604
  909MOL0     H19952   8.610   1.980   8.242  0.2556 -2.6544  1.1399
  909MOL0     H19953   8.455   2.131   8.167  1.1842 -1.0099 -0.9685
  909MOL0     H19954   8.262   2.317   8.234  0.6318 -2.6217 -1.3803
  909MOL0     H19955   8.245   2.248   8.392 -1.3208 -1.9183  0.5367
  909MOL0     H19956   8.030   2.401   8.232  1.1925  2.1391  0.6922
  909MOL0     H19957   8.062   2.391   8.399  0.1423  1.7947 -1.2736
  909MOL0     H19958   7.953   2.167   8.419 -2.1827 -2.6240 -1.5386
  909MOL0     H19959   7.935   2.183   8.240 -0.4781  2.1768 -1.0812
  909MOL0     H19960   7.802   2.391   8.429 -0.9569  2.0424 -0.1157
  909MOL0     H19961   7.791   2.382   8.268 -2.1202 -1.1334 -0.1632
  909MOL0     H19962   7.669   2.188   8.458  0.0106  2.1711  1.6439
  909MOL0     H19963   7.697   2.141   8.284 -3.2482  0.0270 -0.0902
  909MOL0     H19964   7.487   2.233   8.285 -2.0441  2.4556 -1.9259
  909MOL0     H19965   7.581   2.372   8.224 -2.4672  0.2451 -0.3551
  909MOL0     H19966   7.564   2.397   8.521  0.2117 -1.3948 -0.7205
  909MOL0     H19967   7.510   2.497   8.383  2.6956 -0.4554 -1.3607
  909MOL0     H19968   7.296   2.342   8.373  1.3025 -1.2734 -0.6610
  909MOL0     H19969   7.316   2.415   8.533  2.6310  2.9201 -1.7035
  909MOL0     H19970   8.146   1.924   8.382 -0.0882 -0.0939  0.1559
  909MOL0     H19971   8.305   1.762   8.444 -3.8743  1.8335  1.4127
  909MOL0     H19972   8.714   1.660   8.608 -2.3826 -2.5871  0.0575
  909MOL0     H19973   8.932   1.525   8.665 -3.6652 -1.8867  1.6067
  909MOL0     H19974  10.290   0.573   8.319  1.2477  1.9776  0.3165
  909MOL0     H19975  10.537   0.636   8.373 -1.1932  1.4325 -0.8880
  909MOL0     H19976  10.790   0.934   8.829  0.4049  2.9795 -3.7670
  909MOL0     H19977  11.023   0.953   8.915  1.0051 -1.8549  2.0778
  909MOL0     H19978  11.206   0.923   8.981  0.0458 -0.4495  0.9567
  909MOL0     H19979  11.273   0.987   8.824 -0.2138 -1.5421 -1.0754
  909MOL0     H19980  11.451   0.960   9.000  1.4673 -0.1412 -1.2465
  909MOL0     H19981  11.437   0.779   8.995  0.4944 -1.6453 -1.4006
  909MOL0     H19982  11.476   0.944   8.740 -2.0549 -1.9238 -1.9662
  909MOL0     H19983  11.493   0.769   8.765 -1.5845  0.0059 -0.7328
  909MOL0     H19984  11.716   0.904   8.749  0.4143  0.4799  0.4120
  909MOL0     H19985  11.686   0.948   8.911  1.5187  0.2000 -2.1408
  909MOL0     H19986  11.834   0.561   8.959  0.9329  1.7481  2.7730
  909MOL0     H19987  11.110   0.606   8.665 -0.0742 -0.3271  0.4069
  909MOL0     H19988  10.908   0.613   8.573 -1.2264  0.5368 -0.1067
  910MOL0     O19989   6.895   3.844   7.020  0.3203 -0.7389  0.2925
  910MOL0     C19990   6.927   3.808   7.138 -0.5235  0.2885  0.7245
  910MOL0     O19991   6.844   3.770   7.242  0.0612 -1.3085  0.0853
  910MOL0     C19992   6.708   3.799   7.244 -0.2793  0.0281 -0.5168
  910MOL0     C19993   6.616   3.826   7.132 -1.6250  0.1505  0.0013
  910MOL0     C19994   6.486   3.853   7.166 -0.0948  0.1181  0.8899
  910MOL0     C19995   6.426   3.827   7.293 -0.4328 -1.1133 -0.8876
  910MOL0     O19996   6.301   3.852   7.326  1.6300 -0.0596  0.4382
  910MOL0     C19997   6.201   3.875   7.222  0.0822  0.0832  0.6584
  910MOL0     C19998   6.055   3.897   7.267 -0.8714 -0.1265 -0.0395
  910MOL0     C19999   5.996   3.769   7.333  0.1539  1.3046  0.0424
  910MOL0     C20000   5.843   3.786   7.348 -0.2053  0.1636  1.1365
  910MOL0     C20001   5.782   3.696   7.454 -1.0383 -0.1811 -0.1126
  910MOL0     C20002   5.636   3.733   7.470 -0.4769 -0.0898 -0.0142
  910MOL0     C20003   5.543   3.668   7.362  0.2384  0.8665 -0.7234
  910MOL0     C20004   5.518   3.519   7.388  0.5607  0.9002  0.2458
  910MOL0     N20005   5.445   3.465   7.261 -0.6432  0.5124  0.0645
  910MOL0     C20006   5.503   3.418   7.149  0.2870 -0.6948  0.0000
  910MOL0     C20007   5.403   3.390   7.061  0.1849 -0.5629  0.0245
  910MOL0     C20008   5.415   3.357   6.919  0.0435  0.2303  0.3553
  910MOL0     C20009   5.512   3.237   6.896 -0.2155 -0.3377  0.7306
  910MOL0     C20010   5.510   3.200   6.741  0.1647 -0.3488  0.5072
  910MOL0     C20011   5.624   3.092   6.727 -0.8714  0.4519  0.3842
  910MOL0     O20012   5.744   3.176   6.717 -0.9956 -0.2432 -0.2384
  910MOL0     C20013   5.863   3.109   6.723 -0.3131 -0.4125 -0.5541
  910MOL0     C20014   5.887   2.971   6.701  0.5023 -0.1296 -0.3871
  910MOL0     C20015   6.003   2.915   6.742  0.1473  0.4418  0.0123
  910MOL0     C20016   6.106   2.995   6.788 -0.5615 -0.1705  0.3373
  910MOL0     C20017   6.239   2.940   6.818 -0.3879  0.2283 -0.5305
  910MOL0     O20018   6.349   3.016   6.851  0.2817 -0.5541  0.1852
  910MOL0     C20019   6.475   2.960   6.873 -0.2162 -0.0256  0.1059
  910MOL0     C20020   6.589   3.046   6.841 -0.1363 -0.4138 -0.2769
  910MOL0     C20021   6.721   3.000   6.883 -0.3120 -0.5151 -0.0795
  910MOL0     C20022   6.729   2.880   6.954  0.1792  0.1606  0.3277
  910MOL0     O20023   6.843   2.825   7.005 -0.6169 -0.3054  0.1798
  910MOL0     C20024   6.972   2.834   6.938 -0.1029 -0.7865 -0.3898
  910MOL0     C20025   7.000   2.699   6.880 -0.1146  0.8204  0.2869
  910MOL0     C20026   7.110   2.694   6.775 -0.2173 -0.4018  0.0587
  910MOL0     C20027   7.253   2.720   6.824  1.1511 -0.3615  0.4873
  910MOL0     C20028   7.363   2.706   6.717  0.8080  0.6819  0.4566
  910MOL0     C20029   7.504   2.708   6.775  0.6074  0.4618  0.4635
  910MOL0     C20030   7.614   2.626   6.697 -0.5276 -0.2190  1.0663
  910MOL0     C20031   7.748   2.690   6.715 -0.8310 -0.4322  0.8154
  910MOL0    Cl20032   7.742   2.848   6.637  0.6316 -0.0305  0.2394
  910MOL0     C20033   6.619   2.809   6.995  0.2853  0.2029 -0.0541
  910MOL0     C20034   6.496   2.852   6.955  0.0619 -0.0158 -0.3161
  910MOL0     O20035   6.244   2.819   6.798 -0.2626  0.3679  0.1621
  910MOL0     C20036   6.081   3.132   6.803  0.4009 -0.0984 -0.9193
  910MOL0     C20037   5.959   3.197   6.780  0.2971  0.7422  0.7080
  910MOL0     N20038   5.284   3.416   7.125 -0.3121  0.5002 -0.7773
  910MOL0     N20039   5.313   3.469   7.241 -0.3383  0.3587  0.1431
  910MOL0     C20040   6.509   3.788   7.393 -0.1924  0.7550 -0.3869
  910MOL0     C20041   6.649   3.780   7.377  0.6592  0.3569 -0.6926
  910MOL0     C20042   7.070   3.784   7.165  0.0322 -0.1269  0.1827
  910MOL0     C20043   7.117   3.785   7.293 -0.3746  0.0083 -0.0537
  910MOL0     C20044   7.250   3.766   7.322 -0.1349  0.2324 -0.9108
  910MOL0     C20045   7.345   3.746   7.224 -0.4978 -0.5803 -0.2178
  910MOL0     O20046   7.463   3.708   7.271  0.0848 -0.7599  0.1438
  910MOL0     C20047   7.572   3.662   7.195  0.2629  0.6590  0.0516
  910MOL0     C20048   7.708   3.741   7.203 -0.6249 -0.8082 -0.6409
  910MOL0     C20049   7.826   3.660   7.162 -1.1348  0.8104 -0.2270
  910MOL0     C20050   7.883   3.564   7.270 -0.2507 -0.9773  0.7926
  910MOL0     C20051   8.015   3.520   7.229 -0.5130  0.3939 -0.0234
  910MOL0     C20052   8.132   3.509   7.203 -0.2298  0.7879 -0.0980
  910MOL0     C20053   7.302   3.729   7.085  0.4452  0.2976  0.2882
  910MOL0     C20054   7.165   3.750   7.068  0.4504 -0.3990  0.8714
  910MOL0     H20055   6.659   3.847   7.035 -2.3515 -1.0554 -0.6035
  910MOL0     H20056   6.436   3.909   7.087 -1.1617  0.4727  1.8061
  910MOL0     H20057   6.197   3.788   7.155  0.2072 -1.3292  2.3939
  910MOL0     H20058   6.220   3.969   7.170  2.6310  0.5043  2.1894
  910MOL0     H20059   5.987   3.915   7.183 -0.0303  2.3276 -0.2754
  910MOL0     H20060   6.049   3.984   7.334 -2.6036  0.9434 -1.4748
  910MOL0     H20061   6.042   3.760   7.432  2.8029 -0.8923 -1.2468
  910MOL0     H20062   6.024   3.678   7.279 -0.7387  1.9917 -1.6344
  910MOL0     H20063   5.828   3.891   7.374 -0.6098  0.1525  0.9580
  910MOL0     H20064   5.802   3.768   7.248  1.5486  0.3887  0.3277
  910MOL0     H20065   5.835   3.712   7.548 -2.4781 -0.4091  0.7747
  910MOL0     H20066   5.804   3.595   7.419  0.6058  0.0146  0.2939
  910MOL0     H20067   5.620   3.841   7.478  0.1608  0.1696 -1.7138
  910MOL0     H20068   5.604   3.694   7.567 -0.0080 -2.5974 -0.8081
  910MOL0     H20069   5.442   3.709   7.372 -0.5257 -0.3109 -3.0357
  910MOL0     H20070   5.580   3.679   7.260  0.5590 -0.0871 -0.7147
  910MOL0     H20071   5.458   3.505   7.479 -2.3930  2.4167 -1.2943
  910MOL0     H20072   5.611   3.462   7.394 -1.5251 -3.0211 -1.1020
  910MOL0     H20073   5.611   3.409   7.140  0.3640  0.7404 -0.8929
  910MOL0     H20074   5.457   3.442   6.866  3.3352 -0.8701  1.0040
  910MOL0     H20075   5.316   3.332   6.878  1.7495 -0.1796 -4.0062
  910MOL0     H20076   5.488   3.154   6.963 -1.0667 -0.3230  0.4630
  910MOL0     H20077   5.616   3.257   6.920  1.0854 -2.8258 -2.1916
  910MOL0     H20078   5.409   3.161   6.722  0.8439 -1.4475 -1.0799
  910MOL0     H20079   5.534   3.289   6.682  4.2777 -2.1099 -0.8061
  910MOL0     H20080   5.608   3.028   6.639  0.9161  1.4093 -0.6886
  910MOL0     H20081   5.636   3.025   6.812 -2.2123  0.4421  0.5931
  910MOL0     H20082   5.815   2.893   6.678 -0.7543  0.2792  1.8771
  910MOL0     H20083   5.999   2.807   6.734 -0.7473  0.4590  0.1843
  910MOL0     H20084   6.584   3.133   6.778  2.6015 -1.5503 -2.2694
  910MOL0     H20085   6.807   3.053   6.845 -0.1910  1.3911  2.5681
  910MOL0     H20086   7.043   2.860   7.017 -1.6629 -0.2421  0.8878
  910MOL0     H20087   6.962   2.917   6.867  2.6780  1.7303  1.8688
  910MOL0     H20088   6.914   2.664   6.823 -0.4023  0.9717  0.6292
  910MOL0     H20089   7.026   2.621   6.953  2.3969  0.1445 -1.2068
  910MOL0     H20090   7.096   2.778   6.707 -1.9832 -1.7048 -1.2852
  910MOL0     H20091   7.124   2.598   6.725  0.6745  0.1950 -0.8754
  910MOL0     H20092   7.259   2.814   6.880 -2.0161  1.3042 -1.6535
  910MOL0     H20093   7.268   2.637   6.894  3.6621  0.3181  0.8527
  910MOL0     H20094   7.348   2.779   6.637 -0.3987  1.5017  1.3742
  910MOL0     H20095   7.363   2.610   6.666  1.3688  2.5738 -3.5175
  910MOL0     H20096   7.505   2.665   6.875  2.5406 -1.9032 -0.4928
  910MOL0     H20097   7.529   2.815   6.782  0.0763  0.5147  2.0566
  910MOL0     H20098   7.616   2.520   6.726 -1.7983 -0.0333  1.8902
  910MOL0     H20099   7.580   2.630   6.593 -0.5733  1.4888  1.1307
  910MOL0     H20100   7.834   2.633   6.679  0.0100  1.5873 -0.5228
  910MOL0     H20101   7.756   2.708   6.822 -0.0978 -2.5861  1.1688
  910MOL0     H20102   6.623   2.712   7.044  2.8248  0.9160  1.3477
  910MOL0     H20103   6.409   2.797   6.990  0.1735 -0.7183 -1.1168
  910MOL0     H20104   6.154   3.192   6.855 -2.5838  1.4362  1.8620
  910MOL0     H20105   5.941   3.303   6.792 -2.6179  0.3816  0.2053
  910MOL0     H20106   6.464   3.756   7.487  0.6442  0.7900  0.0408
  910MOL0     H20107   6.717   3.761   7.460 -0.0558  0.3067 -0.1075
  910MOL0     H20108   7.053   3.792   7.381 -1.9915 -0.6729 -1.1294
  910MOL0     H20109   7.283   3.760   7.426  0.4896  1.3548 -1.0234
  910MOL0     H20110   7.553   3.662   7.088 -0.7598 -3.0291  0.0843
  910MOL0     H20111   7.588   3.557   7.219 -1.4544 -0.0889 -1.8088
  910MOL0     H20112   7.697   3.812   7.121  1.0707 -2.5677 -2.5334
  910MOL0     H20113   7.717   3.780   7.305 -3.3251 -1.5503 -0.0485
  910MOL0     H20114   7.907   3.725   7.126 -1.2470  0.4045 -1.2511
  910MOL0     H20115   7.802   3.597   7.076  4.0732 -0.9072 -0.7912
  910MOL0     H20116   7.889   3.616   7.367 -3.7071  0.7866  0.2183
  910MOL0     H20117   7.809   3.486   7.288 -1.3062 -0.2113 -0.1046
  910MOL0     H20118   8.234   3.496   7.174 -0.1985 -0.8612  0.6395
  910MOL0     H20119   7.367   3.688   7.008 -0.1244 -0.8151  0.3756
  910MOL0     H20120   7.146   3.735   6.962  1.4259 -0.3074  0.6723
  911MOL0     O20121   6.602   6.483   6.703  0.4340 -0.4350  0.4551
  911MOL0     C20122   6.667   6.541   6.791  0.8384  0.2237 -1.2991
  911MOL0     O20123   6.620   6.576   6.913 -0.0713  0.6277  0.3640
  911MOL0     C20124   6.483   6.570   6.948 -0.2676 -0.5098 -0.7120
  911MOL0     C20125   6.445   6.643   7.059 -0.1118  0.4743  0.9145
  911MOL0     C20126   6.314   6.638   7.111  0.2316 -1.0040 -0.4249
  911MOL0     C20127   6.207   6.572   7.045  0.1258 -0.0563 -0.2059
  911MOL0     O20128   6.080   6.549   7.099  0.5715  0.0872  0.5999
  911MOL0     C20129   6.038   6.645   7.205  0.3982 -0.3162  0.1992
  911MOL0     C20130   5.894   6.619   7.257  0.1566  0.5869  0.1798
  911MOL0     C20131   5.856   6.736   7.342  0.7457 -0.5964 -0.1402
  911MOL0     C20132   5.727   6.702   7.423  0.1410  0.2693  0.2923
  911MOL0     C20133   5.673   6.823   7.513  0.2445  0.1123  0.5337
  911MOL0     C20134   5.593   6.923   7.426  0.4688  0.0523 -0.0575
  911MOL0     C20135   5.488   6.996   7.506 -0.5657 -0.8553  0.0852
  911MOL0     C20136   5.545   7.101   7.597 -0.7830 -0.0509  0.1220
  911MOL0     N20137   5.429   7.176   7.651 -0.6441 -0.5328 -0.1459
  911MOL0     C20138   5.366   7.148   7.772 -0.7481 -0.6974 -0.2125
  911MOL0     C20139   5.254   7.224   7.787 -0.6243 -0.0636 -0.0296
  911MOL0     C20140   5.150   7.217   7.901  0.2451 -0.5141 -0.2539
  911MOL0     C20141   5.011   7.236   7.833  0.2052 -0.2144 -0.1384
  911MOL0     C20142   4.899   7.255   7.936  0.6745 -0.1835  0.0270
  911MOL0     C20143   4.765   7.273   7.858  0.5032  0.2304 -0.6922
  911MOL0     O20144   4.655   7.288   7.944  0.6520  0.2463 -0.1834
  911MOL0     C20145   4.534   7.316   7.896 -0.9721 -0.3012 -1.0210
  911MOL0     C20146   4.493   7.311   7.764  0.2477 -0.0164  0.2058
  911MOL0     C20147   4.358   7.342   7.735  0.2293 -0.2334 -0.1633
  911MOL0     C20148   4.270   7.382   7.836 -0.5449  0.6017  0.0083
  911MOL0     C20149   4.130   7.421   7.800 -0.2473  1.2573  0.6382
  911MOL0     O20150   4.032   7.382   7.887  0.3109  0.8551  0.1042
  911MOL0     C20151   3.904   7.380   7.852  0.3099  0.4720  0.2340
  911MOL0     C20152   3.840   7.258   7.872 -0.1773  0.6118 -0.4966
  911MOL0     C20153   3.700   7.252   7.860 -0.0979 -0.7509  0.2329
  911MOL0     C20154   3.620   7.360   7.816  0.0739  0.2692  0.3792
  911MOL0     O20155   3.488   7.338   7.783 -0.7431  0.0813 -0.5945
  911MOL0     C20156   3.428   7.440   7.700 -0.8097  0.6898 -0.2004
  911MOL0     C20157   3.288   7.400   7.652  0.3127  1.0179  0.0041
  911MOL0     C20158   3.260   7.307   7.529 -0.0942 -0.0182 -1.1465
  911MOL0     C20159   3.310   7.165   7.564 -0.3837 -0.9187 -0.5278
  911MOL0     C20160   3.197   7.097   7.645  0.2613 -0.3508  0.6974
  911MOL0     C20161   3.248   6.969   7.692  0.0420 -0.3897 -0.6598
  911MOL0     C20162   3.320   6.890   7.582 -1.0459  0.3786 -0.2853
  911MOL0     C20163   3.368   6.751   7.632 -0.6516  0.1500  0.1101
  911MOL0    Cl20164   3.426   6.639   7.503 -0.3400  0.1120 -0.6287
  911MOL0     C20165   3.688   7.479   7.786 -0.5532 -0.2495 -0.8771
  911MOL0     C20166   3.828   7.492   7.814 -0.0487  0.3533 -0.1604
  911MOL0     O20167   4.112   7.483   7.694  0.0246 -0.0623 -0.3601
  911MOL0     C20168   4.310   7.375   7.968 -0.3387 -0.2058 -0.8925
  911MOL0     C20169   4.440   7.336   7.996  0.2519 -0.2150 -0.3988
  911MOL0     N20170   5.250   7.299   7.675 -0.7256  0.4320  0.2353
  911MOL0     N20171   5.344   7.265   7.596  0.5741 -0.2403 -0.3372
  911MOL0     C20172   6.251   6.491   6.941  0.1502  1.2273 -0.6936
  911MOL0     C20173   6.384   6.494   6.883  0.1818  0.1957 -0.5156
  911MOL0     C20174   6.813   6.534   6.777  0.2300 -0.3826 -0.2989
  911MOL0     C20175   6.878   6.477   6.665  0.0452 -0.4331  0.1487
  911MOL0     C20176   7.015   6.465   6.670 -0.8024 -1.2143 -0.1746
  911MOL0     C20177   7.091   6.526   6.769 -0.6085  0.0431  0.2411
  911MOL0     O20178   7.224   6.521   6.758  0.1976  0.0443  0.5612
  911MOL0     C20179   7.307   6.582   6.865 -0.8746 -0.0012  1.0472
  911MOL0     C20180   7.450   6.526   6.846  0.0879  0.1546  0.7414
  911MOL0     C20181   7.569   6.568   6.931 -0.5609 -0.4252 -0.6257
  911MOL0     C20182   7.597   6.721   6.944  0.8308 -0.6273 -0.0817
  911MOL0     C20183   7.723   6.757   7.011 -0.4111 -0.7521 -0.8809
  911MOL0     C20184   7.817   6.799   7.069 -0.4265  0.0777 -0.4768
  911MOL0     C20185   7.029   6.592   6.876  1.5570  0.0286 -0.4463
  911MOL0     C20186   6.889   6.589   6.884 -0.9007  0.4583  0.5041
  911MOL0     H20187   6.531   6.688   7.108  0.5929  0.2326 -0.0525
  911MOL0     H20188   6.287   6.689   7.203 -2.2378  0.0229 -1.6224
  911MOL0     H20189   6.038   6.743   7.155  0.8448 -1.3092 -1.8703
  911MOL0     H20190   6.098   6.643   7.296  3.6008  1.1796 -1.6740
  911MOL0     H20191   5.898   6.522   7.308  3.1550 -2.1480 -4.5405
  911MOL0     H20192   5.826   6.604   7.173 -0.3147 -0.7285  0.7576
  911MOL0     H20193   5.851   6.819   7.271  1.9834 -0.1180  0.3010
  911MOL0     H20194   5.929   6.763   7.419 -0.5771  0.2510  0.8735
  911MOL0     H20195   5.650   6.665   7.355  1.3679 -2.2234  0.1445
  911MOL0     H20196   5.753   6.624   7.495  0.3186  1.3701  1.4601
  911MOL0     H20197   5.750   6.882   7.563 -0.4625 -0.1174  1.9381
  911MOL0     H20198   5.602   6.778   7.584  1.1409  3.1984  3.6642
  911MOL0     H20199   5.542   6.869   7.346 -1.2070  2.1199 -0.4729
  911MOL0     H20200   5.664   6.995   7.382  1.4793  0.9555  2.8153
  911MOL0     H20201   5.422   7.041   7.432  0.7577 -0.3959 -0.8417
  911MOL0     H20202   5.434   6.919   7.561 -0.3098 -2.1960 -1.4567
  911MOL0     H20203   5.608   7.174   7.547  0.2738 -0.9709  0.0690
  911MOL0     H20204   5.602   7.046   7.672 -1.7578 -1.3654 -0.0536
  911MOL0     H20205   5.393   7.073   7.846 -0.8619  0.3000  0.8549
  911MOL0     H20206   5.169   7.306   7.962 -0.6101  0.6183 -1.5802
  911MOL0     H20207   5.153   7.122   7.956  0.4475 -1.4248 -1.7725
  911MOL0     H20208   4.990   7.139   7.789  1.2607 -0.6302  0.2323
  911MOL0     H20209   5.011   7.325   7.769 -1.0107  1.6485  2.2540
  911MOL0     H20210   4.895   7.165   7.997  1.3981 -0.5889 -0.5082
  911MOL0     H20211   4.920   7.335   8.008  1.9024  1.7020 -2.2844
  911MOL0     H20212   4.738   7.201   7.779 -3.1951 -0.4626  0.9889
  911MOL0     H20213   4.770   7.370   7.808  0.6892  0.7757  0.3654
  911MOL0     H20214   4.564   7.292   7.684  0.4196  0.4885  0.2360
  911MOL0     H20215   4.318   7.359   7.635  2.8406 -0.2781 -1.3019
  911MOL0     H20216   3.882   7.163   7.905 -0.0032  0.6695 -0.5484
  911MOL0     H20217   3.639   7.163   7.874 -3.7381  1.5030 -0.1214
  911MOL0     H20218   3.492   7.461   7.614 -1.6479  2.1908 -0.5021
  911MOL0     H20219   3.407   7.534   7.753  0.5404 -0.1483  1.9529
  911MOL0     H20220   3.231   7.490   7.628 -2.4167 -1.3099 -3.3429
  911MOL0     H20221   3.237   7.355   7.738 -0.0563  2.8406  0.7897
  911MOL0     H20222   3.311   7.354   7.445  1.8031  0.3628  0.1537
  911MOL0     H20223   3.155   7.314   7.499 -0.8351  1.7960  1.4783
  911MOL0     H20224   3.319   7.120   7.464  2.9479  0.5686 -1.0291
  911MOL0     H20225   3.408   7.162   7.612 -0.8602 -3.3566  0.4409
  911MOL0     H20226   3.119   7.089   7.569  3.5000  0.0739 -2.9957
  911MOL0     H20227   3.173   7.159   7.732 -1.2864  0.5675 -0.3364
  911MOL0     H20228   3.169   6.913   7.742 -0.5948 -0.9183 -2.1996
  911MOL0     H20229   3.312   6.996   7.777 -1.5904  1.2941  0.1000
  911MOL0     H20230   3.238   6.864   7.514 -3.0244 -1.0772  2.4564
  911MOL0     H20231   3.403   6.945   7.537  1.7920 -0.4892  3.4570
  911MOL0     H20232   3.308   6.703   7.710  0.9528  1.8612  2.5382
  911MOL0     H20233   3.463   6.773   7.682 -0.9124 -0.0387  0.6902
  911MOL0     H20234   3.642   7.568   7.746 -2.2315 -0.4722  0.4494
  911MOL0     H20235   3.886   7.582   7.796  1.6080  0.2588  3.6576
  911MOL0     H20236   4.232   7.395   8.040  1.3962  0.2788  0.9506
  911MOL0     H20237   4.472   7.313   8.097 -0.0448  1.1513  0.0357
  911MOL0     H20238   6.168   6.436   6.898 -1.4446 -0.0215  3.4923
  911MOL0     H20239   6.386   6.437   6.790 -0.4422  0.1244 -0.4909
  911MOL0     H20240   6.824   6.444   6.577  0.2737  2.1871 -1.0810
  911MOL0     H20241   7.059   6.402   6.594 -3.2762 -1.5120 -1.4805
  911MOL0     H20242   7.279   6.549   6.966 -0.1732  1.5085  1.7852
  911MOL0     H20243   7.311   6.691   6.852  0.5257 -0.2030 -0.5985
  911MOL0     H20244   7.451   6.417   6.859 -0.2498 -0.0515 -0.7643
  911MOL0     H20245   7.475   6.543   6.741 -0.5329 -2.5378  0.0698
  911MOL0     H20246   7.658   6.523   6.886  0.3630  0.2519  0.4541
  911MOL0     H20247   7.557   6.528   7.032 -0.7194 -0.0167 -0.4801
  911MOL0     H20248   7.586   6.763   6.844 -0.7892  0.1467  0.3710
  911MOL0     H20249   7.520   6.768   7.007 -2.3058 -1.5456 -2.9125
  911MOL0     H20250   7.902   6.837   7.122  0.5773 -4.1964  1.4509
  911MOL0     H20251   7.084   6.648   6.951  1.0398  1.0629 -0.8233
  911MOL0     H20252   6.862   6.645   6.973  2.1607  0.2137  1.7244
  912MOL0     O20253   9.726   3.131   3.766 -0.8142  0.5019 -0.4761
  912MOL0     C20254   9.779   3.151   3.873 -0.6659  0.2610 -0.2215
  912MOL0     O20255   9.734   3.125   3.995  0.8855  0.7731  0.9088
  912MOL0     C20256   9.608   3.059   4.026  0.2546  0.1385 -0.1363
  912MOL0     C20257   9.496   3.051   3.942  0.3368 -0.6526  0.5836
  912MOL0     C20258   9.378   3.001   3.981 -0.8700  0.2335  0.1793
  912MOL0     C20259   9.351   2.954   4.112  0.7420 -0.9945 -0.7033
  912MOL0     O20260   9.218   2.916   4.136 -0.2973  0.4048  0.0183
  912MOL0     C20261   9.190   2.813   4.235 -0.6132  0.6041  0.2121
  912MOL0     C20262   9.111   2.898   4.335 -0.2963 -0.3808  0.3569
  912MOL0     C20263   9.032   2.815   4.444 -0.1750 -0.8425 -0.1940
  912MOL0     C20264   8.892   2.763   4.393  0.1949 -0.3634  0.5296
  912MOL0     C20265   8.800   2.722   4.507 -0.5591  0.4940  1.1570
  912MOL0     C20266   8.656   2.687   4.454  0.4538 -0.9556 -0.0413
  912MOL0     C20267   8.556   2.689   4.568 -1.0938 -0.2418  0.6447
  912MOL0     C20268   8.613   2.622   4.701 -0.2181  0.4818  0.4053
  912MOL0     N20269   8.516   2.587   4.801  0.3181 -0.5767 -0.4965
  912MOL0     C20270   8.393   2.531   4.776  0.1355 -0.3896 -0.0581
  912MOL0     C20271   8.322   2.568   4.886 -0.6951  0.1462 -0.0553
  912MOL0     C20272   8.184   2.545   4.908 -0.5592 -0.0376 -0.6633
  912MOL0     C20273   8.146   2.427   5.002  0.2581  0.2494 -0.5169
  912MOL0     C20274   8.002   2.420   5.044 -0.9131 -0.2080  0.1253
  912MOL0     C20275   7.980   2.325   5.166  0.3862  0.6795  1.3020
  912MOL0     O20276   7.851   2.324   5.222  0.4119 -0.0227 -0.5318
  912MOL0     C20277   7.833   2.267   5.344 -0.6706  0.0663 -0.0815
  912MOL0     C20278   7.910   2.166   5.400 -0.4291 -0.3820 -0.3374
  912MOL0     C20279   7.866   2.108   5.521  1.1300  0.1631 -1.1665
  912MOL0     C20280   7.737   2.137   5.578 -0.3984  0.7677  0.2264
  912MOL0     C20281   7.693   2.073   5.708  0.7382 -0.3495 -0.4831
  912MOL0     O20282   7.577   2.119   5.758 -0.7150 -0.3188  0.3165
  912MOL0     C20283   7.534   2.071   5.875  0.6516 -0.3203  0.0852
  912MOL0     C20284   7.571   2.132   6.004  0.6289  0.1643  0.4934
  912MOL0     C20285   7.518   2.072   6.121 -0.8547  0.1482 -0.0660
  912MOL0     C20286   7.425   1.968   6.119  0.7271 -0.4682 -0.2967
  912MOL0     O20287   7.375   1.924   6.238 -0.3264  0.1169  0.5491
  912MOL0     C20288   7.236   1.947   6.244 -0.1580  0.6886  0.1882
  912MOL0     C20289   7.177   1.938   6.385 -0.1970  0.2201  0.3004
  912MOL0     C20290   7.029   1.949   6.391 -0.2544  0.1994  0.4128
  912MOL0     C20291   6.972   2.093   6.385 -1.0514 -0.7081  0.2799
  912MOL0     C20292   6.823   2.084   6.369 -0.3731 -0.3882  0.7967
  912MOL0     C20293   6.762   2.222   6.351 -1.1130 -0.2590  0.1195
  912MOL0     C20294   6.622   2.221   6.307 -0.6306  0.2693  0.7868
  912MOL0     C20295   6.560   2.366   6.333  0.5348 -0.7563 -0.1198
  912MOL0    Cl20296   6.393   2.340   6.274 -0.1385  0.0217 -0.1193
  912MOL0     C20297   7.392   1.912   5.991  0.9224 -0.0256 -0.5853
  912MOL0     C20298   7.439   1.967   5.874 -0.6447 -0.7125 -0.1771
  912MOL0     O20299   7.774   1.993   5.763  0.1022 -0.1717 -0.1268
  912MOL0     C20300   7.664   2.231   5.513 -0.6002 -0.7549 -0.3679
  912MOL0     C20301   7.706   2.291   5.394 -1.1600  0.1858 -0.1910
  912MOL0     N20302   8.401   2.626   4.974  0.1220  0.4231  0.6661
  912MOL0     N20303   8.525   2.633   4.928  0.8736  0.2051  0.6346
  912MOL0     C20304   9.457   2.967   4.200  0.8545  0.4338 -0.1325
  912MOL0     C20305   9.584   3.010   4.161 -0.4926 -0.3319 -0.7512
  912MOL0     C20306   9.918   3.220   3.877  0.6958  0.2320  0.1616
  912MOL0     C20307  10.003   3.231   3.769 -0.6052  0.3848  0.0956
  912MOL0     C20308  10.126   3.292   3.776  0.8475  0.1461  0.0576
  912MOL0     C20309  10.167   3.343   3.896  0.1568  0.0556 -0.6321
  912MOL0     O20310  10.274   3.423   3.904 -0.0806 -0.4137 -0.2828
  912MOL0     C20311  10.350   3.419   4.031 -0.0377 -0.1447  0.5199
  912MOL0     C20312  10.497   3.472   4.008 -0.1097  0.6369  0.2727
  912MOL0     C20313  10.508   3.624   3.959 -0.2603  0.9678 -1.0687
  912MOL0     C20314  10.645   3.663   3.892 -0.3897  0.6556  0.2576
  912MOL0     C20315  10.755   3.625   3.982 -0.4633 -1.0422 -0.7055
  912MOL0     C20316  10.850   3.597   4.052  0.7789 -0.0724  0.7939
  912MOL0     C20317  10.086   3.326   4.001  0.6785 -0.1692  1.1563
  912MOL0     C20318   9.963   3.268   3.998  0.7276  0.1790  0.2919
  912MOL0     H20319   9.492   3.080   3.838 -3.0179 -0.8560  0.5432
  912MOL0     H20320   9.292   2.996   3.916 -1.1538 -2.1369  0.6508
  912MOL0     H20321   9.285   2.768   4.266 -0.2941  0.9309 -0.2789
  912MOL0     H20322   9.134   2.730   4.192 -1.1277  0.8311  0.4387
  912MOL0     H20323   9.042   2.964   4.283 -1.2278 -2.3297 -1.0277
  912MOL0     H20324   9.188   2.960   4.381 -0.3374 -0.4757  0.5571
  912MOL0     H20325   9.005   2.890   4.519  2.3213  0.7846 -0.7945
  912MOL0     H20326   9.089   2.734   4.489  0.6839 -0.0166  0.2574
  912MOL0     H20327   8.865   2.861   4.351  0.3327 -0.2804  0.6304
  912MOL0     H20328   8.910   2.683   4.320  1.8677  0.7664 -0.3912
  912MOL0     H20329   8.786   2.813   4.567  1.5041  1.5013  0.2087
  912MOL0     H20330   8.853   2.636   4.548  0.0695 -1.4364 -3.1613
  912MOL0     H20331   8.655   2.588   4.407 -3.4361 -0.6271 -1.0033
  912MOL0     H20332   8.625   2.757   4.376  3.7431 -1.0750 -1.6303
  912MOL0     H20333   8.532   2.792   4.595  1.4252  0.0837  1.9653
  912MOL0     H20334   8.466   2.638   4.533 -0.4965 -2.2336  1.8301
  912MOL0     H20335   8.679   2.697   4.746 -2.3836  1.0922  2.8430
  912MOL0     H20336   8.677   2.536   4.680 -2.4826 -1.3271  0.5119
  912MOL0     H20337   8.359   2.483   4.684  0.3675 -1.1173  0.2328
  912MOL0     H20338   8.134   2.531   4.812 -0.0199 -3.5235 -0.5621
  912MOL0     H20339   8.154   2.641   4.951 -1.9728 -1.4553  1.7876
  912MOL0     H20340   8.198   2.430   5.099 -1.6769  1.3857  0.5469
  912MOL0     H20341   8.174   2.337   4.948 -1.0333  1.5475 -3.5640
  912MOL0     H20342   7.971   2.525   5.054 -0.5238  0.1183 -1.6004
  912MOL0     H20343   7.953   2.373   4.958  1.3645  0.7076 -1.7805
  912MOL0     H20344   8.046   2.366   5.243  0.9240  1.2163  0.5810
  912MOL0     H20345   8.000   2.221   5.138 -2.2848  0.6655 -1.0137
  912MOL0     H20346   8.001   2.133   5.349  1.2086  1.8381  0.9497
  912MOL0     H20347   7.930   2.030   5.561  0.8566  1.0150  1.0203
  912MOL0     H20348   7.638   2.215   6.024  0.7981  0.0425  0.4202
  912MOL0     H20349   7.539   2.114   6.219  0.2324 -1.0379  0.2239
  912MOL0     H20350   7.187   1.873   6.181 -0.2404  0.6444  0.3026
  912MOL0     H20351   7.224   2.049   6.205  1.2611  0.1553 -1.7922
  912MOL0     H20352   7.229   2.008   6.451  1.9129 -1.1158  0.1599
  912MOL0     H20353   7.207   1.839   6.420 -3.6785 -0.8276  0.6591
  912MOL0     H20354   7.005   1.919   6.493 -0.3466  0.4504  0.4667
  912MOL0     H20355   6.982   1.886   6.315 -0.4451  0.4166  0.3489
  912MOL0     H20356   6.980   2.141   6.483 -1.8451  0.0907 -0.0270
  912MOL0     H20357   7.022   2.149   6.306  0.2483 -0.4682  1.2418
  912MOL0     H20358   6.771   2.044   6.456 -0.4238  1.3608  1.6127
  912MOL0     H20359   6.809   2.034   6.273  1.7817  0.0490  0.2036
  912MOL0     H20360   6.810   2.255   6.259 -1.4234  1.4230  0.5372
  912MOL0     H20361   6.775   2.291   6.435 -4.7568 -0.9395  1.4461
  912MOL0     H20362   6.594   2.201   6.203 -3.1305  1.5987  1.1157
  912MOL0     H20363   6.579   2.141   6.366 -0.7272 -1.0255 -0.9634
  912MOL0     H20364   6.615   2.425   6.259  3.0417 -1.9924  0.6548
  912MOL0     H20365   6.566   2.409   6.433 -2.0307  0.9064 -0.5947
  912MOL0     H20366   7.319   1.831   5.989  1.5646 -0.6635  0.6226
  912MOL0     H20367   7.408   1.923   5.780  0.8084 -3.3224  0.4684
  912MOL0     H20368   7.574   2.272   5.557  0.9434  1.2682  1.0823
  912MOL0     H20369   7.652   2.370   5.344 -1.2014 -0.2925 -0.9146
  912MOL0     H20370   9.437   2.929   4.300  0.3236  0.8801 -0.0656
  912MOL0     H20371   9.669   3.018   4.228 -1.1065  1.1160 -0.1240
  912MOL0     H20372   9.979   3.191   3.670  1.0248 -1.0407  0.2283
  912MOL0     H20373  10.184   3.300   3.685 -0.1178  3.2593 -0.4048
  912MOL0     H20374  10.357   3.315   4.064  0.1840  0.4955  2.6486
  912MOL0     H20375  10.310   3.483   4.110  1.1277 -0.9688  1.8405
  912MOL0     H20376  10.548   3.455   4.103 -2.0728 -1.6026  1.0414
  912MOL0     H20377  10.543   3.407   3.933  1.5714  3.6950 -1.5533
  912MOL0     H20378  10.492   3.669   4.057  1.1818 -1.3819  0.3570
  912MOL0     H20379  10.424   3.644   3.892 -1.6306 -0.7213  0.0603
  912MOL0     H20380  10.648   3.595   3.807 -1.4179 -0.4873  1.0977
  912MOL0     H20381  10.640   3.769   3.865  3.1539  0.0475 -3.9106
  912MOL0     H20382  10.942   3.591   4.106  2.0206  1.9062 -0.9245
  912MOL0     H20383  10.112   3.361   4.100  3.0854 -1.8006  1.1838
  912MOL0     H20384   9.909   3.249   4.090  2.3618 -1.1682  1.0209
  913MOL0     O20385   5.266   9.226   3.847  0.4513 -0.1620 -0.0668
  913MOL0     C20386   5.303   9.311   3.767  0.4118  0.1374 -0.1915
  913MOL0     O20387   5.207   9.395   3.702 -0.2420 -0.2288  0.5178
  913MOL0     C20388   5.081   9.393   3.748  0.8382  0.2885  0.4316
  913MOL0     C20389   4.974   9.329   3.685  0.1040 -0.4628  0.3842
  913MOL0     C20390   4.837   9.340   3.731  0.2689  0.1162  1.2220
  913MOL0     C20391   4.812   9.412   3.839  0.3460 -0.6765 -0.2200
  913MOL0     O20392   4.682   9.411   3.888 -0.2532  0.3606 -0.6275
  913MOL0     C20393   4.629   9.285   3.934 -0.1608 -0.2822 -0.1930
  913MOL0     C20394   4.479   9.282   3.938  0.7747  0.4266 -0.4899
  913MOL0     C20395   4.425   9.165   4.012  0.2200  0.0024 -0.0764
  913MOL0     C20396   4.291   9.114   3.968 -0.4227 -0.5093 -0.2429
  913MOL0     C20397   4.277   8.975   4.034  0.2418 -0.6828  0.3895
  913MOL0     C20398   4.131   8.935   4.038 -0.1382 -0.5117  0.5425
  913MOL0     C20399   4.114   8.792   4.104 -0.5143 -0.4082 -0.5495
  913MOL0     C20400   4.055   8.684   4.017  0.2210 -0.2830 -1.0843
  913MOL0     N20401   3.910   8.691   4.012 -0.4763  0.2090  0.1967
  913MOL0     C20402   3.841   8.722   3.891 -0.2727 -0.3435 -0.2874
  913MOL0     C20403   3.711   8.716   3.928 -1.0822  0.3492  0.6403
  913MOL0     C20404   3.591   8.751   3.831 -0.4315 -0.4185 -0.7132
  913MOL0     C20405   3.503   8.627   3.783 -0.1076 -0.1478 -0.8301
  913MOL0     C20406   3.444   8.536   3.892  0.8765  0.2475  0.0638
  913MOL0     C20407   3.362   8.599   3.998  0.2785  0.3840 -0.4572
  913MOL0     O20408   3.258   8.678   3.931  0.3376 -0.2579  0.5463
  913MOL0     C20409   3.124   8.653   3.943  0.2285 -1.3486  0.2290
  913MOL0     C20410   3.053   8.700   3.832 -0.1194  0.4898 -0.3940
  913MOL0     C20411   2.914   8.680   3.831 -0.2364 -0.4197  0.8212
  913MOL0     C20412   2.842   8.624   3.945 -0.2332 -1.1029  0.3140
  913MOL0     C20413   2.696   8.618   3.944  0.1245  0.2035 -0.1346
  913MOL0     O20414   2.629   8.628   3.824  0.3572  0.3923  0.3973
  913MOL0     C20415   2.486   8.622   3.813  0.1533  0.3704 -0.6671
  913MOL0     C20416   2.429   8.712   3.726 -0.7421  0.1623  0.7090
  913MOL0     C20417   2.294   8.717   3.707 -0.2418  0.0894 -0.1572
  913MOL0     C20418   2.203   8.630   3.773  0.9261 -0.0793  0.9511
  913MOL0     O20419   2.075   8.619   3.732 -0.0399  0.1767 -0.1320
  913MOL0     C20420   2.009   8.729   3.657  0.1755  0.6494 -0.7627
  913MOL0     C20421   1.878   8.672   3.596 -1.1694 -0.6614  0.4063
  913MOL0     C20422   1.763   8.695   3.683  0.9687  0.9820 -0.7840
  913MOL0     C20423   1.631   8.617   3.656 -0.5160  0.4214 -0.6300
  913MOL0     C20424   1.559   8.647   3.533 -0.0918 -0.3344  1.0772
  913MOL0     C20425   1.469   8.531   3.484  0.2708  0.4384  0.2072
  913MOL0     C20426   1.405   8.546   3.349  1.9694  0.4157  0.9786
  913MOL0     C20427   1.286   8.448   3.332 -0.0342  0.3507  0.1879
  913MOL0    Cl20428   1.220   8.448   3.165 -0.2742 -0.4115 -0.1599
  913MOL0     C20429   2.262   8.550   3.873 -0.5079 -0.2350  0.4533
  913MOL0     C20430   2.398   8.551   3.899  0.0621  0.1618  0.3686
  913MOL0     O20431   2.637   8.598   4.053 -0.2339  0.2979  0.3201
  913MOL0     C20432   2.918   8.587   4.057  0.1160 -0.5553 -0.3983
  913MOL0     C20433   3.059   8.593   4.056  0.7029  0.2546 -0.6045
  913MOL0     N20434   3.700   8.685   4.055 -0.4839 -0.2000 -1.1462
  913MOL0     N20435   3.819   8.668   4.113  0.8197 -0.2536  1.2133
  913MOL0     C20436   4.916   9.483   3.909  0.1716 -0.3243 -0.0486
  913MOL0     C20437   5.053   9.468   3.865  0.9135 -0.3974  0.7440
  913MOL0     C20438   5.441   9.312   3.727  0.6986 -0.5440  0.1939
  913MOL0     C20439   5.476   9.388   3.617  0.1092 -0.7853 -0.5480
  913MOL0     C20440   5.599   9.378   3.560 -0.3718  0.0151  0.0511
  913MOL0     C20441   5.691   9.294   3.614 -0.2372  0.2906 -0.0372
  913MOL0     O20442   5.822   9.278   3.579 -0.3708 -0.3010  0.0664
  913MOL0     C20443   5.875   9.360   3.480  0.8141 -0.2453  0.4851
  913MOL0     C20444   6.013   9.302   3.484  0.4533 -0.1611  0.6433
  913MOL0     C20445   6.107   9.398   3.397  0.1589 -0.0648 -0.4767
  913MOL0     C20446   6.250   9.355   3.386  0.1838  0.2593 -0.6067
  913MOL0     C20447   6.262   9.234   3.303 -0.0605  0.4270 -0.0291
  913MOL0     C20448   6.266   9.130   3.239  0.2594  0.4525  1.1852
  913MOL0     C20449   5.664   9.220   3.733 -0.6587  0.1850 -0.1103
  913MOL0     C20450   5.541   9.228   3.787  0.8783 -0.9146 -0.3499
  913MOL0     H20451   4.988   9.279   3.590  0.8151  2.2841 -1.0638
  913MOL0     H20452   4.759   9.291   3.674  0.1225  2.4159 -0.7270
  913MOL0     H20453   4.674   9.271   4.033 -1.7850 -5.3632  0.1106
  913MOL0     H20454   4.666   9.206   3.869  1.1506  0.5209 -0.4816
  913MOL0     H20455   4.436   9.280   3.837  2.7236  2.4780 -1.4564
  913MOL0     H20456   4.448   9.373   3.989 -0.3001  0.8255 -1.8243
  913MOL0     H20457   4.412   9.181   4.120 -1.4479 -0.5254 -0.1669
  913MOL0     H20458   4.504   9.091   3.995 -0.0868 -0.5703  0.9069
  913MOL0     H20459   4.212   9.183   3.997 -0.7407 -1.9098  2.6047
  913MOL0     H20460   4.303   9.101   3.860  2.6183 -0.4065 -0.0161
  913MOL0     H20461   4.303   8.981   4.140  0.5688  0.1547  0.2739
  913MOL0     H20462   4.331   8.892   3.988 -2.1903 -1.5404 -1.1626
  913MOL0     H20463   4.092   8.935   3.936  0.7933  2.1904  0.1077
  913MOL0     H20464   4.082   9.013   4.098  0.9289  0.1780  0.5469
  913MOL0     H20465   4.206   8.759   4.153 -0.8015 -0.8013 -0.2692
  913MOL0     H20466   4.047   8.801   4.190  2.2977 -1.9757  1.9770
  913MOL0     H20467   4.084   8.588   4.060  2.4220  1.4523  1.6149
  913MOL0     H20468   4.098   8.689   3.916 -0.4291 -0.3543 -1.3697
  913MOL0     H20469   3.880   8.737   3.791  3.9176  0.9153  1.3133
  913MOL0     H20470   3.633   8.801   3.743  0.2603 -0.2068 -0.2699
  913MOL0     H20471   3.525   8.813   3.893 -1.2966 -1.6047 -0.3996
  913MOL0     H20472   3.551   8.557   3.713 -0.6158 -0.7865 -0.5499
  913MOL0     H20473   3.418   8.665   3.727 -0.0264 -1.3798 -1.8388
  913MOL0     H20474   3.383   8.461   3.840 -1.2795  2.1996 -0.4036
  913MOL0     H20475   3.524   8.485   3.947  0.4818  0.1719  0.5701
  913MOL0     H20476   3.427   8.667   4.052  1.7003 -0.8035 -0.6165
  913MOL0     H20477   3.318   8.530   4.071  1.7992 -2.0037 -1.6571
  913MOL0     H20478   3.118   8.744   3.756 -1.0709  2.0267 -0.3720
  913MOL0     H20479   2.857   8.692   3.740 -2.2903 -2.4867  1.7276
  913MOL0     H20480   2.497   8.783   3.681  0.2855 -1.3997 -0.2836
  913MOL0     H20481   2.257   8.786   3.632  0.3036 -1.1492 -1.6060
  913MOL0     H20482   2.074   8.761   3.575  1.3414  4.9883  1.5619
  913MOL0     H20483   1.981   8.814   3.719 -3.0493  0.3702 -1.6674
  913MOL0     H20484   1.893   8.565   3.577  0.3397 -0.6722  1.4780
  913MOL0     H20485   1.866   8.727   3.502 -1.1326 -3.0017 -1.0761
  913MOL0     H20486   1.738   8.801   3.672 -0.0279  0.8848  0.4016
  913MOL0     H20487   1.794   8.684   3.787 -2.0097  1.1722  0.2113
  913MOL0     H20488   1.660   8.511   3.653  0.9289  0.6915  1.5187
  913MOL0     H20489   1.559   8.626   3.739  2.3940 -0.3908  2.1982
  913MOL0     H20490   1.632   8.667   3.454  0.4759 -2.6327  0.9560
  913MOL0     H20491   1.502   8.740   3.541 -0.4150 -0.5815  1.6766
  913MOL0     H20492   1.383   8.527   3.552 -0.1428  1.1358 -0.2664
  913MOL0     H20493   1.520   8.434   3.494 -2.8817 -1.2851  0.8100
  913MOL0     H20494   1.373   8.650   3.333 -1.6969 -0.7057  0.0364
  913MOL0     H20495   1.478   8.518   3.273 -0.1710 -1.9290 -0.3750
  913MOL0     H20496   1.202   8.472   3.398  0.5061  0.0185  1.0036
  913MOL0     H20497   1.318   8.347   3.358  1.9063  0.6063 -1.0400
  913MOL0     H20498   2.196   8.480   3.924 -1.5719 -0.6016 -1.3317
  913MOL0     H20499   2.441   8.481   3.970 -1.4438 -2.7055 -1.3844
  913MOL0     H20500   2.874   8.541   4.145 -1.3815 -1.4089 -1.5450
  913MOL0     H20501   3.111   8.536   4.132 -0.3556 -2.8513 -2.0565
  913MOL0     H20502   4.889   9.542   3.995 -4.3535 -1.2554 -0.5556
  913MOL0     H20503   5.138   9.520   3.907  1.7414 -2.2352  1.4079
  913MOL0     H20504   5.398   9.443   3.566 -0.2701  0.6287  1.4257
  913MOL0     H20505   5.622   9.413   3.460  3.6619  1.1062  1.1933
  913MOL0     H20506   5.869   9.463   3.516  1.0330  0.4724 -1.4653
  913MOL0     H20507   5.824   9.352   3.384 -2.7998  1.3759  2.0618
  913MOL0     H20508   6.057   9.292   3.584  1.4773  1.9390  0.4559
  913MOL0     H20509   6.011   9.202   3.439  2.5770 -0.1756  0.4930
  913MOL0     H20510   6.113   9.499   3.438  1.4069 -0.7901  1.2471
  913MOL0     H20511   6.074   9.414   3.294  2.4809  2.3203 -0.9459
  913MOL0     H20512   6.315   9.436   3.352  0.7681 -0.2186 -0.6321
  913MOL0     H20513   6.282   9.340   3.489 -1.1415  3.4528  0.4171
  913MOL0     H20514   6.267   9.036   3.188 -3.4783  0.7866  0.1993
  913MOL0     H20515   5.738   9.156   3.781 -1.4999 -0.2971  0.5874
  913MOL0     H20516   5.522   9.182   3.884  0.0561  2.5275  1.2909
  914MOL0     O20517   1.129   8.919   7.614  0.2933 -0.6803  0.8405
  914MOL0     C20518   1.154   8.850   7.717 -1.2908  0.3533  0.8315
  914MOL0     O20519   1.079   8.749   7.763 -0.8221 -0.1520  0.2450
  914MOL0     C20520   0.953   8.726   7.724  0.3850 -0.7744 -0.7885
  914MOL0     C20521   0.924   8.720   7.591 -0.4072  0.5913  0.9512
  914MOL0     C20522   0.803   8.680   7.541  0.8021 -0.7191  0.4839
  914MOL0     C20523   0.700   8.653   7.634 -0.8422 -0.7272  0.2756
  914MOL0     O20524   0.581   8.607   7.581 -0.7526  0.5255  0.1021
  914MOL0     C20525   0.481   8.585   7.669 -0.4767  0.0197 -0.2154
  914MOL0     C20526   0.350   8.559   7.599  0.7332 -0.5625  0.7030
  914MOL0     C20527   0.239   8.544   7.703  0.4814  0.4568  0.4383
  914MOL0     C20528   0.101   8.574   7.649  0.0041 -0.7050  0.6976
  914MOL0     C20529   0.005   8.580   7.762  0.2815 -0.3014 -0.2638
  914MOL0     C20530  -0.081   8.444   7.778 -0.1108 -0.3968  0.9192
  914MOL0     C20531  -0.000   8.332   7.851  0.2163 -0.6443  0.1492
  914MOL0     C20532  -0.080   8.233   7.938 -0.3378  0.7455 -0.6285
  914MOL0     N20533  -0.150   8.298   8.046  0.3695 -0.1075 -0.3558
  914MOL0     C20534  -0.293   8.304   8.064 -0.6794 -0.3385 -0.0664
  914MOL0     C20535  -0.309   8.368   8.183  0.1194 -0.1338 -0.4838
  914MOL0     C20536  -0.446   8.407   8.240  0.0484  0.4103  0.7646
  914MOL0     C20537  -0.453   8.384   8.387 -0.2867 -0.2537  0.3981
  914MOL0     C20538  -0.594   8.420   8.443 -0.1657  0.4457  0.4912
  914MOL0     C20539  -0.619   8.350   8.575 -0.2430  0.8077 -1.0361
  914MOL0     O20540  -0.720   8.421   8.660  0.2501 -0.5851  0.3088
  914MOL0     C20541  -0.851   8.400   8.640 -0.1730  0.2174  0.0997
  914MOL0     C20542  -0.909   8.295   8.557 -0.1125  0.1761 -0.2633
  914MOL0     C20543  -1.043   8.260   8.558 -0.4464  0.5764 -0.0444
  914MOL0     C20544  -1.133   8.326   8.644  0.4086 -0.3987  0.0633
  914MOL0     C20545  -1.275   8.295   8.631 -1.0182 -1.1627 -0.2110
  914MOL0     O20546  -1.358   8.396   8.672  0.2050 -0.1812 -0.2480
  914MOL0     C20547  -1.485   8.371   8.708  0.2753 -0.5289  0.6914
  914MOL0     C20548  -1.586   8.312   8.626  0.5258  0.0724 -0.6697
  914MOL0     C20549  -1.720   8.289   8.667 -0.1123 -0.8387  0.1072
  914MOL0     C20550  -1.759   8.330   8.792  0.4903 -0.4060 -0.2446
  914MOL0     O20551  -1.879   8.299   8.853 -0.1221 -0.6405 -0.6793
  914MOL0     C20552  -2.000   8.292   8.775 -0.7306 -0.2031  0.7574
  914MOL0     C20553  -2.033   8.423   8.692  1.3424 -0.0221  0.0271
  914MOL0     C20554  -2.171   8.426   8.627 -0.5735 -0.0147 -0.1103
  914MOL0     C20555  -2.163   8.353   8.495 -0.3856  0.0888  0.1271
  914MOL0     C20556  -2.295   8.360   8.409  0.4203 -1.1122 -0.1691
  914MOL0     C20557  -2.276   8.326   8.266  0.0437 -0.2173  0.1899
  914MOL0     C20558  -2.399   8.299   8.176 -0.3071  0.0580  0.2170
  914MOL0     C20559  -2.358   8.238   8.047 -0.4873 -0.6872  0.2134
  914MOL0    Cl20560  -2.197   8.297   7.978 -0.1358  0.2945 -0.3546
  914MOL0     C20561  -1.670   8.396   8.875  0.2325 -0.1832  0.2257
  914MOL0     C20562  -1.534   8.416   8.838  1.0391  1.0829  0.7950
  914MOL0     O20563  -1.304   8.182   8.601 -0.0434 -0.7385  0.4836
  914MOL0     C20564  -1.086   8.435   8.718  0.9746  0.1333  0.3949
  914MOL0     C20565  -0.943   8.470   8.721  0.1289 -0.0524  0.0152
  914MOL0     N20566  -0.186   8.404   8.232  0.0249  0.2103 -0.4526
  914MOL0     N20567  -0.088   8.370   8.150  0.5963 -0.9262  0.5914
  914MOL0     C20568   0.729   8.667   7.772  0.5915 -0.4972  0.6913
  914MOL0     C20569   0.855   8.704   7.816  0.0087  0.4313 -0.2675
  914MOL0     C20570   1.285   8.869   7.780 -0.0883  0.6035  0.0775
  914MOL0     C20571   1.328   8.803   7.902 -0.2360  0.6526 -0.6355
  914MOL0     C20572   1.462   8.822   7.948  0.1515 -0.4043 -0.0938
  914MOL0     C20573   1.558   8.902   7.892 -0.3878  0.1823 -0.2453
  914MOL0     O20574   1.684   8.918   7.946  0.7630  0.2791 -0.1065
  914MOL0     C20575   1.709   8.835   8.059 -0.1001 -0.4363 -0.5468
  914MOL0     C20576   1.851   8.865   8.111  0.2479 -0.2305 -0.5469
  914MOL0     C20577   1.872   8.996   8.184  0.0791  0.2584  0.2741
  914MOL0     C20578   2.012   9.004   8.258  0.8445 -0.5298  0.0405
  914MOL0     C20579   2.130   8.987   8.171  0.3261  0.1557 -0.1438
  914MOL0     C20580   2.215   8.980   8.089  0.1459  0.5329 -0.0643
  914MOL0     C20581   1.517   8.964   7.776  0.3164 -0.1176  0.1759
  914MOL0     C20582   1.387   8.951   7.721  0.7261  0.6263 -0.8306
  914MOL0     H20583   1.008   8.728   7.523 -0.7473  1.9043  0.6539
  914MOL0     H20584   0.797   8.660   7.435  1.5587  1.7343 -0.0811
  914MOL0     H20585   0.464   8.674   7.731  1.7762 -0.2660  0.9307
  914MOL0     H20586   0.503   8.494   7.725 -1.8670  0.5031  1.2027
  914MOL0     H20587   0.351   8.475   7.529  3.2780 -2.0913  2.4209
  914MOL0     H20588   0.344   8.650   7.539  2.4546  0.6970  2.3314
  914MOL0     H20589   0.267   8.610   7.785  1.0582  0.4189  0.2761
  914MOL0     H20590   0.240   8.443   7.746  0.6781 -0.5697 -1.8309
  914MOL0     H20591   0.111   8.675   7.609 -0.2420 -1.3457 -1.1071
  914MOL0     H20592   0.073   8.519   7.558  3.3747 -2.4676  0.5605
  914MOL0     H20593  -0.063   8.662   7.736 -0.1030 -1.2955 -2.7671
  914MOL0     H20594   0.055   8.606   7.856 -2.7742  2.3888  0.8006
  914MOL0     H20595  -0.109   8.415   7.676  2.6705  2.4521 -0.8262
  914MOL0     H20596  -0.166   8.471   7.841 -0.9617  0.9120 -0.6990
  914MOL0     H20597   0.040   8.270   7.769  1.0980  1.4629 -1.0919
  914MOL0     H20598   0.073   8.371   7.921  0.8042  0.4845 -1.0457
  914MOL0     H20599  -0.002   8.175   7.987  1.1714  0.6741 -2.9727
  914MOL0     H20600  -0.147   8.175   7.875 -0.4954 -1.3774  1.3571
  914MOL0     H20601  -0.381   8.285   8.003 -1.1494  1.5471 -0.0171
  914MOL0     H20602  -0.529   8.354   8.192  0.9204  1.7249 -2.4696
  914MOL0     H20603  -0.465   8.513   8.216  0.7919  0.2842 -0.4753
  914MOL0     H20604  -0.373   8.432   8.444 -0.4737 -2.0959  2.3531
  914MOL0     H20605  -0.434   8.278   8.408 -1.5565 -0.8206 -1.0520
  914MOL0     H20606  -0.594   8.528   8.459  0.9174  0.3627  1.2022
  914MOL0     H20607  -0.669   8.388   8.370  0.8436 -2.8918  0.7213
  914MOL0     H20608  -0.526   8.352   8.633 -1.0300  0.3697  0.2999
  914MOL0     H20609  -0.642   8.245   8.559  0.3531  0.2468  1.3448
  914MOL0     H20610  -0.851   8.249   8.478  0.5438  0.2165  0.1873
  914MOL0     H20611  -1.086   8.190   8.487 -2.1006  0.2216  1.2513
  914MOL0     H20612  -1.545   8.269   8.535  3.3549 -0.8780  0.9293
  914MOL0     H20613  -1.786   8.239   8.597 -1.5655  1.0249  0.0863
  914MOL0     H20614  -2.083   8.283   8.846 -1.2185  2.0554  0.5773
  914MOL0     H20615  -2.002   8.206   8.708 -0.9945 -1.4772  2.3436
  914MOL0     H20616  -1.953   8.445   8.620  0.1683 -1.4843 -1.8517
  914MOL0     H20617  -2.044   8.512   8.754 -1.5486 -1.0239  1.1177
  914MOL0     H20618  -2.199   8.531   8.616 -0.0916  0.2961  1.3725
  914MOL0     H20619  -2.248   8.377   8.688 -0.8596 -1.0408 -1.2638
  914MOL0     H20620  -2.075   8.393   8.444 -1.0743 -0.0521 -1.2172
  914MOL0     H20621  -2.140   8.247   8.504 -2.5764 -0.4016  0.4982
  914MOL0     H20622  -2.353   8.452   8.419  0.2115 -1.4571  2.3983
  914MOL0     H20623  -2.363   8.284   8.450 -2.9143  2.1263  0.8041
  914MOL0     H20624  -2.215   8.236   8.279  1.8408  1.3023  3.2471
  914MOL0     H20625  -2.219   8.406   8.218 -1.2309  0.1462 -0.7697
  914MOL0     H20626  -2.463   8.221   8.219  0.8059 -0.2760  1.3310
  914MOL0     H20627  -2.460   8.385   8.146 -0.1897 -0.3676 -1.2990
  914MOL0     H20628  -2.438   8.254   7.974 -0.6445 -1.5319  0.1909
  914MOL0     H20629  -2.353   8.128   8.046 -1.5187 -0.8705 -3.9018
  914MOL0     H20630  -1.694   8.443   8.970 -0.4370  0.0045 -0.0293
  914MOL0     H20631  -1.462   8.474   8.897  0.2981  2.9457 -0.0534
  914MOL0     H20632  -1.144   8.490   8.792 -0.9933 -2.7983  1.2128
  914MOL0     H20633  -0.887   8.541   8.781  1.4879 -0.3573 -0.8539
  914MOL0     H20634   0.647   8.643   7.839  1.0455 -0.2128  1.3583
  914MOL0     H20635   0.872   8.705   7.923 -0.2638 -1.8612 -0.1642
  914MOL0     H20636   1.260   8.742   7.962  0.9668  1.4103  1.5887
  914MOL0     H20637   1.480   8.758   8.034  1.7415  0.5459  0.3329
  914MOL0     H20638   1.703   8.728   8.037  0.8586 -0.1846 -2.2042
  914MOL0     H20639   1.643   8.848   8.145  2.0491 -1.1629  1.3230
  914MOL0     H20640   1.868   8.789   8.188 -0.8040 -1.1026 -1.1471
  914MOL0     H20641   1.917   8.859   8.024 -2.8351  2.7945 -3.3732
  914MOL0     H20642   1.782   9.004   8.245  0.3450 -1.5324  0.9580
  914MOL0     H20643   1.868   9.083   8.117 -1.7215  0.1874  0.2576
  914MOL0     H20644   2.019   9.102   8.306  0.8139  0.5526 -2.0373
  914MOL0     H20645   2.018   8.920   8.328  0.6939 -0.4321  0.1677
  914MOL0     H20646   2.277   8.982   8.002  1.8075  1.2670  1.0725
  914MOL0     H20647   1.591   9.029   7.729  0.3304  0.4431  0.9636
  914MOL0     H20648   1.362   9.003   7.629 -2.9500 -1.6000 -1.3312
  915MOL0     O20649  11.215   7.406   5.134 -0.4379 -0.1016 -0.6818
  915MOL0     C20650  11.262   7.358   5.235  0.3877 -0.4210 -0.6631
  915MOL0     O20651  11.193   7.292   5.331 -0.1159 -0.3795 -0.4498
  915MOL0     C20652  11.067   7.259   5.320  0.5454  0.5681  0.5313
  915MOL0     C20653  11.011   7.217   5.197  0.5777  0.0614 -0.1394
  915MOL0     C20654  10.876   7.172   5.188 -0.2237 -1.1349  0.3788
  915MOL0     C20655  10.807   7.156   5.311  0.1117 -0.7364  0.2554
  915MOL0     O20656  10.677   7.101   5.318 -0.1677  0.0258  0.6028
  915MOL0     C20657  10.681   6.965   5.357 -0.2226 -0.8553 -0.7942
  915MOL0     C20658  10.643   6.882   5.235  0.7903 -0.6494  0.1339
  915MOL0     C20659  10.517   6.922   5.161  0.0310  0.0779  0.5241
  915MOL0     C20660  10.388   6.923   5.252 -0.0509 -0.4190  1.2541
  915MOL0     C20661  10.261   6.947   5.162 -1.5079  0.4990  0.4680
  915MOL0     C20662  10.143   6.981   5.245  1.1700  0.0235 -0.2633
  915MOL0     C20663  10.104   6.893   5.369 -0.0346  0.4398 -0.3216
  915MOL0     C20664  10.015   6.769   5.339 -0.2003  0.5847  0.5465
  915MOL0     N20665   9.892   6.795   5.261  0.5211 -0.5650 -0.1325
  915MOL0     C20666   9.780   6.860   5.317 -0.5655 -0.0479 -0.1711
  915MOL0     C20667   9.694   6.865   5.209  0.2945  0.3448 -0.0147
  915MOL0     C20668   9.556   6.926   5.203 -0.0620  0.6820 -0.2570
  915MOL0     C20669   9.455   6.923   5.320 -0.4490  0.0339  0.2405
  915MOL0     C20670   9.420   6.787   5.375 -0.6611  0.0742 -0.3463
  915MOL0     C20671   9.313   6.804   5.481  0.2660  0.3665 -0.6556
  915MOL0     O20672   9.297   6.675   5.547  0.3215  0.4310  1.0121
  915MOL0     C20673   9.177   6.611   5.558  0.1340 -0.0757 -0.2178
  915MOL0     C20674   9.154   6.508   5.648  0.5761  0.0829  0.1372
  915MOL0     C20675   9.026   6.462   5.676  0.8266 -0.5975 -0.4343
  915MOL0     C20676   8.909   6.506   5.616 -0.5048  0.3484 -0.1389
  915MOL0     C20677   8.775   6.448   5.654  0.4691  0.1708 -0.2045
  915MOL0     O20678   8.667   6.529   5.630 -0.0885  0.6736  0.3253
  915MOL0     C20679   8.545   6.464   5.643 -0.1952  0.8750 -0.4151
  915MOL0     C20680   8.492   6.381   5.550  1.1075 -0.3464  1.0007
  915MOL0     C20681   8.366   6.326   5.577 -0.3190  0.4114  0.2927
  915MOL0     C20682   8.304   6.348   5.700  0.4360 -0.6446  0.0972
  915MOL0     O20683   8.176   6.287   5.733  0.3649  0.3262  0.0656
  915MOL0     C20684   8.118   6.188   5.652 -0.1113  0.5027 -0.2882
  915MOL0     C20685   7.997   6.133   5.722  0.3350 -0.1615 -0.1934
  915MOL0     C20686   7.927   6.039   5.622 -0.3560  0.0941  0.1145
  915MOL0     C20687   7.813   5.961   5.692  0.2215  0.7248 -0.6845
  915MOL0     C20688   7.709   5.930   5.586  0.1037  0.4687  0.4693
  915MOL0     C20689   7.598   5.850   5.638  0.6230 -0.2568  0.7287
  915MOL0     C20690   7.494   5.847   5.525 -0.1744  0.7349  0.1655
  915MOL0     C20691   7.467   5.695   5.483 -0.0218 -1.0148  0.2996
  915MOL0    Cl20692   7.394   5.597   5.622 -0.2406  0.0239 -0.5532
  915MOL0     C20693   8.356   6.437   5.791 -0.0103  1.0231 -1.2731
  915MOL0     C20694   8.482   6.482   5.766  0.0194  0.2282  0.3641
  915MOL0     O20695   8.773   6.348   5.723  0.2654  0.2479  0.1263
  915MOL0     C20696   8.922   6.596   5.519 -0.2906  0.4054 -0.0181
  915MOL0     C20697   9.050   6.656   5.493 -0.9387  0.5465  0.0222
  915MOL0     N20698   9.759   6.811   5.098  0.4723 -0.3564  0.0997
  915MOL0     N20699   9.874   6.769   5.129  0.0126  0.5810  0.1625
  915MOL0     C20700  10.871   7.177   5.437  0.3419  0.0255 -0.3439
  915MOL0     C20701  10.998   7.242   5.442 -0.5425  0.3136  0.6517
  915MOL0     C20702  11.414   7.361   5.249 -0.1824  0.3070 -0.2031
  915MOL0     C20703  11.462   7.297   5.363 -0.2458 -0.3561  0.2683
  915MOL0     C20704  11.602   7.291   5.381  0.4607  0.8933  1.0238
  915MOL0     C20705  11.692   7.317   5.272  0.2147  0.0533  0.0043
  915MOL0     O20706  11.824   7.292   5.300 -0.6999 -0.0802  0.0264
  915MOL0     C20707  11.927   7.306   5.197  0.4553  0.9022 -0.7819
  915MOL0     C20708  11.938   7.151   5.144 -0.5436  0.1667  0.3374
  915MOL0     C20709  12.068   7.093   5.213  0.7893  0.8271  0.5268
  915MOL0     C20710  12.055   6.945   5.220  0.3653  0.4755  0.2343
  915MOL0     C20711  11.953   6.890   5.302  0.9218 -0.0585  0.2232
  915MOL0     C20712  11.892   6.852   5.401  0.1459  0.2522 -0.6248
  915MOL0     C20713  11.638   7.388   5.163 -0.1717 -0.4281 -0.7864
  915MOL0     C20714  11.500   7.401   5.145 -0.0930 -0.8111 -0.4655
  915MOL0     H20715  11.055   7.237   5.100 -0.2175  1.9819 -0.1419
  915MOL0     H20716  10.826   7.155   5.092 -0.6120 -0.0735  0.3776
  915MOL0     H20717  10.608   6.951   5.438  1.1994  0.9741  0.9080
  915MOL0     H20718  10.781   6.929   5.382 -0.6073 -3.3346 -2.4671
  915MOL0     H20719  10.625   6.782   5.275 -1.4204 -0.3676 -0.0485
  915MOL0     H20720  10.726   6.900   5.166  0.9243 -2.2615 -0.1684
  915MOL0     H20721  10.502   6.852   5.078  1.3741 -1.3778  1.4578
  915MOL0     H20722  10.542   7.020   5.118  1.0601 -1.2936 -2.2519
  915MOL0     H20723  10.390   6.826   5.302 -0.5736  0.4351  3.0156
  915MOL0     H20724  10.401   6.994   5.334  0.8624 -2.3226  2.8319
  915MOL0     H20725  10.248   6.856   5.103 -3.6675 -0.4074  2.1725
  915MOL0     H20726  10.285   7.022   5.086  2.1784 -0.0400  0.9097
  915MOL0     H20727  10.055   6.989   5.180  1.8167  0.1197 -1.1436
  915MOL0     H20728  10.145   7.081   5.288  1.2523 -0.5909  1.1985
  915MOL0     H20729  10.195   6.850   5.412 -2.1512 -4.1426  0.1804
  915MOL0     H20730  10.049   6.946   5.447  2.0638  0.8378  0.9572
  915MOL0     H20731   9.992   6.702   5.423  0.7884 -3.3106 -2.0354
  915MOL0     H20732  10.062   6.692   5.277 -0.9057 -0.0477  0.7870
  915MOL0     H20733   9.776   6.898   5.418  0.3611 -2.3743  0.8043
  915MOL0     H20734   9.510   6.885   5.113 -1.6513  2.4405 -0.2940
  915MOL0     H20735   9.573   7.033   5.190 -1.9991  1.1700  0.8470
  915MOL0     H20736   9.372   6.987   5.289  0.6859 -0.0017 -3.3717
  915MOL0     H20737   9.504   6.971   5.405  0.4424  1.2490 -0.9221
  915MOL0     H20738   9.389   6.719   5.296 -4.4366 -1.0774  1.8752
  915MOL0     H20739   9.517   6.762   5.419  0.3347  2.4338 -0.9973
  915MOL0     H20740   9.226   6.845   5.429 -0.0302 -1.8957 -2.0780
  915MOL0     H20741   9.348   6.881   5.549 -1.5621  0.6767 -0.0178
  915MOL0     H20742   9.241   6.486   5.709 -0.3449  0.6132  1.7108
  915MOL0     H20743   8.998   6.402   5.762 -3.8422  3.2026  1.1738
  915MOL0     H20744   8.533   6.353   5.454 -0.1152  1.0093  0.0397
  915MOL0     H20745   8.323   6.265   5.498  2.0179 -1.8809  0.6495
  915MOL0     H20746   8.196   6.116   5.627  0.9588  0.4514  2.6910
  915MOL0     H20747   8.085   6.245   5.564 -0.4235  1.4952  0.4400
  915MOL0     H20748   7.932   6.214   5.757  3.1887  1.0805  2.7503
  915MOL0     H20749   8.033   6.084   5.813 -0.2702 -1.3277 -0.5644
  915MOL0     H20750   7.992   5.985   5.552 -2.0582  0.6096 -1.9817
  915MOL0     H20751   7.878   6.096   5.543 -1.4964 -1.5297 -0.4138
  915MOL0     H20752   7.852   5.875   5.746 -0.1957  0.5752 -0.6154
  915MOL0     H20753   7.771   6.021   5.774 -1.1611 -2.3844  1.0522
  915MOL0     H20754   7.769   5.884   5.507 -0.6973  1.0783 -0.5250
  915MOL0     H20755   7.658   6.022   5.557 -1.9673 -0.7788 -0.0966
  915MOL0     H20756   7.546   5.884   5.728 -0.7014  1.9027 -0.7554
  915MOL0     H20757   7.641   5.752   5.660  1.7895  0.2535  0.8055
  915MOL0     H20758   7.403   5.895   5.563  0.6394  1.3310  1.4239
  915MOL0     H20759   7.520   5.878   5.424 -0.9730 -4.4929 -1.9685
  915MOL0     H20760   7.558   5.642   5.454 -1.0187 -3.3550  1.2508
  915MOL0     H20761   7.394   5.695   5.402  1.9948 -1.4135 -1.6139
  915MOL0     H20762   8.308   6.449   5.887 -1.1092  0.0123 -1.6739
  915MOL0     H20763   8.529   6.543   5.843  1.1948  2.4059 -1.9327
  915MOL0     H20764   8.834   6.641   5.472  0.0442  2.1084  0.9169
  915MOL0     H20765   9.052   6.748   5.435 -2.5228  1.6085  1.5198
  915MOL0     H20766  10.810   7.171   5.527 -0.0869  1.5971 -0.4917
  915MOL0     H20767  11.057   7.252   5.532  2.5723 -1.5357 -0.9918
  915MOL0     H20768  11.410   7.258   5.450  1.0458  0.8702  1.6484
  915MOL0     H20769  11.655   7.254   5.468 -0.1529 -2.1723  0.2072
  915MOL0     H20770  12.021   7.341   5.240  1.5286  0.8719 -2.9442
  915MOL0     H20771  11.907   7.377   5.116 -1.1676  2.9087  1.2654
  915MOL0     H20772  11.844   7.098   5.160  0.1811 -1.0517  0.7287
  915MOL0     H20773  11.942   7.147   5.035  0.7660 -0.0620  0.3718
  915MOL0     H20774  12.080   7.119   5.318  1.0612  1.4692  0.3421
  915MOL0     H20775  12.159   7.109   5.155  0.2695 -2.7009 -1.6041
  915MOL0     H20776  12.045   6.913   5.116 -1.0295  2.4482 -0.2945
  915MOL0     H20777  12.149   6.900   5.252 -1.6765 -2.9243  1.9831
  915MOL0     H20778  11.850   6.809   5.490  1.3335 -0.9935 -0.6230
  915MOL0     H20779  11.706   7.417   5.084  0.4121 -0.9469 -0.4824
  915MOL0     H20780  11.459   7.457   5.061 -1.8277  1.6991  1.8799
  916MOL0     O20781   2.511   4.682   3.260 -0.3739 -0.4637  0.8289
  916MOL0     C20782   2.478   4.573   3.284 -0.0108  0.3326  1.0140
  916MOL0     O20783   2.354   4.519   3.287 -0.4496  0.7072  1.1028
  916MOL0     C20784   2.248   4.609   3.273 -0.4109 -1.0361 -0.6131
  916MOL0     C20785   2.145   4.603   3.369  0.0875 -0.6996  0.4589
  916MOL0     C20786   2.028   4.671   3.346  0.2864 -0.1356  1.2478
  916MOL0     C20787   2.009   4.752   3.236 -0.1206 -0.4470  0.8021
  916MOL0     O20788   1.881   4.810   3.224 -0.9033  0.6898 -0.5569
  916MOL0     C20789   1.836   4.863   3.096  0.1488  0.1331  0.0308
  916MOL0     C20790   1.758   4.764   3.011  0.7999  0.2682  0.2688
  916MOL0     C20791   1.661   4.687   3.100 -0.1190 -1.2278 -0.5057
  916MOL0     C20792   1.580   4.592   3.013 -0.7493 -0.4886  0.4713
  916MOL0     C20793   1.478   4.509   3.081  0.0755  0.6225  0.5980
  916MOL0     C20794   1.341   4.577   3.109  0.1008  0.4478 -0.0566
  916MOL0     C20795   1.271   4.646   2.992 -0.4601  0.1272 -0.4154
  916MOL0     C20796   1.161   4.745   3.018 -0.2625 -0.7707 -0.8006
  916MOL0     N20797   1.031   4.690   3.077 -0.2812  0.7238 -0.7577
  916MOL0     C20798   1.020   4.606   3.183  0.3483  0.3545 -0.8343
  916MOL0     C20799   0.893   4.574   3.200 -1.0971 -0.1512  0.8681
  916MOL0     C20800   0.832   4.482   3.305 -0.3401 -0.2573 -0.4050
  916MOL0     C20801   0.821   4.336   3.261  0.1410 -0.3477 -0.6030
  916MOL0     C20802   0.747   4.321   3.122  0.2499  0.3305  0.4715
  916MOL0     C20803   0.605   4.344   3.132  0.1665  0.6283 -0.1069
  916MOL0     O20804   0.551   4.252   3.224 -0.0020  0.1940  0.6156
  916MOL0     C20805   0.417   4.254   3.248 -0.1145  0.5791 -0.3492
  916MOL0     C20806   0.374   4.187   3.358  0.0972  0.5373  0.3684
  916MOL0     C20807   0.231   4.190   3.389 -0.2841  0.4152  0.5096
  916MOL0     C20808   0.138   4.244   3.299 -0.0483 -0.7478 -0.2010
  916MOL0     C20809  -0.006   4.242   3.336 -1.1890  0.2013 -0.2159
  916MOL0     O20810  -0.071   4.353   3.307  0.7413 -0.0778 -0.0964
  916MOL0     C20811  -0.209   4.351   3.334  0.0030  0.1832 -1.3182
  916MOL0     C20812  -0.251   4.450   3.417  0.0875 -0.5025  0.0878
  916MOL0     C20813  -0.379   4.472   3.455  0.1596  0.4316 -0.7355
  916MOL0     C20814  -0.477   4.391   3.402 -0.0173  0.4182 -0.9782
  916MOL0     O20815  -0.616   4.417   3.422 -0.5437  0.0594  0.0303
  916MOL0     C20816  -0.701   4.323   3.496 -0.5148 -0.4203  0.2707
  916MOL0     C20817  -0.842   4.354   3.446  0.6514  0.1617  0.0655
  916MOL0     C20818  -0.948   4.258   3.512 -0.0456 -0.1923  0.5931
  916MOL0     C20819  -1.088   4.308   3.482 -0.9318 -0.7442  0.5699
  916MOL0     C20820  -1.165   4.269   3.606  0.0701 -0.1904  0.1121
  916MOL0     C20821  -1.313   4.296   3.591  0.2114 -0.3548 -0.7453
  916MOL0     C20822  -1.394   4.288   3.725  0.1363 -0.4472 -0.1118
  916MOL0     C20823  -1.537   4.339   3.701 -0.7802  1.2326 -0.8815
  916MOL0    Cl20824  -1.626   4.389   3.849  0.0543 -0.0112  0.1379
  916MOL0     C20825  -0.444   4.300   3.306 -0.6551 -0.4851  0.7865
  916MOL0     C20826  -0.303   4.280   3.271  0.4398 -0.4337  0.7985
  916MOL0     O20827  -0.054   4.137   3.374  0.4597  0.2301 -0.4314
  916MOL0     C20828   0.189   4.319   3.191  0.4847  0.2394 -0.6296
  916MOL0     C20829   0.325   4.328   3.169  0.0971 -0.1736  0.2089
  916MOL0     N20830   0.817   4.648   3.112 -0.5293  0.3018  0.2556
  916MOL0     N20831   0.905   4.710   3.031 -0.6382  0.7279 -0.3188
  916MOL0     C20832   2.110   4.757   3.138 -0.6691  0.1448 -0.4330
  916MOL0     C20833   2.224   4.684   3.156  0.8506  0.3629  0.3644
  916MOL0     C20834   2.596   4.486   3.301  0.0745 -0.6232 -0.1549
  916MOL0     C20835   2.579   4.347   3.337  0.2784  0.0844  0.4433
  916MOL0     C20836   2.685   4.265   3.354  0.3215  0.2178  1.1101
  916MOL0     C20837   2.815   4.303   3.330 -0.3247 -0.6114 -0.1056
  916MOL0     O20838   2.921   4.212   3.331 -0.4919  0.8013 -0.8342
  916MOL0     C20839   2.925   4.103   3.240 -0.0511  0.0454 -0.1863
  916MOL0     C20840   3.048   4.107   3.144 -0.4963  0.1218  0.9193
  916MOL0     C20841   3.181   4.109   3.231 -0.0195  0.8084  0.4388
  916MOL0     C20842   3.227   3.972   3.264  0.0575  0.0886  0.0326
  916MOL0     C20843   3.353   3.979   3.330  0.1093  0.1868  0.1863
  916MOL0     C20844   3.466   3.957   3.376  0.2268  0.5723 -0.1617
  916MOL0     C20845   2.830   4.434   3.288 -0.8414  0.4992 -0.0490
  916MOL0     C20846   2.729   4.527   3.282  0.6296 -0.5153 -0.7482
  916MOL0     H20847   2.147   4.546   3.461 -2.0322  0.7406  1.4675
  916MOL0     H20848   1.940   4.651   3.407 -0.6177 -1.0580 -0.2938
  916MOL0     H20849   1.921   4.902   3.039  0.5278  1.6850  1.5691
  916MOL0     H20850   1.766   4.947   3.102  0.1878  0.1690 -0.0198
  916MOL0     H20851   1.821   4.694   2.956 -0.8896 -1.1606  0.0417
  916MOL0     H20852   1.707   4.821   2.933 -0.7878  0.3953  1.3555
  916MOL0     H20853   1.609   4.763   3.160  2.8975  0.1906  0.5570
  916MOL0     H20854   1.728   4.626   3.161  0.4885 -1.9591 -1.8754
  916MOL0     H20855   1.543   4.659   2.935 -0.2693 -0.6195  0.1214
  916MOL0     H20856   1.652   4.516   2.979 -0.6403 -0.8489  1.4845
  916MOL0     H20857   1.518   4.458   3.169  0.1874 -1.1520 -0.4289
  916MOL0     H20858   1.444   4.428   3.016 -1.2173  0.6822  1.1833
  916MOL0     H20859   1.351   4.648   3.192 -1.3809  1.9057 -1.0502
  916MOL0     H20860   1.266   4.505   3.144 -0.8032  1.9039  1.0903
  916MOL0     H20861   1.343   4.710   2.941  0.3061 -1.3271 -1.2443
  916MOL0     H20862   1.239   4.569   2.921 -3.4668 -0.6492  1.5578
  916MOL0     H20863   1.135   4.784   2.919  0.3167  0.7627 -0.3788
  916MOL0     H20864   1.199   4.833   3.071 -3.5914  0.3057  0.0405
  916MOL0     H20865   1.105   4.564   3.236  0.2790 -0.7187 -1.5363
  916MOL0     H20866   0.730   4.515   3.330 -0.5569 -1.0195 -0.2467
  916MOL0     H20867   0.893   4.486   3.396  0.3973 -4.5278 -0.4839
  916MOL0     H20868   0.779   4.284   3.347 -2.1432 -0.1982 -1.5702
  916MOL0     H20869   0.925   4.303   3.251 -0.5859 -3.0687  0.0639
  916MOL0     H20870   0.781   4.395   3.049 -1.7672  1.6756  0.8194
  916MOL0     H20871   0.781   4.224   3.086  0.3267 -0.0789  1.6067
  916MOL0     H20872   0.570   4.324   3.030 -1.8098 -0.8290  0.7917
  916MOL0     H20873   0.580   4.448   3.151 -0.3178  0.9476 -2.1729
  916MOL0     H20874   0.437   4.131   3.427  1.1125 -1.4023 -1.9597
  916MOL0     H20875   0.204   4.151   3.486  2.0604 -0.9169  0.6891
  916MOL0     H20876  -0.185   4.522   3.463 -2.6908  0.3151  3.1767
  916MOL0     H20877  -0.407   4.548   3.527 -2.8794  0.3514 -1.7204
  916MOL0     H20878  -0.688   4.333   3.604 -0.5705 -0.4438  0.2797
  916MOL0     H20879  -0.685   4.221   3.460 -0.5032  0.6781 -3.1062
  916MOL0     H20880  -0.837   4.343   3.337  1.0485 -2.2053  0.2550
  916MOL0     H20881  -0.867   4.458   3.466  1.2875  0.2327  0.5227
  916MOL0     H20882  -0.924   4.256   3.619 -0.0369 -0.8447  0.5807
  916MOL0     H20883  -0.941   4.161   3.462  1.5079  1.8474 -3.5871
  916MOL0     H20884  -1.092   4.416   3.468 -1.5625 -1.0204 -1.8858
  916MOL0     H20885  -1.119   4.251   3.394  1.2144  0.2892 -0.9371
  916MOL0     H20886  -1.128   4.315   3.698 -4.0788  1.4343  1.1575
  916MOL0     H20887  -1.148   4.162   3.621  0.1065 -0.5318 -2.0398
  916MOL0     H20888  -1.360   4.233   3.514  1.4006 -1.6715 -0.4381
  916MOL0     H20889  -1.314   4.402   3.565 -0.7670  0.8823  3.5886
  916MOL0     H20890  -1.393   4.185   3.762  1.2864 -0.0013  1.1898
  916MOL0     H20891  -1.355   4.355   3.803 -1.4750  0.5679 -0.1198
  916MOL0     H20892  -1.594   4.262   3.648 -1.1175  1.6218 -1.0879
  916MOL0     H20893  -1.538   4.423   3.631  0.2260  3.1168  1.2392
  916MOL0     H20894  -0.521   4.236   3.263 -1.3214 -0.5358  2.0340
  916MOL0     H20895  -0.293   4.220   3.181 -1.5077 -2.6094  1.9103
  916MOL0     H20896   0.117   4.368   3.125 -1.4188 -0.6219  0.7270
  916MOL0     H20897   0.358   4.369   3.074 -3.0377 -1.0426 -1.3756
  916MOL0     H20898   2.106   4.801   3.039  0.0067  0.0524 -0.5044
  916MOL0     H20899   2.301   4.689   3.079 -1.2995  1.4126 -1.8443
  916MOL0     H20900   2.479   4.308   3.353  0.6470 -1.5620 -1.0070
  916MOL0     H20901   2.651   4.166   3.380  0.6414 -0.0554  0.5144
  916MOL0     H20902   2.833   4.084   3.184  0.5348 -2.7296 -0.3452
  916MOL0     H20903   2.936   4.010   3.297  1.0268  0.5384  0.4461
  916MOL0     H20904   3.040   4.013   3.089  1.5843 -0.5042  1.5910
  916MOL0     H20905   3.039   4.192   3.076 -2.0450 -2.3739 -2.3072
  916MOL0     H20906   3.162   4.163   3.325 -3.1888 -1.5907  1.3719
  916MOL0     H20907   3.263   4.164   3.184  0.6002  0.1578  0.7514
  916MOL0     H20908   3.165   3.924   3.340 -0.6270 -0.4808 -0.8677
  916MOL0     H20909   3.229   3.913   3.172 -2.3050  2.0626 -1.4138
  916MOL0     H20910   3.559   3.920   3.413 -0.1733 -0.6958 -0.3656
  916MOL0     H20911   2.933   4.467   3.276 -0.0993 -1.6962 -0.3776
  916MOL0     H20912   2.747   4.630   3.256 -1.1631 -0.6036 -2.6146
  917MOL0     O20913   8.430   9.891  10.858 -0.3815  0.1870 -0.3060
  917MOL0     C20914   8.429  10.009  10.818  0.5649 -0.0211 -0.5939
  917MOL0     O20915   8.320  10.090  10.787 -0.6704  0.1586 -0.1975
  917MOL0     C20916   8.198  10.036  10.823  0.3537 -0.8204 -0.3087
  917MOL0     C20917   8.126   9.982  10.720  0.4590 -0.3492  0.5407
  917MOL0     C20918   7.988   9.951  10.741 -0.8827 -0.1765  0.0200
  917MOL0     C20919   7.933   9.966  10.866  0.0429 -0.9759  0.6650
  917MOL0     O20920   7.795   9.940  10.881 -0.4100  0.5796  0.6706
  917MOL0     C20921   7.751   9.862  10.993 -0.7625  0.7321  0.2315
  917MOL0     C20922   7.609   9.808  10.975 -0.0323  0.2139  0.4852
  917MOL0     C20923   7.513   9.921  10.996 -0.0757 -0.6710  0.4432
  917MOL0     C20924   7.368   9.881  11.023 -0.7422  0.3707  0.3280
  917MOL0     C20925   7.307   9.771  10.934  0.4513 -0.4457  0.0425
  917MOL0     C20926   7.324   9.787  10.780  0.3432 -0.4223 -0.9423
  917MOL0     C20927   7.287   9.929  10.727  0.1825  0.8415 -0.3677
  917MOL0     C20928   7.134   9.967  10.738  0.2132  0.0620  0.4112
  917MOL0     N20929   7.047   9.869  10.672  0.1588  0.7718 -0.5495
  917MOL0     C20930   6.961   9.774  10.732 -0.1389 -0.0580 -0.2647
  917MOL0     C20931   6.900   9.721  10.632  1.0751 -0.2190  0.1988
  917MOL0     C20932   6.813   9.601  10.652 -0.1801  0.3507 -0.3045
  917MOL0     C20933   6.759   9.532  10.526  0.5150 -0.2188  0.7086
  917MOL0     C20934   6.644   9.431  10.574 -0.3873 -0.9759 -0.8596
  917MOL0     C20935   6.544   9.425  10.460  1.2824  0.0401  0.0439
  917MOL0     O20936   6.438   9.328  10.503 -0.8092 -0.0842  0.4626
  917MOL0     C20937   6.319   9.334  10.435 -1.0452 -0.4561 -0.5036
  917MOL0     C20938   6.208   9.299  10.514  0.3313 -0.5986 -0.1149
  917MOL0     C20939   6.080   9.301  10.456 -0.3599  0.1879 -0.0518
  917MOL0     C20940   6.065   9.335  10.318  0.8636 -0.8018  0.1727
  917MOL0     C20941   5.933   9.330  10.253  0.2243 -0.5561 -0.0306
  917MOL0     O20942   5.822   9.339  10.332 -0.0273  0.5646 -0.0267
  917MOL0     C20943   5.698   9.353  10.281 -0.0481 -0.0755  0.4136
  917MOL0     C20944   5.630   9.475  10.291 -0.5503  0.6874  0.8851
  917MOL0     C20945   5.499   9.486  10.243  0.5741 -0.7801  0.0345
  917MOL0     C20946   5.428   9.378  10.200  0.0562 -0.3130 -0.3822
  917MOL0     O20947   5.296   9.391  10.163  0.2512 -0.6024 -0.5969
  917MOL0     C20948   5.217   9.497  10.228  0.1719 -0.0506 -0.1672
  917MOL0     C20949   5.068   9.447  10.201 -0.1058  0.3028 -0.5309
  917MOL0     C20950   4.973   9.526  10.288  0.5842 -0.2344 -0.0060
  917MOL0     C20951   4.981   9.672  10.248 -1.1179 -0.2984  0.6520
  917MOL0     C20952   4.857   9.742  10.313 -0.1996 -0.0053 -0.8667
  917MOL0     C20953   4.842   9.887  10.249 -0.6687  0.4540  0.5769
  917MOL0     C20954   4.787   9.895  10.097 -0.3213 -0.0384 -0.3227
  917MOL0     C20955   4.638   9.873  10.084  0.5988 -0.1785 -0.9770
  917MOL0    Cl20956   4.550   9.997  10.173 -0.3473  0.3138  0.1883
  917MOL0     C20957   5.491   9.257  10.189 -0.3659  0.0062  0.8129
  917MOL0     C20958   5.632   9.241  10.225  0.1308 -0.2517 -1.0938
  917MOL0     O20959   5.922   9.329  10.127  0.1380  0.5649  0.2345
  917MOL0     C20960   6.175   9.367  10.248  0.2812  0.3866  0.0490
  917MOL0     C20961   6.301   9.369  10.305 -1.0019  0.5991 -0.1396
  917MOL0     N20962   6.938   9.783  10.513 -0.0738  0.9935  1.2470
  917MOL0     N20963   7.027   9.868  10.540 -0.0514 -0.0861 -0.1577
  917MOL0     C20964   8.016  10.017  10.970  0.7374  0.4622  0.3629
  917MOL0     C20965   8.142  10.056  10.946 -0.8273 -0.6170 -0.0300
  917MOL0     C20966   8.571  10.069  10.813  0.0377  0.4708  0.1065
  917MOL0     C20967   8.594  10.182  10.746  0.0647 -0.4418 -0.4565
  917MOL0     C20968   8.730  10.228  10.729 -0.1568 -0.4876  0.6495
  917MOL0     C20969   8.840  10.162  10.789  0.9700  0.5750  0.5785
  917MOL0     O20970   8.968  10.214  10.769  0.1296  0.1641 -0.3198
  917MOL0     C20971   9.069  10.129  10.831 -0.3670  0.3437  0.5675
  917MOL0     C20972   9.196  10.148  10.763 -0.0723 -0.2063  0.0302
  917MOL0     C20973   9.198  10.101  10.608  0.2333 -0.0724  0.8510
  917MOL0     C20974   9.325  10.108  10.530  0.3182  0.0857 -0.0060
  917MOL0     C20975   9.431  10.023  10.591 -1.1488 -0.5527  0.8039
  917MOL0     C20976   9.507   9.942  10.642 -1.0795  0.8007 -0.2848
  917MOL0     C20977   8.804  10.044  10.872  0.5114 -0.7926 -0.6011
  917MOL0     C20978   8.668   9.995  10.879 -0.3432  0.2353  0.5480
  917MOL0     H20979   8.171   9.975  10.621  0.3704  4.8104 -0.1274
  917MOL0     H20980   7.950   9.905  10.650 -0.3652 -0.4786 -0.0511
  917MOL0     H20981   7.757   9.919  11.087 -0.8767 -1.1666  1.4533
  917MOL0     H20982   7.820   9.779  11.008 -0.2478  1.2373  0.7368
  917MOL0     H20983   7.589   9.737  11.055  1.4732 -0.3352  0.4090
  917MOL0     H20984   7.598   9.759  10.878 -0.0680 -0.9925  1.0859
  917MOL0     H20985   7.528   9.989  10.911  3.2170 -0.8138  0.7770
  917MOL0     H20986   7.545   9.980  11.082  0.9882 -0.6655  0.0686
  917MOL0     H20987   7.367   9.832  11.121  0.2528  1.5321  0.9486
  917MOL0     H20988   7.301   9.966  11.014 -1.2825 -0.1394 -0.6755
  917MOL0     H20989   7.199   9.761  10.949  0.2728 -3.2217 -2.2339
  917MOL0     H20990   7.348   9.677  10.971  0.9515 -0.1244  0.3201
  917MOL0     H20991   7.260   9.707  10.742 -1.2152 -0.4190  1.4419
  917MOL0     H20992   7.428   9.771  10.750  0.1061 -2.0669 -0.9688
  917MOL0     H20993   7.339  10.004  10.787  0.9108  1.5332 -1.8249
  917MOL0     H20994   7.331   9.919  10.627  0.6822 -1.0919 -0.0026
  917MOL0     H20995   7.119  10.059  10.682  2.0540 -0.5058 -1.1357
  917MOL0     H20996   7.108   9.976  10.844  0.6888 -0.8802  0.6192
  917MOL0     H20997   6.939   9.760  10.838  1.7998 -2.0785 -0.0746
  917MOL0     H20998   6.731   9.623  10.721 -1.2255 -1.4481 -0.8983
  917MOL0     H20999   6.874   9.527  10.704  1.3351  2.4185  0.9972
  917MOL0     H21000   6.840   9.484  10.469 -1.4739  0.1924 -2.6931
  917MOL0     H21001   6.714   9.602  10.456  1.4821 -1.3494 -1.1261
  917MOL0     H21002   6.687   9.331  10.588 -1.6860 -1.3492  0.6899
  917MOL0     H21003   6.596   9.459  10.668  4.4968  1.2247  1.3260
  917MOL0     H21004   6.582   9.401  10.360  0.9694 -0.6141  0.0770
  917MOL0     H21005   6.499   9.524  10.451 -0.7778 -0.8708 -0.3670
  917MOL0     H21006   6.230   9.266  10.615  2.2253 -0.7824 -0.5617
  917MOL0     H21007   5.991   9.274  10.512 -2.5328  2.9566 -1.8947
  917MOL0     H21008   5.688   9.563  10.318 -0.3232  0.9236 -0.2879
  917MOL0     H21009   5.456   9.586  10.243 -0.3398 -1.1010  2.1527
  917MOL0     H21010   5.230   9.594  10.179  1.3156 -0.2611 -0.3046
  917MOL0     H21011   5.244   9.491  10.334  2.4239 -0.8821 -0.7372
  917MOL0     H21012   5.070   9.339  10.220 -3.0555  0.6203  2.4551
  917MOL0     H21013   5.039   9.453  10.095 -4.1869  1.5662  0.4926
  917MOL0     H21014   4.992   9.509  10.394  2.6335 -0.2644 -0.3427
  917MOL0     H21015   4.869   9.492  10.281  0.6549 -0.4519  0.0170
  917MOL0     H21016   5.074   9.719  10.282  0.0138 -2.1818  0.2721
  917MOL0     H21017   4.979   9.687  10.140  5.4924  1.1527  0.2939
  917MOL0     H21018   4.859   9.745  10.423 -1.1732 -0.0134 -0.8456
  917MOL0     H21019   4.769   9.684  10.283 -0.4717 -1.2209  1.9361
  917MOL0     H21020   4.937   9.940  10.252  0.5608 -1.5908 -0.3090
  917MOL0     H21021   4.777   9.949  10.313 -0.0562  0.0308  1.6286
  917MOL0     H21022   4.800   9.999  10.066 -1.6662  0.1272 -0.4261
  917MOL0     H21023   4.839   9.823  10.033  5.1684  1.4549  1.8953
  917MOL0     H21024   4.609   9.779  10.132  3.9363 -0.7567  0.1661
  917MOL0     H21025   4.615   9.868   9.978 -0.5769 -1.0217 -0.7021
  917MOL0     H21026   5.425   9.176  10.162 -3.0103  1.6836  1.9099
  917MOL0     H21027   5.673   9.143  10.204 -0.7919 -1.2299  1.2424
  917MOL0     H21028   6.162   9.394  10.144 -1.2380 -1.5383 -0.3223
  917MOL0     H21029   6.386   9.365  10.238 -1.4278 -0.8312 -0.6258
  917MOL0     H21030   7.970  10.026  11.068  1.6473 -0.5462  0.9005
  917MOL0     H21031   8.215  10.093  11.017  2.4325 -1.3090 -2.7740
  917MOL0     H21032   8.510  10.236  10.704 -2.0448 -3.1637  0.0240
  917MOL0     H21033   8.751  10.308  10.658 -0.2465 -1.8970 -1.0324
  917MOL0     H21034   9.034  10.026  10.825 -0.8863  0.1994  4.0603
  917MOL0     H21035   9.089  10.152  10.936  2.2182 -0.5608  0.3393
  917MOL0     H21036   9.219  10.253  10.779 -2.1584 -0.1257  3.3156
  917MOL0     H21037   9.279  10.097  10.811 -0.2050  0.6381  1.1853
  917MOL0     H21038   9.122  10.164  10.560  2.5579  1.1482 -1.4876
  917MOL0     H21039   9.166   9.997  10.615  3.6325 -1.1939  1.3457
  917MOL0     H21040   9.300  10.073  10.430 -3.5315  0.2958  0.7545
  917MOL0     H21041   9.359  10.212  10.526 -0.4846  0.3106 -3.2754
  917MOL0     H21042   9.568   9.877  10.702  1.5656  2.5192 -0.9594
  917MOL0     H21043   8.872   9.989  10.935  1.2282  2.1026  1.3855
  917MOL0     H21044   8.644   9.913  10.946  0.1096 -0.8202 -0.5394
  918MOL0     O21045   2.097  11.058   7.665  0.7215 -0.3594  1.0537
  918MOL0     C21046   2.212  11.072   7.648  0.6558 -0.9430  0.1632
  918MOL0     O21047   2.264  11.150   7.549 -0.8635  0.5331 -0.2489
  918MOL0     C21048   2.161  11.203   7.471 -0.0947  0.4650 -1.0890
  918MOL0     C21049   2.083  11.317   7.515 -0.9439 -0.1467  0.2966
  918MOL0     C21050   1.970  11.360   7.443  0.4328  0.5469  0.2229
  918MOL0     C21051   1.928  11.289   7.327  0.0522  0.3359  0.5739
  918MOL0     O21052   1.806  11.328   7.272  0.5089  0.9037 -1.0595
  918MOL0     C21053   1.743  11.224   7.188  0.7004 -0.3383  0.6408
  918MOL0     C21054   1.612  11.304   7.151  0.0130  0.0098 -0.2468
  918MOL0     C21055   1.508  11.207   7.108  0.3729  0.9281  0.2345
  918MOL0     C21056   1.370  11.275   7.109 -0.5784 -0.3796  1.1160
  918MOL0     C21057   1.263  11.172   7.067  0.0710  0.5958 -0.1103
  918MOL0     C21058   1.275  11.111   6.933  0.1700 -0.0056  0.2475
  918MOL0     C21059   1.136  11.068   6.889  1.1070 -0.4897 -0.6392
  918MOL0     C21060   1.135  11.019   6.744  0.3587  0.4904 -0.8830
  918MOL0     N21061   0.995  10.983   6.701 -0.4896 -0.2981  0.3115
  918MOL0     C21062   0.887  10.973   6.780  1.0074  0.3897 -0.1902
  918MOL0     C21063   0.791  10.909   6.699 -0.0950 -0.0375 -0.2381
  918MOL0     C21064   0.664  10.859   6.747 -0.1425 -0.2572  0.1426
  918MOL0     C21065   0.557  10.963   6.799 -0.5157  0.5422 -1.2025
  918MOL0     C21066   0.429  10.872   6.819 -0.0309 -0.0023 -0.5613
  918MOL0     C21067   0.301  10.962   6.851 -0.9009 -0.0356 -0.4026
  918MOL0     O21068   0.264  11.036   6.732  0.4428 -0.2739 -0.3847
  918MOL0     C21069   0.132  11.025   6.688  0.1333  0.1424  0.2133
  918MOL0     C21070   0.028  10.993   6.775  0.5299 -0.1589 -0.1932
  918MOL0     C21071  -0.095  10.968   6.718  0.3937 -1.0073  0.2818
  918MOL0     C21072  -0.120  10.982   6.578 -0.1207 -0.1636 -0.3827
  918MOL0     C21073  -0.260  10.968   6.530 -0.0363  0.0949  0.2070
  918MOL0     O21074  -0.352  10.886   6.602 -0.0320  0.1310  0.7058
  918MOL0     C21075  -0.482  10.875   6.567 -0.5268 -0.2161  0.6850
  918MOL0     C21076  -0.562  10.942   6.465 -0.0647  0.8429 -0.0449
  918MOL0     C21077  -0.693  10.899   6.441 -0.3268 -0.7817 -0.3324
  918MOL0     C21078  -0.746  10.790   6.504 -0.2951  0.1941 -0.2758
  918MOL0     O21079  -0.867  10.740   6.472  0.7383 -0.6151  0.6826
  918MOL0     C21080  -0.949  10.693   6.582  0.1730  0.2579  0.5817
  918MOL0     C21081  -1.091  10.708   6.537  0.2865  0.2543 -1.1101
  918MOL0     C21082  -1.149  10.601   6.441 -0.1130  0.0171 -0.3614
  918MOL0     C21083  -1.303  10.616   6.430 -0.1999 -0.0349 -0.3397
  918MOL0     C21084  -1.358  10.501   6.350  0.5182 -0.3339  0.3975
  918MOL0     C21085  -1.515  10.485   6.366 -0.2122  0.2870  0.5911
  918MOL0     C21086  -1.559  10.463   6.507  0.7692 -0.2139 -0.8356
  918MOL0     C21087  -1.491  10.342   6.579  0.3745  0.6934 -0.0656
  918MOL0    Cl21088  -1.541  10.332   6.750 -0.3079 -0.0689 -0.3931
  918MOL0     C21089  -0.674  10.721   6.600 -0.0239 -0.0833 -0.7759
  918MOL0     C21090  -0.546  10.769   6.633 -0.2567 -0.7290  0.3691
  918MOL0     O21091  -0.284  11.015   6.416 -0.4275 -0.1412  0.1393
  918MOL0     C21092  -0.011  11.015   6.494  0.1306 -0.4385  0.6221
  918MOL0     C21093   0.113  11.031   6.550  0.2656 -0.0540  0.5710
  918MOL0     N21094   0.852  10.859   6.584  0.0031 -0.5454  0.8529
  918MOL0     N21095   0.979  10.900   6.590  0.5856  0.6208  0.8131
  918MOL0     C21096   2.007  11.182   7.275 -0.3204 -0.2741  0.1027
  918MOL0     C21097   2.124  11.145   7.345 -0.4326 -0.4286 -0.0394
  918MOL0     C21098   2.301  11.024   7.745 -0.2060  0.2390 -0.7365
  918MOL0     C21099   2.254  10.927   7.843  0.1534  0.3107 -0.0781
  918MOL0     C21100   2.347  10.876   7.939 -1.0019 -0.3666 -1.3449
  918MOL0     C21101   2.476  10.924   7.940  0.2230 -0.2330  0.5253
  918MOL0     O21102   2.557  10.870   8.038 -0.4452 -0.2441  0.2825
  918MOL0     C21103   2.699  10.853   8.018  0.1376 -0.2993 -0.5412
  918MOL0     C21104   2.778  10.971   8.065 -0.2863  0.9486  0.6676
  918MOL0     C21105   2.918  10.985   8.010  0.0645 -0.4193  0.0405
  918MOL0     C21106   3.012  10.863   8.017  0.0887  0.3107  0.1869
  918MOL0     C21107   3.145  10.917   7.987  0.9861  0.3177  0.5033
  918MOL0     C21108   3.266  10.945   7.981 -0.1081  0.9458  0.8207
  918MOL0     C21109   2.520  11.012   7.841  0.1568 -0.2305 -0.2605
  918MOL0     C21110   2.438  11.055   7.737 -0.1799  0.2875  0.3275
  918MOL0     H21111   2.117  11.358   7.610 -3.3399  1.7362  0.4279
  918MOL0     H21112   1.910  11.447   7.468  0.2554  1.3350 -2.6804
  918MOL0     H21113   1.722  11.128   7.237  0.2623 -1.4017 -1.5461
  918MOL0     H21114   1.803  11.212   7.098  0.5669 -0.3742  0.5573
  918MOL0     H21115   1.628  11.376   7.071 -0.6272 -1.9148 -2.2157
  918MOL0     H21116   1.575  11.361   7.237 -1.5502  1.1384 -1.6157
  918MOL0     H21117   1.488  11.120   7.171 -1.1756  2.2784  1.7291
  918MOL0     H21118   1.534  11.171   7.009 -0.4430  0.0455  0.3278
  918MOL0     H21119   1.353  11.330   7.202 -1.5089  1.0974  0.0993
  918MOL0     H21120   1.366  11.340   7.021  1.2418  0.9705  1.9556
  918MOL0     H21121   1.168  11.225   7.076  0.1184  0.5398  0.8067
  918MOL0     H21122   1.260  11.088   7.138 -0.9388 -0.0480 -0.8816
  918MOL0     H21123   1.346  11.028   6.946  3.0345  2.4561  1.7611
  918MOL0     H21124   1.321  11.184   6.866  0.6176 -1.2403 -0.8325
  918MOL0     H21125   1.098  10.994   6.960 -0.4599  0.6612 -0.2361
  918MOL0     H21126   1.073  11.157   6.886 -0.3380 -1.3389  1.6878
  918MOL0     H21127   1.193  10.928   6.731  0.0926  0.3467 -1.0740
  918MOL0     H21128   1.174  11.097   6.678  2.8373  0.0836  0.0252
  918MOL0     H21129   0.872  10.997   6.885  3.6156 -2.9960  1.1518
  918MOL0     H21130   0.696  10.784   6.819 -0.5608 -0.6897 -0.1106
  918MOL0     H21131   0.620  10.814   6.657 -2.4879 -0.4194  1.2856
  918MOL0     H21132   0.530  11.047   6.734 -1.6563  0.3300 -1.0129
  918MOL0     H21133   0.602  11.002   6.891  1.5632 -0.5163 -1.7157
  918MOL0     H21134   0.417  10.824   6.722  1.1429  3.3303 -2.4914
  918MOL0     H21135   0.461  10.803   6.898  2.4354  0.6748 -0.8812
  918MOL0     H21136   0.324  11.032   6.932  1.8533 -1.4565  0.1906
  918MOL0     H21137   0.218  10.901   6.885 -1.2566  0.1449 -0.9307
  918MOL0     H21138   0.035  11.006   6.883 -1.1581  3.8696 -0.3862
  918MOL0     H21139  -0.180  10.930   6.775  0.0698 -1.4634 -0.4951
  918MOL0     H21140  -0.524  11.026   6.406 -0.9817  1.7276  0.5928
  918MOL0     H21141  -0.754  10.946   6.364 -3.0871  0.1149  2.2339
  918MOL0     H21142  -0.930  10.752   6.672  2.2266 -0.8204  0.8977
  918MOL0     H21143  -0.935  10.586   6.599 -1.1111 -0.4788 -2.3016
  918MOL0     H21144  -1.107  10.810   6.500  0.8991  1.0875  0.7968
  918MOL0     H21145  -1.150  10.689   6.627 -2.0824 -0.5688 -2.7269
  918MOL0     H21146  -1.130  10.499   6.477 -2.3048 -0.6616 -1.0090
  918MOL0     H21147  -1.097  10.602   6.345  3.0297  0.6151  1.2030
  918MOL0     H21148  -1.350  10.621   6.529  1.2146 -0.2006  0.3593
  918MOL0     H21149  -1.326  10.706   6.372 -2.5247 -0.6068 -0.4166
  918MOL0     H21150  -1.302  10.414   6.383 -1.3616 -1.8827 -0.3198
  918MOL0     H21151  -1.330  10.518   6.246  3.7815 -0.5392  1.1472
  918MOL0     H21152  -1.556  10.407   6.301 -0.6406  2.3089 -1.7361
  918MOL0     H21153  -1.573  10.569   6.325  0.2569  1.1475  1.6398
  918MOL0     H21154  -1.537  10.554   6.563  2.0625 -0.3214 -1.1342
  918MOL0     H21155  -1.667  10.451   6.519  0.7255  1.4014  0.7793
  918MOL0     H21156  -1.382  10.349   6.577  0.5651 -1.6220 -0.8867
  918MOL0     H21157  -1.515  10.248   6.528 -0.4818 -0.5085  2.3652
  918MOL0     H21158  -0.705  10.630   6.650  4.0628 -0.9973  0.5372
  918MOL0     H21159  -0.477  10.717   6.699  0.9738  2.5411  1.8884
  918MOL0     H21160  -0.023  11.031   6.388  2.0704  2.7088  0.7411
  918MOL0     H21161   0.192  11.074   6.490  0.5135 -0.7583  0.3766
  918MOL0     H21162   1.986  11.121   7.187 -0.5117 -1.7432  1.1431
  918MOL0     H21163   2.176  11.052   7.324 -2.2987 -2.0657  2.1473
  918MOL0     H21164   2.151  10.895   7.844 -0.3096  1.6784  1.2610
  918MOL0     H21165   2.317  10.802   8.012 -1.1542  0.1795 -0.8479
  918MOL0     H21166   2.722  10.825   7.914  2.5055  1.5459 -0.6010
  918MOL0     H21167   2.721  10.778   8.095  0.6221  2.6300  2.4215
  918MOL0     H21168   2.729  11.065   8.038 -0.4181  0.3992 -1.1479
  918MOL0     H21169   2.794  10.964   8.173  2.3335  1.3014  0.3703
  918MOL0     H21170   2.963  11.063   8.071  2.5151 -2.2529  0.7152
  918MOL0     H21171   2.912  11.027   7.909 -1.7716 -1.0498 -0.1600
  918MOL0     H21172   3.014  10.819   8.117 -0.4874  0.1855  0.1479
  918MOL0     H21173   2.981  10.778   7.954 -1.3709  2.8270 -2.7351
  918MOL0     H21174   3.373  10.955   7.984  0.0259  0.4922 -1.2119
  918MOL0     H21175   2.613  11.068   7.839  0.8085 -1.3167 -1.4142
  918MOL0     H21176   2.488  11.120   7.666 -1.9758  0.3523 -0.9525
  919MOL0     O21177   9.697  10.756   8.919 -0.6326 -0.3657 -0.4370
  919MOL0     C21178   9.746  10.660   8.859 -0.0119 -0.2476 -0.7318
  919MOL0     O21179   9.685  10.535   8.843  0.5578 -0.1227 -0.3701
  919MOL0     C21180   9.553  10.502   8.882  0.3950 -0.0777  1.1352
  919MOL0     C21181   9.468  10.450   8.789 -0.3780  0.2459  0.1033
  919MOL0     C21182   9.345  10.402   8.818  0.6483  0.6101 -0.8245
  919MOL0     C21183   9.295  10.414   8.954 -0.2707  0.8599 -0.1270
  919MOL0     O21184   9.170  10.385   8.992 -0.1712  0.6194  0.0740
  919MOL0     C21185   9.115  10.255   8.945 -0.4139 -0.6807  0.5597
  919MOL0     C21186   8.991  10.219   9.022  0.1619  0.2894  0.0611
  919MOL0     C21187   8.898  10.339   9.038  0.6867 -0.6136  0.0005
  919MOL0     C21188   8.858  10.404   8.901 -0.1440 -0.2253  1.1100
  919MOL0     C21189   8.719  10.478   8.891 -0.8074  0.3890  0.3172
  919MOL0     C21190   8.595  10.377   8.876  0.0866 -0.4981 -0.1347
  919MOL0     C21191   8.470  10.455   8.866  0.0063 -0.1453  0.6833
  919MOL0     C21192   8.355  10.387   8.780 -0.0266  0.5970  0.3822
  919MOL0     N21193   8.228  10.465   8.786 -0.7799 -1.0320 -0.4190
  919MOL0     C21194   8.156  10.495   8.900  0.7999  0.9765  0.4039
  919MOL0     C21195   8.067  10.584   8.856 -0.5598 -0.4935 -0.6665
  919MOL0     C21196   7.959  10.650   8.944 -0.2652  0.2108 -0.4059
  919MOL0     C21197   7.977  10.803   8.974 -0.5366  0.0229 -0.4779
  919MOL0     C21198   7.904  10.846   9.111  0.8830 -0.7804  0.6642
  919MOL0     C21199   7.757  10.855   9.091 -0.3209  0.2998  0.0498
  919MOL0     O21200   7.695  10.729   9.050 -0.0755 -0.0809  0.2035
  919MOL0     C21201   7.559  10.731   9.030  0.2306 -0.1426  0.2829
  919MOL0     C21202   7.479  10.654   9.108  0.4313 -0.2172 -0.0253
  919MOL0     C21203   7.342  10.640   9.080  0.4163 -0.5754 -0.6512
  919MOL0     C21204   7.287  10.697   8.965  0.5348 -0.3357 -0.4937
  919MOL0     C21205   7.146  10.683   8.944  0.8058  0.4124  0.1967
  919MOL0     O21206   7.103  10.561   8.974 -0.1960  0.0643  0.0187
  919MOL0     C21207   6.981  10.518   8.932  0.0573  0.5772  0.0233
  919MOL0     C21208   6.871  10.501   9.020  0.0273  1.0032 -0.2962
  919MOL0     C21209   6.747  10.449   8.979  0.1398 -0.7429  0.3911
  919MOL0     C21210   6.718  10.426   8.850  0.8608 -0.1701 -0.5014
  919MOL0     O21211   6.587  10.375   8.816  0.5396  0.9812  0.4517
  919MOL0     C21212   6.550  10.359   8.686 -0.3432  0.8292 -0.6479
  919MOL0     C21213   6.424  10.262   8.671  0.9892 -0.5893 -0.2512
  919MOL0     C21214   6.302  10.318   8.745  0.1289  0.2131  0.5840
  919MOL0     C21215   6.176  10.232   8.720  0.0759 -0.1171 -0.6378
  919MOL0     C21216   6.060  10.302   8.797  0.8134 -0.6709 -0.2915
  919MOL0     C21217   5.923  10.238   8.786 -0.2345 -0.2318  0.2781
  919MOL0     C21218   5.803  10.317   8.844 -0.8540  0.8283 -0.0475
  919MOL0     C21219   5.667  10.244   8.801 -0.1606  0.6533  0.0309
  919MOL0    Cl21220   5.610  10.294   8.632 -0.1195  0.0940 -0.2935
  919MOL0     C21221   6.821  10.454   8.761 -0.2446  0.3490  0.1954
  919MOL0     C21222   6.948  10.498   8.802 -0.1099  0.5738  0.2740
  919MOL0     O21223   7.074  10.783   8.901  0.4209  0.4355 -0.1629
  919MOL0     C21224   7.372  10.773   8.881 -0.9590  1.2008  0.1614
  919MOL0     C21225   7.505  10.784   8.910 -0.3670  0.2973  0.3728
  919MOL0     N21226   8.088  10.605   8.718 -0.1644  0.3485 -0.0537
  919MOL0     N21227   8.190  10.542   8.677 -0.1014  0.6984 -0.5164
  919MOL0     C21228   9.371  10.468   9.047  0.0720  0.1542  0.4844
  919MOL0     C21229   9.497  10.514   9.013 -1.2960 -0.3989  0.2625
  919MOL0     C21230   9.874  10.697   8.788 -0.6644 -0.3959  0.3912
  919MOL0     C21231   9.925  10.828   8.771 -0.0720 -0.0755  0.0858
  919MOL0     C21232  10.056  10.846   8.720  0.4638  0.5439  0.4913
  919MOL0     C21233  10.135  10.732   8.677  0.6371  0.4146 -0.4141
  919MOL0     O21234  10.257  10.731   8.621  0.4822  0.6345  0.1545
  919MOL0     C21235  10.353  10.831   8.669 -0.1243 -0.0220  0.3112
  919MOL0     C21236  10.503  10.811   8.633  0.6877 -0.2174 -0.7745
  919MOL0     C21237  10.546  10.665   8.612  0.3424 -0.3016  0.4977
  919MOL0     C21238  10.665  10.649   8.515  0.6559  0.1202  0.1990
  919MOL0     C21239  10.785  10.715   8.558 -0.5944  0.4320 -1.0186
  919MOL0     C21240  10.883  10.765   8.609  0.3271  0.3097  0.5200
  919MOL0     C21241  10.077  10.607   8.697  0.3122  0.0176  0.7815
  919MOL0     C21242   9.952  10.588   8.745 -0.2837 -1.3862 -0.0908
  919MOL0     H21243   9.508  10.442   8.688  1.0072 -0.9712  0.7185
  919MOL0     H21244   9.270  10.366   8.748  0.2426  1.8113 -1.0419
  919MOL0     H21245   9.193  10.180   8.957  0.1876 -0.2035 -0.2825
  919MOL0     H21246   9.098  10.261   8.837  1.9646 -0.5691  0.1368
  919MOL0     H21247   9.021  10.190   9.123 -0.7091  1.0627  0.5484
  919MOL0     H21248   8.940  10.127   8.992  2.6966 -0.5633 -2.1069
  919MOL0     H21249   8.940  10.415   9.104  1.6298  0.9123 -2.2702
  919MOL0     H21250   8.813  10.296   9.093  1.6266 -2.0497  0.3737
  919MOL0     H21251   8.942  10.472   8.889 -0.7108  0.5680  1.5096
  919MOL0     H21252   8.870  10.339   8.814 -0.4445  0.9694  0.1454
  919MOL0     H21253   8.722  10.538   8.799  2.2133  1.1945  0.8130
  919MOL0     H21254   8.721  10.539   8.981  0.5753 -1.6514  1.7465
  919MOL0     H21255   8.579  10.320   8.968 -0.3241 -1.3437 -0.7215
  919MOL0     H21256   8.613  10.307   8.794  0.6779 -1.8869  1.1580
  919MOL0     H21257   8.424  10.467   8.965 -1.8622 -0.7473 -0.0593
  919MOL0     H21258   8.497  10.552   8.823 -1.8963  0.4877  0.8219
  919MOL0     H21259   8.337  10.287   8.821 -2.3461  1.4305  1.6205
  919MOL0     H21260   8.384  10.386   8.675 -1.8269 -1.8761 -0.1875
  919MOL0     H21261   8.183  10.481   9.004  1.9839  0.4390  0.0464
  919MOL0     H21262   7.954  10.598   9.040  0.2810  0.7476 -0.0757
  919MOL0     H21263   7.870  10.617   8.890 -2.6524  0.8281  2.8611
  919MOL0     H21264   7.929  10.852   8.890 -1.2777  0.1416  0.0106
  919MOL0     H21265   8.081  10.837   8.981 -0.7854  0.5488  1.1068
  919MOL0     H21266   7.936  10.770   9.183  2.0637 -2.0811 -1.1342
  919MOL0     H21267   7.948  10.940   9.145 -0.9322 -0.2604  1.7328
  919MOL0     H21268   7.734  10.934   9.018 -0.6115  0.8363  0.7164
  919MOL0     H21269   7.709  10.884   9.184 -0.8458 -0.2165 -0.0544
  919MOL0     H21270   7.508  10.612   9.204  1.9436 -0.9724 -0.7978
  919MOL0     H21271   7.272  10.595   9.149 -1.1457  1.3414 -0.8691
  919MOL0     H21272   6.904  10.492   9.123 -0.0797 -4.0591 -0.4664
  919MOL0     H21273   6.678  10.416   9.056 -1.0271 -1.1080 -0.7805
  919MOL0     H21274   6.630  10.316   8.624 -0.5746 -3.1992  1.4835
  919MOL0     H21275   6.537  10.463   8.656  1.3502  1.3953  0.4357
  919MOL0     H21276   6.443  10.158   8.699  0.3161 -1.2660 -2.1951
  919MOL0     H21277   6.401  10.265   8.564  2.2720 -0.2580 -0.5364
  919MOL0     H21278   6.283  10.424   8.726 -0.4121  0.0209 -0.0161
  919MOL0     H21279   6.334  10.313   8.849  2.0526  1.4511  0.0993
  919MOL0     H21280   6.159  10.212   8.614 -2.2354  1.1849 -0.5832
  919MOL0     H21281   6.195  10.133   8.762 -1.2041 -0.9258 -1.8646
  919MOL0     H21282   6.055  10.407   8.768  2.4653 -0.1763  1.0541
  919MOL0     H21283   6.088  10.303   8.903 -0.2370 -1.6061  0.0157
  919MOL0     H21284   5.930  10.138   8.829  0.6247 -0.8066 -1.1254
  919MOL0     H21285   5.907  10.230   8.678 -0.1416  2.7587 -0.0448
  919MOL0     H21286   5.807  10.334   8.952  1.1609 -3.3212  0.7239
  919MOL0     H21287   5.804  10.411   8.788  1.2094 -1.4451 -4.3445
  919MOL0     H21288   5.585  10.278   8.864  0.8871  0.5120  1.5287
  919MOL0     H21289   5.671  10.135   8.809 -4.2792  0.2324 -1.2024
  919MOL0     H21290   6.821  10.431   8.655  1.7862  0.0245  0.2321
  919MOL0     H21291   7.035  10.521   8.742 -1.1493  2.4591 -0.5820
  919MOL0     H21292   7.327  10.822   8.795 -4.0130  1.9642  2.0216
  919MOL0     H21293   7.568  10.828   8.833 -1.0751 -3.2193 -2.4839
  919MOL0     H21294   9.337  10.467   9.150  1.0759  0.1962  0.8277
  919MOL0     H21295   9.557  10.560   9.091 -1.0188 -1.9380  0.9939
  919MOL0     H21296   9.869  10.912   8.811  2.1497  1.4554  0.1504
  919MOL0     H21297  10.099  10.943   8.694  1.6742  0.0351  0.5199
  919MOL0     H21298  10.355  10.825   8.778 -2.5262  1.8248  0.5674
  919MOL0     H21299  10.314  10.930   8.642 -2.1395 -0.3411  1.8409
  919MOL0     H21300  10.519  10.869   8.541  0.1735  0.7399 -0.2740
  919MOL0     H21301  10.572  10.853   8.707  2.2372  0.8323 -2.7139
  919MOL0     H21302  10.464  10.601   8.578 -0.1364  0.8503 -0.6262
  919MOL0     H21303  10.577  10.624   8.708 -0.2269 -3.9394 -0.6963
  919MOL0     H21304  10.690  10.544   8.497  0.6338  0.3372 -1.2757
  919MOL0     H21305  10.646  10.691   8.416  1.8645  1.1954  0.3985
  919MOL0     H21306  10.968  10.805   8.660  2.1017 -0.4800 -1.6051
  919MOL0     H21307  10.124  10.518   8.655  2.9996  2.1080 -1.0219
  919MOL0     H21308   9.909  10.489   8.745  2.2023 -2.5658  1.1653
  920MOL0     O21309   5.567   4.609   4.927 -0.1946  0.2616 -0.4102
  920MOL0     C21310   5.498   4.683   4.996 -0.1307  0.6243  0.6569
  920MOL0     O21311   5.542   4.766   5.086 -0.2063 -0.1745  0.1622
  920MOL0     C21312   5.675   4.803   5.099 -0.0087 -0.3373 -0.2824
  920MOL0     C21313   5.755   4.865   4.999 -0.1368 -0.3931 -0.5279
  920MOL0     C21314   5.886   4.904   5.027 -0.1862 -0.2177  0.2058
  920MOL0     C21315   5.944   4.888   5.153  0.3416  0.5329  0.5678
  920MOL0     O21316   6.069   4.942   5.171 -0.0898  0.2419 -0.1447
  920MOL0     C21317   6.162   4.852   5.232 -0.0232  0.2584 -0.3269
  920MOL0     C21318   6.275   4.928   5.307  0.7445  0.5608  0.9447
  920MOL0     C21319   6.220   5.029   5.398  0.2583  0.1418  0.0314
  920MOL0     C21320   6.317   5.098   5.492 -0.2677  0.4046 -0.4388
  920MOL0     C21321   6.411   5.185   5.403  0.4120  0.0013 -0.2227
  920MOL0     C21322   6.532   5.226   5.498  0.5868  0.0168  0.6301
  920MOL0     C21323   6.606   5.345   5.442 -0.0620  0.3673  0.1773
  920MOL0     C21324   6.706   5.326   5.331 -0.2396  0.3093 -0.5496
  920MOL0     N21325   6.766   5.453   5.287 -0.3147 -0.1124 -0.3543
  920MOL0     C21326   6.827   5.548   5.377  0.6338 -0.0567  0.4954
  920MOL0     C21327   6.850   5.651   5.293 -0.5018 -0.0724  0.9016
  920MOL0     C21328   6.913   5.786   5.323  0.2635 -0.3803 -0.5980
  920MOL0     C21329   7.061   5.781   5.334 -0.6328 -0.6357 -0.4823
  920MOL0     C21330   7.118   5.920   5.372  0.1925 -0.5556  0.4889
  920MOL0     C21331   7.085   5.970   5.512  0.3422  0.1414  0.9352
  920MOL0     O21332   7.113   5.885   5.622 -0.0297 -0.8823  0.0612
  920MOL0     C21333   7.009   5.821   5.683  0.5806 -0.4542 -0.3406
  920MOL0     C21334   6.883   5.879   5.722  0.6591 -0.0375  0.3427
  920MOL0     C21335   6.795   5.795   5.780 -0.2255 -0.6832  0.7358
  920MOL0     C21336   6.822   5.658   5.802 -0.0490 -0.7610  0.6279
  920MOL0     C21337   6.715   5.573   5.859  0.7725  0.5061  0.5779
  920MOL0     O21338   6.588   5.601   5.825  0.5803  0.0142 -0.0206
  920MOL0     C21339   6.490   5.518   5.880 -0.3608  0.3409  0.5982
  920MOL0     C21340   6.414   5.450   5.791 -0.2940 -0.4629  0.0030
  920MOL0     C21341   6.303   5.382   5.827 -0.2535 -0.0619  0.1642
  920MOL0     C21342   6.262   5.376   5.962 -0.1446 -0.2229 -0.5185
  920MOL0     O21343   6.152   5.304   6.004 -0.2960  0.1833 -0.3680
  920MOL0     C21344   6.028   5.387   6.013 -0.3800 -0.4674 -0.2930
  920MOL0     C21345   5.896   5.301   5.994 -0.0164 -0.5509  0.2243
  920MOL0     C21346   5.917   5.218   5.867 -0.8353  0.7948  0.5261
  920MOL0     C21347   5.795   5.133   5.820 -0.4285 -0.4094  0.8025
  920MOL0     C21348   5.672   5.212   5.798  0.4767 -0.9233  0.3046
  920MOL0     C21349   5.541   5.128   5.803 -1.1897 -0.8996 -0.2332
  920MOL0     C21350   5.406   5.187   5.799 -0.1097 -0.8053  0.2320
  920MOL0     C21351   5.354   5.174   5.651  0.0346 -0.0701 -0.0367
  920MOL0    Cl21352   5.194   5.238   5.654 -0.2313 -0.3120 -0.3702
  920MOL0     C21353   6.351   5.425   6.064  0.4344  1.2095  0.1122
  920MOL0     C21354   6.466   5.499   6.021 -0.3104  0.9298 -0.5474
  920MOL0     O21355   6.755   5.479   5.935 -0.3532  0.0896 -0.1617
  920MOL0     C21356   6.952   5.611   5.789 -0.6391  0.9070  0.6989
  920MOL0     C21357   7.047   5.695   5.727 -0.2557  0.5013  0.3416
  920MOL0     N21358   6.807   5.621   5.167 -0.3446  0.3246 -0.5159
  920MOL0     N21359   6.767   5.501   5.158  0.1889  0.2552 -0.3519
  920MOL0     C21360   5.855   4.830   5.254 -0.4215 -0.2967  0.7593
  920MOL0     C21361   5.729   4.784   5.229 -0.2424 -0.0895 -0.6342
  920MOL0     C21362   5.353   4.665   5.001 -1.0723  0.4540  0.8877
  920MOL0     C21363   5.265   4.761   5.044 -0.8992  0.6156  0.0462
  920MOL0     C21364   5.123   4.741   5.052 -0.4531 -0.0595  0.1797
  920MOL0     C21365   5.075   4.613   5.021  0.7560  0.0058 -0.1367
  920MOL0     O21366   4.949   4.574   5.010 -0.3750 -0.0912  0.5289
  920MOL0     C21367   4.849   4.633   5.097 -0.0710  0.4985 -0.1940
  920MOL0     C21368   4.719   4.561   5.089 -0.0773 -0.2678 -0.1390
  920MOL0     C21369   4.653   4.603   4.956 -0.0265  0.2190 -1.0466
  920MOL0     C21370   4.514   4.545   4.915 -0.3114  0.1498  0.3386
  920MOL0     C21371   4.404   4.612   4.975 -0.5169  0.1406  0.1674
  920MOL0     C21372   4.305   4.663   5.018 -0.2469  0.4900 -0.0274
  920MOL0     C21373   5.157   4.516   4.963  0.9613  0.2335 -0.2016
  920MOL0     C21374   5.296   4.541   4.954 -0.3512  0.3575 -0.7611
  920MOL0     H21375   5.711   4.879   4.901 -2.0770 -0.2119  0.3044
  920MOL0     H21376   5.950   4.931   4.943 -0.4566  0.2348  0.1445
  920MOL0     H21377   6.206   4.797   5.148  0.4382  1.4480 -0.8809
  920MOL0     H21378   6.121   4.785   5.308  1.8756 -2.2547 -1.3744
  920MOL0     H21379   6.333   4.978   5.229  1.4829 -1.7279 -0.0705
  920MOL0     H21380   6.336   4.860   5.368 -1.0321 -0.2437  1.9030
  920MOL0     H21381   6.147   4.981   5.464  2.0834 -1.4522  0.9780
  920MOL0     H21382   6.169   5.103   5.336 -1.0139 -0.8555 -0.1492
  920MOL0     H21383   6.270   5.159   5.570 -2.2302 -0.1700 -1.1096
  920MOL0     H21384   6.367   5.012   5.539 -0.6030 -0.7634 -2.1445
  920MOL0     H21385   6.357   5.274   5.369 -1.7141 -1.9067 -2.1093
  920MOL0     H21386   6.452   5.126   5.321  0.3928 -1.0741  0.5200
  920MOL0     H21387   6.598   5.139   5.489  0.2481 -0.2007  0.2167
  920MOL0     H21388   6.484   5.253   5.592 -1.2464 -1.4335  0.1911
  920MOL0     H21389   6.532   5.416   5.405  1.8808  0.6383 -3.7472
  920MOL0     H21390   6.644   5.393   5.533  2.0853 -1.2061  0.1981
  920MOL0     H21391   6.660   5.270   5.250 -0.5287 -3.4069  1.9409
  920MOL0     H21392   6.782   5.260   5.374 -1.1575  2.0138  4.4506
  920MOL0     H21393   6.854   5.527   5.480 -3.4308  1.0793  1.9608
  920MOL0     H21394   6.863   5.811   5.418  0.4598 -0.6806 -0.4130
  920MOL0     H21395   6.887   5.855   5.242 -0.4945  1.3161  1.0135
  920MOL0     H21396   7.098   5.752   5.236  0.6984  1.2270 -0.5868
  920MOL0     H21397   7.085   5.705   5.408  4.2139 -0.1851 -1.2888
  920MOL0     H21398   7.227   5.908   5.366  0.2913  0.8442 -1.6886
  920MOL0     H21399   7.087   5.997   5.300 -2.5812 -1.9527  0.0592
  920MOL0     H21400   6.981   6.005   5.515 -0.0980 -1.1775  1.6829
  920MOL0     H21401   7.158   6.051   5.526  1.0730 -0.6486  1.8265
  920MOL0     H21402   6.861   5.983   5.701 -0.2451 -0.0566  1.1661
  920MOL0     H21403   6.704   5.836   5.824 -0.0259 -1.0636  1.5161
  920MOL0     H21404   6.445   5.447   5.687 -0.2925 -3.8366 -0.0306
  920MOL0     H21405   6.242   5.337   5.749 -1.5886  1.4604  0.2669
  920MOL0     H21406   6.039   5.469   5.942  0.1059 -0.5490 -0.3163
  920MOL0     H21407   6.014   5.433   6.111 -3.0219 -0.3995 -0.6277
  920MOL0     H21408   5.805   5.360   6.003  0.3213 -0.2796  2.3168
  920MOL0     H21409   5.889   5.225   6.072  1.3315 -0.5255  0.3958
  920MOL0     H21410   6.001   5.153   5.892  0.6124  2.5301  0.3677
  920MOL0     H21411   5.937   5.283   5.781 -0.9090  0.1679  0.0309
  920MOL0     H21412   5.815   5.084   5.724 -1.7048  1.9340 -0.7463
  920MOL0     H21413   5.779   5.060   5.900 -3.3064  1.9978  2.6566
  920MOL0     H21414   5.677   5.266   5.703 -1.4637 -1.7673 -0.3316
  920MOL0     H21415   5.651   5.285   5.876 -2.4317  0.4883 -1.6077
  920MOL0     H21416   5.545   5.081   5.901  2.2764  2.5037  1.4982
  920MOL0     H21417   5.552   5.059   5.718 -1.5066  1.3057 -2.1846
  920MOL0     H21418   5.339   5.116   5.850  0.7397 -4.0095 -2.7574
  920MOL0     H21419   5.394   5.290   5.835  0.7256  0.7509 -3.4855
  920MOL0     H21420   5.355   5.075   5.605 -2.7150 -0.0669 -0.2525
  920MOL0     H21421   5.421   5.232   5.587  1.2500 -3.3881 -2.0210
  920MOL0     H21422   6.323   5.402   6.166 -3.5044  2.1901 -0.6110
  920MOL0     H21423   6.534   5.548   6.090 -0.9678 -0.2123  0.9706
  920MOL0     H21424   6.989   5.511   5.809  0.4861  1.0837 -0.3688
  920MOL0     H21425   7.147   5.661   5.704 -0.5576  1.2051 -2.3641
  920MOL0     H21426   5.896   4.818   5.353  2.0786 -0.6773 -0.2410
  920MOL0     H21427   5.666   4.747   5.309 -0.8503 -0.4926 -1.2943
  920MOL0     H21428   5.309   4.856   5.074  0.2471 -0.1668  0.9085
  920MOL0     H21429   5.048   4.817   5.073 -0.3606  0.0841 -0.0043
  920MOL0     H21430   4.842   4.736   5.061 -4.2621 -0.2089 -1.9563
  920MOL0     H21431   4.881   4.635   5.202  1.4382 -2.4553 -0.4834
  920MOL0     H21432   4.743   4.456   5.105  1.9844 -0.5942 -4.0120
  920MOL0     H21433   4.671   4.602   5.178  1.1933 -1.4790  1.1606
  920MOL0     H21434   4.727   4.565   4.884  1.5034  0.2325  0.4544
  920MOL0     H21435   4.657   4.712   4.947  0.4275  0.4845  1.5871
  920MOL0     H21436   4.495   4.548   4.807 -1.1721 -0.8075  0.4409
  920MOL0     H21437   4.521   4.438   4.937 -0.1255 -0.2779 -1.6312
  920MOL0     H21438   4.213   4.697   5.062  0.2478  1.0192  0.6253
  920MOL0     H21439   5.120   4.418   4.934  2.7224 -0.1803 -1.1954
  920MOL0     H21440   5.373   4.471   4.923  0.5260  0.9894 -0.0384
  921MOL0     O21441  10.587   3.824   1.786  0.3339  0.2529  0.2792
  921MOL0     C21442  10.623   3.797   1.676 -0.4098 -0.2034 -0.3674
  921MOL0     O21443  10.545   3.781   1.563 -0.5313 -0.4861 -0.0149
  921MOL0     C21444  10.422   3.841   1.564  0.6343  0.0702  0.3933
  921MOL0     C21445  10.402   3.972   1.506 -0.1435  0.9182  0.0825
  921MOL0     C21446  10.272   4.025   1.514 -0.5006 -0.5950 -0.8552
  921MOL0     C21447  10.167   3.954   1.564 -0.1153  0.5942  1.3656
  921MOL0     O21448  10.045   4.025   1.567 -0.1426 -0.1042  0.1091
  921MOL0     C21449   9.975   4.055   1.691  0.0188  0.1671  0.5850
  921MOL0     C21450   9.878   4.166   1.670 -0.3435  0.6561  0.9893
  921MOL0     C21451   9.765   4.127   1.572 -0.0839 -1.4919  0.7680
  921MOL0     C21452   9.685   4.253   1.561  0.1858 -0.7393  0.1761
  921MOL0     C21453   9.596   4.269   1.434 -0.9948 -0.0138 -0.8733
  921MOL0     C21454   9.479   4.171   1.422 -0.7177 -0.4782 -0.0864
  921MOL0     C21455   9.421   4.189   1.273 -0.0848 -0.2858  0.1761
  921MOL0     C21456   9.357   4.054   1.216  0.9634  0.2018 -0.4263
  921MOL0     N21457   9.209   4.061   1.220  0.2625  0.4705  0.5960
  921MOL0     C21458   9.132   3.947   1.218 -0.3858  0.8075  0.9422
  921MOL0     C21459   8.998   3.981   1.221  0.0806  0.2567  0.2732
  921MOL0     C21460   8.884   3.889   1.231 -0.6485 -0.2542 -0.6607
  921MOL0     C21461   8.752   3.922   1.159  0.1660 -0.0556 -0.1602
  921MOL0     C21462   8.650   3.809   1.192 -0.2861 -0.3839 -0.6626
  921MOL0     C21463   8.513   3.838   1.135  0.0512  0.0329 -1.1373
  921MOL0     O21464   8.436   3.725   1.125  0.4001  0.1414  0.2929
  921MOL0     C21465   8.298   3.726   1.119  0.5027 -0.3253  0.1134
  921MOL0     C21466   8.228   3.606   1.120  0.8877  0.8177 -0.1411
  921MOL0     C21467   8.089   3.597   1.130 -0.4337  0.3313 -0.8625
  921MOL0     C21468   8.006   3.717   1.130  0.6795  0.0788  0.3794
  921MOL0     C21469   7.858   3.711   1.139  0.0107  0.3339 -0.8486
  921MOL0     O21470   7.803   3.587   1.125  0.1146 -0.0655  0.1825
  921MOL0     C21471   7.662   3.567   1.119 -0.3227 -0.0646  0.7889
  921MOL0     C21472   7.573   3.660   1.063  0.3139  0.0975 -0.6054
  921MOL0     C21473   7.435   3.637   1.067 -0.0582 -0.3879 -0.3546
  921MOL0     C21474   7.386   3.511   1.112  0.7399 -0.2998 -0.3145
  921MOL0     O21475   7.248   3.487   1.097 -0.1822 -1.0106  0.0836
  921MOL0     C21476   7.208   3.348   1.094 -0.2886 -0.3986  0.2575
  921MOL0     C21477   7.062   3.341   1.122  0.6911  0.2549  0.5656
  921MOL0     C21478   6.987   3.424   1.017  0.0640  0.4471  0.0992
  921MOL0     C21479   6.836   3.406   1.041  0.7478  1.6361  0.0240
  921MOL0     C21480   6.751   3.479   0.941 -0.4147 -0.1686 -0.0801
  921MOL0     C21481   6.778   3.637   0.939 -0.2470 -0.6331 -0.4590
  921MOL0     C21482   6.676   3.724   0.852 -0.5983 -0.6740 -0.0399
  921MOL0     C21483   6.725   3.867   0.865  0.4107  0.1115 -0.1805
  921MOL0    Cl21484   6.647   3.963   0.738 -0.3265  0.5747  0.0288
  921MOL0     C21485   7.482   3.423   1.161  0.7107 -0.4113  0.3591
  921MOL0     C21486   7.618   3.449   1.164 -0.8489  0.0097  0.4293
  921MOL0     O21487   7.801   3.813   1.148  0.2666  0.5713 -0.1072
  921MOL0     C21488   8.084   3.835   1.127  0.8093 -0.8558  0.0311
  921MOL0     C21489   8.222   3.846   1.126 -0.2569 -0.4817  0.6637
  921MOL0     N21490   8.992   4.119   1.215 -0.4897  0.4092  0.2686
  921MOL0     N21491   9.115   4.160   1.206  0.4247 -0.4611 -0.1966
  921MOL0     C21492  10.186   3.826   1.624 -0.5435 -0.4281  0.7206
  921MOL0     C21493  10.316   3.771   1.613  0.6589  0.4506 -0.0322
  921MOL0     C21494  10.767   3.830   1.657  0.2257  0.0134 -0.1820
  921MOL0     C21495  10.841   3.880   1.765  0.0482  0.1226  0.5062
  921MOL0     C21496  10.976   3.926   1.746 -0.3586  0.6850 -0.4326
  921MOL0     C21497  11.037   3.918   1.619 -0.5728  0.3091  0.2498
  921MOL0     O21498  11.166   3.976   1.600 -0.0380 -0.3552 -0.2992
  921MOL0     C21499  11.250   3.998   1.709 -0.4751 -0.0644  0.5635
  921MOL0     C21500  11.388   3.985   1.654  0.5618 -0.8717 -0.7373
  921MOL0     C21501  11.416   3.837   1.615  0.1972  0.0471 -0.2386
  921MOL0     C21502  11.537   3.836   1.527  0.2044  0.3610  0.8067
  921MOL0     C21503  11.552   3.700   1.479  0.4230  0.3092  0.7073
  921MOL0     C21504  11.567   3.589   1.429  0.7124  0.3076 -0.0128
  921MOL0     C21505  10.968   3.865   1.511 -0.3197 -0.3641 -0.8370
  921MOL0     C21506  10.835   3.833   1.529  0.5418  0.7136  0.0273
  921MOL0     H21507  10.478   4.021   1.446  1.6617 -0.9627  0.6990
  921MOL0     H21508  10.247   4.121   1.469 -1.4179  0.1597  1.1195
  921MOL0     H21509  10.053   4.069   1.766  2.0283 -0.2699 -1.3001
  921MOL0     H21510   9.919   3.966   1.720 -2.8452  0.8823 -2.1354
  921MOL0     H21511   9.927   4.253   1.625 -1.7342  1.2041  0.4600
  921MOL0     H21512   9.839   4.204   1.765 -2.3234  1.1082  0.0545
  921MOL0     H21513   9.702   4.047   1.609 -1.3740 -1.4034 -1.1035
  921MOL0     H21514   9.810   4.105   1.475 -1.3007 -1.5503  0.1971
  921MOL0     H21515   9.630   4.261   1.655 -2.2424 -0.2604 -1.1803
  921MOL0     H21516   9.749   4.342   1.560 -1.5864  0.6435 -2.1209
  921MOL0     H21517   9.668   4.241   1.357  2.4281 -2.0836  2.6887
  921MOL0     H21518   9.567   4.371   1.410  0.5148  0.5664 -0.3699
  921MOL0     H21519   9.407   4.208   1.495 -2.2682 -1.4125 -1.0746
  921MOL0     H21520   9.509   4.067   1.438  0.5271 -0.2748 -0.9105
  921MOL0     H21521   9.345   4.268   1.275  0.3828  0.1572  2.0489
  921MOL0     H21522   9.503   4.223   1.208  1.1188 -0.2303  1.6794
  921MOL0     H21523   9.401   3.969   1.269  0.4153  0.2896  0.1861
  921MOL0     H21524   9.390   4.042   1.113 -0.8883 -2.1710 -0.8124
  921MOL0     H21525   9.168   3.845   1.228 -0.7957  0.4427 -0.9412
  921MOL0     H21526   8.862   3.876   1.338  1.4747  1.5366  0.0779
  921MOL0     H21527   8.922   3.792   1.197  0.2476  0.3464 -1.4148
  921MOL0     H21528   8.760   3.939   1.052 -0.5199 -0.4546 -0.2805
  921MOL0     H21529   8.711   4.018   1.190 -1.1299  1.0815 -4.7655
  921MOL0     H21530   8.676   3.716   1.140  3.7242  1.0036 -1.4506
  921MOL0     H21531   8.650   3.786   1.299  2.4367  0.9221 -0.3136
  921MOL0     H21532   8.520   3.867   1.029 -1.2098  1.0525 -0.9749
  921MOL0     H21533   8.466   3.920   1.189  0.8287  0.0018 -0.4041
  921MOL0     H21534   8.284   3.513   1.119  0.7901  0.6452 -3.6456
  921MOL0     H21535   8.063   3.492   1.128  2.2806 -0.4706  1.1129
  921MOL0     H21536   7.604   3.761   1.039 -0.6460  0.4703 -0.3110
  921MOL0     H21537   7.370   3.712   1.023 -1.2232 -2.1930 -1.8885
  921MOL0     H21538   7.259   3.301   1.179  0.6010 -2.8521 -1.4982
  921MOL0     H21539   7.235   3.297   1.001  1.9351 -2.0520  1.6976
  921MOL0     H21540   7.037   3.367   1.226  3.8718  0.4285  1.3777
  921MOL0     H21541   7.032   3.237   1.111 -0.6612  0.7395 -0.6669
  921MOL0     H21542   7.015   3.395   0.915  1.9912 -1.2586  1.0567
  921MOL0     H21543   7.021   3.528   1.019  0.7598  0.3755 -2.7206
  921MOL0     H21544   6.815   3.299   1.041  1.3188  1.5065  1.3271
  921MOL0     H21545   6.816   3.440   1.143 -1.5587  3.0616 -0.8353
  921MOL0     H21546   6.645   3.461   0.960 -0.1526 -1.3934  0.3092
  921MOL0     H21547   6.786   3.439   0.845  2.6231 -0.9724  1.2484
  921MOL0     H21548   6.880   3.659   0.907 -0.0626  0.8132  1.0584
  921MOL0     H21549   6.769   3.677   1.040 -1.1297  1.4136 -1.2929
  921MOL0     H21550   6.669   3.698   0.746 -1.9334  0.8706 -0.3736
  921MOL0     H21551   6.578   3.715   0.898 -0.8094 -1.2336 -0.5863
  921MOL0     H21552   6.834   3.871   0.869  0.4955 -1.8277  0.8873
  921MOL0     H21553   6.687   3.902   0.961 -2.4246 -1.1337 -0.7367
  921MOL0     H21554   7.451   3.323   1.189  2.3936 -1.3944 -1.0905
  921MOL0     H21555   7.694   3.378   1.197 -1.8418 -2.6248 -2.4730
  921MOL0     H21556   8.043   3.935   1.127  0.9680 -0.7417  1.9767
  921MOL0     H21557   8.273   3.941   1.115  1.1124 -0.9418  2.5208
  921MOL0     H21558  10.105   3.775   1.675 -0.4789 -0.6890  0.5621
  921MOL0     H21559  10.327   3.666   1.638  0.6541  0.0995 -1.4662
  921MOL0     H21560  10.806   3.909   1.864  0.5977  2.5037  0.0668
  921MOL0     H21561  11.029   3.973   1.828  0.6004 -1.9136  0.5449
  921MOL0     H21562  11.233   3.928   1.791 -1.5644 -0.8955 -0.3316
  921MOL0     H21563  11.241   4.097   1.755 -2.3097 -0.8329  1.9977
  921MOL0     H21564  11.402   4.051   1.568 -1.5559  1.1372  0.3411
  921MOL0     H21565  11.460   4.015   1.730 -1.8013  0.7567  0.9912
  921MOL0     H21566  11.329   3.797   1.561  0.0107  1.0917 -0.7569
  921MOL0     H21567  11.431   3.779   1.706 -0.5280 -0.1282 -0.2248
  921MOL0     H21568  11.538   3.904   1.441 -3.0309 -0.5061 -0.0564
  921MOL0     H21569  11.621   3.856   1.593  0.2703  0.7457  0.6105
  921MOL0     H21570  11.565   3.488   1.392 -4.2942  0.6189 -1.2703
  921MOL0     H21571  11.015   3.872   1.413 -0.6686  2.7030 -0.8692
  921MOL0     H21572  10.785   3.805   1.437  3.6680 -0.9775 -1.2824
  922MOL0     O21573   7.788   6.756   1.085 -0.2236 -0.2483  0.7794
  922MOL0     C21574   7.737   6.855   1.040 -0.5320 -0.3027 -0.0806
  922MOL0     O21575   7.611   6.891   1.060  0.3380 -0.7536  0.6371
  922MOL0     C21576   7.522   6.799   1.105  0.1157 -0.1105  0.0820
  922MOL0     C21577   7.516   6.755   1.236 -0.5151  0.3766 -0.9986
  922MOL0     C21578   7.432   6.652   1.274 -0.3195 -0.1480 -0.4267
  922MOL0     C21579   7.352   6.587   1.178  0.2874 -0.3726 -0.1097
  922MOL0     O21580   7.262   6.492   1.202  0.1404  0.5564  0.0976
  922MOL0     C21581   7.237   6.444   1.339  0.0003  0.3179 -0.5888
  922MOL0     C21582   7.117   6.353   1.350  0.1099  0.4652 -0.2088
  922MOL0     C21583   6.998   6.387   1.268  0.2217 -0.0266  0.0715
  922MOL0     C21584   6.889   6.286   1.260  0.3106 -0.5034  0.3199
  922MOL0     C21585   6.769   6.349   1.187 -0.5629 -1.6141  0.4678
  922MOL0     C21586   6.771   6.303   1.045 -1.2873 -0.1757 -0.0677
  922MOL0     C21587   6.680   6.394   0.951 -0.0771 -0.8339 -0.0323
  922MOL0     C21588   6.754   6.518   0.895  0.1683 -0.2832  0.4576
  922MOL0     N21589   6.798   6.624   0.992  0.4006  0.4415 -0.3470
  922MOL0     C21590   6.931   6.650   1.031  0.9443 -0.1174 -0.0726
  922MOL0     C21591   6.913   6.778   1.076  0.0067  0.5186 -0.0043
  922MOL0     C21592   7.021   6.860   1.134 -0.5312  0.2516  0.5127
  922MOL0     C21593   7.072   6.805   1.264  0.7584  1.3477  0.2084
  922MOL0     C21594   7.179   6.888   1.321 -0.8463 -0.0567  0.2046
  922MOL0     C21595   7.120   7.022   1.378  0.3393  0.6186 -0.0654
  922MOL0     O21596   7.199   7.089   1.476  0.1270 -0.6328 -0.3393
  922MOL0     C21597   7.329   7.121   1.446  0.6681 -0.3681  0.3853
  922MOL0     C21598   7.421   7.121   1.548 -1.2300  0.4349 -0.1263
  922MOL0     C21599   7.552   7.170   1.527  0.0927  0.4499 -0.6693
  922MOL0     C21600   7.598   7.208   1.403  0.5907  0.2357  0.2491
  922MOL0     C21601   7.734   7.244   1.389  0.0942  0.1116  0.0724
  922MOL0     O21602   7.760   7.310   1.275  0.1421 -0.4968 -0.3714
  922MOL0     C21603   7.897   7.321   1.244  0.1170 -0.4697  0.4190
  922MOL0     C21604   7.948   7.442   1.219 -0.8009 -0.3526 -0.2617
  922MOL0     C21605   8.074   7.461   1.168  0.1721 -0.1309 -0.5050
  922MOL0     C21606   8.155   7.351   1.144 -0.1564  0.1112  0.1149
  922MOL0     O21607   8.287   7.369   1.102  0.3322 -0.3151 -0.5870
  922MOL0     C21608   8.388   7.295   1.163 -0.6784  0.3309 -0.0232
  922MOL0     C21609   8.523   7.319   1.102 -0.1121  0.5817  0.0087
  922MOL0     C21610   8.533   7.264   0.955  0.3210  0.3521  1.6400
  922MOL0     C21611   8.679   7.257   0.907 -0.3861  0.2595 -0.4697
  922MOL0     C21612   8.742   7.387   0.877  0.3334 -0.4711  0.3743
  922MOL0     C21613   8.877   7.374   0.800  0.2890 -0.4185 -0.3515
  922MOL0     C21614   8.996   7.323   0.878  0.4338  0.5502  0.1576
  922MOL0     C21615   9.021   7.417   0.998 -0.4320 -0.4786  0.6003
  922MOL0    Cl21616   9.194   7.399   1.051  0.1346 -0.4997 -0.2333
  922MOL0     C21617   8.097   7.219   1.171 -0.2211 -0.3937 -0.2701
  922MOL0     C21618   7.968   7.209   1.220 -0.2831 -0.6565  0.2776
  922MOL0     O21619   7.814   7.211   1.478 -0.5616 -0.1486  0.1315
  922MOL0     C21620   7.503   7.196   1.294  0.2587 -0.5273  0.7766
  922MOL0     C21621   7.369   7.160   1.320  0.1521  0.0265 -0.3492
  922MOL0     N21622   6.781   6.823   1.059 -0.3594 -0.8523 -0.3141
  922MOL0     N21623   6.707   6.726   1.018 -0.3377  0.1492 -0.8158
  922MOL0     C21624   7.347   6.641   1.049 -0.4090  0.4156 -0.3576
  922MOL0     C21625   7.426   6.746   1.013 -1.3409 -0.1238  0.0693
  922MOL0     C21626   7.826   6.943   0.964  1.3352 -0.1491  0.0849
  922MOL0     C21627   7.965   6.930   0.961  0.2948  0.8963 -0.3957
  922MOL0     C21628   8.045   7.013   0.893  0.2160  0.3687  0.2774
  922MOL0     C21629   7.987   7.118   0.811  0.3181  1.1768 -0.6536
  922MOL0     O21630   8.049   7.207   0.732 -0.6195 -0.6536  0.0211
  922MOL0     C21631   8.193   7.212   0.707  0.2790  0.9197  0.7358
  922MOL0     C21632   8.213   7.305   0.588 -0.2112 -0.0195 -0.4340
  922MOL0     C21633   8.368   7.289   0.556  0.2380 -0.3064 -0.0762
  922MOL0     C21634   8.421   7.427   0.529  0.1532 -0.2060 -0.0476
  922MOL0     C21635   8.428   7.511   0.652 -0.1581 -0.0258 -0.0731
  922MOL0     C21636   8.425   7.577   0.762 -0.8332 -0.6580  1.0996
  922MOL0     C21637   7.851   7.141   0.827  0.2128  0.5303  0.3211
  922MOL0     C21638   7.779   7.058   0.908 -0.9038 -0.1469  0.5609
  922MOL0     H21639   7.577   6.808   1.308 -2.5626 -0.2395  1.3336
  922MOL0     H21640   7.440   6.610   1.374  2.1671  3.2822  1.0366
  922MOL0     H21641   7.223   6.532   1.402 -0.9472 -1.4255  1.7602
  922MOL0     H21642   7.314   6.373   1.369 -2.7037 -2.2819  0.7904
  922MOL0     H21643   7.083   6.341   1.454  1.9655  0.7540  0.4770
  922MOL0     H21644   7.145   6.253   1.318  0.8187  1.3371 -2.5383
  922MOL0     H21645   7.027   6.406   1.164 -1.6871 -0.7054 -0.6215
  922MOL0     H21646   6.966   6.480   1.315 -2.3755 -1.5582  1.5260
  922MOL0     H21647   6.926   6.197   1.209  0.3254 -0.2796 -0.0686
  922MOL0     H21648   6.851   6.266   1.360  0.7143  3.2226  1.3628
  922MOL0     H21649   6.780   6.458   1.186 -0.9109 -1.5731 -0.7961
  922MOL0     H21650   6.671   6.321   1.227 -0.8164  0.4872  1.4423
  922MOL0     H21651   6.758   6.194   1.044  1.7087 -0.9799  5.4914
  922MOL0     H21652   6.874   6.323   1.012 -1.6687  0.4726 -0.8805
  922MOL0     H21653   6.658   6.325   0.869  3.8389 -0.4022 -1.6899
  922MOL0     H21654   6.597   6.416   1.019  0.5942  1.8028  0.0168
  922MOL0     H21655   6.685   6.577   0.834  1.0290  0.9261  0.6026
  922MOL0     H21656   6.836   6.494   0.827 -0.2151 -0.3780  0.0281
  922MOL0     H21657   7.022   6.593   1.017  0.7737 -0.8984  1.6612
  922MOL0     H21658   6.991   6.966   1.131 -0.3406  0.4853  3.8196
  922MOL0     H21659   7.106   6.859   1.066 -0.6416  1.7669  0.3166
  922MOL0     H21660   7.093   6.698   1.254 -0.9886  0.9500  0.5027
  922MOL0     H21661   6.984   6.805   1.328  1.3653  0.3413  1.0936
  922MOL0     H21662   7.227   6.847   1.411  4.1099  3.7586 -0.2588
  922MOL0     H21663   7.256   6.904   1.245  0.0163  0.3664  1.1278
  922MOL0     H21664   7.023   6.999   1.422 -0.6192  1.0160 -1.8547
  922MOL0     H21665   7.105   7.085   1.289 -2.1260  0.1527 -0.0588
  922MOL0     H21666   7.388   7.100   1.649 -2.6798  2.2422 -0.1799
  922MOL0     H21667   7.601   7.185   1.623 -0.1918  1.4573 -0.6728
  922MOL0     H21668   7.897   7.537   1.226 -0.0422  0.4044 -3.4368
  922MOL0     H21669   8.114   7.559   1.144  0.8055 -0.2719 -0.0655
  922MOL0     H21670   8.360   7.189   1.151 -1.0939  0.2235  1.6561
  922MOL0     H21671   8.399   7.313   1.270  0.9331 -3.2916  0.5746
  922MOL0     H21672   8.595   7.259   1.158 -1.8427 -1.6444 -0.0108
  922MOL0     H21673   8.544   7.426   1.112 -2.7015  1.0891  0.6728
  922MOL0     H21674   8.482   7.332   0.887  2.4355  0.3765 -0.0143
  922MOL0     H21675   8.484   7.166   0.956 -1.3702  1.1710  2.5539
  922MOL0     H21676   8.743   7.206   0.979 -1.1122 -0.7055 -0.4904
  922MOL0     H21677   8.683   7.197   0.816  1.2123  0.9976 -0.9258
  922MOL0     H21678   8.762   7.441   0.970 -0.9990 -0.6149  0.7641
  922MOL0     H21679   8.667   7.436   0.814  0.0090 -0.7068  0.5742
  922MOL0     H21680   8.900   7.472   0.757  0.7498 -0.2748  0.2127
  922MOL0     H21681   8.861   7.312   0.712  2.9428 -0.7413 -0.6790
  922MOL0     H21682   8.967   7.228   0.924  0.6936  1.0139  1.2935
  922MOL0     H21683   9.078   7.313   0.806 -1.1828  2.5612 -2.1461
  922MOL0     H21684   8.962   7.396   1.087 -0.2294  1.9880  1.3892
  922MOL0     H21685   9.010   7.522   0.971 -0.2766 -0.1224  1.8701
  922MOL0     H21686   8.150   7.125   1.162  0.7381  0.1827 -0.8433
  922MOL0     H21687   7.934   7.110   1.251  1.9695 -1.2665  1.0155
  922MOL0     H21688   7.531   7.218   1.192 -2.2977 -1.8673 -0.3067
  922MOL0     H21689   7.295   7.167   1.242  1.3091 -1.2217 -1.6037
  922MOL0     H21690   7.290   6.602   0.965 -1.7545  1.2133  0.1470
  922MOL0     H21691   7.428   6.778   0.909 -1.9582  2.2593  0.7274
  922MOL0     H21692   8.016   6.846   1.008  0.6111  0.1881 -1.9213
  922MOL0     H21693   8.153   7.012   0.909  0.3618  1.3383 -0.5415
  922MOL0     H21694   8.226   7.109   0.691  0.3031  0.8620  1.1367
  922MOL0     H21695   8.244   7.249   0.797  2.8079  1.0147 -0.6574
  922MOL0     H21696   8.164   7.277   0.494 -1.2609  0.1266  0.0600
  922MOL0     H21697   8.182   7.403   0.625 -0.6557 -1.6061  3.9766
  922MOL0     H21698   8.395   7.219   0.477  0.5349 -0.5048  0.1928
  922MOL0     H21699   8.424   7.252   0.643  2.1331  2.3185 -0.0585
  922MOL0     H21700   8.525   7.426   0.494  0.7500 -0.5472  1.6145
  922MOL0     H21701   8.369   7.485   0.453 -0.2924  1.7309  1.6654
  922MOL0     H21702   8.418   7.623   0.858  0.8051 -0.9745  1.3958
  922MOL0     H21703   7.794   7.218   0.776 -1.4403 -0.7395  0.2027
  922MOL0     H21704   7.674   7.077   0.929 -0.2218  1.5852  2.8200
  923MOL0     O21705   6.013   8.460   0.565  0.4833  0.4652 -0.9096
  923MOL0     C21706   5.986   8.426   0.453 -0.2902  0.4517 -0.4133
  923MOL0     O21707   5.873   8.457   0.380 -0.0017 -0.2358  0.3510
  923MOL0     C21708   5.763   8.492   0.461 -0.0846 -0.0832  0.7147
  923MOL0     C21709   5.717   8.621   0.453  0.4405 -0.5421 -0.2594
  923MOL0     C21710   5.612   8.667   0.536 -0.1014  0.9534  0.0063
  923MOL0     C21711   5.555   8.571   0.631 -0.5934 -0.3747 -0.5193
  923MOL0     O21712   5.447   8.591   0.715 -0.2765  0.0504  0.2580
  923MOL0     C21713   5.428   8.710   0.781  0.4721 -1.0481 -0.1289
  923MOL0     C21714   5.273   8.717   0.782  0.1078  0.1655  0.6628
  923MOL0     C21715   5.211   8.594   0.861 -0.3532 -0.6639 -0.0622
  923MOL0     C21716   5.060   8.569   0.832  0.5498 -1.6267 -0.9651
  923MOL0     C21717   4.975   8.519   0.948  0.0963  1.0435  0.3042
  923MOL0     C21718   4.936   8.631   1.045  0.1915  0.5616  0.8027
  923MOL0     C21719   4.901   8.556   1.174  0.6623  0.1260 -1.1681
  923MOL0     C21720   5.028   8.514   1.249  0.1262  0.2193 -0.4919
  923MOL0     N21721   5.000   8.501   1.394 -0.9788  0.4581  0.4679
  923MOL0     C21722   4.957   8.396   1.467  1.0765 -0.7200  0.9562
  923MOL0     C21723   4.966   8.429   1.601 -0.6510 -0.0670 -0.5107
  923MOL0     C21724   4.924   8.353   1.732  0.4518  0.1544  0.6762
  923MOL0     C21725   4.778   8.376   1.760  0.5182  0.4499  0.8982
  923MOL0     C21726   4.743   8.305   1.888 -0.4652 -0.3171  0.0555
  923MOL0     C21727   4.602   8.251   1.889  0.7065 -0.2392  0.2146
  923MOL0     O21728   4.559   8.196   2.014 -0.3122  0.4181  0.4332
  923MOL0     C21729   4.425   8.191   2.042  0.4286  0.0363 -0.1398
  923MOL0     C21730   4.382   8.170   2.177 -0.6122  0.7204  0.4709
  923MOL0     C21731   4.249   8.158   2.206  0.1231  0.3321  0.1654
  923MOL0     C21732   4.153   8.170   2.104  0.7527  0.4845 -0.8040
  923MOL0     C21733   4.008   8.180   2.134 -0.2953  0.5833 -0.5518
  923MOL0     O21734   3.922   8.206   2.037  0.0568  0.2600 -0.3062
  923MOL0     C21735   3.788   8.163   2.050  0.1060  0.3838 -0.1479
  923MOL0     C21736   3.698   8.269   2.059 -0.1322  0.6903  0.4369
  923MOL0     C21737   3.563   8.243   2.103  1.0414 -0.8543 -0.1942
  923MOL0     C21738   3.522   8.114   2.143 -0.6863 -0.0228 -0.4797
  923MOL0     O21739   3.392   8.093   2.195 -0.7699  0.1432 -0.4515
  923MOL0     C21740   3.278   8.171   2.149 -0.8862  0.0975  0.0086
  923MOL0     C21741   3.235   8.120   2.011 -0.4049  0.1286  0.7207
  923MOL0     C21742   3.098   8.181   1.965  0.6298  0.2188 -0.5718
  923MOL0     C21743   3.055   8.094   1.853  0.9151 -0.7876  0.7581
  923MOL0     C21744   2.930   8.152   1.797  0.5659 -0.0406 -1.2482
  923MOL0     C21745   2.844   8.055   1.730  1.0793  0.4970 -0.3214
  923MOL0     C21746   2.720   8.126   1.663  0.0726  0.0038 -0.6688
  923MOL0     C21747   2.624   8.025   1.610 -0.9351  0.5984 -0.1470
  923MOL0    Cl21748   2.496   8.113   1.532  0.2593 -0.7481 -0.3383
  923MOL0     C21749   3.616   8.016   2.128  0.0655  0.4786 -0.8587
  923MOL0     C21750   3.748   8.035   2.082 -0.0569 -0.1660  0.4762
  923MOL0     O21751   3.975   8.162   2.253 -0.0151 -0.9782  0.0079
  923MOL0     C21752   4.190   8.181   1.975  0.1310 -0.6809 -0.9367
  923MOL0     C21753   4.326   8.188   1.944 -0.4360  0.6008 -0.5989
  923MOL0     N21754   5.010   8.558   1.600  0.2613 -0.3020  0.5420
  923MOL0     N21755   5.027   8.604   1.483 -0.1294  0.1579 -0.2585
  923MOL0     C21756   5.601   8.445   0.637  0.4834  0.4405 -0.8060
  923MOL0     C21757   5.707   8.404   0.551 -0.0220  0.1665  0.6852
  923MOL0     C21758   6.091   8.353   0.379  0.7465 -0.0470  0.7400
  923MOL0     C21759   6.223   8.370   0.408 -0.3022  0.2098 -0.3172
  923MOL0     C21760   6.321   8.300   0.336 -0.2171  0.3579 -0.9623
  923MOL0     C21761   6.280   8.208   0.245 -0.4514 -0.3040 -0.0949
  923MOL0     O21762   6.378   8.124   0.187  0.2221  0.0801 -0.3737
  923MOL0     C21763   6.355   7.979   0.210 -0.3958  0.5584  0.0442
  923MOL0     C21764   6.475   7.909   0.143  0.3769  0.2372  0.5430
  923MOL0     C21765   6.495   7.933  -0.009 -0.2291  0.6224 -0.2727
  923MOL0     C21766   6.638   7.901  -0.073  0.0150  0.5959 -0.2411
  923MOL0     C21767   6.636   7.939  -0.218 -0.7628 -0.8479 -0.0998
  923MOL0     C21768   6.638   7.967  -0.338  0.1282  0.0788  0.3781
  923MOL0     C21769   6.144   8.192   0.211 -0.8528  0.5851  1.2175
  923MOL0     C21770   6.051   8.263   0.275 -0.2105 -0.0921 -0.4714
  923MOL0     H21771   5.763   8.697   0.389  1.3765 -0.5527  0.3814
  923MOL0     H21772   5.570   8.766   0.525 -0.8751  0.5477 -0.8880
  923MOL0     H21773   5.482   8.789   0.727  1.3367 -2.5170 -1.4940
  923MOL0     H21774   5.457   8.701   0.886 -0.6767 -0.1796  0.2807
  923MOL0     H21775   5.254   8.719   0.674 -0.9192 -0.3027  0.8265
  923MOL0     H21776   5.230   8.810   0.822 -1.5494 -1.7119  3.6263
  923MOL0     H21777   5.237   8.616   0.965 -1.0765  1.3446 -0.2656
  923MOL0     H21778   5.264   8.505   0.825  3.4821  1.4454 -0.1422
  923MOL0     H21779   5.024   8.666   0.796  0.7823 -2.0437 -2.3942
  923MOL0     H21780   5.048   8.509   0.741 -0.6727 -0.7189 -1.4385
  923MOL0     H21781   5.029   8.436   0.993 -0.9620 -0.6541 -1.4034
  923MOL0     H21782   4.884   8.474   0.908  0.5090 -1.0173  1.5753
  923MOL0     H21783   4.866   8.703   1.002  1.4597 -0.0453 -2.6230
  923MOL0     H21784   5.027   8.691   1.060  1.6835 -1.4130  0.1079
  923MOL0     H21785   4.849   8.632   1.234 -2.3255 -2.0128 -0.8063
  923MOL0     H21786   4.823   8.480   1.161  1.5984 -1.1418  0.2769
  923MOL0     H21787   5.099   8.597   1.242 -1.0508  1.1186 -2.7718
  923MOL0     H21788   5.076   8.428   1.202  0.4711 -0.1185  0.4421
  923MOL0     H21789   4.917   8.303   1.428 -0.6796 -0.2078  1.4758
  923MOL0     H21790   4.979   8.392   1.818  1.1354 -0.8708  0.7122
  923MOL0     H21791   4.943   8.249   1.707  1.9301  0.0011  2.2657
  923MOL0     H21792   4.716   8.332   1.681 -0.8950  1.8014  1.2103
  923MOL0     H21793   4.760   8.483   1.763  1.9969  0.7125  2.3020
  923MOL0     H21794   4.804   8.215   1.899 -0.4522 -0.1527  1.5641
  923MOL0     H21795   4.762   8.369   1.974  4.7080  0.6418 -1.4908
  923MOL0     H21796   4.602   8.172   1.813  2.2336  0.7624 -0.8713
  923MOL0     H21797   4.523   8.323   1.865 -0.4671 -0.4989  2.9787
  923MOL0     H21798   4.459   8.169   2.254 -0.9163 -1.4137  0.8195
  923MOL0     H21799   4.229   8.150   2.313  1.4217  2.4040  0.6256
  923MOL0     H21800   3.736   8.369   2.040 -0.1603  0.7243  0.5627
  923MOL0     H21801   3.499   8.329   2.121  0.7893 -0.9248 -0.7177
  923MOL0     H21802   3.309   8.276   2.144  1.0987 -0.5080 -3.2694
  923MOL0     H21803   3.192   8.156   2.215 -1.0676 -0.8785 -0.4353
  923MOL0     H21804   3.224   8.011   2.018  2.0961 -0.3684 -1.3766
  923MOL0     H21805   3.301   8.147   1.928 -0.4440 -1.1203  0.2509
  923MOL0     H21806   3.111   8.286   1.938  2.9370  0.4382  1.0424
  923MOL0     H21807   3.027   8.181   2.049 -2.4021  1.7787 -2.9520
  923MOL0     H21808   3.135   8.090   1.779  1.9810  0.2111  1.8140
  923MOL0     H21809   3.031   7.993   1.888  0.7667 -0.1520  2.6311
  923MOL0     H21810   2.956   8.236   1.732  1.3899  0.5446 -0.1955
  923MOL0     H21811   2.864   8.191   1.876  1.0134  1.2641 -1.4939
  923MOL0     H21812   2.811   7.987   1.809 -0.6773  2.0661  0.3651
  923MOL0     H21813   2.896   8.003   1.648  0.7946 -0.0274 -0.1738
  923MOL0     H21814   2.679   8.192   1.741  0.8332  0.1794 -0.4057
  923MOL0     H21815   2.758   8.194   1.587 -0.7244  0.2029 -0.9003
  923MOL0     H21816   2.578   7.968   1.691  1.5979 -3.8556 -1.4655
  923MOL0     H21817   2.670   7.952   1.543 -0.0210  0.0433  1.0487
  923MOL0     H21818   3.584   7.920   2.166 -1.5932  0.9799 -0.8894
  923MOL0     H21819   3.822   7.956   2.087 -0.4702 -0.5979 -0.1472
  923MOL0     H21820   4.112   8.183   1.900 -0.0432  1.2610 -0.7690
  923MOL0     H21821   4.347   8.193   1.837  2.0185 -1.7060 -0.3291
  923MOL0     H21822   5.554   8.375   0.705 -1.6981  1.2722 -1.3708
  923MOL0     H21823   5.747   8.303   0.552  0.6182  0.4121  1.2195
  923MOL0     H21824   6.236   8.437   0.493 -1.7624 -0.4335  0.4523
  923MOL0     H21825   6.424   8.300   0.371 -0.9826 -1.5294  1.6591
  923MOL0     H21826   6.265   7.940   0.161 -0.7380 -1.0154  1.7972
  923MOL0     H21827   6.357   7.951   0.316 -0.3805 -0.7128 -0.2674
  923MOL0     H21828   6.563   7.922   0.206 -0.7259  0.0169  2.1706
  923MOL0     H21829   6.447   7.804   0.156 -1.0064  0.5053 -0.0420
  923MOL0     H21830   6.464   8.034  -0.037  0.4156 -0.1062 -4.1805
  923MOL0     H21831   6.426   7.866  -0.061  1.8605  0.1256 -2.5770
  923MOL0     H21832   6.722   7.958  -0.032  0.5119 -0.0057 -0.4144
  923MOL0     H21833   6.667   7.796  -0.063  1.2764  1.0485  1.4747
  923MOL0     H21834   6.619   8.004  -0.436 -2.3953  2.1777  1.5284
  923MOL0     H21835   6.112   8.114   0.142  0.0662  0.8260  0.4980
  923MOL0     H21836   5.946   8.249   0.251 -0.0079 -3.9431  0.3061
  924MOL0     O21837  10.902   0.282  10.153 -0.4196 -0.5887 -0.7107
  924MOL0     C21838  10.837   0.231  10.246  0.1103  0.0186 -0.1119
  924MOL0     O21839  10.898   0.187  10.367 -0.0855  0.4570  0.0127
  924MOL0     C21840  11.031   0.221  10.389  0.0250 -1.0883 -0.4976
  924MOL0     C21841  11.063   0.283  10.510  0.3075  0.1331 -0.2146
  924MOL0     C21842  11.190   0.328  10.533  0.0010 -0.1121 -0.3087
  924MOL0     C21843  11.283   0.333  10.426 -0.5691  0.2191  0.1582
  924MOL0     O21844  11.402   0.390  10.456 -0.4276 -0.0275 -0.9008
  924MOL0     C21845  11.465   0.463  10.354  0.2534 -0.6600 -0.1402
  924MOL0     C21846  11.594   0.527  10.408 -0.0511 -0.0624  0.1000
  924MOL0     C21847  11.680   0.416  10.471 -0.2604 -0.5249 -0.1505
  924MOL0     C21848  11.813   0.462  10.532  0.2432  0.3880 -0.1431
  924MOL0     C21849  11.922   0.513  10.429 -0.1701  0.4492  0.1834
  924MOL0     C21850  11.954   0.396  10.327  0.1372 -0.5323 -0.0005
  924MOL0     C21851  12.069   0.457  10.236  0.4794  0.0492 -0.4529
  924MOL0     C21852  12.072   0.365  10.117  0.2611  0.0810  0.4951
  924MOL0     N21853  12.173   0.404  10.022  0.3201  0.5033  0.1194
  924MOL0     C21854  12.303   0.366  10.021 -0.3586 -0.6503  1.0068
  924MOL0     C21855  12.362   0.444   9.922 -0.2739 -0.2888 -0.4224
  924MOL0     C21856  12.507   0.455   9.874 -0.4641 -0.0505 -0.5202
  924MOL0     C21857  12.525   0.378   9.743 -0.1612  0.4248 -0.0920
  924MOL0     C21858  12.486   0.229   9.751  0.3522 -0.2189 -0.1369
  924MOL0     C21859  12.482   0.154   9.620  0.4063 -0.3731 -0.2500
  924MOL0     O21860  12.390   0.223   9.536 -0.3111  0.0305  0.1510
  924MOL0     C21861  12.258   0.192   9.531  0.2779 -0.0767 -0.2446
  924MOL0     C21862  12.170   0.273   9.600  0.2768  0.1484  0.6669
  924MOL0     C21863  12.030   0.248   9.606  0.2659 -0.2384 -0.0422
  924MOL0     C21864  11.971   0.153   9.527  0.3283  0.0355 -0.6374
  924MOL0     C21865  11.833   0.101   9.550  0.9077 -0.9646 -0.3114
  924MOL0     O21866  11.803  -0.023   9.494 -0.2297  0.0898  0.1753
  924MOL0     C21867  11.674  -0.068   9.491 -0.3097 -0.6100 -0.7053
  924MOL0     C21868  11.658  -0.190   9.557  1.0784  0.0210 -0.2277
  924MOL0     C21869  11.532  -0.253   9.556 -0.8112  0.7121 -0.0956
  924MOL0     C21870  11.428  -0.207   9.470  0.1888  0.2000 -0.0367
  924MOL0     O21871  11.306  -0.277   9.479 -0.0115  0.6932  0.1041
  924MOL0     C21872  11.228  -0.293   9.366  0.2954  0.4535  0.8390
  924MOL0     C21873  11.101  -0.354   9.426  0.3947 -0.6621  0.3886
  924MOL0     C21874  11.117  -0.481   9.513  0.7587  0.3432 -0.3927
  924MOL0     C21875  10.979  -0.541   9.538  0.6194 -0.2121 -0.3677
  924MOL0     C21876  10.988  -0.621   9.671 -0.5929 -0.5485  0.0182
  924MOL0     C21877  10.860  -0.684   9.694  0.4816 -0.4625 -0.4195
  924MOL0     C21878  10.867  -0.795   9.808 -0.5457  0.0864 -1.0604
  924MOL0     C21879  10.810  -0.923   9.765  0.4244  0.1835 -0.6223
  924MOL0    Cl21880  10.636  -0.912   9.722 -0.0525  0.1204 -0.0013
  924MOL0     C21881  11.447  -0.090   9.399 -0.2745  0.9947  0.4796
  924MOL0     C21882  11.568  -0.018   9.408 -0.5684  0.0995  0.6853
  924MOL0     O21883  11.759   0.160   9.626  0.6922  0.1706 -0.2601
  924MOL0     C21884  12.059   0.084   9.439 -0.4117  0.7081 -0.5311
  924MOL0     C21885  12.199   0.094   9.450 -0.3709 -0.3820  0.3024
  924MOL0     N21886  12.262   0.513   9.863 -0.4036  0.4420  0.2838
  924MOL0     N21887  12.154   0.489   9.921  0.0671 -0.4988  0.2355
  924MOL0     C21888  11.262   0.266  10.311  0.1706 -0.0508  0.2902
  924MOL0     C21889  11.134   0.211  10.288  0.2070  0.4023 -0.8066
  924MOL0     C21890  10.686   0.238  10.234 -0.4600 -0.4687 -0.4344
  924MOL0     C21891  10.612   0.218  10.357 -0.7486  0.0861  0.5015
  924MOL0     C21892  10.471   0.213  10.344  0.3438  0.5981  0.4058
  924MOL0     C21893  10.415   0.228  10.216 -0.9529  0.3777  0.1220
  924MOL0     O21894  10.281   0.236  10.207  0.1921 -0.7839 -0.4411
  924MOL0     C21895  10.223   0.181  10.084 -0.4639 -0.4181  0.1409
  924MOL0     C21896  10.069   0.183  10.106 -0.5396  0.1199  0.0886
  924MOL0     C21897  10.002   0.108   9.990  0.7269 -0.8928 -1.3258
  924MOL0     C21898   9.846   0.101   9.998 -0.9537 -0.3804 -0.0081
  924MOL0     C21899   9.792   0.191  10.100 -0.5667  0.1513 -0.4083
  924MOL0     C21900   9.728   0.265  10.172  0.0334 -0.2379 -0.4764
  924MOL0     C21901  10.492   0.249  10.102 -0.8876  0.8302 -0.3400
  924MOL0     C21902  10.633   0.260  10.115 -0.1162  0.4655  0.2928
  924MOL0     H21903  10.987   0.286  10.588  0.5617  1.6629 -0.0053
  924MOL0     H21904  11.212   0.363  10.633 -1.7299  1.8659 -0.5425
  924MOL0     H21905  11.393   0.538  10.318  0.2226 -0.8938 -0.5787
  924MOL0     H21906  11.503   0.397  10.276 -1.5347 -1.7005 -0.1853
  924MOL0     H21907  11.580   0.609  10.480  0.5447  2.8148 -2.8075
  924MOL0     H21908  11.640   0.580  10.324  0.8852 -1.2102 -0.1305
  924MOL0     H21909  11.708   0.335  10.403  1.6877 -0.6503  0.7296
  924MOL0     H21910  11.626   0.371  10.555  0.0780  2.7388  1.9967
  924MOL0     H21911  11.796   0.532  10.614  0.0005 -0.4480  0.5388
  924MOL0     H21912  11.861   0.374  10.577  0.7027  0.4774 -0.4528
  924MOL0     H21913  12.004   0.556  10.487  1.4740  0.4091 -2.0117
  924MOL0     H21914  11.878   0.596  10.373 -1.0851  0.1269  0.4001
  924MOL0     H21915  11.864   0.369  10.272 -1.3979  1.7461  1.2103
  924MOL0     H21916  11.990   0.303  10.372 -0.8977 -1.3209 -0.7778
  924MOL0     H21917  12.046   0.559  10.204  4.2115  0.8768 -0.9081
  924MOL0     H21918  12.160   0.473  10.295  1.5676  1.5078 -2.4056
  924MOL0     H21919  11.975   0.387  10.071  0.7485 -2.0594 -1.7919
  924MOL0     H21920  12.089   0.259  10.140 -0.8680 -0.5887 -1.4518
  924MOL0     H21921  12.356   0.307  10.095 -0.3899 -0.1103  1.4731
  924MOL0     H21922  12.575   0.420   9.953 -0.2963  0.7018 -0.3301
  924MOL0     H21923  12.529   0.557   9.842 -5.5411  0.5512 -3.1414
  924MOL0     H21924  12.628   0.395   9.710 -0.1018  3.1840  1.2041
  924MOL0     H21925  12.461   0.427   9.670 -0.8119 -1.5509 -0.9352
  924MOL0     H21926  12.557   0.175   9.815 -3.7802 -2.2894  3.2497
  924MOL0     H21927  12.393   0.218   9.806  2.2571 -0.4229  3.2849
  924MOL0     H21928  12.439   0.055   9.634 -0.6330 -0.0738 -1.2243
  924MOL0     H21929  12.583   0.142   9.580  0.9176  0.1174  0.8434
  924MOL0     H21930  12.212   0.350   9.664  1.0391 -1.2864  1.9572
  924MOL0     H21931  11.973   0.297   9.685  1.6543  0.7169  0.4102
  924MOL0     H21932  11.744  -0.241   9.598  0.6160 -0.1922  0.4997
  924MOL0     H21933  11.499  -0.344   9.605 -2.2077  1.7754  1.0341
  924MOL0     H21934  11.271  -0.363   9.294 -0.9355 -1.1515  1.5877
  924MOL0     H21935  11.219  -0.197   9.314 -0.7137  1.5197  2.8597
  924MOL0     H21936  11.039  -0.384   9.340 -1.1530  0.6435  0.9957
  924MOL0     H21937  11.051  -0.273   9.481 -0.6598  0.8711 -2.5850
  924MOL0     H21938  11.174  -0.461   9.604  1.5851 -0.4177 -0.7298
  924MOL0     H21939  11.173  -0.551   9.450 -1.1542 -1.7468  0.0731
  924MOL0     H21940  10.899  -0.467   9.550  1.7698  0.9821  0.1509
  924MOL0     H21941  10.948  -0.610   9.459 -1.5575  0.1170  0.1424
  924MOL0     H21942  11.009  -0.557   9.757  0.9766  0.2537 -0.9050
  924MOL0     H21943  11.064  -0.698   9.656  1.5745  1.2956  0.9703
  924MOL0     H21944  10.815  -0.732   9.606  0.6510 -1.0238 -0.1987
  924MOL0     H21945  10.791  -0.602   9.714 -1.1406 -1.5491 -1.3558
  924MOL0     H21946  10.973  -0.816   9.826 -0.3916  1.6605 -0.0238
  924MOL0     H21947  10.822  -0.765   9.903 -1.0111  0.3971 -1.3725
  924MOL0     H21948  10.821  -1.003   9.838 -0.2582  1.1006  0.5228
  924MOL0     H21949  10.857  -0.956   9.672 -0.1797 -5.5387  0.7585
  924MOL0     H21950  11.369  -0.042   9.342  1.0610  1.2282 -1.2242
  924MOL0     H21951  11.595   0.067   9.346 -1.4857  2.2902  3.1009
  924MOL0     H21952  12.012   0.003   9.384 -1.2722 -1.0649  2.5667
  924MOL0     H21953  12.255   0.035   9.377 -1.9486 -2.1932  0.4885
  924MOL0     H21954  11.324   0.254  10.223  0.1123 -0.0507  0.2495
  924MOL0     H21955  11.127   0.149  10.199 -1.1427  1.0783 -1.1884
  924MOL0     H21956  10.658   0.198  10.453  0.4561 -2.3648 -0.4976
  924MOL0     H21957  10.405   0.188  10.427  3.5949 -2.5685  2.3359
  924MOL0     H21958  10.253   0.078  10.059 -1.9211 -0.7173 -0.4596
  924MOL0     H21959  10.245   0.241   9.995 -0.8027 -1.3805 -0.6199
  924MOL0     H21960  10.054   0.135  10.203  3.5248 -1.9323 -0.0832
  924MOL0     H21961  10.037   0.288  10.105  1.5797  0.8154 -0.6203
  924MOL0     H21962  10.041   0.006   9.981  0.8703 -1.2760  2.3646
  924MOL0     H21963  10.028   0.165   9.900  2.6789 -1.1707 -0.9778
  924MOL0     H21964   9.819   0.135   9.897  0.5793  0.3878 -0.1922
  924MOL0     H21965   9.805   0.002  10.016 -1.7901 -0.1237 -0.4426
  924MOL0     H21966   9.672   0.321  10.244 -1.1095 -1.4282 -0.3972
  924MOL0     H21967  10.452   0.277  10.006  3.0676  1.6244 -1.9448
  924MOL0     H21968  10.693   0.274  10.026 -0.9769 -3.1451 -1.0205
  925MOL0     O21969   4.055   5.663   1.499  0.3609 -1.0603 -0.0247
  925MOL0     C21970   4.082   5.545   1.465  0.4549 -0.3708  0.8646
  925MOL0     O21971   4.206   5.481   1.472 -0.1454  0.4182 -0.3678
  925MOL0     C21972   4.311   5.566   1.505  0.2773 -0.4424 -0.3852
  925MOL0     C21973   4.384   5.528   1.618 -0.6785  0.2324 -0.4668
  925MOL0     C21974   4.507   5.595   1.647 -0.2510 -0.4567  0.2226
  925MOL0     C21975   4.544   5.712   1.575  0.0385  0.2126  0.1499
  925MOL0     O21976   4.664   5.778   1.604 -1.1973 -0.9133  0.1939
  925MOL0     C21977   4.755   5.810   1.503  0.3133 -0.3148 -0.1895
  925MOL0     C21978   4.902   5.825   1.562  0.1683  0.8049 -0.5132
  925MOL0     C21979   4.936   5.962   1.617 -0.5248  0.4579  0.2507
  925MOL0     C21980   4.850   5.992   1.740 -0.1207 -0.6187  0.0976
  925MOL0     C21981   4.896   6.128   1.793 -0.0112 -0.3111  0.4049
  925MOL0     C21982   5.040   6.118   1.852  0.4752 -0.3499 -0.2505
  925MOL0     C21983   5.099   6.253   1.884  0.1820  0.4950  1.1418
  925MOL0     C21984   5.232   6.244   1.968  0.7555  0.2117  0.2676
  925MOL0     N21985   5.213   6.183   2.104 -0.2679 -0.4761 -0.2322
  925MOL0     C21986   5.121   6.225   2.200 -0.5520 -0.3912  0.0936
  925MOL0     C21987   5.144   6.142   2.306 -0.1266  0.5307 -0.8760
  925MOL0     C21988   5.058   6.148   2.432  0.6399 -0.4508 -0.6978
  925MOL0     C21989   4.946   6.036   2.434  0.3593  0.3190  0.1693
  925MOL0     C21990   4.840   6.067   2.339  0.7647  0.6711 -0.2902
  925MOL0     C21991   4.722   5.955   2.326 -0.2597 -0.4838 -0.8720
  925MOL0     O21992   4.663   5.937   2.455 -0.6841  0.0706 -0.5038
  925MOL0     C21993   4.595   6.042   2.507 -0.0001  0.3043 -0.3864
  925MOL0     C21994   4.597   6.058   2.646  0.0716  0.3359  0.2444
  925MOL0     C21995   4.517   6.149   2.711 -0.5479 -0.4679  0.4438
  925MOL0     C21996   4.423   6.228   2.631 -0.5112  0.0065  0.3385
  925MOL0     C21997   4.329   6.325   2.701  0.5657 -0.4843 -0.9754
  925MOL0     O21998   4.240   6.397   2.625 -0.4028 -0.4065 -0.0094
  925MOL0     C21999   4.140   6.453   2.701 -1.0958 -0.0658  0.2755
  925MOL0     C22000   4.154   6.588   2.733 -0.0153 -0.2474 -0.3066
  925MOL0     C22001   4.055   6.647   2.811  0.5970  0.7144 -0.4279
  925MOL0     C22002   3.947   6.577   2.848  0.1222 -0.0670 -0.2664
  925MOL0     O22003   3.848   6.659   2.900 -0.2301 -0.5092 -0.3395
  925MOL0     C22004   3.819   6.630   3.037  0.1788  1.0727  0.1029
  925MOL0     C22005   3.727   6.720   3.109  0.4736 -0.4482  0.0197
  925MOL0     C22006   3.589   6.711   3.047 -0.2343  0.0626  0.1709
  925MOL0     C22007   3.502   6.821   3.105  0.4975  0.5304  0.4120
  925MOL0     C22008   3.371   6.826   3.027 -0.1179  0.0662 -1.1377
  925MOL0     C22009   3.260   6.739   3.086  0.1692  1.3785 -0.5126
  925MOL0     C22010   3.189   6.790   3.209 -0.5174 -0.0547 -0.5459
  925MOL0     C22011   3.081   6.689   3.254  0.5250 -0.8684 -0.4606
  925MOL0    Cl22012   2.933   6.711   3.154  0.1184 -0.1353  0.2196
  925MOL0     C22013   3.929   6.445   2.817  0.4296  0.1299 -0.0696
  925MOL0     C22014   4.021   6.383   2.731 -0.5877  0.2086 -0.7470
  925MOL0     O22015   4.331   6.335   2.826 -0.9158 -0.4353  0.3114
  925MOL0     C22016   4.427   6.221   2.492 -0.6989 -0.4865  0.1750
  925MOL0     C22017   4.516   6.128   2.431  0.8948  0.4117 -0.2295
  925MOL0     N22018   5.254   6.056   2.279 -0.5331  0.3699  0.7177
  925MOL0     N22019   5.298   6.091   2.154  0.7156  0.4972  0.0948
  925MOL0     C22020   4.470   5.749   1.460  0.3238 -0.2335  0.1453
  925MOL0     C22021   4.354   5.680   1.423 -0.0412  0.1945 -0.5522
  925MOL0     C22022   3.961   5.443   1.461  0.3363  0.2413 -0.6327
  925MOL0     C22023   3.837   5.476   1.510 -0.3523  0.3702  0.0743
  925MOL0     C22024   3.727   5.388   1.501 -0.9869 -0.0004  0.4118
  925MOL0     C22025   3.742   5.260   1.454  0.2391 -0.0871 -0.2580
  925MOL0     O22026   3.638   5.168   1.433 -0.0220  0.5647  0.0066
  925MOL0     C22027   3.515   5.232   1.413 -0.4501 -0.2677  0.6183
  925MOL0     C22028   3.404   5.133   1.377  1.0086  0.1108 -0.0756
  925MOL0     C22029   3.381   5.017   1.488  0.5518  0.1604  0.4611
  925MOL0     C22030   3.262   4.922   1.461 -0.1020  0.7274  0.7352
  925MOL0     C22031   3.292   4.839   1.336 -0.2576 -0.1797 -0.7018
  925MOL0     C22032   3.325   4.756   1.259  0.6456 -0.9517 -0.9837
  925MOL0     C22033   3.868   5.226   1.417 -0.4106  0.0571  0.6993
  925MOL0     C22034   3.978   5.309   1.422 -0.3432  0.0900 -0.9975
  925MOL0     H22035   4.370   5.438   1.678 -2.8154  1.4995  1.0706
  925MOL0     H22036   4.554   5.561   1.738 -3.4727 -3.5442  0.9265
  925MOL0     H22037   4.724   5.907   1.462  1.1097  0.7106  1.5518
  925MOL0     H22038   4.739   5.747   1.415 -3.3363  0.1896 -0.0712
  925MOL0     H22039   4.970   5.798   1.481  0.8715  3.1324 -0.7712
  925MOL0     H22040   4.918   5.752   1.641 -0.0980  1.6984  0.3811
  925MOL0     H22041   4.944   6.040   1.541  0.6156 -1.6749 -1.9870
  925MOL0     H22042   5.041   5.952   1.644 -1.5166 -3.3663  3.7499
  925MOL0     H22043   4.747   6.005   1.707  0.2418  1.3250 -0.3837
  925MOL0     H22044   4.854   5.909   1.811 -3.0007 -1.3410 -0.4604
  925MOL0     H22045   4.818   6.179   1.850 -1.7698 -0.3024 -1.8687
  925MOL0     H22046   4.912   6.194   1.707 -2.6036  1.5625  1.2394
  925MOL0     H22047   5.111   6.059   1.793 -1.9184  1.0505 -5.0293
  925MOL0     H22048   5.029   6.072   1.950 -0.2133  0.5808  0.1174
  925MOL0     H22049   5.124   6.297   1.786 -0.5605 -0.5528  0.4680
  925MOL0     H22050   5.023   6.311   1.937 -1.8120  1.4148 -2.4050
  925MOL0     H22051   5.281   6.342   1.962  0.4735  0.2620 -1.6449
  925MOL0     H22052   5.295   6.175   1.912 -1.2591 -0.9569 -0.6520
  925MOL0     H22053   5.052   6.307   2.183 -0.7145 -0.2400  1.3868
  925MOL0     H22054   5.021   6.250   2.432 -0.1370 -0.6722  1.6898
  925MOL0     H22055   5.114   6.134   2.525 -0.9389  0.2245  0.3900
  925MOL0     H22056   4.902   6.046   2.533  1.9911 -1.8735  1.2059
  925MOL0     H22057   4.988   5.936   2.417 -0.3701 -0.0174  0.3287
  925MOL0     H22058   4.791   6.161   2.366  1.4508  0.3412  2.4793
  925MOL0     H22059   4.889   6.087   2.243 -0.5875  1.6682 -0.7923
  925MOL0     H22060   4.762   5.856   2.301 -2.5111 -1.7344  0.1765
  925MOL0     H22061   4.650   5.983   2.248 -0.0014  0.0907 -0.9057
  925MOL0     H22062   4.679   6.016   2.702  0.9173  0.5180 -0.8383
  925MOL0     H22063   4.524   6.163   2.818  0.5250 -0.0220  0.3295
  925MOL0     H22064   4.242   6.642   2.699  0.1081 -1.4130 -1.9568
  925MOL0     H22065   4.081   6.747   2.842 -0.4683  0.5042  1.2716
  925MOL0     H22066   3.912   6.627   3.095  0.6227 -0.3760 -0.6073
  925MOL0     H22067   3.770   6.532   3.031  0.3306  1.0455 -1.1762
  925MOL0     H22068   3.772   6.819   3.093  0.8221 -0.5763  0.1878
  925MOL0     H22069   3.720   6.693   3.215  1.0936 -0.6079  0.0275
  925MOL0     H22070   3.543   6.618   3.082  1.3708 -0.5130  0.8508
  925MOL0     H22071   3.596   6.717   2.938 -0.6944  0.0855  0.1409
  925MOL0     H22072   3.469   6.796   3.206  0.0701  0.6707  0.3114
  925MOL0     H22073   3.553   6.918   3.107 -0.5878  1.1449  2.8366
  925MOL0     H22074   3.385   6.791   2.924  2.1581  2.3829 -1.7156
  925MOL0     H22075   3.348   6.933   3.025  0.3363  0.2011 -0.0144
  925MOL0     H22076   3.301   6.639   3.099 -3.1866  0.2009  3.2143
  925MOL0     H22077   3.187   6.746   3.005 -0.5520  0.1542  0.0127
  925MOL0     H22078   3.249   6.801   3.300  0.3069 -1.1871 -0.9207
  925MOL0     H22079   3.127   6.875   3.183  0.7950  0.4588 -2.1572
  925MOL0     H22080   3.040   6.719   3.351  0.7534 -1.1032 -0.2892
  925MOL0     H22081   3.108   6.584   3.267 -0.6434 -1.1718 -0.3876
  925MOL0     H22082   3.844   6.385   2.849 -0.6448 -0.5384 -3.7288
  925MOL0     H22083   4.017   6.276   2.712 -1.0722 -0.4733  2.5420
  925MOL0     H22084   4.370   6.294   2.436  0.4644  0.7894  0.5937
  925MOL0     H22085   4.539   6.148   2.327  2.6255  2.9327  0.5390
  925MOL0     H22086   4.503   5.829   1.395  0.3968  0.3507  0.8804
  925MOL0     H22087   4.317   5.713   1.326  2.4630  0.9218 -1.3306
  925MOL0     H22088   3.809   5.573   1.551  1.5783  1.9344 -2.0870
  925MOL0     H22089   3.633   5.423   1.543 -0.8316  2.3853 -1.0330
  925MOL0     H22090   3.508   5.296   1.325 -1.0254 -2.5147 -1.0666
  925MOL0     H22091   3.486   5.287   1.503 -0.3385 -1.1530  1.2206
  925MOL0     H22092   3.309   5.183   1.360  0.2952 -0.8890  0.7829
  925MOL0     H22093   3.427   5.078   1.285 -2.1695 -1.3241 -0.1604
  925MOL0     H22094   3.369   5.054   1.590 -1.8068 -0.8528  0.6071
  925MOL0     H22095   3.473   4.958   1.489  1.3482  1.3477  2.4145
  925MOL0     H22096   3.239   4.852   1.542  0.5587  2.8367  2.8563
  925MOL0     H22097   3.167   4.972   1.440 -0.7331 -0.0140  1.7166
  925MOL0     H22098   3.368   4.681   1.196 -0.0259 -0.8187 -1.6152
  925MOL0     H22099   3.877   5.121   1.392  0.5059 -0.0727  1.5035
  925MOL0     H22100   4.078   5.271   1.402 -0.2352 -3.6892  4.5166
  926MOL0     O22101   1.537   1.386   5.827 -0.1411  0.0648  0.0098
  926MOL0     C22102   1.587   1.277   5.812 -0.0188 -0.3023 -0.1325
  926MOL0     O22103   1.520   1.158   5.814  0.2138 -0.5197 -0.0800
  926MOL0     C22104   1.385   1.151   5.847  0.4589  1.1000 -0.3961
  926MOL0     C22105   1.330   1.217   5.956  0.8200  0.6906 -0.0903
  926MOL0     C22106   1.189   1.193   5.988 -1.6968 -0.1178 -0.2889
  926MOL0     C22107   1.116   1.102   5.913  0.5317  0.3135 -0.2397
  926MOL0     O22108   0.986   1.079   5.955  0.5579  0.1802  0.7084
  926MOL0     C22109   0.897   0.985   5.883  0.1403  0.3980 -0.3352
  926MOL0     C22110   0.762   1.012   5.948 -0.5650 -0.0196 -0.2627
  926MOL0     C22111   0.660   0.922   5.870 -0.1287 -0.3091 -0.7305
  926MOL0     C22112   0.512   0.952   5.921 -0.3138  0.5154 -0.9127
  926MOL0     C22113   0.414   0.835   5.888 -0.8833 -0.0217  0.6399
  926MOL0     C22114   0.261   0.868   5.923 -0.2669  0.5246  0.2357
  926MOL0     C22115   0.179   0.746   5.888  0.1215 -0.1494  1.5160
  926MOL0     C22116   0.025   0.762   5.915  0.1776 -0.4308  0.7466
  926MOL0     N22117  -0.046   0.843   5.815  0.2130 -1.0119 -0.2262
  926MOL0     C22118  -0.087   0.819   5.691  0.2272  0.5609 -0.1885
  926MOL0     C22119  -0.145   0.926   5.641  0.4324 -0.1945  0.8475
  926MOL0     C22120  -0.205   0.933   5.505 -0.2631 -0.4897 -0.1833
  926MOL0     C22121  -0.314   0.837   5.481 -0.2884  0.0281 -0.0488
  926MOL0     C22122  -0.388   0.854   5.350 -0.1402 -0.5067  0.0227
  926MOL0     C22123  -0.488   0.739   5.318 -0.1341 -0.0880 -0.0709
  926MOL0     O22124  -0.610   0.796   5.277 -0.4706  0.9842  0.7655
  926MOL0     C22125  -0.730   0.715   5.266 -0.6539 -0.7869 -0.6631
  926MOL0     C22126  -0.761   0.589   5.311  0.8376  0.7795 -0.5304
  926MOL0     C22127  -0.889   0.528   5.302 -0.0051 -0.0763 -0.2467
  926MOL0     C22128  -0.985   0.592   5.227  0.2918  0.5467  0.2230
  926MOL0     C22129  -1.116   0.527   5.193 -0.1105 -0.7429  0.1128
  926MOL0     O22130  -1.210   0.611   5.132 -0.4175 -0.3276 -0.4122
  926MOL0     C22131  -1.342   0.574   5.110 -0.3274  0.0045 -0.7073
  926MOL0     C22132  -1.401   0.607   4.989  0.3808  0.2464  0.1560
  926MOL0     C22133  -1.539   0.585   4.977 -0.3371 -0.1786  0.1310
  926MOL0     C22134  -1.611   0.516   5.073 -0.2123 -0.0206  0.5429
  926MOL0     O22135  -1.736   0.475   5.055 -0.3476 -0.0934  0.4502
  926MOL0     C22136  -1.778   0.431   4.922 -0.1349  0.3383  0.1395
  926MOL0     C22137  -1.887   0.330   4.938 -0.2286 -1.3708  0.9740
  926MOL0     C22138  -2.030   0.390   4.936  0.5037 -1.1628  0.1407
  926MOL0     C22139  -2.064   0.459   4.796 -0.7323  0.2402  0.3337
  926MOL0     C22140  -2.190   0.551   4.802 -0.0374 -0.1259  0.2470
  926MOL0     C22141  -2.321   0.483   4.828 -0.2415  0.1226 -0.2462
  926MOL0     C22142  -2.440   0.573   4.811 -0.5800 -0.3393  0.3746
  926MOL0     C22143  -2.578   0.502   4.821  0.4276  0.7209  0.8042
  926MOL0    Cl22144  -2.725   0.605   4.793  0.1618 -0.4096 -0.5542
  926MOL0     C22145  -1.557   0.476   5.192 -1.1327  0.1980  0.0003
  926MOL0     C22146  -1.415   0.506   5.214  0.0331 -0.2159  0.5630
  926MOL0     O22147  -1.137   0.411   5.229 -0.6796 -0.0526  0.6699
  926MOL0     C22148  -0.956   0.718   5.176  0.0704  0.1873  0.1345
  926MOL0     C22149  -0.831   0.783   5.200 -0.5383  0.5901 -0.7133
  926MOL0     N22150  -0.118   1.026   5.733  0.3300 -0.3822 -0.6042
  926MOL0     N22151  -0.058   0.979   5.839 -0.1753 -1.0976  0.1599
  926MOL0     C22152   1.169   1.046   5.799 -0.1816  0.0854 -0.1521
  926MOL0     C22153   1.303   1.064   5.772 -0.3896  0.2514 -0.1731
  926MOL0     C22154   1.730   1.270   5.779 -0.4827 -0.1452 -0.5764
  926MOL0     C22155   1.808   1.384   5.753  0.2078  0.1125 -0.9201
  926MOL0     C22156   1.948   1.370   5.713  0.3579 -0.3038  0.0063
  926MOL0     C22157   2.005   1.248   5.715  0.6521  0.3119 -0.6686
  926MOL0     O22158   2.138   1.220   5.692  0.2484 -0.5697 -0.8555
  926MOL0     C22159   2.228   1.325   5.646  0.5642  1.2874 -0.1926
  926MOL0     C22160   2.373   1.269   5.662  0.4466 -0.5791  0.2584
  926MOL0     C22161   2.377   1.146   5.573 -0.7385  0.2083  0.1079
  926MOL0     C22162   2.513   1.078   5.583  0.0750  0.1865 -0.2241
  926MOL0     C22163   2.537   1.029   5.723  0.0058 -0.2150  0.6783
  926MOL0     C22164   2.566   0.997   5.839  0.2957  0.2707  0.5769
  926MOL0     C22165   1.924   1.137   5.738  0.1622 -0.0310  0.3560
  926MOL0     C22166   1.787   1.144   5.759  1.1637 -0.0590 -0.8173
  926MOL0     H22167   1.389   1.283   6.020 -1.1180  3.3390 -0.8829
  926MOL0     H22168   1.144   1.238   6.076  0.6821  0.7616  0.5569
  926MOL0     H22169   0.932   0.885   5.913  0.0260  0.5632  0.3740
  926MOL0     H22170   0.904   0.991   5.774  1.0857 -1.0363 -0.3926
  926MOL0     H22171   0.728   1.115   5.957  1.1959  0.5077  1.0348
  926MOL0     H22172   0.770   0.975   6.050  3.3680 -0.1022 -0.4491
  926MOL0     H22173   0.671   0.815   5.888 -1.5840 -0.3878 -0.1403
  926MOL0     H22174   0.658   0.955   5.766 -2.1320  0.9639 -0.3459
  926MOL0     H22175   0.509   0.951   6.031  2.0027  0.2326 -0.7936
  926MOL0     H22176   0.469   1.044   5.881 -1.2198 -1.2331 -4.3695
  926MOL0     H22177   0.453   0.750   5.944  0.1956  0.6014  0.8840
  926MOL0     H22178   0.429   0.796   5.787  0.9434  2.0148  0.0244
  926MOL0     H22179   0.216   0.946   5.861 -0.8831  0.5963  0.7683
  926MOL0     H22180   0.258   0.881   6.031 -0.9851 -0.8199  0.3992
  926MOL0     H22181   0.188   0.742   5.780  0.5979  2.4203  1.3879
  926MOL0     H22182   0.227   0.655   5.926 -1.7566 -1.4748  0.8962
  926MOL0     H22183   0.016   0.809   6.013  2.4223 -0.9890  1.2813
  926MOL0     H22184  -0.024   0.664   5.907 -0.4383  0.0238 -3.6360
  926MOL0     H22185  -0.082   0.721   5.644 -0.7012  0.9739 -1.1975
  926MOL0     H22186  -0.134   0.928   5.422  2.5215 -2.1484  2.1331
  926MOL0     H22187  -0.250   1.033   5.499  2.8941  1.3353  3.0813
  926MOL0     H22188  -0.394   0.857   5.553 -0.5937  0.3260 -0.4653
  926MOL0     H22189  -0.281   0.734   5.499 -0.6081  0.2332  1.9433
  926MOL0     H22190  -0.442   0.949   5.349 -3.7107 -2.2359  2.8204
  926MOL0     H22191  -0.322   0.854   5.262 -2.8267  1.6464 -2.1782
  926MOL0     H22192  -0.504   0.680   5.409  0.5914 -0.3731 -0.1217
  926MOL0     H22193  -0.456   0.673   5.237  2.7623  0.3204  0.6210
  926MOL0     H22194  -0.687   0.529   5.362 -0.2585  1.9534  2.7021
  926MOL0     H22195  -0.896   0.431   5.349  0.0522  0.0465  0.0141
  926MOL0     H22196  -1.341   0.645   4.907  2.8378 -0.6593  1.4523
  926MOL0     H22197  -1.585   0.615   4.884  0.1379  0.5561  0.1321
  926MOL0     H22198  -1.695   0.371   4.882  0.6986  0.0200  2.2259
  926MOL0     H22199  -1.790   0.519   4.859  1.6027  0.7681  0.3418
  926MOL0     H22200  -1.869   0.269   5.027  0.3373 -0.6828  1.3423
  926MOL0     H22201  -1.884   0.267   4.848 -1.7324  1.5598 -1.3069
  926MOL0     H22202  -2.029   0.469   5.011 -0.9008 -0.5517 -0.4449
  926MOL0     H22203  -2.107   0.319   4.969 -1.3622 -0.0545 -1.5717
  926MOL0     H22204  -1.978   0.521   4.768  1.6399 -2.3163  1.3848
  926MOL0     H22205  -2.072   0.385   4.716  1.9699 -0.9040  0.9854
  926MOL0     H22206  -2.204   0.610   4.711  0.8485  0.8312  0.7142
  926MOL0     H22207  -2.174   0.630   4.875 -1.0465 -0.0399  0.3995
  926MOL0     H22208  -2.309   0.432   4.924 -0.6478 -1.5998 -1.0666
  926MOL0     H22209  -2.322   0.398   4.759  0.2448 -1.5267  1.6733
  926MOL0     H22210  -2.431   0.642   4.895  1.3354 -3.6004  3.0996
  926MOL0     H22211  -2.424   0.622   4.715  1.2422  1.2274  1.3956
  926MOL0     H22212  -2.586   0.464   4.924  1.3093 -0.1537  0.5686
  926MOL0     H22213  -2.587   0.414   4.757 -0.3628 -0.8940  2.9888
  926MOL0     H22214  -1.610   0.419   5.267  0.1899 -0.8862  0.1437
  926MOL0     H22215  -1.369   0.477   5.308 -1.3078 -2.3898  0.6044
  926MOL0     H22216  -1.032   0.774   5.123 -3.5276 -3.2469  1.1771
  926MOL0     H22217  -0.803   0.880   5.160  2.0195  0.2358  0.0322
  926MOL0     H22218   1.107   0.993   5.727 -3.5678  4.2497 -0.7486
  926MOL0     H22219   1.352   1.000   5.700 -1.1126  0.8971 -1.2807
  926MOL0     H22220   1.758   1.479   5.768 -0.1284 -0.1110 -0.6117
  926MOL0     H22221   1.984   1.471   5.697 -2.5361  0.8421  0.0166
  926MOL0     H22222   2.211   1.409   5.714 -2.1434 -0.6359  1.7717
  926MOL0     H22223   2.220   1.355   5.541  0.5937 -1.8879 -1.2055
  926MOL0     H22224   2.438   1.351   5.630 -1.1044  1.1494  1.3375
  926MOL0     H22225   2.392   1.248   5.768 -1.1849  2.8437  1.3691
  926MOL0     H22226   2.355   1.185   5.473  0.3364 -1.2875 -0.7342
  926MOL0     H22227   2.292   1.083   5.603  1.1125 -1.7477  1.5177
  926MOL0     H22228   2.507   0.986   5.525  2.4106 -0.8428  1.0249
  926MOL0     H22229   2.601   1.137   5.553  1.1557  0.0787  2.4713
  926MOL0     H22230   2.609   0.982   5.936 -0.7622  0.4932  1.0973
  926MOL0     H22231   1.956   1.034   5.739  1.1335  0.2388 -0.9393
  926MOL0     H22232   1.726   1.055   5.769 -3.1268  2.8827  3.0453
  927MOL0     O22233   2.904   2.304   9.828  0.6946  0.0684 -0.2300
  927MOL0     C22234   2.851   2.192   9.837  0.4047 -0.4115 -0.7327
  927MOL0     O22235   2.722   2.164   9.871 -0.0184 -0.0457 -0.4213
  927MOL0     C22236   2.638   2.257   9.941 -0.2610  0.2359 -0.1273
  927MOL0     C22237   2.500   2.250   9.914  0.7515  0.3051  0.0986
  927MOL0     C22238   2.408   2.336   9.969 -0.4226  0.7423  0.4117
  927MOL0     C22239   2.450   2.430  10.060  0.4241  0.5909  1.0350
  927MOL0     O22240   2.354   2.510  10.119  0.0074 -0.8069 -0.6184
  927MOL0     C22241   2.390   2.646  10.145 -0.4273 -0.8204  0.4230
  927MOL0     C22242   2.257   2.739  10.189 -0.1305  0.2246 -0.2631
  927MOL0     C22243   2.186   2.811  10.075 -0.0500  0.5436 -0.3185
  927MOL0     C22244   2.072   2.894  10.131  0.6515 -0.6608  0.6811
  927MOL0     C22245   1.962   2.914  10.022 -0.1492 -0.4018  0.2587
  927MOL0     C22246   1.834   2.964  10.074 -0.0180 -0.2933 -0.0014
  927MOL0     C22247   1.736   3.031   9.974  0.6875  1.1772  0.1173
  927MOL0     C22248   1.654   3.140  10.038  0.2250 -0.2290 -0.0343
  927MOL0     N22249   1.582   3.217   9.929  0.4429 -0.9697 -0.6023
  927MOL0     C22250   1.463   3.279   9.953  0.1554 -0.8824 -0.0675
  927MOL0     C22251   1.424   3.329   9.830  0.3075  0.8532 -0.8056
  927MOL0     C22252   1.311   3.423   9.807  0.5885  0.5208 -0.5400
  927MOL0     C22253   1.237   3.459   9.943 -0.4093 -0.2292  0.5287
  927MOL0     C22254   1.148   3.581   9.902 -0.1547 -0.7057 -0.2665
  927MOL0     C22255   1.043   3.619  10.010  0.6797  0.6656 -1.0772
  927MOL0     O22256   0.953   3.508  10.023  0.0685 -0.1472  0.2240
  927MOL0     C22257   0.853   3.524  10.106 -0.6712  0.0618  0.0986
  927MOL0     C22258   0.840   3.423  10.202 -1.0776 -0.6069 -0.0367
  927MOL0     C22259   0.737   3.431  10.295  0.4067 -0.6582 -0.5976
  927MOL0     C22260   0.644   3.538  10.295 -0.7211  0.3539 -0.3553
  927MOL0     C22261   0.530   3.528  10.385 -0.1251 -0.4160 -0.6303
  927MOL0     O22262   0.432   3.624  10.371 -0.9337 -0.1767 -0.2336
  927MOL0     C22263   0.306   3.614  10.426  0.1092 -0.3430 -0.0798
  927MOL0     C22264   0.242   3.500  10.473 -0.8343  0.7341 -0.2876
  927MOL0     C22265   0.115   3.504  10.521 -0.2148 -0.0129 -0.3621
  927MOL0     C22266   0.037   3.622  10.522  0.1008 -1.2521 -0.2101
  927MOL0     O22267  -0.094   3.631  10.573 -0.9785 -0.5224 -0.0323
  927MOL0     C22268  -0.125   3.538  10.679 -0.1142 -0.1971  0.3198
  927MOL0     C22269  -0.057   3.556  10.816  0.2557 -0.8371 -0.2366
  927MOL0     C22270  -0.116   3.500  10.937  0.6090  0.6605 -0.1269
  927MOL0     C22271  -0.011   3.449  11.043 -0.4491  0.0736  0.3484
  927MOL0     C22272  -0.080   3.424  11.174  0.4842  0.2215  0.7683
  927MOL0     C22273  -0.178   3.300  11.188  0.2315 -0.6072  0.5076
  927MOL0     C22274  -0.131   3.177  11.120 -0.1934 -0.6293 -0.0968
  927MOL0     C22275   0.011   3.117  11.158  0.0673 -1.1645 -0.1144
  927MOL0    Cl22276   0.065   3.157  11.329 -0.0222  0.2329  0.3711
  927MOL0     C22277   0.095   3.740  10.461  0.3572  0.3639 -0.5883
  927MOL0     C22278   0.228   3.733  10.417 -0.0752 -0.0754 -0.7666
  927MOL0     O22279   0.532   3.432  10.471  0.6356 -0.6783  0.1601
  927MOL0     C22280   0.653   3.631  10.193 -0.6663 -0.4210  0.3225
  927MOL0     C22281   0.766   3.628  10.099 -0.3404  0.0694 -0.0301
  927MOL0     N22282   1.519   3.291   9.738 -0.5551  0.0739  0.7475
  927MOL0     N22283   1.608   3.220   9.794 -0.5991  0.0283 -0.8376
  927MOL0     C22284   2.588   2.434  10.088  0.6923 -0.3122 -1.4481
  927MOL0     C22285   2.680   2.350  10.031 -0.4529 -0.2298  0.2347
  927MOL0     C22286   2.919   2.063   9.813  0.9635  0.2132  0.2898
  927MOL0     C22287   3.055   2.064   9.818  0.9631  0.4405 -0.4414
  927MOL0     C22288   3.132   1.943   9.809  0.1890 -0.3734  0.7569
  927MOL0     C22289   3.067   1.825   9.800 -0.0032 -0.5426 -0.4371
  927MOL0     O22290   3.139   1.707   9.789  0.7594  0.7718  0.4197
  927MOL0     C22291   3.280   1.691   9.791  0.6654  0.4067  0.2799
  927MOL0     C22292   3.323   1.678   9.937  0.0741  0.4465 -0.2205
  927MOL0     C22293   3.485   1.672   9.949  0.6604  0.5946  0.0094
  927MOL0     C22294   3.495   1.634  10.096 -0.6350 -0.3660  1.1339
  927MOL0     C22295   3.638   1.604  10.146 -0.4440 -0.7957 -0.0436
  927MOL0     C22296   3.749   1.582  10.186  0.5384  0.3364  0.1461
  927MOL0     C22297   2.929   1.827   9.800  0.7609 -0.3418  0.4592
  927MOL0     C22298   2.848   1.942   9.803  0.1658  0.5658  0.2808
  927MOL0     H22299   2.463   2.188   9.833 -2.0373  3.8666 -1.6342
  927MOL0     H22300   2.303   2.320   9.946 -0.0169 -1.8623  0.0527
  927MOL0     H22301   2.438   2.685  10.054 -0.9191 -4.6036 -1.6704
  927MOL0     H22302   2.466   2.651  10.223 -0.1206  0.5881  0.0611
  927MOL0     H22303   2.285   2.809  10.268 -0.5176 -0.6373  0.6572
  927MOL0     H22304   2.185   2.669  10.232  2.4955 -1.8852  1.0019
  927MOL0     H22305   2.152   2.744   9.995  2.0861  0.1536 -0.9679
  927MOL0     H22306   2.256   2.878  10.025  0.0065  0.5970 -0.1693
  927MOL0     H22307   2.044   2.840  10.222 -3.8231 -1.6134 -1.0195
  927MOL0     H22308   2.108   2.993  10.161 -0.3810 -0.2461  0.6037
  927MOL0     H22309   1.954   2.822   9.963 -0.9600 -1.7718  2.3723
  927MOL0     H22310   2.006   2.991   9.958  3.8827  0.2602  3.4523
  927MOL0     H22311   1.849   3.037  10.154 -0.7395  0.8850 -0.8965
  927MOL0     H22312   1.792   2.876  10.123  2.7392 -2.6230 -1.5081
  927MOL0     H22313   1.794   3.082   9.897 -1.3594  1.4712 -1.3288
  927MOL0     H22314   1.672   2.957   9.925  3.4598 -0.2944 -1.5482
  927MOL0     H22315   1.715   3.212  10.092  2.0980  0.0308 -2.3452
  927MOL0     H22316   1.579   3.092  10.103  2.1581 -0.1173  2.4013
  927MOL0     H22317   1.399   3.305  10.036 -0.0225 -2.0852  0.1866
  927MOL0     H22318   1.246   3.373   9.734 -0.5036  0.3853  0.5089
  927MOL0     H22319   1.340   3.513   9.752 -2.2200  1.0632 -1.2799
  927MOL0     H22320   1.316   3.479  10.016 -0.0572 -0.7240  0.2848
  927MOL0     H22321   1.180   3.371   9.973  1.0610 -2.4862 -2.6983
  927MOL0     H22322   1.220   3.663   9.895 -0.3297 -0.6432 -1.4306
  927MOL0     H22323   1.106   3.574   9.802 -1.3218  0.8624  0.0659
  927MOL0     H22324   0.991   3.715  10.001 -1.3610 -0.4293 -1.7816
  927MOL0     H22325   1.095   3.632  10.105 -0.9280  4.2430 -0.5249
  927MOL0     H22326   0.911   3.342  10.200  0.1294  0.4365 -1.4166
  927MOL0     H22327   0.738   3.350  10.366  2.2924 -0.5391 -0.4286
  927MOL0     H22328   0.293   3.406  10.491 -1.9394  0.5768  2.6210
  927MOL0     H22329   0.081   3.410  10.564 -0.4054  1.0538  1.9877
  927MOL0     H22330  -0.120   3.432  10.653 -0.5913 -0.7002  2.0957
  927MOL0     H22331  -0.230   3.566  10.691  0.4338  2.1192  0.1337
  927MOL0     H22332  -0.049   3.664  10.833 -0.6667 -0.7612 -0.2265
  927MOL0     H22333   0.046   3.520  10.806  1.3500  2.3196 -1.8061
  927MOL0     H22334  -0.168   3.412  10.897  1.6949 -0.3270  0.5814
  927MOL0     H22335  -0.193   3.567  10.976 -2.2488 -0.6290 -3.0434
  927MOL0     H22336   0.042   3.363  11.002  2.0154  0.7491  1.8804
  927MOL0     H22337   0.056   3.534  11.056 -2.5430  2.0242 -0.7873
  927MOL0     H22338  -0.136   3.514  11.201 -2.0371 -1.1835  0.4884
  927MOL0     H22339  -0.006   3.420  11.254 -0.8221  0.3769  2.0141
  927MOL0     H22340  -0.269   3.340  11.142  0.3699 -0.2989  0.4978
  927MOL0     H22341  -0.185   3.277  11.295  0.0624  0.8353  0.8327
  927MOL0     H22342  -0.201   3.097  11.147 -0.3181 -1.1809 -1.9351
  927MOL0     H22343  -0.137   3.190  11.011 -0.6929  0.1118  0.0060
  927MOL0     H22344   0.081   3.163  11.087  0.7163 -0.9886  0.6215
  927MOL0     H22345   0.021   3.011  11.136  0.9471 -1.0817 -0.1506
  927MOL0     H22346   0.047   3.836  10.448 -0.9873 -0.2278 -0.1581
  927MOL0     H22347   0.264   3.827  10.377 -1.2326  0.4044 -0.7223
  927MOL0     H22348   0.578   3.710  10.180  1.3798  1.7619  1.0037
  927MOL0     H22349   0.781   3.701  10.021  1.6065  0.9724  1.1276
  927MOL0     H22350   2.639   2.498  10.160 -0.9207 -0.3325 -0.2262
  927MOL0     H22351   2.786   2.349  10.056  0.0831 -3.9244 -1.4560
  927MOL0     H22352   3.113   2.155   9.829  2.6521 -0.6920  0.4995
  927MOL0     H22353   3.239   1.945   9.792  0.0863  1.2677  0.0968
  927MOL0     H22354   3.327   1.778   9.745  0.3141 -0.4969 -1.9058
  927MOL0     H22355   3.315   1.600   9.743  0.3779  1.3567 -1.8444
  927MOL0     H22356   3.284   1.757  10.002 -0.0472 -0.8454  1.3370
  927MOL0     H22357   3.277   1.586   9.975  0.5250  0.3635  0.1240
  927MOL0     H22358   3.532   1.768   9.929 -0.7587  0.8517 -2.5444
  927MOL0     H22359   3.525   1.602   9.874  1.4157 -0.3590  1.2658
  927MOL0     H22360   3.440   1.707  10.156 -1.8463  0.2120 -0.6049
  927MOL0     H22361   3.447   1.538  10.111 -0.5458 -0.6750 -0.3609
  927MOL0     H22362   3.838   1.563  10.241  0.2818  1.4803  0.9980
  927MOL0     H22363   2.884   1.728   9.803 -0.7613  0.2621  4.2197
  927MOL0     H22364   2.740   1.938   9.801  0.1624 -1.9023  1.4654
  928MOL0     O22365   9.674   9.509   5.708 -0.1962  0.6414  0.2926
  928MOL0     C22366   9.637   9.624   5.719 -1.3653  0.2145  0.0465
  928MOL0     O22367   9.705   9.732   5.771 -0.4799  0.8141 -0.2593
  928MOL0     C22368   9.840   9.721   5.796  0.1895 -0.2489 -0.5594
  928MOL0     C22369   9.887   9.810   5.887 -0.3273 -0.8654  0.3634
  928MOL0     C22370  10.026   9.825   5.919 -0.4641  0.0507  0.6503
  928MOL0     C22371  10.118   9.746   5.850  0.5184 -0.4568 -0.4691
  928MOL0     O22372  10.249   9.763   5.888  0.7375 -0.6053 -0.1493
  928MOL0     C22373  10.344   9.675   5.830 -0.1310 -0.2184  0.1995
  928MOL0     C22374  10.487   9.717   5.875  0.0406 -0.4817 -0.0345
  928MOL0     C22375  10.605   9.643   5.804 -0.1100  0.0271 -0.3412
  928MOL0     C22376  10.725   9.709   5.867 -0.5525 -0.3410  0.0047
  928MOL0     C22377  10.858   9.659   5.799 -0.6690 -0.3300 -0.1507
  928MOL0     C22378  10.998   9.739   5.829 -0.2460  0.5265 -0.4260
  928MOL0     C22379  11.125   9.678   5.765 -0.3015  0.0376 -0.3322
  928MOL0     C22380  11.114   9.642   5.617 -1.0523 -0.7513  0.4783
  928MOL0     N22381  11.130   9.775   5.554  0.0068 -0.3041 -0.2254
  928MOL0     C22382  11.037   9.848   5.484 -0.3842  0.5120  0.7841
  928MOL0     C22383  11.093   9.968   5.452 -0.1963 -0.7995  0.8070
  928MOL0     C22384  11.043  10.085   5.367  0.2887 -0.4161  1.3490
  928MOL0     C22385  10.921  10.144   5.441  0.2088 -0.3807  0.7598
  928MOL0     C22386  10.862  10.275   5.378  0.8020  0.9277 -0.0692
  928MOL0     C22387  10.744  10.312   5.469  0.5220 -0.3481 -0.0431
  928MOL0     O22388  10.715  10.450   5.457  1.1132  0.2041 -0.4225
  928MOL0     C22389  10.692  10.494   5.333 -0.5902  0.5866 -1.0086
  928MOL0     C22390  10.767  10.597   5.280 -0.4319  0.3181 -0.5498
  928MOL0     C22391  10.741  10.631   5.148  0.2115  0.3048  0.2957
  928MOL0     C22392  10.625  10.580   5.080  0.6625 -0.3901 -0.3416
  928MOL0     C22393  10.580  10.627   4.945  0.7516 -0.3973  0.5121
  928MOL0     O22394  10.495  10.551   4.879  0.6208 -1.2642  0.2966
  928MOL0     C22395  10.491  10.575   4.744  1.2807 -0.3171  0.4387
  928MOL0     C22396  10.554  10.488   4.653  0.1705 -0.1548 -0.6197
  928MOL0     C22397  10.541  10.483   4.516  0.1471 -0.1576  0.7411
  928MOL0     C22398  10.461  10.589   4.460  0.3466  0.9062  0.1463
  928MOL0     O22399  10.437  10.610   4.322  0.7229 -0.2681 -1.2206
  928MOL0     C22400  10.557  10.651   4.257  0.1639  0.4531  0.0497
  928MOL0     C22401  10.517  10.643   4.116  0.2181  0.1505 -0.0980
  928MOL0     C22402  10.622  10.680   4.023 -0.2244 -0.5722 -0.5010
  928MOL0     C22403  10.587  10.678   3.870  0.1277 -0.1903  0.2161
  928MOL0     C22404  10.694  10.746   3.782  0.5255  0.6681  0.3498
  928MOL0     C22405  10.832  10.684   3.812  0.4820 -0.4348  0.0170
  928MOL0     C22406  10.923  10.699   3.693 -0.0811  1.0419 -0.1420
  928MOL0     C22407  11.022  10.579   3.690  0.4284  0.0002 -0.1494
  928MOL0    Cl22408  11.069  10.528   3.852  0.0383 -0.1203 -0.3103
  928MOL0     C22409  10.400  10.685   4.549  0.5469 -0.0025  0.9293
  928MOL0     C22410  10.418  10.680   4.684  0.4465  0.8520 -0.9173
  928MOL0     O22411  10.627  10.734   4.896  0.2524 -0.7068 -0.9732
  928MOL0     C22412  10.543  10.486   5.144  0.5670 -0.6050  0.1260
  928MOL0     C22413  10.576  10.444   5.273  0.1705 -0.3882 -0.1601
  928MOL0     N22414  11.218   9.956   5.494 -0.3023 -0.3847  0.0734
  928MOL0     N22415  11.245   9.845   5.548 -0.7305  0.1014  0.0043
  928MOL0     C22416  10.071   9.653   5.759  0.0647 -0.6741 -0.7389
  928MOL0     C22417   9.935   9.641   5.726 -0.7979  0.6216  0.4994
  928MOL0     C22418   9.490   9.642   5.721 -0.1692 -0.7737 -0.2099
  928MOL0     C22419   9.400   9.533   5.734 -0.0135  0.2149 -0.0025
  928MOL0     C22420   9.266   9.560   5.751  0.6428  0.9780 -0.0114
  928MOL0     C22421   9.214   9.691   5.753 -0.2552 -0.3636 -0.5479
  928MOL0     O22422   9.084   9.730   5.751  0.2541 -0.8793 -0.0061
  928MOL0     C22423   8.979   9.638   5.776 -0.4956  0.0269  0.3494
  928MOL0     C22424   8.968   9.573   5.915 -0.9832  0.2161  0.6771
  928MOL0     C22425   8.828   9.608   5.968 -0.1777  0.3956 -0.3163
  928MOL0     C22426   8.715   9.499   5.948 -1.1511 -0.8772 -0.0188
  928MOL0     C22427   8.585   9.539   6.006 -0.4201 -0.3403  0.0977
  928MOL0     C22428   8.477   9.585   6.043 -0.3719 -0.7523 -0.4808
  928MOL0     C22429   9.307   9.794   5.749 -0.5155 -1.2090  0.2860
  928MOL0     C22430   9.443   9.780   5.735  0.5407  0.6999  0.6396
  928MOL0     H22431   9.816   9.876   5.936  0.2723 -1.0827  1.5739
  928MOL0     H22432  10.076   9.898   5.982  1.3744  0.1063 -0.8023
  928MOL0     H22433  10.355   9.678   5.721  1.3865  1.9384  0.3629
  928MOL0     H22434  10.328   9.573   5.866  2.6518  0.0414  2.5123
  928MOL0     H22435  10.492   9.705   5.984 -0.4607  0.6274  0.1195
  928MOL0     H22436  10.489   9.822   5.845 -0.6984 -0.7039 -0.9001
  928MOL0     H22437  10.606   9.654   5.695 -1.9215  3.7006 -0.1093
  928MOL0     H22438  10.613   9.534   5.813  0.6340  0.1211  0.3413
  928MOL0     H22439  10.722   9.818   5.858  1.9221 -0.2769 -0.7445
  928MOL0     H22440  10.737   9.701   5.975  0.2534 -1.5071 -0.1471
  928MOL0     H22441  10.856   9.634   5.692 -0.5235 -0.4493 -0.1270
  928MOL0     H22442  10.870   9.559   5.842  0.3114 -0.3948 -0.5519
  928MOL0     H22443  11.009   9.749   5.937  3.3329  0.2491 -0.6491
  928MOL0     H22444  10.989   9.843   5.794  0.9829 -0.0294 -2.6019
  928MOL0     H22445  11.207   9.749   5.778  1.5823 -2.3160  1.6587
  928MOL0     H22446  11.157   9.586   5.815  0.9651  0.4473 -0.3643
  928MOL0     H22447  11.018   9.601   5.584 -2.5524  3.1366 -0.5809
  928MOL0     H22448  11.198   9.583   5.580 -2.1231  0.6400 -5.0941
  928MOL0     H22449  10.933   9.825   5.463 -0.0554 -1.6266  1.2747
  928MOL0     H22450  11.014  10.041   5.271  3.0760 -3.4914  1.7407
  928MOL0     H22451  11.115  10.166   5.354 -1.4429  1.1734  1.3331
  928MOL0     H22452  10.962  10.154   5.543 -0.1623 -2.1844  1.1266
  928MOL0     H22453  10.842  10.069   5.439 -1.2427  1.1138  0.5426
  928MOL0     H22454  10.935  10.356   5.381  1.0557  0.6883  0.3784
  928MOL0     H22455  10.830  10.267   5.274 -3.1679  2.5437  0.8330
  928MOL0     H22456  10.783  10.294   5.569 -1.4009 -3.2175  0.3267
  928MOL0     H22457  10.654  10.253   5.446 -2.2794  3.6688 -0.4050
  928MOL0     H22458  10.852  10.642   5.331 -1.3926  2.3257 -0.6009
  928MOL0     H22459  10.803  10.711   5.109  0.6021 -0.2315 -0.2164
  928MOL0     H22460  10.616  10.410   4.697  0.2796  0.6693  0.7397
  928MOL0     H22461  10.588  10.413   4.448 -1.9774 -0.1823 -0.7981
  928MOL0     H22462  10.632  10.575   4.282  0.7810  1.2190  0.6053
  928MOL0     H22463  10.587  10.755   4.270 -1.3937  1.0320 -0.8083
  928MOL0     H22464  10.429  10.705   4.092 -1.0732 -1.6033 -0.1045
  928MOL0     H22465  10.471  10.545   4.102 -3.0161  1.5305 -0.3053
  928MOL0     H22466  10.710  10.621   4.050  0.1330 -0.3949 -1.2604
  928MOL0     H22467  10.630  10.787   4.045  1.8222 -0.6911 -0.5033
  928MOL0     H22468  10.553  10.578   3.843  1.0204 -0.0595 -1.5350
  928MOL0     H22469  10.498  10.741   3.860  1.8016  2.5128  1.1814
  928MOL0     H22470  10.701  10.852   3.808  0.6804  1.3413 -2.1313
  928MOL0     H22471  10.654  10.736   3.681  0.3260  1.6062  0.3223
  928MOL0     H22472  10.815  10.582   3.849 -1.4224 -0.5135 -0.9545
  928MOL0     H22473  10.868  10.738   3.900  0.6725  0.8023 -0.7991
  928MOL0     H22474  10.854  10.684   3.609 -0.7282 -0.9697  0.6830
  928MOL0     H22475  10.971  10.797   3.686  1.2780  0.3895 -0.3695
  928MOL0     H22476  11.115  10.594   3.634  0.2288 -0.2116 -0.5358
  928MOL0     H22477  10.967  10.495   3.648 -0.1632  0.1386  0.3315
  928MOL0     H22478  10.344  10.767   4.506 -0.1757  0.2534  2.3011
  928MOL0     H22479  10.370  10.758   4.743 -1.6980  0.5087 -2.0987
  928MOL0     H22480  10.452  10.445   5.100  0.9919 -0.7044 -0.6749
  928MOL0     H22481  10.530  10.358   5.321  3.1133 -0.7955  2.2638
  928MOL0     H22482  10.149   9.594   5.712 -0.3787 -1.4104 -0.5663
  928MOL0     H22483   9.915   9.579   5.640 -0.1731  1.1575 -0.0432
  928MOL0     H22484   9.427   9.429   5.724 -3.4176 -0.7941  0.2608
  928MOL0     H22485   9.202   9.473   5.756  0.3205  1.2656  1.2839
  928MOL0     H22486   8.970   9.553   5.708  0.2622 -0.8416  1.3036
  928MOL0     H22487   8.888   9.693   5.752 -0.6629 -0.1847  0.4971
  928MOL0     H22488   8.982   9.464   5.907 -2.6105  0.0264 -0.0239
  928MOL0     H22489   9.042   9.616   5.983  1.9462 -3.1296 -0.0721
  928MOL0     H22490   8.806   9.703   5.919 -0.5828 -0.8547 -2.6958
  928MOL0     H22491   8.823   9.619   6.077 -2.7131 -1.3912 -0.1768
  928MOL0     H22492   8.704   9.489   5.839 -0.1844  0.5117 -0.2656
  928MOL0     H22493   8.741   9.397   5.978  2.1011 -0.5389 -1.2060
  928MOL0     H22494   8.389   9.624   6.088  1.9966  1.8201  2.3621
  928MOL0     H22495   9.275   9.897   5.743 -0.6277 -1.1394  1.7594
  928MOL0     H22496   9.513   9.862   5.726 -0.4728  1.5585  0.4473
  929MOL0     O22497   7.050  11.181   0.278 -0.1812 -0.6876  0.6936
  929MOL0     C22498   7.015  11.260   0.366  0.5247 -0.3575  0.9295
  929MOL0     O22499   7.100  11.328   0.446 -0.0547 -0.2645  0.1437
  929MOL0     C22500   7.234  11.313   0.449 -0.7885  0.6357 -0.7501
  929MOL0     C22501   7.312  11.295   0.338 -0.0350 -0.1845 -0.6603
  929MOL0     C22502   7.455  11.277   0.341  0.9261  0.0645 -1.0514
  929MOL0     C22503   7.522  11.270   0.463 -0.1458 -0.0260  0.4790
  929MOL0     O22504   7.653  11.242   0.461  0.9872  0.3407 -0.3965
  929MOL0     C22505   7.730  11.240   0.577 -0.6190 -0.8884 -0.2500
  929MOL0     C22506   7.875  11.206   0.529  1.0881 -0.7271  0.1619
  929MOL0     C22507   7.954  11.326   0.473 -0.4098  0.2780  0.1457
  929MOL0     C22508   8.102  11.306   0.451 -0.0289 -0.3867 -0.1524
  929MOL0     C22509   8.149  11.167   0.408  0.2264 -0.2290 -0.6821
  929MOL0     C22510   8.300  11.167   0.423  0.1833 -0.1166 -1.2391
  929MOL0     C22511   8.365  11.039   0.358  0.2193  0.6623  0.0054
  929MOL0     C22512   8.499  10.998   0.418  0.5949  0.0802  0.2704
  929MOL0     N22513   8.619  11.078   0.369  0.4923  0.6559  0.1480
  929MOL0     C22514   8.730  11.011   0.327 -0.1105 -0.1593  1.0937
  929MOL0     C22515   8.827  11.109   0.316  0.1671 -0.8702  0.7176
  929MOL0     C22516   8.966  11.094   0.275 -0.2935  0.5293  0.4592
  929MOL0     C22517   9.035  11.223   0.226  0.6382  0.6253 -0.2692
  929MOL0     C22518   9.181  11.227   0.225 -0.8094 -0.4033 -0.0153
  929MOL0     C22519   9.254  11.089   0.220 -0.0342 -0.3665 -0.2667
  929MOL0     O22520   9.369  11.106   0.144  0.6040 -0.2987 -0.4720
  929MOL0     C22521   9.437  10.999   0.100 -0.0715 -0.1690  0.0101
  929MOL0     C22522   9.439  10.876   0.168  0.5338 -0.4733  0.1492
  929MOL0     C22523   9.527  10.780   0.117 -0.5058  0.3411  0.5009
  929MOL0     C22524   9.605  10.806  -0.002  0.1234 -1.4497 -0.5382
  929MOL0     C22525   9.692  10.707  -0.064 -0.9600 -0.4588  0.1739
  929MOL0     O22526   9.771  10.741  -0.167 -0.2188 -0.9925  0.5114
  929MOL0     C22527   9.846  10.641  -0.220 -0.7860  1.1029 -0.1418
  929MOL0     C22528   9.985  10.636  -0.172  0.5904 -0.3872  1.5452
  929MOL0     C22529  10.079  10.554  -0.234 -0.0040 -0.0768  1.6544
  929MOL0     C22530  10.026  10.458  -0.330 -0.1368 -0.3271 -0.6502
  929MOL0     O22531  10.109  10.355  -0.373  0.3758 -0.7931 -0.0155
  929MOL0     C22532  10.107  10.246  -0.281 -0.3850  0.0537  0.9253
  929MOL0     C22533  10.001  10.140  -0.319 -0.4344 -0.1018 -0.4904
  929MOL0     C22534  10.042  10.076  -0.445  0.3241  0.8920  0.6189
  929MOL0     C22535   9.933   9.973  -0.493  0.2433  1.0538  0.0170
  929MOL0     C22536   9.989   9.915  -0.618 -0.6067 -0.1171  0.0896
  929MOL0     C22537  10.007  10.017  -0.734  0.2132 -0.2824  0.0387
  929MOL0     C22538  10.022   9.937  -0.869  0.0940  0.3553  0.0795
  929MOL0     C22539   9.893   9.951  -0.952 -0.6352 -0.2618  0.2380
  929MOL0    Cl22540   9.754   9.921  -0.850 -0.0460 -0.1283  0.1649
  929MOL0     C22541   9.890  10.453  -0.361 -0.7429 -0.0079  0.6320
  929MOL0     C22542   9.804  10.543  -0.310  0.1766  0.5970  0.0640
  929MOL0     O22543   9.669  10.588  -0.029  0.2611  0.8451 -0.7020
  929MOL0     C22544   9.613  10.939  -0.047  0.1429  0.0526  0.8985
  929MOL0     C22545   9.532  11.030   0.003 -0.5822  0.0023  0.1124
  929MOL0     N22546   8.763  11.229   0.346 -0.0989  0.9710  0.3982
  929MOL0     N22547   8.638  11.210   0.379  0.3429 -0.4574  0.5993
  929MOL0     C22548   7.448  11.315   0.574 -0.9544 -0.6740 -0.1761
  929MOL0     C22549   7.307  11.326   0.570 -0.3361 -0.2046 -0.1872
  929MOL0     C22550   6.865  11.288   0.360  0.0199 -0.3457 -0.0004
  929MOL0     C22551   6.789  11.246   0.251 -0.5034 -0.5043 -0.0852
  929MOL0     C22552   6.658  11.296   0.250 -0.6263  0.3708  0.2875
  929MOL0     C22553   6.595  11.363   0.348 -0.0925 -0.6844 -0.3193
  929MOL0     O22554   6.463  11.389   0.326  0.2357  0.6561  0.3465
  929MOL0     C22555   6.409  11.489   0.411 -0.6036  0.5964 -0.4481
  929MOL0     C22556   6.258  11.511   0.377  0.0175 -0.2055 -0.5592
  929MOL0     C22557   6.207  11.628   0.454  0.3307  0.2504 -0.4667
  929MOL0     C22558   6.053  11.640   0.452  0.4330 -0.0766 -0.9305
  929MOL0     C22559   5.999  11.758   0.518  0.3048  0.5153  0.2865
  929MOL0     C22560   5.953  11.853   0.577  0.4503 -0.2350 -0.9839
  929MOL0     C22561   6.676  11.393   0.455  0.5493 -0.0520 -1.0456
  929MOL0     C22562   6.814  11.363   0.462 -0.5004  0.5301  0.3834
  929MOL0     H22563   7.257  11.309   0.246 -2.3129 -0.6425  0.5510
  929MOL0     H22564   7.509  11.261   0.249 -4.0099 -1.4405 -4.0589
  929MOL0     H22565   7.700  11.155   0.639 -3.1292  1.5965  2.3292
  929MOL0     H22566   7.724  11.334   0.633  1.2796 -2.1285  2.2097
  929MOL0     H22567   7.865  11.129   0.452 -2.7253 -0.3953  0.1396
  929MOL0     H22568   7.923  11.160   0.616 -1.2595 -3.2784  0.2374
  929MOL0     H22569   7.931  11.408   0.542  0.5155 -0.6453  1.5916
  929MOL0     H22570   7.907  11.351   0.378  0.1955 -0.1573 -0.2748
  929MOL0     H22571   8.134  11.377   0.374 -3.0798  0.4362 -0.7597
  929MOL0     H22572   8.152  11.322   0.548  0.0913 -0.9622 -0.1188
  929MOL0     H22573   8.130  11.148   0.302 -1.1327 -1.1352 -0.2955
  929MOL0     H22574   8.101  11.090   0.468 -3.0376  1.5715 -0.7601
  929MOL0     H22575   8.317  11.159   0.531 -3.1107 -2.7220 -0.7510
  929MOL0     H22576   8.343  11.263   0.391 -1.5699  1.6572  1.3015
  929MOL0     H22577   8.298  10.952   0.353 -2.8450  2.6272  2.8320
  929MOL0     H22578   8.393  11.065   0.255  1.8372  0.8476  0.4672
  929MOL0     H22579   8.515  10.901   0.371 -0.7258 -0.2668  0.4698
  929MOL0     H22580   8.505  11.002   0.528  1.2827  3.7266  0.2312
  929MOL0     H22581   8.746  10.904   0.319  1.9504  0.0322  2.0502
  929MOL0     H22582   8.961  11.024   0.190  0.6687  0.9445  0.0431
  929MOL0     H22583   9.021  11.048   0.357 -0.1293 -0.4354 -0.1789
  929MOL0     H22584   9.006  11.310   0.285 -4.1298 -1.5188  1.0357
  929MOL0     H22585   8.996  11.236   0.125 -2.9391  0.9463  1.0025
  929MOL0     H22586   9.215  11.276   0.133  1.7232 -1.7505  0.1110
  929MOL0     H22587   9.216  11.290   0.307 -3.0073  0.2656  0.4834
  929MOL0     H22588   9.193  11.012   0.172 -0.5670 -1.0860  1.4838
  929MOL0     H22589   9.283  11.055   0.320  3.3274  0.0948 -0.9784
  929MOL0     H22590   9.374  10.865   0.254  0.2170 -0.1193 -0.0425
  929MOL0     H22591   9.517  10.678   0.154 -2.0818  0.5164  0.6163
  929MOL0     H22592  10.002  10.717  -0.101  0.1034  0.9860  0.1597
  929MOL0     H22593  10.185  10.556  -0.210  0.9276 -2.1899 -1.5015
  929MOL0     H22594  10.081  10.273  -0.178  0.7166 -1.1255  1.5474
  929MOL0     H22595  10.210  10.209  -0.285  0.2750  1.8646  0.3244
  929MOL0     H22596   9.902  10.185  -0.326 -0.1641  0.5857 -0.0404
  929MOL0     H22597   9.999  10.059  -0.246  0.9232  0.7948  0.6120
  929MOL0     H22598  10.125  10.009  -0.423 -0.4913 -0.3270  0.0739
  929MOL0     H22599  10.062  10.156  -0.517 -2.0934 -0.3718 -1.6630
  929MOL0     H22600   9.913   9.893  -0.420  3.1388 -0.7721 -1.0153
  929MOL0     H22601   9.837  10.023  -0.509 -0.4123 -0.2916 -0.4364
  929MOL0     H22602   9.926   9.829  -0.642  1.2242 -1.0850 -1.5640
  929MOL0     H22603  10.088   9.872  -0.597 -1.2613 -2.2885 -0.9781
  929MOL0     H22604  10.102  10.068  -0.712  0.0353  0.0257  0.0939
  929MOL0     H22605   9.928  10.092  -0.743 -0.0278 -0.6359 -0.8331
  929MOL0     H22606  10.100   9.988  -0.927  0.4814  1.5250  1.5561
  929MOL0     H22607  10.062   9.837  -0.853  1.3129  0.8798  0.4390
  929MOL0     H22608   9.890   9.891  -1.043  0.4498  2.9502 -2.1170
  929MOL0     H22609   9.892  10.057  -0.981  3.2944 -0.5053 -1.4064
  929MOL0     H22610   9.863  10.379  -0.435 -0.8583 -0.1578  0.8226
  929MOL0     H22611   9.702  10.528  -0.344 -0.4992 -0.7051  2.4411
  929MOL0     H22612   9.666  10.972  -0.135 -1.3896  4.9990  1.5051
  929MOL0     H22613   9.542  11.136  -0.021  2.7566  0.9960  4.6012
  929MOL0     H22614   7.509  11.335   0.661  0.4070  0.7294 -1.3766
  929MOL0     H22615   7.244  11.339   0.658 -0.2789 -1.2839  0.0312
  929MOL0     H22616   6.831  11.194   0.165  0.3496  1.3670 -0.8730
  929MOL0     H22617   6.603  11.258   0.164 -2.0689  0.2936  1.2039
  929MOL0     H22618   6.462  11.583   0.395  1.6346 -0.9276 -2.6998
  929MOL0     H22619   6.418  11.452   0.513 -2.4187 -0.3197 -0.5733
  929MOL0     H22620   6.239  11.537   0.273 -2.4971 -0.6266 -0.2821
  929MOL0     H22621   6.213  11.416   0.407  1.0611 -1.3774 -2.5012
  929MOL0     H22622   6.247  11.721   0.411 -1.4017  1.4344  0.3606
  929MOL0     H22623   6.240  11.630   0.558  0.5114  0.8070 -0.5318
  929MOL0     H22624   6.014  11.647   0.350 -1.6255  1.4651 -0.1125
  929MOL0     H22625   6.014  11.550   0.501  2.4679  1.8309  5.1892
  929MOL0     H22626   5.916  11.937   0.632  0.6826 -1.1015  0.5365
  929MOL0     H22627   6.633  11.444   0.541  0.9972 -1.2366 -0.0753
  929MOL0     H22628   6.879  11.399   0.541 -0.1772  2.3075 -0.6371
  930MOL0     O22629   4.250   5.293   3.532 -0.3270  0.2704  0.3603
  930MOL0     C22630   4.252   5.178   3.481 -0.1715  0.6140  0.3006
  930MOL0     O22631   4.152   5.111   3.414  0.2088 -0.0972 -0.0019
  930MOL0     C22632   4.037   5.185   3.397 -1.1326  0.8104  0.2787
  930MOL0     C22633   3.921   5.143   3.463 -0.1983  0.6090 -0.3619
  930MOL0     C22634   3.810   5.214   3.443  0.2474  0.3788 -0.1838
  930MOL0     C22635   3.812   5.339   3.378  0.2130 -0.0783 -0.3241
  930MOL0     O22636   3.707   5.426   3.383 -0.1722 -0.6882  0.2706
  930MOL0     C22637   3.748   5.546   3.440 -0.7648 -0.1052  0.0041
  930MOL0     C22638   3.646   5.662   3.430 -0.2271  0.1214 -0.4557
  930MOL0     C22639   3.528   5.626   3.519  0.3376 -0.0959 -0.0152
  930MOL0     C22640   3.430   5.738   3.536  0.7872 -0.6162 -0.6076
  930MOL0     C22641   3.318   5.718   3.640 -0.6547 -0.4370 -0.4031
  930MOL0     C22642   3.216   5.610   3.586  0.3303  0.2143  0.2147
  930MOL0     C22643   3.109   5.587   3.694  0.3451 -0.5862  0.3613
  930MOL0     C22644   3.157   5.488   3.802 -0.9246  0.0050 -0.1681
  930MOL0     N22645   3.072   5.480   3.926  0.2665  0.4948  0.8218
  930MOL0     C22646   3.014   5.369   3.982  0.6307  0.0081  0.0734
  930MOL0     C22647   2.944   5.417   4.085 -0.4067 -0.6700 -0.7277
  930MOL0     C22648   2.850   5.329   4.161 -0.2901 -0.3861  0.3839
  930MOL0     C22649   2.719   5.295   4.085  0.2617 -0.0766 -0.5651
  930MOL0     C22650   2.654   5.183   4.163 -0.3812  0.0996 -0.7450
  930MOL0     C22651   2.543   5.107   4.086 -0.1154 -0.2835 -0.5274
  930MOL0     O22652   2.440   5.204   4.079 -0.1033  0.7523  0.5115
  930MOL0     C22653   2.310   5.176   4.055  0.0234 -0.3420 -0.9242
  930MOL0     C22654   2.259   5.046   4.027  0.9810 -0.5850  0.0083
  930MOL0     C22655   2.123   5.026   4.009  0.0263 -0.8610  0.2395
  930MOL0     C22656   2.037   5.138   4.023  0.5301  0.8478  0.1465
  930MOL0     C22657   1.887   5.102   4.006  0.7555 -0.2168 -0.4599
  930MOL0     O22658   1.848   4.968   4.003  0.1849  1.0368  0.5827
  930MOL0     C22659   1.718   4.932   4.029  0.1089 -0.0429  0.5949
  930MOL0     C22660   1.603   4.990   3.975  0.1506 -0.4395  0.1344
  930MOL0     C22661   1.482   4.929   4.007  0.8172  0.0820  0.7638
  930MOL0     C22662   1.480   4.818   4.088  0.0729  0.0220 -0.6626
  930MOL0     O22663   1.361   4.771   4.140  0.2885 -0.3020 -0.0809
  930MOL0     C22664   1.267   4.700   4.053  0.1690  0.1794 -0.1747
  930MOL0     C22665   1.334   4.612   3.955  0.4668 -0.4025  0.2029
  930MOL0     C22666   1.248   4.494   3.907 -0.1114 -0.2490 -0.5221
  930MOL0     C22667   1.295   4.429   3.784 -0.4883  0.1422 -0.5666
  930MOL0     C22668   1.189   4.327   3.730  0.0254 -0.6198 -0.4256
  930MOL0     C22669   1.241   4.243   3.620 -0.5924  0.3458 -0.1176
  930MOL0     C22670   1.256   4.332   3.501 -0.2214  0.1930  0.3571
  930MOL0     C22671   1.291   4.242   3.372 -0.7089 -0.3303  0.5823
  930MOL0    Cl22672   1.140   4.158   3.316  0.0169  0.2056 -0.0390
  930MOL0     C22673   1.596   4.761   4.133  0.0865  0.4363 -0.3011
  930MOL0     C22674   1.712   4.808   4.101 -0.1035 -0.2364  0.2861
  930MOL0     O22675   1.806   5.199   3.991  0.1113  0.1826  0.2324
  930MOL0     C22676   2.081   5.269   4.036 -0.4315  0.2819 -0.6350
  930MOL0     C22677   2.218   5.286   4.061 -0.3478  0.1116 -0.1790
  930MOL0     N22678   2.965   5.555   4.098 -0.6782 -0.0947  0.2873
  930MOL0     N22679   3.049   5.588   4.003 -0.2497 -0.3736  0.7498
  930MOL0     C22680   3.929   5.380   3.307 -0.0332  0.2583  0.0487
  930MOL0     C22681   4.037   5.290   3.305 -0.3296 -0.4062 -0.3639
  930MOL0     C22682   4.382   5.111   3.493  0.1802 -0.4223 -0.8043
  930MOL0     C22683   4.387   4.973   3.487 -0.2147  0.1554 -0.6788
  930MOL0     C22684   4.510   4.894   3.506 -0.1961  0.3336 -0.2494
  930MOL0     C22685   4.632   4.952   3.522  0.6053  0.3113 -1.7999
  930MOL0     O22686   4.755   4.893   3.543  0.8362  0.2440  0.4976
  930MOL0     C22687   4.766   4.748   3.538 -0.3003  0.0793  0.5453
  930MOL0     C22688   4.920   4.712   3.539 -0.6724 -0.5768  0.2265
  930MOL0     C22689   4.951   4.563   3.479  0.4669 -0.0973  0.0638
  930MOL0     C22690   5.092   4.550   3.419 -1.2786  0.4715 -0.8012
  930MOL0     C22691   5.190   4.524   3.528  0.5820 -0.4933  0.3910
  930MOL0     C22692   5.267   4.498   3.617 -0.4601  0.2094 -0.4967
  930MOL0     C22693   4.628   5.091   3.530  0.0867  0.1865  0.1070
  930MOL0     C22694   4.503   5.168   3.521 -0.3147  0.1806  0.7988
  930MOL0     H22695   3.919   5.046   3.511 -3.8829 -0.2230 -1.8811
  930MOL0     H22696   3.716   5.172   3.477 -0.3976  0.5533 -1.7010
  930MOL0     H22697   3.849   5.581   3.417  0.7824 -2.4722  2.4893
  930MOL0     H22698   3.763   5.519   3.545 -1.0265  1.8916  0.5892
  930MOL0     H22699   3.617   5.673   3.325  2.3097 -0.5802 -1.2946
  930MOL0     H22700   3.682   5.762   3.458  0.8252 -0.4449  0.2960
  930MOL0     H22701   3.566   5.595   3.617  1.3736 -0.8065 -0.6169
  930MOL0     H22702   3.472   5.541   3.478  1.8933 -0.6700 -1.0242
  930MOL0     H22703   3.481   5.830   3.565  3.9459 -2.1812 -0.7958
  930MOL0     H22704   3.390   5.771   3.440  1.1405 -0.8882 -0.8519
  930MOL0     H22705   3.270   5.815   3.656 -1.2039 -0.9078  0.9344
  930MOL0     H22706   3.356   5.683   3.737  0.3172  0.3625 -0.4842
  930MOL0     H22707   3.262   5.515   3.559 -1.5861 -0.2239 -1.8759
  930MOL0     H22708   3.174   5.653   3.494  1.7069  3.1853  0.8733
  930MOL0     H22709   3.102   5.686   3.739  5.0135  0.0684  0.1354
  930MOL0     H22710   3.013   5.557   3.651  1.0777  0.1575 -1.9701
  930MOL0     H22711   3.255   5.512   3.844 -1.4639  3.1149 -0.4546
  930MOL0     H22712   3.165   5.385   3.765 -0.5658 -0.5393  1.3414
  930MOL0     H22713   3.008   5.266   3.951 -2.4109  1.0377 -3.6033
  930MOL0     H22714   2.817   5.381   4.252 -2.1902 -1.9694  0.6580
  930MOL0     H22715   2.892   5.234   4.194 -2.1370 -0.8398  1.5907
  930MOL0     H22716   2.734   5.267   3.980 -0.8753  0.0226 -0.7670
  930MOL0     H22717   2.644   5.373   4.069  1.7315  1.3200 -0.9439
  930MOL0     H22718   2.731   5.109   4.187 -3.1061 -3.2367 -1.5154
  930MOL0     H22719   2.605   5.217   4.255 -0.6050  1.9367 -1.4934
  930MOL0     H22720   2.504   5.019   4.139 -4.5981  2.8438  2.0850
  930MOL0     H22721   2.569   5.079   3.984 -1.0845 -4.2667  0.1368
  930MOL0     H22722   2.331   4.966   4.038  1.6378  0.1079  0.9092
  930MOL0     H22723   2.083   4.926   3.996 -2.4641  0.0402  0.4009
  930MOL0     H22724   1.614   5.076   3.910  2.9784  0.1789  1.2910
  930MOL0     H22725   1.388   4.967   3.966 -0.8936 -1.5391  2.9117
  930MOL0     H22726   1.201   4.769   3.998  0.1979 -0.7155 -1.3761
  930MOL0     H22727   1.199   4.641   4.115  1.3143 -0.3179  0.6346
  930MOL0     H22728   1.420   4.576   4.011  0.8439  2.1874  1.4427
  930MOL0     H22729   1.377   4.665   3.870 -1.0090 -1.1105 -1.0354
  930MOL0     H22730   1.145   4.528   3.903 -0.6495 -1.7868 -0.5343
  930MOL0     H22731   1.256   4.422   3.989 -1.2826 -0.4308 -0.5609
  930MOL0     H22732   1.299   4.505   3.706  2.8800 -0.9380 -1.6585
  930MOL0     H22733   1.394   4.387   3.806 -0.1390  1.0035 -0.4498
  930MOL0     H22734   1.098   4.382   3.704  1.8867  3.3177  0.6174
  930MOL0     H22735   1.157   4.263   3.813 -1.7488  1.5631  0.6799
  930MOL0     H22736   1.169   4.163   3.603 -0.1942 -0.7887  2.9100
  930MOL0     H22737   1.339   4.201   3.644 -0.7191  0.5923  0.8903
  930MOL0     H22738   1.166   4.391   3.479  0.3551  0.1981 -2.4058
  930MOL0     H22739   1.341   4.400   3.512  1.4503 -1.3641 -1.9928
  930MOL0     H22740   1.374   4.175   3.397  1.5298  1.6510 -1.0992
  930MOL0     H22741   1.319   4.303   3.286  0.6790 -0.1866  1.1045
  930MOL0     H22742   1.614   4.673   4.194  1.5542  0.5415 -0.5490
  930MOL0     H22743   1.803   4.751   4.113 -0.9141 -1.5625  0.2658
  930MOL0     H22744   2.005   5.346   4.034 -1.3569 -0.5653  0.4638
  930MOL0     H22745   2.253   5.388   4.079  0.0119 -0.3132  1.7285
  930MOL0     H22746   3.944   5.468   3.244  1.8755 -2.0118 -2.9541
  930MOL0     H22747   4.123   5.323   3.247 -0.0549  1.0682  0.7895
  930MOL0     H22748   4.302   4.918   3.449 -0.4428  0.9835 -1.3855
  930MOL0     H22749   4.501   4.786   3.504 -0.9414  0.2748  2.7531
  930MOL0     H22750   4.727   4.718   3.440 -2.0681  4.2485 -0.2410
  930MOL0     H22751   4.718   4.705   3.627 -3.1426  0.0575 -0.8765
  930MOL0     H22752   4.961   4.785   3.469  0.4325 -1.5804 -0.2035
  930MOL0     H22753   4.971   4.733   3.633  1.4001  1.9911 -1.3253
  930MOL0     H22754   4.878   4.555   3.397  1.8997  3.0818 -1.7137
  930MOL0     H22755   4.933   4.486   3.555 -0.2586 -1.4600 -1.4330
  930MOL0     H22756   5.097   4.469   3.345  0.2185  0.6328 -0.9079
  930MOL0     H22757   5.118   4.639   3.362  2.5186 -0.6132 -1.0228
  930MOL0     H22758   5.332   4.476   3.699 -1.8354  0.1701  0.6294
  930MOL0     H22759   4.721   5.145   3.544  0.9638 -0.9614 -1.0507
  930MOL0     H22760   4.500   5.275   3.541  2.2106  0.0107  2.6174
  931MOL0     O22761   3.906  10.008   8.124  0.5243  0.1444 -0.2137
  931MOL0     C22762   3.942   9.972   8.013 -0.3123 -0.0404  0.4452
  931MOL0     O22763   3.858   9.915   7.911 -0.1777 -0.2673  0.6686
  931MOL0     C22764   3.736   9.896   7.952 -0.0182  0.6913 -1.2179
  931MOL0     C22765   3.629   9.980   7.931 -0.4733  0.3272 -0.2428
  931MOL0     C22766   3.506   9.947   8.002 -0.7117  0.3022  0.8462
  931MOL0     C22767   3.493   9.835   8.090 -0.3452 -0.3015  0.5403
  931MOL0     O22768   3.385   9.792   8.168  0.0565 -0.5702  0.5639
  931MOL0     C22769   3.262   9.860   8.163  0.5794 -0.0593 -0.6630
  931MOL0     C22770   3.170   9.800   8.055 -0.4807  0.8215 -0.0686
  931MOL0     C22771   3.106   9.673   8.112 -0.4417  0.4645 -0.4465
  931MOL0     C22772   3.004   9.621   8.016 -0.1683  0.7136  0.0477
  931MOL0     C22773   2.914   9.501   8.072  0.2105 -0.4246 -0.3202
  931MOL0     C22774   2.808   9.527   8.184 -0.5367 -0.2615  0.0546
  931MOL0     C22775   2.688   9.617   8.145 -0.2618  0.7386  0.7561
  931MOL0     C22776   2.631   9.585   8.003 -0.1082 -0.6094  0.5842
  931MOL0     N22777   2.512   9.506   8.025 -0.0595  0.5310  0.3289
  931MOL0     C22778   2.386   9.558   8.051  0.2786  0.9663  1.0868
  931MOL0     C22779   2.308   9.444   8.056 -0.8100  0.0754 -0.3175
  931MOL0     C22780   2.167   9.421   8.085  0.1940 -0.2965 -0.0683
  931MOL0     C22781   2.090   9.404   7.953  1.6031 -0.6171 -1.2568
  931MOL0     C22782   1.942   9.400   7.973 -0.0709  0.2164  0.0341
  931MOL0     C22783   1.874   9.373   7.849 -0.5256  1.0404 -0.1660
  931MOL0     O22784   1.735   9.401   7.852 -0.4098 -0.2243  0.2339
  931MOL0     C22785   1.666   9.340   7.740  0.1350  0.1473 -0.0651
  931MOL0     C22786   1.521   9.350   7.736 -0.4299  0.7666  0.0831
  931MOL0     C22787   1.446   9.299   7.625 -0.6326  0.1120  1.3819
  931MOL0     C22788   1.520   9.230   7.524  0.7086 -0.1590  0.1283
  931MOL0     C22789   1.451   9.170   7.409  0.3009 -0.0730  0.0441
  931MOL0     O22790   1.318   9.196   7.382  0.2499  0.5805 -0.6682
  931MOL0     C22791   1.246   9.101   7.314  0.7909 -0.7278  0.3928
  931MOL0     C22792   1.263   8.965   7.309 -0.1076  0.2161  0.0488
  931MOL0     C22793   1.180   8.875   7.244 -1.0388  0.5000  0.0613
  931MOL0     C22794   1.066   8.924   7.180  0.2081 -0.0232 -0.2218
  931MOL0     O22795   0.977   8.830   7.137  0.9336  0.2237  1.0237
  931MOL0     C22796   0.841   8.868   7.106 -0.5061  0.7273  0.1987
  931MOL0     C22797   0.759   8.749   7.132  0.2804  0.1841 -0.9297
  931MOL0     C22798   0.625   8.761   7.062  0.5379  0.7138  0.2625
  931MOL0     C22799   0.534   8.647   7.091 -0.6525 -0.2796  0.6138
  931MOL0     C22800   0.397   8.655   7.021 -0.2488 -0.5669 -0.2503
  931MOL0     C22801   0.325   8.527   7.049 -0.4008  0.4350 -0.5054
  931MOL0     C22802   0.180   8.536   7.008  0.2694  0.0436 -0.5716
  931MOL0     C22803   0.107   8.419   7.069 -0.1761  0.4911  0.0925
  931MOL0    Cl22804  -0.071   8.439   7.032 -0.1656 -0.3922  0.2667
  931MOL0     C22805   1.043   9.063   7.181  0.3779 -0.2859 -0.2294
  931MOL0     C22806   1.130   9.151   7.247 -0.2449  0.2186 -1.2658
  931MOL0     O22807   1.526   9.098   7.338  0.3275 -0.5000  0.1673
  931MOL0     C22808   1.661   9.229   7.521  0.2868 -0.1984  0.4308
  931MOL0     C22809   1.730   9.281   7.628  0.0150 -0.5453  0.6424
  931MOL0     N22810   2.391   9.331   8.043  0.6092 -0.4391 -0.2103
  931MOL0     N22811   2.512   9.375   8.020  0.0184  0.9424  0.0969
  931MOL0     C22812   3.599   9.746   8.091 -0.9172 -0.3039  0.6330
  931MOL0     C22813   3.718   9.775   8.025  0.0207  0.3517 -0.1393
  931MOL0     C22814   4.091   9.989   7.990  0.0608  0.8611 -0.4417
  931MOL0     C22815   4.158   9.984   7.866  0.5405  0.0590 -0.2702
  931MOL0     C22816   4.292   9.963   7.851 -0.1286 -0.3208 -0.4941
  931MOL0     C22817   4.372   9.943   7.967  0.5445  0.3757 -0.4034
  931MOL0     O22818   4.508   9.919   7.969  0.4789 -0.0099 -0.0819
  931MOL0     C22819   4.590   9.950   7.860  0.2341 -0.4076 -0.0839
  931MOL0     C22820   4.595  10.111   7.841 -0.0369  0.1844  0.6888
  931MOL0     C22821   4.734  10.155   7.801 -0.0143  0.6564  1.0682
  931MOL0     C22822   4.770  10.092   7.667  0.3995  0.1101 -0.2194
  931MOL0     C22823   4.883  10.159   7.595 -0.0800 -0.1868 -0.0214
  931MOL0     C22824   4.986  10.225   7.557 -0.2610  0.3180 -0.8744
  931MOL0     C22825   4.314   9.943   8.088  0.3966  0.0911 -0.0626
  931MOL0     C22826   4.177   9.973   8.106  0.9809  1.3091  0.2742
  931MOL0     H22827   3.638  10.065   7.865  0.1208 -0.4983 -1.2494
  931MOL0     H22828   3.420  10.013   7.991 -3.2412 -2.7957  0.3631
  931MOL0     H22829   3.285   9.964   8.136  2.2830 -0.5540 -1.2035
  931MOL0     H22830   3.202   9.862   8.254 -2.6595  1.2049 -2.6151
  931MOL0     H22831   3.224   9.772   7.964 -2.6648 -3.6713 -0.2634
  931MOL0     H22832   3.097   9.878   8.035  0.3039  0.8999 -3.0432
  931MOL0     H22833   3.065   9.678   8.213  2.3273 -3.3311  1.0976
  931MOL0     H22834   3.189   9.602   8.113 -1.2260 -0.6282 -3.4380
  931MOL0     H22835   2.925   9.694   7.996 -1.8126 -0.8467  0.6122
  931MOL0     H22836   3.049   9.604   7.918 -1.1687  1.0242 -0.4849
  931MOL0     H22837   2.981   9.421   8.104  1.7975  1.4844  1.4372
  931MOL0     H22838   2.862   9.453   7.989  0.5099 -1.5861  0.1313
  931MOL0     H22839   2.856   9.549   8.280  0.7176 -0.7904 -0.4277
  931MOL0     H22840   2.762   9.429   8.200 -1.9223  0.0170 -1.8339
  931MOL0     H22841   2.610   9.609   8.221 -0.0763 -0.2474  0.8572
  931MOL0     H22842   2.712   9.723   8.157 -0.4602  0.6933  1.6304
  931MOL0     H22843   2.695   9.538   7.927 -5.3569 -4.2538 -2.1977
  931MOL0     H22844   2.584   9.674   7.960  2.2230  1.2289  1.6232
  931MOL0     H22845   2.349   9.658   8.069  0.7204  1.4328 -0.4342
  931MOL0     H22846   2.121   9.513   8.122 -1.9328 -0.2503 -2.4952
  931MOL0     H22847   2.155   9.332   8.147 -0.6290 -0.2494 -0.1409
  931MOL0     H22848   2.117   9.311   7.903 -1.4230 -2.5304  0.3423
  931MOL0     H22849   2.107   9.484   7.881  1.8284  0.3474 -0.1694
  931MOL0     H22850   1.911   9.328   8.049  4.2039 -2.3224 -0.3157
  931MOL0     H22851   1.910   9.498   8.011 -2.7036 -0.3159 -0.5692
  931MOL0     H22852   1.880   9.265   7.834 -0.8364  1.1502 -1.1067
  931MOL0     H22853   1.917   9.431   7.767 -0.2049 -0.7040 -1.2704
  931MOL0     H22854   1.474   9.412   7.811 -2.6096  0.8736 -1.2861
  931MOL0     H22855   1.338   9.311   7.619 -0.5280  0.4290 -0.3110
  931MOL0     H22856   1.343   8.927   7.372 -1.4103  0.7567  2.1161
  931MOL0     H22857   1.209   8.771   7.233  1.2322  1.1104 -0.1490
  931MOL0     H22858   0.835   8.890   6.999  1.4326  0.0909 -0.0914
  931MOL0     H22859   0.807   8.955   7.163 -0.5042 -0.0001  1.3295
  931MOL0     H22860   0.741   8.738   7.239 -0.6530 -1.1879 -1.1981
  931MOL0     H22861   0.815   8.663   7.093  0.2111 -0.6710  0.7596
  931MOL0     H22862   0.634   8.773   6.953  0.0757  1.2358  0.2772
  931MOL0     H22863   0.574   8.849   7.102 -0.0368  1.2482 -1.5259
  931MOL0     H22864   0.580   8.548   7.080  1.8372  0.3507  3.7934
  931MOL0     H22865   0.516   8.651   7.199  2.1096 -0.0995  1.1522
  931MOL0     H22866   0.403   8.664   6.912  0.9280 -3.5924 -0.5381
  931MOL0     H22867   0.336   8.738   7.059  1.7503  1.5065 -1.3663
  931MOL0     H22868   0.328   8.495   7.154 -1.9512 -2.1973 -1.1839
  931MOL0     H22869   0.377   8.446   6.997 -1.4569  1.2969 -3.0379
  931MOL0     H22870   0.138   8.632   7.042  1.6171 -0.4108  2.7792
  931MOL0     H22871   0.163   8.513   6.903  0.7964 -1.0588 -0.4204
  931MOL0     H22872   0.123   8.414   7.177 -0.9633  0.6054  0.2175
  931MOL0     H22873   0.140   8.330   7.014 -1.6455 -1.0879  1.6337
  931MOL0     H22874   0.957   9.097   7.124  1.4322  0.3529 -1.4903
  931MOL0     H22875   1.098   9.255   7.253 -2.7510 -0.5339  4.3399
  931MOL0     H22876   1.720   9.183   7.443  0.7103  0.1280  0.5536
  931MOL0     H22877   1.838   9.273   7.624  0.1000  0.5856 -2.1534
  931MOL0     H22878   3.576   9.652   8.141  0.2926 -1.1950 -0.4338
  931MOL0     H22879   3.798   9.702   8.035  0.1720  0.0672 -2.7442
  931MOL0     H22880   4.103   9.990   7.773  0.8959 -0.1575 -0.4971
  931MOL0     H22881   4.338   9.943   7.755  1.1299 -1.1882  0.2504
  931MOL0     H22882   4.555   9.899   7.770  0.5793 -1.3154  0.2838
  931MOL0     H22883   4.687   9.909   7.890 -0.3118 -0.4713  1.6987
  931MOL0     H22884   4.516  10.142   7.771  0.8094  1.7101  0.3698
  931MOL0     H22885   4.554  10.166   7.926 -1.7999 -2.2379  1.5363
  931MOL0     H22886   4.807  10.119   7.873 -0.5668  0.3218  1.4746
  931MOL0     H22887   4.725  10.264   7.797  1.0868  0.7795  1.6483
  931MOL0     H22888   4.803   9.989   7.676  3.9690  1.2792  4.0641
  931MOL0     H22889   4.675  10.092   7.612  0.8750 -0.4050 -1.0645
  931MOL0     H22890   5.079  10.249   7.509 -0.5405  1.1565 -1.0177
  931MOL0     H22891   4.377   9.913   8.172 -0.7166 -0.3951  0.6199
  931MOL0     H22892   4.134   9.970   8.205 -0.4536 -0.2807 -0.3508
  932MOL0     O22893   2.469   8.651   1.089  0.2955 -0.0676 -0.1602
  932MOL0     C22894   2.454   8.527   1.107 -0.7421  0.2558 -0.8616
  932MOL0     O22895   2.347   8.457   1.087  0.3308  0.6062  0.1844
  932MOL0     C22896   2.233   8.516   1.041  0.3690 -0.7321  0.4158
  932MOL0     C22897   2.119   8.514   1.124 -0.6343 -0.4372 -0.1010
  932MOL0     C22898   2.005   8.567   1.081  0.4435 -0.2613 -0.6945
  932MOL0     C22899   1.988   8.617   0.950 -0.0246 -0.3429  0.5012
  932MOL0     O22900   1.868   8.681   0.912 -0.3285  0.0593  0.2922
  932MOL0     C22901   1.823   8.688   0.774 -0.6833  0.4320 -0.2934
  932MOL0     C22902   1.764   8.553   0.727 -0.2943 -0.0625 -0.3615
  932MOL0     C22903   1.696   8.582   0.591  0.0042 -0.9174 -0.3787
  932MOL0     C22904   1.668   8.458   0.516  0.2556 -0.0441  0.2155
  932MOL0     C22905   1.614   8.474   0.378  0.3678  0.5489  0.3661
  932MOL0     C22906   1.497   8.579   0.358 -0.0151  0.8633  0.6880
  932MOL0     C22907   1.441   8.584   0.215 -0.2024  0.2770  0.0785
  932MOL0     C22908   1.316   8.664   0.211  0.0845 -0.4269  0.7706
  932MOL0     N22909   1.206   8.599   0.275  0.1658 -0.6391  0.5554
  932MOL0     C22910   1.089   8.668   0.309  0.1951  0.4295 -0.5913
  932MOL0     C22911   1.004   8.570   0.362 -0.1748 -0.5615  0.4492
  932MOL0     C22912   0.863   8.595   0.409  0.5320  0.3591  0.3165
  932MOL0     C22913   0.839   8.741   0.449 -0.2001  0.2755 -0.4448
  932MOL0     C22914   0.691   8.784   0.480 -0.2557 -0.3318  1.2261
  932MOL0     C22915   0.623   8.680   0.572 -0.5247  0.0325  0.4954
  932MOL0     O22916   0.521   8.747   0.636  0.2059 -0.7428 -0.3903
  932MOL0     C22917   0.425   8.658   0.680  0.0828 -0.4193  0.0344
  932MOL0     C22918   0.425   8.627   0.818  0.6012  0.2082 -0.9856
  932MOL0     C22919   0.326   8.538   0.871 -0.4908 -0.4342  0.7173
  932MOL0     C22920   0.227   8.477   0.793  0.6726 -0.9624  0.0629
  932MOL0     C22921   0.131   8.383   0.869 -0.3169  0.4586  0.0604
  932MOL0     O22922   0.136   8.375   1.004 -0.3660  0.7193 -0.0681
  932MOL0     C22923   0.238   8.297   1.062  0.8933 -0.4193 -0.2979
  932MOL0     C22924   0.315   8.205   0.999 -0.1484 -0.3768  0.3574
  932MOL0     C22925   0.413   8.133   1.064  0.0294 -0.1436 -0.5024
  932MOL0     C22926   0.436   8.154   1.198  0.3573 -0.4206  0.2498
  932MOL0     O22927   0.531   8.077   1.255 -0.7186  0.6735 -0.1459
  932MOL0     C22928   0.608   8.140   1.355  0.1898  0.7884 -0.2670
  932MOL0     C22929   0.739   8.066   1.367 -0.0517  0.7217  0.3818
  932MOL0     C22930   0.731   7.919   1.416 -0.5533  0.2284 -0.2299
  932MOL0     C22931   0.681   7.904   1.563 -0.7328 -0.4013 -0.4322
  932MOL0     C22932   0.768   7.994   1.664  0.1762 -0.2788  0.5978
  932MOL0     C22933   0.919   7.954   1.672 -0.3744 -0.6516 -0.0773
  932MOL0     C22934   0.992   8.033   1.789 -0.1069 -0.1837 -0.5734
  932MOL0     C22935   1.027   7.952   1.910 -0.0964  0.4031 -0.5994
  932MOL0    Cl22936   1.067   8.045   2.050  0.0356 -0.0788 -0.1434
  932MOL0     C22937   0.357   8.243   1.273 -0.2151 -0.7409 -0.8554
  932MOL0     C22938   0.260   8.315   1.206  1.3916 -0.1601  0.5151
  932MOL0     O22939   0.054   8.320   0.799 -0.3095 -0.0490 -0.3726
  932MOL0     C22940   0.235   8.497   0.653  0.1904  0.2147  0.1567
  932MOL0     C22941   0.336   8.585   0.604 -0.0928 -0.3879  0.7569
  932MOL0     N22942   1.079   8.460   0.374 -0.3536  0.7857 -0.2405
  932MOL0     N22943   1.196   8.472   0.313 -0.1714  0.8489  0.6073
  932MOL0     C22944   2.094   8.608   0.862 -0.0951  0.9802  0.4002
  932MOL0     C22945   2.216   8.561   0.911  0.2346 -0.3908 -1.3344
  932MOL0     C22946   2.570   8.454   1.166  0.6112 -0.1377  0.8931
  932MOL0     C22947   2.704   8.506   1.151 -0.0656  0.2218  1.1760
  932MOL0     C22948   2.815   8.437   1.196  0.6026 -0.1287  0.5474
  932MOL0     C22949   2.797   8.312   1.254 -0.2014 -0.3639 -0.7987
  932MOL0     O22950   2.892   8.221   1.281  0.6656 -0.1935 -0.0148
  932MOL0     C22951   3.034   8.258   1.267  0.6160  0.0600 -0.3423
  932MOL0     C22952   3.120   8.141   1.319 -0.2833 -0.0658 -0.6331
  932MOL0     C22953   3.079   8.003   1.261 -0.2990 -0.5040  0.0989
  932MOL0     C22954   3.168   7.891   1.314  0.2409  0.3112 -1.0556
  932MOL0     C22955   3.308   7.896   1.286 -0.3663  0.2191  0.2447
  932MOL0     C22956   3.427   7.886   1.283  0.7587  0.1312  0.2559
  932MOL0     C22957   2.666   8.269   1.283  1.0584 -0.1819 -0.0712
  932MOL0     C22958   2.548   8.337   1.245 -0.3622 -0.4662  0.3975
  932MOL0     H22959   2.116   8.473   1.225  1.1204  0.6309  0.4408
  932MOL0     H22960   1.918   8.563   1.145  2.9903 -1.1851  3.0058
  932MOL0     H22961   1.899   8.715   0.700  0.2083 -3.7547 -1.1644
  932MOL0     H22962   1.737   8.755   0.772 -1.2216 -0.2528 -1.0147
  932MOL0     H22963   1.691   8.507   0.795  1.0761 -2.0264 -0.1294
  932MOL0     H22964   1.846   8.481   0.717  0.2207  0.6252 -1.2018
  932MOL0     H22965   1.763   8.652   0.540 -1.4751  0.3559 -0.6349
  932MOL0     H22966   1.606   8.643   0.596  1.5951  1.8880 -2.5655
  932MOL0     H22967   1.752   8.388   0.504 -0.7099 -1.4852  1.4264
  932MOL0     H22968   1.597   8.419   0.589  2.1096 -1.9023  1.1449
  932MOL0     H22969   1.597   8.377   0.331  0.0741  1.0779 -0.6619
  932MOL0     H22970   1.696   8.515   0.317  0.5460  2.0955  1.5760
  932MOL0     H22971   1.531   8.678   0.390  4.2016  0.2800 -1.2960
  932MOL0     H22972   1.420   8.552   0.431 -0.4083  1.9017  0.6803
  932MOL0     H22973   1.514   8.636   0.152  1.1577 -0.7828  0.7183
  932MOL0     H22974   1.433   8.481   0.180 -1.8841  0.4818 -0.2290
  932MOL0     H22975   1.289   8.671   0.105 -1.3907 -4.1239  0.7443
  932MOL0     H22976   1.331   8.758   0.265 -0.4217  0.3925 -0.4817
  932MOL0     H22977   1.063   8.771   0.288  0.4203  0.1439 -2.4506
  932MOL0     H22978   0.840   8.523   0.488  1.7912  1.2338  1.5406
  932MOL0     H22979   0.800   8.583   0.320  3.3257  2.0665 -2.0661
  932MOL0     H22980   0.881   8.812   0.378  0.2050  0.8870  0.3939
  932MOL0     H22981   0.892   8.769   0.541  0.5874 -0.8069 -0.5542
  932MOL0     H22982   0.694   8.883   0.527 -0.9384  1.4364 -2.1582
  932MOL0     H22983   0.627   8.805   0.394  1.4072 -0.3285 -0.0722
  932MOL0     H22984   0.687   8.633   0.647 -0.9659  0.6274  1.2543
  932MOL0     H22985   0.579   8.595   0.519  0.5954  0.8735 -1.9608
  932MOL0     H22986   0.493   8.660   0.895 -2.2689  1.9952  0.9996
  932MOL0     H22987   0.320   8.525   0.979 -2.0092 -1.2402  0.5591
  932MOL0     H22988   0.312   8.192   0.891  2.0072 -0.5726  0.2826
  932MOL0     H22989   0.481   8.080   0.998 -1.0459  1.5470 -3.1270
  932MOL0     H22990   0.561   8.137   1.454  0.2984 -1.0088 -0.2353
  932MOL0     H22991   0.633   8.243   1.328  2.6080  0.2486 -0.3316
  932MOL0     H22992   0.811   8.120   1.430  3.7413 -1.8884 -1.3583
  932MOL0     H22993   0.773   8.051   1.264  2.2684  1.7039  0.9472
  932MOL0     H22994   0.828   7.869   1.412  0.5817  2.0718  1.6704
  932MOL0     H22995   0.658   7.875   1.348 -0.0156  0.1510 -0.7663
  932MOL0     H22996   0.573   7.920   1.567 -0.6475 -0.0316  1.8829
  932MOL0     H22997   0.698   7.800   1.594  0.9650  0.7046  2.8276
  932MOL0     H22998   0.728   7.989   1.766 -0.0265  0.2278  0.5488
  932MOL0     H22999   0.762   8.100   1.636 -0.6391 -0.5818 -0.4700
  932MOL0     H23000   0.967   7.982   1.577  0.1548 -0.9124  0.1105
  932MOL0     H23001   0.925   7.845   1.681  1.0560 -0.6021 -0.2289
  932MOL0     H23002   1.088   8.056   1.743  0.1839  1.6026  0.8107
  932MOL0     H23003   0.929   8.122   1.803  1.0568  0.5397  0.1973
  932MOL0     H23004   1.113   7.887   1.897 -0.0090  0.0520  1.3328
  932MOL0     H23005   0.946   7.881   1.933 -1.1444  1.4195 -1.0858
  932MOL0     H23006   0.371   8.262   1.379 -0.9883  0.5459 -0.9592
  932MOL0     H23007   0.206   8.392   1.261 -0.4493 -1.6631  0.9236
  932MOL0     H23008   0.162   8.445   0.592 -1.0359  1.7943  0.2199
  932MOL0     H23009   0.323   8.597   0.497 -4.1873 -0.4154  1.0988
  932MOL0     H23010   2.103   8.649   0.762 -0.5547 -2.1262 -1.0583
  932MOL0     H23011   2.303   8.571   0.847  0.1787 -0.0192 -1.3597
  932MOL0     H23012   2.720   8.596   1.092 -1.2476 -0.2085  0.1628
  932MOL0     H23013   2.915   8.474   1.176  0.6445 -1.1187 -1.3097
  932MOL0     H23014   3.048   8.354   1.317 -0.7585 -0.3271  0.8452
  932MOL0     H23015   3.065   8.273   1.163 -2.4707 -1.6265 -1.6334
  932MOL0     H23016   3.219   8.167   1.279  1.4824 -2.6877  1.6447
  932MOL0     H23017   3.134   8.133   1.427 -0.0720  0.2335 -0.6345
  932MOL0     H23018   3.079   7.990   1.153  1.9240  1.6196 -0.2417
  932MOL0     H23019   2.974   7.991   1.287 -1.0953  2.0588 -1.5781
  932MOL0     H23020   3.163   7.880   1.423  1.3642  3.3690 -0.6228
  932MOL0     H23021   3.125   7.799   1.273 -0.0133 -0.1722  0.2374
  932MOL0     H23022   3.534   7.881   1.278  0.6473 -1.6233 -2.0338
  932MOL0     H23023   2.646   8.178   1.338 -1.5320  0.2803 -0.1015
  932MOL0     H23024   2.443   8.308   1.251 -0.9139  0.3189 -2.9867
  933MOL0     O23025   1.378   0.370   7.165 -0.1178 -0.1504 -0.8826
  933MOL0     C23026   1.449   0.351   7.273 -0.1975 -0.1981 -0.0403
  933MOL0     O23027   1.406   0.285   7.389  0.0225  0.4102  0.6116
  933MOL0     C23028   1.282   0.235   7.406  0.3092 -0.4989 -0.1039
  933MOL0     C23029   1.181   0.204   7.306 -0.3051 -0.0421 -0.7006
  933MOL0     C23030   1.060   0.158   7.340 -0.0202  0.3205 -0.7640
  933MOL0     C23031   1.027   0.132   7.473  0.0433  0.5303 -0.8721
  933MOL0     O23032   0.898   0.089   7.499 -0.1105 -0.7467 -1.0837
  933MOL0     C23033   0.903  -0.027   7.578 -0.0504  0.5762 -0.7623
  933MOL0     C23034   0.761  -0.093   7.584 -0.9409  0.3661  0.1282
  933MOL0     C23035   0.652   0.011   7.590  0.2297  0.7706  0.3090
  933MOL0     C23036   0.522  -0.063   7.594  0.1388  0.9391 -0.1125
  933MOL0     C23037   0.406   0.037   7.599  0.7711 -0.5531 -0.3575
  933MOL0     C23038   0.424   0.159   7.496 -0.1975 -0.0031 -0.6079
  933MOL0     C23039   0.294   0.244   7.473 -0.5021  0.6017  0.0632
  933MOL0     C23040   0.262   0.339   7.594  0.2980 -0.2968 -0.5711
  933MOL0     N23041   0.138   0.415   7.561 -0.9534 -0.5114 -0.1762
  933MOL0     C23042   0.122   0.483   7.441  0.6901  0.6466  0.8244
  933MOL0     C23043  -0.013   0.499   7.433  0.3123 -0.4271  0.1859
  933MOL0     C23044  -0.084   0.583   7.331 -0.1972  0.0807  0.1800
  933MOL0     C23045  -0.142   0.708   7.392  0.6453  0.4302 -0.3663
  933MOL0     C23046  -0.246   0.762   7.292  0.2116 -0.5810 -0.4067
  933MOL0     C23047  -0.256   0.915   7.316 -0.3017  0.3102 -0.2890
  933MOL0     O23048  -0.342   0.994   7.226  0.0821  0.4468 -0.4124
  933MOL0     C23049  -0.469   0.938   7.216 -0.8150 -0.4693 -0.2450
  933MOL0     C23050  -0.540   0.897   7.325 -1.6446 -0.8505  0.3507
  933MOL0     C23051  -0.675   0.878   7.298  0.7759 -1.0803  0.2062
  933MOL0     C23052  -0.742   0.889   7.171 -1.4745  0.2497  0.0865
  933MOL0     C23053  -0.886   0.856   7.153  0.4232  0.3136  0.3822
  933MOL0     O23054  -0.955   0.806   7.264  0.0247 -0.4788 -0.4867
  933MOL0     C23055  -1.090   0.779   7.248  0.0030 -0.7536  0.0194
  933MOL0     C23056  -1.190   0.844   7.318  0.1015 -0.0745 -0.1718
  933MOL0     C23057  -1.323   0.797   7.316 -0.1338 -0.7467 -0.6005
  933MOL0     C23058  -1.358   0.686   7.238 -0.2106  0.5388  1.0256
  933MOL0     O23059  -1.489   0.645   7.251 -0.0174 -0.7170 -0.7792
  933MOL0     C23060  -1.531   0.559   7.142  0.1183  0.5927 -0.4393
  933MOL0     C23061  -1.679   0.526   7.139  0.7533  0.3160 -0.6456
  933MOL0     C23062  -1.767   0.649   7.109 -0.6143  0.0433 -0.0217
  933MOL0     C23063  -1.762   0.691   6.962 -0.2088  0.4794 -0.2286
  933MOL0     C23064  -1.864   0.799   6.919  0.7761  0.9411 -0.2140
  933MOL0     C23065  -2.005   0.735   6.887 -0.2959 -0.4722 -0.6629
  933MOL0     C23066  -2.110   0.849   6.912 -0.4990 -0.2064 -0.5411
  933MOL0     C23067  -2.106   0.896   7.056 -0.4245  0.2582  0.0625
  933MOL0    Cl23068  -2.267   0.947   7.097 -0.2135  0.1059  0.0912
  933MOL0     C23069  -1.259   0.630   7.159 -1.1313  0.6613  0.6149
  933MOL0     C23070  -1.123   0.677   7.160 -0.1527  0.3795  0.5969
  933MOL0     O23071  -0.941   0.886   7.049  0.0298 -0.3739  0.7383
  933MOL0     C23072  -0.665   0.940   7.069  0.1597  0.1728  0.5854
  933MOL0     C23073  -0.533   0.966   7.092  0.7845  0.0363  0.8262
  933MOL0     N23074  -0.065   0.462   7.557  0.1519  0.0909  0.3175
  933MOL0     N23075   0.026   0.416   7.631 -0.9048  0.3622 -0.4043
  933MOL0     C23076   1.118   0.152   7.571 -0.8194 -0.0290 -0.5206
  933MOL0     C23077   1.244   0.199   7.537  0.1782 -0.7602  0.1761
  933MOL0     C23078   1.595   0.390   7.268  0.1401 -0.5632  0.0233
  933MOL0     C23079   1.659   0.432   7.150 -0.0732  0.1892 -0.3519
  933MOL0     C23080   1.791   0.469   7.161 -0.5645  0.7580  0.3922
  933MOL0     C23081   1.872   0.470   7.278  0.6506 -0.0841 -0.8438
  933MOL0     O23082   2.003   0.499   7.274 -0.4619 -0.2412 -0.0834
  933MOL0     C23083   2.095   0.438   7.361  0.3603  0.2544 -0.7731
  933MOL0     C23084   2.153   0.546   7.448 -0.7001 -0.0071  0.3963
  933MOL0     C23085   2.283   0.504   7.505 -0.0912 -0.5342  1.0574
  933MOL0     C23086   2.348   0.624   7.584 -0.3618 -0.5570  0.5701
  933MOL0     C23087   2.492   0.627   7.600 -1.1155  0.3382  0.1043
  933MOL0     C23088   2.609   0.634   7.627 -0.2097  0.4666  0.5033
  933MOL0     C23089   1.811   0.420   7.392 -0.4553 -0.4049 -0.2857
  933MOL0     C23090   1.675   0.376   7.385  0.0635 -0.2822  0.5579
  933MOL0     H23091   1.204   0.219   7.201 -1.7528 -1.1143 -1.2058
  933MOL0     H23092   1.004   0.113   7.259  0.0314 -2.1877  0.5129
  933MOL0     H23093   0.935  -0.011   7.682 -0.0783 -2.4712 -0.1679
  933MOL0     H23094   0.965  -0.105   7.532 -0.2488 -1.0661  1.5839
  933MOL0     H23095   0.762  -0.164   7.667 -0.2177 -1.3031 -1.2320
  933MOL0     H23096   0.748  -0.153   7.493  0.3180 -0.7453  0.6460
  933MOL0     H23097   0.650   0.068   7.497  0.2627 -0.1873 -0.2932
  933MOL0     H23098   0.670   0.077   7.675 -0.0837 -1.8611  2.5621
  933MOL0     H23099   0.507  -0.128   7.508  1.0112  1.3127 -0.5585
  933MOL0     H23100   0.525  -0.121   7.687  1.2580 -1.5307 -1.6135
  933MOL0     H23101   0.399   0.083   7.698  0.3439  4.5777 -2.4544
  933MOL0     H23102   0.315  -0.020   7.581  0.0053 -0.2560  2.1642
  933MOL0     H23103   0.465   0.122   7.402 -1.2486  0.2626 -1.1863
  933MOL0     H23104   0.502   0.227   7.532 -0.3118 -0.7046  1.0753
  933MOL0     H23105   0.308   0.304   7.383 -1.7068 -0.2301 -0.6939
  933MOL0     H23106   0.216   0.171   7.454  0.3260 -1.2588  3.0221
  933MOL0     H23107   0.342   0.408   7.622 -0.5023 -0.4590  2.4038
  933MOL0     H23108   0.241   0.283   7.686  0.5854  0.6100  0.0610
  933MOL0     H23109   0.197   0.514   7.370  0.3284 -1.9430 -0.8141
  933MOL0     H23110  -0.152   0.517   7.275  2.0014  0.2880 -3.0572
  933MOL0     H23111  -0.014   0.605   7.249 -1.6739  0.5268 -0.9996
  933MOL0     H23112  -0.060   0.778   7.410 -0.1031  1.6945 -1.6311
  933MOL0     H23113  -0.195   0.677   7.482  0.3822 -3.0557 -1.5401
  933MOL0     H23114  -0.220   0.747   7.187 -0.5500  0.7349 -0.8128
  933MOL0     H23115  -0.334   0.700   7.311  1.2611 -2.3229 -1.0171
  933MOL0     H23116  -0.162   0.963   7.290 -0.5968  1.7951  1.1824
  933MOL0     H23117  -0.271   0.936   7.423  1.7924  2.1067 -0.2910
  933MOL0     H23118  -0.509   0.888   7.428 -2.5465  0.0120  0.7146
  933MOL0     H23119  -0.738   0.846   7.380 -0.6876 -3.8937 -1.8532
  933MOL0     H23120  -1.173   0.933   7.378 -3.0532  1.8567 -1.8850
  933MOL0     H23121  -1.393   0.853   7.378  0.2328  0.6530 -1.4017
  933MOL0     H23122  -1.463   0.474   7.143  1.4381  1.6207  0.6252
  933MOL0     H23123  -1.502   0.616   7.054  2.6182  0.5296  0.2612
  933MOL0     H23124  -1.716   0.485   7.233  2.1077  0.7729  0.1042
  933MOL0     H23125  -1.696   0.459   7.055  0.6100  2.4643 -2.4418
  933MOL0     H23126  -1.742   0.732   7.176  3.2276 -2.2827  1.7631
  933MOL0     H23127  -1.871   0.628   7.133 -1.6124 -0.0865 -3.8114
  933MOL0     H23128  -1.663   0.735   6.950  1.0589 -2.2469 -0.3882
  933MOL0     H23129  -1.772   0.604   6.896 -2.6897  0.6079 -0.1323
  933MOL0     H23130  -1.824   0.847   6.829 -0.3872  4.7693  1.1117
  933MOL0     H23131  -1.858   0.875   6.996 -1.9090  0.8925  0.1684
  933MOL0     H23132  -2.029   0.653   6.955  0.5675  0.3016  0.6055
  933MOL0     H23133  -2.011   0.696   6.784 -0.9456  1.4110 -1.3846
  933MOL0     H23134  -2.085   0.932   6.846 -1.0133  0.1463 -0.2975
  933MOL0     H23135  -2.211   0.806   6.902 -0.2665 -0.8219 -0.2979
  933MOL0     H23136  -2.039   0.981   7.062  0.0555 -0.2012  1.4473
  933MOL0     H23137  -2.084   0.812   7.122 -4.7508 -2.6933 -1.7211
  933MOL0     H23138  -1.283   0.543   7.099  0.3753  2.5943 -3.0592
  933MOL0     H23139  -1.043   0.632   7.103  0.7981  0.8969  1.4916
  933MOL0     H23140  -0.704   0.953   6.969  2.4362 -1.6682 -0.6642
  933MOL0     H23141  -0.486   1.020   7.010 -3.1776  0.3819 -1.4701
  933MOL0     H23142   1.107   0.134   7.677  1.5655 -0.1299 -0.2519
  933MOL0     H23143   1.321   0.205   7.614 -0.8408  2.1419  1.0928
  933MOL0     H23144   1.602   0.442   7.058 -2.2401 -2.2691  0.6046
  933MOL0     H23145   1.832   0.495   7.064 -0.9356 -0.0781  0.0051
  933MOL0     H23146   2.176   0.402   7.297  1.9723  2.8559 -0.3194
  933MOL0     H23147   2.056   0.360   7.428  0.1357  1.5878  0.6965
  933MOL0     H23148   2.159   0.632   7.381 -3.1517 -0.1002 -0.0239
  933MOL0     H23149   2.087   0.559   7.534 -2.1321 -2.3189 -0.2621
  933MOL0     H23150   2.361   0.479   7.432 -1.1929  0.7277 -0.6211
  933MOL0     H23151   2.265   0.426   7.580 -1.4766 -2.3246 -1.0086
  933MOL0     H23152   2.327   0.711   7.521  2.9668 -0.6917 -0.9379
  933MOL0     H23153   2.301   0.637   7.682 -0.6904  2.7555  0.1012
  933MOL0     H23154   2.710   0.632   7.664 -0.2501 -0.7376  0.5774
  933MOL0     H23155   1.864   0.415   7.487 -1.6234  0.8889  0.4832
  933MOL0     H23156   1.619   0.348   7.474 -2.9616 -0.5312 -1.2773
  934MOL0     O23157  10.632   2.771   9.681 -0.3482 -0.6235 -0.1493
  934MOL0     C23158  10.716   2.802   9.591 -0.7783 -0.0246  0.3912
  934MOL0     O23159  10.688   2.858   9.469 -0.5767  0.7249  0.6782
  934MOL0     C23160  10.564   2.872   9.425  0.6649  0.4870 -0.4196
  934MOL0     C23161  10.450   2.799   9.467 -0.1598 -0.1697 -0.1151
  934MOL0     C23162  10.323   2.816   9.409  0.5477 -0.8690 -0.2728
  934MOL0     C23163  10.315   2.903   9.301  0.4225  0.8910 -0.0622
  934MOL0     O23164  10.198   2.911   9.233 -0.3352  0.1299 -0.0964
  934MOL0     C23165  10.169   3.007   9.135  0.3192  0.2545 -0.4994
  934MOL0     C23166  10.025   2.962   9.085  0.5314  0.5010  0.4803
  934MOL0     C23167   9.915   2.965   9.195  0.2223 -0.2147 -0.0979
  934MOL0     C23168   9.784   2.892   9.159 -1.5076 -0.1927  0.3622
  934MOL0     C23169   9.684   2.863   9.274 -0.7775  0.1332  0.6049
  934MOL0     C23170   9.544   2.827   9.229 -0.4724 -0.2867  0.8623
  934MOL0     C23171   9.550   2.698   9.141 -0.2639  0.2078 -0.2719
  934MOL0     C23172   9.422   2.636   9.089 -0.1165 -0.0561  0.3376
  934MOL0     N23173   9.331   2.595   9.197 -0.4460 -0.4933 -0.5049
  934MOL0     C23174   9.310   2.468   9.234 -0.3847  0.5306  0.1392
  934MOL0     C23175   9.233   2.479   9.346  0.3203  0.1016 -0.3430
  934MOL0     C23176   9.169   2.360   9.417 -0.0520 -0.6082  0.2089
  934MOL0     C23177   9.034   2.403   9.488 -1.1508 -0.0996  0.6104
  934MOL0     C23178   8.960   2.285   9.540 -0.1697  0.2935  0.5425
  934MOL0     C23179   8.845   2.323   9.627  0.3049 -0.8357  0.0533
  934MOL0     O23180   8.778   2.214   9.688 -0.3142  0.0910 -0.1414
  934MOL0     C23181   8.644   2.213   9.692 -0.0076 -0.5176 -0.4563
  934MOL0     C23182   8.592   2.138   9.799 -0.9841  0.4423 -0.2210
  934MOL0     C23183   8.454   2.121   9.816  0.4549 -0.4476  0.9452
  934MOL0     C23184   8.367   2.185   9.728  0.1866  0.2453 -0.8387
  934MOL0     C23185   8.227   2.192   9.767 -0.7717  0.0621  0.0925
  934MOL0     O23186   8.173   2.098   9.843  0.5092 -0.2155 -0.5153
  934MOL0     C23187   8.040   2.118   9.884 -0.7927  0.4743 -0.4044
  934MOL0     C23188   7.941   2.037   9.833  0.0736  0.2809 -0.2539
  934MOL0     C23189   7.809   2.042   9.885 -0.9121 -0.3148 -0.5050
  934MOL0     C23190   7.780   2.132   9.994 -0.5549 -0.3399 -0.0446
  934MOL0     O23191   7.651   2.156  10.035 -0.2972 -0.5257  0.3396
  934MOL0     C23192   7.635   2.171  10.176 -0.4820  0.7661 -0.3432
  934MOL0     C23193   7.481   2.145  10.207  0.8070 -0.3106 -0.4158
  934MOL0     C23194   7.389   2.272  10.174  0.7191 -0.9365 -0.1814
  934MOL0     C23195   7.236   2.249  10.165 -0.1829  0.3094 -0.0987
  934MOL0     C23196   7.156   2.330  10.267  0.6790 -0.1851 -0.1663
  934MOL0     C23197   7.012   2.282  10.289  0.0026 -0.1451 -0.4774
  934MOL0     C23198   6.946   2.353  10.411  0.2772  0.8825  0.5214
  934MOL0     C23199   6.813   2.293  10.457 -0.8376 -0.7864  0.3237
  934MOL0    Cl23200   6.687   2.367  10.357 -0.1071  0.2002  0.3737
  934MOL0     C23201   7.885   2.220  10.034  0.5971 -0.4691  0.4050
  934MOL0     C23202   8.016   2.221   9.975  0.7307 -0.0899  0.5823
  934MOL0     O23203   8.184   2.303   9.737  0.3244 -0.2393  0.1304
  934MOL0     C23204   8.416   2.259   9.620 -0.4722 -0.0682  0.2930
  934MOL0     C23205   8.551   2.267   9.603  0.1792  1.6927  0.2257
  934MOL0     N23206   9.191   2.618   9.360 -0.2551 -0.6780  0.4925
  934MOL0     N23207   9.245   2.685   9.264  0.0402  0.2702  0.8059
  934MOL0     C23208  10.428   2.964   9.248  0.1052  0.6469  0.0119
  934MOL0     C23209  10.553   2.947   9.310 -0.5130 -0.7587  0.7642
  934MOL0     C23210  10.851   2.757   9.628 -0.0833 -0.5374 -0.0080
  934MOL0     C23211  10.865   2.687   9.745 -1.0379 -0.4094  0.0160
  934MOL0     C23212  10.997   2.645   9.771 -0.3711  0.4909  0.6555
  934MOL0     C23213  11.103   2.667   9.679 -0.3595  0.0250  0.1591
  934MOL0     O23214  11.220   2.605   9.713 -0.2524  0.1290  0.3799
  934MOL0     C23215  11.332   2.616   9.623  0.2129 -0.0847 -0.0809
  934MOL0     C23216  11.461   2.609   9.702 -0.3883  0.2075 -0.4367
  934MOL0     C23217  11.592   2.634   9.611  0.3684  0.5353 -0.1743
  934MOL0     C23218  11.692   2.518   9.613 -0.5293 -0.0114 -0.4723
  934MOL0     C23219  11.813   2.578   9.561 -0.5948 -0.5220  0.4802
  934MOL0     C23220  11.912   2.631   9.507 -0.5209 -0.3348 -0.1794
  934MOL0     C23221  11.077   2.729   9.556 -0.4719 -0.0215 -0.9074
  934MOL0     C23222  10.955   2.777   9.531 -0.1821 -0.1983 -0.2456
  934MOL0     H23223  10.461   2.731   9.551  3.2876  0.5891  0.2193
  934MOL0     H23224  10.231   2.778   9.453  0.9210  0.5992  1.9139
  934MOL0     H23225  10.239   2.986   9.054 -0.7721 -0.5263 -1.2662
  934MOL0     H23226  10.173   3.110   9.170 -1.1429 -0.2189  1.2135
  934MOL0     H23227  10.023   2.855   9.060 -0.9528  0.1565  1.8832
  934MOL0     H23228   9.993   3.032   9.008 -1.1109  0.5248  1.1407
  934MOL0     H23229   9.900   3.072   9.213 -0.0164 -0.0831 -1.0224
  934MOL0     H23230   9.947   2.929   9.293  2.4551 -0.9430 -1.0394
  934MOL0     H23231   9.734   2.932   9.071 -0.9352 -0.2839 -0.0115
  934MOL0     H23232   9.822   2.793   9.132  1.1178  0.0810  2.5614
  934MOL0     H23233   9.687   2.945   9.346 -0.0296  1.9443 -1.3703
  934MOL0     H23234   9.710   2.773   9.331 -1.1893 -1.2004 -1.2222
  934MOL0     H23235   9.478   2.900   9.181 -0.3271 -0.2409  0.7324
  934MOL0     H23236   9.490   2.810   9.323  1.8449  0.6361  2.4477
  934MOL0     H23237   9.612   2.718   9.053 -1.4632 -0.5195 -1.3148
  934MOL0     H23238   9.600   2.626   9.205  1.9624  0.8599 -1.1896
  934MOL0     H23239   9.461   2.558   9.023 -2.3495  1.2717 -2.8575
  934MOL0     H23240   9.371   2.705   9.021 -1.6670 -2.0061 -0.5646
  934MOL0     H23241   9.351   2.382   9.182 -1.3021  0.3126 -0.2470
  934MOL0     H23242   9.241   2.315   9.486  0.2545  1.7571  1.5604
  934MOL0     H23243   9.147   2.280   9.346  0.1838  0.2808 -0.8888
  934MOL0     H23244   8.965   2.470   9.437  0.0389  2.2085  1.8905
  934MOL0     H23245   9.057   2.462   9.577 -1.3347  2.3562 -0.8991
  934MOL0     H23246   8.912   2.222   9.464 -0.4444 -0.2949  1.1966
  934MOL0     H23247   9.021   2.215   9.597 -0.4959 -0.5824 -0.1561
  934MOL0     H23248   8.775   2.381   9.567 -1.7478 -1.1096  2.0608
  934MOL0     H23249   8.882   2.382   9.711 -0.9205 -1.7299  1.2615
  934MOL0     H23250   8.662   2.088   9.866 -2.2663  0.3031  1.0576
  934MOL0     H23251   8.414   2.064   9.899 -1.2089  0.0065  0.4801
  934MOL0     H23252   7.962   1.981   9.743  1.3541  2.2733 -1.2810
  934MOL0     H23253   7.723   1.991   9.841 -1.1614  0.7735 -1.3111
  934MOL0     H23254   7.666   2.273  10.201 -0.6925  0.9168 -0.6988
  934MOL0     H23255   7.695   2.102  10.236 -0.2253  0.8477 -0.5040
  934MOL0     H23256   7.464   2.105  10.307 -0.6785 -0.8178 -0.8503
  934MOL0     H23257   7.450   2.064  10.141 -0.2158 -0.5515  0.3360
  934MOL0     H23258   7.421   2.294  10.072 -0.4744 -1.4099 -0.6699
  934MOL0     H23259   7.414   2.357  10.238  1.8241 -2.1344  1.0617
  934MOL0     H23260   7.206   2.279  10.064 -0.1946 -0.9875 -0.4894
  934MOL0     H23261   7.226   2.145  10.195 -0.2625  0.9140  2.1549
  934MOL0     H23262   7.150   2.437  10.246 -1.8562 -0.5949 -2.0255
  934MOL0     H23263   7.214   2.322  10.359 -0.8929 -1.4500  0.7710
  934MOL0     H23264   7.006   2.176  10.311  0.8164  0.2476  1.8964
  934MOL0     H23265   6.953   2.305  10.200 -0.6331  0.2406  0.0289
  934MOL0     H23266   7.006   2.353  10.503 -1.9041  1.3688  2.0318
  934MOL0     H23267   6.933   2.459  10.386 -1.4566  1.2386  2.5786
  934MOL0     H23268   6.790   2.324  10.560 -2.6649  0.2215 -0.3470
  934MOL0     H23269   6.807   2.184  10.451  1.0047 -0.9938  1.5691
  934MOL0     H23270   7.860   2.301  10.102  0.1236  0.8789 -1.2927
  934MOL0     H23271   8.104   2.278  10.005 -0.9118  2.8829  0.1824
  934MOL0     H23272   8.352   2.320   9.558 -2.8416 -1.1218  1.5824
  934MOL0     H23273   8.585   2.317   9.513  0.2833  1.6638  0.2489
  934MOL0     H23274  10.430   3.006   9.148 -0.2526 -1.9347 -1.1504
  934MOL0     H23275  10.639   2.992   9.262  1.0367 -2.6956  1.5642
  934MOL0     H23276  10.785   2.656   9.812 -3.1317  1.4811 -1.4599
  934MOL0     H23277  11.013   2.583   9.859 -1.4608 -1.4834 -0.4804
  934MOL0     H23278  11.335   2.719   9.586  1.7284 -0.6841 -1.7602
  934MOL0     H23279  11.335   2.542   9.543 -1.0317 -1.3318  0.9625
  934MOL0     H23280  11.467   2.690   9.775  0.7788  0.3246 -0.6528
  934MOL0     H23281  11.464   2.511   9.750 -0.6450  0.7802  0.7731
  934MOL0     H23282  11.633   2.729   9.647  3.4354 -1.4902  2.1822
  934MOL0     H23283  11.561   2.634   9.506 -0.4143 -0.9117  0.0265
  934MOL0     H23284  11.711   2.491   9.718 -0.5927  1.2073 -0.1371
  934MOL0     H23285  11.677   2.432   9.547  1.2894  1.8173 -3.4893
  934MOL0     H23286  11.996   2.660   9.448 -1.3300 -0.3447 -1.3717
  934MOL0     H23287  11.146   2.727   9.473 -2.1728  0.4972 -2.3932
  934MOL0     H23288  10.935   2.832   9.440 -1.4393  2.0253  1.2584
  935MOL0     O23289   8.006   2.389   1.373 -0.9341 -0.2048 -0.2466
  935MOL0     C23290   8.025   2.512   1.375  0.6649  0.3137 -0.7026
  935MOL0     O23291   7.934   2.598   1.324 -0.1846  0.6032 -0.1295
  935MOL0     C23292   7.803   2.554   1.289  0.1153  1.1157 -1.2783
  935MOL0     C23293   7.723   2.628   1.202  0.1154 -0.8210  0.4389
  935MOL0     C23294   7.588   2.585   1.174  0.7191  0.1951 -0.1212
  935MOL0     C23295   7.531   2.474   1.230  0.3135  0.1369  0.1703
  935MOL0     O23296   7.401   2.442   1.196 -0.3229 -0.1872 -0.0410
  935MOL0     C23297   7.379   2.302   1.174 -0.8379 -0.2425  0.0537
  935MOL0     C23298   7.230   2.272   1.167 -0.1168 -1.3362  0.9624
  935MOL0     C23299   7.186   2.154   1.069  0.0716  0.4647 -0.4317
  935MOL0     C23300   7.032   2.123   1.069  0.1497  0.4046  0.1433
  935MOL0     C23301   6.988   2.038   0.947  0.3630 -0.1768  0.0619
  935MOL0     C23302   6.834   2.008   0.969  0.4591 -1.0288  0.0368
  935MOL0     C23303   6.774   1.882   0.902  0.1251  0.4739  0.2587
  935MOL0     C23304   6.838   1.749   0.941 -0.4203 -0.0473  0.8196
  935MOL0     N23305   6.728   1.649   0.934 -0.7061 -0.3987  0.5339
  935MOL0     C23306   6.677   1.591   0.828  0.5360  0.0586  0.0815
  935MOL0     C23307   6.554   1.542   0.869 -1.9816  0.4708 -0.3515
  935MOL0     C23308   6.455   1.460   0.786 -0.9829 -0.3135  0.4310
  935MOL0     C23309   6.497   1.324   0.724  0.0513  0.0846  0.2029
  935MOL0     C23310   6.498   1.209   0.835  0.0299  0.1238  0.0397
  935MOL0     C23311   6.609   1.231   0.942  0.7775  0.0427 -0.1440
  935MOL0     O23312   6.738   1.217   0.871  1.1833  0.5255 -0.2105
  935MOL0     C23313   6.859   1.245   0.941  0.1094  0.4131 -0.4179
  935MOL0     C23314   6.859   1.279   1.075 -1.1269 -0.3463 -0.1171
  935MOL0     C23315   6.977   1.307   1.147  1.4019  0.5990 -0.6290
  935MOL0     C23316   7.098   1.308   1.082 -0.0591 -0.7972 -1.1433
  935MOL0     C23317   7.220   1.338   1.152 -0.5349 -0.4778  0.8281
  935MOL0     O23318   7.310   1.412   1.078 -0.2099 -0.2784 -0.2212
  935MOL0     C23319   7.440   1.440   1.108  0.1868 -0.0923  0.1415
  935MOL0     C23320   7.484   1.510   1.220 -0.0111  0.9230 -0.3784
  935MOL0     C23321   7.620   1.545   1.218 -0.5730  1.0919 -1.2414
  935MOL0     C23322   7.714   1.504   1.121  0.8663 -0.4170  0.5999
  935MOL0     O23323   7.845   1.530   1.135  0.4331 -0.0235 -0.2872
  935MOL0     C23324   7.922   1.528   1.029  0.2249 -0.3269 -0.1215
  935MOL0     C23325   8.055   1.602   1.065  0.0228  0.5243  0.6666
  935MOL0     C23326   8.148   1.626   0.939 -0.2983  0.6175 -0.8962
  935MOL0     C23327   8.244   1.737   0.970  0.5649 -0.0540 -0.1415
  935MOL0     C23328   8.324   1.772   0.838  0.1594 -0.9632  0.5270
  935MOL0     C23329   8.431   1.883   0.861  0.4674  0.2418  0.0351
  935MOL0     C23330   8.351   2.006   0.915 -0.2895  0.3985  0.3816
  935MOL0     C23331   8.432   2.138   0.891  0.4999 -0.0984  0.0590
  935MOL0    Cl23332   8.582   2.127   0.988  0.1212 -0.2356 -0.4933
  935MOL0     C23333   7.660   1.427   1.012  0.0930 -0.0534  0.2636
  935MOL0     C23334   7.524   1.394   1.002  0.2003 -0.1431  0.3813
  935MOL0     O23335   7.245   1.289   1.260 -0.2125 -0.6966 -0.3136
  935MOL0     C23336   7.090   1.286   0.939 -0.0673 -1.0948 -0.2165
  935MOL0     C23337   6.977   1.248   0.868 -0.4103 -0.0087  0.4133
  935MOL0     N23338   6.543   1.574   1.008  0.1112 -0.5099 -0.0413
  935MOL0     N23339   6.649   1.630   1.040 -0.2980  0.0569  0.4398
  935MOL0     C23340   7.608   2.408   1.321 -0.2110  0.6272  0.0888
  935MOL0     C23341   7.743   2.445   1.365  0.0277 -0.0452  0.8200
  935MOL0     C23342   8.152   2.565   1.425 -0.2081 -0.7280  0.5178
  935MOL0     C23343   8.259   2.489   1.476 -0.1298  0.2688  1.3111
  935MOL0     C23344   8.386   2.544   1.517 -0.0162  0.4860  0.7226
  935MOL0     C23345   8.400   2.689   1.509 -0.4399  0.1724  0.1392
  935MOL0     O23346   8.524   2.726   1.565  0.6921 -0.3039 -0.1500
  935MOL0     C23347   8.512   2.844   1.645  0.2512 -0.7275 -0.8369
  935MOL0     C23348   8.639   2.834   1.730 -0.3204  0.2872 -0.1792
  935MOL0     C23349   8.766   2.873   1.649 -0.5717 -0.0261  0.5580
  935MOL0     C23350   8.820   3.019   1.675  0.0024  0.2578 -0.7229
  935MOL0     C23351   8.937   3.049   1.593 -0.5282  0.4025  0.7434
  935MOL0     C23352   9.034   3.073   1.518 -0.0699 -0.3180 -0.2595
  935MOL0     C23353   8.293   2.769   1.473  0.3933 -0.0496 -0.5192
  935MOL0     C23354   8.176   2.706   1.421  0.7775 -0.6447 -0.5695
  935MOL0     H23355   7.762   2.711   1.144 -0.7370 -0.2702  0.6324
  935MOL0     H23356   7.529   2.634   1.097  0.4997 -1.5626 -1.1481
  935MOL0     H23357   7.430   2.235   1.243 -1.7565 -1.9409 -0.8357
  935MOL0     H23358   7.426   2.273   1.079  1.1304 -1.1948  1.2496
  935MOL0     H23359   7.182   2.370   1.158  1.6312 -0.4010  1.4872
  935MOL0     H23360   7.204   2.238   1.267 -5.0855  0.4263  0.5718
  935MOL0     H23361   7.240   2.061   1.091 -0.2353 -0.1084 -1.9356
  935MOL0     H23362   7.214   2.176   0.966 -0.5606  1.5582 -0.3787
  935MOL0     H23363   6.990   2.077   1.159 -0.3227 -0.5168 -0.5225
  935MOL0     H23364   6.974   2.213   1.049 -2.3738 -1.2660 -0.5978
  935MOL0     H23365   7.040   1.942   0.959  0.0934 -0.2869  0.3560
  935MOL0     H23366   7.008   2.083   0.849  1.2248 -0.7307 -0.0285
  935MOL0     H23367   6.768   2.090   0.942  0.5264 -1.0954 -0.3321
  935MOL0     H23368   6.813   1.985   1.074 -1.9080 -1.6674 -0.5068
  935MOL0     H23369   6.668   1.871   0.927 -0.4427 -0.1446 -2.1324
  935MOL0     H23370   6.775   1.894   0.793 -1.4499 -2.6903 -0.2283
  935MOL0     H23371   6.883   1.750   1.040  0.7799 -0.5873  0.3005
  935MOL0     H23372   6.926   1.711   0.887 -1.9594  1.0163 -2.7656
  935MOL0     H23373   6.721   1.575   0.730  2.4354 -0.6568  1.0021
  935MOL0     H23374   6.428   1.522   0.700 -0.7657 -0.7636  0.0306
  935MOL0     H23375   6.364   1.441   0.843 -1.5593 -0.2910 -0.4632
  935MOL0     H23376   6.596   1.321   0.677  0.9351 -0.3488  1.9791
  935MOL0     H23377   6.419   1.285   0.658 -1.1026 -4.0598  3.5160
  935MOL0     H23378   6.402   1.208   0.888 -0.3702 -0.2849 -0.6805
  935MOL0     H23379   6.507   1.112   0.785 -0.9049  0.1637 -0.2278
  935MOL0     H23380   6.598   1.156   1.021 -0.0924 -0.4293 -0.6890
  935MOL0     H23381   6.590   1.331   0.983  0.1420  1.8176 -4.2350
  935MOL0     H23382   6.764   1.295   1.125 -1.5593 -1.5904 -0.5144
  935MOL0     H23383   6.967   1.332   1.252 -1.6042  1.7102 -1.0835
  935MOL0     H23384   7.418   1.534   1.302  1.7843  1.5041  0.9437
  935MOL0     H23385   7.644   1.604   1.306 -2.8044  1.2624 -0.6647
  935MOL0     H23386   7.874   1.593   0.955  2.9601  2.4054  0.2725
  935MOL0     H23387   7.941   1.428   0.989  3.2612 -0.7563  2.0544
  935MOL0     H23388   8.110   1.557   1.148 -0.9315 -1.5062  0.2627
  935MOL0     H23389   8.016   1.699   1.099 -0.3378  1.5975 -2.4290
  935MOL0     H23390   8.095   1.638   0.844  0.3393  3.5234 -0.9719
  935MOL0     H23391   8.197   1.532   0.912  1.6350  1.5115 -0.6023
  935MOL0     H23392   8.203   1.829   1.013  0.8032  0.4639 -0.9796
  935MOL0     H23393   8.311   1.713   1.053 -2.0566 -0.2653  2.0021
  935MOL0     H23394   8.260   1.798   0.753  1.9312  0.5692 -0.4043
  935MOL0     H23395   8.373   1.680   0.804 -1.0905 -1.0956 -1.0805
  935MOL0     H23396   8.499   1.905   0.778  0.1376  1.4671  0.0728
  935MOL0     H23397   8.488   1.838   0.944  0.3916  1.9655  1.0650
  935MOL0     H23398   8.264   2.022   0.851 -0.5789  2.7044  1.2406
  935MOL0     H23399   8.331   2.011   1.022  2.1997  0.0517  0.9295
  935MOL0     H23400   8.385   2.231   0.925  1.5150  0.6944 -0.6658
  935MOL0     H23401   8.463   2.143   0.787  2.4715 -0.6292  0.5787
  935MOL0     H23402   7.721   1.377   0.937  0.9565 -0.1121  0.9743
  935MOL0     H23403   7.481   1.337   0.920  0.4873 -2.0769  1.5113
  935MOL0     H23404   7.185   1.284   0.886 -0.4053  0.2968 -0.9471
  935MOL0     H23405   6.978   1.217   0.764  1.3644  4.3807 -1.1153
  935MOL0     H23406   7.560   2.337   1.388 -3.2783  3.7709  1.5174
  935MOL0     H23407   7.785   2.398   1.453  0.0556 -2.7187 -0.5297
  935MOL0     H23408   8.250   2.381   1.473  0.0281  0.2334 -2.4688
  935MOL0     H23409   8.470   2.482   1.545  2.0587  2.0696 -1.5705
  935MOL0     H23410   8.437   2.829   1.723 -0.6427  0.3856 -1.4627
  935MOL0     H23411   8.502   2.942   1.597  1.4851  0.3101  0.8953
  935MOL0     H23412   8.630   2.897   1.819 -1.4565  0.0380 -0.1022
  935MOL0     H23413   8.640   2.731   1.768  2.1599  0.1641 -0.4023
  935MOL0     H23414   8.742   2.856   1.544  1.3724 -0.0953  0.0791
  935MOL0     H23415   8.835   2.791   1.673 -1.5487 -0.2228  2.9998
  935MOL0     H23416   8.740   3.090   1.651  0.9520  2.6546  2.4183
  935MOL0     H23417   8.847   3.035   1.780  0.4046 -0.0922 -0.7717
  935MOL0     H23418   9.121   3.093   1.459  2.7016 -3.0223  2.5067
  935MOL0     H23419   8.304   2.877   1.479 -0.5851 -0.0014  0.6108
  935MOL0     H23420   8.098   2.769   1.379  0.9423  1.5927  2.1773
  936MOL0     O23421   9.214   0.530   2.160  0.1879 -0.4884 -0.2259
  936MOL0     C23422   9.284   0.455   2.225  0.0293  0.2533 -0.3378
  936MOL0     O23423   9.240   0.340   2.277 -0.3944  0.0383 -0.5704
  936MOL0     C23424   9.110   0.316   2.278 -0.0153  0.2122  0.1015
  936MOL0     C23425   9.033   0.334   2.388  0.2126  0.2154 -0.1754
  936MOL0     C23426   8.898   0.297   2.378  0.1941  0.2003  0.3216
  936MOL0     C23427   8.841   0.260   2.253  0.3946  0.2074 -0.4136
  936MOL0     O23428   8.705   0.258   2.222  0.4428 -0.2907  0.0282
  936MOL0     C23429   8.619   0.187   2.310 -0.9646  0.4566 -1.2918
  936MOL0     C23430   8.482   0.226   2.294 -0.1546 -0.5546 -0.5768
  936MOL0     C23431   8.444   0.365   2.357 -0.4731  0.3061 -0.2134
  936MOL0     C23432   8.295   0.402   2.338  1.1378  0.6745 -0.4766
  936MOL0     C23433   8.208   0.293   2.390 -0.6534 -0.3031  0.8226
  936MOL0     C23434   8.075   0.349   2.439 -0.3712 -0.1422  0.3937
  936MOL0     C23435   7.980   0.220   2.456  1.3430  0.7415 -0.7600
  936MOL0     C23436   7.839   0.252   2.521 -0.4347  1.1171  0.1437
  936MOL0     N23437   7.744   0.137   2.512  0.5923  0.1318  0.2300
  936MOL0     C23438   7.744   0.032   2.598  0.3304  0.2629  0.5614
  936MOL0     C23439   7.631  -0.036   2.562 -0.4867 -0.5801 -0.3324
  936MOL0     C23440   7.582  -0.149   2.646 -0.2786  1.1867 -0.0303
  936MOL0     C23441   7.435  -0.114   2.685 -0.3175  0.2759 -0.0211
  936MOL0     C23442   7.362  -0.211   2.768  1.0412  1.1922  0.9635
  936MOL0     C23443   7.211  -0.203   2.785  0.2264 -0.0060  0.0728
  936MOL0     O23444   7.158  -0.308   2.870  0.3978  0.3284 -0.4913
  936MOL0     C23445   7.040  -0.283   2.940 -0.7981 -0.1252  0.9418
  936MOL0     C23446   6.989  -0.388   3.011  0.0489 -0.0231 -0.3127
  936MOL0     C23447   6.864  -0.386   3.073 -0.4389 -0.9449  0.5388
  936MOL0     C23448   6.793  -0.270   3.061  0.6606 -0.7857  0.1970
  936MOL0     C23449   6.657  -0.265   3.114  0.2352 -0.3532 -0.1004
  936MOL0     O23450   6.623  -0.368   3.194 -0.3877 -0.7894  0.1155
  936MOL0     C23451   6.495  -0.392   3.236  0.6219 -0.4739 -0.4656
  936MOL0     C23452   6.442  -0.521   3.249  0.0963  1.0826 -0.1182
  936MOL0     C23453   6.311  -0.548   3.296 -1.5656  0.0963 -0.0610
  936MOL0     C23454   6.235  -0.444   3.346 -0.0036  0.5354  0.3664
  936MOL0     O23455   6.116  -0.471   3.416  0.2881  0.1006  0.6977
  936MOL0     C23456   6.005  -0.453   3.333 -0.7734  0.8036  0.8187
  936MOL0     C23457   5.879  -0.417   3.413  0.5563 -0.0968  0.1227
  936MOL0     C23458   5.830  -0.530   3.496 -0.0637 -0.1555 -0.0758
  936MOL0     C23459   5.676  -0.522   3.506  0.0368  0.6638 -1.1265
  936MOL0     C23460   5.629  -0.432   3.633  0.3229  0.6988  1.1740
  936MOL0     C23461   5.644  -0.506   3.773 -0.8390 -0.1446  0.0239
  936MOL0     C23462   5.666  -0.397   3.881 -0.4380 -0.9443 -0.7892
  936MOL0     C23463   5.543  -0.294   3.892  0.5111 -0.2580 -0.3110
  936MOL0    Cl23464   5.580  -0.149   3.990 -0.1311  0.5483  0.1231
  936MOL0     C23465   6.287  -0.315   3.347  0.2199  0.2593  0.1458
  936MOL0     C23466   6.414  -0.296   3.296 -0.0876  0.7658  0.2004
  936MOL0     O23467   6.584  -0.166   3.096  0.7917 -0.3391  0.3531
  936MOL0     C23468   6.847  -0.156   3.003 -0.2416 -1.2173 -0.5194
  936MOL0     C23469   6.975  -0.161   2.945 -0.2048 -0.1242  0.6477
  936MOL0     N23470   7.567   0.045   2.466 -0.4135  0.1339  0.1955
  936MOL0     N23471   7.638   0.137   2.441 -0.2065 -0.1988 -0.4788
  936MOL0     C23472   8.924   0.240   2.145 -0.1225 -0.8522  0.0820
  936MOL0     C23473   9.059   0.262   2.157 -0.2818  0.9998 -0.4781
  936MOL0     C23474   9.422   0.498   2.259  0.2364 -0.8158  0.3994
  936MOL0     C23475   9.488   0.445   2.371  0.4399 -0.0329  1.1374
  936MOL0     C23476   9.619   0.483   2.394  0.7146 -0.2503 -0.7632
  936MOL0     C23477   9.683   0.587   2.335  0.0603 -0.7479 -0.1771
  936MOL0     O23478   9.803   0.631   2.380 -0.2410  0.1785 -0.2058
  936MOL0     C23479   9.905   0.681   2.291  0.2357 -0.6084  0.8607
  936MOL0     C23480  10.046   0.673   2.354  0.1556 -0.8436  0.0164
  936MOL0     C23481  10.086   0.523   2.347  0.5317 -1.4559  0.1566
  936MOL0     C23482  10.227   0.509   2.405 -0.1313  0.5818  0.0057
  936MOL0     C23483  10.256   0.372   2.431 -0.3424  0.5502  0.4404
  936MOL0     C23484  10.268   0.258   2.442 -0.1364  0.3211 -0.6840
  936MOL0     C23485   9.619   0.648   2.226 -0.1658  0.8984  1.4213
  936MOL0     C23486   9.491   0.599   2.189 -0.1694 -0.6193  0.3148
  936MOL0     H23487   9.073   0.359   2.485  1.8001 -1.2047 -0.3988
  936MOL0     H23488   8.840   0.324   2.465 -0.6206 -0.6388  0.0500
  936MOL0     H23489   8.658   0.204   2.411 -0.1973 -2.8531 -0.8810
  936MOL0     H23490   8.626   0.079   2.294  0.7563  0.2151  0.6067
  936MOL0     H23491   8.425   0.142   2.334 -2.4934 -0.0303 -2.5381
  936MOL0     H23492   8.458   0.243   2.189  2.2815  5.5432 -0.5780
  936MOL0     H23493   8.501   0.441   2.302 -1.0584  0.9680  0.0846
  936MOL0     H23494   8.462   0.357   2.465  0.1159 -1.9389 -0.4258
  936MOL0     H23495   8.283   0.494   2.395  1.3947  0.5690 -0.2484
  936MOL0     H23496   8.277   0.431   2.234  0.2119 -2.7437 -1.4083
  936MOL0     H23497   8.259   0.236   2.468  3.6572  0.1566 -1.3506
  936MOL0     H23498   8.188   0.227   2.305 -1.2538  1.4706 -0.4756
  936MOL0     H23499   8.041   0.416   2.359  0.6300  1.6295  1.3746
  936MOL0     H23500   8.083   0.396   2.538  0.2179 -1.9576  1.2488
  936MOL0     H23501   7.959   0.164   2.365 -2.3632 -2.7647  1.9019
  936MOL0     H23502   8.027   0.149   2.525 -0.8209 -2.4331 -2.3368
  936MOL0     H23503   7.790   0.337   2.472 -2.7711 -0.4824 -0.4298
  936MOL0     H23504   7.852   0.272   2.627 -1.2112  1.2081  0.2206
  936MOL0     H23505   7.826   0.016   2.667  0.9265  3.0335  0.6244
  936MOL0     H23506   7.648  -0.161   2.732  0.0208  1.2344 -0.2520
  936MOL0     H23507   7.596  -0.248   2.600  1.8690  1.4917 -0.1353
  936MOL0     H23508   7.378  -0.111   2.591  0.2216 -3.8428 -0.6920
  936MOL0     H23509   7.439  -0.014   2.728 -2.4010  0.6856 -0.6657
  936MOL0     H23510   7.384  -0.312   2.734 -0.9177  0.5771  1.3809
  936MOL0     H23511   7.408  -0.207   2.867  1.0298 -0.8911  1.0786
  936MOL0     H23512   7.162  -0.208   2.688 -0.8034  0.3185  0.5676
  936MOL0     H23513   7.192  -0.105   2.830 -0.8016 -0.6350  1.0441
  936MOL0     H23514   7.033  -0.487   3.020 -0.5292 -0.1082  2.4394
  936MOL0     H23515   6.835  -0.475   3.128  1.2230  0.1593  3.3930
  936MOL0     H23516   6.501  -0.606   3.215  2.1204  1.6788  1.6581
  936MOL0     H23517   6.276  -0.650   3.303  0.0940 -0.4198  1.2311
  936MOL0     H23518   5.984  -0.534   3.262  2.3395  0.0939  0.5661
  936MOL0     H23519   6.021  -0.364   3.271 -0.0934 -0.7308 -1.3251
  936MOL0     H23520   5.805  -0.389   3.338  0.6802  0.8662  0.3455
  936MOL0     H23521   5.905  -0.335   3.481 -1.5428  1.1928 -0.5573
  936MOL0     H23522   5.866  -0.511   3.598 -3.4222 -1.2801  1.4637
  936MOL0     H23523   5.875  -0.623   3.462  0.2023  0.7394 -2.3957
  936MOL0     H23524   5.625  -0.480   3.419 -1.1817 -1.5081 -1.5294
  936MOL0     H23525   5.634  -0.621   3.525 -1.6693  1.8706  2.3777
  936MOL0     H23526   5.521  -0.412   3.627  0.4720  1.7594  1.8449
  936MOL0     H23527   5.688  -0.341   3.625  1.9667 -0.3342  1.0005
  936MOL0     H23528   5.739  -0.559   3.766  1.5284  3.9241 -2.3326
  936MOL0     H23529   5.562  -0.567   3.812 -0.5779 -0.6389 -0.1954
  936MOL0     H23530   5.662  -0.452   3.975 -0.6352  0.0582 -0.1981
  936MOL0     H23531   5.758  -0.338   3.873 -0.6281 -0.6554 -0.8603
  936MOL0     H23532   5.453  -0.345   3.927  0.3229  0.7119  0.6769
  936MOL0     H23533   5.513  -0.260   3.792  0.7213 -0.9349 -0.6138
  936MOL0     H23534   6.225  -0.228   3.367 -0.1370  0.4115 -1.5011
  936MOL0     H23535   6.436  -0.192   3.273 -2.2381  1.4739  1.0411
  936MOL0     H23536   6.782  -0.069   3.001 -0.7046 -1.5578 -1.6810
  936MOL0     H23537   7.027  -0.075   2.905 -3.1033  0.6971 -1.6745
  936MOL0     H23538   8.879   0.209   2.051 -0.2560  2.8848 -1.2543
  936MOL0     H23539   9.116   0.241   2.067 -0.2479  1.3688 -0.5425
  936MOL0     H23540   9.444   0.370   2.436 -0.4948 -2.1206 -1.6831
  936MOL0     H23541   9.672   0.428   2.471 -0.0626 -3.9702 -2.6595
  936MOL0     H23542   9.878   0.784   2.270  1.0392 -0.3973  0.8224
  936MOL0     H23543   9.910   0.632   2.193 -0.9280 -1.9484  1.4353
  936MOL0     H23544  10.114   0.739   2.300  1.5736 -0.3709  2.2626
  936MOL0     H23545  10.029   0.718   2.453  0.6843 -2.5358  0.9248
  936MOL0     H23546  10.091   0.481   2.246 -1.7145 -0.3306 -0.5098
  936MOL0     H23547  10.020   0.456   2.403  0.3623  0.5733  2.5498
  936MOL0     H23548  10.303   0.553   2.341 -0.1409  0.4685 -0.0832
  936MOL0     H23549  10.236   0.562   2.501  0.2802  2.3124 -0.9401
  936MOL0     H23550  10.281   0.152   2.432  0.4630 -0.0152  2.5268
  936MOL0     H23551   9.662   0.731   2.173 -0.3124 -0.2043 -0.5173
  936MOL0     H23552   9.426   0.659   2.126 -2.8213 -2.4546  1.1285
  937MOL0     O23553   8.170   0.878   5.712 -0.0807 -0.2952 -0.1253
  937MOL0     C23554   8.159   0.770   5.651 -0.1938 -0.7126  0.0736
  937MOL0     O23555   8.059   0.727   5.566  0.1514  0.7706  0.0217
  937MOL0     C23556   7.925   0.746   5.586 -0.0414 -0.8438  0.6192
  937MOL0     C23557   7.875   0.785   5.708  0.2756 -0.0378 -0.1166
  937MOL0     C23558   7.738   0.805   5.728  0.4143 -0.0134  0.8053
  937MOL0     C23559   7.642   0.771   5.625 -0.4694 -0.1993  1.1955
  937MOL0     O23560   7.508   0.800   5.650  0.2115  0.2805  0.3121
  937MOL0     C23561   7.405   0.751   5.562 -0.5205  0.3388 -0.6019
  937MOL0     C23562   7.384   0.849   5.445  0.3779 -0.7178  0.7929
  937MOL0     C23563   7.240   0.830   5.379 -0.3229  0.2548 -0.1021
  937MOL0     C23564   7.130   0.881   5.468 -0.4184 -0.2311 -0.7130
  937MOL0     C23565   6.993   0.880   5.408  0.7158 -0.1177 -0.5626
  937MOL0     C23566   6.886   0.939   5.507 -0.0761 -0.1142  0.8055
  937MOL0     C23567   6.768   1.002   5.438  0.7805  0.1587 -0.4107
  937MOL0     C23568   6.698   1.097   5.539  0.4042  0.3241 -0.0722
  937MOL0     N23569   6.562   1.126   5.501 -0.5016  0.3215  0.8774
  937MOL0     C23570   6.532   1.203   5.388 -0.8594 -0.0784  0.1567
  937MOL0     C23571   6.403   1.225   5.400  0.6327  0.3431 -0.4511
  937MOL0     C23572   6.294   1.315   5.335 -0.8419 -0.2885 -0.9390
  937MOL0     C23573   6.197   1.254   5.227 -0.2285 -0.3913  0.1683
  937MOL0     C23574   6.076   1.342   5.197 -0.7562 -0.3708 -0.1727
  937MOL0     C23575   5.987   1.277   5.089 -0.6227  0.0742  0.7733
  937MOL0     O23576   5.941   1.149   5.134  0.2962  0.1743  0.7181
  937MOL0     C23577   5.813   1.125   5.180 -0.9707 -0.5383  0.3875
  937MOL0     C23578   5.790   0.998   5.237 -0.3785 -0.0763  0.1757
  937MOL0     C23579   5.660   0.966   5.266 -0.6124  0.9654 -0.0238
  937MOL0     C23580   5.553   1.059   5.256  0.0070 -0.3101  0.3419
  937MOL0     C23581   5.419   1.023   5.305  0.9672  0.4369  0.5262
  937MOL0     O23582   5.315   1.114   5.300 -0.3456  0.3476  0.5914
  937MOL0     C23583   5.193   1.075   5.326 -0.0005 -0.4415  0.5605
  937MOL0     C23584   5.129   0.966   5.258  0.1146  0.0388 -0.4768
  937MOL0     C23585   4.991   0.931   5.287 -0.5007  0.6387  0.0658
  937MOL0     C23586   4.918   1.001   5.386  0.3920 -0.8092 -0.4488
  937MOL0     O23587   4.791   0.984   5.427  0.8939  0.3076  0.1161
  937MOL0     C23588   4.708   0.887   5.351  0.1362 -1.0844  0.0019
  937MOL0     C23589   4.668   0.955   5.215 -1.0419 -0.1522 -0.9289
  937MOL0     C23590   4.642   0.856   5.109  0.1498  0.5731  0.7209
  937MOL0     C23591   4.554   0.892   5.004  0.1441  0.5044  0.6156
  937MOL0     C23592   4.590   1.011   4.929  0.0348 -0.1983 -0.4478
  937MOL0     C23593   4.494   1.031   4.809 -0.4983 -0.2595  0.2219
  937MOL0     C23594   4.513   1.150   4.721 -0.4547 -1.3750 -0.6151
  937MOL0     C23595   4.389   1.188   4.635 -0.2521  0.1089  0.1650
  937MOL0    Cl23596   4.280   1.269   4.749 -0.3842 -0.3361 -0.1868
  937MOL0     C23597   4.981   1.112   5.445 -0.4648 -0.0370 -0.5201
  937MOL0     C23598   5.113   1.146   5.418 -0.9947  0.3244  1.1367
  937MOL0     O23599   5.407   0.906   5.332 -0.7317 -0.3585 -0.0509
  937MOL0     C23600   5.575   1.188   5.205 -0.0737  0.1093  0.6423
  937MOL0     C23601   5.702   1.205   5.157  0.9901  0.2340  0.0960
  937MOL0     N23602   6.364   1.157   5.515  0.5696  0.1539  0.8734
  937MOL0     N23603   6.455   1.084   5.570 -0.8002 -0.3444 -0.1173
  937MOL0     C23604   7.700   0.722   5.501  0.7271 -0.2252 -0.2560
  937MOL0     C23605   7.835   0.711   5.489  0.5215 -0.1452 -0.1485
  937MOL0     C23606   8.284   0.687   5.654  0.1881  0.5796 -0.2637
  937MOL0     C23607   8.415   0.750   5.670  0.3747 -0.0429  1.2918
  937MOL0     C23608   8.528   0.669   5.681 -0.2772  0.8645  0.9284
  937MOL0     C23609   8.521   0.526   5.654 -0.2758 -0.4988  0.0872
  937MOL0     O23610   8.635   0.443   5.646 -0.2148  0.5501  0.0086
  937MOL0     C23611   8.707   0.430   5.765 -0.4373  0.2163  0.4256
  937MOL0     C23612   8.638   0.368   5.886  0.3888 -0.1614  0.1850
  937MOL0     C23613   8.611   0.224   5.846 -0.4271  0.4298  0.0915
  937MOL0     C23614   8.577   0.137   5.964  0.0263 -0.3619 -0.3731
  937MOL0     C23615   8.453   0.166   6.039 -0.0204 -0.4876  0.4800
  937MOL0     C23616   8.339   0.177   6.087 -0.5360  0.9895 -0.5510
  937MOL0     C23617   8.393   0.476   5.619 -0.3029  0.4357  0.6496
  937MOL0     C23618   8.270   0.550   5.621  0.3014  1.1884 -0.6209
  937MOL0     H23619   7.948   0.804   5.784  1.2834 -2.0125 -0.5092
  937MOL0     H23620   7.711   0.849   5.824  4.2994  0.2218  1.9624
  937MOL0     H23621   7.311   0.750   5.619  0.5689 -1.0601  1.3025
  937MOL0     H23622   7.416   0.654   5.514 -2.7034 -0.0993 -0.3309
  937MOL0     H23623   7.465   0.832   5.374  0.1954 -0.4971  0.5265
  937MOL0     H23624   7.392   0.952   5.483 -0.1780 -0.6945  0.8686
  937MOL0     H23625   7.222   0.726   5.350  2.9369 -0.0973 -1.3023
  937MOL0     H23626   7.238   0.889   5.287 -1.2539 -0.5596 -0.6160
  937MOL0     H23627   7.124   0.828   5.563 -1.5336  1.3703  0.1588
  937MOL0     H23628   7.144   0.989   5.479  0.0948 -0.5762  3.4363
  937MOL0     H23629   6.964   0.778   5.381 -0.1557  0.1688 -0.7689
  937MOL0     H23630   6.991   0.947   5.321  2.0838  1.1668  0.3314
  937MOL0     H23631   6.933   1.009   5.577 -2.8538  1.5888  1.1438
  937MOL0     H23632   6.851   0.861   5.574 -1.6331  0.5452  0.8122
  937MOL0     H23633   6.812   1.059   5.356 -0.6215  2.8943  0.5906
  937MOL0     H23634   6.701   0.935   5.385  1.2379  0.5490 -1.5114
  937MOL0     H23635   6.750   1.193   5.548  0.0080  0.6008 -0.6414
  937MOL0     H23636   6.699   1.060   5.642  0.0764  1.0398  0.1928
  937MOL0     H23637   6.603   1.237   5.313 -1.0190 -1.8483 -0.8642
  937MOL0     H23638   6.343   1.405   5.294  1.1203 -0.6991  0.3559
  937MOL0     H23639   6.237   1.347   5.423  3.3822 -2.1600  2.9026
  937MOL0     H23640   6.171   1.157   5.272  1.8358 -1.0146  0.1222
  937MOL0     H23641   6.253   1.237   5.135  0.3598 -2.6650  0.8758
  937MOL0     H23642   6.010   1.372   5.279  0.2098  1.8521 -0.1283
  937MOL0     H23643   6.105   1.439   5.156 -2.0407 -0.5735 -1.6525
  937MOL0     H23644   6.054   1.268   5.003  2.9524  1.1706  3.2043
  937MOL0     H23645   5.908   1.350   5.066  0.2054  0.4592 -0.9466
  937MOL0     H23646   5.861   0.917   5.242  2.1895  2.0408  0.2847
  937MOL0     H23647   5.652   0.866   5.307 -0.4424  0.9239 -0.0937
  937MOL0     H23648   5.189   0.902   5.193  3.0724  1.6753  0.4320
  937MOL0     H23649   4.947   0.847   5.234 -1.8827  2.0228 -1.0758
  937MOL0     H23650   4.628   0.858   5.419 -0.9341 -1.7689 -1.4981
  937MOL0     H23651   4.774   0.801   5.333  3.5723  1.1133  0.9467
  937MOL0     H23652   4.750   1.023   5.189 -0.2018 -0.5242  0.6218
  937MOL0     H23653   4.576   1.010   5.232 -1.5260 -1.5383  1.3024
  937MOL0     H23654   4.597   0.766   5.152 -1.3202 -0.4300 -2.5432
  937MOL0     H23655   4.740   0.820   5.075 -0.0522 -1.0837  1.7643
  937MOL0     H23656   4.547   0.803   4.940 -3.2058  2.8295 -2.7585
  937MOL0     H23657   4.460   0.915   5.055  0.3116 -1.6678  2.0372
  937MOL0     H23658   4.693   1.009   4.894  1.1798 -0.6507  2.6229
  937MOL0     H23659   4.564   1.089   5.001 -0.3589  1.0444 -1.8737
  937MOL0     H23660   4.392   1.012   4.840 -1.5214 -0.8643 -3.0581
  937MOL0     H23661   4.521   0.950   4.739  3.2696  1.1776 -0.2304
  937MOL0     H23662   4.550   1.235   4.779  0.2563 -0.2043 -2.6933
  937MOL0     H23663   4.592   1.126   4.650  0.7899  1.7112 -0.4155
  937MOL0     H23664   4.336   1.099   4.598  0.1931 -0.7804  1.5543
  937MOL0     H23665   4.418   1.247   4.548  1.7028 -2.1837 -0.8507
  937MOL0     H23666   4.925   1.166   5.520  0.6267  0.6642 -0.1812
  937MOL0     H23667   5.168   1.229   5.461  0.8252 -0.4868  0.4778
  937MOL0     H23668   5.513   1.277   5.197  1.6759  1.4983  1.5484
  937MOL0     H23669   5.714   1.300   5.106  2.9914 -0.2086 -0.3585
  937MOL0     H23670   7.629   0.680   5.430  1.7413 -1.6297 -0.4711
  937MOL0     H23671   7.878   0.666   5.400 -0.3251 -1.3535  0.0176
  937MOL0     H23672   8.421   0.858   5.669  3.4705 -0.1175 -0.1363
  937MOL0     H23673   8.626   0.712   5.698  0.6838 -0.8135 -0.1713
  937MOL0     H23674   8.749   0.525   5.800  1.9832 -0.7565  0.3710
  937MOL0     H23675   8.789   0.364   5.735 -2.0170 -2.8605  2.4080
  937MOL0     H23676   8.706   0.364   5.972 -1.4199  1.3785  1.7725
  937MOL0     H23677   8.549   0.430   5.899 -0.2334 -1.1255  0.5997
  937MOL0     H23678   8.699   0.185   5.794 -1.4217  0.9397 -2.0949
  937MOL0     H23679   8.530   0.221   5.773  0.1896 -1.8698 -0.5746
  937MOL0     H23680   8.575   0.034   5.927 -1.5571  0.0103 -1.4092
  937MOL0     H23681   8.665   0.141   6.029  0.5670  1.7370 -1.1551
  937MOL0     H23682   8.235   0.191   6.104 -0.9637 -0.0367 -2.1447
  937MOL0     H23683   8.379   0.373   5.587 -0.3808  0.9893 -1.2357
  937MOL0     H23684   8.176   0.498   5.605  1.4970 -1.8835  1.2534
  938MOL0     O23685   5.163   7.946   6.158  0.6576  0.2032  0.1329
  938MOL0     C23686   5.211   7.956   6.266 -0.7284  0.4471 -0.2141
  938MOL0     O23687   5.146   7.980   6.383  0.0660  0.0541  0.4414
  938MOL0     C23688   5.013   7.999   6.388 -0.3928  0.6658  0.0367
  938MOL0     C23689   4.942   8.106   6.327  0.1075 -0.3911  0.0643
  938MOL0     C23690   4.798   8.115   6.350  0.1212  0.1683  0.8119
  938MOL0     C23691   4.730   8.023   6.438  0.2873  0.0848  0.2157
  938MOL0     O23692   4.600   8.028   6.474  0.0045  0.2915 -0.4003
  938MOL0     C23693   4.518   8.126   6.417  0.3440 -0.0109  0.4320
  938MOL0     C23694   4.380   8.136   6.476  1.0753 -0.3777 -0.2514
  938MOL0     C23695   4.305   8.006   6.436  0.6756 -0.4513 -0.1634
  938MOL0     C23696   4.164   8.050   6.408 -0.3891 -0.5199 -0.4178
  938MOL0     C23697   4.077   7.929   6.411 -0.6530 -0.1863 -0.3721
  938MOL0     C23698   3.937   7.954   6.357 -0.4312 -0.1428  0.0756
  938MOL0     C23699   3.833   7.853   6.416 -0.2979  0.0610 -0.3952
  938MOL0     C23700   3.870   7.710   6.419  0.0679 -0.6165  1.0125
  938MOL0     N23701   3.745   7.638   6.449 -0.2240 -0.5777 -0.5621
  938MOL0     C23702   3.677   7.644   6.575  0.2625  0.5596  0.0241
  938MOL0     C23703   3.553   7.581   6.556 -0.2864  0.3276 -0.2073
  938MOL0     C23704   3.452   7.553   6.666 -0.0955  0.3624  0.0100
  938MOL0     C23705   3.399   7.684   6.737 -0.1684  0.4533 -0.3040
  938MOL0     C23706   3.307   7.659   6.855  0.8191  0.4318  0.1751
  938MOL0     C23707   3.168   7.613   6.802 -0.5397 -0.1529  0.0936
  938MOL0     O23708   3.099   7.561   6.908 -0.0015 -0.3825 -0.6771
  938MOL0     C23709   2.964   7.557   6.903 -0.2230  0.1579 -0.4465
  938MOL0     C23710   2.897   7.531   7.021  0.2271 -0.2459  0.9475
  938MOL0     C23711   2.763   7.507   7.039 -0.5065 -0.4154  0.0009
  938MOL0     C23712   2.677   7.502   6.926  0.1791 -0.9164 -0.6768
  938MOL0     C23713   2.539   7.453   6.925  0.1192  0.4001  0.0121
  938MOL0     O23714   2.504   7.357   7.013 -0.9520  0.1224  0.5804
  938MOL0     C23715   2.376   7.326   7.050  0.2352  0.6618 -0.9956
  938MOL0     C23716   2.259   7.396   7.017  0.5611 -0.0576  0.8356
  938MOL0     C23717   2.134   7.357   7.067 -0.0114  0.3673  0.1311
  938MOL0     C23718   2.116   7.243   7.143 -0.4271 -0.0397  0.0405
  938MOL0     O23719   1.984   7.221   7.178 -0.2933  0.6353  0.1217
  938MOL0     C23720   1.957   7.104   7.250 -0.4643 -0.4608  0.1830
  938MOL0     C23721   1.804   7.094   7.280  0.1164 -0.2879 -0.3272
  938MOL0     C23722   1.719   7.033   7.175  0.1238  0.1248  0.2749
  938MOL0     C23723   1.581   7.005   7.226  0.4647 -0.7265  0.5468
  938MOL0     C23724   1.481   6.957   7.119  0.5302 -0.4843 -0.7844
  938MOL0     C23725   1.475   7.024   6.988 -0.4254 -0.2812  0.0929
  938MOL0     C23726   1.329   7.021   6.928 -0.7343  0.3055  0.0602
  938MOL0     C23727   1.284   6.879   6.890 -0.5879 -0.7308  0.3154
  938MOL0    Cl23728   1.398   6.822   6.758  0.0586  0.0638  0.5293
  938MOL0     C23729   2.238   7.173   7.181  0.2591 -0.0878  0.2959
  938MOL0     C23730   2.366   7.215   7.134  0.1133 -0.0767  0.1580
  938MOL0     O23731   2.464   7.502   6.839 -0.5493  0.3386  0.2695
  938MOL0     C23732   2.733   7.535   6.799 -1.2293 -0.1843 -0.3682
  938MOL0     C23733   2.879   7.556   6.788  0.0637 -0.2159  0.0304
  938MOL0     N23734   3.555   7.538   6.420  0.1797 -0.1869 -0.5059
  938MOL0     N23735   3.661   7.583   6.361 -0.0055 -0.0723 -0.0494
  938MOL0     C23736   4.813   7.923   6.498  0.1842 -0.2020  0.1587
  938MOL0     C23737   4.952   7.911   6.474  0.4993 -0.0227 -0.2511
  938MOL0     C23738   5.355   7.932   6.287 -0.0463  0.0395  0.4089
  938MOL0     C23739   5.443   7.911   6.180  0.4929  0.8113  0.5920
  938MOL0     C23740   5.582   7.891   6.192  0.2337 -0.1411  0.6626
  938MOL0     C23741   5.634   7.871   6.323 -1.0409 -1.2055  1.0087
  938MOL0     O23742   5.765   7.833   6.326 -0.1628  0.0359 -0.3888
  938MOL0     C23743   5.807   7.735   6.437  0.0456 -0.0486  0.1753
  938MOL0     C23744   5.902   7.639   6.373 -0.2914  0.6051  0.5324
  938MOL0     C23745   5.824   7.558   6.262  0.6627  0.5084  0.7798
  938MOL0     C23746   5.918   7.464   6.191 -0.1165  0.1725  0.1342
  938MOL0     C23747   6.000   7.537   6.093 -0.1060  0.2159  0.3816
  938MOL0     C23748   6.083   7.593   6.027 -0.0991  0.2499 -0.6256
  938MOL0     C23749   5.553   7.901   6.430 -0.0309 -1.0478  0.4561
  938MOL0     C23750   5.413   7.921   6.412 -0.2833 -0.4401 -0.0445
  938MOL0     H23751   4.993   8.180   6.265 -0.5260  0.8511  0.9661
  938MOL0     H23752   4.748   8.194   6.295  1.5822  1.0486  0.6925
  938MOL0     H23753   4.515   8.113   6.308 -0.7620  0.8949  0.3370
  938MOL0     H23754   4.570   8.212   6.458  0.9712 -0.9033  1.5599
  938MOL0     H23755   4.326   8.226   6.445 -1.6467 -0.3507  3.8042
  938MOL0     H23756   4.363   8.158   6.582 -0.2082  3.7944 -1.1412
  938MOL0     H23757   4.312   7.924   6.509 -0.6388 -1.1406 -0.7887
  938MOL0     H23758   4.338   7.978   6.336 -0.8064  2.3349 -1.5376
  938MOL0     H23759   4.122   8.119   6.481 -1.6538 -0.8670 -0.7964
  938MOL0     H23760   4.150   8.102   6.313 -0.9713 -0.7441 -0.4631
  938MOL0     H23761   4.073   7.905   6.518  1.6228 -1.4165 -0.5214
  938MOL0     H23762   4.116   7.839   6.363 -0.0880  0.0240 -0.3096
  938MOL0     H23763   3.931   7.945   6.249 -0.8817 -3.0745  0.2698
  938MOL0     H23764   3.905   8.055   6.387  0.1219  0.2228 -0.5423
  938MOL0     H23765   3.802   7.898   6.510 -0.0377 -2.4265  0.9374
  938MOL0     H23766   3.750   7.856   6.344 -0.5508 -1.0229 -0.1559
  938MOL0     H23767   3.944   7.682   6.495  1.4122 -2.3246 -0.8470
  938MOL0     H23768   3.918   7.676   6.327  0.6320  1.1374  0.6184
  938MOL0     H23769   3.707   7.672   6.675 -2.7902 -2.2698  1.9308
  938MOL0     H23770   3.493   7.490   6.746  0.2263 -0.1199 -0.5206
  938MOL0     H23771   3.364   7.505   6.622 -1.3910  1.9238  0.8395
  938MOL0     H23772   3.352   7.749   6.663 -0.6024  2.3925  1.5768
  938MOL0     H23773   3.486   7.739   6.774 -2.6823  2.6540  2.7854
  938MOL0     H23774   3.343   7.576   6.917 -0.0602 -0.8857 -1.0153
  938MOL0     H23775   3.298   7.750   6.914  0.6501  2.0973 -2.2490
  938MOL0     H23776   3.183   7.541   6.721  0.9123 -2.1039  1.9699
  938MOL0     H23777   3.114   7.698   6.760 -2.4515 -1.9656 -1.3821
  938MOL0     H23778   2.951   7.510   7.113 -3.6777 -2.8187  2.9176
  938MOL0     H23779   2.728   7.474   7.136 -2.3887 -0.3842 -0.6375
  938MOL0     H23780   2.264   7.471   6.939  2.3450  0.3186  1.2797
  938MOL0     H23781   2.049   7.414   7.031  0.7683  1.5549  0.1417
  938MOL0     H23782   2.012   7.111   7.344 -0.4482 -6.0167  0.9164
  938MOL0     H23783   1.995   7.016   7.197  0.8118 -0.0408  0.3700
  938MOL0     H23784   1.759   7.191   7.304 -1.7419 -1.3032  0.5004
  938MOL0     H23785   1.782   7.035   7.369  0.7893 -2.1708 -1.3555
  938MOL0     H23786   1.755   6.934   7.146 -2.9643 -1.2581  0.7983
  938MOL0     H23787   1.715   7.102   7.090  0.4213  2.4494  2.0183
  938MOL0     H23788   1.594   6.919   7.293 -1.4197 -0.5678  1.1741
  938MOL0     H23789   1.540   7.091   7.280  3.3609  2.9189 -2.5141
  938MOL0     H23790   1.382   6.953   7.164  1.2999 -1.9007  0.9324
  938MOL0     H23791   1.510   6.852   7.110 -1.0790 -1.0535  0.2084
  938MOL0     H23792   1.549   6.987   6.917 -0.7616 -1.8621  0.5423
  938MOL0     H23793   1.509   7.127   7.007 -0.4909 -0.7461  3.2295
  938MOL0     H23794   1.253   7.047   7.002  0.6814  3.3983  0.5764
  938MOL0     H23795   1.311   7.089   6.844  0.5317 -0.6816 -1.0539
  938MOL0     H23796   1.181   6.886   6.854 -0.7547  2.8626  1.1311
  938MOL0     H23797   1.293   6.809   6.973 -2.5090 -2.3367 -0.7396
  938MOL0     H23798   2.222   7.079   7.234 -0.3547 -0.7330 -0.9895
  938MOL0     H23799   2.461   7.167   7.156  3.1639  4.7736 -0.9005
  938MOL0     H23800   2.679   7.517   6.706  1.2803  0.2026 -2.0200
  938MOL0     H23801   2.928   7.553   6.691  1.9926  2.6791  0.7759
  938MOL0     H23802   4.759   7.850   6.557 -0.0784  0.4121  0.6858
  938MOL0     H23803   5.019   7.835   6.513  1.9688  0.2416 -2.1271
  938MOL0     H23804   5.404   7.933   6.081  2.0190  1.0475  0.0123
  938MOL0     H23805   5.642   7.889   6.101 -1.8988  2.1506 -0.9341
  938MOL0     H23806   5.712   7.682   6.450 -0.1811 -0.0155 -1.2064
  938MOL0     H23807   5.846   7.783   6.527 -3.8921  3.0733  0.4870
  938MOL0     H23808   5.982   7.699   6.328  1.1025 -1.8247 -0.4221
  938MOL0     H23809   5.940   7.574   6.453 -0.0024  1.3216  0.9843
  938MOL0     H23810   5.768   7.609   6.183 -0.5308 -1.2115  0.4560
  938MOL0     H23811   5.747   7.495   6.307 -0.3736  2.2298  1.5236
  938MOL0     H23812   5.979   7.416   6.267 -2.8926 -2.5793  0.8063
  938MOL0     H23813   5.856   7.390   6.139  0.5608 -1.9605  2.1999
  938MOL0     H23814   6.162   7.649   5.980 -1.1674 -1.0218 -4.2830
  938MOL0     H23815   5.603   7.895   6.526  2.8199 -0.9038 -0.9176
  938MOL0     H23816   5.351   7.938   6.499 -1.2847  3.3044 -1.2953
  939MOL0     O23817   1.768   5.667   7.009  0.5019  0.5182  0.1424
  939MOL0     C23818   1.749   5.791   7.003 -0.2823 -0.0760 -0.5541
  939MOL0     O23819   1.623   5.861   6.993 -0.0658  0.6897 -0.3777
  939MOL0     C23820   1.512   5.780   6.981  0.0998 -0.1589 -0.7425
  939MOL0     C23821   1.396   5.806   7.066  0.0270  0.0332 -0.0355
  939MOL0     C23822   1.279   5.736   7.031  0.2727  0.1347 -0.0998
  939MOL0     C23823   1.267   5.632   6.941 -0.4273 -0.3352  0.7166
  939MOL0     O23824   1.159   5.551   6.923 -0.2456 -0.3994 -0.3042
  939MOL0     C23825   1.038   5.605   6.871  0.0250  0.4070 -0.2407
  939MOL0     C23826   0.922   5.494   6.881  0.3210 -0.4861  0.5089
  939MOL0     C23827   0.797   5.531   6.794 -0.3760  0.2126 -0.6972
  939MOL0     C23828   0.680   5.462   6.867  0.1696  0.6557  0.9829
  939MOL0     C23829   0.545   5.481   6.790  0.4666  0.0816 -0.9889
  939MOL0     C23830   0.541   5.422   6.651  0.1089  0.7928  0.9705
  939MOL0     C23831   0.429   5.478   6.553 -0.2869  0.9902  0.2266
  939MOL0     C23832   0.323   5.380   6.494  0.3597 -1.6255  0.5166
  939MOL0     N23833   0.217   5.335   6.582 -0.8918 -0.6305  0.0596
  939MOL0     C23834   0.232   5.252   6.690  0.6442  0.9253 -0.1448
  939MOL0     C23835   0.105   5.243   6.744  0.4821  0.1656 -0.2121
  939MOL0     C23836   0.070   5.169   6.870 -0.0308 -0.0384 -0.6767
  939MOL0     C23837   0.071   5.017   6.843  0.0185 -0.2682  0.1624
  939MOL0     C23838  -0.058   4.976   6.767  0.4563 -0.3570  0.4412
  939MOL0     C23839  -0.071   4.825   6.774  0.4433  0.2737  0.2444
  939MOL0     O23840  -0.169   4.791   6.877  0.9579  0.2872  1.0460
  939MOL0     C23841  -0.303   4.791   6.849 -0.2244 -0.1272 -0.5771
  939MOL0     C23842  -0.377   4.753   6.961  0.0689 -0.2981 -0.2755
  939MOL0     C23843  -0.516   4.740   6.953  0.3041 -0.3010 -0.5132
  939MOL0     C23844  -0.586   4.751   6.838  0.4265  0.7739  0.8833
  939MOL0     C23845  -0.722   4.715   6.827  0.2966  0.7824 -0.5939
  939MOL0     O23846  -0.785   4.735   6.703  0.5778  0.1143 -0.4609
  939MOL0     C23847  -0.920   4.713   6.682 -0.4382 -0.2125 -0.8898
  939MOL0     C23848  -0.977   4.585   6.709 -0.4708  0.4499 -0.2696
  939MOL0     C23849  -1.109   4.552   6.667 -0.5999  0.0959  0.3291
  939MOL0     C23850  -1.189   4.645   6.599  0.1911  1.2323 -0.2335
  939MOL0     O23851  -1.324   4.614   6.555 -0.8299 -0.2368  0.0214
  939MOL0     C23852  -1.345   4.482   6.509  0.2148 -1.3314  0.0512
  939MOL0     C23853  -1.448   4.491   6.402 -0.1544 -0.3635 -0.9968
  939MOL0     C23854  -1.387   4.524   6.264 -0.0250 -0.3321 -0.7783
  939MOL0     C23855  -1.475   4.486   6.144  0.1941 -0.1483  0.0340
  939MOL0     C23856  -1.544   4.625   6.094 -0.0460  0.8953 -0.2200
  939MOL0     C23857  -1.661   4.588   6.007  0.7673  0.1272  0.0341
  939MOL0     C23858  -1.617   4.522   5.875  0.2938  0.3138  0.0099
  939MOL0     C23859  -1.732   4.481   5.779 -0.3151  0.1538 -0.4349
  939MOL0    Cl23860  -1.861   4.386   5.863 -0.1475  0.3350  0.3643
  939MOL0     C23861  -1.134   4.773   6.575  0.1753  0.3492 -0.1428
  939MOL0     C23862  -0.999   4.807   6.621  0.0149 -0.8574  0.4099
  939MOL0     O23863  -0.774   4.656   6.928  0.5758  0.4262  0.2650
  939MOL0     C23864  -0.515   4.781   6.719  0.1621 -0.3736  0.0512
  939MOL0     C23865  -0.373   4.801   6.727  0.6787  0.6654 -0.1931
  939MOL0     N23866   0.021   5.316   6.665 -0.4766  0.8292  0.6793
  939MOL0     N23867   0.083   5.365   6.567 -0.9382  0.3624  0.1933
  939MOL0     C23868   1.386   5.590   6.883  0.0919 -1.3529  0.5066
  939MOL0     C23869   1.501   5.664   6.901  0.1930  0.3254 -0.0250
  939MOL0     C23870   1.876   5.875   6.978  0.5380  0.2979 -0.0113
  939MOL0     C23871   2.008   5.826   6.985 -0.9698  0.0689  1.1825
  939MOL0     C23872   2.126   5.903   6.958 -0.8036  0.6276 -0.0128
  939MOL0     C23873   2.113   6.035   6.920 -0.8730  1.0472 -0.0915
  939MOL0     O23874   2.210   6.121   6.885  0.2968  0.3106 -0.5196
  939MOL0     C23875   2.348   6.087   6.908 -0.5995 -0.1010 -0.3109
  939MOL0     C23876   2.401   6.041   6.773  0.6790 -0.5124  0.2480
  939MOL0     C23877   2.551   6.002   6.789 -0.3077 -0.4211  0.3907
  939MOL0     C23878   2.650   6.126   6.782  0.3023  0.4848  0.8843
  939MOL0     C23879   2.785   6.083   6.820  0.2322 -0.0855  0.0708
  939MOL0     C23880   2.891   6.029   6.863 -0.1718  0.2310 -0.8201
  939MOL0     C23881   1.980   6.085   6.901 -0.6653 -0.7148 -0.0571
  939MOL0     C23882   1.867   6.008   6.938 -0.2999 -0.3192  0.9789
  939MOL0     H23883   1.400   5.890   7.134 -0.8799 -1.3482  1.8162
  939MOL0     H23884   1.184   5.760   7.079 -0.1853  1.1095 -1.4290
  939MOL0     H23885   1.058   5.624   6.765 -1.0038 -4.5874 -1.6180
  939MOL0     H23886   1.009   5.691   6.931 -0.8608  0.2031 -0.3597
  939MOL0     H23887   0.913   5.477   6.989  2.2780  0.4123  0.8585
  939MOL0     H23888   0.965   5.400   6.844 -1.4108 -1.9618  2.0438
  939MOL0     H23889   0.816   5.502   6.691 -0.2692 -0.8501 -0.3983
  939MOL0     H23890   0.779   5.639   6.796 -4.6898 -0.3151  0.9561
  939MOL0     H23891   0.698   5.354   6.872 -0.6958  0.4991  0.9805
  939MOL0     H23892   0.653   5.502   6.965 -3.6063 -2.3138  1.4103
  939MOL0     H23893   0.540   5.590   6.776  0.5350  0.0518 -1.2410
  939MOL0     H23894   0.461   5.443   6.848  0.1247 -0.9305 -2.1155
  939MOL0     H23895   0.525   5.315   6.668 -0.2992  0.6307 -0.3676
  939MOL0     H23896   0.640   5.445   6.610  2.0992 -1.9143  3.7659
  939MOL0     H23897   0.392   5.573   6.595  0.5601  1.5470 -0.2505
  939MOL0     H23898   0.486   5.504   6.463  1.5106  1.1014  1.3440
  939MOL0     H23899   0.372   5.287   6.465  0.3700 -1.5978  0.4452
  939MOL0     H23900   0.266   5.429   6.415 -1.8569  1.7562  3.8687
  939MOL0     H23901   0.327   5.218   6.731  1.5730 -1.7919 -4.0009
  939MOL0     H23902  -0.029   5.193   6.909 -0.7332 -2.1602 -1.0532
  939MOL0     H23903   0.137   5.188   6.955 -1.8296 -1.6559  1.1857
  939MOL0     H23904   0.067   4.975   6.944  1.1829  2.6314  1.5243
  939MOL0     H23905   0.161   4.974   6.796  1.1929  0.0311  2.0334
  939MOL0     H23906  -0.153   5.024   6.794 -0.8710 -2.3908 -0.3538
  939MOL0     H23907  -0.044   5.005   6.662 -0.0071 -0.1769  0.4242
  939MOL0     H23908   0.025   4.780   6.799 -0.2732 -1.3421  0.2442
  939MOL0     H23909  -0.123   4.791   6.684 -1.0952  1.7634  0.5111
  939MOL0     H23910  -0.328   4.727   7.054 -1.1240 -1.6598 -0.0060
  939MOL0     H23911  -0.571   4.701   7.038  0.9380  1.4790  0.7804
  939MOL0     H23912  -0.916   4.519   6.770 -0.1798  2.3559  1.6371
  939MOL0     H23913  -1.157   4.460   6.698  1.6099 -0.4735  2.3067
  939MOL0     H23914  -1.376   4.424   6.597 -1.2043 -1.1021 -0.2690
  939MOL0     H23915  -1.260   4.434   6.459  0.8590 -0.6482  0.4815
  939MOL0     H23916  -1.538   4.552   6.411 -0.1413  0.2234 -3.8908
  939MOL0     H23917  -1.482   4.388   6.391  0.4368 -1.2657  3.5340
  939MOL0     H23918  -1.293   4.470   6.256 -0.0325 -0.8417  1.6598
  939MOL0     H23919  -1.366   4.631   6.255  1.0627 -0.4635 -0.0134
  939MOL0     H23920  -1.407   4.446   6.069  1.9277  0.3559  1.2745
  939MOL0     H23921  -1.554   4.418   6.179 -3.1336  3.5027  0.3802
  939MOL0     H23922  -1.466   4.684   6.045 -0.1946  1.9926  0.8335
  939MOL0     H23923  -1.584   4.680   6.179 -0.2404 -1.2639  1.1410
  939MOL0     H23924  -1.736   4.666   5.994 -0.1742 -1.0246 -1.8552
  939MOL0     H23925  -1.711   4.510   6.064 -1.2749  1.5433  0.2893
  939MOL0     H23926  -1.557   4.595   5.820  0.8230  1.4483  1.9789
  939MOL0     H23927  -1.558   4.432   5.892  1.9730  1.0951 -1.3402
  939MOL0     H23928  -1.698   4.420   5.694 -2.1886 -0.9344 -0.4444
  939MOL0     H23929  -1.784   4.569   5.740 -0.9979 -0.3769 -0.7426
  939MOL0     H23930  -1.192   4.842   6.516 -3.4893  0.2830  2.9833
  939MOL0     H23931  -0.960   4.898   6.576 -0.8775 -0.3867  0.5650
  939MOL0     H23932  -0.565   4.765   6.624  3.6823 -1.6701 -1.7880
  939MOL0     H23933  -0.327   4.816   6.629  0.5575 -0.6140 -0.4670
  939MOL0     H23934   1.377   5.504   6.817 -0.7446 -0.5258 -0.4857
  939MOL0     H23935   1.592   5.636   6.849  1.3907  2.5059  0.7948
  939MOL0     H23936   2.016   5.718   6.992  1.4154  0.0415 -0.8070
  939MOL0     H23937   2.223   5.857   6.973 -1.9989 -1.7842  0.8974
  939MOL0     H23938   2.370   6.019   6.990 -0.2928  0.7514  0.3376
  939MOL0     H23939   2.396   6.177   6.946 -0.0667 -1.6042  2.8226
  939MOL0     H23940   2.346   5.953   6.738  0.0819  0.3226 -0.9941
  939MOL0     H23941   2.386   6.122   6.701 -0.1958 -1.1354 -0.2822
  939MOL0     H23942   2.582   5.927   6.716  0.5893  0.1886  0.1237
  939MOL0     H23943   2.550   5.948   6.884 -2.6512  3.0517  2.5926
  939MOL0     H23944   2.654   6.173   6.683  4.2304  0.7816  1.0292
  939MOL0     H23945   2.612   6.197   6.855  0.6517  1.9329 -0.2896
  939MOL0     H23946   2.975   5.983   6.911  1.8564  3.7932 -0.5472
  939MOL0     H23947   1.965   6.184   6.859 -2.1504 -0.0270  1.9368
  939MOL0     H23948   1.771   6.057   6.928  0.5202  1.0981 -0.6613
  940MOL0     O23949   4.805  10.336   8.119 -0.2974  1.0513  0.0649
  940MOL0     C23950   4.839  10.228   8.175  0.6801 -0.5699  0.1901
  940MOL0     O23951   4.964  10.180   8.172  0.6655  0.5248 -1.4706
  940MOL0     C23952   5.056  10.239   8.096  0.0254  1.0727 -0.2397
  940MOL0     C23953   5.188  10.216   8.144 -0.0830 -0.2417  0.1492
  940MOL0     C23954   5.299  10.248   8.060  0.5738  0.2865  0.2882
  940MOL0     C23955   5.272  10.297   7.936  0.6191  0.2146 -0.8264
  940MOL0     O23956   5.384  10.320   7.863  0.1362 -0.4989  0.4178
  940MOL0     C23957   5.415  10.465   7.832 -0.1252  0.3168 -0.2329
  940MOL0     C23958   5.547  10.459   7.755 -0.9996  0.1771 -0.6108
  940MOL0     C23959   5.664  10.417   7.854  0.0479  0.5710  0.0574
  940MOL0     C23960   5.805  10.422   7.795  0.0789 -0.3407 -0.4171
  940MOL0     C23961   5.906  10.326   7.855 -0.3947  1.0884  0.5162
  940MOL0     C23962   5.873  10.183   7.833 -0.2031  0.6602  0.1198
  940MOL0     C23963   5.968  10.087   7.914 -0.5741  0.1110  0.0563
  940MOL0     C23964   5.940   9.936   7.886  0.0254 -0.4950  0.1110
  940MOL0     N23965   5.818   9.895   7.953 -0.4120 -0.7571  0.1706
  940MOL0     C23966   5.806   9.861   8.091 -1.1880  0.7470  0.9468
  940MOL0     C23967   5.672   9.864   8.120  0.7344  0.5174  0.4683
  940MOL0     C23968   5.627   9.831   8.255 -0.3280  0.5623 -0.1212
  940MOL0     C23969   5.517   9.924   8.301 -0.8982 -0.6456 -0.0865
  940MOL0     C23970   5.473   9.900   8.444 -0.7119  0.1786  0.0354
  940MOL0     C23971   5.381  10.018   8.495 -0.1704 -0.1714  0.8062
  940MOL0     O23972   5.249  10.013   8.428 -0.1392  0.6433  0.5119
  940MOL0     C23973   5.139  10.055   8.498 -1.6461  0.4964  0.1726
  940MOL0     C23974   5.044   9.957   8.533 -1.2473  0.2609  0.7668
  940MOL0     C23975   4.928  10.001   8.587 -0.5288  0.0063 -0.3301
  940MOL0     C23976   4.906  10.142   8.605  1.2803  0.2999  0.6166
  940MOL0     C23977   4.778  10.192   8.656 -0.1784  0.7411 -0.7423
  940MOL0     O23978   4.701  10.099   8.726  0.9189 -0.0053  0.1405
  940MOL0     C23979   4.580  10.132   8.791  0.7554  0.1936  0.0842
  940MOL0     C23980   4.504  10.023   8.828 -0.7070 -0.1938  0.1910
  940MOL0     C23981   4.393  10.039   8.907 -0.0736  0.1631 -0.0678
  940MOL0     C23982   4.352  10.166   8.946  0.6517  0.3089 -0.2826
  940MOL0     O23983   4.233  10.181   9.014  0.8350 -0.1739 -0.4572
  940MOL0     C23984   4.167  10.308   9.043 -0.4278  0.6823  0.8645
  940MOL0     C23985   4.024  10.305   9.108 -0.2747  0.3892 -0.7295
  940MOL0     C23986   4.031  10.213   9.233  0.8867  0.1364  0.4163
  940MOL0     C23987   3.896  10.221   9.295 -0.8165  0.7879 -0.6138
  940MOL0     C23988   3.908  10.175   9.443  0.0617  0.2149 -0.0610
  940MOL0     C23989   3.767  10.171   9.524 -1.2107 -0.4249  0.3427
  940MOL0     C23990   3.773  10.166   9.679 -0.1615 -0.0139  0.2484
  940MOL0     C23991   3.640  10.205   9.734 -0.4758  0.3782 -0.0772
  940MOL0    Cl23992   3.681  10.250   9.907 -0.4547 -0.2383 -0.6848
  940MOL0     C23993   4.429  10.279   8.904  0.6836  0.1799  0.3397
  940MOL0     C23994   4.537  10.261   8.828 -0.1520 -0.1352  0.5507
  940MOL0     O23995   4.748  10.307   8.631 -0.0818  0.4873 -0.1611
  940MOL0     C23996   4.999  10.240   8.553 -0.3275  1.4342 -0.8384
  940MOL0     C23997   5.125  10.192   8.512  0.2402 -0.7713  0.0411
  940MOL0     N23998   5.607   9.879   7.994 -0.4071 -0.2997 -0.0598
  940MOL0     N23999   5.691   9.898   7.904  0.0445  0.4160 -0.0993
  940MOL0     C24000   5.145  10.331   7.886  0.4395  0.0241  0.2530
  940MOL0     C24001   5.034  10.290   7.969 -0.3109 -0.2973 -0.2311
  940MOL0     C24002   4.744  10.139   8.252  0.2673 -0.1903 -0.1625
  940MOL0     C24003   4.780  10.011   8.299 -0.5326 -0.1310  0.7072
  940MOL0     C24004   4.684   9.932   8.371  0.1307  0.1468  0.0690
  940MOL0     C24005   4.548   9.969   8.389 -0.2340 -0.2461 -1.1546
  940MOL0     O24006   4.442   9.895   8.432 -0.3029 -0.0420 -0.1825
  940MOL0     C24007   4.470   9.760   8.473  0.6213  0.6419  0.4302
  940MOL0     C24008   4.341   9.702   8.541 -0.7591  0.0859  0.0950
  940MOL0     C24009   4.238   9.689   8.428  1.4326 -0.2076  0.7347
  940MOL0     C24010   4.107   9.618   8.463  0.1537  0.2765  0.5672
  940MOL0     C24011   3.992   9.670   8.393 -0.2677 -0.5981 -0.0853
  940MOL0     C24012   3.916   9.732   8.323 -0.2131 -0.1105  0.4926
  940MOL0     C24013   4.519  10.101   8.346  0.2738  1.1638  0.7547
  940MOL0     C24014   4.611  10.187   8.288 -1.1805 -0.8094  0.7276
  940MOL0     H24015   5.205  10.167   8.240  2.1485  1.1698  0.5565
  940MOL0     H24016   5.401  10.229   8.092 -0.0259 -1.9198  1.0323
  940MOL0     H24017   5.428  10.531   7.918  0.9658 -0.2473  0.0602
  940MOL0     H24018   5.340  10.508   7.765  0.9486 -1.0210 -2.4219
  940MOL0     H24019   5.562  10.556   7.708  0.2371 -0.3102 -1.2859
  940MOL0     H24020   5.545  10.376   7.683  3.2915  1.1567 -2.1435
  940MOL0     H24021   5.637  10.312   7.872  1.3595  0.2156  0.0755
  940MOL0     H24022   5.658  10.470   7.950  0.7296  0.0027  0.4242
  940MOL0     H24023   5.812  10.410   7.687 -0.6816  0.8596 -0.6149
  940MOL0     H24024   5.839  10.524   7.811 -0.2931 -0.2414 -0.2370
  940MOL0     H24025   5.902  10.342   7.963 -2.3766 -0.6040  0.7700
  940MOL0     H24026   6.008  10.340   7.816 -0.2406 -3.7664 -1.5692
  940MOL0     H24027   5.888  10.165   7.727  0.6057 -1.3603  0.5316
  940MOL0     H24028   5.769  10.153   7.852  0.2290 -0.4671  0.8197
  940MOL0     H24029   6.073  10.110   7.890  0.0745 -2.5710 -0.0372
  940MOL0     H24030   5.955  10.098   8.022 -1.3520 -0.0096 -0.0236
  940MOL0     H24031   6.014   9.867   7.926  2.2390  3.1281  2.9267
  940MOL0     H24032   5.927   9.921   7.778  1.2409  2.1010 -0.4743
  940MOL0     H24033   5.884   9.822   8.156 -0.5985 -3.3002 -1.8135
  940MOL0     H24034   5.720   9.822   8.312 -0.3159  1.5212  0.0301
  940MOL0     H24035   5.597   9.726   8.249 -1.7561  0.9543 -0.2575
  940MOL0     H24036   5.437   9.924   8.228 -1.0362  2.2001 -0.0426
  940MOL0     H24037   5.543  10.030   8.304 -0.3938 -0.7625  2.6132
  940MOL0     H24038   5.436   9.800   8.466  2.2764 -0.3697  3.6613
  940MOL0     H24039   5.566   9.895   8.502  1.0048  0.3527 -2.5124
  940MOL0     H24040   5.432  10.108   8.459  1.0527 -1.5535 -1.1544
  940MOL0     H24041   5.369  10.022   8.604 -3.0302 -2.2923  0.6778
  940MOL0     H24042   5.050   9.852   8.506  2.1167  0.6722 -0.6870
  940MOL0     H24043   4.846   9.931   8.602  0.6345 -1.5842 -1.0611
  940MOL0     H24044   4.538   9.934   8.775 -0.1982  1.3010 -2.1158
  940MOL0     H24045   4.358   9.941   8.935  2.5802 -1.0691 -0.7648
  940MOL0     H24046   4.157  10.358   8.946  0.1741  1.9665  1.4484
  940MOL0     H24047   4.239  10.360   9.107  0.8960  3.1318 -2.3420
  940MOL0     H24048   3.959  10.249   9.040  1.8383 -1.3681 -1.4032
  940MOL0     H24049   4.004  10.409   9.136 -0.3091  0.9230 -2.6427
  940MOL0     H24050   4.110  10.262   9.291  1.7021  0.2777 -0.7606
  940MOL0     H24051   4.067  10.111   9.216 -0.1406 -0.1116 -0.3567
  940MOL0     H24052   3.850  10.320   9.295 -1.8828  0.3096 -0.1800
  940MOL0     H24053   3.828  10.156   9.240  0.5177  1.2714 -2.9453
  940MOL0     H24054   3.976  10.241   9.497  1.0688 -0.3784 -0.5858
  940MOL0     H24055   3.962  10.080   9.451  2.0653  1.0899 -2.1329
  940MOL0     H24056   3.703  10.090   9.486  3.9225 -4.7483 -0.2869
  940MOL0     H24057   3.718  10.263   9.490 -0.8207 -0.6239 -0.8014
  940MOL0     H24058   3.786  10.064   9.718 -0.8458  0.8678  3.0027
  940MOL0     H24059   3.856  10.222   9.723 -0.8464 -0.5413  2.3368
  940MOL0     H24060   3.563  10.127   9.738 -0.6845  0.6044  0.3275
  940MOL0     H24061   3.610  10.291   9.674 -0.4900 -0.0111 -0.6407
  940MOL0     H24062   4.404  10.380   8.934  0.4105 -0.7294  3.5176
  940MOL0     H24063   4.600  10.347   8.808 -2.2935  1.4091  0.0589
  940MOL0     H24064   4.965  10.343   8.555 -0.0981  1.5333 -1.6114
  940MOL0     H24065   5.197  10.266   8.480 -0.6307  2.2852  4.2172
  940MOL0     H24066   5.132  10.365   7.783 -1.0324  0.6044  0.6071
  940MOL0     H24067   4.933  10.301   7.930  0.1143 -1.8934 -1.9359
  940MOL0     H24068   4.881   9.973   8.284 -0.3609  0.8142 -0.7987
  940MOL0     H24069   4.712   9.831   8.398  0.6062  0.0361 -0.7957
  940MOL0     H24070   4.543   9.757   8.554 -0.4861  0.1058  1.4320
  940MOL0     H24071   4.502   9.690   8.395  0.1977  0.7574  0.1473
  940MOL0     H24072   4.351   9.602   8.584 -1.7799  0.3094  0.8872
  940MOL0     H24073   4.295   9.761   8.620 -1.0712  0.3167 -0.2554
  940MOL0     H24074   4.281   9.622   8.352 -1.1971 -0.1246 -0.9500
  940MOL0     H24075   4.226   9.788   8.384 -1.6166 -1.3637 -1.3335
  940MOL0     H24076   4.112   9.511   8.441  0.2584  0.5299 -0.7348
  940MOL0     H24077   4.089   9.641   8.568  0.6701  0.7420  0.5532
  940MOL0     H24078   3.853   9.787   8.256  2.0007 -0.2425 -1.8769
  940MOL0     H24079   4.425  10.138   8.386  0.2550  1.1568  0.7177
  940MOL0     H24080   4.573  10.285   8.264 -2.5682 -0.6592  3.2067
  941MOL0     O24081  10.278   3.883   4.413 -0.1413  0.4917 -0.0888
  941MOL0     C24082  10.313   3.880   4.297  0.3086 -0.3764 -0.0026
  941MOL0     O24083  10.238   3.828   4.188  0.2915  0.2731 -0.2395
  941MOL0     C24084  10.124   3.750   4.200  0.4347  0.7732 -0.1988
  941MOL0     C24085  10.083   3.688   4.318  0.0008  0.9788 -0.4019
  941MOL0     C24086   9.983   3.593   4.321  0.8747  0.3322  0.3308
  941MOL0     C24087   9.919   3.559   4.202  0.7619 -0.0073 -0.1933
  941MOL0     O24088   9.828   3.457   4.198 -0.1955  0.1404  0.3954
  941MOL0     C24089   9.725   3.451   4.292  0.9641  0.6847 -0.3005
  941MOL0     C24090   9.630   3.572   4.280 -0.6806  1.2216  0.9076
  941MOL0     C24091   9.587   3.617   4.138 -0.2801  0.7843  0.3990
  941MOL0     C24092   9.504   3.503   4.074 -0.3097  0.4998 -0.8426
  941MOL0     C24093   9.477   3.543   3.933 -0.0273  0.8932 -0.0768
  941MOL0     C24094   9.348   3.482   3.875  0.7064  0.9849 -0.1964
  941MOL0     C24095   9.330   3.490   3.722  0.6253  0.3713  0.6578
  941MOL0     C24096   9.198   3.440   3.655 -0.4353 -0.2352 -0.3868
  941MOL0     N24097   9.187   3.297   3.665 -0.2047 -0.5767 -0.1148
  941MOL0     C24098   9.217   3.217   3.557 -0.3050 -0.5042  0.2014
  941MOL0     C24099   9.200   3.090   3.596  0.6555 -0.3097  0.0796
  941MOL0     C24100   9.233   2.965   3.515 -0.3387 -0.4276  0.1601
  941MOL0     C24101   9.370   2.900   3.570 -0.1981  0.4182  0.1559
  941MOL0     C24102   9.493   2.981   3.553 -0.8175 -0.6877  0.8129
  941MOL0     C24103   9.564   2.948   3.423  0.3794  0.3523  1.1083
  941MOL0     O24104   9.612   2.814   3.421  0.0329 -0.5303 -0.1154
  941MOL0     C24105   9.739   2.786   3.440 -0.1558 -0.9865 -0.3363
  941MOL0     C24106   9.834   2.869   3.513 -0.1473 -0.5641  0.1770
  941MOL0     C24107   9.963   2.824   3.523 -0.4111  0.0963 -0.0412
  941MOL0     C24108  10.007   2.699   3.461 -0.2749 -0.3163 -0.6169
  941MOL0     C24109  10.149   2.660   3.482  0.8412 -0.3312  0.1591
  941MOL0     O24110  10.183   2.536   3.435  0.2525  0.3347  0.0368
  941MOL0     C24111  10.315   2.498   3.442 -0.9744  0.1747  0.5605
  941MOL0     C24112  10.413   2.531   3.339 -0.4162  0.7186  0.0499
  941MOL0     C24113  10.541   2.473   3.348  0.1401 -0.5611 -0.5766
  941MOL0     C24114  10.577   2.394   3.459 -0.0173 -0.4214 -0.4779
  941MOL0     O24115  10.700   2.335   3.448  0.6066 -0.2099  0.1415
  941MOL0     C24116  10.780   2.351   3.560  0.0094  0.8761  0.0293
  941MOL0     C24117  10.929   2.332   3.511  0.2689 -0.6693  0.6249
  941MOL0     C24118  11.045   2.358   3.596 -0.7112  0.8198  0.1684
  941MOL0     C24119  11.177   2.326   3.526  0.2604  0.6126  0.6707
  941MOL0     C24120  11.288   2.341   3.621  0.1857  0.0678 -1.0903
  941MOL0     C24121  11.417   2.276   3.579  0.4031 -0.4135  0.1709
  941MOL0     C24122  11.532   2.306   3.685 -0.0909  0.2510 -0.1010
  941MOL0     C24123  11.655   2.221   3.674  0.3045  1.2047 -0.6920
  941MOL0    Cl24124  11.791   2.269   3.783  0.6576  0.0392  0.5165
  941MOL0     C24125  10.489   2.365   3.566  0.1813  0.0895 -0.5695
  941MOL0     C24126  10.356   2.420   3.552 -0.6756 -0.1490  0.4007
  941MOL0     O24127  10.230   2.748   3.513 -0.1493  0.0010  0.1802
  941MOL0     C24128   9.914   2.616   3.398 -0.0484 -0.3525 -0.2021
  941MOL0     C24129   9.783   2.662   3.392 -0.2852 -0.3164  0.3328
  941MOL0     N24130   9.140   3.102   3.726  0.1504 -0.7271 -0.0372
  941MOL0     N24131   9.128   3.224   3.762 -0.1084  0.6514  0.8552
  941MOL0     C24132   9.954   3.630   4.084 -0.1774 -0.3208 -0.4026
  941MOL0     C24133  10.050   3.724   4.084 -0.1799 -0.5775 -0.8447
  941MOL0     C24134  10.446   3.938   4.268  0.4859 -0.7637 -0.5650
  941MOL0     C24135  10.510   3.946   4.141 -0.3372  0.7094  0.4389
  941MOL0     C24136  10.644   3.968   4.139  0.3310  0.1163 -0.5564
  941MOL0     C24137  10.720   4.005   4.252 -0.1292 -0.0035 -0.2381
  941MOL0     O24138  10.851   4.042   4.245  0.1911  0.4258  0.4445
  941MOL0     C24139  10.920   4.034   4.122  0.6371 -0.4819 -0.4619
  941MOL0     C24140  11.074   4.049   4.147  0.1637  0.2813 -0.0008
  941MOL0     C24141  11.128   3.906   4.160 -0.1164  0.4681 -0.7303
  941MOL0     C24142  11.280   3.905   4.176  0.5959  0.7925  0.2692
  941MOL0     C24143  11.332   3.996   4.281 -0.0441 -0.1092 -0.4677
  941MOL0     C24144  11.359   4.071   4.375 -0.4172  0.3859  0.0045
  941MOL0     C24145  10.650   4.009   4.380 -0.4679  0.2262  0.0898
  941MOL0     C24146  10.523   3.972   4.387  0.1859  0.2689 -0.2342
  941MOL0     H24147  10.137   3.683   4.412 -1.3369 -2.9430  0.3564
  941MOL0     H24148   9.970   3.527   4.406 -0.9967 -1.5612 -1.3156
  941MOL0     H24149   9.761   3.451   4.395  1.9798  0.8451 -0.6518
  941MOL0     H24150   9.674   3.356   4.271 -0.8031  1.5570 -0.1334
  941MOL0     H24151   9.684   3.658   4.322  0.6704  0.6524  0.3836
  941MOL0     H24152   9.539   3.550   4.336 -1.8239 -0.2009 -1.3615
  941MOL0     H24153   9.673   3.643   4.074 -1.0633  0.5901 -0.7640
  941MOL0     H24154   9.534   3.712   4.155  1.1780  1.7102 -0.0018
  941MOL0     H24155   9.554   3.406   4.074 -3.2298 -1.1373 -1.3038
  941MOL0     H24156   9.415   3.488   4.136 -1.1492  1.0088 -1.8974
  941MOL0     H24157   9.570   3.528   3.876  0.6927  1.6174  0.8865
  941MOL0     H24158   9.455   3.650   3.929 -4.7561  0.1460  0.3213
  941MOL0     H24159   9.264   3.535   3.921 -1.2788  1.5577 -4.0211
  941MOL0     H24160   9.338   3.376   3.903 -1.0406  1.2199  0.1644
  941MOL0     H24161   9.349   3.595   3.699  0.1226  0.4022  0.3517
  941MOL0     H24162   9.414   3.437   3.676  0.8694  1.9014 -0.7628
  941MOL0     H24163   9.197   3.462   3.548  1.4359 -1.6596 -0.7336
  941MOL0     H24164   9.121   3.502   3.702  2.0343  0.8598  2.5868
  941MOL0     H24165   9.274   3.239   3.468 -0.3621 -1.5433 -0.1068
  941MOL0     H24166   9.240   2.989   3.409 -0.1751  2.0321  0.6587
  941MOL0     H24167   9.146   2.901   3.526 -2.2522  1.8832 -0.6658
  941MOL0     H24168   9.383   2.802   3.523 -0.0233  0.2039  0.6465
  941MOL0     H24169   9.348   2.876   3.674  2.0353  0.6007  0.7243
  941MOL0     H24170   9.478   3.090   3.558  1.1247 -0.3976  0.8748
  941MOL0     H24171   9.558   2.954   3.637  0.3818  1.3592  0.6088
  941MOL0     H24172   9.646   3.017   3.398 -1.4471  2.4833  0.7350
  941MOL0     H24173   9.489   2.952   3.344  0.0076  1.1142  1.4862
  941MOL0     H24174   9.816   2.968   3.553 -0.4885 -0.9928  1.0967
  941MOL0     H24175  10.035   2.896   3.559 -0.1079  0.9251 -2.1595
  941MOL0     H24176  10.392   2.599   3.258  0.9544  0.5175 -0.5008
  941MOL0     H24177  10.626   2.489   3.282  1.1675 -0.9432  0.6234
  941MOL0     H24178  10.757   2.274   3.634  2.0089 -0.1414 -0.3397
  941MOL0     H24179  10.770   2.455   3.592 -0.8451  0.5277  0.9627
  941MOL0     H24180  10.925   2.406   3.430 -0.1433 -0.5994  0.7068
  941MOL0     H24181  10.942   2.235   3.462 -0.0791  1.4790 -4.3607
  941MOL0     H24182  11.030   2.305   3.690 -0.5009 -1.0144 -0.8002
  941MOL0     H24183  11.056   2.464   3.624 -0.2153  0.2503  2.2421
  941MOL0     H24184  11.185   2.222   3.492 -2.3670  0.6635 -0.4198
  941MOL0     H24185  11.195   2.399   3.446  0.1522 -0.1265 -0.0502
  941MOL0     H24186  11.270   2.293   3.718  3.2557  1.5808  0.3834
  941MOL0     H24187  11.307   2.446   3.645 -0.5560  0.0199 -0.2119
  941MOL0     H24188  11.450   2.308   3.480  2.3472 -1.5528  0.3958
  941MOL0     H24189  11.406   2.168   3.566  2.5644 -0.6832  0.2244
  941MOL0     H24190  11.571   2.405   3.658  2.2239 -0.0490  1.8419
  941MOL0     H24191  11.502   2.301   3.790 -0.3437  0.0836 -0.1798
  941MOL0     H24192  11.683   2.222   3.568 -1.3224  1.1222 -1.1479
  941MOL0     H24193  11.637   2.115   3.696  0.5908  1.6358  1.9773
  941MOL0     H24194  10.510   2.304   3.653 -2.3612  0.2075  0.2214
  941MOL0     H24195  10.276   2.408   3.625 -1.9753  2.1805 -0.5279
  941MOL0     H24196   9.942   2.525   3.345 -0.1161  0.1584 -1.1332
  941MOL0     H24197   9.710   2.599   3.342  2.4527 -0.8475 -3.4427
  941MOL0     H24198   9.913   3.591   3.992 -0.2282 -0.0288 -0.5021
  941MOL0     H24199  10.077   3.779   3.995  0.1511  3.8896  1.7047
  941MOL0     H24200  10.468   3.925   4.043  2.4543 -0.7138 -0.5742
  941MOL0     H24201  10.692   3.975   4.042  0.6019  0.2391 -0.4112
  941MOL0     H24202  10.882   4.118   4.063 -0.9913 -1.1556 -0.4389
  941MOL0     H24203  10.892   3.949   4.059 -2.1571 -0.0135  0.0339
  941MOL0     H24204  11.125   4.088   4.058  1.9372  3.3644  2.1838
  941MOL0     H24205  11.088   4.123   4.225  1.0815 -0.0156  0.1197
  941MOL0     H24206  11.089   3.838   4.084  4.2145 -1.9181 -1.1341
  941MOL0     H24207  11.072   3.874   4.248 -3.0988  1.5161 -2.1184
  941MOL0     H24208  11.315   3.803   4.198 -0.4208  0.5891  0.9803
  941MOL0     H24209  11.329   3.931   4.081 -0.0550 -0.8878 -0.5803
  941MOL0     H24210  11.393   4.130   4.458  0.1129  0.9166 -0.5693
  941MOL0     H24211  10.709   4.037   4.466 -0.5776 -0.0164  0.2427
  941MOL0     H24212  10.473   3.983   4.483  0.5691  2.6263 -0.2531
  942MOL0     O24213  10.011  11.151   1.001 -0.1919 -0.0984  0.1191
  942MOL0     C24214  10.109  11.102   0.943  0.1004 -0.4213 -0.1898
  942MOL0     O24215  10.111  11.031   0.823  0.1366 -0.2335  0.0727
  942MOL0     C24216  10.010  11.034   0.727 -0.0286 -0.3383 -0.0801
  942MOL0     C24217   9.876  11.092   0.737  0.3160 -0.4634  0.5899
  942MOL0     C24218   9.785  11.096   0.631  0.2458 -0.1611  0.8034
  942MOL0     C24219   9.830  11.028   0.518  0.1302  0.1877 -0.3021
  942MOL0     O24220   9.752  11.009   0.403 -0.5522 -0.0202  0.2052
  942MOL0     C24221   9.668  11.116   0.353  0.5048 -0.3897  0.3910
  942MOL0     C24222   9.747  11.244   0.338  0.3799 -0.5022  0.1964
  942MOL0     C24223   9.684  11.342   0.234 -0.1175 -1.2726  0.6980
  942MOL0     C24224   9.788  11.454   0.220 -0.9345  0.0636 -0.5754
  942MOL0     C24225   9.719  11.585   0.173 -0.0966  0.5575 -0.3388
  942MOL0     C24226   9.651  11.582   0.034  0.8277  0.0106  0.8593
  942MOL0     C24227   9.648  11.715  -0.031  0.0397  0.2675  0.2135
  942MOL0     C24228   9.545  11.806   0.027  0.1248  0.5107  0.5091
  942MOL0     N24229   9.406  11.756   0.010  0.1145 -1.1400  0.1948
  942MOL0     C24230   9.328  11.757  -0.106  0.1156 -0.5297  0.6103
  942MOL0     C24231   9.216  11.695  -0.072  0.0276 -0.1528 -0.6334
  942MOL0     C24232   9.102  11.678  -0.159  0.3091  0.8013 -1.1546
  942MOL0     C24233   8.974  11.612  -0.095  0.3227  0.3171 -0.4283
  942MOL0     C24234   8.853  11.632  -0.189  0.2075  0.1592  0.6019
  942MOL0     C24235   8.726  11.556  -0.142 -0.1246  0.3422 -0.0839
  942MOL0     O24236   8.755  11.423  -0.113  0.0439  0.5781  0.4154
  942MOL0     C24237   8.656  11.321  -0.088 -0.0910 -0.1651 -0.1218
  942MOL0     C24238   8.517  11.334  -0.085 -0.1309 -0.0516 -0.6661
  942MOL0     C24239   8.436  11.227  -0.048 -0.0311  0.2602 -0.6747
  942MOL0     C24240   8.491  11.097  -0.016 -0.8740 -1.5788  1.3576
  942MOL0     C24241   8.401  10.985   0.015  0.3696  0.9623 -0.2846
  942MOL0     O24242   8.270  11.007   0.018  0.2708  0.1370 -0.6035
  942MOL0     C24243   8.180  10.906  -0.007  1.2561 -0.6869 -0.2321
  942MOL0     C24244   8.201  10.813  -0.111  0.1423 -0.0151 -0.2732
  942MOL0     C24245   8.109  10.706  -0.125 -0.1360  0.1534  0.6286
  942MOL0     C24246   7.995  10.697  -0.052  0.3411  0.1242 -0.6211
  942MOL0     O24247   7.899  10.592  -0.049  0.6222  0.5675  0.6121
  942MOL0     C24248   7.924  10.497  -0.151 -0.3219 -0.5828  0.7260
  942MOL0     C24249   7.829  10.383  -0.125  0.0383  0.4868  0.3496
  942MOL0     C24250   7.680  10.425  -0.111 -0.3720 -0.8282  1.2789
  942MOL0     C24251   7.594  10.304  -0.129 -0.3843 -0.0740  0.3564
  942MOL0     C24252   7.438  10.322  -0.090  0.7534  0.0103  0.1110
  942MOL0     C24253   7.369  10.382  -0.211  0.4163  0.0350  0.0915
  942MOL0     C24254   7.218  10.393  -0.183  0.2688 -0.4997  0.4270
  942MOL0     C24255   7.136  10.429  -0.303  0.9225 -1.0995  0.2117
  942MOL0    Cl24256   7.106  10.276  -0.392  0.2728  0.1035 -0.2505
  942MOL0     C24257   7.979  10.790   0.044  0.5233  0.4078  0.1543
  942MOL0     C24258   8.061  10.891   0.072 -1.1377 -0.9079 -0.0378
  942MOL0     O24259   8.451  10.877   0.027 -0.2050  0.4552  0.2710
  942MOL0     C24260   8.623  11.088  -0.019  0.2009 -0.4963  0.3683
  942MOL0     C24261   8.707  11.195  -0.057  0.6147 -0.0461  0.2567
  942MOL0     N24262   9.218  11.667   0.065  0.1224  0.3662 -0.3840
  942MOL0     N24263   9.335  11.710   0.117 -0.6458  0.1791  0.1272
  942MOL0     C24264   9.956  10.970   0.499  0.4934 -0.3075  0.0110
  942MOL0     C24265  10.048  10.981   0.602  0.4243 -0.6752 -0.5262
  942MOL0     C24266  10.240  11.091   1.017 -0.7472  0.4570  0.5758
  942MOL0     C24267  10.338  11.007   0.960 -0.5275 -0.3110  0.0230
  942MOL0     C24268  10.466  10.997   1.024  0.7918 -0.8877  0.0996
  942MOL0     C24269  10.496  11.082   1.134  0.3286 -0.2343  0.6374
  942MOL0     O24270  10.624  11.075   1.168  0.3704  0.1644  0.0413
  942MOL0     C24271  10.670  11.140   1.277 -0.2357 -1.0558 -0.1655
  942MOL0     C24272  10.806  11.082   1.308 -1.0599 -0.0812  0.7311
  942MOL0     C24273  10.826  10.958   1.397 -0.0968 -0.2919  0.2878
  942MOL0     C24274  10.963  10.888   1.370 -1.0382  0.2319 -0.5351
  942MOL0     C24275  10.981  10.760   1.437 -0.0065  0.0491 -0.5631
  942MOL0     C24276  10.993  10.645   1.472 -0.8091 -0.3582  0.3261
  942MOL0     C24277  10.396  11.155   1.196 -0.4182  0.2892  0.2664
  942MOL0     C24278  10.268  11.162   1.134 -0.2005 -0.6043  0.2167
  942MOL0     H24279   9.841  11.133   0.832  0.6351  1.2234  0.0064
  942MOL0     H24280   9.690  11.148   0.636 -0.2899 -1.0171 -0.1412
  942MOL0     H24281   9.584  11.131   0.420 -1.7435  1.3040 -2.5806
  942MOL0     H24282   9.637  11.080   0.254  1.6499  1.5395 -0.7323
  942MOL0     H24283   9.848  11.218   0.305 -0.5268 -0.2479 -3.1128
  942MOL0     H24284   9.759  11.292   0.436  0.0657 -2.5352  1.2771
  942MOL0     H24285   9.584  11.378   0.262  0.9090  0.8086  1.9194
  942MOL0     H24286   9.677  11.291   0.138 -1.6217  0.3844 -0.1329
  942MOL0     H24287   9.833  11.467   0.318  1.6972 -2.2407 -1.3547
  942MOL0     H24288   9.865  11.420   0.150 -0.2510  1.3417 -0.4600
  942MOL0     H24289   9.812  11.643   0.164  0.7661 -0.9861 -1.9624
  942MOL0     H24290   9.648  11.623   0.247 -1.3009 -0.2224 -1.0675
  942MOL0     H24291   9.552  11.538   0.049  0.6057  0.1966 -0.0250
  942MOL0     H24292   9.697  11.513  -0.038  1.2650  1.2383 -0.0759
  942MOL0     H24293   9.748  11.760  -0.026 -0.2838  1.4995 -2.5347
  942MOL0     H24294   9.625  11.695  -0.136 -1.5509 -0.2965  0.6406
  942MOL0     H24295   9.558  11.903  -0.022  0.7957 -0.0872 -0.5384
  942MOL0     H24296   9.558  11.830   0.133  0.9056 -1.7215  0.9652
  942MOL0     H24297   9.358  11.803  -0.199 -0.7756  0.5612  0.8408
  942MOL0     H24298   9.126  11.615  -0.245 -2.2387 -2.6477  0.4292
  942MOL0     H24299   9.071  11.779  -0.190 -2.9627  0.4697  0.6072
  942MOL0     H24300   8.953  11.653   0.004 -0.0604 -1.9686  0.5153
  942MOL0     H24301   8.990  11.506  -0.075  1.1599  0.7642  1.4608
  942MOL0     H24302   8.820  11.735  -0.206 -0.1082 -0.3558 -2.5538
  942MOL0     H24303   8.873  11.597  -0.291 -1.8588 -0.0890  0.2549
  942MOL0     H24304   8.634  11.566  -0.200 -1.1332 -0.5457  1.3057
  942MOL0     H24305   8.697  11.605  -0.048  1.3032  1.5453 -0.2322
  942MOL0     H24306   8.477  11.428  -0.120 -0.4009 -0.3207 -1.0966
  942MOL0     H24307   8.331  11.247  -0.033  0.2660  0.7650  0.8657
  942MOL0     H24308   8.286  10.820  -0.178 -1.9040  1.7007 -2.9022
  942MOL0     H24309   8.133  10.637  -0.206 -5.0630 -0.5066 -0.5717
  942MOL0     H24310   8.026  10.458  -0.148 -0.7552 -1.7963  0.6105
  942MOL0     H24311   7.901  10.548  -0.245 -0.2096  0.0116  1.0170
  942MOL0     H24312   7.858  10.335  -0.031 -0.5759  0.4912  0.5492
  942MOL0     H24313   7.839  10.312  -0.207  1.6413  1.4011 -0.2890
  942MOL0     H24314   7.661  10.485  -0.201  1.8076 -2.2641 -0.2780
  942MOL0     H24315   7.660  10.494  -0.029  2.4899  1.4034  0.2761
  942MOL0     H24316   7.613  10.256  -0.226  1.7703  1.8010 -0.2370
  942MOL0     H24317   7.618  10.230  -0.052 -0.9064  0.6046  1.1854
  942MOL0     H24318   7.429  10.390  -0.004  0.5869  1.8206 -1.2670
  942MOL0     H24319   7.389  10.229  -0.060  0.3079  0.9066  2.3792
  942MOL0     H24320   7.391  10.308  -0.289  1.7404  0.8720 -0.3574
  942MOL0     H24321   7.406  10.476  -0.253 -2.8520  1.8815  0.9730
  942MOL0     H24322   7.175  10.307  -0.131 -0.9422 -0.0735  0.1651
  942MOL0     H24323   7.202  10.473  -0.110 -1.6591 -1.4818  1.1521
  942MOL0     H24324   7.184  10.495  -0.375 -1.3424 -0.7409 -1.0918
  942MOL0     H24325   7.043  10.473  -0.265 -0.2604 -1.4060 -2.1750
  942MOL0     H24326   7.883  10.794   0.096 -0.3023 -1.1652 -1.1378
  942MOL0     H24327   8.043  10.963   0.151  2.3314 -0.2242  0.2679
  942MOL0     H24328   8.672  10.992  -0.006  0.1485 -0.4406  1.0016
  942MOL0     H24329   8.814  11.182  -0.069  0.9858  1.4605  1.5805
  942MOL0     H24330   9.982  10.925   0.403 -0.3192  0.4171 -0.5588
  942MOL0     H24331  10.144  10.933   0.586  1.1850  1.1702 -1.8167
  942MOL0     H24332  10.330  10.965   0.860 -1.7828  0.6915 -0.3304
  942MOL0     H24333  10.559  10.953   0.990  1.1452 -1.2295  1.4350
  942MOL0     H24334  10.611  11.125   1.368  0.0709  1.1604  0.4619
  942MOL0     H24335  10.661  11.248   1.259  1.9333 -0.9734 -1.1355
  942MOL0     H24336  10.852  11.057   1.212 -0.3524  2.8393  0.1960
  942MOL0     H24337  10.855  11.167   1.356 -0.8574  0.9751 -1.2383
  942MOL0     H24338  10.743  10.894   1.366  0.2480 -1.9450  2.4967
  942MOL0     H24339  10.822  10.988   1.502  0.6865 -2.5739  1.0529
  942MOL0     H24340  10.977  10.887   1.262 -1.6821  2.0089 -0.6658
  942MOL0     H24341  11.047  10.943   1.412  1.1227 -1.1005 -2.8020
  942MOL0     H24342  11.011  10.541   1.492  0.3499  0.1837  2.4217
  942MOL0     H24343  10.409  11.217   1.284  1.0797 -0.6957  0.7737
  942MOL0     H24344  10.192  11.226   1.178 -0.7008  0.5863 -2.2115
  943MOL0     O24345   6.944  10.628   3.160 -0.5954  0.2390 -0.1159
  943MOL0     C24346   6.986  10.517   3.207  0.1436  0.0907  0.4361
  943MOL0     O24347   7.109  10.459   3.186 -0.3781 -0.2079  0.4588
  943MOL0     C24348   7.190  10.518   3.097 -0.0841 -0.1450 -0.6796
  943MOL0     C24349   7.241  10.442   2.993 -0.7579 -0.2428 -0.8037
  943MOL0     C24350   7.326  10.502   2.906 -0.3035  0.0027 -1.0409
  943MOL0     C24351   7.375  10.633   2.922 -0.6811  0.3644  0.6340
  943MOL0     O24352   7.454  10.700   2.826 -0.0080 -1.1059 -0.7185
  943MOL0     C24353   7.510  10.634   2.715  0.1914 -0.5369  0.4589
  943MOL0     C24354   7.595  10.728   2.632 -1.2317 -0.3027 -0.1100
  943MOL0     C24355   7.669  10.655   2.523  0.6789  0.1336  0.3969
  943MOL0     C24356   7.720  10.743   2.412 -0.7021  0.0584  0.4172
  943MOL0     C24357   7.866  10.798   2.425 -0.1597 -0.2860 -0.4308
  943MOL0     C24358   7.868  10.924   2.514 -0.2770 -0.1511 -0.6488
  943MOL0     C24359   8.012  10.969   2.538  0.0895  0.7475  0.9789
  943MOL0     C24360   8.054  11.070   2.425  0.0569  0.5577  0.4223
  943MOL0     N24361   8.194  11.118   2.458 -0.1588  0.4406  0.1755
  943MOL0     C24362   8.231  11.186   2.577 -0.4162 -0.1446  1.0770
  943MOL0     C24363   8.363  11.212   2.565  0.7329  0.1780  0.4493
  943MOL0     C24364   8.451  11.303   2.640 -0.5328 -0.1494 -0.7418
  943MOL0     C24365   8.402  11.350   2.780 -1.0700  0.1206  0.9419
  943MOL0     C24366   8.490  11.461   2.848 -0.4476  0.3222 -0.8887
  943MOL0     C24367   8.412  11.553   2.940  0.5169  0.0933  0.7978
  943MOL0     O24368   8.318  11.635   2.867 -0.1705 -0.4849  0.3193
  943MOL0     C24369   8.186  11.625   2.885 -0.1718 -0.1669 -0.3115
  943MOL0     C24370   8.109  11.731   2.841 -0.2620 -0.5831 -0.3381
  943MOL0     C24371   7.975  11.741   2.880  0.8335 -0.7688  0.0014
  943MOL0     C24372   7.908  11.634   2.944 -0.6841  0.1840 -0.0996
  943MOL0     C24373   7.763  11.626   2.953  0.2975  0.3490  0.0705
  943MOL0     O24374   7.721  11.527   3.026 -0.4120  0.9708 -0.2217
  943MOL0     C24375   7.584  11.511   3.046 -0.3045  0.6864  0.6577
  943MOL0     C24376   7.501  11.621   3.089 -0.4695 -0.0436  0.6436
  943MOL0     C24377   7.370  11.606   3.139  0.7939  0.0110  0.1453
  943MOL0     C24378   7.315  11.480   3.133 -0.5170 -0.4845  0.2563
  943MOL0     O24379   7.180  11.473   3.170  0.1597  1.0543 -0.4019
  943MOL0     C24380   7.136  11.341   3.216 -0.6583  0.1022 -0.0151
  943MOL0     C24381   6.998  11.358   3.279 -0.7026 -0.1370  0.2062
  943MOL0     C24382   6.954  11.229   3.355 -0.3507  0.1229 -0.2107
  943MOL0     C24383   6.843  11.262   3.460  0.5734 -0.1293  1.1222
  943MOL0     C24384   6.834  11.156   3.557 -0.0627  0.9185  0.7130
  943MOL0     C24385   6.796  11.023   3.505  0.1044  0.5908 -0.5248
  943MOL0     C24386   6.779  10.917   3.625  0.7132 -0.0186 -0.0406
  943MOL0     C24387   6.677  10.808   3.586  0.1718 -0.2773 -0.1515
  943MOL0    Cl24388   6.505  10.843   3.617 -0.0074 -0.1882 -0.2187
  943MOL0     C24389   7.393  11.374   3.096  0.6657  0.3770 -0.2510
  943MOL0     C24390   7.523  11.384   3.062  0.0375 -0.3711  0.4956
  943MOL0     O24391   7.697  11.714   2.902 -0.2694  0.5006  0.3971
  943MOL0     C24392   7.991  11.529   2.991  0.0434  0.5232 -0.6319
  943MOL0     C24393   8.124  11.519   2.957  0.6463  0.0691 -0.2958
  943MOL0     N24394   8.402  11.150   2.446 -0.8928  0.2295  0.2852
  943MOL0     N24395   8.304  11.094   2.382 -0.7022  0.1264  0.0220
  943MOL0     C24396   7.332  10.702   3.032  1.1363 -0.3349 -0.6600
  943MOL0     C24397   7.233  10.649   3.122 -1.1502 -0.3240 -0.2935
  943MOL0     C24398   6.887  10.453   3.300 -0.6766  0.2630  0.0718
  943MOL0     C24399   6.927  10.359   3.384 -0.0214 -0.0671 -0.6517
  943MOL0     C24400   6.848  10.315   3.491  0.3850  0.7363 -0.2368
  943MOL0     C24401   6.719  10.352   3.503 -0.1302  0.1696  1.1606
  943MOL0     O24402   6.664  10.319   3.626 -0.6594  0.7847  0.5423
  943MOL0     C24403   6.525  10.353   3.657 -0.5498 -0.1519  0.9212
  943MOL0     C24404   6.507  10.329   3.806  0.7989  0.3366 -0.1573
  943MOL0     C24405   6.524  10.180   3.835  0.0722 -0.4103  0.1608
  943MOL0     C24406   6.493  10.157   3.992 -0.8653  0.2200  0.5079
  943MOL0     C24407   6.572  10.232   4.087 -0.1469  0.4768  0.6455
  943MOL0     C24408   6.645  10.300   4.154  0.3781 -0.7147  0.7900
  943MOL0     C24409   6.667  10.442   3.404  0.8924 -0.0356 -0.5343
  943MOL0     C24410   6.746  10.492   3.305 -0.8310  0.0099  0.7003
  943MOL0     H24411   7.207  10.341   2.967 -1.0278  0.1298 -1.9706
  943MOL0     H24412   7.368  10.452   2.820 -0.7999 -2.0905 -0.1107
  943MOL0     H24413   7.432  10.588   2.654 -1.7445  2.5102  0.4291
  943MOL0     H24414   7.567  10.546   2.746  0.8459 -1.0288 -1.9092
  943MOL0     H24415   7.662  10.776   2.704 -2.2097 -0.0130  0.6267
  943MOL0     H24416   7.541  10.814   2.593 -0.8132  0.7426  1.5396
  943MOL0     H24417   7.590  10.606   2.466  0.8712  1.4401 -1.0605
  943MOL0     H24418   7.749  10.591   2.561  1.6426  0.1902 -1.4355
  943MOL0     H24419   7.712  10.689   2.317 -0.9986  2.1988 -0.8498
  943MOL0     H24420   7.655  10.831   2.405 -1.5875 -0.4954  1.3625
  943MOL0     H24421   7.902  10.829   2.327 -0.5522  0.0414 -0.4719
  943MOL0     H24422   7.937  10.726   2.467  1.0464  0.2035 -1.5575
  943MOL0     H24423   7.825  10.900   2.612  1.7949 -0.1586  0.3099
  943MOL0     H24424   7.800  11.000   2.475 -0.2789  1.5541  2.2973
  943MOL0     H24425   8.024  11.007   2.640 -3.0844 -1.0296  2.1843
  943MOL0     H24426   8.083  10.888   2.555 -0.0189  0.3205 -0.4936
  943MOL0     H24427   7.977  11.147   2.415 -1.9904 -1.1387  2.0490
  943MOL0     H24428   8.054  11.016   2.330 -1.2332  0.6850  0.3325
  943MOL0     H24429   8.163  11.223   2.653  0.7426  1.2853  1.4687
  943MOL0     H24430   8.468  11.384   2.568  0.1183 -0.1743 -0.6194
  943MOL0     H24431   8.549  11.258   2.658 -0.2307 -0.5480 -3.1044
  943MOL0     H24432   8.379  11.263   2.842 -1.1112 -1.3838 -1.0495
  943MOL0     H24433   8.310  11.399   2.747  1.1016  1.5301 -4.0880
  943MOL0     H24434   8.571  11.418   2.907 -0.2651  2.2878  0.4184
  943MOL0     H24435   8.543  11.508   2.764 -0.9104 -0.4496 -1.6187
  943MOL0     H24436   8.493  11.611   2.987  0.5985 -0.3186  1.1734
  943MOL0     H24437   8.375  11.481   3.013  0.6886 -2.4609 -1.5114
  943MOL0     H24438   8.152  11.820   2.795  0.4044 -1.6701 -1.8988
  943MOL0     H24439   7.920  11.822   2.833  1.7547 -0.5998 -0.8476
  943MOL0     H24440   7.555  11.714   3.104  1.1585 -1.0845  1.4517
  943MOL0     H24441   7.296  11.682   3.163  0.4471  0.0519 -0.9856
  943MOL0     H24442   7.218  11.306   3.280 -0.5139 -1.1452 -0.8399
  943MOL0     H24443   7.129  11.270   3.133  0.0039 -2.1310  1.7455
  943MOL0     H24444   6.926  11.382   3.200 -3.4464 -1.6257  2.0481
  943MOL0     H24445   7.003  11.438   3.354  2.2710 -0.5432  0.5445
  943MOL0     H24446   7.045  11.202   3.409 -0.8428 -1.9422 -0.3301
  943MOL0     H24447   6.930  11.148   3.284  0.0098  0.5968 -0.8861
  943MOL0     H24448   6.860  11.353   3.518 -2.3900  0.2506  1.5706
  943MOL0     H24449   6.751  11.281   3.403  1.3921  1.3218  0.2404
  943MOL0     H24450   6.754  11.185   3.626 -0.6797  0.8201  0.0510
  943MOL0     H24451   6.926  11.155   3.616  0.0235  2.9967  0.6741
  943MOL0     H24452   6.874  10.979   3.442  2.9506  1.8675  1.8564
  943MOL0     H24453   6.699  11.031   3.456  0.6567  2.1443 -1.4205
  943MOL0     H24454   6.879  10.874   3.634  0.8831  0.4062  0.1220
  943MOL0     H24455   6.758  10.962   3.723  2.1000  1.0874 -0.2272
  943MOL0     H24456   6.704  10.717   3.640  0.9862  0.2405  0.3331
  943MOL0     H24457   6.697  10.775   3.484 -0.2552  1.1945 -0.7313
  943MOL0     H24458   7.340  11.279   3.102 -1.5816  1.5576 -0.5042
  943MOL0     H24459   7.585  11.299   3.034  2.4401  0.9470  1.4766
  943MOL0     H24460   7.950  11.452   3.055 -1.0507  1.4848 -0.1345
  943MOL0     H24461   8.184  11.439   2.997  1.2486  1.0829  0.8810
  943MOL0     H24462   7.376  10.798   3.057 -0.4262 -0.0394  1.1951
  943MOL0     H24463   7.202  10.720   3.197  3.2638 -0.5592  2.1000
  943MOL0     H24464   7.030  10.324   3.381 -0.3057 -1.0947  0.4146
  943MOL0     H24465   6.887  10.249   3.568 -1.6136  0.2815  0.4569
  943MOL0     H24466   6.445  10.300   3.605 -0.1557  2.2025 -2.4350
  943MOL0     H24467   6.503  10.459   3.639 -1.2163 -0.0639  2.1142
  943MOL0     H24468   6.590  10.385   3.852  3.7078 -1.5636 -2.6648
  943MOL0     H24469   6.405  10.360   3.831 -0.1632 -1.1393 -2.0121
  943MOL0     H24470   6.629  10.156   3.819 -0.8585 -3.6000 -2.3059
  943MOL0     H24471   6.461  10.116   3.771 -2.5711  1.3919  0.7912
  943MOL0     H24472   6.389  10.184   4.014 -0.5350  1.7868  0.2473
  943MOL0     H24473   6.507  10.051   4.016  1.2143  0.7416  1.8864
  943MOL0     H24474   6.709  10.360   4.217  1.8044 -3.0801  1.7361
  943MOL0     H24475   6.561  10.462   3.395  1.0548  1.7301  0.8848
  943MOL0     H24476   6.716  10.572   3.239  1.7361 -1.9903 -3.2524
  944MOL0     O24477   5.434   6.698   8.167 -0.2178 -0.0996  0.4604
  944MOL0     C24478   5.463   6.687   8.040 -0.0349 -0.6442 -0.4724
  944MOL0     O24479   5.380   6.708   7.929  0.4052  0.0815 -0.0258
  944MOL0     C24480   5.249   6.739   7.950  0.2892 -0.1588  0.9386
  944MOL0     C24481   5.182   6.822   7.857  0.4132 -0.2736  0.0711
  944MOL0     C24482   5.045   6.852   7.867  0.6750 -0.5219  0.2797
  944MOL0     C24483   4.973   6.794   7.977  0.4829 -0.2505 -0.1198
  944MOL0     O24484   4.835   6.830   7.983 -1.0813  0.1308 -0.4791
  944MOL0     C24485   4.766   6.789   8.099  0.2135 -0.2850 -0.2378
  944MOL0     C24486   4.639   6.872   8.103  0.4559 -1.0626 -0.0244
  944MOL0     C24487   4.540   6.839   7.994  0.0767 -0.5523  0.3075
  944MOL0     C24488   4.406   6.921   7.996  0.5363  0.3163  0.2332
  944MOL0     C24489   4.349   6.933   7.849 -0.2218 -0.6173 -0.0205
  944MOL0     C24490   4.304   6.801   7.783  0.1331  0.1956  0.1662
  944MOL0     C24491   4.214   6.723   7.865  0.6225 -0.6242 -0.2625
  944MOL0     C24492   4.088   6.805   7.889  0.7771  0.1339 -0.3094
  944MOL0     N24493   3.982   6.716   7.928  1.1418 -0.6934  0.3654
  944MOL0     C24494   3.933   6.620   7.848 -0.2672  0.3462 -0.0042
  944MOL0     C24495   3.844   6.548   7.924  0.9048  0.3411 -0.8853
  944MOL0     C24496   3.774   6.425   7.887 -0.2337  1.1293  0.0347
  944MOL0     C24497   3.619   6.445   7.904  0.6695 -0.1534  0.6740
  944MOL0     C24498   3.547   6.317   7.871 -0.0908  0.0500 -0.0449
  944MOL0     C24499   3.395   6.317   7.882  0.4194 -0.0251 -0.1626
  944MOL0     O24500   3.355   6.174   7.885  0.7281 -0.7531  0.0554
  944MOL0     C24501   3.223   6.143   7.912  0.6392  1.0092 -1.9079
  944MOL0     C24502   3.184   6.014   7.879  0.2955  1.2875  0.0149
  944MOL0     C24503   3.055   5.961   7.921  0.3879  0.0494 -0.0555
  944MOL0     C24504   2.969   6.052   7.974 -0.7502 -0.2806 -0.8084
  944MOL0     C24505   2.841   6.007   8.029 -1.2495 -0.3728 -0.3381
  944MOL0     O24506   2.829   5.876   8.063 -0.1247  0.6246  1.0717
  944MOL0     C24507   2.699   5.838   8.100  0.5131 -0.4853  0.7955
  944MOL0     C24508   2.576   5.846   8.024  0.3049 -0.8984  0.4691
  944MOL0     C24509   2.457   5.807   8.072 -0.5024 -0.0950  0.1342
  944MOL0     C24510   2.440   5.748   8.197 -0.2783  0.2788 -0.5716
  944MOL0     O24511   2.315   5.712   8.237 -0.5075 -0.7979  0.0020
  944MOL0     C24512   2.307   5.646   8.366 -0.2831 -0.1849  0.3593
  944MOL0     C24513   2.157   5.629   8.402 -0.0879 -0.6175  0.2832
  944MOL0     C24514   2.101   5.496   8.344  0.2061 -0.3372  0.6001
  944MOL0     C24515   2.030   5.403   8.435  0.5039  0.1130 -0.9988
  944MOL0     C24516   1.942   5.299   8.366 -0.1548  0.7723  0.6329
  944MOL0     C24517   2.026   5.217   8.267 -0.5027  0.3187  0.3060
  944MOL0     C24518   1.930   5.122   8.177  0.2374 -0.1470 -1.5322
  944MOL0     C24519   2.025   5.016   8.109  0.3829 -0.2394  0.1971
  944MOL0    Cl24520   2.123   5.077   7.971 -0.2085  0.6365  0.6974
  944MOL0     C24521   2.559   5.728   8.268  0.3478  0.4227  0.0151
  944MOL0     C24522   2.685   5.766   8.214 -0.1403  0.0919 -0.6015
  944MOL0     O24523   2.754   6.091   8.028 -0.4451  0.2069  0.0726
  944MOL0     C24524   3.000   6.191   7.981 -0.0596  0.2338 -0.4758
  944MOL0     C24525   3.130   6.234   7.968  0.0667  0.8271 -0.3534
  944MOL0     N24526   3.852   6.595   8.055  0.6344 -0.0868 -0.0210
  944MOL0     N24527   3.924   6.707   8.045 -0.0860  0.6353 -0.8284
  944MOL0     C24528   5.038   6.709   8.061 -0.0640 -0.4445  0.2221
  944MOL0     C24529   5.174   6.675   8.048  1.1836  0.1560 -0.0794
  944MOL0     C24530   5.605   6.684   7.999  0.2547  0.1247  0.1584
  944MOL0     C24531   5.700   6.667   8.102 -0.3461 -0.1218 -0.7291
  944MOL0     C24532   5.832   6.695   8.088  0.2815  0.5213 -0.2211
  944MOL0     C24533   5.876   6.697   7.956 -0.1928 -1.1309  1.0794
  944MOL0     O24534   6.009   6.721   7.927 -0.1436 -0.3422  0.7690
  944MOL0     C24535   6.049   6.780   7.806  0.1312 -0.1010  0.3095
  944MOL0     C24536   6.182   6.843   7.813  0.0600 -0.1855  0.3186
  944MOL0     C24537   6.197   6.971   7.900  0.2234 -0.0752 -0.8007
  944MOL0     C24538   6.228   6.966   8.052  0.3340 -0.2096 -0.2199
  944MOL0     C24539   6.364   6.930   8.091  0.6442 -0.2954 -0.3962
  944MOL0     C24540   6.477   6.898   8.122  0.5654  0.3104  1.0506
  944MOL0     C24541   5.790   6.704   7.850  0.9769  0.0585  0.0406
  944MOL0     C24542   5.646   6.706   7.870 -0.6012 -0.3343 -0.5359
  944MOL0     H24543   5.238   6.857   7.771 -2.8800  1.3470 -1.5742
  944MOL0     H24544   4.993   6.912   7.793 -0.2518 -1.3235  0.2688
  944MOL0     H24545   4.821   6.818   8.189  0.2625  0.0053 -0.3602
  944MOL0     H24546   4.763   6.680   8.094 -1.1684 -0.2193 -1.5348
  944MOL0     H24547   4.674   6.975   8.093  1.6957 -1.4209  0.3713
  944MOL0     H24548   4.583   6.863   8.197 -0.0689 -1.1572 -0.3477
  944MOL0     H24549   4.511   6.734   7.992 -0.7725 -0.3271 -1.6085
  944MOL0     H24550   4.584   6.863   7.896  1.3468  2.0052  1.4029
  944MOL0     H24551   4.341   6.865   8.064  1.6847 -2.2490 -0.6543
  944MOL0     H24552   4.433   7.023   8.026  1.5876  0.0488  0.2304
  944MOL0     H24553   4.426   6.982   7.789  0.6284  0.3758  1.8111
  944MOL0     H24554   4.266   7.004   7.853  1.4622  1.5080 -0.9481
  944MOL0     H24555   4.393   6.746   7.752 -0.5460  1.4700 -4.8130
  944MOL0     H24556   4.265   6.809   7.681  3.7174 -0.6184 -1.4350
  944MOL0     H24557   4.180   6.640   7.802  0.2379 -0.1888 -0.6331
  944MOL0     H24558   4.229   6.693   7.969 -2.2737  3.8211  1.7075
  944MOL0     H24559   4.050   6.862   7.804 -4.1372  1.8504  2.6012
  944MOL0     H24560   4.106   6.878   7.968 -2.3527 -0.6792  1.3294
  944MOL0     H24561   3.962   6.598   7.746 -2.9198  2.9476 -1.4920
  944MOL0     H24562   3.804   6.353   7.964 -0.1293  1.6683  0.5077
  944MOL0     H24563   3.804   6.377   7.793  1.1899  0.0415  0.9899
  944MOL0     H24564   3.589   6.522   7.832  0.2338 -0.8558  0.0832
  944MOL0     H24565   3.601   6.470   8.008  1.9586 -2.4852  1.5418
  944MOL0     H24566   3.557   6.286   7.766 -1.0939 -1.9989  0.4154
  944MOL0     H24567   3.599   6.240   7.929 -1.2931  0.5403  1.7356
  944MOL0     H24568   3.340   6.382   7.813  1.0804 -0.0173 -0.6914
  944MOL0     H24569   3.377   6.372   7.975  1.2506  0.5226 -0.3106
  944MOL0     H24570   3.259   5.946   7.840 -2.0293 -0.8793 -0.9356
  944MOL0     H24571   3.024   5.857   7.913  0.6427 -0.3182  2.6954
  944MOL0     H24572   2.585   5.903   7.932 -0.9127  0.4193  1.1197
  944MOL0     H24573   2.364   5.814   8.015 -0.5678 -0.0263  0.2471
  944MOL0     H24574   2.367   5.702   8.438  2.4791 -3.7405  1.1209
  944MOL0     H24575   2.353   5.547   8.356 -0.6335 -0.2129 -1.4648
  944MOL0     H24576   2.104   5.718   8.366  1.4470 -0.0017 -0.5631
  944MOL0     H24577   2.139   5.638   8.509 -1.6309 -0.0240 -0.0002
  944MOL0     H24578   2.179   5.444   8.287  0.2810 -0.9261  1.2371
  944MOL0     H24579   2.027   5.516   8.266 -1.8493 -1.1332  2.2692
  944MOL0     H24580   2.106   5.354   8.496  0.0339  1.5215  0.7770
  944MOL0     H24581   1.960   5.465   8.492 -0.2740 -0.7992 -0.9290
  944MOL0     H24582   1.857   5.348   8.317  0.8573 -0.0511 -2.1453
  944MOL0     H24583   1.917   5.223   8.441  2.2871 -1.7105 -0.8896
  944MOL0     H24584   2.096   5.153   8.321 -1.5824 -1.6769 -0.5627
  944MOL0     H24585   2.081   5.288   8.204 -0.4604  1.6728  1.7948
  944MOL0     H24586   1.863   5.075   8.249  1.6515  1.4737  1.0401
  944MOL0     H24587   1.868   5.176   8.105 -0.5399 -0.0998 -0.8338
  944MOL0     H24588   1.960   4.940   8.066  0.2249 -0.2964  0.5370
  944MOL0     H24589   2.094   4.967   8.179 -2.5984 -0.8165  2.9822
  944MOL0     H24590   2.556   5.678   8.365 -1.0435  0.7055  0.1317
  944MOL0     H24591   2.770   5.738   8.276 -0.6834 -0.0262  0.1024
  944MOL0     H24592   2.931   6.266   8.019  4.9737  4.7336  1.0567
  944MOL0     H24593   3.147   6.341   7.976 -2.3171  1.5891 -3.3968
  944MOL0     H24594   4.978   6.671   8.143  1.8753 -0.8396  1.5235
  944MOL0     H24595   5.214   6.598   8.114  1.0702  1.1681  1.2124
  944MOL0     H24596   5.668   6.651   8.205 -0.2004 -1.3581 -0.8635
  944MOL0     H24597   5.901   6.697   8.172  0.1150  1.1636 -0.0916
  944MOL0     H24598   5.977   6.854   7.770 -0.3568 -0.6314  0.1731
  944MOL0     H24599   6.050   6.702   7.730 -1.1017  1.5103 -1.4623
  944MOL0     H24600   6.258   6.774   7.850  0.5223  0.1180 -0.0426
  944MOL0     H24601   6.222   6.865   7.713  1.5405  1.7016  1.2796
  944MOL0     H24602   6.100   7.017   7.882  0.4537  0.8274  0.1678
  944MOL0     H24603   6.262   7.046   7.854 -0.6699  2.2116  1.4508
  944MOL0     H24604   6.216   7.067   8.094 -1.2850  0.3563 -1.9256
  944MOL0     H24605   6.167   6.893   8.105  0.8645  1.0785  2.3453
  944MOL0     H24606   6.570   6.871   8.168  0.5009 -1.5580  0.2130
  944MOL0     H24607   5.830   6.708   7.749  1.6460 -2.5892  0.1318
  944MOL0     H24608   5.580   6.709   7.784 -0.1040 -0.2610 -0.9229
  945MOL0     O24609   7.793   8.134   4.017  0.1179  0.3637 -0.4852
  945MOL0     C24610   7.820   8.170   3.901 -0.2867  0.4681  0.0354
  945MOL0     O24611   7.741   8.245   3.817  0.1842  0.1347 -0.5850
  945MOL0     C24612   7.625   8.305   3.869 -0.5319  0.0103 -0.2499
  945MOL0     C24613   7.508   8.239   3.889 -0.1692  0.7244 -0.2660
  945MOL0     C24614   7.400   8.308   3.929  0.4430 -0.3394  1.0396
  945MOL0     C24615   7.402   8.449   3.955 -0.2283  0.6394  0.5198
  945MOL0     O24616   7.293   8.521   3.993  0.0808 -0.3375 -0.1482
  945MOL0     C24617   7.214   8.450   4.092  0.0519 -0.3748  0.1104
  945MOL0     C24618   7.080   8.411   4.037  0.1998  0.1702  0.0578
  945MOL0     C24619   7.013   8.314   4.133 -0.3914  0.1977  1.2256
  945MOL0     C24620   6.874   8.268   4.085  0.4680  0.5130 -0.2330
  945MOL0     C24621   6.822   8.170   4.190 -0.0480  0.2447 -0.7673
  945MOL0     C24622   6.692   8.109   4.145  0.3723 -0.2979  0.6745
  945MOL0     C24623   6.644   8.008   4.254  0.7159 -0.1381  0.0380
  945MOL0     C24624   6.522   7.937   4.203 -1.4506 -0.8777  0.0256
  945MOL0     N24625   6.403   8.022   4.175 -0.2532 -0.0002  0.2025
  945MOL0     C24626   6.357   8.133   4.257  0.7340  0.6802  1.3166
  945MOL0     C24627   6.257   8.195   4.185 -0.1626  0.2413 -0.3706
  945MOL0     C24628   6.151   8.296   4.222 -0.7351 -0.1262 -0.5690
  945MOL0     C24629   6.012   8.251   4.282  0.3014  0.2200  0.0820
  945MOL0     C24630   5.961   8.137   4.202  0.5381  0.5132  1.1314
  945MOL0     C24631   5.826   8.079   4.248  0.1444 -0.1386  0.9019
  945MOL0     O24632   5.716   8.174   4.242 -0.1395  0.1324 -0.1041
  945MOL0     C24633   5.588   8.130   4.262  0.4897 -0.2850 -1.2934
  945MOL0     C24634   5.485   8.204   4.204  0.1447 -0.6121  0.5964
  945MOL0     C24635   5.352   8.155   4.198 -0.5533  0.3809  0.4566
  945MOL0     C24636   5.322   8.033   4.269  0.4460 -0.8137 -0.0332
  945MOL0     C24637   5.180   7.978   4.266  0.4795  0.3034 -0.2101
  945MOL0     O24638   5.165   7.854   4.312 -0.2358  0.5826 -0.3368
  945MOL0     C24639   5.043   7.816   4.364 -0.9886 -0.4512  0.0622
  945MOL0     C24640   4.980   7.879   4.472  0.8347  0.2420 -0.0608
  945MOL0     C24641   4.860   7.830   4.524  0.4293 -0.0580 -0.3836
  945MOL0     C24642   4.796   7.725   4.454 -0.9633  0.7149  0.2820
  945MOL0     O24643   4.671   7.674   4.500  0.0718  0.0137  0.5389
  945MOL0     C24644   4.583   7.611   4.412 -0.4469  0.2178 -0.0337
  945MOL0     C24645   4.442   7.643   4.434  0.5212 -0.7043  0.0689
  945MOL0     C24646   4.400   7.653   4.575  0.2615  1.0707 -0.2078
  945MOL0     C24647   4.427   7.531   4.663 -0.1877 -0.6792  0.4643
  945MOL0     C24648   4.403   7.574   4.806 -0.6416  0.3738 -0.6568
  945MOL0     C24649   4.267   7.631   4.840 -0.7606  0.4085  0.3579
  945MOL0     C24650   4.239   7.638   4.987 -0.6713 -0.0421  0.4158
  945MOL0     C24651   4.104   7.687   5.022 -0.5624  0.2586  1.0528
  945MOL0    Cl24652   3.995   7.544   5.046  0.1921  0.1354  0.3587
  945MOL0     C24653   4.864   7.654   4.353  0.5362 -0.6586 -0.6090
  945MOL0     C24654   4.982   7.705   4.304 -0.3313 -0.2510  0.2198
  945MOL0     O24655   5.084   8.048   4.229 -0.2339 -0.1198 -0.3533
  945MOL0     C24656   5.429   7.962   4.325 -0.4847 -0.5091  0.4783
  945MOL0     C24657   5.561   8.004   4.315  0.0227 -0.5510 -0.2412
  945MOL0     N24658   6.243   8.123   4.064 -0.7638  0.0205 -0.1539
  945MOL0     N24659   6.320   8.017   4.061 -0.5236  0.8250 -0.5428
  945MOL0     C24660   7.524   8.517   3.931 -0.2613 -0.2289 -1.0745
  945MOL0     C24661   7.632   8.444   3.893 -0.3384 -0.0040 -1.3059
  945MOL0     C24662   7.959   8.161   3.862 -0.8764  0.0775  0.0116
  945MOL0     C24663   8.001   8.200   3.736  0.0331 -0.3081  1.1408
  945MOL0     C24664   8.136   8.177   3.696  0.1517 -0.9170  0.1547
  945MOL0     C24665   8.219   8.110   3.786 -0.4602 -0.4322  0.0742
  945MOL0     O24666   8.348   8.084   3.737  0.8653  0.2453 -0.0998
  945MOL0     C24667   8.424   7.972   3.775 -0.1098  1.2509  0.0755
  945MOL0     C24668   8.576   7.994   3.744 -0.9529  0.4322 -0.5965
  945MOL0     C24669   8.641   7.853   3.705 -0.2126 -1.2141  1.0319
  945MOL0     C24670   8.794   7.871   3.693  0.5998  0.2743 -0.0646
  945MOL0     C24671   8.852   7.755   3.628 -0.0410 -0.6917  0.6865
  945MOL0     C24672   8.883   7.659   3.553 -0.4811 -0.1735  1.4585
  945MOL0     C24673   8.179   8.083   3.907 -0.4736  0.4030 -0.0675
  945MOL0     C24674   8.053   8.103   3.947 -0.2598 -0.8808 -0.3242
  945MOL0     H24675   7.506   8.133   3.864  0.8051  0.7316 -0.4198
  945MOL0     H24676   7.315   8.244   3.952  0.1730  0.4017  2.1400
  945MOL0     H24677   7.213   8.523   4.174  2.3587 -0.9035  0.6838
  945MOL0     H24678   7.264   8.368   4.144  0.6485  0.2663  0.5769
  945MOL0     H24679   7.078   8.371   3.935  0.2746  0.1162  0.0776
  945MOL0     H24680   7.014   8.498   4.036  1.5632  1.2609  1.0693
  945MOL0     H24681   7.004   8.365   4.229 -0.4777  1.1742  0.7109
  945MOL0     H24682   7.072   8.222   4.146  0.0304 -0.6323 -4.0393
  945MOL0     H24683   6.801   8.349   4.074 -0.0635  0.0474 -0.1641
  945MOL0     H24684   6.868   8.212   3.992 -0.9027  1.2999 -0.6458
  945MOL0     H24685   6.803   8.224   4.283 -0.1965 -0.0509 -0.6226
  945MOL0     H24686   6.895   8.092   4.214 -1.8066 -1.7339 -1.5297
  945MOL0     H24687   6.704   8.056   4.050 -1.0865 -0.7840  0.7337
  945MOL0     H24688   6.617   8.187   4.131  0.0153 -0.5696  1.0426
  945MOL0     H24689   6.725   7.938   4.278  1.8347  1.7627  2.1254
  945MOL0     H24690   6.632   8.072   4.342  1.4333 -1.1829  0.9197
  945MOL0     H24691   6.489   7.865   4.278 -2.7926  1.1532  1.5098
  945MOL0     H24692   6.546   7.885   4.109  1.5115  1.3773 -0.6121
  945MOL0     H24693   6.401   8.155   4.354  2.6090 -2.5644  1.3568
  945MOL0     H24694   6.131   8.358   4.135 -5.6599  0.4558  0.6682
  945MOL0     H24695   6.202   8.360   4.295 -1.8817  1.3246 -1.0108
  945MOL0     H24696   5.942   8.332   4.262 -0.6813 -0.6946 -0.3167
  945MOL0     H24697   6.018   8.237   4.391  0.7717 -0.7539 -0.0579
  945MOL0     H24698   5.951   8.176   4.100  1.6648 -3.5218 -0.7386
  945MOL0     H24699   6.034   8.056   4.207 -0.0157  0.0632  2.1030
  945MOL0     H24700   5.847   8.058   4.354 -0.4746  0.0273  1.0649
  945MOL0     H24701   5.796   7.990   4.193  0.9740 -0.5228  1.0651
  945MOL0     H24702   5.507   8.293   4.145  1.8134 -0.7844  0.9136
  945MOL0     H24703   5.281   8.213   4.140  0.6561  0.8505 -0.6019
  945MOL0     H24704   5.008   7.966   4.530 -0.8568  0.8846 -0.1511
  945MOL0     H24705   4.806   7.883   4.602  2.5295 -0.2241  1.2478
  945MOL0     H24706   4.590   7.505   4.439  0.2174  0.6791  1.7849
  945MOL0     H24707   4.605   7.627   4.306  0.9518  1.6557  0.4279
  945MOL0     H24708   4.393   7.555   4.391 -2.0059  1.2178 -1.2257
  945MOL0     H24709   4.402   7.725   4.375  3.0113  2.4278  2.3485
  945MOL0     H24710   4.293   7.677   4.569  0.2756  0.7177 -2.5535
  945MOL0     H24711   4.446   7.736   4.630  0.3958  2.3252 -2.1242
  945MOL0     H24712   4.371   7.447   4.621 -0.6399  0.5934 -1.6037
  945MOL0     H24713   4.530   7.498   4.645 -0.7659 -1.1019 -2.4363
  945MOL0     H24714   4.483   7.645   4.829  1.1529 -1.9635  0.8669
  945MOL0     H24715   4.419   7.490   4.875 -4.0605 -0.5787 -0.8689
  945MOL0     H24716   4.192   7.565   4.795  1.1714 -3.2493  2.0790
  945MOL0     H24717   4.257   7.733   4.802 -1.2090 -0.4980 -2.2209
  945MOL0     H24718   4.253   7.539   5.031 -1.4678  0.0192  0.8176
  945MOL0     H24719   4.306   7.709   5.037 -0.9300  0.8108 -0.4172
  945MOL0     H24720   4.068   7.751   4.941  3.6934  0.0293 -1.3575
  945MOL0     H24721   4.104   7.743   5.116 -0.4507  1.2301  0.4934
  945MOL0     H24722   4.826   7.560   4.316  0.4509 -0.4403 -1.0798
  945MOL0     H24723   5.042   7.652   4.230 -1.7400 -0.1632 -1.0443
  945MOL0     H24724   5.411   7.870   4.379  1.8907  0.4924  3.1819
  945MOL0     H24725   5.638   7.935   4.347 -0.5951 -0.5991  1.2255
  945MOL0     H24726   7.508   8.623   3.951 -3.6836 -0.6309 -1.0637
  945MOL0     H24727   7.723   8.501   3.879  0.5329 -0.7559  0.7731
  945MOL0     H24728   7.929   8.237   3.663  1.5845  0.9959  0.2124
  945MOL0     H24729   8.169   8.200   3.595  1.5496  0.4566  0.8682
  945MOL0     H24730   8.401   7.885   3.712  2.4043  0.1486  0.5575
  945MOL0     H24731   8.415   7.947   3.881  0.1767 -0.1833 -0.2197
  945MOL0     H24732   8.586   8.050   3.650 -1.5876 -2.3708 -2.4339
  945MOL0     H24733   8.638   8.047   3.817  1.9001 -2.4096 -0.7341
  945MOL0     H24734   8.599   7.821   3.610  1.0413  0.1097 -0.0195
  945MOL0     H24735   8.626   7.780   3.786  1.4152 -2.5538  0.2017
  945MOL0     H24736   8.822   7.968   3.650 -1.0324 -0.3048 -2.6725
  945MOL0     H24737   8.834   7.877   3.795  0.2044 -3.2734  0.4018
  945MOL0     H24738   8.892   7.571   3.493 -0.2284  1.3868 -0.9460
  945MOL0     H24739   8.245   8.035   3.979  1.2413 -0.4033 -2.0837
  945MOL0     H24740   8.028   8.078   4.049  0.6369  2.3801  0.8130
  946MOL0     O24741  10.834   5.121   7.684 -0.3795  0.5113  0.1833
  946MOL0     C24742  10.825   5.082   7.565  0.7662 -1.0457  0.1665
  946MOL0     O24743  10.702   5.070   7.491 -0.2869  0.4175  0.8291
  946MOL0     C24744  10.586   5.123   7.538  0.9056 -0.6508 -0.2667
  946MOL0     C24745  10.575   5.237   7.625 -0.0809 -0.9442 -0.1322
  946MOL0     C24746  10.454   5.275   7.681  0.9255 -0.5460  0.3408
  946MOL0     C24747  10.336   5.209   7.637  0.0641 -0.4903 -0.9231
  946MOL0     O24748  10.213   5.247   7.687  0.1235  0.5638 -0.4703
  946MOL0     C24749  10.167   5.355   7.600  0.0951  0.0672  0.4477
  946MOL0     C24750  10.056   5.430   7.669  0.1219  0.0084 -0.1007
  946MOL0     C24751   9.927   5.335   7.700  0.1884  0.4908  0.3329
  946MOL0     C24752   9.814   5.423   7.748  0.0616 -0.0326  0.1800
  946MOL0     C24753   9.682   5.349   7.791  0.0915 -0.0690 -0.3198
  946MOL0     C24754   9.648   5.236   7.696  0.0198  0.0096  0.7454
  946MOL0     C24755   9.508   5.178   7.722  0.3729 -0.3965  0.4963
  946MOL0     C24756   9.433   5.109   7.600 -0.1289  0.2228 -0.8305
  946MOL0     N24757   9.289   5.088   7.652  0.3024 -0.1609  0.5857
  946MOL0     C24758   9.233   5.080   7.772 -0.7118  0.5497  0.3870
  946MOL0     C24759   9.104   5.066   7.753  0.4987 -0.5048 -0.1512
  946MOL0     C24760   9.001   5.052   7.855  0.4680 -0.0173 -0.3006
  946MOL0     C24761   8.917   5.178   7.887 -0.1067  0.1940 -0.3124
  946MOL0     C24762   8.988   5.300   7.960 -0.0398 -0.1620  0.0342
  946MOL0     C24763   8.890   5.426   7.975  0.1051  0.3381  0.1713
  946MOL0     O24764   8.800   5.410   8.082 -0.0218  0.1928 -0.2051
  946MOL0     C24765   8.660   5.394   8.038  0.7005 -1.0208  0.5445
  946MOL0     C24766   8.616   5.354   7.905  0.1515  0.3062 -0.8330
  946MOL0     C24767   8.487   5.347   7.871  0.4513 -0.3116 -0.3811
  946MOL0     C24768   8.387   5.388   7.975 -0.7222 -0.4418  0.3860
  946MOL0     C24769   8.240   5.369   7.957 -0.0463  0.5935 -0.5485
  946MOL0     O24770   8.208   5.267   7.880  0.2049 -0.0047  0.0630
  946MOL0     C24771   8.087   5.210   7.888  0.2399 -0.6807  0.4699
  946MOL0     C24772   8.086   5.086   7.945 -0.1580 -0.1093  0.2558
  946MOL0     C24773   7.963   5.024   7.968 -0.0237  0.2601 -0.6682
  946MOL0     C24774   7.843   5.081   7.919 -0.6632  0.8711  0.3130
  946MOL0     O24775   7.724   5.022   7.927  0.8787 -0.9447  0.0197
  946MOL0     C24776   7.666   5.025   8.062  0.3576 -0.5143 -0.3813
  946MOL0     C24777   7.558   5.131   8.077  0.9298  0.1041 -0.3042
  946MOL0     C24778   7.499   5.101   8.214  0.4403 -0.4232 -0.0495
  946MOL0     C24779   7.450   5.230   8.282  0.1453  0.2281  0.4634
  946MOL0     C24780   7.406   5.192   8.428  0.3016 -1.3722  1.2365
  946MOL0     C24781   7.337   5.302   8.505  0.8611  0.1986  0.6854
  946MOL0     C24782   7.327   5.256   8.657 -0.0376 -0.0115 -0.7200
  946MOL0     C24783   7.254   5.352   8.751  0.8981 -0.6204  0.0062
  946MOL0    Cl24784   7.349   5.502   8.793 -0.1540 -0.3797  0.2102
  946MOL0     C24785   7.848   5.201   7.863 -0.1198  0.1848  0.0497
  946MOL0     C24786   7.967   5.272   7.843 -0.3657 -0.5899  0.3756
  946MOL0     O24787   8.162   5.436   8.026  0.7126  0.0739 -0.5357
  946MOL0     C24788   8.432   5.434   8.096  0.2817  0.2374  0.5064
  946MOL0     C24789   8.563   5.423   8.133  0.3202  0.0050 -0.7130
  946MOL0     N24790   9.081   5.074   7.617  0.3038  0.9588  0.1473
  946MOL0     N24791   9.186   5.096   7.559  0.4868 -0.6024  0.3210
  946MOL0     C24792  10.341   5.103   7.541  0.5956  0.2475 -0.3007
  946MOL0     C24793  10.464   5.067   7.488 -1.0060  0.0723  0.4495
  946MOL0     C24794  10.946   5.027   7.515  0.3740 -0.6068  0.5247
  946MOL0     C24795  11.064   5.074   7.565 -0.1720  0.7323 -0.3926
  946MOL0     C24796  11.182   5.027   7.518 -0.5524  0.4737 -0.0221
  946MOL0     C24797  11.190   4.936   7.413  0.3851 -0.3415  0.4420
  946MOL0     O24798  11.310   4.886   7.384 -0.4067  0.5548 -0.1935
  946MOL0     C24799  11.331   4.825   7.262  0.0968  0.3826  1.0588
  946MOL0     C24800  11.479   4.817   7.222  0.0554  0.4540 -0.4537
  946MOL0     C24801  11.553   4.949   7.202 -0.4800 -0.1111 -0.3665
  946MOL0     C24802  11.669   4.939   7.096  0.1869 -0.1225 -0.1284
  946MOL0     C24803  11.706   5.069   7.052 -0.3435 -0.5098 -0.6063
  946MOL0     C24804  11.735   5.184   7.022 -0.2560  0.0491 -0.1047
  946MOL0     C24805  11.070   4.888   7.355 -0.5520 -0.1664  0.1609
  946MOL0     C24806  10.946   4.937   7.404  0.2677  0.2534 -0.7627
  946MOL0     H24807  10.664   5.296   7.647 -1.1636  0.9360 -0.5652
  946MOL0     H24808  10.452   5.357   7.752  2.6044  0.3546 -0.6074
  946MOL0     H24809  10.133   5.321   7.502  0.1984  0.5527  0.2394
  946MOL0     H24810  10.250   5.426   7.595  0.0363  0.0895 -0.2470
  946MOL0     H24811  10.023   5.514   7.606  2.6368  1.8519  0.8772
  946MOL0     H24812  10.085   5.486   7.758 -1.9671 -1.4164  1.5581
  946MOL0     H24813   9.954   5.272   7.786 -3.4968 -2.5491 -0.4521
  946MOL0     H24814   9.891   5.277   7.615 -1.6321 -0.0985  1.4417
  946MOL0     H24815   9.838   5.495   7.827 -2.0128  3.6924 -2.2774
  946MOL0     H24816   9.791   5.489   7.665  2.0247  0.6338  0.1070
  946MOL0     H24817   9.593   5.412   7.788 -0.1601 -0.3436  0.7654
  946MOL0     H24818   9.684   5.305   7.892  1.3526  2.6414  0.9225
  946MOL0     H24819   9.719   5.153   7.701 -0.4488 -0.3129  2.2594
  946MOL0     H24820   9.655   5.289   7.600  2.0584  4.0864  2.8376
  946MOL0     H24821   9.516   5.120   7.815 -2.1374  1.1008  1.7458
  946MOL0     H24822   9.452   5.268   7.747  2.7642  1.2585  0.1585
  946MOL0     H24823   9.470   5.009   7.575 -1.5451 -0.8196  0.9309
  946MOL0     H24824   9.434   5.171   7.510 -2.5637 -0.5570 -1.4725
  946MOL0     H24825   9.283   5.078   7.868 -0.9785  0.5254  0.5263
  946MOL0     H24826   9.044   5.021   7.951 -0.3694 -1.3734 -0.3433
  946MOL0     H24827   8.936   4.968   7.831  0.3060  0.4809 -1.6553
  946MOL0     H24828   8.837   5.150   7.957  1.7204 -3.3998  0.5585
  946MOL0     H24829   8.872   5.213   7.793 -3.0625 -0.1565  0.8449
  946MOL0     H24830   9.026   5.265   8.057  1.5442  0.0992 -0.4585
  946MOL0     H24831   9.074   5.321   7.895 -2.1317 -2.0528 -3.6769
  946MOL0     H24832   8.844   5.449   7.878  0.1819 -1.1103 -0.2305
  946MOL0     H24833   8.958   5.508   8.001  2.5688 -1.2616 -0.8817
  946MOL0     H24834   8.675   5.326   7.818 -0.3381  2.8352 -2.0957
  946MOL0     H24835   8.457   5.305   7.775  2.1673 -1.4618 -0.4537
  946MOL0     H24836   8.181   5.040   7.970  2.8980  4.5930 -1.4796
  946MOL0     H24837   7.953   4.933   8.027  0.1980  0.0686 -0.9257
  946MOL0     H24838   7.746   5.048   8.132 -0.9885 -1.8716  1.7037
  946MOL0     H24839   7.627   4.923   8.074 -0.6000 -0.1867 -0.6234
  946MOL0     H24840   7.489   5.125   7.993 -0.2300  0.0804  0.6138
  946MOL0     H24841   7.615   5.224   8.074  3.4105 -1.1869  1.8273
  946MOL0     H24842   7.579   5.062   8.278 -0.1550 -0.3940  0.7366
  946MOL0     H24843   7.416   5.030   8.210  0.9827 -1.0174 -1.1693
  946MOL0     H24844   7.534   5.300   8.295  1.0053  0.3334 -4.0730
  946MOL0     H24845   7.367   5.271   8.224  1.5899  2.0697 -0.4349
  946MOL0     H24846   7.501   5.164   8.475  1.2873  1.2124  0.9099
  946MOL0     H24847   7.333   5.110   8.422 -0.1122 -0.9292  0.0298
  946MOL0     H24848   7.239   5.312   8.459  1.4097  1.1093 -0.3442
  946MOL0     H24849   7.384   5.399   8.486 -1.0411  0.6853 -2.0188
  946MOL0     H24850   7.269   5.164   8.656 -0.1828  0.0286  0.9096
  946MOL0     H24851   7.427   5.234   8.696  0.2957  3.5559  0.8613
  946MOL0     H24852   7.221   5.311   8.847  1.3840  1.7079  1.2290
  946MOL0     H24853   7.155   5.380   8.712  0.2625  1.1126  2.6512
  946MOL0     H24854   7.752   5.242   7.833 -0.6949 -1.4709 -0.5029
  946MOL0     H24855   7.970   5.375   7.809  3.5817 -0.0777  1.7911
  946MOL0     H24856   8.361   5.461   8.174 -0.7023  2.0732 -0.9323
  946MOL0     H24857   8.588   5.455   8.234 -0.9564 -2.0132  0.2985
  946MOL0     H24858  10.255   5.044   7.510 -0.5862  1.4165  0.6212
  946MOL0     H24859  10.465   4.996   7.406 -3.3619  1.4244 -0.8665
  946MOL0     H24860  11.076   5.165   7.623  2.2117  0.5201 -0.4425
  946MOL0     H24861  11.277   5.067   7.554  0.3805 -3.6547  2.7406
  946MOL0     H24862  11.283   4.878   7.179  0.0079 -4.2500 -2.2403
  946MOL0     H24863  11.287   4.725   7.264  1.5897 -0.5941 -3.3559
  946MOL0     H24864  11.527   4.761   7.303 -1.3688 -2.1573 -1.3166
  946MOL0     H24865  11.479   4.757   7.131 -1.6179 -1.0087  0.4385
  946MOL0     H24866  11.594   4.981   7.299  2.6693 -1.0428 -1.2956
  946MOL0     H24867  11.477   5.017   7.162 -0.3235  0.1105 -0.2932
  946MOL0     H24868  11.753   4.893   7.150  0.3543  0.7769  0.3931
  946MOL0     H24869  11.624   4.883   7.013  1.5110 -1.3961 -0.0380
  946MOL0     H24870  11.772   5.283   7.004  0.8485 -0.2549  0.3904
  946MOL0     H24871  11.064   4.810   7.279  2.6126  0.0919 -0.4904
  946MOL0     H24872  10.853   4.900   7.362 -1.0682 -0.0537  2.1985
  947MOL0     O24873   8.663   5.129   1.423  0.0935  0.0502 -0.3454
  947MOL0     C24874   8.694   5.045   1.511 -0.4319 -1.1737  0.0142
  947MOL0     O24875   8.636   4.923   1.538  0.7996  0.2385 -0.5163
  947MOL0     C24876   8.530   4.882   1.467  0.3810  0.1456  0.0927
  947MOL0     C24877   8.417   4.958   1.421 -0.0615 -0.3984 -0.1750
  947MOL0     C24878   8.314   4.902   1.347 -0.0047  0.8265  0.2979
  947MOL0     C24879   8.312   4.765   1.317 -0.1214  0.0398  0.3087
  947MOL0     O24880   8.224   4.717   1.222  0.1474  0.4453  0.3044
  947MOL0     C24881   8.088   4.746   1.238  0.7555  0.4208  1.0348
  947MOL0     C24882   8.023   4.633   1.158  0.4636  0.5656 -0.3106
  947MOL0     C24883   7.867   4.636   1.170 -0.6609 -0.4480  0.5560
  947MOL0     C24884   7.812   4.746   1.070 -0.4945 -0.4235  0.9029
  947MOL0     C24885   7.680   4.717   1.013  1.2053  0.6441  0.5716
  947MOL0     C24886   7.569   4.687   1.105  0.2207  0.0497 -0.4557
  947MOL0     C24887   7.438   4.673   1.021  0.0604 -0.2244 -0.2809
  947MOL0     C24888   7.323   4.632   1.115  0.1157  0.0996 -0.1007
  947MOL0     N24889   7.192   4.603   1.053 -0.0243  0.1257 -0.2605
  947MOL0     C24890   7.085   4.692   1.043  0.3198  0.8761  0.1287
  947MOL0     C24891   6.982   4.615   1.003  0.5823  0.9766  0.3704
  947MOL0     C24892   6.845   4.679   0.978 -0.5852 -0.1179  0.6244
  947MOL0     C24893   6.741   4.578   0.929  0.5916 -0.0674  0.5673
  947MOL0     C24894   6.600   4.612   0.967  0.2754 -0.6405 -0.1715
  947MOL0     C24895   6.508   4.576   0.845  0.5476  0.0572  0.9620
  947MOL0     O24896   6.492   4.440   0.815 -0.0810  0.3680 -0.3194
  947MOL0     C24897   6.439   4.402   0.691 -0.0061 -0.1619 -0.2114
  947MOL0     C24898   6.452   4.271   0.655 -1.3006 -0.2520  0.7010
  947MOL0     C24899   6.417   4.228   0.527  0.0413  0.6526 -0.9401
  947MOL0     C24900   6.341   4.305   0.441 -0.1379 -0.5787  0.4562
  947MOL0     C24901   6.272   4.251   0.323  1.1408 -0.1777  0.1105
  947MOL0     O24902   6.302   4.134   0.263 -0.9117 -0.0367  0.7161
  947MOL0     C24903   6.240   4.103   0.146  0.4100 -0.3813  0.0468
  947MOL0     C24904   6.099   4.096   0.138  0.1577  0.6055  0.0174
  947MOL0     C24905   6.034   4.056   0.015 -0.4219 -0.6058 -0.6139
  947MOL0     C24906   6.113   4.013  -0.095 -0.5922  0.6322 -0.1331
  947MOL0     O24907   6.046   3.962  -0.203  0.1017 -0.2362  0.5828
  947MOL0     C24908   6.126   3.921  -0.318 -0.2052 -0.3314 -0.0905
  947MOL0     C24909   6.042   3.845  -0.420 -0.3556  0.5442  0.0974
  947MOL0     C24910   5.941   3.937  -0.491 -0.0450 -0.6600  0.4140
  947MOL0     C24911   5.868   3.876  -0.616 -0.7349  0.1493 -0.5055
  947MOL0     C24912   5.956   3.851  -0.741 -0.1023 -0.1199  0.7360
  947MOL0     C24913   6.045   3.969  -0.777  0.3594 -0.3297 -0.3558
  947MOL0     C24914   6.077   3.971  -0.929 -0.7713  0.4660 -0.4547
  947MOL0     C24915   6.168   4.084  -0.966  0.6431 -0.0596  0.4011
  947MOL0    Cl24916   6.075   4.229  -1.002  0.0746 -0.2610 -0.0583
  947MOL0     C24917   6.252   4.027  -0.082  0.9437 -0.3594  1.1091
  947MOL0     C24918   6.319   4.074   0.040 -0.3183  0.4537  0.4745
  947MOL0     O24919   6.188   4.330   0.281  0.4233  0.5998 -0.1200
  947MOL0     C24920   6.327   4.440   0.478  0.3071  0.4091  0.5886
  947MOL0     C24921   6.384   4.491   0.590 -0.9597 -0.2564 -0.0656
  947MOL0     N24922   7.017   4.476   0.999 -0.4058  0.4220 -0.5953
  947MOL0     N24923   7.156   4.473   1.024  0.2692  0.2086  0.6168
  947MOL0     C24924   8.421   4.685   1.355  0.0487 -0.3477 -0.0676
  947MOL0     C24925   8.522   4.741   1.436 -0.2186 -0.2526  0.0758
  947MOL0     C24926   8.809   5.090   1.591  0.1528  0.6898  0.3243
  947MOL0     C24927   8.895   5.192   1.551 -0.9525 -0.5219  0.3437
  947MOL0     C24928   9.015   5.223   1.626 -0.1234 -0.0718 -0.4610
  947MOL0     C24929   9.043   5.154   1.742  0.7614  0.1504 -0.5035
  947MOL0     O24930   9.144   5.196   1.831  0.6111  0.2798  0.0626
  947MOL0     C24931   9.272   5.255   1.793  0.0139 -0.0281  0.9906
  947MOL0     C24932   9.387   5.171   1.838 -0.9150 -1.0456 -0.2552
  947MOL0     C24933   9.402   5.187   1.988 -0.3357 -0.8210  0.3745
  947MOL0     C24934   9.529   5.111   2.041  0.2321  0.4488 -0.6432
  947MOL0     C24935   9.538   4.964   2.030 -0.3487  1.2858 -0.3934
  947MOL0     C24936   9.550   4.843   2.023 -1.6054  0.7739 -0.2718
  947MOL0     C24937   8.951   5.054   1.784 -0.6385  0.7495 -0.4661
  947MOL0     C24938   8.839   5.023   1.706 -0.2596 -0.7599  0.4513
  947MOL0     H24939   8.401   5.060   1.455 -2.0088 -0.3512 -1.1266
  947MOL0     H24940   8.238   4.971   1.312  1.5883  2.3064 -0.3519
  947MOL0     H24941   8.052   4.839   1.193  1.0308 -0.8818 -2.1366
  947MOL0     H24942   8.045   4.732   1.338 -0.5816  0.3198  0.4595
  947MOL0     H24943   8.056   4.536   1.196  3.5526  2.1377  1.4069
  947MOL0     H24944   8.066   4.634   1.058 -0.8508 -0.4414 -0.9260
  947MOL0     H24945   7.834   4.642   1.274 -1.6948  0.6978  0.1771
  947MOL0     H24946   7.828   4.544   1.125  1.0694 -0.3986 -1.2022
  947MOL0     H24947   7.805   4.838   1.129  0.3524  0.4673 -0.3256
  947MOL0     H24948   7.887   4.762   0.991  0.5817 -1.8254  1.5890
  947MOL0     H24949   7.679   4.640   0.935 -2.2439 -0.0212  1.0760
  947MOL0     H24950   7.656   4.811   0.963 -2.0241 -0.4323 -0.1946
  947MOL0     H24951   7.556   4.765   1.181 -1.3679 -1.6320  1.1204
  947MOL0     H24952   7.588   4.591   1.155  3.5045  2.0147  2.5904
  947MOL0     H24953   7.415   4.767   0.969  2.1519  1.3777  1.5270
  947MOL0     H24954   7.444   4.588   0.951 -0.3194 -0.5004  0.0132
  947MOL0     H24955   7.310   4.713   1.187  0.8213 -0.4838  0.7089
  947MOL0     H24956   7.355   4.542   1.169  0.4819  0.3486  0.0992
  947MOL0     H24957   7.090   4.799   1.060  0.9550  0.7296  0.9241
  947MOL0     H24958   6.858   4.766   0.913  1.6337 -1.1550 -0.4015
  947MOL0     H24959   6.805   4.730   1.067 -0.3682  0.3301  0.4694
  947MOL0     H24960   6.765   4.483   0.977  2.3815  1.3075  2.6272
  947MOL0     H24961   6.754   4.568   0.821 -1.1061  0.3339  0.2869
  947MOL0     H24962   6.571   4.560   1.058  3.1821  2.3899  2.7644
  947MOL0     H24963   6.597   4.720   0.983  1.2238 -0.4438 -1.1905
  947MOL0     H24964   6.561   4.618   0.759  0.2898 -0.2170  0.6646
  947MOL0     H24965   6.409   4.623   0.844  0.5210  0.4079 -3.8202
  947MOL0     H24966   6.501   4.206   0.726  0.3545 -1.2708 -1.2509
  947MOL0     H24967   6.432   4.125   0.495  0.5323  0.4098  0.0347
  947MOL0     H24968   6.034   4.131   0.217 -1.2402 -1.0059 -0.3603
  947MOL0     H24969   5.926   4.048   0.009 -0.6312 -2.6745  3.3155
  947MOL0     H24970   6.202   3.853  -0.280 -1.3740 -0.2462  2.6318
  947MOL0     H24971   6.179   4.000  -0.372  1.6822 -1.3782  0.1444
  947MOL0     H24972   5.984   3.758  -0.385  0.4655 -0.4223 -0.8875
  947MOL0     H24973   6.110   3.818  -0.501  0.9708 -1.3046  1.7188
  947MOL0     H24974   6.002   4.022  -0.524 -1.7497  1.3476  2.1405
  947MOL0     H24975   5.866   3.974  -0.421 -0.5418  0.2715 -0.5722
  947MOL0     H24976   5.828   3.780  -0.581  0.6658 -0.5270 -0.7201
  947MOL0     H24977   5.786   3.944  -0.642 -2.0515 -1.3944 -0.5786
  947MOL0     H24978   5.879   3.826  -0.814 -3.0877 -0.5923  3.7880
  947MOL0     H24979   6.017   3.763  -0.725 -0.2945 -0.1354  1.4192
  947MOL0     H24980   6.136   3.969  -0.715  1.2915  0.0092 -1.6766
  947MOL0     H24981   6.004   4.067  -0.751 -1.6424 -0.7469 -1.7149
  947MOL0     H24982   6.139   3.883  -0.950  1.3932  1.2269  2.2065
  947MOL0     H24983   5.995   3.979  -1.002 -2.5945  1.7979  1.6129
  947MOL0     H24984   6.230   4.058  -1.053  0.5035  1.8489 -0.3069
  947MOL0     H24985   6.239   4.110  -0.886  0.2239  0.6554  0.5453
  947MOL0     H24986   6.322   4.018  -0.164  2.2456  3.6315  1.5706
  947MOL0     H24987   6.427   4.084   0.052 -0.2142  1.3206 -0.8958
  947MOL0     H24988   6.278   4.501   0.403 -0.0621 -2.1767 -1.3814
  947MOL0     H24989   6.367   4.595   0.615  5.8777  1.5205 -0.6876
  947MOL0     H24990   8.405   4.583   1.323 -2.9341  0.0188 -0.0526
  947MOL0     H24991   8.602   4.678   1.472  0.6549  0.0780 -1.2345
  947MOL0     H24992   8.879   5.253   1.463  0.6868 -0.5628 -0.0095
  947MOL0     H24993   9.083   5.306   1.611  0.6538  0.0196  2.8178
  947MOL0     H24994   9.276   5.360   1.824 -1.5927 -0.3942  2.5932
  947MOL0     H24995   9.283   5.252   1.684  0.4734 -2.5553  1.0620
  947MOL0     H24996   9.362   5.067   1.815 -0.6970 -1.4155  1.1252
  947MOL0     H24997   9.471   5.198   1.772 -0.7359 -3.9113 -1.3074
  947MOL0     H24998   9.314   5.146   2.038 -0.7905 -0.9660 -0.5104
  947MOL0     H24999   9.415   5.293   2.014  4.3384 -0.8802 -0.8058
  947MOL0     H25000   9.622   5.158   2.007 -0.4229  2.5107  0.2637
  947MOL0     H25001   9.535   5.125   2.150  1.0013 -0.8119 -0.5000
  947MOL0     H25002   9.570   4.739   2.005  0.2624  0.4961  2.7332
  947MOL0     H25003   8.963   4.984   1.866  0.1653 -1.0700 -2.0380
  947MOL0     H25004   8.777   4.939   1.732 -3.0028  0.3056 -2.1001
  948MOL0     O25005  10.466   9.052   9.021  0.4818 -0.0047  0.2079
  948MOL0     C25006  10.475   9.038   9.145  0.1694 -1.1037  1.2580
  948MOL0     O25007  10.384   8.971   9.222 -0.1891 -0.3205  0.5675
  948MOL0     C25008  10.257   8.933   9.175 -0.3095 -0.3653  0.0096
  948MOL0     C25009  10.140   8.977   9.247  0.7114  0.1126  0.6818
  948MOL0     C25010  10.019   8.937   9.200 -0.1153  0.4238 -0.6180
  948MOL0     C25011   9.995   8.850   9.095  0.1339 -0.0534 -0.8108
  948MOL0     O25012   9.873   8.828   9.037  0.3192 -0.5528  0.6558
  948MOL0     C25013   9.770   8.929   9.060  0.0156 -0.0882 -0.0525
  948MOL0     C25014   9.658   8.905   8.951 -0.0208 -0.0367 -0.0980
  948MOL0     C25015   9.539   8.992   8.988  0.9912 -0.3391  0.0456
  948MOL0     C25016   9.415   8.975   8.886 -0.0052 -0.1602 -0.9208
  948MOL0     C25017   9.294   9.062   8.932 -0.4995  0.2006  0.3819
  948MOL0     C25018   9.192   9.064   8.818  0.0704  0.1364 -0.2217
  948MOL0     C25019   9.075   9.155   8.862  0.3067 -0.2834 -0.0101
  948MOL0     C25020   8.949   9.149   8.769 -0.0344  0.3358  0.5500
  948MOL0     N25021   8.965   9.250   8.658 -0.5474 -0.6906 -0.8813
  948MOL0     C25022   8.915   9.378   8.649  0.0305  0.6557 -0.9427
  948MOL0     C25023   8.969   9.440   8.541 -0.1920  0.8541  0.5833
  948MOL0     C25024   8.959   9.582   8.516 -0.4568 -0.1614 -0.1656
  948MOL0     C25025   8.945   9.614   8.364  0.1579  0.1274 -0.0508
  948MOL0     C25026   8.901   9.758   8.328 -0.0497  0.1844  0.5971
  948MOL0     C25027   8.750   9.793   8.355  0.1948  0.3830 -0.1211
  948MOL0     O25028   8.670   9.684   8.307 -0.2065  0.4727 -0.1340
  948MOL0     C25029   8.543   9.674   8.349  0.7437  0.5458  0.2953
  948MOL0     C25030   8.469   9.581   8.282  0.2868 -0.0886 -0.3905
  948MOL0     C25031   8.329   9.560   8.309 -0.4075 -0.0810  0.5990
  948MOL0     C25032   8.270   9.610   8.433  0.1934  0.3763  0.3046
  948MOL0     C25033   8.133   9.582   8.456  0.3287 -0.6460 -1.0806
  948MOL0     O25034   8.079   9.471   8.403 -0.2359 -0.0791 -0.0690
  948MOL0     C25035   7.940   9.462   8.415 -0.0667 -0.1930  0.0103
  948MOL0     C25036   7.857   9.480   8.306  0.9455 -0.3084 -0.3102
  948MOL0     C25037   7.716   9.465   8.317  0.0690  0.0408  0.3471
  948MOL0     C25038   7.651   9.428   8.433 -0.8570 -0.4538 -0.1569
  948MOL0     O25039   7.509   9.422   8.443  0.4677 -0.2464 -0.3011
  948MOL0     C25040   7.417   9.509   8.368 -1.1173 -0.3913 -0.4094
  948MOL0     C25041   7.278   9.517   8.429 -0.2275 -0.2613 -0.4300
  948MOL0     C25042   7.215   9.382   8.462  0.4010 -0.7090 -0.1423
  948MOL0     C25043   7.060   9.382   8.458  0.1662 -0.7515 -0.0264
  948MOL0     C25044   6.999   9.445   8.590  0.3102 -0.2535 -0.2985
  948MOL0     C25045   6.994   9.598   8.589  0.4436 -0.9870  0.3239
  948MOL0     C25046   7.024   9.655   8.726  0.1527  0.0077  0.0010
  948MOL0     C25047   7.033   9.805   8.705  0.5423  0.4851  0.0244
  948MOL0    Cl25048   6.877   9.877   8.651  0.1124 -0.0006  0.5031
  948MOL0     C25049   7.732   9.400   8.541  0.7510 -0.3042  0.3953
  948MOL0     C25050   7.877   9.419   8.536 -0.4262  0.9555 -0.0163
  948MOL0     O25051   8.079   9.656   8.536  0.2252  0.6672  0.1905
  948MOL0     C25052   8.350   9.697   8.505 -0.2809 -0.3806 -0.3547
  948MOL0     C25053   8.484   9.730   8.465 -0.2609 -0.1492 -0.1886
  948MOL0     N25054   9.048   9.349   8.475 -0.9337  0.3636 -0.2191
  948MOL0     N25055   9.047   9.238   8.551 -1.0507  0.4564 -0.4059
  948MOL0     C25056  10.107   8.801   9.032 -0.4072 -0.9856 -0.0967
  948MOL0     C25057  10.239   8.844   9.073 -0.0579 -1.0566  0.0078
  948MOL0     C25058  10.607   9.072   9.213  0.3182 -0.6590 -0.3419
  948MOL0     C25059  10.727   9.077   9.138 -0.4241  0.3696  0.4472
  948MOL0     C25060  10.854   9.101   9.192 -0.8094 -0.1051  0.4217
  948MOL0     C25061  10.870   9.139   9.325  0.1771  0.1957 -0.1369
  948MOL0     O25062  10.989   9.188   9.369  0.7890  0.3136 -0.0802
  948MOL0     C25063  11.071   9.256   9.270 -0.5849  0.0621 -0.0222
  948MOL0     C25064  11.201   9.174   9.279 -0.3479 -0.9215  0.9349
  948MOL0     C25065  11.268   9.177   9.415 -1.4919 -0.6715 -0.3452
  948MOL0     C25066  11.306   9.317   9.471 -0.6475 -0.4574 -0.4514
  948MOL0     C25067  11.391   9.399   9.376 -0.7409 -0.0512 -0.6292
  948MOL0     C25068  11.441   9.465   9.284  0.6697  0.1815 -0.0193
  948MOL0     C25069  10.755   9.138   9.407  0.2076  0.2801 -0.8283
  948MOL0     C25070  10.628   9.102   9.350  0.0857  0.9380  0.2358
  948MOL0     H25071  10.157   9.030   9.340  1.4400 -0.7168  1.0373
  948MOL0     H25072   9.946   8.973   9.272  2.4138  2.0420  1.3408
  948MOL0     H25073   9.809   9.031   9.049 -0.7516  0.1414 -0.7827
  948MOL0     H25074   9.734   8.928   9.164  3.1458 -0.0889  1.1395
  948MOL0     H25075   9.618   8.803   8.954 -4.4646  1.4329 -1.1936
  948MOL0     H25076   9.699   8.926   8.852 -1.7629  1.2907 -0.5847
  948MOL0     H25077   9.583   9.092   8.987  3.1729 -1.2329 -0.9803
  948MOL0     H25078   9.508   8.963   9.088 -2.7542  1.0394 -0.5462
  948MOL0     H25079   9.451   8.992   8.785 -1.7498  1.7223 -1.2854
  948MOL0     H25080   9.390   8.869   8.902  2.1341 -1.1360 -3.3674
  948MOL0     H25081   9.327   9.167   8.936  0.4098  0.0038 -1.1954
  948MOL0     H25082   9.262   9.037   9.034 -1.3231 -2.8636 -0.5319
  948MOL0     H25083   9.169   8.959   8.798 -0.4583  0.2616 -0.2889
  948MOL0     H25084   9.226   9.110   8.724 -0.1096 -0.0721 -0.3911
  948MOL0     H25085   9.050   9.106   8.956 -0.9883  0.0963 -0.1349
  948MOL0     H25086   9.101   9.261   8.867  0.6736 -0.3770  0.0865
  948MOL0     H25087   8.864   9.162   8.835 -0.4499 -2.2338  0.6280
  948MOL0     H25088   8.940   9.046   8.734 -1.6956  1.0754 -1.4406
  948MOL0     H25089   8.857   9.421   8.730  0.6410 -0.0895 -0.0869
  948MOL0     H25090   9.052   9.636   8.534 -0.6500  0.3201 -0.5615
  948MOL0     H25091   8.877   9.622   8.577 -0.6067 -0.2959 -0.2775
  948MOL0     H25092   8.892   9.536   8.309  1.6295 -1.3954  0.5924
  948MOL0     H25093   9.049   9.604   8.331  1.1513  0.8323  2.5837
  948MOL0     H25094   8.967   9.837   8.366 -1.7235  1.8656  0.1558
  948MOL0     H25095   8.908   9.758   8.219  2.2798  0.1411  0.6863
  948MOL0     H25096   8.718   9.880   8.297  2.5902  2.2388  1.1220
  948MOL0     H25097   8.730   9.828   8.457 -0.6251  1.3453 -0.5925
  948MOL0     H25098   8.512   9.539   8.192  4.6852  0.2672  1.2956
  948MOL0     H25099   8.275   9.500   8.238 -0.1843  0.2239  0.1660
  948MOL0     H25100   7.893   9.501   8.206  1.7853 -1.3453 -0.2489
  948MOL0     H25101   7.652   9.493   8.234  2.7324  2.9797 -0.9245
  948MOL0     H25102   7.402   9.472   8.266  0.1074  1.4295 -1.2976
  948MOL0     H25103   7.473   9.603   8.369  2.5501 -2.3704  1.1015
  948MOL0     H25104   7.216   9.581   8.365 -1.9001 -0.2426  1.1200
  948MOL0     H25105   7.286   9.575   8.522 -2.1802 -2.3857  1.1588
  948MOL0     H25106   7.255   9.339   8.554  0.0236 -0.7047  0.0244
  948MOL0     H25107   7.251   9.307   8.391  1.9272 -0.1190 -0.0271
  948MOL0     H25108   7.027   9.434   8.368  0.8986  1.6676  1.0339
  948MOL0     H25109   7.011   9.284   8.458 -0.2628 -0.5390 -0.2303
  948MOL0     H25110   7.058   9.415   8.677  0.7035  1.0437 -0.0899
  948MOL0     H25111   6.897   9.408   8.606 -1.1600  1.6557 -4.0406
  948MOL0     H25112   6.893   9.621   8.554 -1.0455 -3.1180  2.8745
  948MOL0     H25113   7.069   9.647   8.526  0.3578  1.1348  1.7830
  948MOL0     H25114   6.945   9.626   8.795  0.5729  1.1412  0.9956
  948MOL0     H25115   7.120   9.626   8.768  1.5409  2.4429 -1.2428
  948MOL0     H25116   7.116   9.831   8.638 -1.1539  3.9044 -0.9905
  948MOL0     H25117   7.048   9.848   8.805  0.0353  1.9504 -0.5104
  948MOL0     H25118   7.677   9.372   8.630 -1.2474 -0.9457 -0.9806
  948MOL0     H25119   7.950   9.387   8.610  0.1806 -3.7508 -2.2447
  948MOL0     H25120   8.317   9.733   8.602  0.0526 -1.7235  0.2746
  948MOL0     H25121   8.532   9.795   8.537  1.0315 -1.1757 -0.0769
  948MOL0     H25122  10.082   8.722   8.962 -1.3064  0.4282 -1.4436
  948MOL0     H25123  10.327   8.802   9.026  0.3027 -0.3823  0.0649
  948MOL0     H25124  10.736   9.065   9.031  0.7395  0.2688  0.5433
  948MOL0     H25125  10.946   9.079   9.139  0.3546  0.2690  2.1880
  948MOL0     H25126  11.089   9.357   9.306  0.1181  1.0594 -2.9323
  948MOL0     H25127  11.037   9.273   9.168  0.1149  0.8729 -0.1278
  948MOL0     H25128  11.183   9.071   9.246  0.5899 -0.2031 -2.1289
  948MOL0     H25129  11.266   9.212   9.200 -0.6052 -0.3203  1.0073
  948MOL0     H25130  11.356   9.113   9.414 -1.7649 -1.1176  1.4281
  948MOL0     H25131  11.200   9.133   9.488  0.6495 -1.3633  1.3314
  948MOL0     H25132  11.209   9.364   9.493 -1.6388 -2.2317 -0.8677
  948MOL0     H25133  11.358   9.328   9.567  0.3991  2.9015 -1.2580
  948MOL0     H25134  11.481   9.521   9.202 -1.2257 -0.9793 -1.8360
  948MOL0     H25135  10.767   9.181   9.506 -0.4557 -0.9804 -0.1735
  948MOL0     H25136  10.538   9.093   9.409  0.1618 -1.6399  0.1060
  949MOL0     O25137  10.777   7.297   5.760  0.0549  0.1222 -0.3153
  949MOL0     C25138  10.781   7.418   5.743  0.3957  0.8555 -0.6949
  949MOL0     O25139  10.683   7.491   5.696  0.0011 -0.5227  0.2508
  949MOL0     C25140  10.559   7.441   5.672 -0.7732 -1.0114 -0.2704
  949MOL0     C25141  10.526   7.369   5.556  0.5170  0.3768  0.0139
  949MOL0     C25142  10.395   7.323   5.546  0.4225 -0.3957  0.0468
  949MOL0     C25143  10.299   7.344   5.648  0.3746  0.4524 -0.8543
  949MOL0     O25144  10.175   7.293   5.663 -0.0388 -0.5051  0.2404
  949MOL0     C25145  10.121   7.210   5.561 -0.3504  0.6659 -0.1493
  949MOL0     C25146   9.983   7.163   5.612  0.2506  0.2654  1.0699
  949MOL0     C25147   9.991   7.046   5.713  0.2219 -0.1251 -0.2426
  949MOL0     C25148   9.862   7.037   5.800  0.1368  0.0405 -0.3351
  949MOL0     C25149   9.747   7.000   5.712 -0.1192  0.9217  0.1704
  949MOL0     C25150   9.626   6.938   5.794 -0.0986 -0.0846  0.4270
  949MOL0     C25151   9.569   7.036   5.891 -0.5857 -0.9053  0.2387
  949MOL0     C25152   9.498   7.153   5.829 -0.0705  0.3099 -0.6471
  949MOL0     N25153   9.374   7.115   5.758  0.7379  0.2870  0.4726
  949MOL0     C25154   9.261   7.045   5.802 -0.3507  0.2830 -0.2138
  949MOL0     C25155   9.175   7.048   5.705 -0.0138  0.6681  0.5139
  949MOL0     C25156   9.044   6.979   5.715 -0.0625 -1.4074 -0.2570
  949MOL0     C25157   8.957   7.004   5.587 -0.0883 -0.4075 -0.0103
  949MOL0     C25158   8.811   6.957   5.613 -0.4529  0.8718  0.3546
  949MOL0     C25159   8.708   6.982   5.503 -0.5886 -0.0072  1.2658
  949MOL0     O25160   8.747   6.898   5.390 -0.6792 -0.3049  0.0452
  949MOL0     C25161   8.652   6.862   5.309 -0.3501 -0.8471 -0.1971
  949MOL0     C25162   8.645   6.917   5.184  0.3642 -0.6151 -0.4230
  949MOL0     C25163   8.536   6.888   5.103 -0.4180 -0.0067 -0.1192
  949MOL0     C25164   8.437   6.793   5.137  0.6867  0.2329  1.0692
  949MOL0     C25165   8.306   6.770   5.059 -0.8583  0.0689 -0.7678
  949MOL0     O25166   8.205   6.710   5.126 -1.3799 -0.4614  1.6663
  949MOL0     C25167   8.084   6.689   5.082  0.1215  0.2368  0.4731
  949MOL0     C25168   8.007   6.585   5.140  0.4897 -1.1916 -0.6919
  949MOL0     C25169   7.879   6.576   5.114 -0.3033  0.3541 -0.3491
  949MOL0     C25170   7.811   6.649   5.007 -0.4925 -0.0705 -0.3986
  949MOL0     O25171   7.674   6.651   4.972 -0.3161 -0.5987  0.3787
  949MOL0     C25172   7.609   6.525   4.981  0.4045 -0.3862  0.7442
  949MOL0     C25173   7.464   6.545   4.952 -0.6546 -0.0937  0.1307
  949MOL0     C25174   7.379   6.428   4.998  0.9323  0.9774  0.1822
  949MOL0     C25175   7.234   6.462   4.975  0.5640 -1.4031  0.8242
  949MOL0     C25176   7.122   6.363   5.029 -0.6780 -0.1648  0.5411
  949MOL0     C25177   7.134   6.347   5.181 -0.2225  0.5654  0.4460
  949MOL0     C25178   6.988   6.341   5.237  0.3666  0.1626  0.2204
  949MOL0     C25179   6.969   6.342   5.396 -1.3283 -0.4498 -1.0047
  949MOL0    Cl25180   6.825   6.244   5.445  0.1447  0.5878  0.2348
  949MOL0     C25181   7.886   6.755   4.963  0.5579 -0.4332 -0.1023
  949MOL0     C25182   8.017   6.771   4.991  0.5115 -0.0506  0.9027
  949MOL0     O25183   8.305   6.805   4.946 -0.0448 -0.6081 -0.1034
  949MOL0     C25184   8.453   6.726   5.259  0.5558 -0.3311 -0.1125
  949MOL0     C25185   8.556   6.765   5.342  0.2723  0.1922 -1.3522
  949MOL0     N25186   9.239   7.118   5.599  0.0960 -0.3678 -0.3325
  949MOL0     N25187   9.364   7.151   5.627  0.2943  0.2345 -0.3229
  949MOL0     C25188  10.342   7.419   5.764 -0.3095 -0.1523  0.1524
  949MOL0     C25189  10.470   7.459   5.777 -0.2507  0.0419  1.9317
  949MOL0     C25190  10.919   7.467   5.768 -0.0110 -0.6780 -0.2310
  949MOL0     C25191  10.950   7.585   5.699  0.4435  0.1268 -1.5890
  949MOL0     C25192  11.070   7.647   5.717  0.1056  0.3655  0.6517
  949MOL0     C25193  11.179   7.587   5.793  1.3834 -0.6588  0.0952
  949MOL0     O25194  11.318   7.635   5.803  0.0046 -0.5452 -0.7796
  949MOL0     C25195  11.351   7.746   5.709 -0.3023  0.0164 -0.7074
  949MOL0     C25196  11.502   7.771   5.720  0.5360 -0.6700  0.3358
  949MOL0     C25197  11.591   7.694   5.625  0.1212  0.5433 -0.0446
  949MOL0     C25198  11.738   7.705   5.668  0.8274 -0.7674 -0.1739
  949MOL0     C25199  11.825   7.652   5.568  0.5515  0.3796 -0.3277
  949MOL0     C25200  11.900   7.605   5.489  0.0333 -0.0090  0.2726
  949MOL0     C25201  11.148   7.467   5.861 -0.4855  0.0766  0.1307
  949MOL0     C25202  11.026   7.408   5.840  0.0616  0.3679  0.2876
  949MOL0     H25203  10.595   7.346   5.475  2.0733  1.0294  1.1184
  949MOL0     H25204  10.377   7.255   5.464  0.0280  2.6544 -2.6233
  949MOL0     H25205  10.191   7.126   5.552  2.6671  2.3165  4.2747
  949MOL0     H25206  10.103   7.274   5.474 -2.5091 -1.7369 -1.5964
  949MOL0     H25207   9.930   7.140   5.519  2.3320  0.2904 -0.1765
  949MOL0     H25208   9.923   7.246   5.652 -1.0281 -0.8189  1.4798
  949MOL0     H25209  10.070   7.058   5.788  1.3868 -3.3568 -0.7902
  949MOL0     H25210  10.012   6.953   5.660  0.9031 -0.7079  0.9964
  949MOL0     H25211   9.874   6.960   5.876 -1.0303  1.2901  1.1832
  949MOL0     H25212   9.842   7.134   5.848 -0.3255 -0.5565  0.7126
  949MOL0     H25213   9.780   6.918   5.648  1.3472  0.5294  1.3656
  949MOL0     H25214   9.713   7.088   5.658 -1.3483  1.3996  1.6260
  949MOL0     H25215   9.648   6.845   5.848 -1.3979 -1.0053 -0.5503
  949MOL0     H25216   9.551   6.912   5.719  1.2041 -3.0833  0.0148
  949MOL0     H25217   9.499   6.988   5.959 -1.2259  1.8082  1.6642
  949MOL0     H25218   9.646   7.070   5.962  1.2810 -1.2233 -1.5398
  949MOL0     H25219   9.563   7.200   5.756 -0.9042 -0.2187 -1.7673
  949MOL0     H25220   9.467   7.211   5.917 -3.3840 -1.4557 -0.4883
  949MOL0     H25221   9.240   7.015   5.904 -1.7902 -0.3132 -0.6623
  949MOL0     H25222   8.990   7.026   5.798 -0.4709  0.3928 -1.4866
  949MOL0     H25223   9.058   6.873   5.736 -0.5919 -1.8508 -1.9935
  949MOL0     H25224   9.002   6.950   5.504  1.7189  1.0798 -0.0664
  949MOL0     H25225   8.959   7.108   5.551  1.0524 -0.5944 -0.5491
  949MOL0     H25226   8.801   6.851   5.638  1.0273  0.3849 -0.9706
  949MOL0     H25227   8.768   7.015   5.696  0.6090 -1.2201  2.4877
  949MOL0     H25228   8.714   7.087   5.471  0.3219  0.6705  3.4635
  949MOL0     H25229   8.609   6.957   5.543  0.0298 -2.8394  1.2560
  949MOL0     H25230   8.712   6.994   5.147 -1.3983  0.8697 -0.6901
  949MOL0     H25231   8.523   6.927   5.002 -1.4615  0.0441  0.0305
  949MOL0     H25232   8.057   6.531   5.219  2.1279  0.3384 -0.6191
  949MOL0     H25233   7.818   6.499   5.160 -1.3722  1.6062  0.3797
  949MOL0     H25234   7.622   6.487   5.083  1.6069  1.0424  1.1588
  949MOL0     H25235   7.652   6.448   4.917  0.4058  1.8890 -2.1882
  949MOL0     H25236   7.458   6.547   4.843 -0.6409 -2.0162  0.0658
  949MOL0     H25237   7.436   6.640   5.001  2.3777  1.3433 -0.6923
  949MOL0     H25238   7.396   6.403   5.103 -0.0123 -0.1951  0.0792
  949MOL0     H25239   7.413   6.341   4.940  2.5677  1.3895  0.4653
  949MOL0     H25240   7.217   6.559   5.024  1.3935 -1.3525  1.0337
  949MOL0     H25241   7.214   6.470   4.868  1.8185 -0.0600  0.6604
  949MOL0     H25242   7.128   6.270   4.973  0.1545  0.1462  0.1132
  949MOL0     H25243   7.030   6.415   5.000 -1.3348 -1.4011  0.3410
  949MOL0     H25244   7.180   6.435   5.226  2.4383 -0.0665 -0.8715
  949MOL0     H25245   7.189   6.254   5.198 -1.0121 -0.5178 -2.3751
  949MOL0     H25246   6.930   6.420   5.189  2.3818  1.5670 -0.0228
  949MOL0     H25247   6.942   6.244   5.214 -1.2275  0.4202  2.0794
  949MOL0     H25248   6.952   6.446   5.427 -0.2732 -0.5788  0.0288
  949MOL0     H25249   7.059   6.298   5.438 -1.1679 -0.3760 -1.2675
  949MOL0     H25250   7.837   6.827   4.898  0.9549  0.4522  0.5551
  949MOL0     H25251   8.059   6.866   4.957 -0.3406  0.7543  2.0131
  949MOL0     H25252   8.383   6.645   5.276  1.4130 -1.2737 -0.9365
  949MOL0     H25253   8.562   6.709   5.435 -0.2783  0.4783 -1.1367
  949MOL0     H25254  10.269   7.425   5.845 -1.0303 -3.9552 -0.0430
  949MOL0     H25255  10.507   7.514   5.863  1.3153 -0.4427  1.6038
  949MOL0     H25256  10.875   7.629   5.634 -0.5481  2.4709  0.9713
  949MOL0     H25257  11.087   7.738   5.659  0.6366 -0.7013 -0.9604
  949MOL0     H25258  11.294   7.834   5.742  0.8849 -0.4294  3.0542
  949MOL0     H25259  11.330   7.710   5.608 -1.5519 -0.9948 -0.1122
  949MOL0     H25260  11.520   7.875   5.692 -0.8785 -0.5436 -0.1764
  949MOL0     H25261  11.535   7.767   5.824  2.9209  0.0477 -0.3129
  949MOL0     H25262  11.574   7.736   5.525  2.0960 -0.8121 -1.0135
  949MOL0     H25263  11.561   7.590   5.638  2.0268  0.1220  1.4116
  949MOL0     H25264  11.774   7.807   5.688  3.3390 -1.1047 -2.3915
  949MOL0     H25265  11.761   7.640   5.753  1.5048 -0.1535  0.1208
  949MOL0     H25266  11.964   7.545   5.428 -0.3265  1.7230 -1.9599
  949MOL0     H25267  11.230   7.423   5.917  0.9160  0.9568 -1.1593
  949MOL0     H25268  11.017   7.319   5.903  1.0022  0.5573  0.7110
  950MOL0     O25269   0.423  10.753   4.510  0.6425  0.5579 -0.0867
  950MOL0     C25270   0.518  10.765   4.594 -0.1823  0.3342  1.4298
  950MOL0     O25271   0.562  10.883   4.651  0.4652 -0.4789 -0.0824
  950MOL0     C25272   0.490  11.002   4.671 -0.6759 -0.3091  1.0311
  950MOL0     C25273   0.549  11.121   4.716  0.8987 -0.0415 -0.3871
  950MOL0     C25274   0.470  11.229   4.748  0.1999 -0.8693 -0.1270
  950MOL0     C25275   0.336  11.229   4.739  0.0442 -0.1097 -0.0390
  950MOL0     O25276   0.269  11.340   4.780  1.0200 -1.2196 -0.5519
  950MOL0     C25277   0.140  11.388   4.725  0.3928  0.4692  1.0490
  950MOL0     C25278   0.107  11.531   4.743  0.6009  0.3490 -0.2038
  950MOL0     C25279  -0.030  11.560   4.672 -0.5855 -0.9149 -0.8164
  950MOL0     C25280  -0.086  11.700   4.708  0.7878 -0.0372 -0.3721
  950MOL0     C25281  -0.198  11.742   4.611  0.3077 -0.4471 -0.1139
  950MOL0     C25282  -0.253  11.879   4.645 -0.3942 -0.4337  0.3744
  950MOL0     C25283  -0.323  11.933   4.519 -1.2357  0.2204 -0.0546
  950MOL0     C25284  -0.421  12.036   4.557 -0.3659  0.9066 -0.5078
  950MOL0     N25285  -0.476  12.086   4.435 -0.3764  0.3698 -0.1386
  950MOL0     C25286  -0.444  12.205   4.368  0.5664 -0.0551  0.5688
  950MOL0     C25287  -0.522  12.202   4.253  0.3334  0.0235 -0.6361
  950MOL0     C25288  -0.516  12.320   4.158 -0.5062 -0.2405  0.0193
  950MOL0     C25289  -0.657  12.386   4.132 -0.1809 -0.4448 -0.2359
  950MOL0     C25290  -0.733  12.302   4.030 -0.7781 -0.2393 -0.5120
  950MOL0     C25291  -0.694  12.321   3.882 -0.0305 -0.0831 -0.3382
  950MOL0     O25292  -0.692  12.465   3.851 -0.1542 -0.0316  0.1939
  950MOL0     C25293  -0.808  12.539   3.833 -0.9218  0.9082 -0.6290
  950MOL0     C25294  -0.924  12.478   3.796 -0.7591  0.3025 -0.6095
  950MOL0     C25295  -1.036  12.556   3.758 -0.0636 -0.4653 -0.2477
  950MOL0     C25296  -1.032  12.694   3.782  0.9300 -0.0020  0.6013
  950MOL0     C25297  -1.136  12.786   3.743 -0.0916 -0.4412  0.2052
  950MOL0     O25298  -1.115  12.923   3.757  0.4725 -0.3907 -0.4812
  950MOL0     C25299  -1.214  13.003   3.708  0.3141  0.2717 -0.5466
  950MOL0     C25300  -1.226  13.010   3.565 -0.2934 -0.7096 -0.7076
  950MOL0     C25301  -1.313  13.103   3.503  0.3418 -0.3369  0.7475
  950MOL0     C25302  -1.377  13.198   3.583 -0.3501 -0.2008 -0.3910
  950MOL0     O25303  -1.466  13.277   3.515 -0.9203  0.0180  0.2523
  950MOL0     C25304  -1.556  13.366   3.583  0.7585 -0.2337  0.1302
  950MOL0     C25305  -1.659  13.440   3.486  0.2019  0.1139 -0.3672
  950MOL0     C25306  -1.592  13.544   3.390 -0.2532 -0.2876 -1.2351
  950MOL0     C25307  -1.691  13.590   3.285  1.2072 -0.8439  0.9219
  950MOL0     C25308  -1.800  13.681   3.358  0.2857 -0.4463  0.0377
  950MOL0     C25309  -1.877  13.750   3.246 -0.3965 -0.9792  0.1704
  950MOL0     C25310  -2.005  13.827   3.286  0.1210 -0.0847  0.3907
  950MOL0     C25311  -2.063  13.906   3.162 -0.7580 -0.1225  0.4219
  950MOL0    Cl25312  -2.137  14.065   3.217 -0.1562  0.4919 -0.1590
  950MOL0     C25313  -1.363  13.196   3.722 -1.0330  0.3592 -0.5406
  950MOL0     C25314  -1.285  13.090   3.788 -0.2844 -0.2119 -0.8122
  950MOL0     O25315  -1.243  12.739   3.707 -0.9688  0.3358 -0.5046
  950MOL0     C25316  -0.908  12.749   3.819  0.8485  0.5331 -0.4885
  950MOL0     C25317  -0.802  12.676   3.846 -0.0542  0.0788  0.7985
  950MOL0     N25318  -0.600  12.085   4.257  1.2198 -0.4455  0.9324
  950MOL0     N25319  -0.569  12.013   4.365 -0.0048 -0.1780  0.1514
  950MOL0     C25320   0.269  11.124   4.679 -0.5331  0.6391 -0.6396
  950MOL0     C25321   0.345  11.007   4.648 -0.9909  0.8178  0.0382
  950MOL0     C25322   0.607  10.646   4.594  0.6964 -1.2151  0.6354
  950MOL0     C25323   0.574  10.538   4.514 -0.2967  1.0638  0.6143
  950MOL0     C25324   0.653  10.415   4.524  1.0770 -0.0265 -0.2162
  950MOL0     C25325   0.757  10.405   4.613 -0.1529 -0.9565 -0.5374
  950MOL0     O25326   0.829  10.295   4.636 -0.9031 -0.1709 -0.0404
  950MOL0     C25327   0.965  10.311   4.595  0.6130  0.2243  0.4493
  950MOL0     C25328   0.972  10.280   4.439 -0.1297  0.0591 -0.7761
  950MOL0     C25329   0.923  10.133   4.404 -0.2954 -0.3768  0.0833
  950MOL0     C25330   0.889  10.133   4.259  0.3916  0.1249  0.5295
  950MOL0     C25331   0.763  10.213   4.231  0.4244  0.8029 -0.0164
  950MOL0     C25332   0.666  10.276   4.200 -0.4435  0.6119 -0.3308
  950MOL0     C25333   0.791  10.521   4.690  0.0390 -0.3008 -0.4000
  950MOL0     C25334   0.715  10.640   4.687  0.4484 -0.5702 -0.1482
  950MOL0     H25335   0.657  11.129   4.722  0.6882  4.9728  1.6082
  950MOL0     H25336   0.518  11.320   4.784  1.5342 -1.5411 -0.1501
  950MOL0     H25337   0.059  11.327   4.767  0.1493 -0.3583 -0.5448
  950MOL0     H25338   0.138  11.375   4.616 -1.5652 -2.8936  1.3159
  950MOL0     H25339   0.183  11.593   4.695  3.6427 -1.0612  2.3719
  950MOL0     H25340   0.114  11.556   4.850 -1.1144  0.7000 -0.1337
  950MOL0     H25341  -0.112  11.489   4.689 -0.6349 -1.0214 -1.4523
  950MOL0     H25342  -0.013  11.565   4.564 -3.1831  1.1644 -1.2212
  950MOL0     H25343  -0.130  11.684   4.807 -1.4526 -0.6004 -1.3930
  950MOL0     H25344  -0.012  11.780   4.713 -0.6735  1.4274 -1.1898
  950MOL0     H25345  -0.277  11.666   4.614 -0.6810  0.5745  1.6546
  950MOL0     H25346  -0.152  11.756   4.513 -1.1588  2.3228 -0.4886
  950MOL0     H25347  -0.188  11.955   4.690 -0.9192 -0.3381  0.9767
  950MOL0     H25348  -0.324  11.861   4.726  0.5898 -1.6823  1.0086
  950MOL0     H25349  -0.250  11.972   4.447  1.2503  0.7277  2.5437
  950MOL0     H25350  -0.369  11.851   4.464 -1.5278  1.4844 -1.7844
  950MOL0     H25351  -0.379  12.118   4.616  0.5707 -0.2181  0.4331
  950MOL0     H25352  -0.497  11.984   4.617  1.1754 -0.5271  0.2692
  950MOL0     H25353  -0.386  12.291   4.398 -0.6668  0.7969  0.5997
  950MOL0     H25354  -0.482  12.286   4.060  0.5917 -0.6833  0.5376
  950MOL0     H25355  -0.442  12.394   4.191 -0.5875  0.3497 -1.0825
  950MOL0     H25356  -0.660  12.487   4.092 -1.3005 -0.8602 -1.2808
  950MOL0     H25357  -0.717  12.379   4.223 -0.6353 -1.5540 -0.5961
  950MOL0     H25358  -0.728  12.198   4.063 -0.0325  0.1109  0.5417
  950MOL0     H25359  -0.840  12.323   4.042 -1.1038 -1.8807 -0.2687
  950MOL0     H25360  -0.761  12.264   3.818  1.6517  0.4168 -2.6624
  950MOL0     H25361  -0.595  12.276   3.867 -1.5391 -3.6855 -0.5394
  950MOL0     H25362  -0.936  12.371   3.784  1.6170 -0.1024  0.1365
  950MOL0     H25363  -1.120  12.502   3.716 -2.0849 -0.3730  3.3283
  950MOL0     H25364  -1.163  12.944   3.506  1.5885 -0.2795  0.7112
  950MOL0     H25365  -1.322  13.090   3.395  1.7111 -3.7089  0.9045
  950MOL0     H25366  -1.497  13.450   3.620  1.9172 -0.5634 -0.9036
  950MOL0     H25367  -1.604  13.314   3.666 -0.4309 -2.5929 -1.8992
  950MOL0     H25368  -1.724  13.499   3.552 -0.0886 -1.0456  0.4173
  950MOL0     H25369  -1.714  13.369   3.424 -1.8694  0.8217  0.5485
  950MOL0     H25370  -1.506  13.494   3.344 -0.7105 -1.1058 -1.2160
  950MOL0     H25371  -1.553  13.628   3.449  1.7018  0.3744 -3.3304
  950MOL0     H25372  -1.646  13.655   3.209 -0.0998 -2.1236 -1.0481
  950MOL0     H25373  -1.737  13.503   3.238 -1.1364  0.2238  1.1178
  950MOL0     H25374  -1.753  13.755   3.423 -0.4412 -0.5001  0.6365
  950MOL0     H25375  -1.859  13.621   3.429  1.4204 -2.1783 -0.4181
  950MOL0     H25376  -1.908  13.668   3.180 -0.4931 -0.5437 -0.3359
  950MOL0     H25377  -1.814  13.813   3.183  0.3292 -1.1939  0.6698
  950MOL0     H25378  -2.075  13.758   3.333  0.9652 -2.1645 -1.2089
  950MOL0     H25379  -1.982  13.904   3.360  0.1726  1.5907 -1.2848
  950MOL0     H25380  -2.143  13.850   3.112 -1.2747 -0.9821  2.1121
  950MOL0     H25381  -1.984  13.915   3.087 -0.1134  0.0165  1.1063
  950MOL0     H25382  -1.419  13.270   3.779 -1.6292 -0.8245  0.4379
  950MOL0     H25383  -1.286  13.091   3.897 -0.7649 -0.5347 -0.8127
  950MOL0     H25384  -0.897  12.853   3.849  1.1203  0.2493  0.4072
  950MOL0     H25385  -0.711  12.721   3.884  0.2695 -0.0203  0.1582
  950MOL0     H25386   0.163  11.110   4.663 -0.6809  0.3206  0.5233
  950MOL0     H25387   0.285  10.928   4.605  1.9266  0.4413 -3.9927
  950MOL0     H25388   0.479  10.531   4.462  0.4682  1.0413 -0.8100
  950MOL0     H25389   0.617  10.332   4.464 -0.1430 -0.7496  1.4558
  950MOL0     H25390   1.022  10.248   4.665 -1.2720  0.5726  2.3995
  950MOL0     H25391   1.003  10.412   4.610 -0.3923  0.7755 -0.5849
  950MOL0     H25392   0.928  10.364   4.385  0.7221  1.3846  0.5221
  950MOL0     H25393   1.080  10.283   4.424 -0.0336 -0.7520 -0.3182
  950MOL0     H25394   0.832  10.098   4.455 -0.8292 -1.3776 -1.4755
  950MOL0     H25395   1.006  10.064   4.416 -0.1215 -0.2926 -0.6141
  950MOL0     H25396   0.973  10.174   4.203  1.1713 -1.2097  0.6663
  950MOL0     H25397   0.866  10.029   4.232  3.0355  0.0504 -1.8379
  950MOL0     H25398   0.583  10.334   4.164 -0.1902  0.0762 -1.8182
  950MOL0     H25399   0.878  10.527   4.755  0.5934  2.3852 -1.2800
  950MOL0     H25400   0.733  10.734   4.737  0.2999  0.4662 -1.9694
  951MOL0     O25401   8.883   3.423   8.723 -0.4127  0.5507  0.7026
  951MOL0     C25402   8.909   3.517   8.654 -1.1036 -0.2591 -0.0924
  951MOL0     O25403   8.834   3.568   8.556  1.0391 -0.5924  0.4521
  951MOL0     C25404   8.708   3.530   8.508 -0.0279  0.5642 -0.5814
  951MOL0     C25405   8.656   3.586   8.390 -0.0019 -0.2571  0.2471
  951MOL0     C25406   8.530   3.558   8.348  0.0445  0.5815 -0.1335
  951MOL0     C25407   8.450   3.474   8.423  0.0088 -0.0986  1.3993
  951MOL0     O25408   8.318   3.465   8.383  0.0876 -0.2599  0.2073
  951MOL0     C25409   8.266   3.343   8.341  0.0633  0.0074  0.7445
  951MOL0     C25410   8.129   3.359   8.272 -0.1040  0.3061  0.5730
  951MOL0     C25411   7.999   3.353   8.354  0.0443  0.2437 -0.1016
  951MOL0     C25412   7.956   3.218   8.407  0.1370  0.3282  0.5503
  951MOL0     C25413   7.948   3.111   8.297 -0.2259 -0.1343  0.0146
  951MOL0     C25414   7.862   3.149   8.177  0.2385 -0.1642 -1.0278
  951MOL0     C25415   7.857   3.022   8.079 -0.1354 -0.0996  0.7066
  951MOL0     C25416   7.943   3.054   7.954  0.3463 -0.5254  0.3904
  951MOL0     N25417   7.936   2.948   7.858  0.3241  1.1792 -0.2245
  951MOL0     C25418   7.844   2.928   7.758 -0.5649  1.0707  0.8755
  951MOL0     C25419   7.854   2.797   7.729 -0.2761  0.1899  0.4389
  951MOL0     C25420   7.770   2.737   7.618  1.1956  0.5957  0.0628
  951MOL0     C25421   7.616   2.739   7.657  0.0974  0.1356  0.5024
  951MOL0     C25422   7.576   2.630   7.756  0.0791  0.0118 -0.1000
  951MOL0     C25423   7.434   2.638   7.789  1.1918 -0.1124 -0.3329
  951MOL0     O25424   7.361   2.556   7.695  1.0618 -0.2716  0.6499
  951MOL0     C25425   7.239   2.499   7.721 -0.6827  0.6027  0.0782
  951MOL0     C25426   7.153   2.535   7.818 -0.2518  0.4055 -0.2891
  951MOL0     C25427   7.035   2.465   7.839 -0.2077  0.9382  0.3404
  951MOL0     C25428   7.004   2.345   7.765  0.1624 -0.1972 -0.3017
  951MOL0     C25429   6.880   2.269   7.799  0.1292 -0.1673 -0.9659
  951MOL0     O25430   6.775   2.336   7.858  0.1153 -0.0597  0.0291
  951MOL0     C25431   6.647   2.277   7.843 -0.5347 -0.6635  0.2804
  951MOL0     C25432   6.606   2.174   7.921  0.7815  0.7582 -0.8744
  951MOL0     C25433   6.481   2.113   7.896  0.1641  0.7708  0.0963
  951MOL0     C25434   6.406   2.168   7.786 -0.2347 -0.4837  0.1417
  951MOL0     O25435   6.281   2.112   7.761 -0.7834  0.8144  0.3714
  951MOL0     C25436   6.168   2.194   7.735 -0.2409 -0.0203  0.2820
  951MOL0     C25437   6.045   2.095   7.744  0.2782  0.6266 -0.2057
  951MOL0     C25438   5.947   2.149   7.842  0.2509 -0.1782 -0.0260
  951MOL0     C25439   5.855   2.253   7.788  0.1287 -0.7405  0.4650
  951MOL0     C25440   5.748   2.302   7.883  0.0630 -0.2105 -0.0795
  951MOL0     C25441   5.653   2.188   7.913  0.4055  0.0476 -0.5174
  951MOL0     C25442   5.526   2.246   7.986 -1.0016  0.0319  0.5382
  951MOL0     C25443   5.407   2.157   8.003  0.2470 -0.0119 -0.1696
  951MOL0    Cl25444   5.302   2.165   7.862  0.5045 -0.1227 -0.0587
  951MOL0     C25445   6.449   2.283   7.719  0.2470 -0.2996 -0.4315
  951MOL0     C25446   6.581   2.334   7.734 -0.3851  1.0132  0.2567
  951MOL0     O25447   6.878   2.154   7.756  0.6122 -0.5589  0.1680
  951MOL0     C25448   7.097   2.315   7.663 -0.1981 -0.5878 -0.0890
  951MOL0     C25449   7.209   2.393   7.643 -0.4022  0.4722  0.8713
  951MOL0     N25450   7.962   2.745   7.797 -0.1615  0.0732 -0.3128
  951MOL0     N25451   8.003   2.828   7.886  0.0100 -0.4273 -0.1841
  951MOL0     C25452   8.495   3.413   8.539  0.5527 -0.2593 -0.1314
  951MOL0     C25453   8.624   3.439   8.584 -0.7215 -0.2353 -0.0076
  951MOL0     C25454   9.040   3.581   8.676  0.0957 -0.1643 -0.8822
  951MOL0     C25455   9.142   3.517   8.755 -0.2452 -0.3966  0.0067
  951MOL0     C25456   9.271   3.566   8.773 -0.2388 -0.2277  1.2684
  951MOL0     C25457   9.304   3.681   8.704 -0.8260 -0.6112 -0.3432
  951MOL0     O25458   9.440   3.710   8.716  0.4645  0.0585  0.5028
  951MOL0     C25459   9.493   3.806   8.624  1.2709 -0.0783  0.1773
  951MOL0     C25460   9.647   3.826   8.624  0.5325  0.8562 -0.0187
  951MOL0     C25461   9.707   3.691   8.606  0.0993  0.2920  0.7668
  951MOL0     C25462   9.859   3.692   8.573  0.2487 -0.1880 -0.5136
  951MOL0     C25463   9.924   3.560   8.559  0.2134 -0.4178 -0.3331
  951MOL0     C25464   9.994   3.461   8.547  0.7646  0.7600 -0.0253
  951MOL0     C25465   9.204   3.754   8.640  0.6290 -0.7869 -0.3257
  951MOL0     C25466   9.072   3.704   8.629 -0.2192 -0.0587  0.3984
  951MOL0     H25467   8.723   3.644   8.327  3.6814 -1.1789  2.9594
  951MOL0     H25468   8.500   3.621   8.265  0.6506  1.7045  0.4867
  951MOL0     H25469   8.267   3.268   8.421  0.4322 -1.8104 -0.8621
  951MOL0     H25470   8.329   3.305   8.260  0.5662  1.5453  0.3941
  951MOL0     H25471   8.123   3.281   8.195  2.1131 -1.0353  1.6748
  951MOL0     H25472   8.136   3.457   8.224  3.3849  0.0860  0.4023
  951MOL0     H25473   7.913   3.395   8.300 -3.3607 -3.2589  2.0204
  951MOL0     H25474   8.018   3.403   8.449  0.8669  1.6016 -0.9448
  951MOL0     H25475   8.033   3.184   8.476  1.3080  0.6197 -0.5606
  951MOL0     H25476   7.853   3.225   8.443 -1.5497  2.2292 -3.8969
  951MOL0     H25477   7.923   3.019   8.351  0.2213 -2.0653 -2.8782
  951MOL0     H25478   8.047   3.086   8.259 -0.0017  0.4322  0.2136
  951MOL0     H25479   7.900   3.242   8.135  0.2068 -0.3938 -1.5633
  951MOL0     H25480   7.759   3.177   8.202 -0.3364 -1.5453 -1.7619
  951MOL0     H25481   7.888   2.930   8.131  2.8913  0.9745  1.0082
  951MOL0     H25482   7.758   2.992   8.043  0.0192  1.8596 -1.5356
  951MOL0     H25483   8.045   3.087   7.978 -0.3100  1.8797  0.2036
  951MOL0     H25484   7.903   3.144   7.906  0.9569 -0.5475 -0.1649
  951MOL0     H25485   7.785   3.004   7.708  0.0277  1.7371  1.1682
  951MOL0     H25486   7.791   2.634   7.589 -2.4956 -0.0799 -0.8014
  951MOL0     H25487   7.788   2.800   7.530 -2.8456 -0.5964 -1.8849
  951MOL0     H25488   7.549   2.725   7.571  2.4532 -1.9660 -1.1341
  951MOL0     H25489   7.602   2.839   7.699 -0.0799  1.3412 -2.2256
  951MOL0     H25490   7.598   2.533   7.712  2.7590  0.9582 -1.0809
  951MOL0     H25491   7.623   2.638   7.855  0.5954  1.4993 -0.4241
  951MOL0     H25492   7.399   2.742   7.787 -3.6233 -1.5263 -0.8815
  951MOL0     H25493   7.417   2.594   7.887  1.4819 -0.1227 -0.2846
  951MOL0     H25494   7.190   2.624   7.868  1.0111  0.5170 -1.3649
  951MOL0     H25495   6.966   2.505   7.912 -0.1683  2.1014 -0.2359
  951MOL0     H25496   6.679   2.142   7.995  1.4963 -0.3876 -2.0232
  951MOL0     H25497   6.448   2.026   7.951 -0.2871  1.0500  0.2662
  951MOL0     H25498   6.174   2.236   7.633 -1.4217 -3.2610 -1.2484
  951MOL0     H25499   6.168   2.280   7.803 -0.3486 -0.5003  0.8877
  951MOL0     H25500   6.082   2.002   7.788 -0.6276  0.9605  1.3267
  951MOL0     H25501   6.006   2.070   7.645 -1.2826 -0.4218  0.6365
  951MOL0     H25502   6.000   2.193   7.927 -0.5405  0.8532 -0.0605
  951MOL0     H25503   5.890   2.065   7.883  1.9345 -0.3065  2.2111
  951MOL0     H25504   5.914   2.342   7.764  0.8849 -0.4495  3.0646
  951MOL0     H25505   5.821   2.211   7.693  1.9847  2.3206 -1.7430
  951MOL0     H25506   5.700   2.391   7.842 -1.9234 -1.0840  0.2717
  951MOL0     H25507   5.800   2.335   7.973 -0.6467 -1.4928  0.8138
  951MOL0     H25508   5.706   2.111   7.971  0.1704 -1.5219 -2.2802
  951MOL0     H25509   5.617   2.141   7.821  2.0412  0.0120 -1.1827
  951MOL0     H25510   5.564   2.269   8.086  0.9693 -1.3540  0.1618
  951MOL0     H25511   5.499   2.334   7.927 -2.4038 -0.3955  0.5214
  951MOL0     H25512   5.353   2.182   8.095  2.4803 -5.0451  2.9208
  951MOL0     H25513   5.429   2.051   8.009 -1.6752 -0.4245  0.4420
  951MOL0     H25514   6.378   2.325   7.648 -0.8754 -2.6340 -0.7712
  951MOL0     H25515   6.616   2.420   7.678 -1.5395  2.0512  1.0671
  951MOL0     H25516   7.085   2.226   7.601  0.2726 -1.4672  1.0471
  951MOL0     H25517   7.271   2.360   7.560 -0.4315  0.0664  1.0076
  951MOL0     H25518   8.437   3.343   8.599  2.3056 -4.0274 -2.4406
  951MOL0     H25519   8.664   3.386   8.671  1.2108  0.7710 -0.2194
  951MOL0     H25520   9.114   3.420   8.793  1.6380 -0.8707  0.2710
  951MOL0     H25521   9.351   3.507   8.817  1.0323 -0.8699 -1.6547
  951MOL0     H25522   9.453   3.903   8.654 -1.5016 -0.1855 -2.6309
  951MOL0     H25523   9.450   3.777   8.527 -0.7156  1.0083  0.6696
  951MOL0     H25524   9.665   3.886   8.533 -1.9064  0.4175 -0.8835
  951MOL0     H25525   9.688   3.867   8.716  1.4917  0.6209 -0.3350
  951MOL0     H25526   9.656   3.648   8.520  0.0733  1.0836  0.3827
  951MOL0     H25527   9.687   3.621   8.688 -0.4974  0.4901  0.7950
  951MOL0     H25528   9.877   3.755   8.485  0.1858  2.3920  1.2204
  951MOL0     H25529   9.906   3.740   8.659  0.6162  1.2436 -1.4667
  951MOL0     H25530  10.073   3.391   8.527  0.3148  0.9179 -2.8802
  951MOL0     H25531   9.228   3.854   8.606  2.3242 -0.6423  1.1385
  951MOL0     H25532   8.997   3.761   8.575  1.3032  1.3926 -0.2678
  952MOL0     O25533   3.122   5.992   5.587  0.6155 -0.0347  0.1915
  952MOL0     C25534   3.201   5.933   5.518  0.2084  0.2278  0.5919
  952MOL0     O25535   3.175   5.875   5.396 -0.3858  0.1218 -0.0404
  952MOL0     C25536   3.052   5.889   5.355  1.5286 -0.1330  0.2175
  952MOL0     C25537   2.948   5.800   5.388 -0.0244  0.4352 -0.3847
  952MOL0     C25538   2.812   5.818   5.344 -0.2805 -0.9197 -0.3877
  952MOL0     C25539   2.792   5.919   5.254  0.4294 -0.0754 -0.2219
  952MOL0     O25540   2.666   5.937   5.197 -0.5510  0.3411  0.2161
  952MOL0     C25541   2.561   5.849   5.226 -0.5366 -0.0631 -0.4124
  952MOL0     C25542   2.431   5.902   5.163  0.3857  0.5234 -0.1238
  952MOL0     C25543   2.301   5.856   5.235  0.7631  0.1174 -0.9269
  952MOL0     C25544   2.187   5.885   5.138 -0.4119 -0.1440 -0.0725
  952MOL0     C25545   2.057   5.826   5.187  0.2359  0.6160  0.4157
  952MOL0     C25546   1.933   5.893   5.129  0.4324 -1.1733  0.0771
  952MOL0     C25547   1.803   5.830   5.167  0.9600  0.6071 -0.4713
  952MOL0     C25548   1.689   5.885   5.079 -0.7653  0.0143  0.5551
  952MOL0     N25549   1.565   5.832   5.133  0.2835  0.1346  0.1986
  952MOL0     C25550   1.514   5.704   5.115 -0.0553  0.6271 -0.4513
  952MOL0     C25551   1.408   5.711   5.199  0.4095 -0.3644  0.4798
  952MOL0     C25552   1.318   5.592   5.208 -0.1776  0.3865 -0.5079
  952MOL0     C25553   1.181   5.630   5.262 -0.3869  0.2092  0.5802
  952MOL0     C25554   1.102   5.499   5.282  0.2540  0.1464 -0.1894
  952MOL0     C25555   0.957   5.521   5.346 -0.0478  0.4469  0.0722
  952MOL0     O25556   0.896   5.394   5.355  0.3062  0.1941  0.4352
  952MOL0     C25557   0.757   5.384   5.365 -0.4162 -0.3359 -0.5148
  952MOL0     C25558   0.691   5.261   5.324 -0.5233  0.6512 -0.5458
  952MOL0     C25559   0.556   5.235   5.350  1.2131 -1.1614 -0.2463
  952MOL0     C25560   0.483   5.336   5.404  0.0926 -1.2502 -0.0715
  952MOL0     C25561   0.340   5.328   5.444 -0.1744  0.6204 -0.5045
  952MOL0     O25562   0.290   5.201   5.443 -0.9201 -0.3287  0.3196
  952MOL0     C25563   0.156   5.183   5.452  0.2132  0.9338 -0.6363
  952MOL0     C25564   0.065   5.251   5.369 -0.2081 -0.4875  0.3931
  952MOL0     C25565  -0.072   5.232   5.376 -0.8054 -0.3347 -0.2895
  952MOL0     C25566  -0.123   5.138   5.466  0.3829  0.2770  1.1426
  952MOL0     O25567  -0.256   5.095   5.472  0.0071  0.0018 -0.7384
  952MOL0     C25568  -0.359   5.160   5.399  0.1862 -0.2853 -0.4449
  952MOL0     C25569  -0.482   5.095   5.451 -0.9221 -0.1588  0.3721
  952MOL0     C25570  -0.615   5.142   5.376 -1.1304  0.5175 -0.8305
  952MOL0     C25571  -0.714   5.030   5.406 -0.7484 -0.6270  0.6978
  952MOL0     C25572  -0.850   5.092   5.360 -0.3343 -0.3008  0.1415
  952MOL0     C25573  -0.964   4.982   5.384 -0.1456  0.0750  0.7863
  952MOL0     C25574  -1.105   5.031   5.326  0.7766  0.7333 -0.0168
  952MOL0     C25575  -1.225   4.943   5.372 -0.3028  0.3988 -0.6824
  952MOL0    Cl25576  -1.382   5.002   5.299  0.1480  0.0459  0.3618
  952MOL0     C25577  -0.031   5.073   5.548 -0.6441  0.0517  0.3892
  952MOL0     C25578   0.111   5.088   5.543 -0.0694 -0.0805  0.8658
  952MOL0     O25579   0.272   5.427   5.463  0.8987  0.0041  0.6449
  952MOL0     C25580   0.539   5.462   5.428 -0.3995  1.0005 -0.7331
  952MOL0     C25581   0.671   5.488   5.412  0.2019  0.8467 -0.0911
  952MOL0     N25582   1.396   5.836   5.252  0.0091  0.3524 -0.0785
  952MOL0     N25583   1.494   5.910   5.216 -0.0486  0.2939  0.0227
  952MOL0     C25584   2.891   6.003   5.213 -0.9702 -0.4438  0.6080
  952MOL0     C25585   3.013   6.001   5.272 -1.3514  0.6991 -0.1359
  952MOL0     C25586   3.349   5.916   5.554  0.0008 -0.0638  0.4051
  952MOL0     C25587   3.400   5.938   5.678 -0.3895 -0.4275 -0.0575
  952MOL0     C25588   3.538   5.942   5.712  0.5207  0.7143 -0.2056
  952MOL0     C25589   3.628   5.919   5.608 -1.2595 -0.6007  0.0840
  952MOL0     O25590   3.764   5.924   5.629 -0.4096 -0.4553 -0.1213
  952MOL0     C25591   3.827   5.985   5.748  0.4034 -0.1226  0.1311
  952MOL0     C25592   3.838   6.143   5.736 -0.0867  0.7812 -0.1958
  952MOL0     C25593   3.883   6.202   5.871 -0.4905 -0.1033  0.7008
  952MOL0     C25594   3.781   6.191   5.987  0.8314  0.5744 -0.9441
  952MOL0     C25595   3.779   6.059   6.056 -0.0828 -0.7809 -0.3992
  952MOL0     C25596   3.783   5.963   6.124 -0.2583  0.4307  0.7472
  952MOL0     C25597   3.575   5.889   5.484  0.3426  0.5894  0.4552
  952MOL0     C25598   3.440   5.901   5.449 -0.5598  0.5605 -0.6838
  952MOL0     H25599   2.951   5.712   5.452  0.5705 -0.1316 -1.1636
  952MOL0     H25600   2.731   5.752   5.372 -1.7837 -0.2007 -2.7167
  952MOL0     H25601   2.550   5.853   5.334 -1.2386 -0.1695 -0.4801
  952MOL0     H25602   2.570   5.746   5.189 -0.9719  0.5556 -2.3765
  952MOL0     H25603   2.428   5.891   5.055  1.4358  2.1066 -0.3541
  952MOL0     H25604   2.437   6.010   5.180  2.3696  0.4795 -0.3921
  952MOL0     H25605   2.294   5.907   5.332  0.0246 -0.4795 -0.6626
  952MOL0     H25606   2.315   5.749   5.253 -0.4655  0.1119  0.1367
  952MOL0     H25607   2.184   5.993   5.122 -2.1996 -0.4367 -2.1539
  952MOL0     H25608   2.193   5.840   5.039 -3.0599 -0.2526 -0.2549
  952MOL0     H25609   2.052   5.862   5.291  1.2917  2.9500 -0.2724
  952MOL0     H25610   2.069   5.718   5.199  3.3859  0.6537 -1.3748
  952MOL0     H25611   1.947   5.878   5.022 -0.8119  0.5475 -0.3716
  952MOL0     H25612   1.936   5.998   5.162 -0.1833 -1.4519  1.0730
  952MOL0     H25613   1.810   5.721   5.154  1.8854 -0.0768  3.9300
  952MOL0     H25614   1.793   5.843   5.275  1.1552 -1.7577 -0.0982
  952MOL0     H25615   1.695   5.860   4.973  1.3840  0.6217  0.4842
  952MOL0     H25616   1.682   5.994   5.088 -0.7131  0.0278  0.4411
  952MOL0     H25617   1.541   5.621   5.051  0.7201  2.0224 -1.9983
  952MOL0     H25618   1.366   5.536   5.289 -0.7171  1.3169  0.4794
  952MOL0     H25619   1.304   5.534   5.117 -0.5351 -2.9295  1.4931
  952MOL0     H25620   1.138   5.702   5.192  0.0047 -0.3594 -0.2749
  952MOL0     H25621   1.199   5.674   5.360 -1.1132  1.5572  0.1377
  952MOL0     H25622   1.070   5.455   5.187 -1.9355  4.5607 -1.7601
  952MOL0     H25623   1.162   5.422   5.332  1.5183 -0.6260 -2.7037
  952MOL0     H25624   0.902   5.596   5.288  2.2151  2.4031  0.3155
  952MOL0     H25625   0.983   5.553   5.447  0.2998 -0.1688  0.1745
  952MOL0     H25626   0.745   5.180   5.276 -0.2146  1.2720 -1.2644
  952MOL0     H25627   0.513   5.138   5.325  3.0965 -1.8050 -1.2058
  952MOL0     H25628   0.106   5.322   5.297  0.4055  1.7194  2.7543
  952MOL0     H25629  -0.144   5.278   5.309 -0.1509 -1.3758 -1.7511
  952MOL0     H25630  -0.351   5.146   5.291 -3.0260  0.9551 -0.9713
  952MOL0     H25631  -0.369   5.267   5.420 -1.1032 -0.1842 -1.4675
  952MOL0     H25632  -0.485   5.109   5.559  1.9031 -0.2567  0.5237
  952MOL0     H25633  -0.472   4.986   5.442 -0.1762 -0.0141 -0.6446
  952MOL0     H25634  -0.605   5.150   5.267 -1.2630  0.5846 -0.8380
  952MOL0     H25635  -0.642   5.242   5.412 -0.4526 -0.2846  2.2272
  952MOL0     H25636  -0.681   4.944   5.348 -3.0008  1.1009 -3.5738
  952MOL0     H25637  -0.722   5.002   5.511 -1.9346 -2.4831  0.1508
  952MOL0     H25638  -0.850   5.113   5.253  1.1319  2.0190  0.5442
  952MOL0     H25639  -0.875   5.180   5.419 -0.2800 -2.3773  3.5251
  952MOL0     H25640  -0.969   4.954   5.490  0.1878  2.9761  1.6626
  952MOL0     H25641  -0.922   4.891   5.342  1.5298  0.7212  0.9755
  952MOL0     H25642  -1.124   5.135   5.352 -0.3311  0.3468  0.8140
  952MOL0     H25643  -1.104   5.019   5.218 -2.0713  1.2067 -0.1864
  952MOL0     H25644  -1.229   4.940   5.482  2.6621 -0.0687 -0.5191
  952MOL0     H25645  -1.195   4.842   5.345  1.2389  0.8470 -0.7014
  952MOL0     H25646  -0.073   4.997   5.612 -4.0917  2.3688  1.1276
  952MOL0     H25647   0.173   5.047   5.621  2.5628 -0.1111 -1.1026
  952MOL0     H25648   0.482   5.544   5.472 -2.5374 -0.7609  0.0069
  952MOL0     H25649   0.712   5.585   5.439  1.4965 -0.2115  2.0311
  952MOL0     H25650   2.873   6.076   5.134 -2.9988 -1.8408 -0.3197
  952MOL0     H25651   3.092   6.068   5.242 -1.0147 -0.3922 -1.7994
  952MOL0     H25652   3.328   5.951   5.758 -2.2165 -1.7209 -1.4075
  952MOL0     H25653   3.561   5.965   5.816 -2.1651 -1.7281  1.0592
  952MOL0     H25654   3.927   5.942   5.749 -0.2207 -1.6877 -0.7408
  952MOL0     H25655   3.771   5.951   5.835 -1.4859 -1.0660 -1.3541
  952MOL0     H25656   3.908   6.169   5.656  3.1764 -0.6789  1.9379
  952MOL0     H25657   3.737   6.181   5.717 -2.0937 -1.5303  4.2451
  952MOL0     H25658   3.895   6.309   5.853 -1.9497  0.4915  2.9421
  952MOL0     H25659   3.978   6.155   5.897  1.1725  0.7007 -3.2455
  952MOL0     H25660   3.805   6.270   6.058  1.1773 -1.7571  1.6920
  952MOL0     H25661   3.678   6.206   5.953  0.2112 -0.5142  0.3532
  952MOL0     H25662   3.787   5.894   6.207 -2.3551 -0.7348 -0.0597
  952MOL0     H25663   3.638   5.871   5.397 -2.8849 -0.8347 -1.7721
  952MOL0     H25664   3.409   5.899   5.345 -3.5343 -2.2207  0.0870
  953MOL0     O25665   7.813   8.069   8.245 -0.4789  0.3414  0.2858
  953MOL0     C25666   7.798   8.047   8.367 -0.5005 -0.1520  0.2119
  953MOL0     O25667   7.683   8.009   8.419  0.3226 -0.0381  0.5171
  953MOL0     C25668   7.566   7.999   8.346 -0.2658 -0.6554 -0.2454
  953MOL0     C25669   7.454   8.061   8.393 -0.1317 -0.0732 -0.6395
  953MOL0     C25670   7.331   8.060   8.330  0.4765 -0.0548 -0.4784
  953MOL0     C25671   7.320   7.988   8.204  0.1056  0.4841 -0.6275
  953MOL0     O25672   7.217   7.986   8.116  0.2559 -0.1160  0.1791
  953MOL0     C25673   7.092   8.051   8.166 -0.8814  0.3809 -0.5852
  953MOL0     C25674   7.014   7.969   8.270  0.0431 -0.5505 -0.1462
  953MOL0     C25675   6.864   7.975   8.243 -0.2435  0.2135 -0.0811
  953MOL0     C25676   6.816   8.115   8.281 -0.2560 -0.5942 -0.1336
  953MOL0     C25677   6.665   8.113   8.286  0.2270  0.2318 -0.2304
  953MOL0     C25678   6.611   8.250   8.340  0.5391  0.1471  0.4347
  953MOL0     C25679   6.463   8.244   8.367  0.4101 -0.3187  0.2808
  953MOL0     C25680   6.374   8.206   8.242  0.0003  0.0023 -0.1691
  953MOL0     N25681   6.244   8.263   8.250  0.6268 -0.4566  0.8501
  953MOL0     C25682   6.196   8.335   8.143  0.2724  1.0372  0.0737
  953MOL0     C25683   6.064   8.347   8.184  0.7395 -0.7221 -0.8273
  953MOL0     C25684   5.951   8.406   8.103  0.9822  0.0173 -0.0929
  953MOL0     C25685   5.965   8.558   8.086  0.9074  0.3169 -0.0657
  953MOL0     C25686   5.941   8.645   8.216  0.0982  0.2464 -0.0298
  953MOL0     C25687   5.801   8.634   8.283 -0.0158 -0.0549 -0.3024
  953MOL0     O25688   5.697   8.638   8.177 -0.1474  0.4536 -0.0713
  953MOL0     C25689   5.570   8.601   8.193 -0.2850 -0.4659 -0.1518
  953MOL0     C25690   5.492   8.569   8.080 -0.5389 -0.1043 -0.0891
  953MOL0     C25691   5.352   8.553   8.085  0.0897  0.2541  0.0460
  953MOL0     C25692   5.292   8.570   8.210  0.4498 -0.0724  0.7977
  953MOL0     C25693   5.144   8.549   8.224 -0.3416 -0.2963  0.9953
  953MOL0     O25694   5.096   8.555   8.346  0.0287 -0.1585  0.1143
  953MOL0     C25695   4.958   8.578   8.367  0.1272  1.1493  1.2597
  953MOL0     C25696   4.894   8.489   8.455  0.0291  0.2616  0.3482
  953MOL0     C25697   4.752   8.487   8.473  1.3610 -0.3117 -0.2642
  953MOL0     C25698   4.675   8.580   8.408 -0.3001 -0.8133  0.2778
  953MOL0     O25699   4.540   8.586   8.414 -0.0893 -0.4477  1.0250
  953MOL0     C25700   4.491   8.649   8.531  0.8628 -1.0753  0.5824
  953MOL0     C25701   4.400   8.574   8.615  0.5490  0.4366 -0.1425
  953MOL0     C25702   4.264   8.541   8.554  0.9066 -0.0974  0.0565
  953MOL0     C25703   4.170   8.455   8.638 -0.4999  0.6022  0.0919
  953MOL0     C25704   4.034   8.440   8.570  0.2275  0.2899  1.1601
  953MOL0     C25705   3.924   8.360   8.643  0.1281  0.4965 -0.5952
  953MOL0     C25706   3.953   8.204   8.633 -1.0671  0.4026  0.9115
  953MOL0     C25707   3.834   8.106   8.679  0.2843 -0.0718 -0.0703
  953MOL0    Cl25708   3.881   7.935   8.665 -0.1908 -0.2179 -0.7542
  953MOL0     C25709   4.732   8.677   8.321  0.0046 -0.1142 -0.6466
  953MOL0     C25710   4.871   8.671   8.302  0.3084 -0.8291  0.8079
  953MOL0     O25711   5.076   8.527   8.124  0.4397  0.5725  0.9292
  953MOL0     C25712   5.369   8.594   8.323  0.9570 -0.2121  1.1845
  953MOL0     C25713   5.507   8.616   8.317  0.7680 -0.1994 -0.0779
  953MOL0     N25714   6.047   8.300   8.315  0.6327  0.6682 -0.6763
  953MOL0     N25715   6.157   8.249   8.354 -1.1223  1.1216  0.1034
  953MOL0     C25716   7.431   7.927   8.150 -0.4385  0.2869 -0.5470
  953MOL0     C25717   7.555   7.931   8.222  0.7322  0.6653  0.0732
  953MOL0     C25718   7.917   8.046   8.455 -0.0130 -0.2687 -0.5579
  953MOL0     C25719   7.909   7.982   8.582 -0.1871 -0.0199 -0.4511
  953MOL0     C25720   8.009   7.998   8.675 -1.1796 -0.0365  0.7140
  953MOL0     C25721   8.135   8.051   8.629 -0.2207 -0.1571  0.2363
  953MOL0     O25722   8.245   8.072   8.711  0.6527 -0.1186  0.6440
  953MOL0     C25723   8.226   8.068   8.855 -0.1896 -0.0127  0.0718
  953MOL0     C25724   8.271   7.924   8.911 -0.1983  0.0577  1.2240
  953MOL0     C25725   8.416   7.872   8.877  0.1020 -0.9211  0.7982
  953MOL0     C25726   8.531   7.973   8.887  0.4167 -0.5060 -0.6475
  953MOL0     C25727   8.520   8.044   9.021  0.7181 -0.0916 -0.4519
  953MOL0     C25728   8.527   8.104   9.130  0.2042  0.3737  0.0400
  953MOL0     C25729   8.148   8.092   8.496 -0.0965 -0.2772  0.1522
  953MOL0     C25730   8.036   8.094   8.410 -0.5519  0.1922 -0.0033
  953MOL0     H25731   7.477   8.095   8.494  1.9496  0.0313 -1.1212
  953MOL0     H25732   7.251   8.108   8.385  0.1730  0.9045 -1.7111
  953MOL0     H25733   7.019   8.060   8.086 -1.1001 -4.0911 -1.1543
  953MOL0     H25734   7.103   8.156   8.195 -0.3329  0.7994 -2.1966
  953MOL0     H25735   7.030   7.994   8.376  0.6700 -1.4106 -0.0216
  953MOL0     H25736   7.042   7.863   8.264 -2.9247 -1.4858  0.9105
  953MOL0     H25737   6.809   7.906   8.308  0.8550 -1.8795 -1.2953
  953MOL0     H25738   6.836   7.943   8.143 -1.1198 -0.0832  0.2488
  953MOL0     H25739   6.847   8.148   8.380 -2.5461 -1.3274  0.9072
  953MOL0     H25740   6.854   8.195   8.217 -0.1737  1.0606  1.8823
  953MOL0     H25741   6.626   8.025   8.337  2.4794 -2.2649 -2.5149
  953MOL0     H25742   6.625   8.092   8.186 -1.7883 -0.2839  0.6302
  953MOL0     H25743   6.622   8.327   8.264  1.6784  0.3550  0.8013
  953MOL0     H25744   6.680   8.269   8.422  0.7655  0.9431  0.0673
  953MOL0     H25745   6.452   8.164   8.440 -2.6824 -2.2688 -2.0688
  953MOL0     H25746   6.438   8.345   8.401  1.4147  0.6700 -1.7405
  953MOL0     H25747   6.358   8.098   8.247 -1.3132  0.2298  1.2495
  953MOL0     H25748   6.420   8.219   8.144  1.2056 -2.0375  0.0626
  953MOL0     H25749   6.248   8.345   8.048 -1.6636 -1.4374 -1.3896
  953MOL0     H25750   5.854   8.383   8.149  0.9080  1.7483  0.7290
  953MOL0     H25751   5.952   8.371   8.000 -2.2743 -0.4375 -0.0711
  953MOL0     H25752   5.898   8.596   8.009 -0.7690 -2.3191 -0.0350
  953MOL0     H25753   6.068   8.576   8.053  0.4728  0.1150 -1.6025
  953MOL0     H25754   6.017   8.625   8.292 -1.3836  1.2897  1.8275
  953MOL0     H25755   5.964   8.748   8.188 -0.1833  0.7098  1.3666
  953MOL0     H25756   5.793   8.720   8.351  1.1765 -0.1770  0.0076
  953MOL0     H25757   5.800   8.539   8.337  4.9226 -1.7856 -2.7227
  953MOL0     H25758   5.549   8.570   7.988  0.4640 -0.7963  0.5079
  953MOL0     H25759   5.292   8.526   7.999 -0.6439  1.3224  0.1937
  953MOL0     H25760   4.955   8.418   8.509 -0.5840 -1.4141 -1.0794
  953MOL0     H25761   4.702   8.409   8.529  0.5513 -0.2071 -0.8140
  953MOL0     H25762   4.426   8.730   8.495 -2.8794 -3.2133  1.9098
  953MOL0     H25763   4.571   8.687   8.595  1.4885 -2.4473  0.6326
  953MOL0     H25764   4.387   8.629   8.708  2.1682 -0.6450  0.7542
  953MOL0     H25765   4.447   8.478   8.638 -0.6742 -0.7157 -2.0995
  953MOL0     H25766   4.279   8.495   8.456 -0.5946 -3.2894  1.1766
  953MOL0     H25767   4.218   8.638   8.535 -1.0652 -0.7034  1.4289
  953MOL0     H25768   4.218   8.357   8.636  1.3206  1.4588 -1.5765
  953MOL0     H25769   4.162   8.479   8.744 -0.1631 -3.3813  1.1915
  953MOL0     H25770   4.046   8.392   8.472  0.2444 -2.5222  2.4257
  953MOL0     H25771   3.980   8.534   8.554 -0.9361 -0.3851  0.9035
  953MOL0     H25772   3.825   8.390   8.608  1.1482  2.6562 -1.8677
  953MOL0     H25773   3.917   8.397   8.746 -1.0305  0.7261 -0.7411
  953MOL0     H25774   3.971   8.189   8.526 -0.4071  1.9536  0.7799
  953MOL0     H25775   4.045   8.181   8.688  0.6634  2.3728 -0.9540
  953MOL0     H25776   3.738   8.117   8.626  0.2971  1.2578  0.1261
  953MOL0     H25777   3.800   8.121   8.782 -1.5451 -3.1319 -0.1088
  953MOL0     H25778   4.665   8.756   8.288 -2.0916 -1.8859 -0.9021
  953MOL0     H25779   4.917   8.744   8.237 -3.1124  0.8935  0.1008
  953MOL0     H25780   5.317   8.617   8.416  1.4299  1.2007  1.1145
  953MOL0     H25781   5.554   8.639   8.412 -1.3366  0.0843  0.9513
  953MOL0     H25782   7.448   7.883   8.052  2.4447  1.5457 -0.7114
  953MOL0     H25783   7.641   7.889   8.172 -0.0849 -1.8066  0.5984
  953MOL0     H25784   7.826   7.919   8.613 -1.1711  2.4034  2.3745
  953MOL0     H25785   7.977   7.973   8.776 -2.1020  2.5416  1.1520
  953MOL0     H25786   8.121   8.082   8.884  0.0714  0.4856  0.8226
  953MOL0     H25787   8.281   8.144   8.912  0.1587 -1.5161  1.8443
  953MOL0     H25788   8.253   7.931   9.018  0.1116  0.7740  1.2309
  953MOL0     H25789   8.200   7.855   8.863 -1.7205  3.6680 -2.2947
  953MOL0     H25790   8.412   7.825   8.778 -0.0937 -0.9169  0.8036
  953MOL0     H25791   8.435   7.789   8.945 -1.2695  0.3197  2.8269
  953MOL0     H25792   8.622   7.915   8.869  1.5101  0.8787  0.2283
  953MOL0     H25793   8.528   8.052   8.811 -1.8351 -0.7963 -0.9174
  953MOL0     H25794   8.527   8.156   9.223 -0.5466  2.3804 -1.0267
  953MOL0     H25795   8.247   8.119   8.459 -0.8242 -1.2434 -2.7404
  953MOL0     H25796   8.048   8.137   8.311 -0.6097 -0.4174 -0.2825
  954MOL0     O25797  10.802   4.408   8.373 -0.2007  0.6609 -0.1554
  954MOL0     C25798  10.917   4.409   8.321 -0.9275 -0.5046 -0.4247
  954MOL0     O25799  10.992   4.522   8.294 -0.3023  0.0566  0.4251
  954MOL0     C25800  10.946   4.647   8.334 -0.0446  0.0515  0.0129
  954MOL0     C25801  10.825   4.699   8.286  0.0385  0.3334 -0.5853
  954MOL0     C25802  10.798   4.834   8.308 -0.4238 -0.0193 -0.7606
  954MOL0     C25803  10.888   4.916   8.376 -0.1501 -0.2143  0.5661
  954MOL0     O25804  10.863   5.047   8.403 -0.0699 -0.0811  0.4879
  954MOL0     C25805  10.768   5.087   8.513 -0.0504 -0.7082 -0.1091
  954MOL0     C25806  10.713   5.220   8.482 -0.5968 -0.4827 -0.0725
  954MOL0     C25807  10.636   5.212   8.342  0.2889  0.5453  0.3279
  954MOL0     C25808  10.508   5.300   8.338 -0.2835  0.2641  0.5138
  954MOL0     C25809  10.396   5.250   8.436  0.0473 -0.5119  0.8336
  954MOL0     C25810  10.378   5.094   8.454  0.5621 -0.9829  0.0455
  954MOL0     C25811  10.287   5.052   8.567  0.5056  0.6731 -0.3403
  954MOL0     C25812  10.138   5.078   8.533  0.4248  1.2448  0.2235
  954MOL0     N25813  10.070   4.956   8.481  0.3060  0.2653 -0.7852
  954MOL0     C25814  10.114   4.863   8.388 -0.1192 -0.7989  0.5589
  954MOL0     C25815  10.050   4.749   8.411 -0.4870  0.6892 -0.2046
  954MOL0     C25816  10.053   4.634   8.323  0.0975  0.8401 -0.1841
  954MOL0     C25817   9.919   4.561   8.279 -0.0439 -0.1217 -0.7666
  954MOL0     C25818   9.809   4.662   8.249  0.5218 -0.2047 -0.4728
  954MOL0     C25819   9.690   4.590   8.190 -0.7869  1.3973 -1.1086
  954MOL0     O25820   9.583   4.671   8.169  0.3810 -0.2176 -0.3767
  954MOL0     C25821   9.471   4.655   8.247 -0.2529  0.3814  0.0703
  954MOL0     C25822   9.463   4.720   8.370 -0.5334  0.1933  0.4022
  954MOL0     C25823   9.349   4.704   8.449 -0.4428 -0.9356  0.2348
  954MOL0     C25824   9.238   4.630   8.409  0.6035  0.1139  0.4289
  954MOL0     C25825   9.110   4.634   8.488  0.0451 -0.3682 -0.7887
  954MOL0     O25826   9.009   4.568   8.429  0.5284  0.6778 -1.1899
  954MOL0     C25827   8.889   4.561   8.497  0.1707  0.2581  0.0644
  954MOL0     C25828   8.781   4.639   8.451  0.2853 -0.2096 -0.8378
  954MOL0     C25829   8.652   4.620   8.516 -0.0160 -0.2644  0.0610
  954MOL0     C25830   8.633   4.528   8.621  0.6164  0.1965 -0.9856
  954MOL0     O25831   8.507   4.501   8.682 -0.2566 -0.6699 -1.1976
  954MOL0     C25832   8.446   4.622   8.725 -0.2511  1.1141 -0.1203
  954MOL0     C25833   8.308   4.646   8.654 -0.1738 -0.1633 -0.6805
  954MOL0     C25834   8.244   4.790   8.689  0.0742 -0.1009  1.2338
  954MOL0     C25835   8.105   4.812   8.615 -0.3523 -0.3443 -0.3263
  954MOL0     C25836   8.051   4.956   8.646 -0.0346  0.4850  0.5668
  954MOL0     C25837   7.904   4.985   8.592  0.7785 -0.0763  0.0185
  954MOL0     C25838   7.796   4.891   8.636 -0.2350  0.4466  0.8549
  954MOL0     C25839   7.663   4.956   8.594  0.7742  0.7991 -0.1467
  954MOL0    Cl25840   7.576   4.859   8.458  0.0501 -0.7352 -0.4908
  954MOL0     C25841   8.737   4.444   8.646 -0.2125  0.5510 -0.3791
  954MOL0     C25842   8.860   4.457   8.589  0.0894 -0.6846  0.4111
  954MOL0     O25843   9.102   4.696   8.600 -1.0999  0.1821 -0.4980
  954MOL0     C25844   9.249   4.562   8.288 -0.6237  0.7108  0.2516
  954MOL0     C25845   9.360   4.574   8.207  0.2075  0.9694  0.1860
  954MOL0     N25846   9.974   4.765   8.522  0.1710  0.6389  0.1476
  954MOL0     N25847   9.981   4.886   8.559 -0.9830  0.0946  0.3690
  954MOL0     C25848  11.002   4.869   8.425 -0.2673 -0.9621  0.2752
  954MOL0     C25849  11.034   4.730   8.410 -0.1004 -0.6593  0.2891
  954MOL0     C25850  10.981   4.278   8.282 -0.4462 -0.0193 -0.1850
  954MOL0     C25851  11.123   4.266   8.244  0.4697 -0.3125 -0.0725
  954MOL0     C25852  11.173   4.143   8.198 -0.3366 -0.3434  0.1090
  954MOL0     C25853  11.100   4.025   8.211  0.2734 -0.3314 -0.0960
  954MOL0     O25854  11.158   3.907   8.164  0.4984  0.3661 -0.8219
  954MOL0     C25855  11.084   3.782   8.176  0.7277 -0.0936  0.2592
  954MOL0     C25856  11.100   3.728   8.316 -0.6262  0.7052  0.6254
  954MOL0     C25857  11.038   3.591   8.341 -0.1515 -0.3424  0.3345
  954MOL0     C25858  11.038   3.571   8.498 -0.0202 -0.0716  0.4958
  954MOL0     C25859  10.970   3.443   8.522  0.3054  0.1322 -0.2832
  954MOL0     C25860  10.925   3.332   8.533 -0.7974  0.2056  1.0154
  954MOL0     C25861  10.969   4.041   8.260 -0.0271 -0.7371  0.2628
  954MOL0     C25862  10.910   4.161   8.282  0.1153 -0.5708 -0.0708
  954MOL0     H25863  10.750   4.631   8.245 -1.6770  1.1858  0.9768
  954MOL0     H25864  10.715   4.890   8.266  2.2138  2.2973 -3.3084
  954MOL0     H25865  10.828   5.093   8.604  1.0934 -1.8141 -0.7634
  954MOL0     H25866  10.685   5.018   8.534  0.3441 -1.3006 -0.4856
  954MOL0     H25867  10.794   5.293   8.478  0.1349 -1.3277 -2.6166
  954MOL0     H25868  10.652   5.263   8.562  1.4048 -1.5813  2.1970
  954MOL0     H25869  10.619   5.109   8.308  0.5564  1.1839 -1.8759
  954MOL0     H25870  10.703   5.251   8.265  2.0160 -2.3411  0.2000
  954MOL0     H25871  10.531   5.406   8.345 -2.3474  0.7780  0.1147
  954MOL0     H25872  10.482   5.275   8.234  3.0801  1.7706 -0.8582
  954MOL0     H25873  10.303   5.295   8.401 -0.9257 -2.0761  1.3077
  954MOL0     H25874  10.425   5.301   8.529  0.6323  0.4575  0.1431
  954MOL0     H25875  10.476   5.058   8.485 -0.0753 -0.9370  2.2529
  954MOL0     H25876  10.350   5.051   8.357  1.5543 -3.5262  0.7910
  954MOL0     H25877  10.306   4.945   8.579 -0.7607  0.5763  1.1488
  954MOL0     H25878  10.325   5.098   8.658  5.0303 -3.4763  0.2596
  954MOL0     H25879  10.125   5.157   8.459  3.4044  0.2743 -1.5159
  954MOL0     H25880  10.087   5.119   8.621 -2.8957 -3.0022  0.6149
  954MOL0     H25881  10.190   4.861   8.310  0.6777 -0.4338  1.3037
  954MOL0     H25882  10.109   4.551   8.365 -2.5783 -2.0616 -1.9493
  954MOL0     H25883  10.110   4.666   8.235 -0.7511  1.6194 -0.4708
  954MOL0     H25884   9.892   4.494   8.361  3.0369  0.7063  1.0756
  954MOL0     H25885   9.938   4.519   8.180 -0.2715  0.9622 -1.2822
  954MOL0     H25886   9.775   4.710   8.341  2.1721  1.6989 -0.7725
  954MOL0     H25887   9.834   4.735   8.171  0.4715  0.6110  0.2642
  954MOL0     H25888   9.677   4.502   8.255 -1.4923  0.0494 -2.9857
  954MOL0     H25889   9.715   4.535   8.099  0.1545 -2.1158  1.0633
  954MOL0     H25890   9.545   4.788   8.392 -0.3251  0.5651 -1.3405
  954MOL0     H25891   9.347   4.753   8.546 -2.4879 -1.6775  0.6364
  954MOL0     H25892   8.784   4.718   8.376 -3.1230 -0.9266 -1.9152
  954MOL0     H25893   8.563   4.675   8.489 -0.7717 -0.1540  2.5410
  954MOL0     H25894   8.509   4.707   8.698 -0.5645  1.3991  0.0548
  954MOL0     H25895   8.439   4.619   8.834  3.9470 -2.8618  0.3744
  954MOL0     H25896   8.233   4.575   8.689 -0.2314  0.6248  0.9089
  954MOL0     H25897   8.304   4.640   8.545 -0.0698  2.6329 -0.9211
  954MOL0     H25898   8.317   4.864   8.656  0.3992 -1.1271 -0.5114
  954MOL0     H25899   8.219   4.797   8.796  0.3397  0.9563  1.2299
  954MOL0     H25900   8.122   4.805   8.508  3.8169 -0.4807  0.1895
  954MOL0     H25901   8.034   4.733   8.640  0.5319 -1.4311 -1.1571
  954MOL0     H25902   8.117   5.030   8.599 -0.8489  1.3429  0.7442
  954MOL0     H25903   8.045   4.965   8.755 -0.9892  0.4394  0.5225
  954MOL0     H25904   7.906   4.986   8.482  0.6285 -1.2981 -0.0155
  954MOL0     H25905   7.870   5.083   8.626 -1.9896 -0.1306 -2.2451
  954MOL0     H25906   7.807   4.789   8.597 -1.0834  0.4047  0.6877
  954MOL0     H25907   7.794   4.876   8.744  0.0085 -0.8105  0.7048
  954MOL0     H25908   7.681   5.058   8.560  2.2124  0.4219 -0.5932
  954MOL0     H25909   7.590   4.971   8.674  1.9926  2.1637  0.7496
  954MOL0     H25910   8.720   4.366   8.720 -0.8661 -1.5938 -2.6532
  954MOL0     H25911   8.953   4.409   8.619 -0.1059 -1.9869 -0.9722
  954MOL0     H25912   9.167   4.503   8.248 -1.1345  2.0711 -0.8010
  954MOL0     H25913   9.365   4.532   8.107 -1.8202  0.2049  0.3719
  954MOL0     H25914  11.077   4.935   8.465  0.3157 -0.5159 -1.4862
  954MOL0     H25915  11.129   4.686   8.439  0.1520 -1.3927 -1.5492
  954MOL0     H25916  11.190   4.351   8.250  1.0809 -0.8758  1.9705
  954MOL0     H25917  11.277   4.137   8.169 -0.1943 -2.4109  0.8508
  954MOL0     H25918  11.118   3.711   8.100 -0.3569 -1.9127  1.4058
  954MOL0     H25919  10.982   3.802   8.142  1.5157 -0.0859 -2.3241
  954MOL0     H25920  11.206   3.706   8.327 -0.5173  0.3926 -0.7806
  954MOL0     H25921  11.053   3.805   8.377 -0.6011  2.0818 -1.0071
  954MOL0     H25922  11.095   3.511   8.293  1.3187 -0.3500  1.9915
  954MOL0     H25923  10.933   3.598   8.310 -0.2393  3.1021  1.0079
  954MOL0     H25924  11.143   3.554   8.523  0.5138 -3.1432 -2.8894
  954MOL0     H25925  10.995   3.654   8.555  0.2430  0.2443  0.2384
  954MOL0     H25926  10.888   3.232   8.547 -2.5989  0.5995 -0.4935
  954MOL0     H25927  10.906   3.952   8.260  1.0851 -1.5702  1.4401
  954MOL0     H25928  10.803   4.159   8.296  0.3371  0.6624  2.3613
  955MOL0     O25929  10.304   5.409   5.421  0.0557 -0.0546  0.3979
  955MOL0     C25930  10.346   5.512   5.476  0.3014 -0.5041  0.0858
  955MOL0     O25931  10.277   5.576   5.575 -0.2534 -0.1286 -0.0945
  955MOL0     C25932  10.172   5.532   5.640 -0.2444  0.1442 -0.8168
  955MOL0     C25933  10.077   5.438   5.601  0.4546  0.2639 -0.4072
  955MOL0     C25934   9.966   5.392   5.683 -0.0231  0.6049  0.2570
  955MOL0     C25935   9.950   5.454   5.809 -0.2297  0.0273 -0.2183
  955MOL0     O25936   9.843   5.410   5.876  0.4025 -0.6993  0.9767
  955MOL0     C25937   9.848   5.417   6.015  0.3147 -0.2798 -0.3330
  955MOL0     C25938   9.716   5.374   6.073  0.0225  0.4774 -0.1930
  955MOL0     C25939   9.688   5.230   6.036 -0.4256 -0.6699  0.5126
  955MOL0     C25940   9.534   5.193   6.071  0.2044  0.4724 -0.0965
  955MOL0     C25941   9.508   5.055   6.020 -0.7051  0.5006 -0.1004
  955MOL0     C25942   9.352   5.028   6.031 -0.5469 -0.5768  0.7118
  955MOL0     C25943   9.303   4.892   5.986 -1.2801 -0.2292 -0.2337
  955MOL0     C25944   9.284   4.886   5.837  0.6470  0.7930  0.0665
  955MOL0     N25945   9.245   4.765   5.775  0.5185  0.2940 -0.0247
  955MOL0     C25946   9.132   4.690   5.791  0.2433 -0.1426  0.1059
  955MOL0     C25947   9.143   4.595   5.702  0.1375  0.2608  0.5380
  955MOL0     C25948   9.053   4.474   5.679  0.3128  0.6326 -0.9629
  955MOL0     C25949   9.021   4.454   5.537  0.0107 -0.6786  0.1768
  955MOL0     C25950   8.895   4.538   5.493 -0.3001  0.6438 -0.1836
  955MOL0     C25951   8.868   4.521   5.346  0.3772 -0.1685  0.0544
  955MOL0     O25952   8.800   4.631   5.279  0.3673  0.0706 -0.1373
  955MOL0     C25953   8.737   4.618   5.153 -0.9276  0.2161  0.8217
  955MOL0     C25954   8.680   4.730   5.107 -0.2243  0.4833 -1.0716
  955MOL0     C25955   8.635   4.753   4.985 -0.2363  0.5090  1.1951
  955MOL0     C25956   8.647   4.651   4.886 -0.2999 -0.6305 -0.3553
  955MOL0     C25957   8.603   4.670   4.748 -0.8188 -0.4629  0.8077
  955MOL0     O25958   8.634   4.580   4.653  0.1390  0.0116 -0.2475
  955MOL0     C25959   8.588   4.592   4.531  0.8596  0.5291  0.5086
  955MOL0     C25960   8.481   4.511   4.499  0.2365 -0.3211  0.1508
  955MOL0     C25961   8.419   4.528   4.373  0.0745 -0.2134 -0.3206
  955MOL0     C25962   8.474   4.601   4.271 -0.4370 -0.3195 -0.0525
  955MOL0     O25963   8.423   4.586   4.145  0.3310  0.2848  0.3905
  955MOL0     C25964   8.480   4.673   4.043  0.2522  0.0096 -0.7614
  955MOL0     C25965   8.419   4.660   3.901  0.0422  0.8502 -0.4528
  955MOL0     C25966   8.434   4.516   3.838 -0.2943 -0.4324  0.0068
  955MOL0     C25967   8.346   4.506   3.718  0.6958 -0.4238 -0.9026
  955MOL0     C25968   8.391   4.395   3.621 -1.3728  0.4040  0.0343
  955MOL0     C25969   8.296   4.384   3.497 -0.7227  0.5249 -0.2785
  955MOL0     C25970   8.327   4.253   3.418  0.1067 -0.0669  0.2420
  955MOL0     C25971   8.238   4.223   3.298  0.0955 -0.6902 -0.3078
  955MOL0    Cl25972   8.075   4.188   3.357  0.0814 -0.1210 -0.4223
  955MOL0     C25973   8.601   4.659   4.302 -0.1799 -0.4465  1.3922
  955MOL0     C25974   8.656   4.660   4.426 -0.0325 -0.1729  0.2955
  955MOL0     O25975   8.541   4.768   4.722  0.0074  0.1208 -0.3514
  955MOL0     C25976   8.706   4.527   4.928  0.9411  1.1474  0.2793
  955MOL0     C25977   8.753   4.504   5.065  0.4937 -0.1357 -0.4553
  955MOL0     N25978   9.266   4.604   5.634 -0.0826 -0.1834  0.1504
  955MOL0     N25979   9.325   4.715   5.681 -0.5570 -0.1128  0.1329
  955MOL0     C25980  10.044   5.552   5.857  0.2051  0.8840 -0.3761
  955MOL0     C25981  10.154   5.593   5.768 -0.2588  0.1749 -0.3728
  955MOL0     C25982  10.471   5.579   5.431 -0.6870 -0.6392 -0.0815
  955MOL0     C25983  10.549   5.521   5.333 -0.0818 -0.3277 -0.7778
  955MOL0     C25984  10.675   5.578   5.307  0.6935  1.2710  0.8073
  955MOL0     C25985  10.716   5.696   5.369  0.0563  0.7976  0.0096
  955MOL0     O25986  10.828   5.763   5.332 -0.2498 -0.4252  0.9404
  955MOL0     C25987  10.927   5.694   5.253 -0.3418  0.3494 -0.6354
  955MOL0     C25988  10.986   5.797   5.156 -0.2196 -0.5150 -0.3857
  955MOL0     C25989  10.885   5.821   5.041 -0.3739 -0.2652  0.5367
  955MOL0     C25990  10.795   5.949   5.058 -0.9903 -0.1509  0.0461
  955MOL0     C25991  10.879   6.068   5.054  0.1182 -0.0716 -0.2870
  955MOL0     C25992  10.950   6.165   5.062  0.1011  0.3868  0.1662
  955MOL0     C25993  10.640   5.750   5.471  0.0884 -0.1075  0.5147
  955MOL0     C25994  10.520   5.703   5.498  0.6169  0.1920 -0.3584
  955MOL0     H25995  10.080   5.410   5.496 -0.7571 -1.0834 -0.1120
  955MOL0     H25996   9.905   5.314   5.640 -0.4598  1.5457 -0.8818
  955MOL0     H25997   9.863   5.521   6.046 -1.3508 -0.3237  0.7300
  955MOL0     H25998   9.936   5.356   6.037  2.1766  1.4997 -2.3413
  955MOL0     H25999   9.625   5.432   6.054 -0.7956 -1.1300 -1.4453
  955MOL0     H26000   9.727   5.366   6.182 -1.6484 -1.5335 -0.1177
  955MOL0     H26001   9.765   5.172   6.087 -2.1082 -1.3329  2.4289
  955MOL0     H26002   9.705   5.218   5.928  1.6432 -0.6252  0.8086
  955MOL0     H26003   9.527   5.188   6.180 -0.3813 -0.9376 -0.1703
  955MOL0     H26004   9.468   5.269   6.026 -0.2883 -1.8146 -3.6007
  955MOL0     H26005   9.567   4.985   6.080 -4.8376 -2.7784  0.6499
  955MOL0     H26006   9.530   5.048   5.913 -0.0407  1.5295 -0.0480
  955MOL0     H26007   9.299   5.103   5.972 -3.1670 -0.4176  3.0596
  955MOL0     H26008   9.325   5.033   6.136 -0.2409 -1.5997  0.8529
  955MOL0     H26009   9.371   4.813   6.019  0.5441  1.2782 -0.2120
  955MOL0     H26010   9.204   4.883   6.031 -1.5293  0.3045 -0.6753
  955MOL0     H26011   9.375   4.932   5.798  1.2012  0.5985  1.0855
  955MOL0     H26012   9.211   4.961   5.805  1.5791  1.9790  0.6328
  955MOL0     H26013   9.043   4.708   5.850  1.0844  1.7729  0.8678
  955MOL0     H26014   8.964   4.490   5.741  1.5665  1.6697  0.6299
  955MOL0     H26015   9.105   4.385   5.715 -1.6416 -1.2525 -2.5235
  955MOL0     H26016   8.998   4.348   5.518 -2.9638  0.0023 -0.5974
  955MOL0     H26017   9.106   4.476   5.472  1.1832 -3.8650  0.4265
  955MOL0     H26018   8.811   4.498   5.551 -2.2790  0.6343 -2.8897
  955MOL0     H26019   8.921   4.640   5.522  1.8199 -0.6253  2.8965
  955MOL0     H26020   8.830   4.422   5.321  1.6628 -1.3761  2.4735
  955MOL0     H26021   8.965   4.506   5.298 -0.0595 -2.1931 -0.2676
  955MOL0     H26022   8.668   4.814   5.174  4.0400 -1.0682  2.0430
  955MOL0     H26023   8.598   4.850   4.954 -0.0847  0.0040 -0.7087
  955MOL0     H26024   8.430   4.441   4.564 -3.9025  0.4408 -1.9654
  955MOL0     H26025   8.336   4.459   4.365  3.4112 -4.6817 -0.3715
  955MOL0     H26026   8.584   4.643   4.028  0.7266  1.1576  0.0053
  955MOL0     H26027   8.471   4.776   4.080  1.6393 -0.8548  2.3625
  955MOL0     H26028   8.462   4.732   3.832  2.0798 -0.7085 -0.8966
  955MOL0     H26029   8.312   4.685   3.908 -0.3499 -1.0403  1.0841
  955MOL0     H26030   8.419   4.436   3.910  0.5519  0.5410  1.3093
  955MOL0     H26031   8.535   4.501   3.799 -1.2770 -1.4223 -2.3980
  955MOL0     H26032   8.243   4.484   3.748 -0.4112  2.4059 -2.3151
  955MOL0     H26033   8.338   4.607   3.677 -1.1257 -0.1085  0.1015
  955MOL0     H26034   8.390   4.295   3.667 -1.4734 -0.1583 -1.1453
  955MOL0     H26035   8.489   4.422   3.582 -1.4169 -0.6542 -0.8651
  955MOL0     H26036   8.298   4.475   3.436  0.5835 -0.9528 -2.5766
  955MOL0     H26037   8.198   4.365   3.542 -0.7731 -1.6359 -1.1835
  955MOL0     H26038   8.430   4.253   3.384  0.7584  1.1447  2.0668
  955MOL0     H26039   8.320   4.164   3.481 -1.2157 -0.5109 -0.4770
  955MOL0     H26040   8.278   4.143   3.235  3.2742  0.5169  0.0215
  955MOL0     H26041   8.233   4.319   3.246 -0.3691  0.3573  1.5841
  955MOL0     H26042   8.654   4.711   4.223 -1.2912 -0.6505  0.4977
  955MOL0     H26043   8.727   4.735   4.459 -2.4764  3.1016 -1.3513
  955MOL0     H26044   8.720   4.454   4.849 -2.3749  2.1055 -1.4101
  955MOL0     H26045   8.802   4.411   5.092  0.1873 -0.0198  0.5433
  955MOL0     H26046  10.042   5.595   5.956  0.1523  3.1239 -1.2907
  955MOL0     H26047  10.224   5.668   5.802 -1.4582  0.9043  0.5514
  955MOL0     H26048  10.540   5.426   5.280  3.7900 -1.9495  1.0629
  955MOL0     H26049  10.719   5.527   5.221 -1.7942 -0.8007  0.6500
  955MOL0     H26050  10.885   5.612   5.194 -2.6546  1.1766 -0.2764
  955MOL0     H26051  11.007   5.662   5.319 -1.6072  0.2204  0.8877
  955MOL0     H26052  11.016   5.889   5.206  1.5296 -1.6499  0.7815
  955MOL0     H26053  11.081   5.757   5.119  0.3013 -0.8230  1.2177
  955MOL0     H26054  10.820   5.736   5.020 -3.7363  1.8893  1.3578
  955MOL0     H26055  10.953   5.836   4.957  0.3169  1.0932  1.2929
  955MOL0     H26056  10.728   5.960   4.973  0.2221  3.4222 -0.5839
  955MOL0     H26057  10.735   5.951   5.150 -0.6314  2.4521  0.3074
  955MOL0     H26058  11.011   6.253   5.060  0.5709  0.0651 -0.1993
  955MOL0     H26059  10.687   5.837   5.517 -1.9219  0.7510  1.0326
  955MOL0     H26060  10.455   5.740   5.577  0.7953 -2.1406  0.9760
  956MOL0     O26061   2.498   7.855   5.677  0.0003 -0.3709  0.5086
  956MOL0     C26062   2.502   7.737   5.652 -0.0132 -0.0832  0.1701
  956MOL0     O26063   2.401   7.651   5.643 -0.1152  0.1499 -0.9216
  956MOL0     C26064   2.277   7.699   5.680 -0.3541 -0.1113 -0.3042
  956MOL0     C26065   2.216   7.647   5.800 -0.3114 -0.7034  0.7623
  956MOL0     C26066   2.088   7.687   5.834  0.6543  0.8849  0.7625
  956MOL0     C26067   2.009   7.765   5.743  0.3656  0.3716 -0.1118
  956MOL0     O26068   1.885   7.815   5.778 -0.2777  0.0514  0.3899
  956MOL0     C26069   1.778   7.718   5.804 -0.9615 -0.3659 -0.7316
  956MOL0     C26070   1.655   7.777   5.871 -0.3053  0.2235 -0.2377
  956MOL0     C26071   1.700   7.879   5.982  0.1701 -0.2261 -0.0760
  956MOL0     C26072   1.806   7.830   6.091 -0.1986  0.1716  0.2986
  956MOL0     C26073   1.762   7.703   6.171 -0.2066 -0.6680  0.4215
  956MOL0     C26074   1.647   7.753   6.267  0.2354 -0.3016 -0.9175
  956MOL0     C26075   1.614   7.639   6.371  0.1733  0.5338  0.7212
  956MOL0     C26076   1.536   7.531   6.303 -0.4629  0.1467  0.0729
  956MOL0     N26077   1.412   7.563   6.239 -0.4454  0.3262 -0.0101
  956MOL0     C26078   1.291   7.594   6.299  0.8558  0.2818 -0.5529
  956MOL0     C26079   1.206   7.620   6.194  0.6027 -0.2801 -0.8923
  956MOL0     C26080   1.055   7.656   6.217 -0.2281 -0.9781  0.1864
  956MOL0     C26081   0.990   7.536   6.274 -0.8308 -0.6672  0.3235
  956MOL0     C26082   0.840   7.544   6.275 -0.8021 -0.0314 -0.7084
  956MOL0     C26083   0.779   7.404   6.318 -0.4690 -1.1053 -0.3874
  956MOL0     O26084   0.708   7.326   6.222 -0.1401 -0.5317 -0.8322
  956MOL0     C26085   0.564   7.332   6.226 -0.3121 -0.2339  0.6542
  956MOL0     C26086   0.477   7.230   6.255 -0.7316 -0.2932  0.0455
  956MOL0     C26087   0.342   7.240   6.235 -0.4078 -0.5047 -0.6914
  956MOL0     C26088   0.284   7.363   6.206  0.1018 -1.0007  0.0673
  956MOL0     C26089   0.140   7.367   6.189  0.5904  0.4273 -0.3994
  956MOL0     O26090   0.058   7.301   6.276  0.4652  0.4899  0.1773
  956MOL0     C26091  -0.071   7.296   6.247 -0.6900  0.3765 -0.0949
  956MOL0     C26092  -0.160   7.404   6.290  0.3432  0.2171  0.3747
  956MOL0     C26093  -0.294   7.402   6.256 -0.1462  0.3996 -0.0687
  956MOL0     C26094  -0.350   7.283   6.202 -0.1261 -0.4821  0.4522
  956MOL0     O26095  -0.486   7.260   6.195 -0.5917  0.3757  0.0796
  956MOL0     C26096  -0.581   7.365   6.207 -0.7785  0.0792 -0.2753
  956MOL0     C26097  -0.728   7.315   6.198 -0.7978  0.4135 -0.5527
  956MOL0     C26098  -0.820   7.438   6.182  0.1721  0.0930  0.0894
  956MOL0     C26099  -0.960   7.381   6.214 -0.8736 -0.8306  1.1345
  956MOL0     C26100  -1.015   7.278   6.120 -0.4818  0.7571  1.0028
  956MOL0     C26101  -1.170   7.280   6.130  0.4149 -0.5535 -1.3178
  956MOL0     C26102  -1.227   7.234   6.270 -1.0707 -0.4538  0.3705
  956MOL0     C26103  -1.374   7.220   6.265 -0.3950 -0.1840 -0.1656
  956MOL0    Cl26104  -1.435   7.064   6.207  0.0312 -0.4410 -0.0002
  956MOL0     C26105  -0.270   7.186   6.157  0.2904  0.7601  0.7283
  956MOL0     C26106  -0.129   7.193   6.171  0.0539 -0.1996  0.8828
  956MOL0     O26107   0.104   7.442   6.103  0.7378  0.1004  0.0635
  956MOL0     C26108   0.373   7.475   6.183  0.0325 -0.2122 -0.0369
  956MOL0     C26109   0.511   7.453   6.187  0.8745  0.5923  0.9357
  956MOL0     N26110   1.279   7.595   6.076 -0.7926 -0.9300  0.3654
  956MOL0     N26111   1.398   7.573   6.106 -0.6009  0.3266  0.5902
  956MOL0     C26112   2.058   7.806   5.618  0.3409 -0.7241 -0.1313
  956MOL0     C26113   2.196   7.772   5.597 -0.5140  0.3804  0.4859
  956MOL0     C26114   2.632   7.672   5.655  0.0274 -0.2509 -0.6019
  956MOL0     C26115   2.750   7.744   5.649  0.3833 -0.2258  0.2366
  956MOL0     C26116   2.879   7.680   5.655  0.4146  0.3709 -0.6690
  956MOL0     C26117   2.886   7.539   5.673  0.7346 -1.2875 -0.2243
  956MOL0     O26118   3.016   7.489   5.687  0.0255 -0.0873 -0.3564
  956MOL0     C26119   3.032   7.351   5.709 -0.3793 -0.4167 -0.8445
  956MOL0     C26120   3.178   7.310   5.699 -0.1883 -0.1663  0.4487
  956MOL0     C26121   3.229   7.330   5.554  0.3042  0.9255 -0.0562
  956MOL0     C26122   3.164   7.238   5.448 -0.7035 -0.0781  1.7237
  956MOL0     C26123   3.238   7.241   5.316  0.1853  0.6987  0.1310
  956MOL0     C26124   3.305   7.242   5.212  0.5511 -0.3439  0.2294
  956MOL0     C26125   2.766   7.473   5.660 -0.3705  0.2375  0.4805
  956MOL0     C26126   2.645   7.532   5.638 -0.5393 -0.2071  0.6916
  956MOL0     H26127   2.268   7.580   5.868  0.8909 -0.8639 -0.2710
  956MOL0     H26128   2.052   7.637   5.923  2.3154 -2.9659 -0.5207
  956MOL0     H26129   1.826   7.643   5.869  0.3747  2.4917  1.8123
  956MOL0     H26130   1.738   7.663   5.718 -0.5720 -3.5711  0.9849
  956MOL0     H26131   1.594   7.695   5.910  1.1162 -0.6314  0.2607
  956MOL0     H26132   1.595   7.825   5.793  0.7226  0.1544 -1.1020
  956MOL0     H26133   1.614   7.916   6.039  0.7177 -0.7103  1.0837
  956MOL0     H26134   1.739   7.967   5.929 -3.7750  0.5445 -2.0867
  956MOL0     H26135   1.898   7.812   6.034 -0.3236  2.3811 -0.7288
  956MOL0     H26136   1.826   7.919   6.151  4.2215  0.0751 -0.7225
  956MOL0     H26137   1.843   7.653   6.225  1.1718  2.3353  1.3789
  956MOL0     H26138   1.724   7.623   6.106  1.5927 -2.4104  1.4149
  956MOL0     H26139   1.553   7.771   6.216 -2.0222 -0.5981  2.7676
  956MOL0     H26140   1.681   7.840   6.325 -0.3214 -1.1342  0.7393
  956MOL0     H26141   1.705   7.600   6.417 -0.7421 -2.8360 -0.0389
  956MOL0     H26142   1.554   7.677   6.455 -2.4112 -0.3782 -0.6046
  956MOL0     H26143   1.516   7.450   6.375 -2.0289  1.3459  1.0850
  956MOL0     H26144   1.610   7.481   6.241  1.6783  1.4149  1.4902
  956MOL0     H26145   1.275   7.581   6.406 -0.7265  2.2272 -0.4964
  956MOL0     H26146   1.005   7.692   6.127 -1.1095 -3.9912 -0.6524
  956MOL0     H26147   1.052   7.742   6.284  0.0729 -1.4243  0.7826
  956MOL0     H26148   1.024   7.538   6.378 -1.3462  3.0579  0.5529
  956MOL0     H26149   1.022   7.445   6.222  1.6863 -0.2715  1.0864
  956MOL0     H26150   0.806   7.622   6.345  1.1657 -0.7146  1.1187
  956MOL0     H26151   0.804   7.564   6.174  1.0443 -2.7002 -2.0102
  956MOL0     H26152   0.705   7.430   6.394  0.0298  0.7945 -0.5012
  956MOL0     H26153   0.847   7.337   6.371 -0.5565 -1.3313 -0.5589
  956MOL0     H26154   0.532   7.140   6.283  0.6378  0.3435 -0.4724
  956MOL0     H26155   0.273   7.162   6.265 -1.8243  1.3592  1.1530
  956MOL0     H26156  -0.125   7.489   6.348  1.5753  1.9636 -2.6272
  956MOL0     H26157  -0.344   7.487   6.301 -1.2781 -0.5400  0.4896
  956MOL0     H26158  -0.561   7.452   6.144  1.3373  0.4847  0.8541
  956MOL0     H26159  -0.556   7.417   6.300  3.6663  0.4106 -1.4095
  956MOL0     H26160  -0.752   7.252   6.285  0.2939 -0.2868 -0.7377
  956MOL0     H26161  -0.716   7.252   6.109 -1.8166  0.3216 -0.6396
  956MOL0     H26162  -0.812   7.484   6.083 -3.6648 -2.5528 -1.7297
  956MOL0     H26163  -0.801   7.508   6.263 -0.5248 -1.9467  2.1122
  956MOL0     H26164  -0.970   7.336   6.313 -1.1279 -2.0644  0.5608
  956MOL0     H26165  -1.027   7.468   6.210 -0.9856 -0.9603 -1.2508
  956MOL0     H26166  -0.990   7.174   6.139 -1.2587  0.4968  0.6742
  956MOL0     H26167  -0.995   7.302   6.015 -2.7399 -1.0978  0.0539
  956MOL0     H26168  -1.206   7.209   6.055  0.4969 -2.3995  0.3000
  956MOL0     H26169  -1.210   7.377   6.098 -1.9628 -1.2838 -0.7510
  956MOL0     H26170  -1.172   7.147   6.308  2.2467  0.6709 -1.4249
  956MOL0     H26171  -1.209   7.314   6.342  0.6509 -2.4866  2.3646
  956MOL0     H26172  -1.420   7.295   6.201 -0.2387 -0.2668 -0.3750
  956MOL0     H26173  -1.409   7.234   6.368  0.1992 -1.2397  0.2010
  956MOL0     H26174  -0.309   7.095   6.113  2.8911 -0.2348  0.3026
  956MOL0     H26175  -0.059   7.117   6.139 -0.2650  1.1076 -3.6434
  956MOL0     H26176   0.331   7.572   6.157  2.5345  1.2519  1.0245
  956MOL0     H26177   0.579   7.535   6.166  0.3069  0.7202 -0.5456
  956MOL0     H26178   1.998   7.867   5.551 -0.8114 -1.4032  0.2329
  956MOL0     H26179   2.239   7.804   5.503 -5.3309 -0.5446 -2.3998
  956MOL0     H26180   2.722   7.848   5.644 -1.0374 -0.4037  2.7844
  956MOL0     H26181   2.974   7.733   5.647  0.7405 -0.0999  0.0342
  956MOL0     H26182   2.969   7.290   5.644 -0.6695 -0.8750 -0.1478
  956MOL0     H26183   2.991   7.324   5.807  2.0594  0.1007  0.4032
  956MOL0     H26184   3.240   7.377   5.760 -0.6896 -1.0414  1.9760
  956MOL0     H26185   3.181   7.207   5.736 -0.5749 -0.8410 -1.3058
  956MOL0     H26186   3.335   7.307   5.563 -0.0986 -0.8673  0.4496
  956MOL0     H26187   3.222   7.437   5.529  1.3398  0.3801 -3.1119
  956MOL0     H26188   3.172   7.142   5.501  2.4415 -1.9123 -1.6331
  956MOL0     H26189   3.060   7.265   5.428  0.3994  2.2516 -1.6613
  956MOL0     H26190   3.372   7.251   5.129 -0.0810  1.7181 -0.1091
  956MOL0     H26191   2.767   7.365   5.658  1.6718  0.2231 -1.7062
  956MOL0     H26192   2.555   7.476   5.616  0.6715 -1.8957 -0.2039
  957MOL0     O26193   3.630   3.963   6.009 -0.1262 -0.5984  0.2640
  957MOL0     C26194   3.724   3.880   6.008  0.8678 -0.0258  0.0424
  957MOL0     O26195   3.711   3.750   5.965 -0.5005 -0.2984  0.3055
  957MOL0     C26196   3.584   3.725   5.916 -0.3017  0.2061 -0.2862
  957MOL0     C26197   3.463   3.713   5.995  0.4983  0.5078  0.4738
  957MOL0     C26198   3.340   3.690   5.939 -0.3274  0.1887  0.2377
  957MOL0     C26199   3.323   3.673   5.805 -0.1626  0.7510  0.2357
  957MOL0     O26200   3.206   3.663   5.728 -0.1112 -0.2025  0.6493
  957MOL0     C26201   3.077   3.653   5.789 -0.1739  1.5141 -0.1792
  957MOL0     C26202   3.002   3.554   5.700 -0.3682 -0.7324  0.0360
  957MOL0     C26203   2.859   3.543   5.749 -0.4613  0.0506  0.3432
  957MOL0     C26204   2.774   3.655   5.690  0.1720 -0.0617  0.3544
  957MOL0     C26205   2.629   3.634   5.725  1.6051  0.3023  0.6144
  957MOL0     C26206   2.607   3.656   5.880  0.4209 -0.3225 -0.0028
  957MOL0     C26207   2.460   3.630   5.931 -0.3153  0.2079  1.1522
  957MOL0     C26208   2.371   3.746   5.883  0.2716  0.0323 -0.2623
  957MOL0     N26209   2.220   3.708   5.881 -0.8680 -0.0452 -0.0429
  957MOL0     C26210   2.123   3.718   5.978  1.1878 -0.6696 -0.6247
  957MOL0     C26211   2.005   3.689   5.921 -0.4141 -0.1363  0.1329
  957MOL0     C26212   1.872   3.705   5.988  0.5258 -0.1387  0.2059
  957MOL0     C26213   1.757   3.674   5.893  0.1298 -0.4344  0.9337
  957MOL0     C26214   1.750   3.797   5.788  0.1383  0.3404  0.7149
  957MOL0     C26215   1.602   3.811   5.736 -0.2421 -0.7479  0.2322
  957MOL0     O26216   1.588   3.907   5.633  0.0060 -0.3428 -0.1873
  957MOL0     C26217   1.461   3.941   5.589 -0.3210 -0.6005 -0.2765
  957MOL0     C26218   1.347   3.907   5.659  0.1597  0.2964  0.4913
  957MOL0     C26219   1.227   3.934   5.592 -0.0244 -0.3810 -0.4835
  957MOL0     C26220   1.216   4.002   5.469 -0.2449  0.2864  0.6633
  957MOL0     C26221   1.090   4.033   5.409 -0.0423  0.3873 -0.1613
  957MOL0     O26222   0.974   4.015   5.484 -0.6543  0.0620 -0.1676
  957MOL0     C26223   0.848   4.030   5.420  0.6218 -0.1036  0.1677
  957MOL0     C26224   0.814   4.014   5.287 -0.2846 -0.0553  1.0174
  957MOL0     C26225   0.674   4.025   5.252 -0.5177  0.4182  0.6105
  957MOL0     C26226   0.572   4.050   5.353 -0.0723 -0.2032 -0.3226
  957MOL0     O26227   0.440   4.069   5.317  1.0624 -0.8138 -0.5846
  957MOL0     C26228   0.379   4.168   5.402  0.2253 -0.4812 -0.1842
  957MOL0     C26229   0.252   4.206   5.334 -0.4176  0.6178 -0.2135
  957MOL0     C26230   0.258   4.245   5.190 -0.6448 -0.4858  0.1860
  957MOL0     C26231   0.117   4.281   5.134  0.0818 -0.0644 -0.3745
  957MOL0     C26232   0.126   4.386   5.032  0.2180  0.0804  0.0622
  957MOL0     C26233  -0.002   4.400   4.938 -0.2196  0.6182 -0.0028
  957MOL0     C26234  -0.134   4.418   5.022 -0.0917 -0.0563 -0.4758
  957MOL0     C26235  -0.255   4.372   4.937  0.3223  0.3592  0.3410
  957MOL0    Cl26236  -0.409   4.427   5.037  0.2232 -0.0496  0.3904
  957MOL0     C26237   0.616   4.069   5.481  0.0449 -0.4009  0.8266
  957MOL0     C26238   0.750   4.048   5.509  0.0333  0.5960  0.2476
  957MOL0     O26239   1.092   4.063   5.291  0.2127 -0.0170 -0.8797
  957MOL0     C26240   1.340   4.030   5.404  0.7356  0.9362 -0.4143
  957MOL0     C26241   1.459   4.001   5.468  0.0015  0.4096  0.0342
  957MOL0     N26242   2.039   3.670   5.787 -0.4733 -0.3317  0.1921
  957MOL0     N26243   2.163   3.673   5.768  0.3770 -0.5049  0.3398
  957MOL0     C26244   3.448   3.666   5.738 -0.2225  0.0138 -0.0094
  957MOL0     C26245   3.571   3.692   5.785  0.1552  0.0047 -0.2860
  957MOL0     C26246   3.863   3.916   6.029  0.5471 -0.3539 -0.2503
  957MOL0     C26247   3.960   3.822   6.062 -0.9007  1.1766  1.1062
  957MOL0     C26248   4.091   3.861   6.080  0.1043  0.0471  0.2867
  957MOL0     C26249   4.135   3.994   6.051  1.0822  0.7519  0.2772
  957MOL0     O26250   4.272   4.020   6.066  0.7630 -0.3804 -0.3123
  957MOL0     C26251   4.329   4.136   5.992 -0.9142 -0.9004 -0.7902
  957MOL0     C26252   4.473   4.093   5.943 -0.6845  0.5721  0.2419
  957MOL0     C26253   4.565   4.062   6.058  0.7319 -0.5755 -0.0044
  957MOL0     C26254   4.711   4.012   6.021  0.3018  0.0719  0.5849
  957MOL0     C26255   4.769   4.101   5.921 -0.3795  0.2787  0.0985
  957MOL0     C26256   4.822   4.186   5.852  0.0784 -0.5742  0.3979
  957MOL0     C26257   4.039   4.092   6.017 -0.1456  0.0633 -0.6193
  957MOL0     C26258   3.902   4.047   6.010 -0.8529 -0.1173 -0.6287
  957MOL0     H26259   3.461   3.729   6.103 -1.3759 -0.7654  0.6664
  957MOL0     H26260   3.249   3.681   5.998 -0.2009 -0.3961  0.3427
  957MOL0     H26261   3.049   3.758   5.795  0.2215  1.6904 -1.2838
  957MOL0     H26262   3.081   3.603   5.886 -1.0400 -3.5190 -2.3626
  957MOL0     H26263   3.046   3.454   5.706 -1.3783 -1.1546  0.8415
  957MOL0     H26264   2.990   3.576   5.593 -1.3565 -2.3510 -0.2261
  957MOL0     H26265   2.854   3.534   5.858  2.8619 -0.1040  0.5847
  957MOL0     H26266   2.806   3.455   5.710 -2.5966  0.2253  2.6058
  957MOL0     H26267   2.807   3.746   5.740  1.7585 -0.6280  0.3935
  957MOL0     H26268   2.787   3.664   5.581  0.6662  1.8752  0.5466
  957MOL0     H26269   2.579   3.544   5.689  3.0991  0.0764 -1.0552
  957MOL0     H26270   2.572   3.707   5.667  0.6598 -2.8510 -2.8042
  957MOL0     H26271   2.641   3.756   5.908 -1.0093 -0.6515  3.3729
  957MOL0     H26272   2.672   3.586   5.933 -0.7326 -2.5293 -1.3734
  957MOL0     H26273   2.430   3.539   5.877 -2.5046  1.7746 -0.4400
  957MOL0     H26274   2.447   3.617   6.038 -4.4671  3.3740  1.2884
  957MOL0     H26275   2.403   3.773   5.783  0.9457 -3.3744 -1.1148
  957MOL0     H26276   2.364   3.833   5.949  2.0926 -1.6474  2.3624
  957MOL0     H26277   2.127   3.752   6.081 -0.0702  2.5465 -1.4974
  957MOL0     H26278   1.863   3.805   6.030  1.2645  0.8788 -1.8802
  957MOL0     H26279   1.865   3.629   6.067  0.2604  2.8176  3.2247
  957MOL0     H26280   1.661   3.663   5.945 -0.8030 -1.3804 -0.9028
  957MOL0     H26281   1.776   3.577   5.846  1.3482  0.9341 -1.6177
  957MOL0     H26282   1.779   3.887   5.844  0.4235  0.4895  0.3319
  957MOL0     H26283   1.817   3.786   5.702  1.8656 -0.1714  2.0645
  957MOL0     H26284   1.544   3.856   5.817  2.2809  0.6955  1.3640
  957MOL0     H26285   1.555   3.715   5.712 -1.0321  0.1928 -2.3839
  957MOL0     H26286   1.341   3.860   5.757 -0.9927  0.5225  0.5359
  957MOL0     H26287   1.133   3.895   5.629  0.2918 -0.2759  0.4675
  957MOL0     H26288   0.889   4.012   5.208 -2.4725 -1.9474 -1.1633
  957MOL0     H26289   0.648   4.025   5.147  3.0277 -2.1651 -0.4912
  957MOL0     H26290   0.431   4.263   5.415 -0.6368  0.0256 -0.3642
  957MOL0     H26291   0.359   4.120   5.498  0.1983  0.1973  0.1539
  957MOL0     H26292   0.201   4.279   5.397  1.4131  0.5488  1.4112
  957MOL0     H26293   0.191   4.115   5.331 -0.2175  0.3988  1.4590
  957MOL0     H26294   0.297   4.164   5.128 -0.6605 -0.3915  0.0543
  957MOL0     H26295   0.317   4.334   5.168 -0.5785 -0.3497  0.8724
  957MOL0     H26296   0.072   4.188   5.097 -0.0516 -1.2884  2.5972
  957MOL0     H26297   0.055   4.315   5.217 -0.1261 -0.1667 -0.4832
  957MOL0     H26298   0.209   4.375   4.961  0.1235  2.9261 -0.5973
  957MOL0     H26299   0.143   4.478   5.088 -1.0650 -1.3161  2.9892
  957MOL0     H26300  -0.011   4.308   4.880  0.8417  1.3786 -1.4533
  957MOL0     H26301   0.006   4.489   4.875  1.7138 -0.1837 -0.9513
  957MOL0     H26302  -0.137   4.361   5.115 -0.4668  0.3035 -0.2612
  957MOL0     H26303  -0.138   4.524   5.050  3.4967 -0.1895  1.1641
  957MOL0     H26304  -0.262   4.271   4.897 -0.2598  1.4453 -2.6388
  957MOL0     H26305  -0.262   4.434   4.847  0.0646 -2.0975 -1.4345
  957MOL0     H26306   0.555   4.072   5.570  0.1517 -0.7910  0.9156
  957MOL0     H26307   0.780   4.041   5.613 -0.2559  3.5099  0.6113
  957MOL0     H26308   1.337   4.082   5.309 -0.7114  0.3505 -0.7088
  957MOL0     H26309   1.540   4.045   5.412 -1.8394  1.9078 -1.6188
  957MOL0     H26310   3.454   3.646   5.632 -0.1773 -2.5326  0.4171
  957MOL0     H26311   3.663   3.688   5.728 -0.2903 -0.8583 -0.9602
  957MOL0     H26312   3.924   3.720   6.069 -0.4804  0.9839  0.4766
  957MOL0     H26313   4.159   3.779   6.102  0.9146  0.8965  1.0247
  957MOL0     H26314   4.334   4.217   6.065  1.2462 -1.9324  0.3276
  957MOL0     H26315   4.264   4.165   5.909 -2.0144 -2.2611 -0.4378
  957MOL0     H26316   4.457   4.005   5.880  0.9431  0.7073 -0.4081
  957MOL0     H26317   4.530   4.168   5.888  1.6446 -0.6505  0.8125
  957MOL0     H26318   4.528   3.993   6.135  0.1312 -0.3445 -0.0833
  957MOL0     H26319   4.571   4.158   6.109 -2.6900  0.3551 -1.1268
  957MOL0     H26320   4.775   4.025   6.109 -0.4367  1.2867  0.9645
  957MOL0     H26321   4.705   3.910   5.983 -0.9487  0.5807 -0.6902
  957MOL0     H26322   4.851   4.250   5.771 -0.3547 -0.2410  0.5058
  957MOL0     H26323   4.072   4.194   6.000  0.2787 -0.1501 -1.1083
  957MOL0     H26324   3.830   4.128   5.998  3.0529  3.8316  0.2327
  958MOL0     O26325  10.148   4.206   6.708  0.2877  0.2287  0.7161
  958MOL0     C26326  10.215   4.171   6.609  0.0361  0.0492  0.4378
  958MOL0     O26327  10.165   4.141   6.483  0.1764 -0.0590 -0.5467
  958MOL0     C26328  10.035   4.144   6.439  0.3800  0.4613  0.0587
  958MOL0     C26329  10.021   4.141   6.304 -0.0593  0.0439 -0.4058
  958MOL0     C26330   9.897   4.136   6.251  0.4666  0.8585  0.1219
  958MOL0     C26331   9.778   4.138   6.334 -0.7310 -0.0041  0.1903
  958MOL0     O26332   9.650   4.127   6.294 -1.1529 -1.2018 -1.0432
  958MOL0     C26333   9.620   4.104   6.159  0.2002 -0.0512  0.2679
  958MOL0     C26334   9.484   4.037   6.150 -0.1856 -0.2362  0.3310
  958MOL0     C26335   9.369   4.116   6.199  0.2415 -0.5143 -0.3844
  958MOL0     C26336   9.236   4.064   6.135  0.8685  0.4863  0.3128
  958MOL0     C26337   9.208   4.116   5.996 -0.3846 -0.2917  1.1912
  958MOL0     C26338   9.081   4.050   5.941 -0.1592  1.0816 -0.5365
  958MOL0     C26339   9.050   4.092   5.788 -0.0991  0.3633 -1.0461
  958MOL0     C26340   8.944   3.998   5.730 -0.6521  1.0125  0.4880
  958MOL0     N26341   8.925   4.030   5.587  1.1701  0.5732 -0.2598
  958MOL0     C26342   8.941   3.940   5.481  0.0697  0.5226 -0.3132
  958MOL0     C26343   8.874   3.989   5.375  0.8856 -0.8120 -0.3294
  958MOL0     C26344   8.868   3.926   5.238 -0.2695 -0.6992  0.1831
  958MOL0     C26345   9.012   3.920   5.164  0.7394 -0.5105  0.0915
  958MOL0     C26346   9.066   4.060   5.130 -0.6475  0.7823 -0.2984
  958MOL0     C26347   9.151   4.145   5.228 -0.2352 -0.5529  0.0563
  958MOL0     O26348   9.279   4.093   5.260  0.1807 -0.1578  0.6516
  958MOL0     C26349   9.367   4.189   5.300  0.7868 -0.8549 -0.0054
  958MOL0     C26350   9.497   4.189   5.249 -0.3629 -0.0450 -0.7417
  958MOL0     C26351   9.583   4.290   5.276  1.4727  0.8150  1.4385
  958MOL0     C26352   9.560   4.385   5.376 -0.3042  0.8192  0.1352
  958MOL0     C26353   9.666   4.477   5.418 -0.1024 -0.0511 -0.1601
  958MOL0     O26354   9.793   4.439   5.395  0.1967  0.0643 -0.4688
  958MOL0     C26355   9.907   4.504   5.448 -0.1048 -0.3237 -0.4072
  958MOL0     C26356  10.020   4.460   5.392  0.1468 -0.0280  0.8241
  958MOL0     C26357  10.141   4.505   5.447 -0.7520 -0.2777  0.3228
  958MOL0     C26358  10.153   4.609   5.544  0.3608 -0.3316 -0.8791
  958MOL0     O26359  10.263   4.659   5.614 -0.3120  0.2338 -0.0058
  958MOL0     C26360  10.392   4.635   5.558 -0.6101 -0.3235  0.3723
  958MOL0     C26361  10.501   4.677   5.660 -0.9334  1.2207 -0.2335
  958MOL0     C26362  10.646   4.656   5.600  0.2208 -0.2629  0.2042
  958MOL0     C26363  10.753   4.657   5.713  0.3279 -0.3946 -0.1366
  958MOL0     C26364  10.887   4.637   5.642  1.3128 -0.4615  0.2662
  958MOL0     C26365  11.003   4.645   5.748 -0.1642  0.7638 -0.6425
  958MOL0     C26366  11.136   4.652   5.678  0.1946 -0.3432 -0.5896
  958MOL0     C26367  11.249   4.684   5.767 -0.4851 -0.3477  0.2661
  958MOL0    Cl26368  11.290   4.562   5.890  0.2065  0.1154 -0.0893
  958MOL0     C26369  10.033   4.658   5.596 -0.6057  0.8938  1.0108
  958MOL0     C26370   9.910   4.605   5.551 -0.5583  0.5523  0.5682
  958MOL0     O26371   9.631   4.571   5.484  0.1888  0.3387  0.7980
  958MOL0     C26372   9.435   4.377   5.438  0.9411  0.7027  0.5948
  958MOL0     C26373   9.343   4.276   5.408 -0.3769  0.6553 -0.5256
  958MOL0     N26374   8.813   4.105   5.419 -0.3832 -0.0533 -0.5032
  958MOL0     N26375   8.846   4.125   5.545  0.7363  0.4697  0.4365
  958MOL0     C26376   9.795   4.150   6.473 -0.6576 -0.2271 -0.1541
  958MOL0     C26377   9.924   4.146   6.525 -0.3506 -0.0977 -0.1575
  958MOL0     C26378  10.360   4.143   6.631 -0.0888 -0.1170 -0.4297
  958MOL0     C26379  10.424   4.052   6.551  0.2954  0.6484 -0.3957
  958MOL0     C26380  10.560   4.027   6.580 -1.2819 -0.3115 -0.7129
  958MOL0     C26381  10.619   4.072   6.696 -0.5292  0.6546  0.2289
  958MOL0     O26382  10.754   4.031   6.717 -0.7637  0.0739 -0.5459
  958MOL0     C26383  10.810   4.054   6.843  0.3174 -0.6849  0.5186
  958MOL0     C26384  10.925   3.959   6.866  0.1310  1.0496  0.4260
  958MOL0     C26385  11.021   4.033   6.958  0.1568  0.0538  0.8227
  958MOL0     C26386  11.151   3.970   6.987  0.4435 -0.0078 -0.1161
  958MOL0     C26387  11.233   4.050   7.077  0.3869 -0.9210 -0.0612
  958MOL0     C26388  11.317   4.111   7.137  0.2313 -0.7505  0.7959
  958MOL0     C26389  10.552   4.158   6.775  0.4375 -0.5797 -0.1809
  958MOL0     C26390  10.431   4.198   6.735  0.1747 -0.5668  0.0937
  958MOL0     H26391  10.116   4.135   6.251  0.3918 -1.7433  0.4962
  958MOL0     H26392   9.897   4.147   6.143 -3.4971  0.3375 -0.0668
  958MOL0     H26393   9.695   4.037   6.116  1.7822  0.0779  2.6029
  958MOL0     H26394   9.612   4.196   6.101 -0.5996 -1.6994 -2.4088
  958MOL0     H26395   9.486   3.949   6.216 -3.3888 -0.2834  0.4824
  958MOL0     H26396   9.477   4.019   6.043  2.1870  3.0674 -0.5311
  958MOL0     H26397   9.394   4.220   6.177  3.7639 -1.3246 -0.7350
  958MOL0     H26398   9.360   4.115   6.308 -2.1556  0.9288 -0.4812
  958MOL0     H26399   9.232   3.955   6.128 -0.6797  0.5870 -0.9542
  958MOL0     H26400   9.158   4.107   6.199  1.0695  1.1552  0.1219
  958MOL0     H26401   9.289   4.086   5.929 -2.3790 -3.6938  0.0439
  958MOL0     H26402   9.212   4.225   5.995 -1.1837 -0.2505 -0.5466
  958MOL0     H26403   8.997   4.066   6.009 -1.3782 -0.1045 -1.6975
  958MOL0     H26404   9.107   3.944   5.946  0.2685  1.2533  2.9286
  958MOL0     H26405   9.024   4.194   5.760  1.6026  2.0384  2.8156
  958MOL0     H26406   9.142   4.072   5.731 -0.5845  0.0047 -1.7221
  958MOL0     H26407   8.854   4.017   5.789  0.2564  1.4768  1.7862
  958MOL0     H26408   8.978   3.897   5.754 -1.5577  0.1551 -1.6151
  958MOL0     H26409   8.993   3.846   5.491  0.5099  0.7141 -0.7843
  958MOL0     H26410   8.811   3.996   5.175  2.7229  1.1364 -0.6814
  958MOL0     H26411   8.820   3.828   5.231 -0.7913 -0.3588 -2.1329
  958MOL0     H26412   8.999   3.866   5.070  1.2933 -0.6352  0.0830
  958MOL0     H26413   9.075   3.855   5.227  4.0126 -1.4263 -3.6837
  958MOL0     H26414   9.145   4.048   5.055  0.0724 -2.1251  0.7680
  958MOL0     H26415   8.987   4.130   5.102 -2.9933 -1.6689 -0.2081
  958MOL0     H26416   9.110   4.145   5.329  0.0957 -1.4699  0.2051
  958MOL0     H26417   9.159   4.247   5.191 -0.6253 -0.1419  1.0622
  958MOL0     H26418   9.534   4.138   5.161  2.2459  0.8814 -0.2610
  958MOL0     H26419   9.676   4.271   5.224  0.9655 -1.2251  1.1990
  958MOL0     H26420  10.024   4.379   5.320 -1.0258 -0.8772  1.6689
  958MOL0     H26421  10.228   4.457   5.403 -1.0462  2.3913 -3.6428
  958MOL0     H26422  10.405   4.692   5.466  0.7414 -1.0057  0.1168
  958MOL0     H26423  10.401   4.530   5.529 -0.8917 -0.5915  1.2223
  958MOL0     H26424  10.495   4.627   5.757 -0.3712  0.3389 -0.6429
  958MOL0     H26425  10.494   4.784   5.682  1.9994  0.7979  4.1533
  958MOL0     H26426  10.668   4.725   5.519  2.3945 -0.1663  0.8183
  958MOL0     H26427  10.653   4.555   5.559 -1.0118  0.5294 -2.1134
  958MOL0     H26428  10.749   4.753   5.764 -2.8116 -0.6886  0.3424
  958MOL0     H26429  10.732   4.585   5.793  0.1897  0.1434  0.3142
  958MOL0     H26430  10.881   4.721   5.571 -0.8105 -0.3728  0.4967
  958MOL0     H26431  10.899   4.547   5.581  0.0694 -0.2078 -0.3965
  958MOL0     H26432  11.001   4.546   5.796  0.5959  1.1775  0.2680
  958MOL0     H26433  10.986   4.719   5.827  0.0103  1.2463 -1.0569
  958MOL0     H26434  11.159   4.557   5.630  1.5914 -2.1901  3.3123
  958MOL0     H26435  11.136   4.733   5.605  2.3507  1.2961  1.0907
  958MOL0     H26436  11.234   4.788   5.799 -1.2881 -0.2571 -0.3638
  958MOL0     H26437  11.336   4.685   5.700 -1.3543  0.1436 -0.8799
  958MOL0     H26438  10.029   4.731   5.676  4.9144  2.1937  0.4723
  958MOL0     H26439   9.825   4.651   5.600 -0.8012  2.2641 -1.3330
  958MOL0     H26440   9.403   4.455   5.505  4.4504  0.9880  2.1129
  958MOL0     H26441   9.245   4.285   5.453 -0.5849 -0.4781 -0.7247
  958MOL0     H26442   9.710   4.152   6.539  1.0998 -1.1626  2.2841
  958MOL0     H26443   9.928   4.151   6.633  0.1980  1.2570 -0.2151
  958MOL0     H26444  10.376   4.004   6.466 -0.9741 -1.9806  1.6738
  958MOL0     H26445  10.606   3.958   6.510 -5.4589 -2.9303 -1.2549
  958MOL0     H26446  10.738   4.029   6.922 -1.6215 -1.3807 -1.3549
  958MOL0     H26447  10.833   4.160   6.851 -1.5700 -0.1425 -0.4414
  958MOL0     H26448  10.903   3.869   6.924 -1.7267  0.6833 -0.7462
  958MOL0     H26449  10.979   3.952   6.771 -1.9703  3.2294 -1.0310
  958MOL0     H26450  10.969   4.070   7.047  1.3185  1.7805  0.8288
  958MOL0     H26451  11.040   4.121   6.896 -0.7872  0.9533  1.7672
  958MOL0     H26452  11.139   3.872   7.034  0.8183 -0.2840 -0.5946
  958MOL0     H26453  11.208   3.961   6.894  2.1549  0.7074  0.8142
  958MOL0     H26454  11.393   4.171   7.182 -0.4133  2.4826 -2.0053
  958MOL0     H26455  10.593   4.203   6.866  1.8924 -2.2625  0.0556
  958MOL0     H26456  10.387   4.285   6.781  2.2096  0.5807 -0.0205
  959MOL0     O26457   6.768   7.888   4.644 -0.2069  0.0129  0.4991
  959MOL0     C26458   6.812   8.002   4.663 -0.6173  0.3142 -0.0870
  959MOL0     O26459   6.764   8.099   4.748 -0.0107  0.4136  0.3571
  959MOL0     C26460   6.677   8.064   4.846 -0.8871  0.0446 -0.5422
  959MOL0     C26461   6.582   8.163   4.880  0.2341  1.4309 -0.7982
  959MOL0     C26462   6.481   8.137   4.979 -0.2712 -0.0639  0.5971
  959MOL0     C26463   6.473   8.007   5.035 -0.9482 -0.1080  0.0094
  959MOL0     O26464   6.370   7.984   5.125 -0.2362  0.0602 -0.1379
  959MOL0     C26465   6.323   7.859   5.172 -0.1549 -0.8540  0.5265
  959MOL0     C26466   6.187   7.877   5.254  0.4647 -0.5320  0.9109
  959MOL0     C26467   6.203   7.996   5.351  0.2213  0.0731 -0.6542
  959MOL0     C26468   6.089   8.020   5.450  0.3925 -0.2020  0.9554
  959MOL0     C26469   5.948   8.007   5.391  0.2112 -0.4336 -0.7886
  959MOL0     C26470   5.856   8.108   5.476 -0.2961 -0.2062 -0.3007
  959MOL0     C26471   5.715   8.091   5.413  0.3581 -0.4863 -0.2888
  959MOL0     C26472   5.614   8.152   5.508  1.2409  0.2003  0.6286
  959MOL0     N26473   5.565   8.051   5.596  0.0199 -0.3921 -0.3889
  959MOL0     C26474   5.468   7.949   5.573 -1.0832 -0.0759  0.1356
  959MOL0     C26475   5.436   7.901   5.700 -0.1031  0.1235  0.3849
  959MOL0     C26476   5.329   7.795   5.733 -0.2927 -0.7567  0.5981
  959MOL0     C26477   5.259   7.810   5.870  0.0486  0.2700  0.0850
  959MOL0     C26478   5.157   7.692   5.890  0.1111 -0.4310 -0.2827
  959MOL0     C26479   5.132   7.652   6.035  0.3844  0.2252 -0.6025
  959MOL0     O26480   5.028   7.552   6.039  0.2156 -0.8475  0.6544
  959MOL0     C26481   4.978   7.507   6.158  0.1766  0.6084 -0.1959
  959MOL0     C26482   5.006   7.559   6.283 -0.8220 -0.0392 -0.0992
  959MOL0     C26483   4.956   7.493   6.398  0.7982 -0.2858 -0.7571
  959MOL0     C26484   4.863   7.382   6.386 -0.4783 -0.3230  0.0476
  959MOL0     C26485   4.793   7.324   6.500 -1.3181 -0.0063  0.5461
  959MOL0     O26486   4.731   7.205   6.490  0.7080 -0.2631 -0.4223
  959MOL0     C26487   4.627   7.164   6.569 -0.5339 -0.4790 -1.0913
  959MOL0     C26488   4.520   7.259   6.608 -0.3827  1.1493  0.3323
  959MOL0     C26489   4.412   7.202   6.680 -0.4797  0.5290 -0.4789
  959MOL0     C26490   4.408   7.069   6.730 -0.1752 -0.1240  0.9281
  959MOL0     O26491   4.313   7.039   6.815 -0.5092 -0.4791  0.2311
  959MOL0     C26492   4.319   6.929   6.903 -0.2528  0.5963  0.1445
  959MOL0     C26493   4.221   6.960   7.016  1.1474 -0.4274 -0.5915
  959MOL0     C26494   4.078   6.906   6.977  0.1248 -0.5715  0.4696
  959MOL0     C26495   3.972   6.951   7.066  0.6702 -0.3528 -0.2398
  959MOL0     C26496   3.850   6.858   7.063 -0.1432 -1.0200  0.0804
  959MOL0     C26497   3.757   6.867   7.184 -0.4259 -0.6026  0.7408
  959MOL0     C26498   3.798   6.822   7.319  0.5162 -0.8348 -0.0914
  959MOL0     C26499   3.827   6.668   7.338 -0.1567  0.1398 -0.4451
  959MOL0    Cl26500   3.823   6.626   7.510  0.0854  0.0861 -0.0874
  959MOL0     C26501   4.516   6.979   6.695  0.7683  0.0382  0.6519
  959MOL0     C26502   4.622   7.030   6.622 -0.1205 -0.3370 -0.2920
  959MOL0     O26503   4.782   7.393   6.594  0.6075  0.1859  0.6810
  959MOL0     C26504   4.851   7.327   6.263 -0.5373  0.4887 -0.2185
  959MOL0     C26505   4.899   7.394   6.150 -0.2052 -0.2040 -0.8663
  959MOL0     N26506   5.520   7.961   5.793 -0.3673 -0.0292  0.0183
  959MOL0     N26507   5.598   8.050   5.728  0.3516  0.5708  0.0127
  959MOL0     C26508   6.570   7.909   4.996 -0.5070  0.5030 -0.3389
  959MOL0     C26509   6.672   7.942   4.909 -0.4142 -0.3509 -0.8625
  959MOL0     C26510   6.938   8.045   4.592  0.2013  1.0854 -0.7939
  959MOL0     C26511   6.985   8.173   4.597  0.2615  0.0430  0.2291
  959MOL0     C26512   7.108   8.203   4.533 -0.9159  0.4418 -0.7605
  959MOL0     C26513   7.174   8.113   4.449 -0.3017  0.6200 -0.0166
  959MOL0     O26514   7.292   8.161   4.397 -0.6378  0.4929  0.4582
  959MOL0     C26515   7.383   8.069   4.339  0.4669  0.4809  1.1849
  959MOL0     C26516   7.495   8.050   4.432 -1.0513 -0.9378 -0.5469
  959MOL0     C26517   7.610   7.967   4.371 -0.1621 -0.4575 -0.7773
  959MOL0     C26518   7.618   7.814   4.365 -0.1082  0.2245 -0.1379
  959MOL0     C26519   7.738   7.754   4.301  0.2117 -0.5560 -0.3585
  959MOL0     C26520   7.848   7.717   4.258  1.0316  0.8112  0.7121
  959MOL0     C26521   7.118   7.989   4.434  0.2206  0.7725 -0.1217
  959MOL0     C26522   6.998   7.946   4.508 -0.3308 -0.3773  0.1222
  959MOL0     H26523   6.590   8.239   4.803  0.9240 -1.7030 -4.0990
  959MOL0     H26524   6.409   8.211   5.012 -2.1134 -1.7169  0.4282
  959MOL0     H26525   6.408   7.828   5.234  1.1993 -0.5204 -1.0734
  959MOL0     H26526   6.330   7.782   5.094  1.7021  0.9131 -1.1891
  959MOL0     H26527   6.168   7.777   5.294  0.8492 -1.6818 -1.5639
  959MOL0     H26528   6.096   7.891   5.194 -1.5905 -3.3208  3.0739
  959MOL0     H26529   6.229   8.079   5.285  1.3311  0.7401  0.5815
  959MOL0     H26530   6.296   7.989   5.408 -0.9283  3.2153  1.9478
  959MOL0     H26531   6.084   7.955   5.538 -2.3981  0.5352  1.4583
  959MOL0     H26532   6.112   8.119   5.490  2.2119 -0.4111  0.4956
  959MOL0     H26533   5.899   7.910   5.395 -1.0558  0.1740 -1.1179
  959MOL0     H26534   5.951   8.043   5.288 -0.3127 -0.0746 -0.6840
  959MOL0     H26535   5.891   8.212   5.478  2.6020 -1.0582  3.1625
  959MOL0     H26536   5.852   8.060   5.574  2.2982  0.8124  0.3739
  959MOL0     H26537   5.717   8.135   5.313  2.0784  0.3847  0.0834
  959MOL0     H26538   5.686   7.986   5.408 -1.7385 -0.0815  1.7535
  959MOL0     H26539   5.531   8.183   5.445  0.0035 -1.0893  1.5446
  959MOL0     H26540   5.657   8.229   5.574 -1.0759  1.5223  0.6843
  959MOL0     H26541   5.427   7.914   5.478 -1.5462 -2.3182  1.0753
  959MOL0     H26542   5.380   7.698   5.730  0.7395 -0.3121  2.4035
  959MOL0     H26543   5.253   7.793   5.654 -0.0824 -3.7834  0.3730
  959MOL0     H26544   5.204   7.903   5.883 -1.3532 -0.2084 -1.8809
  959MOL0     H26545   5.337   7.801   5.946 -1.1119 -2.9664  1.0858
  959MOL0     H26546   5.064   7.736   5.854  1.5617  2.6568 -0.5357
  959MOL0     H26547   5.184   7.606   5.828 -0.2069  0.1594 -1.2490
  959MOL0     H26548   5.087   7.737   6.088 -0.4096 -1.8221  2.2685
  959MOL0     H26549   5.221   7.625   6.092 -0.7303  2.2620  2.3324
  959MOL0     H26550   5.076   7.641   6.296  0.6116 -0.9459 -1.7013
  959MOL0     H26551   4.991   7.522   6.497  2.4159 -1.5059 -0.9385
  959MOL0     H26552   4.526   7.360   6.569  2.6862  0.5439 -0.9870
  959MOL0     H26553   4.337   7.280   6.690 -2.0461 -1.0723  0.8662
  959MOL0     H26554   4.419   6.923   6.946  0.2079 -1.3222 -1.0681
  959MOL0     H26555   4.291   6.834   6.856  0.6981  0.3840 -0.0198
  959MOL0     H26556   4.209   7.064   7.047 -2.5690 -0.5991 -0.9574
  959MOL0     H26557   4.254   6.900   7.101 -0.3945 -2.4168 -1.3039
  959MOL0     H26558   4.079   6.797   6.969  1.5505 -0.4337 -2.0757
  959MOL0     H26559   4.055   6.959   6.884  2.8134  3.9937  2.0966
  959MOL0     H26560   4.010   6.949   7.169  2.5475 -0.6898 -0.9139
  959MOL0     H26561   3.940   7.054   7.049 -1.3316 -0.7533  0.7616
  959MOL0     H26562   3.874   6.752   7.049 -1.1487 -1.6735  2.6887
  959MOL0     H26563   3.800   6.894   6.972 -0.0708  3.7009  1.6383
  959MOL0     H26564   3.663   6.816   7.158 -0.6713 -0.0552  0.5318
  959MOL0     H26565   3.735   6.973   7.202  1.0550 -0.1048 -0.2213
  959MOL0     H26566   3.871   6.891   7.363  0.4334  0.7660 -2.2757
  959MOL0     H26567   3.707   6.848   7.374  0.4998  0.5644 -0.7282
  959MOL0     H26568   3.925   6.637   7.300  0.0845  0.7314 -0.3221
  959MOL0     H26569   3.747   6.610   7.291 -4.4231  4.6168  0.4624
  959MOL0     H26570   4.524   6.894   6.762 -2.0565  0.8708  2.2005
  959MOL0     H26571   4.713   6.978   6.592 -0.7741 -1.5376 -0.2435
  959MOL0     H26572   4.797   7.234   6.248 -1.0719  0.3209  2.1944
  959MOL0     H26573   4.890   7.351   6.051 -0.5828  2.3443 -2.0150
  959MOL0     H26574   6.560   7.807   5.029  0.3373  0.9383  1.3875
  959MOL0     H26575   6.751   7.867   4.899 -0.3184 -0.8874  2.5728
  959MOL0     H26576   6.936   8.249   4.656  2.2739  2.1454 -0.6320
  959MOL0     H26577   7.154   8.301   4.536  1.1585 -0.4934 -0.2428
  959MOL0     H26578   7.430   8.108   4.248 -1.3568 -0.6238 -0.3108
  959MOL0     H26579   7.349   7.967   4.317 -0.2802  0.9097  0.3060
  959MOL0     H26580   7.549   8.142   4.460  0.8874 -2.0075 -0.5801
  959MOL0     H26581   7.454   8.011   4.525 -2.0033  0.6928 -0.2334
  959MOL0     H26582   7.706   7.998   4.412  0.6610 -0.7167 -2.4280
  959MOL0     H26583   7.625   7.994   4.266 -0.2353 -0.7647 -0.8703
  959MOL0     H26584   7.629   7.783   4.469 -2.0744  1.1509  0.4022
  959MOL0     H26585   7.523   7.784   4.319  1.0013 -3.4456 -0.3373
  959MOL0     H26586   7.937   7.684   4.209  0.0595  2.4124 -2.3822
  959MOL0     H26587   7.155   7.914   4.365  0.0279 -1.0871  1.6907
  959MOL0     H26588   6.961   7.844   4.504  0.7511 -0.8312  1.1100
  960MOL0     O26589   7.406   7.561   1.561 -0.2218 -1.1290  0.8287
  960MOL0     C26590   7.460   7.670   1.548 -0.2966 -0.2153 -0.2691
  960MOL0     O26591   7.400   7.790   1.552  0.2113  0.6622  0.5557
  960MOL0     C26592   7.264   7.798   1.565  0.8538 -0.9438  0.9055
  960MOL0     C26593   7.176   7.717   1.498  0.4864 -0.5150 -0.4029
  960MOL0     C26594   7.037   7.718   1.512 -0.7166  0.4835  0.3544
  960MOL0     C26595   6.983   7.815   1.592  0.0557 -0.6851 -0.1357
  960MOL0     O26596   6.846   7.829   1.608 -0.1926 -0.1573 -0.3248
  960MOL0     C26597   6.776   7.837   1.487  0.0482 -0.1176 -0.3583
  960MOL0     C26598   6.633   7.870   1.513  0.1131 -0.4567  0.0485
  960MOL0     C26599   6.563   7.791   1.615  0.0437  0.1118  1.1993
  960MOL0     C26600   6.431   7.851   1.662 -0.0382  0.4940  0.6364
  960MOL0     C26601   6.362   7.769   1.771 -1.0895  0.3701 -0.3547
  960MOL0     C26602   6.348   7.611   1.751 -0.3016 -0.0329 -1.0122
  960MOL0     C26603   6.222   7.576   1.834 -0.6985 -0.4968 -0.2105
  960MOL0     C26604   6.190   7.425   1.841 -0.1028 -0.5924  0.1031
  960MOL0     N26605   6.161   7.364   1.712 -0.0141  0.0201  0.3461
  960MOL0     C26606   6.070   7.406   1.615 -0.4372 -0.1961  0.7380
  960MOL0     C26607   6.099   7.335   1.501  0.2958 -0.8713  0.5331
  960MOL0     C26608   6.022   7.344   1.363  0.7025  0.5670 -0.3535
  960MOL0     C26609   6.083   7.430   1.256 -1.0768 -0.6227 -0.0169
  960MOL0     C26610   6.092   7.584   1.284  0.7413 -0.4952  0.0783
  960MOL0     C26611   5.959   7.651   1.299 -0.3564 -0.5073 -0.9426
  960MOL0     O26612   5.892   7.616   1.420  0.6879  0.6203 -0.9686
  960MOL0     C26613   5.759   7.647   1.436 -0.0382  0.3646  0.2721
  960MOL0     C26614   5.694   7.752   1.371 -0.6772  0.0462  0.3279
  960MOL0     C26615   5.562   7.787   1.395 -0.3622  0.2391 -1.3708
  960MOL0     C26616   5.488   7.720   1.493  0.1160  0.8072  0.0941
  960MOL0     C26617   5.356   7.772   1.541  0.1298  0.2222 -0.5771
  960MOL0     O26618   5.295   7.705   1.651  0.8954 -0.4734  0.2515
  960MOL0     C26619   5.166   7.745   1.698  0.0218  0.1505 -0.3624
  960MOL0     C26620   5.132   7.884   1.718 -0.0753 -0.4088  0.3729
  960MOL0     C26621   5.004   7.916   1.770 -0.3158  0.3650 -0.4793
  960MOL0     C26622   4.928   7.815   1.817  0.7992  0.1249 -0.9787
  960MOL0     O26623   4.800   7.848   1.849  0.3309 -0.0202 -0.1666
  960MOL0     C26624   4.711   7.735   1.876 -0.0057 -0.1623  0.2699
  960MOL0     C26625   4.577   7.808   1.901  0.7245 -0.3880  0.3262
  960MOL0     C26626   4.457   7.711   1.896  0.1980 -0.2039  0.2658
  960MOL0     C26627   4.327   7.785   1.862  0.3942  0.2829  0.4393
  960MOL0     C26628   4.210   7.696   1.852  0.3530 -0.9571  0.4835
  960MOL0     C26629   4.081   7.785   1.832  0.0615 -0.4890  0.3458
  960MOL0     C26630   3.950   7.727   1.895 -0.4206 -1.4261 -0.5907
  960MOL0     C26631   3.825   7.802   1.832  0.3806 -0.5006  1.0821
  960MOL0    Cl26632   3.681   7.733   1.927  0.3776  0.4683 -0.0615
  960MOL0     C26633   4.969   7.676   1.808 -0.0495 -0.2607 -1.0248
  960MOL0     C26634   5.086   7.646   1.745 -0.6933  0.9223 -0.0739
  960MOL0     O26635   5.316   7.875   1.486  1.0880 -0.4176 -0.3144
  960MOL0     C26636   5.550   7.612   1.558 -0.6162 -0.3809  0.2419
  960MOL0     C26637   5.690   7.574   1.537  0.4386 -0.3343  0.5358
  960MOL0     N26638   6.200   7.238   1.536 -0.3136  0.0582  0.5581
  960MOL0     N26639   6.237   7.266   1.651 -0.5171 -0.0275  0.1040
  960MOL0     C26640   7.063   7.920   1.637 -0.1490  0.1794  0.1853
  960MOL0     C26641   7.194   7.908   1.625 -0.8310 -0.8763 -0.2372
  960MOL0     C26642   7.609   7.684   1.527  0.1271  0.7323 -0.0349
  960MOL0     C26643   7.667   7.809   1.494 -0.0372 -0.0851 -0.5307
  960MOL0     C26644   7.806   7.810   1.460 -0.0473 -0.2534 -1.0475
  960MOL0     C26645   7.878   7.691   1.466 -1.0964 -0.2703 -1.3596
  960MOL0     O26646   8.011   7.709   1.427 -0.2927 -1.0445  0.2507
  960MOL0     C26647   8.104   7.617   1.485 -0.1649 -0.2500 -0.4857
  960MOL0     C26648   8.130   7.661   1.635  0.0778 -0.5254 -0.0589
  960MOL0     C26649   8.261   7.607   1.687  0.0962 -0.2328 -0.0319
  960MOL0     C26650   8.294   7.675   1.815  0.2798  0.1368 -0.3429
  960MOL0     C26651   8.224   7.630   1.932  0.0864 -0.4625 -0.1651
  960MOL0     C26652   8.176   7.600   2.039  0.0722 -0.0155 -0.4418
  960MOL0     C26653   7.822   7.572   1.509  0.2461  0.6240 -0.5414
  960MOL0     C26654   7.686   7.572   1.549 -0.3097  0.0664  0.1090
  960MOL0     H26655   7.225   7.643   1.436 -0.1918 -0.2038 -1.3222
  960MOL0     H26656   6.988   7.638   1.457  0.5723 -1.6289  2.1036
  960MOL0     H26657   6.787   7.747   1.427  0.7596  1.2916 -2.4381
  960MOL0     H26658   6.806   7.922   1.425 -1.1500  2.1219  1.9329
  960MOL0     H26659   6.584   7.856   1.416  1.2690  2.1034 -1.0074
  960MOL0     H26660   6.629   7.977   1.538 -3.2950 -0.2355 -0.9536
  960MOL0     H26661   6.618   7.775   1.708  1.0084  0.7004  0.7420
  960MOL0     H26662   6.522   7.696   1.579 -1.0590  0.2791  1.9567
  960MOL0     H26663   6.446   7.952   1.701  0.6408  0.0567  1.5518
  960MOL0     H26664   6.360   7.863   1.580  3.2505 -0.4562 -2.6065
  960MOL0     H26665   6.271   7.817   1.807 -0.7082 -0.1935  1.4968
  960MOL0     H26666   6.431   7.765   1.857 -2.2974  2.5238  0.7834
  960MOL0     H26667   6.436   7.566   1.798 -0.0410  0.7833 -0.6936
  960MOL0     H26668   6.352   7.586   1.645  1.4481 -0.9819 -0.7552
  960MOL0     H26669   6.245   7.606   1.936  0.2063  1.6393 -0.9878
  960MOL0     H26670   6.135   7.628   1.793  0.4557  0.9006 -0.9490
  960MOL0     H26671   6.099   7.413   1.902  1.3571 -2.3085  2.0767
  960MOL0     H26672   6.258   7.368   1.905  1.2203  1.0099  0.1802
  960MOL0     H26673   6.006   7.493   1.618 -0.1099  0.0130  2.1901
  960MOL0     H26674   5.921   7.369   1.397  0.8087 -1.5873  1.8891
  960MOL0     H26675   6.009   7.243   1.322 -1.9911  0.8404 -0.3674
  960MOL0     H26676   6.029   7.410   1.163 -1.9921  1.7258 -0.0533
  960MOL0     H26677   6.184   7.388   1.252 -0.3381  0.7875  2.0797
  960MOL0     H26678   6.162   7.608   1.364  3.2887 -0.4432 -2.0017
  960MOL0     H26679   6.151   7.634   1.207 -1.1275  2.4569  0.4369
  960MOL0     H26680   5.895   7.647   1.210  2.2725 -2.4127 -2.8664
  960MOL0     H26681   5.981   7.758   1.297 -0.0437 -0.5548 -0.3352
  960MOL0     H26682   5.740   7.819   1.300  0.3097 -1.1150 -0.1566
  960MOL0     H26683   5.521   7.879   1.353  1.5623  1.5049 -0.6314
  960MOL0     H26684   5.199   7.966   1.693  0.2195 -1.2054 -1.6307
  960MOL0     H26685   4.965   8.018   1.769  0.4073  0.6480 -0.4206
  960MOL0     H26686   4.748   7.670   1.955  1.2283 -1.6405 -1.4456
  960MOL0     H26687   4.711   7.665   1.792  2.1370 -0.4792  0.4736
  960MOL0     H26688   4.560   7.889   1.830  1.5300  0.2031  0.7974
  960MOL0     H26689   4.571   7.849   2.002 -1.8403  0.8197 -0.2198
  960MOL0     H26690   4.455   7.650   1.987 -0.3943  1.0074  1.0886
  960MOL0     H26691   4.469   7.643   1.811 -0.2236  0.2120 -0.1379
  960MOL0     H26692   4.310   7.864   1.936  0.9453  1.3624 -0.5366
  960MOL0     H26693   4.340   7.839   1.768  2.0555  0.8373  0.9472
  960MOL0     H26694   4.201   7.666   1.957 -1.0683 -0.4196  0.5462
  960MOL0     H26695   4.223   7.625   1.771 -0.7914  0.9317 -1.4679
  960MOL0     H26696   4.070   7.815   1.727 -1.4787 -0.7835  0.3989
  960MOL0     H26697   4.096   7.880   1.884  0.9485  1.6854 -3.5096
  960MOL0     H26698   3.935   7.619   1.880 -1.6934 -1.2577 -0.6607
  960MOL0     H26699   3.951   7.741   2.004  3.9428 -0.8719 -0.5357
  960MOL0     H26700   3.822   7.790   1.724  3.7777 -4.7920  1.1869
  960MOL0     H26701   3.842   7.909   1.849  0.3544 -0.0133 -1.5356
  960MOL0     H26702   4.913   7.588   1.838  0.7230 -0.3344  0.2746
  960MOL0     H26703   5.123   7.543   1.743  0.5750  1.2852  1.8557
  960MOL0     H26704   5.498   7.551   1.631 -1.6464  2.3925  1.9476
  960MOL0     H26705   5.748   7.519   1.611 -0.6396  1.5075  2.8274
  960MOL0     H26706   7.020   8.012   1.676 -2.4352 -1.0528  0.7593
  960MOL0     H26707   7.237   7.986   1.687 -2.1248  0.0291 -0.4331
  960MOL0     H26708   7.605   7.898   1.496 -0.4747 -0.3960 -0.0362
  960MOL0     H26709   7.855   7.903   1.432 -2.8430  3.1046  3.5426
  960MOL0     H26710   8.201   7.611   1.434 -0.5392 -1.2511 -1.1234
  960MOL0     H26711   8.072   7.512   1.475 -1.8120 -0.0293  1.8091
  960MOL0     H26712   8.132   7.770   1.625 -3.3679 -0.4707 -1.9287
  960MOL0     H26713   8.045   7.630   1.698 -1.2097  3.3272  0.3491
  960MOL0     H26714   8.340   7.635   1.617  0.1302  1.6342  0.6891
  960MOL0     H26715   8.256   7.499   1.706 -1.7893  0.1881  2.3245
  960MOL0     H26716   8.402   7.681   1.835  0.0272  2.0460  0.7460
  960MOL0     H26717   8.272   7.779   1.787 -2.0565 -0.6366 -1.5785
  960MOL0     H26718   8.136   7.547   2.123 -0.2539  1.4523  0.3677
  960MOL0     H26719   7.874   7.478   1.519 -0.5536  0.0153 -1.8343
  960MOL0     H26720   7.647   7.480   1.591  0.4479 -0.7852 -0.9734
  961MOL0     O26721   1.587   3.648  10.960 -0.0142 -0.3321  0.0924
  961MOL0     C26722   1.567   3.532  10.931 -0.0366 -0.1326  0.4078
  961MOL0     O26723   1.661   3.430  10.910 -0.0377  0.1430  0.1123
  961MOL0     C26724   1.800   3.453  10.916  0.5047 -0.1260 -0.5667
  961MOL0     C26725   1.879   3.450  10.800  0.2175 -0.3930  0.9239
  961MOL0     C26726   2.021   3.457  10.811 -0.5767  0.3026  0.7870
  961MOL0     C26727   2.082   3.484  10.929 -0.5278  0.2168 -0.1464
  961MOL0     O26728   2.221   3.498  10.937  0.8521  0.6059  0.4291
  961MOL0     C26729   2.283   3.372  10.898 -0.6391 -0.1644  0.2536
  961MOL0     C26730   2.429   3.361  10.958  0.4407  0.2027  1.3310
  961MOL0     C26731   2.511   3.272  10.881  0.1178  0.1137 -0.4148
  961MOL0     C26732   2.648   3.272  10.951  0.0359 -0.6224  0.4830
  961MOL0     C26733   2.735   3.164  10.886  0.0590 -0.0292 -0.2269
  961MOL0     C26734   2.741   3.033  10.967 -0.2703 -0.9833 -0.5013
  961MOL0     C26735   2.858   2.956  10.912 -0.5678 -0.6769  0.1402
  961MOL0     C26736   2.997   3.020  10.946 -0.2637 -0.1491  0.2721
  961MOL0     N26737   3.090   2.912  10.922 -0.6017  0.4706 -0.1934
  961MOL0     C26738   3.110   2.841  10.799 -0.4062 -0.7505 -0.2894
  961MOL0     C26739   3.200   2.747  10.832 -0.2459 -0.1796  0.4071
  961MOL0     C26740   3.290   2.661  10.741  0.3026 -0.6238 -0.1757
  961MOL0     C26741   3.436   2.716  10.734  0.3914  0.0907 -0.3089
  961MOL0     C26742   3.453   2.819  10.629  0.1424  0.1106 -0.2871
  961MOL0     C26743   3.611   2.833  10.605  0.0341 -0.7792  0.3961
  961MOL0     O26744   3.675   2.874  10.722 -0.1420 -0.2153 -0.6119
  961MOL0     C26745   3.804   2.914  10.708 -0.0115  0.4248  0.2629
  961MOL0     C26746   3.891   2.836  10.635 -0.7775  0.2599  0.4335
  961MOL0     C26747   4.028   2.862  10.638 -0.3454  0.5147  0.1575
  961MOL0     C26748   4.077   2.973  10.708 -0.3201  1.3155 -0.2164
  961MOL0     C26749   4.226   2.984  10.701  0.5799 -0.0308  0.9063
  961MOL0     O26750   4.296   2.890  10.626  0.2843  0.7710  0.7152
  961MOL0     C26751   4.425   2.882  10.592 -0.5316  0.4243  0.0754
  961MOL0     C26752   4.526   2.981  10.606  0.1863  0.3501 -0.6857
  961MOL0     C26753   4.646   2.974  10.542  0.2593  1.2810 -0.9827
  961MOL0     C26754   4.687   2.864  10.465  1.3299 -0.4283 -0.0297
  961MOL0     O26755   4.815   2.855  10.406  0.3078 -0.4530  0.7921
  961MOL0     C26756   4.924   2.934  10.454  0.3269  0.3985  0.1839
  961MOL0     C26757   5.053   2.890  10.376 -0.0732  0.4831 -0.0704
  961MOL0     C26758   5.160   2.984  10.430 -1.0840  0.2063  1.3267
  961MOL0     C26759   5.302   2.933  10.386 -0.3572  0.3721 -0.1231
  961MOL0     C26760   5.421   3.032  10.409  0.0119  0.8854  0.0731
  961MOL0     C26761   5.546   2.946  10.409  0.4554 -0.7730  0.2567
  961MOL0     C26762   5.568   2.883  10.277  0.1082  0.1946  0.1248
  961MOL0     C26763   5.676   2.778  10.257 -0.2219  0.3328  0.9707
  961MOL0    Cl26764   5.835   2.830  10.307  0.6877  0.1724 -0.2956
  961MOL0     C26765   4.593   2.768  10.458 -0.7573 -0.2944  1.1091
  961MOL0     C26766   4.463   2.771  10.513 -0.3480 -1.0338 -0.3962
  961MOL0     O26767   4.282   3.076  10.755 -0.0882 -0.8726  0.4650
  961MOL0     C26768   3.987   3.053  10.784  0.2165  0.0640  0.1265
  961MOL0     C26769   3.853   3.014  10.787 -0.3845 -0.1936  0.2876
  961MOL0     N26770   3.227   2.749  10.969 -0.0802 -0.0546 -0.0758
  961MOL0     N26771   3.160   2.850  11.019 -0.2825  0.3360 -0.0884
  961MOL0     C26772   2.006   3.478  11.045  0.2034 -0.3359 -0.1340
  961MOL0     C26773   1.871   3.470  11.042  0.7316  0.6646  0.4103
  961MOL0     C26774   1.429   3.490  10.937 -0.3740  0.0175  0.3736
  961MOL0     C26775   1.396   3.356  10.948 -0.0002  0.0912  1.4026
  961MOL0     C26776   1.266   3.322  10.953 -0.0341  0.5319  0.0793
  961MOL0     C26777   1.163   3.409  10.923 -0.2055  1.1302  0.1609
  961MOL0     O26778   1.034   3.381  10.900  0.0325 -0.5348 -0.7115
  961MOL0     C26779   0.993   3.245  10.880  0.0065 -0.7573 -0.3370
  961MOL0     C26780   0.846   3.236  10.836  0.4230 -0.5101 -0.0520
  961MOL0     C26781   0.790   3.324  10.728  0.0945 -0.3083 -0.4049
  961MOL0     C26782   0.775   3.474  10.765  0.2762  0.4695  0.5437
  961MOL0     C26783   0.657   3.492  10.849  0.0279  0.0636 -0.3609
  961MOL0     C26784   0.550   3.517  10.907 -0.7744 -0.5674  0.0564
  961MOL0     C26785   1.200   3.539  10.900  0.0743  0.1379 -0.4525
  961MOL0     C26786   1.330   3.583  10.916 -0.7942  0.5454  0.0648
  961MOL0     H26787   1.826   3.451  10.705 -0.4483  1.7269  1.2722
  961MOL0     H26788   2.080   3.450  10.720  0.3291 -1.7566  1.4762
  961MOL0     H26789   2.292   3.367  10.789 -0.6635 -1.9028  0.2894
  961MOL0     H26790   2.225   3.282  10.925  0.8715 -0.1373  4.2190
  961MOL0     H26791   2.423   3.337  11.065  1.3908  1.9869  1.8397
  961MOL0     H26792   2.469   3.462  10.945 -4.3767  2.0503 -1.4369
  961MOL0     H26793   2.519   3.324  10.784  3.4321 -0.2761 -0.4536
  961MOL0     H26794   2.466   3.173  10.869 -0.0504  0.2877 -1.3518
  961MOL0     H26795   2.690   3.371  10.936  1.5034 -1.1526  0.9462
  961MOL0     H26796   2.649   3.256  11.060  1.3166  1.5415  0.8397
  961MOL0     H26797   2.839   3.197  10.874 -0.0077  1.5683  2.6101
  961MOL0     H26798   2.701   3.135  10.787  3.6312 -1.7515 -1.1296
  961MOL0     H26799   2.644   2.983  10.955  0.8361 -3.0429 -1.3126
  961MOL0     H26800   2.759   3.057  11.072 -3.9993 -1.2494  0.3352
  961MOL0     H26801   2.856   2.852  10.946 -2.3057 -1.6039 -2.4664
  961MOL0     H26802   2.855   2.943  10.803 -0.7378 -2.0475  0.2990
  961MOL0     H26803   3.008   3.059  11.047 -2.4049  0.5856  0.2743
  961MOL0     H26804   3.024   3.106  10.883  0.0053 -0.0525  0.5167
  961MOL0     H26805   3.066   2.869  10.704 -0.0726 -0.7242 -0.4374
  961MOL0     H26806   3.258   2.651  10.637  1.1980 -2.9737 -0.2883
  961MOL0     H26807   3.306   2.567  10.794  0.8685 -0.2131  0.3922
  961MOL0     H26808   3.499   2.629  10.713  2.5118  1.9164 -2.0578
  961MOL0     H26809   3.454   2.760  10.833 -1.4136  5.1933 -1.9472
  961MOL0     H26810   3.417   2.777  10.535  2.0380 -4.8879  0.8676
  961MOL0     H26811   3.404   2.915  10.648  2.4480  2.3189 -4.2142
  961MOL0     H26812   3.630   2.899  10.521 -2.2467 -0.3376  0.1544
  961MOL0     H26813   3.651   2.735  10.578 -0.7284 -1.5566  1.9301
  961MOL0     H26814   3.861   2.751  10.575  1.3745 -1.0607  1.0990
  961MOL0     H26815   4.091   2.809  10.567 -1.4079 -0.5540 -0.0067
  961MOL0     H26816   4.508   3.058  10.681 -2.3825 -0.3071 -0.5133
  961MOL0     H26817   4.715   3.056  10.559  1.0589  0.2814  0.8261
  961MOL0     H26818   4.933   2.920  10.562 -0.5235 -0.8490  0.1041
  961MOL0     H26819   4.921   3.041  10.431  2.6986 -0.0484 -2.8130
  961MOL0     H26820   5.038   2.901  10.268  1.0624 -0.4813 -0.3563
  961MOL0     H26821   5.077   2.785  10.394 -2.3570 -0.6854 -2.9800
  961MOL0     H26822   5.157   2.980  10.540  3.4042  0.8519  1.6358
  961MOL0     H26823   5.146   3.090  10.406  3.1737  0.4087 -1.2006
  961MOL0     H26824   5.331   2.843  10.440 -1.8527  0.6394  1.1800
  961MOL0     H26825   5.304   2.915  10.278  3.3868  0.7469 -0.2589
  961MOL0     H26826   5.414   3.085  10.504  1.8385 -0.4799  1.0428
  961MOL0     H26827   5.429   3.101  10.325 -1.4006  3.0124  1.5824
  961MOL0     H26828   5.531   2.875  10.491 -2.3808  2.2397  2.6380
  961MOL0     H26829   5.639   2.998  10.434  0.7069 -0.9561 -0.2850
  961MOL0     H26830   5.484   2.822  10.245 -1.5271  2.9062 -1.0604
  961MOL0     H26831   5.589   2.960  10.203 -2.5036  0.8103 -0.0632
  961MOL0     H26832   5.671   2.774  10.148 -1.9380  0.0185  1.0270
  961MOL0     H26833   5.642   2.683  10.300 -3.0016  0.7575 -0.0549
  961MOL0     H26834   4.627   2.688  10.393 -0.2527  1.9668 -1.5929
  961MOL0     H26835   4.387   2.694  10.503 -1.5922  0.0774  0.2781
  961MOL0     H26836   4.026   3.127  10.853  0.2211 -0.9885  1.2963
  961MOL0     H26837   3.784   3.054  10.861 -0.5263  1.8706 -0.8547
  961MOL0     H26838   2.058   3.478  11.141  2.4603  1.4564 -1.2678
  961MOL0     H26839   1.814   3.471  11.134 -0.3934  0.2496 -0.2614
  961MOL0     H26840   1.477   3.286  10.970 -0.7128 -1.2359  0.0255
  961MOL0     H26841   1.256   3.223  10.996  1.2117 -0.1056 -1.0302
  961MOL0     H26842   0.997   3.173  10.962 -0.8322 -2.7312 -1.9546
  961MOL0     H26843   1.061   3.204  10.805 -0.1183 -2.2308  0.3259
  961MOL0     H26844   0.831   3.130  10.816  0.5799 -1.3767  3.6266
  961MOL0     H26845   0.789   3.248  10.929  0.3929 -0.7163 -0.0453
  961MOL0     H26846   0.700   3.276  10.690  0.6154 -1.6917  0.0667
  961MOL0     H26847   0.872   3.329  10.656 -0.0066  2.3222 -0.4586
  961MOL0     H26848   0.866   3.515  10.807  0.7212  2.2427 -1.9356
  961MOL0     H26849   0.760   3.530  10.672  0.6235  1.4806  1.0894
  961MOL0     H26850   0.466   3.558  10.959 -1.8352  2.3431 -3.4940
  961MOL0     H26851   1.120   3.604  10.866  0.3301  1.1491  0.8011
  961MOL0     H26852   1.360   3.686  10.899  1.6256 -0.0039  0.6017
  962MOL0     O26853   0.771   1.542   0.250 -0.1054 -0.7940 -0.2687
  962MOL0     C26854   0.763   1.422   0.219 -0.2884 -0.4230 -0.5865
  962MOL0     O26855   0.669   1.365   0.139  0.2784 -0.7823  0.3457
  962MOL0     C26856   0.595   1.466   0.083 -0.4685 -0.3738 -0.1962
  962MOL0     C26857   0.609   1.504  -0.047 -0.1542 -0.6747  0.0065
  962MOL0     C26858   0.525   1.596  -0.108  0.1787 -0.1141  0.1616
  962MOL0     C26859   0.401   1.637  -0.046 -0.4371  0.2128 -0.7134
  962MOL0     O26860   0.306   1.710  -0.123 -0.3780 -0.6736  0.5911
  962MOL0     C26861   0.166   1.693  -0.098 -0.7654 -0.9757 -0.9623
  962MOL0     C26862   0.102   1.752  -0.216  0.3776  0.1965 -0.0496
  962MOL0     C26863  -0.031   1.684  -0.227  0.6195  0.2700  0.6063
  962MOL0     C26864  -0.137   1.720  -0.116 -0.1660 -0.6360  1.2036
  962MOL0     C26865  -0.279   1.680  -0.152 -0.1335  0.4914 -0.0401
  962MOL0     C26866  -0.291   1.534  -0.142 -0.4893 -0.2016 -0.2068
  962MOL0     C26867  -0.444   1.492  -0.165 -0.1881 -0.1271 -0.9615
  962MOL0     C26868  -0.467   1.434  -0.306  0.8646 -0.6880  0.0711
  962MOL0     N26869  -0.601   1.356  -0.297  0.3874 -0.2048  0.7061
  962MOL0     C26870  -0.650   1.279  -0.397 -0.7346  0.8954  0.1219
  962MOL0     C26871  -0.764   1.218  -0.360 -0.3796  0.6316 -0.5969
  962MOL0     C26872  -0.846   1.113  -0.433 -0.2217  0.5819 -0.5803
  962MOL0     C26873  -0.815   0.972  -0.383 -0.0383  0.1349  0.0278
  962MOL0     C26874  -0.905   0.872  -0.452  0.6144 -0.1597  0.4320
  962MOL0     C26875  -1.056   0.881  -0.440  0.5552  0.4238  0.7024
  962MOL0     O26876  -1.114   0.762  -0.486  0.0835  0.7875  0.3207
  962MOL0     C26877  -1.244   0.737  -0.464  0.5892  0.2118  1.0143
  962MOL0     C26878  -1.294   0.623  -0.536 -0.0592  1.1123  0.5283
  962MOL0     C26879  -1.422   0.578  -0.507  0.2661  0.3621 -0.0964
  962MOL0     C26880  -1.508   0.653  -0.428 -0.5682  0.7637 -0.2119
  962MOL0     C26881  -1.645   0.614  -0.409  0.3025  0.8839 -0.2213
  962MOL0     O26882  -1.695   0.531  -0.513  0.5737 -0.2775 -0.1396
  962MOL0     C26883  -1.831   0.501  -0.518 -0.6312 -1.1745 -0.0213
  962MOL0     C26884  -1.873   0.372  -0.481  0.5806  0.3766  0.1968
  962MOL0     C26885  -2.008   0.346  -0.488 -0.1542 -0.3943 -0.0068
  962MOL0     C26886  -2.107   0.436  -0.511 -0.1941 -0.0480 -0.1094
  962MOL0     O26887  -2.240   0.394  -0.501 -0.5272 -0.4767  0.3955
  962MOL0     C26888  -2.349   0.476  -0.557  0.0022 -0.0830  0.6735
  962MOL0     C26889  -2.478   0.400  -0.581 -0.1055 -0.0596 -0.2255
  962MOL0     C26890  -2.584   0.486  -0.658 -1.1760  0.5121 -0.5040
  962MOL0     C26891  -2.724   0.422  -0.672  0.3566 -0.2064 -0.1252
  962MOL0     C26892  -2.802   0.491  -0.781  0.1440 -0.1900  0.6444
  962MOL0     C26893  -2.930   0.405  -0.807 -0.6799  0.4699  0.2815
  962MOL0     C26894  -3.027   0.485  -0.895  0.6994 -0.1927 -0.8620
  962MOL0     C26895  -3.141   0.398  -0.928 -0.7933  0.3042 -0.0369
  962MOL0    Cl26896  -3.254   0.376  -0.786  0.1419  0.0872 -0.2067
  962MOL0     C26897  -2.064   0.571  -0.525  0.2051 -0.3870 -0.8942
  962MOL0     C26898  -1.923   0.602  -0.545 -1.2013  0.5760  0.6056
  962MOL0     O26899  -1.711   0.653  -0.313  0.1495 -0.3186 -0.0940
  962MOL0     C26900  -1.459   0.770  -0.364 -0.0310  0.5709  0.5117
  962MOL0     C26901  -1.326   0.811  -0.375  0.0292  0.6083  0.1278
  962MOL0     N26902  -0.778   1.248  -0.231  1.0385  0.0567 -0.5364
  962MOL0     N26903  -0.685   1.330  -0.194 -0.8014 -0.0666  0.3919
  962MOL0     C26904   0.373   1.594   0.080 -1.6318  0.8082 -0.2982
  962MOL0     C26905   0.478   1.509   0.144 -0.0965 -0.2362  0.4608
  962MOL0     C26906   0.889   1.350   0.241 -0.2655  0.0807  0.6694
  962MOL0     C26907   0.986   1.382   0.339 -0.7348 -0.4389  0.8724
  962MOL0     C26908   1.112   1.317   0.349  0.2243  0.0550  0.2553
  962MOL0     C26909   1.138   1.216   0.253 -0.0907 -0.0684 -0.2476
  962MOL0     O26910   1.272   1.180   0.255  0.0295  0.1593 -1.1824
  962MOL0     C26911   1.324   1.080   0.161 -0.3526 -0.9772 -0.4211
  962MOL0     C26912   1.473   1.066   0.180  0.2565 -0.8737 -0.1565
  962MOL0     C26913   1.532   0.958   0.099  0.1023  0.1472  0.0865
  962MOL0     C26914   1.674   0.953   0.157 -0.0745 -0.5347  0.5568
  962MOL0     C26915   1.757   0.870   0.065 -0.9098 -0.3546  0.3375
  962MOL0     C26916   1.820   0.786   0.004  0.4636 -0.0918 -0.2689
  962MOL0     C26917   1.041   1.181   0.162 -0.2057  0.5766 -0.5067
  962MOL0     C26918   0.915   1.243   0.151 -0.1406  0.0329  0.5433
  962MOL0     H26919   0.693   1.482  -0.113 -0.7664  1.6592 -1.6710
  962MOL0     H26920   0.534   1.623  -0.213 -1.1281 -1.4219 -0.3249
  962MOL0     H26921   0.128   1.737  -0.006  0.8514 -0.6213 -0.4203
  962MOL0     H26922   0.154   1.584  -0.091  1.2255 -1.1620  0.6236
  962MOL0     H26923   0.153   1.737  -0.311 -0.9435  1.5069 -1.0263
  962MOL0     H26924   0.093   1.861  -0.202  0.0750  0.7530 -3.7445
  962MOL0     H26925  -0.017   1.576  -0.241 -0.3552  0.3683 -1.5488
  962MOL0     H26926  -0.074   1.702  -0.326 -0.5579 -0.1717  1.0189
  962MOL0     H26927  -0.097   1.678  -0.023  1.9212 -1.3038  0.0622
  962MOL0     H26928  -0.126   1.828  -0.108  0.8956 -0.2545 -2.9955
  962MOL0     H26929  -0.297   1.709  -0.255  1.2471  0.0265 -0.4365
  962MOL0     H26930  -0.344   1.731  -0.080  0.4079 -0.6441  1.3073
  962MOL0     H26931  -0.255   1.511  -0.042  1.5791  0.4830 -0.7387
  962MOL0     H26932  -0.224   1.467  -0.196 -0.7689 -0.7488  0.1149
  962MOL0     H26933  -0.474   1.418  -0.091  2.6609 -2.3307 -1.7928
  962MOL0     H26934  -0.502   1.583  -0.153  0.4046  0.2476 -0.8679
  962MOL0     H26935  -0.390   1.367  -0.345 -0.8720 -2.7267 -0.0275
  962MOL0     H26936  -0.482   1.517  -0.375  1.1421 -0.6910  0.0101
  962MOL0     H26937  -0.596   1.262  -0.490 -1.3474 -1.0227  0.0808
  962MOL0     H26938  -0.821   1.134  -0.537  2.6250  2.2004  0.3054
  962MOL0     H26939  -0.954   1.124  -0.422 -0.1804  0.4079  0.0337
  962MOL0     H26940  -0.823   0.955  -0.275  0.4377 -1.2217 -0.1244
  962MOL0     H26941  -0.709   0.954  -0.405  0.6750  0.0814  3.0641
  962MOL0     H26942  -0.887   0.877  -0.559 -1.2844  2.5060  0.1491
  962MOL0     H26943  -0.874   0.773  -0.418  2.2535  0.5885  1.2803
  962MOL0     H26944  -1.091   0.961  -0.506  0.2192 -1.2278 -1.2051
  962MOL0     H26945  -1.084   0.915  -0.340 -2.6310  1.3208 -0.3824
  962MOL0     H26946  -1.224   0.574  -0.604 -2.1582  0.4399 -1.2784
  962MOL0     H26947  -1.453   0.477  -0.534  1.0780 -1.1829  4.0010
  962MOL0     H26948  -1.786   0.313  -0.453  1.2203  1.2458  0.0892
  962MOL0     H26949  -2.034   0.247  -0.451  1.4702 -1.0437 -0.5418
  962MOL0     H26950  -2.325   0.530  -0.650  2.0233  0.3195  1.3799
  962MOL0     H26951  -2.368   0.558  -0.488 -2.7217 -1.6990  1.9684
  962MOL0     H26952  -2.523   0.364  -0.488 -4.5081  1.6812 -1.4096
  962MOL0     H26953  -2.449   0.309  -0.634  1.8680  0.7917 -0.6801
  962MOL0     H26954  -2.547   0.493  -0.760  0.1085  2.3279  0.0180
  962MOL0     H26955  -2.583   0.583  -0.606  4.3885  0.5069  0.0418
  962MOL0     H26956  -2.704   0.319  -0.702  0.4885  0.3044 -1.8974
  962MOL0     H26957  -2.784   0.422  -0.580  0.5541 -0.8134  0.0112
  962MOL0     H26958  -2.744   0.506  -0.872 -0.8629  0.3936  0.0768
  962MOL0     H26959  -2.842   0.589  -0.753  0.8269 -0.6866  3.6682
  962MOL0     H26960  -2.978   0.387  -0.710 -0.2532  3.3000  1.1218
  962MOL0     H26961  -2.896   0.309  -0.846  0.5278 -0.1513  2.6808
  962MOL0     H26962  -3.067   0.568  -0.836 -0.1409 -0.9519 -0.3399
  962MOL0     H26963  -2.983   0.515  -0.991  0.0811 -1.8475 -1.6975
  962MOL0     H26964  -3.104   0.302  -0.965  0.1068 -0.3016  2.2836
  962MOL0     H26965  -3.203   0.447  -1.003  0.3941  0.3483 -1.0065
  962MOL0     H26966  -2.127   0.658  -0.538 -0.1121  0.0993  2.8646
  962MOL0     H26967  -1.887   0.702  -0.567  2.9548 -1.3446 -2.9908
  962MOL0     H26968  -1.521   0.816  -0.288  0.8501 -1.0779  2.3364
  962MOL0     H26969  -1.300   0.901  -0.320  1.3041  0.7911 -0.7514
  962MOL0     H26970   0.279   1.623   0.127 -2.7070  0.6378 -2.2485
  962MOL0     H26971   0.472   1.480   0.249  1.6251 -0.6184  0.4767
  962MOL0     H26972   0.968   1.471   0.397 -2.5777  0.0014 -0.2802
  962MOL0     H26973   1.189   1.355   0.416  0.6284 -1.1685  0.5141
  962MOL0     H26974   1.299   1.111   0.060 -2.3350  0.3361  0.4095
  962MOL0     H26975   1.277   0.983   0.178  0.5025 -1.2874  0.2520
  962MOL0     H26976   1.518   1.162   0.155 -0.2573 -0.5438  0.1815
  962MOL0     H26977   1.492   1.059   0.287 -1.0969  3.3103  0.5177
  962MOL0     H26978   1.527   0.980  -0.008 -2.4765  0.0495  0.1155
  962MOL0     H26979   1.482   0.864   0.125 -0.4091  0.4283  0.1184
  962MOL0     H26980   1.712   1.055   0.167  0.8545 -1.0902  3.8934
  962MOL0     H26981   1.670   0.909   0.257  0.8278 -0.2952  0.7091
  962MOL0     H26982   1.856   0.707  -0.059  0.6300  1.5693 -2.3664
  962MOL0     H26983   1.061   1.111   0.081 -0.2709 -2.3305  1.8347
  962MOL0     H26984   0.851   1.225   0.066  2.6386 -2.2055 -1.2401
  963MOL0     O26985   3.226   5.164   3.193  0.6521  0.3322 -1.1701
  963MOL0     C26986   3.158   5.255   3.243  1.2485  0.8429 -0.1125
  963MOL0     O26987   3.193   5.391   3.246  0.1484 -0.6732 -0.0885
  963MOL0     C26988   3.296   5.429   3.163  0.8626  0.2809 -0.4189
  963MOL0     C26989   3.272   5.529   3.067 -0.0318 -0.5260  0.4595
  963MOL0     C26990   3.380   5.588   3.003  0.9741  0.2179  0.2789
  963MOL0     C26991   3.510   5.556   3.033  0.1008 -0.0845  0.0644
  963MOL0     O26992   3.590   5.641   2.963 -0.1213  0.0230  0.4052
  963MOL0     C26993   3.732   5.643   2.995  1.5600  0.8896 -0.2983
  963MOL0     C26994   3.802   5.524   2.919  0.4957  1.0725 -0.1636
  963MOL0     C26995   3.953   5.523   2.926 -0.6667 -0.0112 -0.5077
  963MOL0     C26996   4.006   5.401   2.849 -0.1841  1.0432  0.3866
  963MOL0     C26997   3.957   5.253   2.885 -0.2572 -0.7880 -0.7472
  963MOL0     C26998   4.026   5.154   2.791  0.8894 -0.9552 -0.4003
  963MOL0     C26999   3.941   5.026   2.785  0.0034  0.2999 -0.0384
  963MOL0     C27000   3.982   4.935   2.669 -0.0891 -0.4618 -0.7362
  963MOL0     N27001   3.892   4.809   2.649 -0.1619 -0.5750  0.5305
  963MOL0     C27002   3.932   4.675   2.658  0.1506  0.6836  0.6468
  963MOL0     C27003   3.827   4.606   2.612 -0.2647  0.0660  1.1161
  963MOL0     C27004   3.811   4.464   2.581  0.6390 -0.4009 -0.1056
  963MOL0     C27005   3.925   4.374   2.640 -0.5325 -0.0412  0.4889
  963MOL0     C27006   3.944   4.246   2.554 -0.1817 -1.4892 -0.6205
  963MOL0     C27007   3.823   4.154   2.551 -0.6101  0.3254  0.8615
  963MOL0     O27008   3.781   4.102   2.682 -0.3117  0.6473  0.2254
  963MOL0     C27009   3.657   4.049   2.692  0.6203 -0.4574  0.0506
  963MOL0     C27010   3.621   4.023   2.823  0.0342 -0.3327  0.2954
  963MOL0     C27011   3.488   3.980   2.838 -0.1035 -0.8757 -0.3443
  963MOL0     C27012   3.403   3.959   2.731 -0.5938 -0.1196  0.7315
  963MOL0     C27013   3.263   3.934   2.758  1.2056  0.0203  0.1950
  963MOL0     O27014   3.180   3.941   2.650 -0.4003 -0.3592 -0.0066
  963MOL0     C27015   3.044   3.952   2.681 -0.4176 -0.9190  0.3034
  963MOL0     C27016   2.971   3.870   2.592  0.5212 -0.1162 -0.5294
  963MOL0     C27017   2.829   3.870   2.605  0.4588 -0.4914 -0.0280
  963MOL0     C27018   2.764   3.959   2.684 -1.0204 -0.8164 -0.1734
  963MOL0     O27019   2.626   3.956   2.701  0.3333 -0.9952 -0.6511
  963MOL0     C27020   2.553   3.853   2.624 -0.2173 -0.1585 -0.4309
  963MOL0     C27021   2.429   3.806   2.699  1.2747 -0.0181 -0.5939
  963MOL0     C27022   2.458   3.687   2.804  0.3071  0.3733 -0.2597
  963MOL0     C27023   2.331   3.614   2.845 -0.9514 -0.1247  0.7380
  963MOL0     C27024   2.357   3.501   2.933  0.0111 -0.9012  0.5145
  963MOL0     C27025   2.238   3.402   2.952  0.1748  0.0571 -0.1287
  963MOL0     C27026   2.277   3.296   3.058 -0.3071 -0.2052 -0.2354
  963MOL0     C27027   2.150   3.212   3.107  0.2177 -0.0868 -1.2226
  963MOL0    Cl27028   2.200   3.070   3.209 -0.0374 -0.2086  0.0348
  963MOL0     C27029   2.840   4.043   2.770  0.4744  0.9545  0.1884
  963MOL0     C27030   2.976   4.040   2.766 -0.3712  0.7571 -0.3595
  963MOL0     O27031   3.225   3.913   2.876  0.1201 -0.5384  0.7404
  963MOL0     C27032   3.444   3.985   2.600  0.1516 -0.2381 -0.1018
  963MOL0     C27033   3.572   4.032   2.584 -0.2865 -0.9904 -0.6642
  963MOL0     N27034   3.720   4.693   2.587 -0.1373 -0.4140  0.1913
  963MOL0     N27035   3.763   4.817   2.608  0.1447 -0.2847 -0.0546
  963MOL0     C27036   3.540   5.451   3.123  0.2651  0.3112  0.5532
  963MOL0     C27037   3.434   5.395   3.192  0.3878  0.1856 -0.0853
  963MOL0     C27038   3.024   5.220   3.305 -0.3404  0.7210 -0.0044
  963MOL0     C27039   2.974   5.085   3.306  0.0325 -0.6672  0.3882
  963MOL0     C27040   2.849   5.054   3.355  0.1369 -0.2445 -0.1351
  963MOL0     C27041   2.770   5.159   3.391  0.2927  0.3448  0.4002
  963MOL0     O27042   2.654   5.104   3.435  0.3437 -0.2979  0.5501
  963MOL0     C27043   2.552   5.175   3.494  0.3598 -0.0382  0.5902
  963MOL0     C27044   2.590   5.216   3.633 -0.7404 -0.1415  0.5151
  963MOL0     C27045   2.480   5.268   3.724  0.1936  0.4261 -0.2564
  963MOL0     C27046   2.399   5.380   3.651 -0.3453  0.1499 -0.0929
  963MOL0     C27047   2.291   5.450   3.718 -0.2081  0.2657  0.1526
  963MOL0     C27048   2.193   5.510   3.757 -0.4279  0.1525 -0.0637
  963MOL0     C27049   2.810   5.296   3.393 -0.6106  0.1381  0.2353
  963MOL0     C27050   2.942   5.325   3.351  0.8701 -0.3807  0.8093
  963MOL0     H27051   3.167   5.544   3.041  0.0329 -0.2594  0.3448
  963MOL0     H27052   3.357   5.676   2.944  0.1655  2.4427  3.6166
  963MOL0     H27053   3.746   5.624   3.102  0.2675 -0.5946 -0.3661
  963MOL0     H27054   3.763   5.744   2.968  1.0336  1.0729 -0.2250
  963MOL0     H27055   3.766   5.520   2.815 -2.7738 -0.9368  0.8710
  963MOL0     H27056   3.772   5.428   2.963  1.6236  1.2451  1.0172
  963MOL0     H27057   4.002   5.531   3.023  2.2013  0.9369 -1.9195
  963MOL0     H27058   3.984   5.611   2.868 -1.8631 -1.1097 -2.9648
  963MOL0     H27059   3.990   5.412   2.741 -0.1970 -1.4747  0.0808
  963MOL0     H27060   4.113   5.400   2.869  0.0827 -2.6448 -0.5859
  963MOL0     H27061   3.849   5.236   2.876 -0.2149 -2.2560  0.9431
  963MOL0     H27062   3.981   5.246   2.991  0.2263  2.1033 -0.5769
  963MOL0     H27063   4.126   5.125   2.824  1.9184  1.1219 -1.5067
  963MOL0     H27064   4.039   5.194   2.690  0.5383 -1.5676 -0.6915
  963MOL0     H27065   3.931   4.971   2.879 -1.2137  1.4192  0.5270
  963MOL0     H27066   3.840   5.060   2.760  1.1155  3.4141 -0.7944
  963MOL0     H27067   4.087   4.909   2.682 -0.6900 -2.6558  0.2026
  963MOL0     H27068   3.968   4.989   2.575  0.1406 -3.3757 -2.6018
  963MOL0     H27069   4.030   4.631   2.675  0.9650  1.3758 -1.9203
  963MOL0     H27070   3.784   4.443   2.477  1.2520 -2.4483  0.0939
  963MOL0     H27071   3.718   4.438   2.634  1.1031  0.1081  0.9784
  963MOL0     H27072   3.900   4.340   2.741 -1.6804 -1.4556 -0.2278
  963MOL0     H27073   4.023   4.422   2.646 -0.3254 -0.5520  1.5654
  963MOL0     H27074   3.974   4.266   2.451  0.5201 -1.7987 -0.4845
  963MOL0     H27075   4.024   4.187   2.599 -1.6071 -1.5598  2.0194
  963MOL0     H27076   3.843   4.077   2.476 -0.5575  0.1831  1.0230
  963MOL0     H27077   3.739   4.212   2.511 -2.9831 -0.5717  4.1296
  963MOL0     H27078   3.684   4.045   2.908  0.8054  2.0425 -0.8141
  963MOL0     H27079   3.459   3.983   2.943  0.0408  1.4205 -0.3216
  963MOL0     H27080   3.010   3.806   2.514 -1.6510 -1.7506 -0.3792
  963MOL0     H27081   2.786   3.797   2.536  0.5907 -0.1594 -0.4650
  963MOL0     H27082   2.608   3.767   2.584 -0.2490 -0.0455 -0.7233
  963MOL0     H27083   2.524   3.908   2.534 -1.8847 -1.5057 -0.7554
  963MOL0     H27084   2.363   3.770   2.620 -1.4047  0.0342  1.4850
  963MOL0     H27085   2.371   3.881   2.753 -0.0273 -3.5667  3.5757
  963MOL0     H27086   2.496   3.743   2.889 -1.3594  0.1607  0.6721
  963MOL0     H27087   2.523   3.605   2.774  1.8365 -0.1000  3.7250
  963MOL0     H27088   2.269   3.686   2.897  0.8183  2.2053 -0.1926
  963MOL0     H27089   2.276   3.563   2.765  1.1329 -1.6992  0.1911
  963MOL0     H27090   2.386   3.542   3.031  3.1990  0.4589 -0.8546
  963MOL0     H27091   2.442   3.446   2.893  1.3164 -0.3161  2.3528
  963MOL0     H27092   2.217   3.347   2.860  3.5329 -2.2813  0.3515
  963MOL0     H27093   2.146   3.455   2.979 -0.2801  1.3279 -3.6088
  963MOL0     H27094   2.353   3.227   3.020  1.4076  1.8609 -0.7465
  963MOL0     H27095   2.314   3.342   3.150 -1.1362  1.6063 -0.7687
  963MOL0     H27096   2.097   3.176   3.018  1.3603 -1.5339 -1.3669
  963MOL0     H27097   2.091   3.281   3.167  2.6980  0.9489  0.1870
  963MOL0     H27098   2.806   4.116   2.843  0.9200  0.2931  1.0765
  963MOL0     H27099   3.038   4.110   2.822  0.9846 -1.4433  1.0200
  963MOL0     H27100   3.373   4.002   2.519  1.0300  2.0328 -0.4652
  963MOL0     H27101   3.594   4.052   2.479 -1.0325 -0.2451 -0.6899
  963MOL0     H27102   3.641   5.414   3.140  0.8810  0.8639 -1.6079
  963MOL0     H27103   3.458   5.324   3.271  1.5404  1.3097  0.6116
  963MOL0     H27104   3.043   5.012   3.265 -0.6275  0.7381 -3.7437
  963MOL0     H27105   2.799   4.959   3.369  0.1691 -0.0704  1.3145
  963MOL0     H27106   2.463   5.112   3.486 -0.3819  1.1936 -2.1530
  963MOL0     H27107   2.547   5.267   3.435  1.2420  0.4764  1.2875
  963MOL0     H27108   2.637   5.130   3.682  1.3125 -1.8357 -3.8849
  963MOL0     H27109   2.669   5.291   3.628  1.6832 -2.5826 -0.6571
  963MOL0     H27110   2.520   5.299   3.821 -4.6317  0.2713  2.0715
  963MOL0     H27111   2.411   5.186   3.744 -1.2686  1.2201 -1.8499
  963MOL0     H27112   2.469   5.452   3.607 -2.0649  1.1228 -1.3513
  963MOL0     H27113   2.350   5.343   3.561 -2.0762 -0.0258  0.8775
  963MOL0     H27114   2.115   5.564   3.807 -1.5303 -1.6017  0.2028
  963MOL0     H27115   2.743   5.371   3.435  2.0184  2.6602  0.2407
  963MOL0     H27116   2.979   5.427   3.360  0.9457 -0.6138  4.2354
  964MOL0     O27117   0.794   8.909  10.286  0.5004 -0.5308  0.2473
  964MOL0     C27118   0.798   8.807  10.356  0.2834  0.0320 -0.1981
  964MOL0     O27119   0.690   8.738  10.417 -0.3341 -0.3625  0.2028
  964MOL0     C27120   0.557   8.772  10.387  0.0997  0.1420  0.4594
  964MOL0     C27121   0.525   8.777  10.252 -0.6765 -0.6399  0.1050
  964MOL0     C27122   0.383   8.775  10.224  0.1533  0.9297 -0.7010
  964MOL0     C27123   0.288   8.774  10.330  0.1837 -0.1822  0.5125
  964MOL0     O27124   0.164   8.755  10.286 -0.1437  0.1611 -0.2723
  964MOL0     C27125   0.058   8.744  10.378  0.9429  0.4740 -0.3606
  964MOL0     C27126  -0.075   8.712  10.304  0.5378 -0.1996  0.2201
  964MOL0     C27127  -0.192   8.669  10.390 -0.2072  0.1308  0.5784
  964MOL0     C27128  -0.318   8.660  10.312  0.0573 -1.1734 -0.1633
  964MOL0     C27129  -0.430   8.584  10.384  0.2743 -0.1128 -0.3794
  964MOL0     C27130  -0.512   8.651  10.496 -0.6352 -0.2574 -0.4913
  964MOL0     C27131  -0.591   8.772  10.446 -0.2832  0.2108 -0.3391
  964MOL0     C27132  -0.694   8.820  10.552 -0.0615 -0.4345  0.2630
  964MOL0     N27133  -0.641   8.866  10.678  0.4196 -0.6427 -0.1586
  964MOL0     C27134  -0.555   8.976  10.687 -0.3747 -0.2927  0.7030
  964MOL0     C27135  -0.510   8.986  10.808  0.5068 -0.6301  0.3118
  964MOL0     C27136  -0.412   9.081  10.857  0.5319  0.1243 -0.6104
  964MOL0     C27137  -0.270   9.043  10.818 -0.5661  0.4057 -0.3073
  964MOL0     C27138  -0.174   9.165  10.852 -0.5292  0.0467  0.3741
  964MOL0     C27139  -0.028   9.156  10.821 -0.5542  1.1369  0.0271
  964MOL0     O27140   0.020   9.044  10.899 -0.8620  0.3804 -0.2963
  964MOL0     C27141   0.152   8.995  10.880  0.1352  0.4640  0.9258
  964MOL0     C27142   0.226   9.021  10.764 -0.2519 -0.8568  0.1256
  964MOL0     C27143   0.354   8.975  10.748 -0.3993  1.0129 -0.8246
  964MOL0     C27144   0.417   8.911  10.857 -0.1263 -0.5288 -0.6802
  964MOL0     C27145   0.562   8.880  10.850 -0.5206 -0.4027  0.2016
  964MOL0     O27146   0.635   8.939  10.739  0.5727 -0.0093 -0.1852
  964MOL0     C27147   0.771   8.939  10.738 -0.1309 -0.2347  0.1930
  964MOL0     C27148   0.863   8.862  10.810 -0.7384 -0.6838  0.0534
  964MOL0     C27149   1.004   8.874  10.797  0.7389 -0.0463  0.1662
  964MOL0     C27150   1.048   8.963  10.701  0.1437 -0.9018 -0.9159
  964MOL0     O27151   1.191   8.978  10.693  0.7988 -0.3048  0.5125
  964MOL0     C27152   1.281   8.877  10.743  0.7051  1.1950  0.5113
  964MOL0     C27153   1.433   8.909  10.738  0.6403 -0.0535 -0.3452
  964MOL0     C27154   1.480   8.964  10.603 -0.4601  0.0778  0.0802
  964MOL0     C27155   1.635   8.944  10.588 -0.1495 -0.3105  0.3006
  964MOL0     C27156   1.717   9.026  10.685  0.1303  0.5649 -1.0516
  964MOL0     C27157   1.864   9.042  10.645 -0.2949 -0.3600  0.6084
  964MOL0     C27158   1.939   8.906  10.628 -0.3712  0.8887 -0.0545
  964MOL0     C27159   1.925   8.807  10.746  0.1602  0.4892 -0.9596
  964MOL0    Cl27160   1.961   8.869  10.904  0.2164 -0.0688  0.0733
  964MOL0     C27161   0.962   9.031  10.613  0.1537 -0.6691 -0.3118
  964MOL0     C27162   0.823   9.018  10.641  0.9522 -0.1691 -0.0867
  964MOL0     O27163   0.608   8.816  10.942 -0.0789 -0.4078 -0.7323
  964MOL0     C27164   0.337   8.886  10.974 -1.2183  0.2578 -0.5467
  964MOL0     C27165   0.204   8.927  10.983  0.5514 -1.0249  0.7614
  964MOL0     N27166  -0.567   8.885  10.882  0.0364  0.2608  0.7470
  964MOL0     N27167  -0.644   8.814  10.802  1.2727 -0.6206  0.6094
  964MOL0     C27168   0.326   8.789  10.462  0.0475 -0.8901  0.3694
  964MOL0     C27169   0.459   8.771  10.480 -1.0924 -0.6150 -0.8184
  964MOL0     C27170   0.926   8.757  10.387 -0.1578 -0.5874 -0.3450
  964MOL0     C27171   1.045   8.812  10.332 -0.0565  0.2492  0.3397
  964MOL0     C27172   1.168   8.768  10.365  0.5206  0.2252  0.0846
  964MOL0     C27173   1.187   8.664  10.457 -0.9624 -0.2139  0.0444
  964MOL0     O27174   1.320   8.629  10.484  0.5991 -0.4089 -0.6873
  964MOL0     C27175   1.342   8.523  10.577 -0.4338  0.4716 -0.0182
  964MOL0     C27176   1.468   8.445  10.543  0.3383 -0.3161  0.7819
  964MOL0     C27177   1.590   8.531  10.588  0.0166 -0.7616 -0.7474
  964MOL0     C27178   1.725   8.471  10.556 -0.6394  0.5940 -0.7184
  964MOL0     C27179   1.765   8.526  10.424 -0.5642  0.0493 -0.3722
  964MOL0     C27180   1.790   8.578  10.317 -0.2986 -0.1641 -0.1478
  964MOL0     C27181   1.069   8.618  10.524 -0.3238  0.5277 -0.1087
  964MOL0     C27182   0.941   8.659  10.486 -0.1307  0.1065  0.0430
  964MOL0     H27183   0.595   8.772  10.169 -0.8163 -0.0203 -0.0589
  964MOL0     H27184   0.358   8.769  10.118  0.1554 -2.2323 -0.6104
  964MOL0     H27185   0.046   8.817  10.458  1.3874 -1.0292  1.1350
  964MOL0     H27186   0.081   8.653  10.434  1.0447  0.7124 -0.0130
  964MOL0     H27187  -0.065   8.638  10.224 -2.8289  0.9621 -1.4521
  964MOL0     H27188  -0.108   8.804  10.256 -1.2587  0.5450  2.6795
  964MOL0     H27189  -0.200   8.740  10.473  1.4054  0.7418  0.2427
  964MOL0     H27190  -0.168   8.575  10.441  2.3264 -1.2045 -2.7350
  964MOL0     H27191  -0.348   8.762  10.286  2.1522 -0.6965 -0.9090
  964MOL0     H27192  -0.297   8.604  10.221  2.3097 -0.3985 -0.1774
  964MOL0     H27193  -0.391   8.494  10.433 -0.8512  0.8604  2.5269
  964MOL0     H27194  -0.499   8.545  10.308  0.3730  0.8656 -0.9782
  964MOL0     H27195  -0.437   8.686  10.567 -0.4628  1.5778 -1.5044
  964MOL0     H27196  -0.572   8.568  10.532 -1.6248  0.0630 -1.3375
  964MOL0     H27197  -0.521   8.849  10.413  0.7398  0.0229  1.3054
  964MOL0     H27198  -0.658   8.749  10.362 -0.3126 -2.1120  0.2552
  964MOL0     H27199  -0.765   8.740  10.577  1.9546 -1.5773  2.9495
  964MOL0     H27200  -0.742   8.906  10.505 -0.4994 -1.0151 -0.3655
  964MOL0     H27201  -0.513   9.044  10.614  4.2226 -2.8262  0.5651
  964MOL0     H27202  -0.423   9.086  10.966 -1.9175  1.5145 -0.8483
  964MOL0     H27203  -0.432   9.180  10.816  0.9987  0.2983 -0.4175
  964MOL0     H27204  -0.256   9.020  10.712  0.7785 -0.4294  0.0265
  964MOL0     H27205  -0.235   8.951  10.866 -0.9347  0.4648  0.0791
  964MOL0     H27206  -0.207   9.245  10.785 -1.2864 -0.3300  0.2819
  964MOL0     H27207  -0.190   9.203  10.953 -2.3881 -0.4187  0.2848
  964MOL0     H27208   0.023   9.249  10.848  0.1379 -0.3317  4.5944
  964MOL0     H27209  -0.021   9.136  10.714  0.5871 -0.2958  0.3395
  964MOL0     H27210   0.192   9.090  10.687 -1.6046 -1.6268  0.0022
  964MOL0     H27211   0.407   9.004  10.658  1.5178 -0.3753 -0.1993
  964MOL0     H27212   0.841   8.787  10.886  2.9540  0.9448  3.0465
  964MOL0     H27213   1.063   8.800  10.850 -0.8009  0.0799  2.1584
  964MOL0     H27214   1.252   8.791  10.682 -1.9681  0.6628  2.3346
  964MOL0     H27215   1.260   8.840  10.844  0.1881  2.1894  0.7842
  964MOL0     H27216   1.484   8.813  10.747  3.2169  0.6507 -4.7507
  964MOL0     H27217   1.464   8.970  10.824  2.0908 -0.2359 -0.7092
  964MOL0     H27218   1.450   9.069  10.598 -2.8748 -0.5437  0.0036
  964MOL0     H27219   1.416   8.917  10.528 -0.1743  0.2152 -0.2462
  964MOL0     H27220   1.664   8.839  10.604  1.7796  0.1725  0.1989
  964MOL0     H27221   1.656   8.965  10.483 -0.9727  0.2800  0.2377
  964MOL0     H27222   1.710   8.976  10.782 -1.8766  0.4569 -1.2062
  964MOL0     H27223   1.661   9.120  10.695 -2.6140 -0.4390 -4.4973
  964MOL0     H27224   1.917   9.096  10.724  0.7405  0.0122 -0.3059
  964MOL0     H27225   1.866   9.098  10.551 -2.1059  0.0197  0.7644
  964MOL0     H27226   1.913   8.851  10.536  0.7045  1.9909 -1.0387
  964MOL0     H27227   2.047   8.920  10.626 -0.0580 -1.0409 -2.4036
  964MOL0     H27228   1.986   8.717  10.737 -0.4446  0.0868 -1.1048
  964MOL0     H27229   1.821   8.777  10.762 -0.0713  2.2651  1.3471
  964MOL0     H27230   0.996   9.107  10.544  2.8313  0.2702  1.8788
  964MOL0     H27231   0.757   9.075  10.577 -0.3101 -0.9608  0.4729
  964MOL0     H27232   0.381   8.827  11.053 -2.6629  0.7557  0.6919
  964MOL0     H27233   0.149   8.918  11.076  0.8563  4.0748  1.7455
  964MOL0     H27234   0.265   8.789  10.552 -1.3042 -0.7309 -0.5299
  964MOL0     H27235   0.486   8.762  10.585  2.2030  2.3925 -1.2055
  964MOL0     H27236   1.029   8.895  10.265  0.9553  0.8930  0.8710
  964MOL0     H27237   1.259   8.818  10.332  0.6546 -0.6205 -0.8952
  964MOL0     H27238   1.262   8.450  10.591  0.0576 -0.7088 -2.7425
  964MOL0     H27239   1.357   8.565  10.677  2.4645  2.2317 -1.0494
  964MOL0     H27240   1.467   8.348  10.594  0.8241  0.3852  2.2020
  964MOL0     H27241   1.465   8.440  10.434 -1.8493  1.0135  0.7221
  964MOL0     H27242   1.584   8.530  10.698 -0.0170  1.5766 -0.6970
  964MOL0     H27243   1.594   8.634  10.554  2.0734 -0.0617  1.3017
  964MOL0     H27244   1.788   8.504  10.639  0.9891 -2.7989 -0.4732
  964MOL0     H27245   1.723   8.362  10.553 -0.6969  0.5654  0.1659
  964MOL0     H27246   1.812   8.610  10.217 -0.0172 -2.7377 -0.9825
  964MOL0     H27247   1.073   8.559  10.615  0.1589  0.5328 -0.1195
  964MOL0     H27248   0.857   8.625  10.546  1.0963  2.1716  3.2016
  965MOL0     O27249   3.725  10.637  11.199  0.1225 -0.5429 -1.0538
  965MOL0     C27250   3.727  10.722  11.293  0.3205 -0.9050  0.1904
  965MOL0     O27251   3.623  10.747  11.379  0.1842 -0.1765 -0.7100
  965MOL0     C27252   3.492  10.717  11.348  0.6031  0.3001 -1.5871
  965MOL0     C27253   3.436  10.644  11.237 -0.5616  0.2637 -0.1358
  965MOL0     C27254   3.298  10.627  11.227 -0.0452  0.2242 -0.3659
  965MOL0     C27255   3.211  10.697  11.317  0.7013 -0.6175  0.2306
  965MOL0     O27256   3.078  10.715  11.295 -0.3098 -0.2864 -0.4115
  965MOL0     C27257   3.010  10.591  11.285  0.6402 -0.2566  0.3763
  965MOL0     C27258   2.878  10.615  11.210 -0.3731  0.3545 -0.4050
  965MOL0     C27259   2.814  10.485  11.163 -0.4194  0.7083  0.2741
  965MOL0     C27260   2.708  10.521  11.048  0.9107  0.1213 -0.3428
  965MOL0     C27261   2.592  10.622  11.077 -0.8060 -1.3908 -0.4826
  965MOL0     C27262   2.518  10.576  11.204 -0.9956  0.1540  0.4888
  965MOL0     C27263   2.369  10.634  11.197 -0.1571  0.2889  0.2424
  965MOL0     C27264   2.273  10.581  11.107  0.2838  0.8074  0.0139
  965MOL0     N27265   2.150  10.673  11.103 -0.1497  0.7634 -0.0187
  965MOL0     C27266   2.078  10.689  11.217 -0.2425 -0.3108 -0.5464
  965MOL0     C27267   1.975  10.768  11.181 -0.2139  0.3511 -0.7912
  965MOL0     C27268   1.893  10.836  11.288 -0.1129  0.1319 -0.2774
  965MOL0     C27269   1.815  10.958  11.233 -1.2376 -0.4836 -0.6895
  965MOL0     C27270   1.767  11.045  11.345 -0.3253  0.5510  0.5262
  965MOL0     C27271   1.671  11.151  11.290  0.1252  0.4935 -0.2573
  965MOL0     O27272   1.615  11.215  11.412  0.3961  1.1591 -0.0776
  965MOL0     C27273   1.514  11.313  11.391 -0.4123 -0.0588 -1.1430
  965MOL0     C27274   1.497  11.369  11.267 -0.4198 -1.3243 -0.3654
  965MOL0     C27275   1.407  11.468  11.251  0.9828 -0.9277 -0.2383
  965MOL0     C27276   1.336  11.525  11.360 -0.0652 -0.0078  1.5694
  965MOL0     C27277   1.239  11.633  11.337  0.4073 -0.3262 -0.1676
  965MOL0     O27278   1.184  11.694  11.444  0.2496  0.0983  0.0611
  965MOL0     C27279   1.097  11.788  11.408  0.1331  0.5990  0.1571
  965MOL0     C27280   0.973  11.745  11.360  0.9315 -1.1536 -0.0101
  965MOL0     C27281   0.888  11.842  11.304  0.1279  0.2756 -0.1039
  965MOL0     C27282   0.923  11.977  11.306  0.7968 -0.4401  0.7142
  965MOL0     O27283   0.835  12.071  11.261  0.0864 -0.4806 -0.4902
  965MOL0     C27284   0.705  12.047  11.221  0.3065  0.3040 -0.3105
  965MOL0     C27285   0.654  12.168  11.145 -0.1224  0.1580 -1.0273
  965MOL0     C27286   0.578  12.139  11.010 -0.7852 -0.3374  0.0808
  965MOL0     C27287   0.673  12.117  10.894  0.4761 -0.1516  0.1694
  965MOL0     C27288   0.614  12.053  10.773  0.4011  0.9991  1.0634
  965MOL0     C27289   0.491  12.127  10.709  0.8960  0.8251 -0.1538
  965MOL0     C27290   0.521  12.279  10.689  1.8107 -0.4910 -0.2848
  965MOL0     C27291   0.428  12.342  10.582 -0.4819  0.6427  0.1164
  965MOL0    Cl27292   0.463  12.523  10.567  0.0574  0.3666 -0.2778
  965MOL0     C27293   1.043  12.012  11.355  0.5614  0.3926 -0.1844
  965MOL0     C27294   1.135  11.917  11.401 -0.2767 -1.0876 -0.3161
  965MOL0     O27295   1.200  11.641  11.221  0.2592  0.6510 -0.5442
  965MOL0     C27296   1.357  11.471  11.482  0.4541  0.1382 -0.1823
  965MOL0     C27297   1.445  11.369  11.500  0.8674 -0.0486  0.5459
  965MOL0     N27298   1.975  10.786  11.047  0.3916 -0.4318  0.6844
  965MOL0     N27299   2.086  10.731  11.002  0.1565  1.2158 -0.4885
  965MOL0     C27300   3.265  10.781  11.418  0.6995  0.3604  0.3778
  965MOL0     C27301   3.405  10.785  11.428  0.6791 -0.3235  1.0680
  965MOL0     C27302   3.850  10.790  11.313 -0.5514 -1.1585 -0.3230
  965MOL0     C27303   3.866  10.871  11.428 -0.5212 -0.0195  0.3484
  965MOL0     C27304   3.984  10.941  11.453  0.1712  0.7868 -0.4060
  965MOL0     C27305   4.096  10.919  11.384  0.0591 -0.9702 -0.1959
  965MOL0     O27306   4.206  10.991  11.426  0.2191  0.3334 -0.5414
  965MOL0     C27307   4.299  11.023  11.320 -0.6218 -0.7104 -0.4121
  965MOL0     C27308   4.415  10.917  11.329  0.2207  0.7749  0.6359
  965MOL0     C27309   4.506  10.942  11.209 -0.5042 -0.1835  0.4290
  965MOL0     C27310   4.642  10.872  11.193 -0.4028 -0.3807  0.5841
  965MOL0     C27311   4.718  10.887  11.317  0.1504 -0.1931 -0.5708
  965MOL0     C27312   4.763  10.920  11.421 -0.1382 -1.3618 -0.1133
  965MOL0     C27313   4.093  10.848  11.269  0.3609  0.1384 -0.0996
  965MOL0     C27314   3.971  10.776  11.234  0.1746  0.6167 -0.2286
  965MOL0     H27315   3.499  10.606  11.157  0.9555  1.2812  0.5262
  965MOL0     H27316   3.259  10.565  11.147 -0.1567  1.3652 -1.2285
  965MOL0     H27317   2.970  10.563  11.383 -1.5406 -1.8155 -0.8523
  965MOL0     H27318   3.065  10.509  11.238 -2.0771 -2.8336  1.3703
  965MOL0     H27319   2.891  10.687  11.128  2.2473 -1.8420 -2.1079
  965MOL0     H27320   2.813  10.655  11.288  0.6102 -1.4393  1.4278
  965MOL0     H27321   2.772  10.432  11.249 -0.3211  1.4970  0.8072
  965MOL0     H27322   2.882  10.406  11.130 -1.2334 -0.3058  0.9467
  965MOL0     H27323   2.769  10.562  10.968  0.1448  2.5249  0.2345
  965MOL0     H27324   2.664  10.425  11.017 -1.0819  0.2763  1.6719
  965MOL0     H27325   2.523  10.625  10.992 -2.6402 -3.3817  0.8149
  965MOL0     H27326   2.631  10.722  11.096 -0.1715 -2.1523  2.6605
  965MOL0     H27327   2.567  10.624  11.289  0.0095 -1.6773  0.9858
  965MOL0     H27328   2.518  10.470  11.228 -1.2856  0.5804  2.5888
  965MOL0     H27329   2.333  10.623  11.300 -0.8994 -0.3756 -0.0777
  965MOL0     H27330   2.376  10.741  11.178 -1.1193  0.1316 -1.1083
  965MOL0     H27331   2.236  10.484  11.143 -0.9814  1.3148  0.1324
  965MOL0     H27332   2.320  10.574  11.008 -1.1721  0.8836 -0.7110
  965MOL0     H27333   2.101  10.655  11.317 -2.3889  0.3591  0.2220
  965MOL0     H27334   1.965  10.861  11.367 -1.4871 -0.0491  1.0877
  965MOL0     H27335   1.821  10.762  11.323  0.8213 -1.1859 -1.0579
  965MOL0     H27336   1.740  10.919  11.163 -3.6213  2.1209  0.2434
  965MOL0     H27337   1.882  11.018  11.170 -0.8311 -2.3744 -2.1788
  965MOL0     H27338   1.714  10.989  11.423 -0.2542 -1.2175 -0.6562
  965MOL0     H27339   1.854  11.083  11.400  0.2819 -0.8034  0.5175
  965MOL0     H27340   1.595  11.105  11.227  0.0799  1.8727 -1.2409
  965MOL0     H27341   1.725  11.228  11.234  2.9046  0.7280  2.4891
  965MOL0     H27342   1.550  11.346  11.175 -0.1064 -1.4397 -0.1589
  965MOL0     H27343   1.398  11.505  11.150  0.3761 -1.5548 -0.4206
  965MOL0     H27344   0.943  11.641  11.361 -1.2781 -0.5616  0.9470
  965MOL0     H27345   0.793  11.802  11.270  2.0056 -2.4142 -2.7711
  965MOL0     H27346   0.647  12.035  11.313  0.5490 -2.0207 -0.3999
  965MOL0     H27347   0.701  11.953  11.167 -2.3795 -0.6896  1.4129
  965MOL0     H27348   0.731  12.239  11.114 -1.4273  2.7603  1.2727
  965MOL0     H27349   0.587  12.222  11.213 -1.4622 -0.2727 -1.9552
  965MOL0     H27350   0.509  12.216  10.973  0.2383 -0.1101 -1.4305
  965MOL0     H27351   0.523  12.046  11.027 -1.6411  0.3259  1.0810
  965MOL0     H27352   0.718  12.210  10.858 -0.5085  0.2743 -0.0216
  965MOL0     H27353   0.761  12.059  10.921  0.6235 -1.9061 -3.4536
  965MOL0     H27354   0.579  11.953  10.802  0.4525  0.4702 -0.5753
  965MOL0     H27355   0.691  12.042  10.696  0.1555  3.2587  0.4554
  965MOL0     H27356   0.407  12.113  10.776  0.0612 -0.3932 -1.4022
  965MOL0     H27357   0.459  12.086  10.613  0.6100  0.7138 -0.0111
  965MOL0     H27358   0.520  12.343  10.778  3.3354 -1.7754  0.7004
  965MOL0     H27359   0.620  12.294  10.645  2.1743  1.1431  0.9752
  965MOL0     H27360   0.322  12.321  10.604 -0.3424 -1.0091 -0.6445
  965MOL0     H27361   0.442  12.306  10.480  0.1794  0.0713  0.4033
  965MOL0     H27362   1.080  12.113  11.369  0.5493  0.7352 -2.3303
  965MOL0     H27363   1.225  11.964  11.439 -0.7966 -0.9166  0.7437
  965MOL0     H27364   1.299  11.515  11.563  0.2869  0.4496 -0.4686
  965MOL0     H27365   1.462  11.326  11.598  0.5534 -4.2357 -1.0341
  965MOL0     H27366   3.196  10.824  11.489 -0.1677  0.8406 -0.7430
  965MOL0     H27367   3.439  10.832  11.521 -1.6710 -2.1695  2.9854
  965MOL0     H27368   3.776  10.886  11.487 -0.9373  1.2245 -0.5474
  965MOL0     H27369   3.997  11.005  11.540 -0.5221 -1.8408  1.7941
  965MOL0     H27370   4.326  11.126  11.346 -2.7443 -0.3855  0.7812
  965MOL0     H27371   4.261  11.029  11.218 -0.0798 -1.5892 -0.6751
  965MOL0     H27372   4.464  10.914  11.427 -1.3455  2.6246  1.5484
  965MOL0     H27373   4.377  10.815  11.316  1.3148  0.4915 -0.5246
  965MOL0     H27374   4.544  11.044  11.201  1.9190 -1.0472  0.0016
  965MOL0     H27375   4.440  10.920  11.125  0.5882 -2.8409  0.1725
  965MOL0     H27376   4.629  10.766  11.170  1.3413 -0.1633 -1.8343
  965MOL0     H27377   4.706  10.909  11.113 -1.0065  1.9884  1.1196
  965MOL0     H27378   4.788  10.937  11.524 -1.0177  0.1817 -0.1174
  965MOL0     H27379   4.183  10.832  11.210  0.4707 -1.1322  0.3938
  965MOL0     H27380   3.972  10.708  11.150  4.3363 -1.3720  1.1601
  966MOL0     O27381   1.404  10.133   7.412  0.7315 -0.0024 -0.1724
  966MOL0     C27382   1.342  10.031   7.417 -0.2718 -0.3810 -0.0703
  966MOL0     O27383   1.243   9.982   7.325 -0.5109  0.2056 -0.1196
  966MOL0     C27384   1.195  10.072   7.223  0.6285  0.0358 -0.1002
  966MOL0     C27385   1.072  10.035   7.170 -0.6515  0.7919  0.1876
  966MOL0     C27386   1.020  10.101   7.056 -0.6534  0.6808  0.0973
  966MOL0     C27387   1.099  10.195   6.989  0.2273 -0.6413  0.2614
  966MOL0     O27388   1.049  10.275   6.884  0.6974 -0.0617  0.8268
  966MOL0     C27389   0.919  10.240   6.828 -0.5196 -1.0084 -0.4318
  966MOL0     C27390   0.906  10.342   6.706 -0.3291 -0.1964  0.3343
  966MOL0     C27391   0.764  10.306   6.649 -0.3125 -0.0856 -0.4149
  966MOL0     C27392   0.726  10.386   6.529 -0.2072  0.1319  0.5457
  966MOL0     C27393   0.573  10.372   6.483  0.1910  0.9405 -0.4682
  966MOL0     C27394   0.535  10.382   6.334 -0.6966 -1.0271  0.5352
  966MOL0     C27395   0.589  10.279   6.224 -0.1055  0.5926  0.7055
  966MOL0     C27396   0.587  10.136   6.283  0.1540 -0.1193  0.0058
  966MOL0     N27397   0.644  10.034   6.189 -0.1933  0.1840 -0.7657
  966MOL0     C27398   0.766  10.051   6.140 -0.5246  0.2802  0.0801
  966MOL0     C27399   0.800   9.918   6.101  0.5624  0.2318 -0.0672
  966MOL0     C27400   0.928   9.866   6.043 -0.4975 -0.9898 -0.3301
  966MOL0     C27401   1.021   9.976   5.995  0.0588  0.7940  0.8269
  966MOL0     C27402   1.154   9.921   5.949  0.0652  0.2767 -0.3255
  966MOL0     C27403   1.244  10.032   5.911 -0.2687 -0.1525 -0.9584
  966MOL0     O27404   1.366  10.006   5.832  0.0550 -0.2558  0.3620
  966MOL0     C27405   1.480  10.074   5.870  0.9636 -0.3377 -0.1461
  966MOL0     C27406   1.490  10.192   5.937 -0.0892 -0.3939 -1.0947
  966MOL0     C27407   1.614  10.255   5.957  0.6793 -0.0984 -0.7027
  966MOL0     C27408   1.737  10.190   5.920  0.9705 -0.7163 -0.3460
  966MOL0     C27409   1.872  10.247   5.943 -0.4935  0.5179 -0.3619
  966MOL0     O27410   1.985  10.176   5.893 -0.1498 -0.4038 -0.3100
  966MOL0     C27411   2.113  10.220   5.925  0.4017 -0.4160 -0.0203
  966MOL0     C27412   2.154  10.357   5.908  0.5082  0.2307  0.7450
  966MOL0     C27413   2.285  10.400   5.953 -0.5245 -0.3653 -0.2272
  966MOL0     C27414   2.372  10.301   5.999  0.2931 -0.3099 -0.3419
  966MOL0     O27415   2.504  10.341   6.030  0.7013  0.6093 -1.2073
  966MOL0     C27416   2.604  10.239   6.039  0.3676  0.6086 -0.2937
  966MOL0     C27417   2.742  10.306   5.995  0.2426 -0.6063 -0.9845
  966MOL0     C27418   2.802  10.423   6.087 -0.9605 -0.0551 -1.0881
  966MOL0     C27419   2.924  10.493   6.040 -0.5637 -0.5102 -1.1254
  966MOL0     C27420   2.977  10.608   6.128 -0.0691 -0.3929  0.4721
  966MOL0     C27421   3.108  10.680   6.083 -0.6974 -0.0893 -0.3554
  966MOL0     C27422   3.191  10.751   6.194 -0.4657  0.5399  0.0692
  966MOL0     C27423   3.245  10.660   6.305 -0.6856  0.3304  0.8817
  966MOL0    Cl27424   3.351  10.519   6.243 -0.1086 -0.1402 -0.1617
  966MOL0     C27425   2.327  10.170   6.011 -0.4489  0.1427  0.1011
  966MOL0     C27426   2.193  10.135   5.983 -0.3750  0.2669 -0.8078
  966MOL0     O27427   1.873  10.344   6.012  0.1516 -0.8429 -0.1960
  966MOL0     C27428   1.724  10.076   5.837  0.1978 -0.7382 -0.1758
  966MOL0     C27429   1.593  10.016   5.809 -0.3452  0.2391 -0.6064
  966MOL0     N27430   0.696   9.843   6.121 -0.0009  0.3078 -0.2594
  966MOL0     N27431   0.604   9.905   6.174  0.5991  0.4849  0.6261
  966MOL0     C27432   1.220  10.235   7.042  0.3102 -0.0549  0.2069
  966MOL0     C27433   1.270  10.171   7.155  0.1129 -0.8630 -0.4360
  966MOL0     C27434   1.378   9.943   7.533 -0.3253 -0.3245  0.8148
  966MOL0     C27435   1.490   9.971   7.612  0.3498  0.3241  0.9873
  966MOL0     C27436   1.519   9.899   7.724 -0.0613  0.3233 -0.3265
  966MOL0     C27437   1.443   9.790   7.763  0.2310  0.2859 -0.0234
  966MOL0     O27438   1.465   9.712   7.880 -0.6671 -0.4433 -0.0177
  966MOL0     C27439   1.587   9.722   7.949 -0.3901 -0.2296 -0.6720
  966MOL0     C27440   1.590   9.637   8.074 -0.3191 -0.0782 -0.1109
  966MOL0     C27441   1.483   9.693   8.158  0.1007  0.4299 -0.1494
  966MOL0     C27442   1.479   9.612   8.294 -0.2680 -0.1058  0.8187
  966MOL0     C27443   1.574   9.681   8.383  0.0692 -0.0765 -0.0580
  966MOL0     C27444   1.663   9.718   8.454  0.6079 -0.2121 -0.7882
  966MOL0     C27445   1.328   9.760   7.690  0.2356  0.3430 -0.2658
  966MOL0     C27446   1.302   9.836   7.570 -0.4190  0.8076  0.3123
  966MOL0     H27447   1.028   9.944   7.209  1.3989  0.7654  2.7009
  966MOL0     H27448   0.924  10.075   7.012 -0.2956  1.5722 -1.2837
  966MOL0     H27449   0.857  10.256   6.917  0.5292 -0.2757  0.1945
  966MOL0     H27450   0.898  10.140   6.789 -3.1138  0.3007 -2.7294
  966MOL0     H27451   0.986  10.331   6.633  1.0845  1.4400  1.5663
  966MOL0     H27452   0.910  10.446   6.742 -4.0027  0.1768  0.1197
  966MOL0     H27453   0.688  10.334   6.723 -1.2842 -2.2004 -0.5455
  966MOL0     H27454   0.751  10.198   6.652  0.4778 -0.1888 -0.4936
  966MOL0     H27455   0.742  10.494   6.534 -2.8262  0.7442 -1.8806
  966MOL0     H27456   0.786  10.352   6.444 -0.5093 -0.1563  0.4429
  966MOL0     H27457   0.517  10.447   6.539  0.4130  0.9452 -0.2505
  966MOL0     H27458   0.530  10.274   6.509 -1.5739  1.6564 -0.5404
  966MOL0     H27459   0.559  10.482   6.298  3.0197 -1.0027  2.6690
  966MOL0     H27460   0.425  10.379   6.331 -0.8306  2.0315 -1.0619
  966MOL0     H27461   0.534  10.275   6.130  0.3111 -1.4721  0.5089
  966MOL0     H27462   0.690  10.315   6.204  0.8252 -0.4531  3.1000
  966MOL0     H27463   0.483  10.111   6.309  0.3557  0.1362  1.1063
  966MOL0     H27464   0.651  10.133   6.371  2.2596 -2.5484 -1.4784
  966MOL0     H27465   0.823  10.144   6.141 -0.4363  0.2264  0.1866
  966MOL0     H27466   0.905   9.809   5.953  0.1999 -1.6586 -0.0987
  966MOL0     H27467   0.969   9.800   6.120  0.2775  1.6809  1.7236
  966MOL0     H27468   1.035  10.050   6.075 -2.0281  0.8313  1.2023
  966MOL0     H27469   0.974  10.030   5.912  2.4093  1.4158 -0.1893
  966MOL0     H27470   1.200   9.863   6.029  0.9803  1.0550 -0.2631
  966MOL0     H27471   1.144   9.858   5.860 -2.1697  1.4845 -1.0075
  966MOL0     H27472   1.274  10.078   6.005 -4.4146 -1.1593  1.1315
  966MOL0     H27473   1.178  10.101   5.856  0.0830  1.1945  0.2552
  966MOL0     H27474   1.401  10.240   5.979  1.5001  0.8152  1.1334
  966MOL0     H27475   1.617  10.337   6.028  1.9660 -0.3528 -0.4300
  966MOL0     H27476   2.094  10.435   5.863  1.1323  1.1557  1.4922
  966MOL0     H27477   2.318  10.503   5.959 -3.8599  0.8096  5.2879
  966MOL0     H27478   2.582  10.162   5.964 -1.0331 -1.6081  2.2037
  966MOL0     H27479   2.612  10.194   6.138 -1.9723  1.2297  0.2475
  966MOL0     H27480   2.735  10.359   5.900 -1.7693  0.7025 -0.1579
  966MOL0     H27481   2.818  10.227   5.999  2.0650  1.0754 -1.1170
  966MOL0     H27482   2.819  10.386   6.189 -1.4814 -0.7576 -1.2485
  966MOL0     H27483   2.729  10.505   6.094 -0.7457  0.0161  3.4758
  966MOL0     H27484   3.010  10.426   6.029  0.1793  0.3493 -0.6743
  966MOL0     H27485   2.907  10.534   5.940  3.8446  0.7603 -1.5455
  966MOL0     H27486   2.996  10.560   6.225  0.7391 -2.7803 -0.7893
  966MOL0     H27487   2.894  10.677   6.143 -1.3003 -1.8729  0.8037
  966MOL0     H27488   3.075  10.753   6.009  0.5098  2.2249  1.2749
  966MOL0     H27489   3.157  10.587   6.052 -1.5431 -0.8334  0.4437
  966MOL0     H27490   3.265  10.817   6.148  0.8279 -2.1838 -2.0402
  966MOL0     H27491   3.119  10.815   6.245  1.0979  0.9513  1.8772
  966MOL0     H27492   3.164  10.633   6.373  0.6092 -1.4195  1.8200
  966MOL0     H27493   3.324  10.716   6.356 -0.3640  1.8485 -1.1480
  966MOL0     H27494   2.395  10.096   6.052  0.8471 -0.3723 -2.6806
  966MOL0     H27495   2.151  10.038   6.006  0.7072 -0.5749 -2.2055
  966MOL0     H27496   1.813  10.033   5.793  0.1489 -0.7908 -0.2216
  966MOL0     H27497   1.580   9.941   5.732  2.3639 -1.9192  0.8758
  966MOL0     H27498   1.270  10.314   6.986 -2.6306  0.2320 -2.2648
  966MOL0     H27499   1.373  10.195   7.181  0.2215 -0.5105 -1.1641
  966MOL0     H27500   1.560  10.050   7.585 -0.0867  1.2968  2.5738
  966MOL0     H27501   1.606   9.927   7.782 -0.3664 -0.9478  0.8059
  966MOL0     H27502   1.602   9.827   7.975 -2.0131 -0.5994  2.1006
  966MOL0     H27503   1.665   9.679   7.884 -1.1613 -2.3224 -0.2886
  966MOL0     H27504   1.569   9.532   8.052  2.1337 -0.9574  1.3511
  966MOL0     H27505   1.686   9.639   8.127  0.1628 -1.8372 -0.8413
  966MOL0     H27506   1.393   9.660   8.105 -0.0468 -0.4453  0.6060
  966MOL0     H27507   1.479   9.801   8.174 -4.6119  0.3319  0.7782
  966MOL0     H27508   1.378   9.618   8.336 -0.0856 -0.6528  1.3508
  966MOL0     H27509   1.501   9.505   8.288  1.9718  0.1487  2.8729
  966MOL0     H27510   1.743   9.734   8.524  0.7832 -2.8113 -0.2932
  966MOL0     H27511   1.267   9.672   7.707  0.1187  0.5416  0.3564
  966MOL0     H27512   1.217   9.804   7.510  1.5880 -1.4364 -1.5098
  967MOL0     O27513   7.963   4.557  10.509  0.0335 -0.2599  0.4592
  967MOL0     C27514   7.951   4.677  10.504  0.1376  0.2650 -0.2285
  967MOL0     O27515   7.853   4.751  10.563 -0.3432  0.6080  0.5945
  967MOL0     C27516   7.751   4.697  10.645 -0.4305  0.7601 -0.4083
  967MOL0     C27517   7.671   4.793  10.704  1.7488  0.3050  0.0850
  967MOL0     C27518   7.567   4.759  10.786  0.3772 -0.2076  0.0634
  967MOL0     C27519   7.524   4.625  10.807 -0.1972 -0.6436  0.3681
  967MOL0     O27520   7.423   4.604  10.893  0.1394  0.1667 -1.0093
  967MOL0     C27521   7.395   4.470  10.910  1.2166 -0.9314 -0.0184
  967MOL0     C27522   7.259   4.459  10.983 -0.0703 -0.1344  0.3555
  967MOL0     C27523   7.194   4.317  10.974 -0.1850  0.0749 -0.2303
  967MOL0     C27524   7.051   4.303  11.039 -0.3686  0.4663 -0.4643
  967MOL0     C27525   7.012   4.156  11.055  0.2012 -0.0018 -0.5446
  967MOL0     C27526   6.870   4.140  11.114 -0.4137 -0.6300 -0.2221
  967MOL0     C27527   6.809   3.997  11.090  0.3829  0.0396  0.8076
  967MOL0     C27528   6.654   3.999  11.122 -0.0698 -0.6392  0.1091
  967MOL0     N27529   6.563   4.047  11.018 -0.2034 -0.6653  0.9141
  967MOL0     C27530   6.543   4.179  10.981  0.3440 -0.2432 -0.3980
  967MOL0     C27531   6.457   4.176  10.871  0.7338 -0.3356  0.5023
  967MOL0     C27532   6.435   4.296  10.782 -0.0077  0.4010 -0.5501
  967MOL0     C27533   6.294   4.355  10.795  0.8291 -0.6321 -0.2716
  967MOL0     C27534   6.187   4.273  10.722 -0.1845  0.5110 -0.2296
  967MOL0     C27535   6.047   4.327  10.756  0.0825  0.5278 -1.1083
  967MOL0     O27536   6.024   4.471  10.732  0.0885 -0.0369  0.2508
  967MOL0     C27537   5.892   4.528  10.737  0.0443  0.9518 -0.7618
  967MOL0     C27538   5.869   4.635  10.821 -0.1115  1.0033 -0.5601
  967MOL0     C27539   5.739   4.679  10.828  0.3770 -0.0124  0.2805
  967MOL0     C27540   5.635   4.642  10.739 -0.0267 -0.4237  0.2554
  967MOL0     C27541   5.501   4.713  10.741  0.0164  0.4175  0.4388
  967MOL0     O27542   5.395   4.645  10.682  0.0839  0.2700 -0.3350
  967MOL0     C27543   5.263   4.698  10.691 -0.3741  0.2178 -1.3363
  967MOL0     C27544   5.171   4.663  10.601 -0.1707  0.2503  0.4349
  967MOL0     C27545   5.038   4.715  10.602 -0.5904 -0.0058 -0.6899
  967MOL0     C27546   4.993   4.779  10.714  0.0053 -0.5749  0.0990
  967MOL0     O27547   4.862   4.796  10.730  0.2239 -1.0180  0.2081
  967MOL0     C27548   4.790   4.791  10.856  0.9408  0.9119 -0.6252
  967MOL0     C27549   4.647   4.747  10.842 -0.5103 -0.6595  0.7168
  967MOL0     C27550   4.555   4.857  10.788  0.4058  0.1686 -0.4780
  967MOL0     C27551   4.417   4.807  10.745  0.8440 -0.1039  0.6458
  967MOL0     C27552   4.331   4.927  10.722 -1.0538 -0.1660 -0.6725
  967MOL0     C27553   4.203   4.898  10.644  0.9555  0.4506 -0.1729
  967MOL0     C27554   4.112   5.019  10.608  0.5635 -0.6525 -0.1562
  967MOL0     C27555   3.990   4.978  10.524  0.0988 -0.6765  0.1438
  967MOL0    Cl27556   4.054   4.897  10.377  0.1566 -0.1728 -0.0434
  967MOL0     C27557   5.085   4.813  10.813  0.8123  0.3577 -0.4629
  967MOL0     C27558   5.220   4.770  10.807  0.8710 -0.3266  0.0128
  967MOL0     O27559   5.503   4.832  10.773  1.3840  0.3295 -0.3924
  967MOL0     C27560   5.672   4.537  10.654  0.5005 -0.0222  0.4290
  967MOL0     C27561   5.794   4.480  10.650 -0.5599 -1.2804 -0.6142
  967MOL0     N27562   6.430   4.039  10.843  0.0483 -0.0594  0.9352
  967MOL0     N27563   6.495   3.969  10.929 -0.7097 -0.2967  0.6254
  967MOL0     C27564   7.599   4.530  10.728 -0.3137 -0.2112  0.2345
  967MOL0     C27565   7.712   4.562  10.657  0.1320  0.1187  0.0832
  967MOL0     C27566   8.048   4.759  10.422  0.1585  0.0814 -0.4875
  967MOL0     C27567   8.146   4.705  10.333  0.1047  0.1508  1.2314
  967MOL0     C27568   8.249   4.791  10.281  0.9796  1.1210 -0.3955
  967MOL0     C27569   8.247   4.930  10.307  0.7975 -0.2421  0.0973
  967MOL0     O27570   8.331   5.017  10.238 -0.6444  0.1661 -0.4956
  967MOL0     C27571   8.468   5.006  10.281 -0.4998 -0.3080  0.2342
  967MOL0     C27572   8.548   5.107  10.201 -0.0361  0.4607 -0.4475
  967MOL0     C27573   8.691   5.128  10.242  0.6431  0.5593 -0.0518
  967MOL0     C27574   8.782   5.031  10.163  0.5903 -0.0639 -0.3491
  967MOL0     C27575   8.767   4.897  10.211 -1.4232 -0.7259  0.0420
  967MOL0     C27576   8.759   4.789  10.267 -0.0093 -0.6187 -0.0209
  967MOL0     C27577   8.152   4.981  10.394 -0.4280  0.1561  0.3771
  967MOL0     C27578   8.060   4.896  10.458 -0.3004  0.4157 -0.0800
  967MOL0     H27579   7.703   4.896  10.698  0.5629  0.6649 -0.2893
  967MOL0     H27580   7.506   4.833  10.838  0.3744 -0.5544  0.5566
  967MOL0     H27581   7.463   4.419  10.979  1.9082 -1.4475 -1.0543
  967MOL0     H27582   7.385   4.416  10.815 -1.3556  0.5402 -0.6776
  967MOL0     H27583   7.190   4.537  10.948 -0.7683 -1.3170 -1.0085
  967MOL0     H27584   7.262   4.492  11.087 -2.8078 -1.8322  1.0734
  967MOL0     H27585   7.262   4.247  11.023  0.6050  0.2694 -1.0160
  967MOL0     H27586   7.206   4.300  10.867  3.4770 -0.5263  0.1307
  967MOL0     H27587   7.048   4.353  11.136 -4.0836 -0.2470 -0.0571
  967MOL0     H27588   6.982   4.362  10.977 -1.2975 -2.7125 -2.7266
  967MOL0     H27589   7.073   4.104  11.129 -0.5857  1.0451  0.8703
  967MOL0     H27590   7.025   4.101  10.961  5.1485 -0.0851 -0.1127
  967MOL0     H27591   6.805   4.213  11.066  0.6858 -0.4053 -1.4144
  967MOL0     H27592   6.869   4.158  11.222  0.8014  0.9504 -0.4395
  967MOL0     H27593   6.836   3.964  10.989  0.4889  0.9028  0.5445
  967MOL0     H27594   6.873   3.931  11.150  0.3243 -2.0620 -1.3101
  967MOL0     H27595   6.628   4.053  11.214 -0.1429 -1.6373  0.6934
  967MOL0     H27596   6.622   3.895  11.136 -0.8196 -0.2201  1.7147
  967MOL0     H27597   6.577   4.269  11.032 -0.9814  0.1751 -0.2098
  967MOL0     H27598   6.475   4.282  10.682 -2.0063  0.7482 -1.4526
  967MOL0     H27599   6.502   4.369  10.829 -4.0905  3.7347  0.8132
  967MOL0     H27600   6.301   4.446  10.734 -1.3763 -1.1357 -1.3834
  967MOL0     H27601   6.256   4.382  10.893 -2.3188  0.1658 -1.5922
  967MOL0     H27602   6.204   4.246  10.617 -3.0453 -3.7200  0.1471
  967MOL0     H27603   6.199   4.172  10.764 -2.9896 -1.6965 -4.1123
  967MOL0     H27604   6.018   4.326  10.861 -2.1727  0.4238 -1.6831
  967MOL0     H27605   5.969   4.276  10.698 -0.9000  0.5589  0.1420
  967MOL0     H27606   5.942   4.673  10.892  0.5839 -0.6418 -0.3440
  967MOL0     H27607   5.714   4.756  10.900 -4.1227 -0.8607 -0.0837
  967MOL0     H27608   5.199   4.590  10.525 -1.8729 -1.6177  1.4866
  967MOL0     H27609   4.970   4.684  10.524 -0.4961 -2.1755 -0.0041
  967MOL0     H27610   4.795   4.889  10.905  3.2575  0.8735 -0.7071
  967MOL0     H27611   4.844   4.722  10.922  1.5841  1.8743 -0.1274
  967MOL0     H27612   4.630   4.717  10.946  1.8393 -2.9649  0.5317
  967MOL0     H27613   4.633   4.656  10.783 -0.4385  0.5573 -1.2684
  967MOL0     H27614   4.610   4.913  10.712  1.1431 -0.4857 -0.4433
  967MOL0     H27615   4.535   4.925  10.872  1.4923 -0.7892  0.6014
  967MOL0     H27616   4.419   4.747  10.654 -0.8479  1.7152 -0.6696
  967MOL0     H27617   4.372   4.759  10.832  0.7258 -1.7205 -0.2729
  967MOL0     H27618   4.389   4.998  10.662 -0.9552  0.5844  0.2798
  967MOL0     H27619   4.302   4.975  10.816 -0.5564  1.8188 -1.4775
  967MOL0     H27620   4.139   4.834  10.705 -0.1330  2.2889  0.6950
  967MOL0     H27621   4.231   4.845  10.552  2.5565 -0.2111  0.6484
  967MOL0     H27622   4.081   5.069  10.700  0.3153  2.1230 -1.6515
  967MOL0     H27623   4.170   5.092  10.550 -0.4181 -0.6678 -1.2008
  967MOL0     H27624   3.933   5.062  10.482  0.3709 -1.7615 -2.6388
  967MOL0     H27625   3.925   4.910  10.579 -0.2876 -0.0819  0.4398
  967MOL0     H27626   5.072   4.880  10.897  1.7861 -0.1974  0.1360
  967MOL0     H27627   5.275   4.779  10.900  0.2900 -0.4692  0.3761
  967MOL0     H27628   5.599   4.491  10.589  2.7228 -0.5610 -1.8408
  967MOL0     H27629   5.815   4.389  10.593  2.9756 -0.5288 -0.7388
  967MOL0     H27630   7.572   4.425  10.722  0.0982 -0.2331 -2.1811
  967MOL0     H27631   7.769   4.489  10.600  1.4917  0.1855  1.2815
  967MOL0     H27632   8.159   4.599  10.312  0.6121  0.7818 -2.2939
  967MOL0     H27633   8.329   4.758  10.217  0.0187 -0.1754 -0.9812
  967MOL0     H27634   8.499   4.904  10.255 -1.5527  0.1626 -3.4733
  967MOL0     H27635   8.488   5.031  10.385  1.7288  1.3736 -0.5227
  967MOL0     H27636   8.554   5.074  10.097 -2.7269 -1.2397 -0.1533
  967MOL0     H27637   8.490   5.200  10.207 -4.9499 -2.3362  1.6073
  967MOL0     H27638   8.711   5.111  10.348  0.6934 -0.9596 -0.2808
  967MOL0     H27639   8.714   5.232  10.217  0.8093  0.7915  1.0031
  967MOL0     H27640   8.775   5.030  10.054  2.7978 -1.9215 -0.5326
  967MOL0     H27641   8.886   5.055  10.187  0.5389 -0.3251  0.1535
  967MOL0     H27642   8.754   4.692  10.311  0.9979  0.3755  2.4499
  967MOL0     H27643   8.147   5.089  10.407 -1.6613  0.5617 -2.5806
  967MOL0     H27644   8.006   4.946  10.538  1.0081  1.4788  0.1925
  968MOL0     O27645   2.964   6.971   1.414  0.0253  1.8202  1.0860
  968MOL0     C27646   2.997   6.860   1.456 -0.0083  0.4927 -0.4225
  968MOL0     O27647   2.910   6.756   1.498  0.3507  0.3078 -0.8639
  968MOL0     C27648   2.767   6.758   1.499  0.1888  0.4335 -0.8183
  968MOL0     C27649   2.686   6.854   1.441  0.3058  0.5225  0.4785
  968MOL0     C27650   2.548   6.835   1.444 -0.6584  0.3587  0.2665
  968MOL0     C27651   2.490   6.730   1.512 -0.4927  0.2455  0.3683
  968MOL0     O27652   2.357   6.733   1.518 -0.1940  0.5516  0.3932
  968MOL0     C27653   2.312   6.818   1.628 -0.0933 -0.0174  0.2500
  968MOL0     C27654   2.161   6.797   1.645 -0.3084 -0.7433  0.3144
  968MOL0     C27655   2.064   6.825   1.527 -0.3769  0.3173 -0.1236
  968MOL0     C27656   1.917   6.791   1.557 -0.1379  0.7277 -0.5128
  968MOL0     C27657   1.896   6.674   1.646 -0.6266  0.9111  0.3348
  968MOL0     C27658   1.750   6.653   1.684  0.3148 -0.3263 -0.8706
  968MOL0     C27659   1.707   6.524   1.746  0.4506  0.8553  0.0130
  968MOL0     C27660   1.573   6.519   1.824  0.8678 -1.0104 -0.1413
  968MOL0     N27661   1.457   6.498   1.738  0.4976  0.1351 -0.4022
  968MOL0     C27662   1.334   6.565   1.759 -0.1328  0.2089  0.0039
  968MOL0     C27663   1.238   6.470   1.725 -0.3292  0.4205  0.1510
  968MOL0     C27664   1.092   6.479   1.748 -0.0508 -0.2701  0.6235
  968MOL0     C27665   1.058   6.468   1.901  0.6247  0.0454  0.4765
  968MOL0     C27666   1.027   6.313   1.918 -0.2008  0.0396  0.3189
  968MOL0     C27667   0.994   6.276   2.065  0.3615 -0.0270  0.4802
  968MOL0     O27668   0.886   6.343   2.125  0.0647 -0.7637 -0.5234
  968MOL0     C27669   0.759   6.287   2.107 -0.1678 -0.1711 -0.2629
  968MOL0     C27670   0.713   6.191   2.019 -0.1146  0.1169 -0.1142
  968MOL0     C27671   0.577   6.150   2.024  0.3207 -0.4631  0.2537
  968MOL0     C27672   0.487   6.214   2.106  0.5678 -0.4381 -0.1923
  968MOL0     C27673   0.341   6.175   2.096 -0.9706  0.7708  0.0985
  968MOL0     O27674   0.304   6.096   1.993  0.2083 -0.1358 -0.2624
  968MOL0     C27675   0.175   6.044   2.000  0.5020  0.5405  0.4792
  968MOL0     C27676   0.154   5.945   2.092 -0.8612  0.3131  0.8988
  968MOL0     C27677   0.038   5.868   2.083 -0.9125 -0.6978 -0.2502
  968MOL0     C27678  -0.065   5.898   1.995 -0.4660  0.0190 -0.3575
  968MOL0     O27679  -0.187   5.833   1.997 -0.4772  0.7349  0.4800
  968MOL0     C27680  -0.195   5.712   2.081 -0.1227 -0.7709 -0.0361
  968MOL0     C27681  -0.341   5.675   2.114 -0.0603 -0.1328 -0.3279
  968MOL0     C27682  -0.430   5.654   1.997  0.3511 -0.7964  0.5173
  968MOL0     C27683  -0.576   5.620   2.039 -0.4185  0.0582 -0.3461
  968MOL0     C27684  -0.638   5.737   2.111  0.5139 -0.5324  0.3883
  968MOL0     C27685  -0.653   5.860   2.013  0.0560  0.4331 -0.2736
  968MOL0     C27686  -0.755   5.952   2.072 -0.5615 -0.5069  0.0270
  968MOL0     C27687  -0.743   6.094   2.005 -1.0157  1.0782  0.3011
  968MOL0    Cl27688  -0.881   6.181   2.060 -0.0398  0.1115 -0.1104
  968MOL0     C27689  -0.044   5.995   1.900  0.0896  0.0001  0.4220
  968MOL0     C27690   0.085   6.059   1.898 -0.1068  0.7027  0.3921
  968MOL0     O27691   0.274   6.217   2.186  0.4261  0.0780 -0.1087
  968MOL0     C27692   0.530   6.306   2.189 -0.0311  0.0028  0.4436
  968MOL0     C27693   0.666   6.347   2.188  0.5078 -0.6274 -0.2290
  968MOL0     N27694   1.305   6.364   1.670  0.2135  0.5514 -0.7440
  968MOL0     N27695   1.434   6.376   1.696  0.4755 -0.1493  0.6924
  968MOL0     C27696   2.568   6.633   1.583  0.9605 -0.6193 -0.2386
  968MOL0     C27697   2.703   6.659   1.573 -0.0823  0.2054 -0.0066
  968MOL0     C27698   3.140   6.836   1.470 -0.0257 -0.8772  0.0514
  968MOL0     C27699   3.233   6.924   1.411 -1.1589 -0.1991 -0.8259
  968MOL0     C27700   3.368   6.907   1.430 -0.8881  0.1790  0.7193
  968MOL0     C27701   3.418   6.798   1.508  0.2801  0.4759 -0.1535
  968MOL0     O27702   3.551   6.754   1.526 -0.4507  0.0507  0.0916
  968MOL0     C27703   3.657   6.856   1.519 -0.0690 -0.0908 -0.8758
  968MOL0     C27704   3.733   6.851   1.387 -0.3134 -0.0902  0.4369
  968MOL0     C27705   3.729   6.709   1.329 -0.3701  0.1429 -0.1897
  968MOL0     C27706   3.802   6.609   1.411  0.4143  0.4333 -1.0287
  968MOL0     C27707   3.944   6.632   1.415 -0.2989 -0.2835  0.0638
  968MOL0     C27708   4.068   6.643   1.412 -0.0188 -0.3608 -0.2212
  968MOL0     C27709   3.324   6.705   1.561 -0.5605 -0.4258 -0.1244
  968MOL0     C27710   3.188   6.721   1.535 -0.0185  0.2029 -0.4098
  968MOL0     H27711   2.739   6.927   1.381  3.9860 -2.2966 -0.1251
  968MOL0     H27712   2.480   6.907   1.400  0.0525  0.3506 -0.8806
  968MOL0     H27713   2.329   6.926   1.614  2.0190 -0.5118 -1.5559
  968MOL0     H27714   2.370   6.782   1.713  2.3748  0.5835 -1.0779
  968MOL0     H27715   2.120   6.851   1.730  1.0091  2.8526 -1.1546
  968MOL0     H27716   2.155   6.689   1.663  0.1472 -0.9901 -0.9383
  968MOL0     H27717   2.088   6.778   1.430 -3.5330  0.5532 -1.1288
  968MOL0     H27718   2.056   6.933   1.512 -0.2552  0.1515 -1.5150
  968MOL0     H27719   1.870   6.883   1.594  0.8615 -0.1155  3.3194
  968MOL0     H27720   1.871   6.765   1.461 -1.7062 -4.4345  1.2835
  968MOL0     H27721   1.948   6.682   1.742 -2.1085 -2.6254  1.5659
  968MOL0     H27722   1.922   6.581   1.596 -0.7343  0.4714  1.0835
  968MOL0     H27723   1.684   6.679   1.601 -0.8731  1.1284  0.4595
  968MOL0     H27724   1.733   6.733   1.758 -1.2653 -1.5141  0.1070
  968MOL0     H27725   1.705   6.441   1.674 -2.3462  1.2487 -0.4904
  968MOL0     H27726   1.794   6.506   1.809 -0.9991  2.0119  2.5219
  968MOL0     H27727   1.560   6.620   1.866  0.8671 -1.8495  1.9954
  968MOL0     H27728   1.581   6.446   1.904  1.5293 -0.8738 -0.0742
  968MOL0     H27729   1.319   6.664   1.801 -3.3210 -0.5540  0.9355
  968MOL0     H27730   1.040   6.411   1.679  1.1957 -0.8216  0.2032
  968MOL0     H27731   1.069   6.582   1.719 -0.5271  0.2475  2.6379
  968MOL0     H27732   0.963   6.517   1.922  0.8332  0.6188  0.1040
  968MOL0     H27733   1.128   6.507   1.976 -1.6597  0.9839  2.2529
  968MOL0     H27734   0.930   6.289   1.874 -0.4026 -0.0295  0.7955
  968MOL0     H27735   1.109   6.253   1.878 -1.4380  0.5062 -3.2056
  968MOL0     H27736   1.078   6.297   2.132  0.3533  1.0739  0.1663
  968MOL0     H27737   0.981   6.168   2.075  0.3131 -0.1097 -0.4130
  968MOL0     H27738   0.777   6.141   1.946 -0.3526 -2.0926  1.0913
  968MOL0     H27739   0.547   6.071   1.957  2.2088  1.1290 -2.6609
  968MOL0     H27740   0.234   5.912   2.157  2.3358  0.7865 -2.4777
  968MOL0     H27741   0.047   5.802   2.169 -1.1795  2.7794  2.6675
  968MOL0     H27742  -0.158   5.736   2.181  2.2929 -0.3472 -0.9516
  968MOL0     H27743  -0.143   5.627   2.037 -4.6297 -3.1937 -1.2429
  968MOL0     H27744  -0.382   5.751   2.180 -3.1006 -1.9269  0.0402
  968MOL0     H27745  -0.336   5.585   2.176  2.4633  0.8888  1.1308
  968MOL0     H27746  -0.404   5.561   1.945 -1.3274 -0.9077 -0.1741
  968MOL0     H27747  -0.414   5.731   1.922 -0.4127 -2.5260 -1.5159
  968MOL0     H27748  -0.636   5.602   1.950 -0.3381  3.4981 -1.2538
  968MOL0     H27749  -0.582   5.534   2.106  1.0066  0.5083  0.4075
  968MOL0     H27750  -0.585   5.767   2.202 -0.6402 -1.2937  1.3343
  968MOL0     H27751  -0.737   5.711   2.148 -0.2239 -0.2635 -1.3220
  968MOL0     H27752  -0.686   5.818   1.918  2.5691 -0.6749 -0.7571
  968MOL0     H27753  -0.558   5.914   2.001  0.6679 -0.7001 -0.6878
  968MOL0     H27754  -0.854   5.909   2.054 -0.6512 -0.5226  0.5172
  968MOL0     H27755  -0.740   5.954   2.181 -1.2424 -1.8270  0.1672
  968MOL0     H27756  -0.745   6.090   1.895 -0.8320 -0.9316  0.3297
  968MOL0     H27757  -0.647   6.140   2.029 -1.9827  2.6710  1.2942
  968MOL0     H27758  -0.124   6.020   1.831  0.3038  0.1790  0.2393
  968MOL0     H27759   0.130   6.118   1.819  3.3556 -1.8335  0.2217
  968MOL0     H27760   0.470   6.361   2.261  1.4946 -0.0842  1.8392
  968MOL0     H27761   0.698   6.424   2.257  1.2916  0.1158 -1.3783
  968MOL0     H27762   2.527   6.559   1.650  2.8728 -0.0654  1.6344
  968MOL0     H27763   2.779   6.592   1.612  0.4715  0.1375 -1.1496
  968MOL0     H27764   3.203   7.012   1.354  0.4523  1.9293  1.3758
  968MOL0     H27765   3.453   6.960   1.388 -0.2107 -0.8191  0.7811
  968MOL0     H27766   3.723   6.836   1.604 -0.2050  3.0081  0.0995
  968MOL0     H27767   3.630   6.962   1.520  1.4570  0.4055  2.2967
  968MOL0     H27768   3.685   6.922   1.319  1.4330  1.5265  0.7658
  968MOL0     H27769   3.837   6.884   1.403 -0.5320  0.3653  0.9416
  968MOL0     H27770   3.762   6.723   1.225 -0.0125 -0.8693 -0.2186
  968MOL0     H27771   3.620   6.698   1.317 -1.0727  5.0667 -0.6489
  968MOL0     H27772   3.757   6.606   1.510 -0.3942  1.5771 -1.3359
  968MOL0     H27773   3.782   6.509   1.371 -0.0128  0.8797 -1.9711
  968MOL0     H27774   4.173   6.662   1.405  0.0191 -0.4066  0.1825
  968MOL0     H27775   3.363   6.631   1.631 -2.2988  0.9966  2.5300
  968MOL0     H27776   3.114   6.646   1.561 -1.6698  2.2322  1.0780
  969MOL0     O27777   9.727  10.568   8.061 -0.2262 -0.2719  0.0056
  969MOL0     C27778   9.778  10.669   8.093  0.0050 -1.0053 -0.9707
  969MOL0     O27779   9.735  10.747   8.201  0.1415  0.3294  0.1331
  969MOL0     C27780   9.610  10.727   8.258  0.2826  0.4045 -0.1170
  969MOL0     C27781   9.599  10.745   8.396  0.2968  0.9817  0.5972
  969MOL0     C27782   9.481  10.720   8.456  0.3497  0.1966  0.5964
  969MOL0     C27783   9.363  10.693   8.374 -0.4594 -0.1545 -0.3734
  969MOL0     O27784   9.235  10.667   8.410  0.4919 -0.0636 -0.5792
  969MOL0     C27785   9.210  10.612   8.536 -0.8507 -0.4344  0.1213
  969MOL0     C27786   9.074  10.561   8.535  0.1363 -0.0415  0.8436
  969MOL0     C27787   8.975  10.679   8.505 -0.0713 -0.2076  0.4311
  969MOL0     C27788   8.840  10.619   8.513 -0.5526  0.1463 -0.6295
  969MOL0     C27789   8.735  10.728   8.517  0.3900 -0.2846  0.3134
  969MOL0     C27790   8.602  10.662   8.548 -0.3317 -0.8303 -0.2618
  969MOL0     C27791   8.482  10.761   8.533  0.3677  0.8305  0.8255
  969MOL0     C27792   8.496  10.891   8.610 -0.2259 -0.1561 -0.0010
  969MOL0     N27793   8.534  10.869   8.750  0.2253 -0.3635  0.1825
  969MOL0     C27794   8.476  10.801   8.855 -0.2594  0.5070  0.2216
  969MOL0     C27795   8.560  10.805   8.958 -0.3218  0.4236 -1.2251
  969MOL0     C27796   8.531  10.753   9.100  0.2313 -0.3203  0.1314
  969MOL0     C27797   8.488  10.865   9.197 -0.8070  0.2631  0.0177
  969MOL0     C27798   8.346  10.930   9.177 -0.3051  0.0198  0.0060
  969MOL0     C27799   8.359  11.081   9.138 -0.2959 -0.1959  0.9216
  969MOL0     O27800   8.347  11.100   8.994  0.0904  0.0908 -0.4802
  969MOL0     C27801   8.233  11.114   8.924 -0.8913 -0.2895 -0.1885
  969MOL0     C27802   8.241  11.120   8.790 -0.4735 -0.0296  0.3365
  969MOL0     C27803   8.124  11.129   8.709  0.4145  0.7330  0.5057
  969MOL0     C27804   7.997  11.138   8.771 -0.2408 -0.0462 -0.5154
  969MOL0     C27805   7.863  11.135   8.704 -0.3405  0.5397 -0.5581
  969MOL0     O27806   7.750  11.160   8.779  0.4823 -0.3591  0.1929
  969MOL0     C27807   7.624  11.184   8.722 -0.5552  0.3377 -0.4372
  969MOL0     C27808   7.516  11.162   8.815 -0.6252  0.9773  0.7907
  969MOL0     C27809   7.383  11.167   8.773  0.1621 -0.3216  0.0881
  969MOL0     C27810   7.351  11.212   8.652 -0.0842  0.8830  0.3091
  969MOL0     O27811   7.226  11.224   8.592 -0.9295  0.4221 -0.2402
  969MOL0     C27812   7.112  11.228   8.672  0.0307  0.6276  1.0567
  969MOL0     C27813   6.996  11.210   8.568  0.7753  0.4464  0.0315
  969MOL0     C27814   6.855  11.192   8.630  0.0486  0.5649  0.2338
  969MOL0     C27815   6.752  11.157   8.513 -0.3231 -0.0769  0.6579
  969MOL0     C27816   6.607  11.149   8.563  0.0532  0.0875 -0.4476
  969MOL0     C27817   6.508  11.101   8.459 -0.0514  0.1038 -0.6858
  969MOL0     C27818   6.463  11.209   8.352 -0.3193 -0.0516 -0.4947
  969MOL0     C27819   6.388  11.324   8.425 -0.4632  0.2973  0.1495
  969MOL0    Cl27820   6.349  11.445   8.303 -0.0431 -0.3041 -0.1977
  969MOL0     C27821   7.462  11.248   8.566 -0.1373  0.4579  0.9278
  969MOL0     C27822   7.600  11.230   8.593  0.4888 -0.3470 -0.2467
  969MOL0     O27823   7.867  11.125   8.576  0.3415 -0.1350  0.7536
  969MOL0     C27824   7.994  11.125   8.906 -0.1083 -0.5163 -0.2617
  969MOL0     C27825   8.104  11.123   8.981 -1.1231  1.0214 -0.4976
  969MOL0     N27826   8.664  10.880   8.917  1.0455  0.5198 -0.1390
  969MOL0     N27827   8.654  10.922   8.798 -0.6996  0.0996  0.3974
  969MOL0     C27828   9.371  10.702   8.235 -0.1710 -0.2148 -0.0895
  969MOL0     C27829   9.499  10.709   8.169  0.4441  0.4820  0.0790
  969MOL0     C27830   9.902  10.707   8.024 -0.4403  0.6695 -0.0389
  969MOL0     C27831   9.933  10.649   7.902  0.5605 -0.5307  0.3285
  969MOL0     C27832  10.052  10.679   7.839 -0.6960  0.2536  0.2376
  969MOL0     C27833  10.150  10.755   7.901  0.1863 -0.2032 -0.3043
  969MOL0     O27834  10.261  10.774   7.821  0.3736  0.3116  0.1471
  969MOL0     C27835  10.380  10.822   7.880  0.1476 -0.0346  0.0983
  969MOL0     C27836  10.485  10.803   7.778 -0.2413 -0.2172  0.4514
  969MOL0     C27837  10.483  10.904   7.658 -0.5643  0.3327 -1.0553
  969MOL0     C27838  10.592  10.872   7.555  0.3879 -0.3714  0.7248
  969MOL0     C27839  10.723  10.896   7.602 -0.1800 -0.2237  0.3760
  969MOL0     C27840  10.825  10.946   7.654  0.7100 -0.3536  0.2296
  969MOL0     C27841  10.112  10.825   8.014 -0.4290 -0.5242 -0.9531
  969MOL0     C27842   9.983  10.814   8.073  0.5612 -0.3016  0.2150
  969MOL0     H27843   9.677  10.775   8.466 -0.8929  2.1500  1.4906
  969MOL0     H27844   9.470  10.722   8.564 -3.4323 -1.5531  0.4175
  969MOL0     H27845   9.206  10.689   8.614 -1.0360 -0.5410  0.2176
  969MOL0     H27846   9.270  10.526   8.568 -3.1533 -1.6596  1.3505
  969MOL0     H27847   9.054  10.517   8.633 -0.1988 -0.9211  0.3947
  969MOL0     H27848   9.061  10.485   8.457  0.7684  3.0845 -2.5641
  969MOL0     H27849   8.980  10.721   8.404 -3.2509 -0.9745 -0.1429
  969MOL0     H27850   8.995  10.761   8.573 -3.1252  2.6313 -1.7534
  969MOL0     H27851   8.827  10.550   8.429  1.7209  0.9277 -1.6963
  969MOL0     H27852   8.840  10.568   8.610  0.0996  3.3065  1.1472
  969MOL0     H27853   8.728  10.775   8.419  1.8084 -0.3174  0.1778
  969MOL0     H27854   8.769  10.808   8.583 -0.0618  1.4249 -1.4235
  969MOL0     H27855   8.605  10.626   8.652 -2.1253 -1.1581 -0.2826
  969MOL0     H27856   8.591  10.568   8.493 -1.9773 -1.1022  0.4608
  969MOL0     H27857   8.477  10.769   8.424 -1.3936 -3.8423  0.3413
  969MOL0     H27858   8.392  10.705   8.559  1.5192 -1.5931 -0.0722
  969MOL0     H27859   8.402  10.948   8.606 -0.0562  0.1354  0.1585
  969MOL0     H27860   8.574  10.947   8.559  0.5135 -0.8106  0.3964
  969MOL0     H27861   8.386  10.741   8.845  0.3088 -0.2966 -0.1304
  969MOL0     H27862   8.625  10.717   9.144  2.0949  2.0148 -1.6621
  969MOL0     H27863   8.453  10.676   9.100 -0.9331  0.7280  3.0578
  969MOL0     H27864   8.570  10.936   9.210 -0.3938 -0.2547  0.3130
  969MOL0     H27865   8.487  10.817   9.296  0.8321 -0.2772 -0.1971
  969MOL0     H27866   8.284  10.875   9.106  1.3976 -2.1290  0.0685
  969MOL0     H27867   8.299  10.920   9.276  1.6142  0.3029  0.9930
  969MOL0     H27868   8.459  11.112   9.169 -0.0024 -1.8405  1.6955
  969MOL0     H27869   8.294  11.140   9.203  0.7754  2.3706 -0.1662
  969MOL0     H27870   8.336  11.148   8.746  0.4991 -1.2256  1.6018
  969MOL0     H27871   8.141  11.134   8.602 -0.0325 -0.7971  0.3427
  969MOL0     H27872   7.539  11.113   8.909 -0.6965 -1.4354 -0.3680
  969MOL0     H27873   7.313  11.124   8.844  1.2166 -2.7441 -0.2721
  969MOL0     H27874   7.102  11.328   8.714  0.1448  1.4005 -0.6978
  969MOL0     H27875   7.102  11.149   8.748  0.6788  1.7049  2.2999
  969MOL0     H27876   7.017  11.117   8.513 -0.0797  0.1109  0.2598
  969MOL0     H27877   6.996  11.284   8.488  0.4105 -1.4152 -1.7703
  969MOL0     H27878   6.831  11.289   8.674  1.4718  0.7283  0.7277
  969MOL0     H27879   6.850  11.124   8.716 -2.2185 -1.1482 -1.1298
  969MOL0     H27880   6.756  11.224   8.426 -0.8501 -1.7652 -0.7316
  969MOL0     H27881   6.776  11.060   8.469  1.5846  1.4647 -2.0199
  969MOL0     H27882   6.587  11.250   8.601  0.8090  0.2942 -0.5802
  969MOL0     H27883   6.604  11.091   8.655 -0.7578 -0.0186 -0.5380
  969MOL0     H27884   6.428  11.055   8.519  0.2053 -0.9642 -1.1497
  969MOL0     H27885   6.550  11.020   8.399  0.4186 -0.1653 -0.0055
  969MOL0     H27886   6.531  11.245   8.274  1.4309  0.8286  1.3426
  969MOL0     H27887   6.396  11.160   8.281  0.2447  0.1708 -1.1893
  969MOL0     H27888   6.449  11.386   8.491 -0.0912 -1.5962  1.6675
  969MOL0     H27889   6.301  11.284   8.478 -1.3366  1.2807 -0.5078
  969MOL0     H27890   7.438  11.278   8.464  3.1086 -0.9347 -0.4125
  969MOL0     H27891   7.667  11.260   8.513  0.5843  1.1996  0.3699
  969MOL0     H27892   7.898  11.134   8.957  0.7679  0.2331  1.3436
  969MOL0     H27893   8.085  11.124   9.088 -2.1051  1.1482 -0.6614
  969MOL0     H27894   9.288  10.691   8.166  1.7764 -2.7375 -2.2767
  969MOL0     H27895   9.495  10.702   8.061 -2.8230 -4.3677  0.2163
  969MOL0     H27896   9.864  10.579   7.855  1.3066 -2.3451  1.8107
  969MOL0     H27897  10.078  10.645   7.739 -0.0094  3.4657 -0.8146
  969MOL0     H27898  10.409  10.765   7.969 -1.2594 -0.8084  0.0753
  969MOL0     H27899  10.367  10.927   7.908  1.1764  0.2027 -0.2380
  969MOL0     H27900  10.587  10.813   7.817  0.8821 -0.8473 -2.0706
  969MOL0     H27901  10.486  10.703   7.734  1.2123  0.1643 -0.4732
  969MOL0     H27902  10.509  11.000   7.704  2.4904 -0.3703 -1.1099
  969MOL0     H27903  10.390  10.906   7.601 -1.7843  0.4170  0.8529
  969MOL0     H27904  10.582  10.765   7.535  1.0787 -0.6314  1.7071
  969MOL0     H27905  10.569  10.929   7.465 -0.7138 -0.6393  0.8232
  969MOL0     H27906  10.900  11.010   7.696 -0.9861  1.9839 -0.1228
  969MOL0     H27907  10.181  10.895   8.059 -0.3388 -2.5121  2.3268
  969MOL0     H27908   9.954  10.869   8.162 -1.4359  3.0941 -2.3061
  970MOL0     O27909   6.305  10.813   9.804  0.6398 -0.2604 -0.0398
  970MOL0     C27910   6.331  10.823   9.928 -0.4668 -0.6437  0.2733
  970MOL0     O27911   6.244  10.807  10.026  0.6436 -0.4641 -0.6551
  970MOL0     C27912   6.129  10.735   9.989 -1.0439  0.2288 -0.3206
  970MOL0     C27913   6.129  10.595  10.019  1.0029 -0.5632 -0.3040
  970MOL0     C27914   6.022  10.524   9.979 -0.3510  0.2799  1.0121
  970MOL0     C27915   5.913  10.583   9.911  0.1728 -0.4742  1.0450
  970MOL0     O27916   5.794  10.529   9.861 -0.4723  0.5251  0.1816
  970MOL0     C27917   5.789  10.391   9.864  0.0026  0.2650 -0.8163
  970MOL0     C27918   5.651  10.356   9.803  0.2377  0.4954  0.0066
  970MOL0     C27919   5.621  10.202   9.793 -0.9735 -0.1346 -0.3840
  970MOL0     C27920   5.500  10.172   9.710  0.0395  0.2048  0.0787
  970MOL0     C27921   5.490  10.023   9.670 -0.6989  0.7862  0.5001
  970MOL0     C27922   5.364  10.002   9.591  0.1934 -0.5641 -0.2782
  970MOL0     C27923   5.369  10.042   9.447 -1.1986 -0.8494 -0.0241
  970MOL0     C27924   5.433   9.932   9.357 -0.2391  0.2266  0.0224
  970MOL0     N27925   5.356   9.807   9.351  0.2344  0.3553 -0.3191
  970MOL0     C27926   5.221   9.789   9.327 -0.4207 -0.4511 -0.6276
  970MOL0     C27927   5.206   9.674   9.257  0.4948 -0.2734 -0.3276
  970MOL0     C27928   5.080   9.613   9.219  0.0968 -0.1934  0.7940
  970MOL0     C27929   4.955   9.683   9.262  0.1432  1.0554  0.2761
  970MOL0     C27930   4.842   9.589   9.243  0.5626  0.9354 -0.4471
  970MOL0     C27931   4.706   9.617   9.312 -0.0048  0.2285 -0.4961
  970MOL0     O27932   4.604   9.518   9.264  0.2380 -0.5153  0.5235
  970MOL0     C27933   4.490   9.510   9.336  0.2197  0.2984  0.7946
  970MOL0     C27934   4.445   9.394   9.407  0.4275  0.1736 -0.0775
  970MOL0     C27935   4.325   9.399   9.482 -0.5613  0.3223 -0.3258
  970MOL0     C27936   4.245   9.514   9.488 -0.4049 -0.9012 -0.4284
  970MOL0     C27937   4.123   9.523   9.565  0.4393 -0.0683 -0.1094
  970MOL0     O27938   4.052   9.651   9.579 -0.2709 -0.4686  0.1522
  970MOL0     C27939   3.943   9.663   9.668  0.3710 -0.8449 -0.6123
  970MOL0     C27940   3.957   9.614   9.796  1.1362  0.3832  0.3562
  970MOL0     C27941   3.850   9.637   9.885  0.0753  0.2077 -0.7210
  970MOL0     C27942   3.727   9.695   9.839  0.8826 -0.4222 -0.4770
  970MOL0     O27943   3.626   9.700   9.927 -0.5495 -0.4222 -0.8721
  970MOL0     C27944   3.491   9.670   9.885 -0.2670 -0.7317  0.3037
  970MOL0     C27945   3.411   9.594   9.992  0.2728 -0.3084 -0.2844
  970MOL0     C27946   3.335   9.677  10.101 -1.1414  0.9537 -0.2804
  970MOL0     C27947   3.320   9.592  10.233 -0.8858 -0.1415 -0.1869
  970MOL0     C27948   3.209   9.644  10.318 -0.1500  0.4000 -0.1676
  970MOL0     C27949   3.184   9.582  10.449  0.4217  0.1445 -0.4231
  970MOL0     C27950   3.113   9.441  10.451  0.2109 -0.4431 -0.4268
  970MOL0     C27951   3.077   9.398  10.597 -0.1421  0.0421 -0.0012
  970MOL0    Cl27952   2.941   9.483  10.656 -0.8062  0.4808 -0.4135
  970MOL0     C27953   3.720   9.747   9.708 -0.0569  0.8662 -0.3209
  970MOL0     C27954   3.829   9.724   9.626 -0.3337 -0.1301  0.2853
  970MOL0     O27955   4.097   9.420   9.625  0.0527  0.2358  0.5525
  970MOL0     C27956   4.294   9.627   9.414  0.7603  0.7227  1.2618
  970MOL0     C27957   4.416   9.626   9.350 -0.4471 -0.0121 -0.4953
  970MOL0     N27958   5.329   9.617   9.242 -0.3553  0.5022 -0.2113
  970MOL0     N27959   5.417   9.690   9.304 -0.3186  0.2108  0.1929
  970MOL0     C27960   5.916  10.724   9.889 -0.0039  0.6387  0.5075
  970MOL0     C27961   6.025  10.797   9.929 -0.0085 -0.5336 -0.2087
  970MOL0     C27962   6.471  10.833   9.975  0.1172  0.5474 -0.7027
  970MOL0     C27963   6.494  10.848  10.117 -0.8110 -0.0728  0.3929
  970MOL0     C27964   6.624  10.892  10.161 -0.4451 -0.7078  0.0829
  970MOL0     C27965   6.734  10.895  10.065  0.3158  0.4732 -0.3564
  970MOL0     O27966   6.856  10.922  10.122 -0.6060 -0.2043 -0.1714
  970MOL0     C27967   6.963  10.948  10.031 -0.0208 -0.0524 -0.4771
  970MOL0     C27968   7.090  10.990  10.101  1.1005  0.3969  0.7852
  970MOL0     C27969   7.205  11.040  10.003 -0.5131 -0.3351 -0.4034
  970MOL0     C27970   7.345  11.074  10.064 -0.1697 -1.2220  0.0369
  970MOL0     C27971   7.349  11.121  10.204 -0.3490 -0.0805  0.2980
  970MOL0     C27972   7.354  11.143  10.323  0.4576 -0.0775 -0.1844
  970MOL0     C27973   6.713  10.863   9.931  0.7791 -0.0851  0.4436
  970MOL0     C27974   6.585  10.835   9.887  0.7082  0.0921  0.6788
  970MOL0     H27975   6.203  10.537  10.073 -0.0272 -2.0815 -0.4423
  970MOL0     H27976   6.037  10.417   9.978  1.9912  0.5382 -0.2984
  970MOL0     H27977   5.798  10.356   9.968 -0.1065  1.0191 -0.5441
  970MOL0     H27978   5.874  10.352   9.808 -1.7358 -2.1938 -1.9696
  970MOL0     H27979   5.638  10.389   9.699 -1.6317  0.6377  0.2371
  970MOL0     H27980   5.577  10.409   9.864  3.1570  0.8409  3.5264
  970MOL0     H27981   5.621  10.162   9.895  0.4423 -0.0501 -0.3327
  970MOL0     H27982   5.705  10.153   9.743  0.4981  1.1260  0.7464
  970MOL0     H27983   5.413  10.213   9.761  1.9345  2.4697  1.7001
  970MOL0     H27984   5.515  10.224   9.615 -1.6321  0.1606 -0.2306
  970MOL0     H27985   5.488   9.974   9.768 -0.9646  0.0166  0.1198
  970MOL0     H27986   5.574   9.979   9.616 -2.3176 -2.1805  0.2054
  970MOL0     H27987   5.284  10.050   9.647  1.8104  0.1072  1.5954
  970MOL0     H27988   5.335   9.898   9.608  0.9729 -1.0746 -1.8363
  970MOL0     H27989   5.266  10.052   9.413 -1.1309  0.4361  0.1206
  970MOL0     H27990   5.418  10.139   9.436  0.0794 -1.1632  2.2445
  970MOL0     H27991   5.536   9.920   9.392  0.1593 -1.3421 -1.5387
  970MOL0     H27992   5.433   9.981   9.259 -2.2270 -1.0989 -0.7159
  970MOL0     H27993   5.152   9.865   9.362  0.1359 -1.3738  2.9130
  970MOL0     H27994   5.080   9.510   9.257  2.2034 -1.5090 -2.3639
  970MOL0     H27995   5.079   9.596   9.111 -2.9321 -0.8655  0.8611
  970MOL0     H27996   4.941   9.778   9.210 -1.5959 -0.2208 -1.7538
  970MOL0     H27997   4.957   9.703   9.370 -1.6413 -0.5004  0.6581
  970MOL0     H27998   4.826   9.580   9.135 -0.6566  2.3614 -0.4269
  970MOL0     H27999   4.870   9.491   9.283 -0.0857  1.3058  0.9783
  970MOL0     H28000   4.670   9.720   9.303 -1.2207 -0.2043 -0.8121
  970MOL0     H28001   4.731   9.602   9.417  1.3601  1.9903 -0.5227
  970MOL0     H28002   4.506   9.304   9.401 -0.5852 -0.4848 -1.1704
  970MOL0     H28003   4.295   9.311   9.540 -0.3315  0.2646 -0.2920
  970MOL0     H28004   4.047   9.560   9.824  1.5326 -0.1062 -1.7267
  970MOL0     H28005   3.858   9.605   9.988 -0.9915  1.9483 -0.0424
  970MOL0     H28006   3.488   9.600   9.801 -2.9110 -2.6916  1.8456
  970MOL0     H28007   3.426   9.755   9.865 -1.2657 -2.1106 -3.0404
  970MOL0     H28008   3.486   9.534  10.045  0.0065  0.1486  0.6195
  970MOL0     H28009   3.332   9.537   9.943  0.1512 -0.1695 -0.2481
  970MOL0     H28010   3.241   9.719  10.063 -2.4043 -0.3764  1.1913
  970MOL0     H28011   3.401   9.757  10.133  0.9029 -1.0197  0.7450
  970MOL0     H28012   3.296   9.487  10.212 -2.1908  0.1094 -0.0528
  970MOL0     H28013   3.418   9.596  10.280 -0.5948 -1.6409 -0.6048
  970MOL0     H28014   3.117   9.636  10.259  0.3987  2.4212 -1.3895
  970MOL0     H28015   3.231   9.749  10.337  0.9819 -0.0692  1.3533
  970MOL0     H28016   3.111   9.650  10.495  0.7741 -2.3414  4.4639
  970MOL0     H28017   3.270   9.590  10.516 -1.3180 -1.3870  2.1955
  970MOL0     H28018   3.024   9.443  10.388 -0.0673 -2.6050 -0.1605
  970MOL0     H28019   3.183   9.369  10.409  0.6602 -0.6373  0.6207
  970MOL0     H28020   3.168   9.420  10.653 -0.8287  1.2562  0.6857
  970MOL0     H28021   3.047   9.292  10.593 -1.9968  0.5601 -2.1633
  970MOL0     H28022   3.628   9.797   9.677 -1.8165 -1.6656  0.5127
  970MOL0     H28023   3.819   9.758   9.523 -0.8245  1.1317  0.7315
  970MOL0     H28024   4.228   9.713   9.406 -0.6376 -0.4081 -0.1027
  970MOL0     H28025   4.441   9.722   9.307 -1.5907  0.1216 -0.9001
  970MOL0     H28026   5.822  10.757   9.846 -0.5914 -1.1764  0.3248
  970MOL0     H28027   6.018  10.900   9.893 -1.5536  0.3783  2.4023
  970MOL0     H28028   6.424  10.847  10.199 -0.1737  2.8417  1.0773
  970MOL0     H28029   6.639  10.899  10.268  0.0388  0.4861 -0.0545
  970MOL0     H28030   6.942  11.017   9.949  4.4744 -0.6207 -2.4069
  970MOL0     H28031   6.983  10.852   9.982  4.3447  0.5901 -0.3282
  970MOL0     H28032   7.062  11.076  10.164  1.1910  0.2759  0.9908
  970MOL0     H28033   7.125  10.910  10.167  1.3706  0.1736  0.3750
  970MOL0     H28034   7.179  11.142   9.971 -0.4756  0.5553  2.1808
  970MOL0     H28035   7.225  10.975   9.917  2.6370  1.6705 -1.3704
  970MOL0     H28036   7.412  10.988  10.056  2.3167  0.4272  1.6872
  970MOL0     H28037   7.396  11.149  10.003  0.6062 -1.5359  0.2800
  970MOL0     H28038   7.367  11.176  10.424  1.1927 -0.4140 -0.1637
  970MOL0     H28039   6.795  10.855   9.860 -0.0288 -3.4003 -0.2585
  970MOL0     H28040   6.570  10.810   9.782 -1.8655  1.9573  0.5029
  971MOL0     O28041   9.830  10.120   7.594 -0.7720 -0.3588  0.0458
  971MOL0     C28042   9.805   9.999   7.583  0.8188 -0.2291 -0.0282
  971MOL0     O28043   9.890   9.897   7.561 -0.2336  0.0430  0.0906
  971MOL0     C28044  10.019   9.932   7.525  0.2394 -0.6664  0.0976
  971MOL0     C28045  10.111   9.861   7.589 -1.0122  0.6079 -0.4260
  971MOL0     C28046  10.252   9.888   7.567 -0.2221  0.4134  0.1421
  971MOL0     C28047  10.292   9.985   7.468  0.1853  1.0116 -0.1638
  971MOL0     O28048  10.430   9.999   7.467 -0.1206 -0.0682 -0.1419
  971MOL0     C28049  10.487  10.039   7.340 -0.6518  0.0130  0.1170
  971MOL0     C28050  10.597  10.147   7.378  0.7025  0.5861 -0.0493
  971MOL0     C28051  10.714  10.089   7.457 -0.0303 -0.6453 -0.8256
  971MOL0     C28052  10.831  10.200   7.461 -0.1376 -0.0977 -0.7382
  971MOL0     C28053  10.960  10.126   7.506  0.7722  0.1567 -0.4965
  971MOL0     C28054  11.066  10.223   7.538 -0.0062  0.1552 -0.1043
  971MOL0     C28055  11.205  10.147   7.544 -0.6017  0.2485 -0.3064
  971MOL0     C28056  11.327  10.233   7.552 -0.1562 -0.0083 -0.2348
  971MOL0     N28057  11.365  10.287   7.682 -0.4254  0.8076  0.1434
  971MOL0     C28058  11.307  10.254   7.806 -0.3054 -0.7783 -0.1923
  971MOL0     C28059  11.404  10.296   7.898 -0.0509  0.5786  0.1876
  971MOL0     C28060  11.398  10.281   8.044 -0.7015 -0.5722  0.1040
  971MOL0     C28061  11.275  10.202   8.096  0.1265  0.0835  0.7778
  971MOL0     C28062  11.293  10.045   8.068 -0.3226  0.3973 -0.1817
  971MOL0     C28063  11.156   9.976   8.058  0.1406  0.0910  0.8294
  971MOL0     O28064  11.077  10.036   7.953  0.1607  0.6277  0.3799
  971MOL0     C28065  10.944  10.011   7.961 -0.3538 -0.1245  0.6675
  971MOL0     C28066  10.880   9.904   8.028 -0.2292 -0.1020  0.7209
  971MOL0     C28067  10.747   9.879   8.009  1.2146  0.1903  0.1256
  971MOL0     C28068  10.664   9.962   7.933  0.0155 -0.1616 -0.2384
  971MOL0     C28069  10.520   9.939   7.917  0.1093  0.7119  0.4472
  971MOL0     O28070  10.458   9.884   8.019  0.0758  0.3270  0.1264
  971MOL0     C28071  10.323   9.861   8.011 -0.3967 -0.0405  0.0837
  971MOL0     C28072  10.281   9.740   8.067 -0.0364 -0.7020 -0.3983
  971MOL0     C28073  10.146   9.695   8.061 -0.3630  0.8202  0.0198
  971MOL0     C28074  10.058   9.779   7.994  0.8756 -0.2871 -0.2115
  971MOL0     O28075   9.939   9.719   7.987  0.1220 -0.4933 -0.0555
  971MOL0     C28076   9.843   9.747   7.879 -0.2079 -0.1982 -0.1607
  971MOL0     C28077   9.741   9.645   7.862 -0.0027  0.0079 -0.1589
  971MOL0     C28078   9.612   9.682   7.943  0.0832  0.5059 -0.5087
  971MOL0     C28079   9.504   9.561   7.965 -0.0091 -0.7595  0.1618
  971MOL0     C28080   9.466   9.481   7.841 -0.0997  0.0106  0.1624
  971MOL0     C28081   9.393   9.354   7.889 -0.1979 -1.0423  0.6220
  971MOL0     C28082   9.305   9.287   7.782  0.2874  1.2575  0.1983
  971MOL0     C28083   9.393   9.207   7.686  0.3466 -0.1924  0.1143
  971MOL0    Cl28084   9.472   9.066   7.766 -0.6530  0.1568  0.2399
  971MOL0     C28085  10.097   9.904   7.939  0.7563 -0.5718  0.1702
  971MOL0     C28086  10.229   9.950   7.952 -0.4209  0.6290 -0.0610
  971MOL0     O28087  10.474   9.963   7.802 -0.3395 -0.3897 -0.3165
  971MOL0     C28088  10.725  10.069   7.860 -1.1920 -0.1499  0.5137
  971MOL0     C28089  10.864  10.090   7.876 -0.1668  0.0073 -0.3421
  971MOL0     N28090  11.506  10.368   7.827  0.8396  0.3983  0.1117
  971MOL0     N28091  11.481  10.356   7.704  0.4351 -0.4705 -0.2589
  971MOL0     C28092  10.192  10.050   7.389 -0.2611  0.8447 -1.0615
  971MOL0     C28093  10.058  10.024   7.428  1.1199  1.0479  0.9917
  971MOL0     C28094   9.660   9.965   7.619 -0.3413 -0.4325  1.8108
  971MOL0     C28095   9.595   9.841   7.585  0.0049 -0.0479  0.3599
  971MOL0     C28096   9.459   9.816   7.610 -0.1743  0.0328  0.2993
  971MOL0     C28097   9.387   9.900   7.694 -0.3470 -0.3445  0.1364
  971MOL0     O28098   9.258   9.893   7.743  0.3227 -0.2492  0.5074
  971MOL0     C28099   9.192   9.768   7.724  0.3357  0.6808  0.0317
  971MOL0     C28100   9.050   9.773   7.780 -0.6760  1.3132 -0.6489
  971MOL0     C28101   9.039   9.800   7.927 -0.1140 -0.3496  0.2866
  971MOL0     C28102   9.121   9.722   8.019  0.1336  0.6761  0.0024
  971MOL0     C28103   9.099   9.579   8.010 -1.5364 -0.4058  0.4003
  971MOL0     C28104   9.071   9.463   7.997 -0.2447  0.4971  0.4845
  971MOL0     C28105   9.447  10.024   7.710 -0.7013 -0.0555 -0.2610
  971MOL0     C28106   9.577  10.057   7.681 -0.5152  0.3201  0.3825
  971MOL0     H28107  10.078   9.791   7.666 -4.1210  0.8358 -1.4122
  971MOL0     H28108  10.328   9.849   7.635  1.1853  3.7453  0.6858
  971MOL0     H28109  10.427  10.085   7.260 -2.4591 -1.7315  0.4018
  971MOL0     H28110  10.534   9.956   7.287  0.5525  0.5866  0.2366
  971MOL0     H28111  10.554  10.232   7.431 -0.5020 -0.4326  0.6646
  971MOL0     H28112  10.640  10.182   7.284  1.5401 -0.7150 -0.1740
  971MOL0     H28113  10.747   9.994   7.414  1.5602 -0.2217 -0.6209
  971MOL0     H28114  10.681  10.078   7.561  0.2375 -0.7390 -0.7484
  971MOL0     H28115  10.848  10.245   7.363 -1.4077 -2.4984 -2.1616
  971MOL0     H28116  10.815  10.278   7.536  1.8734 -1.1591  0.8941
  971MOL0     H28117  10.993  10.055   7.429 -3.7720 -0.8621 -1.7763
  971MOL0     H28118  10.936  10.066   7.594  0.8593  0.4872 -0.2453
  971MOL0     H28119  11.046  10.274   7.632 -3.2520 -1.0176 -0.0364
  971MOL0     H28120  11.059  10.297   7.458  1.0225  0.0646 -0.2899
  971MOL0     H28121  11.205  10.067   7.618  2.2054  0.4518  0.0107
  971MOL0     H28122  11.207  10.097   7.446  0.3429  0.3162 -0.3303
  971MOL0     H28123  11.326  10.323   7.489 -0.8233 -0.0234 -0.2451
  971MOL0     H28124  11.416  10.176   7.522 -0.1717 -1.1060  1.6281
  971MOL0     H28125  11.214  10.201   7.826 -0.4858 -0.3939 -0.0014
  971MOL0     H28126  11.406  10.375   8.099 -0.2406 -2.2104  3.0039
  971MOL0     H28127  11.492  10.234   8.073  0.3724  1.6010  0.3476
  971MOL0     H28128  11.182  10.243   8.055 -1.1764 -1.6746  1.8324
  971MOL0     H28129  11.261  10.219   8.203 -0.1285 -0.5500  0.8473
  971MOL0     H28130  11.339  10.036   7.969  1.0478 -1.0100  0.5422
  971MOL0     H28131  11.357   9.999   8.144  0.5341  1.2709 -0.3533
  971MOL0     H28132  11.106   9.982   8.155 -1.2128  3.2142  0.0769
  971MOL0     H28133  11.183   9.873   8.036  2.9136  0.8579  0.3217
  971MOL0     H28134  10.933   9.844   8.101  0.2386 -3.1531 -1.9164
  971MOL0     H28135  10.702   9.799   8.067  1.9551  1.1281  2.0829
  971MOL0     H28136  10.359   9.684   8.118  1.5935  1.6010 -0.1956
  971MOL0     H28137  10.129   9.590   8.084  1.5460  0.2032 -1.1087
  971MOL0     H28138   9.899   9.750   7.786 -2.8281 -0.8215 -1.8731
  971MOL0     H28139   9.799   9.843   7.910 -0.9137  0.8144 -3.8793
  971MOL0     H28140   9.779   9.546   7.890  0.8972  0.1739 -0.7553
  971MOL0     H28141   9.712   9.615   7.761 -0.0825 -2.2502  0.4610
  971MOL0     H28142   9.568   9.756   7.875 -1.7499  0.4142  0.5142
  971MOL0     H28143   9.644   9.724   8.039  0.9509 -0.3341 -0.4227
  971MOL0     H28144   9.551   9.497   8.040 -3.4612 -1.3474  2.0237
  971MOL0     H28145   9.412   9.602   8.007  1.2935  3.0676 -0.3230
  971MOL0     H28146   9.556   9.452   7.785  1.4705  2.8176  1.0116
  971MOL0     H28147   9.406   9.534   7.766 -2.3736 -1.3889  0.9215
  971MOL0     H28148   9.329   9.383   7.973  1.0343  0.9356  0.9424
  971MOL0     H28149   9.468   9.280   7.919  2.2736  1.2320  0.4498
  971MOL0     H28150   9.233   9.222   7.832  1.3194 -0.6877 -0.7194
  971MOL0     H28151   9.245   9.357   7.723  1.3942  0.7796 -1.5525
  971MOL0     H28152   9.469   9.270   7.639 -1.8992  1.1442 -1.9646
  971MOL0     H28153   9.324   9.180   7.605  0.2589  2.5703 -0.8693
  971MOL0     H28154  10.027   9.970   7.888  0.8164  1.0073  2.0095
  971MOL0     H28155  10.245  10.050   7.912 -1.5733  0.3637 -1.2730
  971MOL0     H28156  10.668  10.123   7.785 -0.5789  0.4844  0.5042
  971MOL0     H28157  10.920  10.168   7.826  0.3378  2.4404  3.5427
  971MOL0     H28158  10.229  10.126   7.322  0.9833  1.6483  0.4766
  971MOL0     H28159   9.979  10.089   7.392  1.4267  3.6277  4.3367
  971MOL0     H28160   9.651   9.768   7.528 -0.5634 -0.7891  0.7270
  971MOL0     H28161   9.408   9.728   7.572  0.4186 -0.1800 -0.0158
  971MOL0     H28162   9.245   9.682   7.765 -2.5582 -0.9307  0.6470
  971MOL0     H28163   9.181   9.737   7.620  0.6389 -1.8741  0.6933
  971MOL0     H28164   8.984   9.836   7.719 -1.1632  1.6585  0.2147
  971MOL0     H28165   9.010   9.673   7.759  1.9679 -0.2282  1.0257
  971MOL0     H28166   8.934   9.778   7.949  0.2610  1.0049  4.1874
  971MOL0     H28167   9.049   9.908   7.941  0.4151 -0.0798 -1.8536
  971MOL0     H28168   9.226   9.751   8.022  0.0429  0.9371  1.2571
  971MOL0     H28169   9.105   9.755   8.123  0.7858  0.1062  0.2926
  971MOL0     H28170   9.048   9.358   7.988 -1.0997  0.6861  0.3784
  971MOL0     H28171   9.392  10.108   7.752  2.7939  1.5259  1.6127
  971MOL0     H28172   9.612  10.154   7.715  0.8124 -0.9241  2.8197
  972MOL0     O28173   1.234   2.282  10.361 -0.1382 -0.8189 -0.1667
  972MOL0     C28174   1.183   2.353  10.449 -0.0765  1.2823  0.1904
  972MOL0     O28175   1.252   2.416  10.546 -0.1953  0.0834 -0.6498
  972MOL0     C28176   1.384   2.389  10.554 -0.1566  0.3304  0.1561
  972MOL0     C28177   1.433   2.250  10.556  0.2321  0.5214  0.3239
  972MOL0     C28178   1.567   2.225  10.577  0.2021  0.0963 -0.0145
  972MOL0     C28179   1.655   2.328  10.622 -0.1093 -0.5290  0.1591
  972MOL0     O28180   1.786   2.312  10.635  0.5102 -0.5573 -0.1957
  972MOL0     C28181   1.831   2.186  10.693  0.4807  0.0513  0.3041
  972MOL0     C28182   1.974   2.213  10.747 -0.8860 -0.3202 -0.2266
  972MOL0     C28183   2.067   2.248  10.629  1.1154  1.0503  0.2729
  972MOL0     C28184   2.206   2.295  10.660  0.0965  0.3999  0.7196
  972MOL0     C28185   2.287   2.170  10.699 -0.8240  0.3864  0.9772
  972MOL0     C28186   2.436   2.177  10.654 -0.9479 -0.0323  0.2996
  972MOL0     C28187   2.525   2.061  10.699  0.3061  0.1308  0.7947
  972MOL0     C28188   2.674   2.094  10.663 -0.3600 -0.4083 -0.1074
  972MOL0     N28189   2.740   2.162  10.779  0.3030 -0.4312 -0.6601
  972MOL0     C28190   2.718   2.287  10.834  0.2315 -0.4516  0.0162
  972MOL0     C28191   2.798   2.290  10.937 -0.3845 -0.1846 -0.8264
  972MOL0     C28192   2.818   2.414  11.015 -0.0983 -0.1093  0.5615
  972MOL0     C28193   2.969   2.454  11.002  0.1530  0.6131  0.0110
  972MOL0     C28194   3.066   2.355  11.064 -0.5415 -0.2898  0.1273
  972MOL0     C28195   3.197   2.424  11.101  0.2310 -0.1107 -0.9522
  972MOL0     O28196   3.311   2.338  11.108 -0.0810  0.3394  0.2128
  972MOL0     C28197   3.434   2.378  11.143 -0.5160 -0.4817 -0.6317
  972MOL0     C28198   3.529   2.276  11.141 -0.4512  1.0291  0.0240
  972MOL0     C28199   3.667   2.302  11.173 -0.0789  0.2351 -0.4419
  972MOL0     C28200   3.707   2.429  11.213  0.1794 -0.4917 -0.3000
  972MOL0     C28201   3.844   2.459  11.253 -0.0109  0.3743 -0.0867
  972MOL0     O28202   3.946   2.358  11.242  0.6559  0.1593 -0.0330
  972MOL0     C28203   4.073   2.400  11.287 -0.2891  0.0451 -0.6063
  972MOL0     C28204   4.096   2.459  11.413  0.3269  0.2492 -1.1777
  972MOL0     C28205   4.224   2.482  11.456 -0.2414 -0.0590  0.3689
  972MOL0     C28206   4.334   2.451  11.375 -0.0627  0.4589  0.9255
  972MOL0     O28207   4.456   2.474  11.427 -0.5424  0.3327  0.3648
  972MOL0     C28208   4.517   2.598  11.394 -0.2604  0.4811  0.0279
  972MOL0     C28209   4.665   2.583  11.359  0.0094  0.6157  0.2750
  972MOL0     C28210   4.686   2.506  11.223  0.1986  0.1377  0.6197
  972MOL0     C28211   4.834   2.505  11.179  1.0850 -0.0310  0.3333
  972MOL0     C28212   4.885   2.643  11.179 -0.4291 -0.7974 -0.2474
  972MOL0     C28213   5.020   2.663  11.101 -0.3583  1.3418  0.4082
  972MOL0     C28214   5.120   2.564  11.152 -0.2891  0.6459 -0.1780
  972MOL0     C28215   5.250   2.586  11.090  0.1944 -0.5972  0.0519
  972MOL0    Cl28216   5.320   2.735  11.132 -0.0920 -0.0325 -0.1300
  972MOL0     C28217   4.325   2.380  11.254  0.7532 -0.5174  1.2249
  972MOL0     C28218   4.190   2.357  11.211  0.7833 -1.1523 -0.2863
  972MOL0     O28219   3.873   2.574  11.287  0.2415 -0.9343 -0.3150
  972MOL0     C28220   3.604   2.517  11.227 -0.1299 -0.0581 -0.5063
  972MOL0     C28221   3.469   2.502  11.190 -0.8476 -0.3690  0.5967
  972MOL0     N28222   2.865   2.171  10.942  0.2736 -0.4478 -0.6371
  972MOL0     N28223   2.841   2.100  10.845  0.3720  0.5656  0.7281
  972MOL0     C28224   1.601   2.455  10.628  0.3882 -0.6170 -0.0011
  972MOL0     C28225   1.470   2.485  10.598 -0.8731  0.7668 -0.5979
  972MOL0     C28226   1.039   2.374  10.466  0.4556 -0.3960 -0.5779
  972MOL0     C28227   0.999   2.506  10.498  0.4628  0.2753  0.2420
  972MOL0     C28228   0.863   2.535  10.499  0.7029 -0.4017 -0.4457
  972MOL0     C28229   0.762   2.441  10.471  0.3300 -1.1751  0.7928
  972MOL0     O28230   0.630   2.495  10.470  0.2801  0.0180  0.0388
  972MOL0     C28231   0.515   2.414  10.438  0.1197 -0.1489  0.5062
  972MOL0     C28232   0.405   2.508  10.392  0.1625 -0.9637  0.2401
  972MOL0     C28233   0.279   2.445  10.342 -0.8107  0.4512  0.2255
  972MOL0     C28234   0.216   2.368  10.453  0.4656 -0.5322  0.1439
  972MOL0     C28235   0.102   2.293  10.404 -0.2028 -0.1625 -0.1430
  972MOL0     C28236   0.007   2.241  10.356 -0.3931  0.3272 -0.0564
  972MOL0     C28237   0.799   2.312  10.432  0.5903 -0.4393 -0.3978
  972MOL0     C28238   0.933   2.279  10.435 -0.5784  0.1649  0.3612
  972MOL0     H28239   1.358   2.174  10.537  0.4880  0.7813 -2.0457
  972MOL0     H28240   1.606   2.125  10.563  0.5260  0.0454  1.1569
  972MOL0     H28241   1.819   2.100  10.626 -1.9195 -1.1536  2.1394
  972MOL0     H28242   1.772   2.158  10.780 -1.2202  0.9697 -0.5122
  972MOL0     H28243   2.017   2.122  10.789  1.6491  1.1957  0.6507
  972MOL0     H28244   1.981   2.293  10.821  0.1178 -2.9101  2.7048
  972MOL0     H28245   2.021   2.334  10.580  0.9333  1.5817  1.3606
  972MOL0     H28246   2.062   2.162  10.561 -1.0530  1.5671 -0.2961
  972MOL0     H28247   2.250   2.347  10.575 -0.2778 -0.0801  0.2272
  972MOL0     H28248   2.199   2.349  10.755 -3.2415 -0.1140  0.8764
  972MOL0     H28249   2.253   2.079  10.647 -0.7712  0.9056  0.0149
  972MOL0     H28250   2.281   2.143  10.805  2.5349 -2.5480  0.5961
  972MOL0     H28251   2.478   2.270  10.693  1.8875 -1.0978  0.0433
  972MOL0     H28252   2.457   2.185  10.547  2.2521 -1.5588  0.6970
  972MOL0     H28253   2.501   2.044  10.804 -1.3469  3.2366  1.0547
  972MOL0     H28254   2.492   1.975  10.639 -1.3230  2.0634 -1.3018
  972MOL0     H28255   2.683   2.156  10.574  2.0606 -0.7534 -0.1553
  972MOL0     H28256   2.727   2.003  10.635  0.8314  0.6840 -1.5617
  972MOL0     H28257   2.660   2.375  10.808 -2.2907 -0.3827  4.6510
  972MOL0     H28258   2.797   2.402  11.122 -0.7901  0.2039  0.4699
  972MOL0     H28259   2.768   2.505  10.980  1.3754  0.4631 -0.1353
  972MOL0     H28260   2.970   2.549  11.056 -0.7928  0.9370 -0.5141
  972MOL0     H28261   3.000   2.477  10.899  1.3580 -1.0807 -0.0458
  972MOL0     H28262   3.030   2.300  11.151 -0.2715 -0.5056  0.1026
  972MOL0     H28263   3.097   2.283  10.988  2.1358  1.6460 -0.7489
  972MOL0     H28264   3.178   2.466  11.200  0.7343  2.3861 -1.8347
  972MOL0     H28265   3.223   2.508  11.035  1.0208  1.3865  1.1632
  972MOL0     H28266   3.488   2.176  11.126  1.7333  0.3359 -2.0925
  972MOL0     H28267   3.744   2.227  11.176 -0.4211 -0.0941  0.3717
  972MOL0     H28268   4.016   2.501  11.474  2.2453 -0.2593  1.9153
  972MOL0     H28269   4.236   2.536  11.550  0.1014 -0.3984  0.5217
  972MOL0     H28270   4.513   2.666  11.480  2.5636 -1.0949  1.5704
  972MOL0     H28271   4.473   2.649  11.309  2.6727  1.8105 -0.8283
  972MOL0     H28272   4.721   2.524  11.433 -3.5231 -1.6334  1.3720
  972MOL0     H28273   4.702   2.686  11.356  2.0878 -0.0910 -0.6132
  972MOL0     H28274   4.625   2.550  11.143 -2.5787 -1.3650  1.7889
  972MOL0     H28275   4.656   2.401  11.226  0.4692 -0.1241 -2.3857
  972MOL0     H28276   4.883   2.441  11.253  3.1342  1.0820  0.0163
  972MOL0     H28277   4.851   2.450  11.085 -0.4888 -2.7168  1.4920
  972MOL0     H28278   4.904   2.686  11.277 -1.2321 -1.7576  0.3543
  972MOL0     H28279   4.812   2.711  11.134 -0.7678 -0.8727  0.1822
  972MOL0     H28280   5.053   2.766  11.118 -0.3050  1.7063 -1.6413
  972MOL0     H28281   4.997   2.640  10.996 -0.8570  2.6131  0.2186
  972MOL0     H28282   5.130   2.561  11.261 -1.1710 -1.7828 -0.1008
  972MOL0     H28283   5.101   2.462  11.117  0.2999  1.1923 -2.1922
  972MOL0     H28284   5.247   2.593  10.981  0.8020  3.0605  0.1393
  972MOL0     H28285   5.321   2.513  11.130 -0.7971 -2.5306 -1.5829
  972MOL0     H28286   4.421   2.364  11.204  0.2962  0.4328 -0.0270
  972MOL0     H28287   4.158   2.324  11.113 -0.6900 -0.3120 -0.1119
  972MOL0     H28288   3.611   2.620  11.261 -2.8600  0.5575 -1.6018
  972MOL0     H28289   3.406   2.590  11.204  1.1402  1.0566  1.0272
  972MOL0     H28290   1.658   2.535  10.673 -1.8473  2.2139 -1.7587
  972MOL0     H28291   1.424   2.581  10.616 -0.3755  0.2489  5.0260
  972MOL0     H28292   1.073   2.584  10.506  0.0705  0.7297 -0.4776
  972MOL0     H28293   0.837   2.634  10.534  0.5761 -0.0032 -1.6528
  972MOL0     H28294   0.498   2.364  10.534  1.2443  2.0264  1.9049
  972MOL0     H28295   0.535   2.332  10.368 -0.6692  0.1966 -0.1362
  972MOL0     H28296   0.373   2.576  10.471 -1.0558  1.2477 -2.0213
  972MOL0     H28297   0.447   2.575  10.316 -1.5477 -0.3181 -0.1662
  972MOL0     H28298   0.297   2.371  10.264 -1.5008  0.4865  0.0185
  972MOL0     H28299   0.211   2.514  10.292 -2.3151 -1.8657 -1.1722
  972MOL0     H28300   0.290   2.310  10.508 -1.0656 -4.1819 -1.3534
  972MOL0     H28301   0.175   2.434  10.531 -3.4083 -2.1879 -0.2768
  972MOL0     H28302  -0.090   2.215  10.318 -0.0561 -0.0118 -0.7183
  972MOL0     H28303   0.732   2.230  10.409 -1.4449  1.3562 -1.1989
  972MOL0     H28304   0.961   2.181  10.398  1.6352  1.5083 -1.9157
  973MOL0     O28305  10.620   0.480   1.888  0.1391 -0.7004  0.3031
  973MOL0     C28306  10.623   0.578   1.819  0.6017 -1.8419  0.1149
  973MOL0     O28307  10.508   0.649   1.780 -0.6905 -0.1959  0.3375
  973MOL0     C28308  10.384   0.604   1.820  0.4615  0.6723  0.9008
  973MOL0     C28309  10.283   0.579   1.730  0.6425 -0.3972 -0.5303
  973MOL0     C28310  10.153   0.560   1.777  0.6841  1.1722  0.1968
  973MOL0     C28311  10.121   0.563   1.915  0.3218 -0.4690 -0.3562
  973MOL0     O28312   9.990   0.544   1.960  0.0778 -0.8512  0.0212
  973MOL0     C28313   9.915   0.448   1.883 -0.0528 -0.3723 -0.0577
  973MOL0     C28314   9.798   0.386   1.967  0.6518 -0.9974 -0.5604
  973MOL0     C28315   9.703   0.288   1.907 -0.1770 -0.3226  0.4481
  973MOL0     C28316   9.582   0.257   1.987  0.2166 -0.1240 -0.4568
  973MOL0     C28317   9.509   0.151   1.907  0.2628 -0.4946 -0.4450
  973MOL0     C28318   9.370   0.114   1.964  0.5880 -1.1540 -0.6903
  973MOL0     C28319   9.295  -0.019   1.910  0.2073  1.4116  0.8009
  973MOL0     C28320   9.163  -0.058   1.989  2.0211 -0.3851 -0.5503
  973MOL0     N28321   9.092  -0.170   1.925  1.0195 -0.0073 -0.1396
  973MOL0     C28322   9.007  -0.159   1.819 -0.1407  0.1916  0.3764
  973MOL0     C28323   8.975  -0.291   1.790  0.0323 -0.4218  0.0204
  973MOL0     C28324   8.884  -0.341   1.677  0.0311  0.5736  0.2963
  973MOL0     C28325   8.739  -0.378   1.717  0.5492  0.2553 -0.1753
  973MOL0     C28326   8.674  -0.433   1.594 -0.8248 -0.3326 -0.5066
  973MOL0     C28327   8.528  -0.461   1.624 -0.8318  0.0553  0.1281
  973MOL0     O28328   8.454  -0.349   1.645  0.2852  0.7459 -0.6738
  973MOL0     C28329   8.320  -0.365   1.660 -0.0265 -0.3233 -0.5600
  973MOL0     C28330   8.249  -0.483   1.648 -0.4685  0.7570 -0.4141
  973MOL0     C28331   8.108  -0.496   1.646 -0.2086 -0.3217 -0.2810
  973MOL0     C28332   8.038  -0.376   1.657 -0.0086  0.0145 -0.1582
  973MOL0     C28333   7.893  -0.386   1.663 -0.4465  0.4966 -0.3122
  973MOL0     O28334   7.819  -0.270   1.671 -0.4974 -0.3148  0.2543
  973MOL0     C28335   7.679  -0.271   1.686 -0.1612 -0.1713 -0.0938
  973MOL0     C28336   7.620  -0.149   1.737 -0.1271 -0.7589 -0.1220
  973MOL0     C28337   7.478  -0.143   1.767  0.3685  0.4860 -0.0581
  973MOL0     C28338   7.401  -0.250   1.753  0.2125  0.1751  0.5675
  973MOL0     O28339   7.263  -0.233   1.782 -0.3995 -0.0523  0.2736
  973MOL0     C28340   7.151  -0.320   1.736  0.7667 -0.3175 -0.0675
  973MOL0     C28341   7.018  -0.241   1.754  0.0720 -0.7230  0.3393
  973MOL0     C28342   6.899  -0.330   1.716  0.7152  0.6333  0.3759
  973MOL0     C28343   6.776  -0.275   1.793  0.2110 -0.1585 -0.1558
  973MOL0     C28344   6.647  -0.327   1.736 -0.3610 -0.2590  0.1956
  973MOL0     C28345   6.524  -0.251   1.797  0.5306 -0.0188 -0.1857
  973MOL0     C28346   6.505  -0.269   1.949  0.4259  0.2991  0.9532
  973MOL0     C28347   6.392  -0.191   2.019 -0.5090  0.2277 -0.1388
  973MOL0    Cl28348   6.227  -0.239   1.977  0.1688  0.0615  0.2993
  973MOL0     C28349   7.449  -0.365   1.698  0.5681 -0.1534  1.0519
  973MOL0     C28350   7.586  -0.379   1.669  0.6155 -0.2278 -0.2299
  973MOL0     O28351   7.840  -0.499   1.669 -0.2445  0.0385  0.1436
  973MOL0     C28352   8.103  -0.248   1.660  0.3118  0.4061  0.3543
  973MOL0     C28353   8.243  -0.252   1.658  0.5109  0.1114 -0.6814
  973MOL0     N28354   9.037  -0.377   1.883  1.0509 -0.0093  0.0640
  973MOL0     N28355   9.102  -0.307   1.963  0.8801 -0.4227  0.6825
  973MOL0     C28356  10.227   0.585   2.011 -0.4463  0.5425  0.0074
  973MOL0     C28357  10.356   0.602   1.956 -0.1115 -0.0644 -0.0696
  973MOL0     C28358  10.755   0.641   1.794  0.2966 -0.2805  0.2389
  973MOL0     C28359  10.779   0.743   1.693 -0.8122 -0.3158 -0.9747
  973MOL0     C28360  10.905   0.810   1.681  0.1797 -0.1031  0.4371
  973MOL0     C28361  11.019   0.778   1.758  0.3560  0.1294 -1.2315
  973MOL0     O28362  11.134   0.847   1.738  0.4893  0.3466 -0.1161
  973MOL0     C28363  11.246   0.850   1.827 -0.3400 -0.4158 -0.4197
  973MOL0     C28364  11.370   0.923   1.761  0.3063  0.1098 -0.5155
  973MOL0     C28365  11.409   0.842   1.638 -0.0778  0.2840 -0.1937
  973MOL0     C28366  11.539   0.893   1.573 -0.4125  0.1945  0.5148
  973MOL0     C28367  11.582   0.820   1.454 -0.5356 -0.3924  1.0501
  973MOL0     C28368  11.613   0.735   1.365  0.0761  0.0475 -0.6753
  973MOL0     C28369  10.997   0.677   1.855  0.2613  0.0145 -0.3816
  973MOL0     C28370  10.873   0.607   1.871  0.5673 -0.0224  0.1538
  973MOL0     H28371  10.298   0.588   1.623  3.0496 -0.3603 -0.2605
  973MOL0     H28372  10.072   0.552   1.705 -1.9696  2.4592  2.8276
  973MOL0     H28373   9.986   0.370   1.854  1.6428  0.5672  1.3121
  973MOL0     H28374   9.866   0.501   1.800  1.9634 -0.6278 -1.5011
  973MOL0     H28375   9.735   0.466   2.008  1.6526  0.0409 -1.0090
  973MOL0     H28376   9.835   0.328   2.053  0.1532 -0.3313  0.1253
  973MOL0     H28377   9.759   0.195   1.894  1.1799  0.8415 -3.1352
  973MOL0     H28378   9.677   0.330   1.809 -2.4555 -0.2291  1.0421
  973MOL0     H28379   9.597   0.216   2.087  0.6261 -1.5561 -1.0837
  973MOL0     H28380   9.523   0.349   1.999  1.2800  1.3083 -4.3912
  973MOL0     H28381   9.570   0.061   1.898  0.9955  0.1712 -3.1343
  973MOL0     H28382   9.496   0.181   1.802  2.6624 -1.2173 -0.9967
  973MOL0     H28383   9.302   0.197   1.943  1.7258  0.0751  0.3227
  973MOL0     H28384   9.380   0.105   2.073 -0.2345  1.8801 -0.2862
  973MOL0     H28385   9.271  -0.003   1.804  0.2715  2.6512  0.9638
  973MOL0     H28386   9.360  -0.106   1.926 -0.7920  0.6048  0.5902
  973MOL0     H28387   9.098   0.029   1.984  1.2362 -0.9906 -1.3760
  973MOL0     H28388   9.183  -0.089   2.092 -0.6601  1.4970  0.6279
  973MOL0     H28389   8.965  -0.073   1.768  0.3414 -0.3336 -0.9622
  973MOL0     H28390   8.925  -0.424   1.620  0.5153  0.5989  0.5944
  973MOL0     H28391   8.882  -0.260   1.604 -0.1957 -1.4398 -2.0181
  973MOL0     H28392   8.689  -0.285   1.747 -0.0967  0.2577 -1.2187
  973MOL0     H28393   8.740  -0.451   1.798  1.7447 -0.1848 -0.5701
  973MOL0     H28394   8.676  -0.365   1.509  1.3433  1.6281  0.9784
  973MOL0     H28395   8.716  -0.528   1.560  1.6241  1.2496 -2.2206
  973MOL0     H28396   8.523  -0.526   1.712 -2.5923  0.5842  0.4633
  973MOL0     H28397   8.498  -0.512   1.531  1.5850 -0.1796 -0.5986
  973MOL0     H28398   8.308  -0.573   1.635 -1.3115  0.1591 -0.1515
  973MOL0     H28399   8.064  -0.595   1.638 -0.7748 -0.2823  1.9482
  973MOL0     H28400   7.685  -0.069   1.770 -0.0330 -1.1214  0.6086
  973MOL0     H28401   7.431  -0.055   1.810 -1.7598 -0.3381 -0.6021
  973MOL0     H28402   7.150  -0.418   1.785  0.0868  0.2594  1.1346
  973MOL0     H28403   7.160  -0.324   1.628  2.6256  1.6675 -0.0478
  973MOL0     H28404   7.015  -0.149   1.696  1.2091 -0.0724  1.2631
  973MOL0     H28405   7.005  -0.213   1.859 -0.3713  0.9202 -0.1306
  973MOL0     H28406   6.909  -0.437   1.737 -0.3712  0.1338 -1.4106
  973MOL0     H28407   6.884  -0.318   1.608  0.7862  2.5710  0.5429
  973MOL0     H28408   6.785  -0.297   1.900  1.7356 -1.4978 -0.5212
  973MOL0     H28409   6.779  -0.166   1.786  1.1960  0.0152  1.9527
  973MOL0     H28410   6.640  -0.433   1.762  1.1035 -0.5661 -0.5586
  973MOL0     H28411   6.650  -0.311   1.628 -1.0571  2.0209  0.4768
  973MOL0     H28412   6.430  -0.289   1.757  0.2581 -1.1015  1.4168
  973MOL0     H28413   6.532  -0.146   1.768  0.3564  0.2576  0.7350
  973MOL0     H28414   6.499  -0.376   1.969 -1.3426  0.4175  1.1959
  973MOL0     H28415   6.598  -0.237   1.997  2.0725 -2.4779 -0.1507
  973MOL0     H28416   6.395  -0.085   1.996  4.0525 -0.2277 -2.7682
  973MOL0     H28417   6.399  -0.197   2.128 -1.5988  1.3278  0.0138
  973MOL0     H28418   7.381  -0.444   1.669 -0.2097  0.3132  1.5649
  973MOL0     H28419   7.606  -0.467   1.610 -1.3173 -0.2530 -0.9178
  973MOL0     H28420   8.043  -0.157   1.658 -3.2466 -1.7462 -1.0206
  973MOL0     H28421   8.274  -0.148   1.657  0.8131  0.1076  1.8082
  973MOL0     H28422  10.216   0.593   2.118  5.9810 -1.1379  1.1935
  973MOL0     H28423  10.441   0.605   2.023 -0.8526 -0.2721  0.9095
  973MOL0     H28424  10.695   0.773   1.631 -0.0322  1.9235 -1.0337
  973MOL0     H28425  10.910   0.884   1.602 -0.5582  0.3217  0.7767
  973MOL0     H28426  11.272   0.753   1.869 -0.8007  0.0826  1.0781
  973MOL0     H28427  11.232   0.911   1.916 -2.5972 -2.0103  0.3965
  973MOL0     H28428  11.337   1.025   1.736 -0.4859  0.4337  1.6547
  973MOL0     H28429  11.453   0.936   1.831 -0.7373 -0.2227  0.8272
  973MOL0     H28430  11.328   0.844   1.565 -1.1757 -0.5414  0.9640
  973MOL0     H28431  11.430   0.739   1.670  2.3491  1.4299  2.3509
  973MOL0     H28432  11.523   0.996   1.539 -1.5523 -0.1660 -0.0579
  973MOL0     H28433  11.628   0.895   1.637  1.0246  1.1993 -1.4051
  973MOL0     H28434  11.638   0.666   1.286  4.9184  1.0895 -0.3485
  973MOL0     H28435  11.081   0.645   1.916 -1.6671  1.9923  3.7088
  973MOL0     H28436  10.872   0.535   1.952 -1.9928 -1.1368 -0.7534
  974MOL0     O28437   6.818   3.439   4.552 -1.0125  0.0332 -0.2176
  974MOL0     C28438   6.808   3.554   4.600 -0.1349  0.3619 -0.7635
  974MOL0     O28439   6.718   3.651   4.561 -0.4214  0.5183 -0.4019
  974MOL0     C28440   6.620   3.637   4.476 -0.1371 -0.2379 -0.0451
  974MOL0     C28441   6.591   3.528   4.395 -0.3173 -0.7707  0.3941
  974MOL0     C28442   6.482   3.532   4.311  0.8278  0.3935 -0.0843
  974MOL0     C28443   6.396   3.637   4.301  0.5117  0.4312  0.5035
  974MOL0     O28444   6.304   3.639   4.189 -0.3784 -0.6185 -0.0868
  974MOL0     C28445   6.165   3.677   4.217 -1.1855  0.4057 -0.5511
  974MOL0     C28446   6.087   3.546   4.188  0.4010 -0.8202  0.2452
  974MOL0     C28447   5.934   3.554   4.209 -0.1291 -0.0389  0.1000
  974MOL0     C28448   5.873   3.426   4.160  0.8199 -0.0547 -0.1132
  974MOL0     C28449   5.724   3.413   4.206  0.2052  0.5697  0.5813
  974MOL0     C28450   5.632   3.500   4.115  0.3031  0.5120 -0.2620
  974MOL0     C28451   5.485   3.465   4.141  0.9452  1.0731 -0.0216
  974MOL0     C28452   5.437   3.511   4.276  1.1024 -0.4119  0.4498
  974MOL0     N28453   5.286   3.522   4.289  0.8916 -0.1551  0.6668
  974MOL0     C28454   5.210   3.418   4.312  0.1471  0.0252  0.0698
  974MOL0     C28455   5.084   3.453   4.286  0.2607 -0.4034 -1.1886
  974MOL0     C28456   4.976   3.362   4.331 -1.0098  0.4091  0.5093
  974MOL0     C28457   4.907   3.328   4.199  0.8078 -0.2181 -0.4101
  974MOL0     C28458   4.788   3.231   4.211 -0.3400  0.4692 -0.7003
  974MOL0     C28459   4.650   3.291   4.240  0.1094 -0.7454  0.5043
  974MOL0     O28460   4.561   3.192   4.204  0.0223 -0.3203  0.5613
  974MOL0     C28461   4.428   3.220   4.184 -0.2202  0.9939  0.0391
  974MOL0     C28462   4.368   3.325   4.243  0.1922 -0.2073  0.0631
  974MOL0     C28463   4.229   3.347   4.218 -0.3336  1.1128 -0.3540
  974MOL0     C28464   4.152   3.260   4.146  0.8024 -0.1433  0.2542
  974MOL0     C28465   4.011   3.275   4.129  0.0060 -0.6974  1.1618
  974MOL0     O28466   3.958   3.219   4.018  0.4410  0.8902 -0.1216
  974MOL0     C28467   3.820   3.209   4.003 -0.1197 -0.3672  0.1582
  974MOL0     C28468   3.738   3.159   4.100 -0.2727 -0.4988  0.2468
  974MOL0     C28469   3.600   3.128   4.065  0.3924 -0.9667 -0.3645
  974MOL0     C28470   3.551   3.176   3.941 -0.3200  0.3706 -0.6533
  974MOL0     O28471   3.415   3.167   3.894 -0.2398  0.0165 -0.0621
  974MOL0     C28472   3.313   3.216   3.983 -0.6648  0.5342  0.4706
  974MOL0     C28473   3.303   3.378   3.989 -0.2284  0.6049 -0.7667
  974MOL0     C28474   3.200   3.435   4.093 -0.1936  0.0328  0.1278
  974MOL0     C28475   3.066   3.345   4.094  0.9252 -0.1330 -0.0820
  974MOL0     C28476   2.940   3.423   4.145  0.0675 -0.6781  0.0808
  974MOL0     C28477   2.908   3.554   4.065  0.0737 -0.2389  0.5838
  974MOL0     C28478   2.750   3.578   4.061  0.1521  0.1626  0.0803
  974MOL0     C28479   2.712   3.681   3.959 -0.1420  1.0052 -0.6593
  974MOL0    Cl28480   2.818   3.827   3.998  0.4092 -0.1283 -0.1141
  974MOL0     C28481   3.645   3.231   3.849  0.5641 -0.7379 -0.4720
  974MOL0     C28482   3.776   3.250   3.881  0.5062 -0.1850 -0.6245
  974MOL0     O28483   3.950   3.323   4.219  0.1811 -0.1906  0.0614
  974MOL0     C28484   4.216   3.147   4.093  0.6720  0.9978  0.2729
  974MOL0     C28485   4.353   3.130   4.112 -0.2807  0.0117 -0.1998
  974MOL0     N28486   5.086   3.590   4.258  0.0212  0.0031 -0.2176
  974MOL0     N28487   5.211   3.634   4.253 -0.3278  1.1487  0.4263
  974MOL0     C28488   6.426   3.747   4.373  0.3911  0.3405 -0.3265
  974MOL0     C28489   6.536   3.748   4.460 -0.9202  1.0794  0.1688
  974MOL0     C28490   6.897   3.598   4.710 -0.8763  0.2810  0.1309
  974MOL0     C28491   6.999   3.514   4.761  0.0299  1.2426 -0.1692
  974MOL0     C28492   7.088   3.552   4.866  0.5572  0.2543 -0.0401
  974MOL0     C28493   7.080   3.677   4.919 -1.1563 -0.3179  0.4543
  974MOL0     O28494   7.174   3.733   5.006 -0.4226  0.1886 -0.5581
  974MOL0     C28495   7.264   3.660   5.090  0.0746 -0.1078 -0.2477
  974MOL0     C28496   7.208   3.650   5.226  0.0324  0.0607 -0.2038
  974MOL0     C28497   7.264   3.745   5.331 -0.1939 -0.2674  0.6856
  974MOL0     C28498   7.165   3.856   5.343 -0.9015 -0.3580 -0.0760
  974MOL0     C28499   7.224   3.958   5.420 -0.6671  0.4188 -0.4711
  974MOL0     C28500   7.275   4.057   5.477 -0.3872 -0.8715  0.4947
  974MOL0     C28501   6.982   3.759   4.866 -0.6739  0.6105 -0.3735
  974MOL0     C28502   6.881   3.718   4.773 -0.2739  0.0705  0.2042
  974MOL0     H28503   6.659   3.444   4.397 -0.5787 -1.0938 -1.7766
  974MOL0     H28504   6.441   3.455   4.247 -3.0300  2.5888 -0.5337
  974MOL0     H28505   6.140   3.749   4.138 -0.4459 -0.9347 -2.0763
  974MOL0     H28506   6.150   3.705   4.321  2.4871 -1.5814  0.7182
  974MOL0     H28507   6.130   3.466   4.249  4.8456  0.6903 -0.4947
  974MOL0     H28508   6.089   3.510   4.084  1.1710 -0.9135  0.2800
  974MOL0     H28509   5.899   3.641   4.152  1.9122  0.5366 -0.3493
  974MOL0     H28510   5.915   3.566   4.316  0.2394 -1.0214  0.2848
  974MOL0     H28511   5.889   3.406   4.054 -2.4534 -0.5649 -0.6264
  974MOL0     H28512   5.923   3.342   4.210 -1.8395 -2.5649 -1.3519
  974MOL0     H28513   5.711   3.454   4.307  2.0379  1.6509  0.4309
  974MOL0     H28514   5.687   3.310   4.211  0.0507  0.3595 -2.6745
  974MOL0     H28515   5.656   3.496   4.008 -0.4744  0.0781 -0.4291
  974MOL0     H28516   5.651   3.601   4.154 -1.3668  0.3130  1.2170
  974MOL0     H28517   5.432   3.506   4.055 -0.1910 -0.1988  0.0583
  974MOL0     H28518   5.466   3.358   4.132  1.3000  0.7507  2.2465
  974MOL0     H28519   5.481   3.609   4.297  0.4713 -0.5250  2.4225
  974MOL0     H28520   5.496   3.463   4.354  1.8766 -1.5039 -0.7574
  974MOL0     H28521   5.251   3.323   4.343 -0.2148 -0.3164 -0.4692
  974MOL0     H28522   4.911   3.415   4.401 -3.8302 -2.1799  0.0873
  974MOL0     H28523   5.007   3.266   4.375 -0.2540  0.8380  0.9276
  974MOL0     H28524   4.985   3.283   4.137  2.1351  1.2066  0.1608
  974MOL0     H28525   4.871   3.417   4.146  0.0749 -1.7420 -2.6206
  974MOL0     H28526   4.776   3.192   4.109 -1.4436 -1.8591  0.2321
  974MOL0     H28527   4.816   3.151   4.280 -0.1300  0.1554 -1.1402
  974MOL0     H28528   4.623   3.385   4.191 -1.4197  1.0798  4.4134
  974MOL0     H28529   4.654   3.325   4.344  2.0279 -1.5220  0.7321
  974MOL0     H28530   4.418   3.392   4.314 -1.4823 -1.1477  2.2434
  974MOL0     H28531   4.193   3.440   4.262 -3.2408 -0.5317  1.0178
  974MOL0     H28532   3.777   3.130   4.197  0.7881 -2.0974 -0.5989
  974MOL0     H28533   3.530   3.072   4.126  1.0223 -0.1403  1.1754
  974MOL0     H28534   3.336   3.186   4.085  2.3152 -0.1379 -0.2871
  974MOL0     H28535   3.219   3.170   3.952 -0.8070 -0.3854  2.1511
  974MOL0     H28536   3.293   3.424   3.890  0.4072  1.7862 -0.2929
  974MOL0     H28537   3.402   3.413   4.019  0.0237 -0.3560 -0.4361
  974MOL0     H28538   3.184   3.543   4.080  1.5304  0.0308 -3.0000
  974MOL0     H28539   3.234   3.424   4.196  3.3785  2.1107 -0.6718
  974MOL0     H28540   3.048   3.327   3.988 -2.9018  1.4539  0.1331
  974MOL0     H28541   3.067   3.250   4.149 -1.2559  0.5125  1.1980
  974MOL0     H28542   2.962   3.455   4.247 -0.8904  2.3905 -0.5493
  974MOL0     H28543   2.849   3.362   4.138  0.7677 -1.7073 -0.1517
  974MOL0     H28544   2.947   3.544   3.963  0.3850 -0.6807  0.7394
  974MOL0     H28545   2.965   3.627   4.123  2.1477 -0.9765 -0.4018
  974MOL0     H28546   2.707   3.481   4.035 -0.8872  0.8066 -0.6620
  974MOL0     H28547   2.718   3.606   4.161  3.5966 -2.7452  2.2554
  974MOL0     H28548   2.603   3.691   3.959 -0.1382  1.1965 -2.0831
  974MOL0     H28549   2.735   3.637   3.862  2.6495  0.9351 -0.0560
  974MOL0     H28550   3.603   3.264   3.754 -3.0029  0.4581  1.3344
  974MOL0     H28551   3.845   3.298   3.812  0.5417  3.7814  1.8604
  974MOL0     H28552   4.155   3.084   4.030  3.5980 -0.3330 -1.4377
  974MOL0     H28553   4.412   3.052   4.063 -0.0994 -0.8108  1.2718
  974MOL0     H28554   6.376   3.841   4.351  0.5170  0.4020 -0.3496
  974MOL0     H28555   6.560   3.846   4.500 -0.6832  1.1530 -0.1474
  974MOL0     H28556   7.011   3.409   4.737 -0.4372  0.9915  0.6902
  974MOL0     H28557   7.158   3.473   4.888 -0.2897 -0.4759  0.0849
  974MOL0     H28558   7.370   3.685   5.089  0.7397 -2.6050 -1.5778
  974MOL0     H28559   7.261   3.556   5.057 -1.7589 -0.5733  1.2002
  974MOL0     H28560   7.100   3.652   5.211  0.1430  1.4908 -0.9438
  974MOL0     H28561   7.243   3.551   5.255  0.0253  0.1898  0.2530
  974MOL0     H28562   7.368   3.771   5.309 -0.1736  0.4279  1.5529
  974MOL0     H28563   7.260   3.688   5.425 -1.9990 -1.0365  0.1912
  974MOL0     H28564   7.145   3.908   5.249  1.4752 -1.2957 -1.1924
  974MOL0     H28565   7.076   3.814   5.392  0.2236  0.9608  3.3690
  974MOL0     H28566   7.317   4.141   5.527  3.9690 -0.6059 -2.9798
  974MOL0     H28567   6.972   3.864   4.891  1.6836  0.8497 -0.2564
  974MOL0     H28568   6.810   3.795   4.746 -1.7105 -1.1764  0.2813
  975MOL0     O28569   2.494   2.187   7.428  0.1765  1.2109 -0.1689
  975MOL0     C28570   2.492   2.170   7.555 -0.3883 -0.0279  0.4413
  975MOL0     O28571   2.601   2.191   7.638 -0.1298  0.2514  0.0345
  975MOL0     C28572   2.737   2.190   7.601  1.1649  0.4024  0.7845
  975MOL0     C28573   2.777   2.144   7.469 -0.2995 -0.4417 -1.1367
  975MOL0     C28574   2.913   2.133   7.453 -0.6386 -0.2311 -0.1682
  975MOL0     C28575   3.005   2.155   7.560  0.2719 -0.4800 -0.3571
  975MOL0     O28576   3.139   2.127   7.555 -0.0484 -0.6571 -0.9025
  975MOL0     C28577   3.198   2.160   7.428  0.4992  0.0612  0.0234
  975MOL0     C28578   3.348   2.168   7.418 -0.8716  0.3961  0.6178
  975MOL0     C28579   3.426   2.221   7.540 -0.3618  0.6646 -0.8671
  975MOL0     C28580   3.577   2.208   7.521 -0.0472 -0.6648 -0.1750
  975MOL0     C28581   3.649   2.213   7.656 -0.8292  0.4690 -0.4988
  975MOL0     C28582   3.794   2.220   7.637  0.0351  0.2804 -0.9797
  975MOL0     C28583   3.849   2.350   7.587 -0.6416 -0.4132  0.4575
  975MOL0     C28584   3.993   2.315   7.532  0.1748  0.7920 -0.7850
  975MOL0     N28585   4.076   2.314   7.648 -0.5935 -0.4963 -0.9248
  975MOL0     C28586   4.203   2.381   7.656  0.4003  0.4469 -0.5504
  975MOL0     C28587   4.274   2.313   7.760  0.5895  0.5752 -0.0973
  975MOL0     C28588   4.414   2.338   7.795  0.5412  0.6324 -0.1802
  975MOL0     C28589   4.442   2.367   7.943  0.0242  0.6444  0.7861
  975MOL0     C28590   4.429   2.511   7.989 -0.6405 -0.1801 -0.0604
  975MOL0     C28591   4.447   2.535   8.141 -0.4638  0.3579  0.4646
  975MOL0     O28592   4.544   2.448   8.188 -0.8136  0.2765 -0.3914
  975MOL0     C28593   4.678   2.486   8.169  0.2716  1.0971 -0.5995
  975MOL0     C28594   4.731   2.609   8.172 -0.8515  1.3604  0.3375
  975MOL0     C28595   4.874   2.622   8.176  0.7153  0.7903 -0.8958
  975MOL0     C28596   4.961   2.507   8.156  0.7773 -0.0364  0.9203
  975MOL0     C28597   5.104   2.527   8.149 -0.3188 -0.2104  0.5214
  975MOL0     O28598   5.165   2.648   8.184  0.5916 -0.1561 -0.3101
  975MOL0     C28599   5.296   2.683   8.188  0.3187 -0.0931  1.1333
  975MOL0     C28600   5.405   2.600   8.175  0.1782  0.8998  0.5838
  975MOL0     C28601   5.531   2.650   8.143 -0.7353  0.2615  0.6295
  975MOL0     C28602   5.549   2.788   8.124  1.3001  0.5136 -0.3555
  975MOL0     O28603   5.674   2.823   8.079 -0.3964 -0.0781 -0.4196
  975MOL0     C28604   5.704   2.959   8.092 -0.6990 -0.4040 -0.2726
  975MOL0     C28605   5.830   3.002   8.025 -0.6388  0.5103  0.7688
  975MOL0     C28606   5.954   2.950   8.094  0.5406  0.4223  0.7076
  975MOL0     C28607   6.083   3.008   8.033  0.4273  0.9594  0.0776
  975MOL0     C28608   6.103   3.157   8.013 -0.3151 -0.3628 -0.1087
  975MOL0     C28609   6.263   3.186   8.023 -0.5996  0.7568 -0.1776
  975MOL0     C28610   6.361   3.109   7.931 -0.2490  0.2941  0.5844
  975MOL0     C28611   6.500   3.179   7.925  0.7972  0.3645  0.1798
  975MOL0    Cl28612   6.612   3.085   8.025 -0.0218 -0.0565  0.1893
  975MOL0     C28613   5.441   2.877   8.152  0.6825 -0.7173  0.4323
  975MOL0     C28614   5.315   2.827   8.186 -0.4357 -0.0616 -0.4412
  975MOL0     O28615   5.164   2.425   8.121 -0.2166 -0.5611 -0.3228
  975MOL0     C28616   4.899   2.386   8.124  0.9844 -0.4420 -0.2906
  975MOL0     C28617   4.760   2.377   8.145  0.1848  0.1186 -0.7932
  975MOL0     N28618   4.178   2.223   7.816  0.2008  0.2532 -0.1275
  975MOL0     N28619   4.074   2.220   7.740 -0.4301 -1.0266  0.8400
  975MOL0     C28620   2.964   2.198   7.687 -0.2012 -0.5131 -0.7123
  975MOL0     C28621   2.826   2.204   7.703  0.0817  0.7158 -0.5989
  975MOL0     C28622   2.361   2.155   7.612  0.5235 -0.0653  0.7853
  975MOL0     C28623   2.247   2.139   7.530 -0.3447 -0.2775 -0.7838
  975MOL0     C28624   2.124   2.122   7.584 -0.4447  0.2997 -0.6514
  975MOL0     C28625   2.102   2.143   7.724 -0.3192 -0.2428  0.1049
  975MOL0     O28626   1.987   2.138   7.784 -0.4057  0.1084  0.2859
  975MOL0     C28627   1.872   2.113   7.705 -0.0867 -0.0227  0.3975
  975MOL0     C28628   1.755   2.101   7.796  1.1065 -0.1019  0.3970
  975MOL0     C28629   1.616   2.064   7.734  0.0141  0.4477  0.3603
  975MOL0     C28630   1.512   2.064   7.846 -0.0731 -0.1199 -0.5127
  975MOL0     C28631   1.386   2.013   7.784 -0.6929  0.7376 -0.9650
  975MOL0     C28632   1.281   1.970   7.747  0.6384 -0.6301  0.0045
  975MOL0     C28633   2.217   2.163   7.808 -0.5260  0.2162  0.8909
  975MOL0     C28634   2.346   2.162   7.751  0.3011  0.0737  1.0009
  975MOL0     H28635   2.722   2.120   7.378  2.6977  2.0327 -3.8349
  975MOL0     H28636   2.952   2.108   7.354 -2.4222 -1.0913 -0.6880
  975MOL0     H28637   3.169   2.262   7.402  0.8698  0.0471 -0.4674
  975MOL0     H28638   3.156   2.092   7.353 -2.8535  1.4625  0.4611
  975MOL0     H28639   3.380   2.233   7.337 -1.6370  0.0394  0.0197
  975MOL0     H28640   3.369   2.063   7.395 -0.5448 -0.5620  4.4734
  975MOL0     H28641   3.412   2.162   7.631 -0.9553 -0.6783 -1.8135
  975MOL0     H28642   3.392   2.324   7.556 -1.7963 -0.0533  1.0383
  975MOL0     H28643   3.608   2.115   7.472  0.7805 -0.9472  0.8597
  975MOL0     H28644   3.617   2.293   7.464  1.3419 -1.0075  0.2530
  975MOL0     H28645   3.626   2.123   7.713  1.4726  0.3912  0.4082
  975MOL0     H28646   3.615   2.298   7.715  0.7426 -0.6557  2.2340
  975MOL0     H28647   3.819   2.137   7.571 -1.6735  0.3118 -1.7027
  975MOL0     H28648   3.836   2.198   7.736 -1.1305  0.4538 -0.4286
  975MOL0     H28649   3.788   2.399   7.510  2.1983  1.5488 -0.7318
  975MOL0     H28650   3.873   2.422   7.665  1.5265 -0.0009 -0.5023
  975MOL0     H28651   4.041   2.393   7.471 -0.1831  2.8858  1.4629
  975MOL0     H28652   3.985   2.217   7.485 -4.1429  0.5451  0.0986
  975MOL0     H28653   4.234   2.471   7.605  0.5777 -0.2504 -1.7204
  975MOL0     H28654   4.457   2.414   7.728  0.6662  1.2033  0.5282
  975MOL0     H28655   4.452   2.240   7.766  1.5376  1.0195 -0.2282
  975MOL0     H28656   4.542   2.322   7.949 -0.4299 -0.4607  0.4012
  975MOL0     H28657   4.381   2.301   8.006  0.4808 -1.0181 -0.4353
  975MOL0     H28658   4.494   2.580   7.934 -1.5231  0.8476  0.1555
  975MOL0     H28659   4.326   2.533   7.959 -0.3160 -1.1967 -2.1229
  975MOL0     H28660   4.350   2.532   8.191  0.2869  2.8038  2.2353
  975MOL0     H28661   4.472   2.641   8.152 -3.4706  1.7353 -3.4557
  975MOL0     H28662   4.673   2.699   8.187 -2.3288  1.0673 -2.8228
  975MOL0     H28663   4.916   2.722   8.188  0.0172  1.1906 -1.6931
  975MOL0     H28664   5.403   2.492   8.180  4.3969  0.6334 -0.1282
  975MOL0     H28665   5.612   2.581   8.123 -1.5296 -0.5037 -0.0747
  975MOL0     H28666   5.710   2.995   8.195  0.7676  2.3854 -1.2365
  975MOL0     H28667   5.624   3.020   8.050  0.4073  1.5192  0.2878
  975MOL0     H28668   5.842   3.111   8.026  2.7253  0.4474 -3.2510
  975MOL0     H28669   5.828   2.972   7.920  1.9201  0.6630  0.6035
  975MOL0     H28670   5.961   2.841   8.086 -1.5742  0.2445  0.5156
  975MOL0     H28671   5.953   2.974   8.201  1.1585 -0.5993  0.9526
  975MOL0     H28672   6.151   2.973   8.112 -0.6181 -2.0039 -0.2010
  975MOL0     H28673   6.106   2.962   7.937 -2.0478  0.7949 -0.5031
  975MOL0     H28674   6.050   3.225   8.080 -0.9440  1.2378 -2.1331
  975MOL0     H28675   6.082   3.176   7.908 -0.4113  1.9534  0.2741
  975MOL0     H28676   6.296   3.183   8.127 -1.2333  3.8292  0.2261
  975MOL0     H28677   6.270   3.292   7.997  0.2344  0.9154  0.6456
  975MOL0     H28678   6.368   3.001   7.944 -0.0142  0.1069 -0.9936
  975MOL0     H28679   6.317   3.114   7.831  2.1157  1.8699 -0.4619
  975MOL0     H28680   6.490   3.283   7.957  3.8793  0.7079  0.3095
  975MOL0     H28681   6.550   3.182   7.828  0.0067 -0.5374 -0.2710
  975MOL0     H28682   5.438   2.985   8.153 -0.3143 -0.7289 -0.0522
  975MOL0     H28683   5.227   2.883   8.217 -3.2415 -5.0002  1.8112
  975MOL0     H28684   4.959   2.300   8.095 -0.5319 -0.8525 -2.4204
  975MOL0     H28685   4.716   2.278   8.134 -0.3819  0.1383  1.0302
  975MOL0     H28686   3.026   2.214   7.775 -0.8274  0.2913 -0.4040
  975MOL0     H28687   2.789   2.225   7.803  1.1736  0.1648 -0.0588
  975MOL0     H28688   2.255   2.123   7.423  1.5699  0.3004 -0.7729
  975MOL0     H28689   2.043   2.087   7.521 -0.3423 -4.0762  1.2913
  975MOL0     H28690   1.877   2.022   7.643 -0.3975  1.5742 -2.1456
  975MOL0     H28691   1.849   2.201   7.643  1.9074 -0.4171 -1.0175
  975MOL0     H28692   1.783   2.022   7.866  1.2661 -0.4192 -0.0136
  975MOL0     H28693   1.745   2.200   7.839  2.5156  0.3835 -0.3386
  975MOL0     H28694   1.611   1.963   7.693  0.4078  0.4357  0.3400
  975MOL0     H28695   1.598   2.141   7.658 -0.3661 -0.9925 -1.0656
  975MOL0     H28696   1.544   1.996   7.925 -0.6256  2.3666  2.0244
  975MOL0     H28697   1.491   2.160   7.895  1.0024 -1.5338  3.0507
  975MOL0     H28698   1.187   1.922   7.729  0.5425 -0.9988  1.3677
  975MOL0     H28699   2.197   2.176   7.914  0.2992  1.6626  0.8837
  975MOL0     H28700   2.425   2.161   7.826  1.5482 -0.9824 -0.2897
  976MOL0     O28701  10.313   9.501   6.528 -0.3219 -0.0967 -0.0337
  976MOL0     C28702  10.346   9.599   6.453 -0.0218  0.1494  0.0294
  976MOL0     O28703  10.271   9.629   6.338  0.1389 -0.1597  0.4637
  976MOL0     C28704  10.165   9.547   6.288  0.9623  0.3852  0.2947
  976MOL0     C28705  10.103   9.436   6.342 -0.1952 -0.6859 -0.2042
  976MOL0     C28706   9.977   9.398   6.293  0.1275 -0.4409 -1.0844
  976MOL0     C28707   9.927   9.438   6.173 -0.7494 -0.3127 -0.6541
  976MOL0     O28708   9.815   9.370   6.134 -0.1106 -0.3592  0.0877
  976MOL0     C28709   9.765   9.392   6.001 -0.3469  0.0812  0.2771
  976MOL0     C28710   9.625   9.325   5.967 -0.3720 -0.0677 -0.2793
  976MOL0     C28711   9.523   9.361   6.074  0.0439 -0.1898  0.1696
  976MOL0     C28712   9.385   9.304   6.045 -0.1878  0.2071 -0.5222
  976MOL0     C28713   9.296   9.356   6.160 -0.2262  0.0234  0.5000
  976MOL0     C28714   9.149   9.310   6.167  0.4925 -0.3162 -0.1177
  976MOL0     C28715   9.068   9.411   6.242  0.2481 -0.9767  0.0287
  976MOL0     C28716   8.915   9.387   6.264 -0.6499 -0.0543  0.1611
  976MOL0     N28717   8.857   9.498   6.344 -0.5949  0.5746  0.5553
  976MOL0     C28718   8.919   9.556   6.458 -0.7035 -0.7269  0.5058
  976MOL0     C28719   8.826   9.652   6.499 -0.2779  0.7744  0.2227
  976MOL0     C28720   8.828   9.761   6.613  0.1222  1.2162  0.9163
  976MOL0     C28721   8.792   9.690   6.749  0.2455 -0.1825  0.3451
  976MOL0     C28722   8.751   9.784   6.858  1.1374  0.5740  0.2962
  976MOL0     C28723   8.755   9.723   6.997 -0.1774 -0.3751 -0.4065
  976MOL0     O28724   8.672   9.804   7.078 -0.2511  0.3378  0.0057
  976MOL0     C28725   8.548   9.766   7.118 -0.7033 -0.2085 -0.7874
  976MOL0     C28726   8.454   9.865   7.135 -1.8898 -1.0169 -0.3648
  976MOL0     C28727   8.325   9.835   7.185 -0.1766 -0.4951  0.4091
  976MOL0     C28728   8.284   9.705   7.201  0.5540  0.3030  0.0803
  976MOL0     C28729   8.153   9.670   7.257 -0.1324  0.3784 -0.0522
  976MOL0     O28730   8.071   9.765   7.311 -0.4847  0.4927  0.4448
  976MOL0     C28731   7.947   9.723   7.354  0.2172  0.1011 -0.6229
  976MOL0     C28732   7.853   9.655   7.278 -0.4983 -0.8303  0.5859
  976MOL0     C28733   7.721   9.637   7.313 -0.3670  0.4087 -0.2902
  976MOL0     C28734   7.672   9.681   7.436 -0.1912  0.0972  0.1363
  976MOL0     O28735   7.547   9.655   7.460  0.6302 -0.0103  0.2114
  976MOL0     C28736   7.445   9.752   7.427 -0.3553  0.6182 -0.2869
  976MOL0     C28737   7.307   9.679   7.416 -0.7247  0.1123 -0.2832
  976MOL0     C28738   7.197   9.793   7.406 -0.3229  0.8533 -0.3383
  976MOL0     C28739   7.059   9.722   7.409 -0.5480  0.2621 -0.8326
  976MOL0     C28740   6.968   9.789   7.303  0.9611 -0.1788  0.0178
  976MOL0     C28741   6.820   9.732   7.311 -0.0613 -0.8369 -0.3566
  976MOL0     C28742   6.741   9.807   7.199  0.0694 -0.3262  0.2700
  976MOL0     C28743   6.593   9.777   7.204 -0.9664  0.4902  0.7714
  976MOL0    Cl28744   6.534   9.796   7.370  0.3761  0.0175  0.0967
  976MOL0     C28745   7.767   9.725   7.532  0.5919  0.2708 -0.4594
  976MOL0     C28746   7.897   9.758   7.488 -0.1300 -0.8809  0.0021
  976MOL0     O28747   8.125   9.552   7.242  0.0520  0.1164  0.1253
  976MOL0     C28748   8.375   9.604   7.186 -0.5201  0.4310  0.5129
  976MOL0     C28749   8.511   9.632   7.146 -0.1268 -0.6226  0.1397
  976MOL0     N28750   8.721   9.645   6.409  1.3965 -0.3721  0.6978
  976MOL0     N28751   8.733   9.556   6.318 -0.2075 -0.1466 -0.8161
  976MOL0     C28752  10.005   9.528   6.097 -0.1232  0.0382 -0.0415
  976MOL0     C28753  10.119   9.591   6.166 -0.2524 -0.3748  0.8079
  976MOL0     C28754  10.467   9.674   6.476  0.1890 -0.5032  0.8027
  976MOL0     C28755  10.507   9.767   6.379  0.0854  0.0562 -0.2916
  976MOL0     C28756  10.628   9.835   6.391 -0.3894 -0.0214  0.1603
  976MOL0     C28757  10.699   9.829   6.515 -0.8682  0.0148 -0.4550
  976MOL0     O28758  10.813   9.903   6.541  0.7518  0.1584 -0.3245
  976MOL0     C28759  10.857   9.993   6.440  0.1770  0.3218  0.2583
  976MOL0     C28760  10.974  10.078   6.481 -0.2892  0.6021 -0.4150
  976MOL0     C28761  11.006  10.178   6.378 -0.2853 -0.4282  0.5722
  976MOL0     C28762  11.104  10.124   6.267 -0.4307 -0.4431  0.7732
  976MOL0     C28763  11.021  10.043   6.171 -0.1771 -0.0883  0.3510
  976MOL0     C28764  10.946  10.011   6.080 -1.1755  0.4258  0.0348
  976MOL0     C28765  10.660   9.732   6.611  0.0655 -1.0040  0.1239
  976MOL0     C28766  10.545   9.653   6.589 -0.1449  0.1737  0.1358
  976MOL0     H28767  10.141   9.394   6.435 -0.0847  1.1106  0.5990
  976MOL0     H28768   9.917   9.318   6.336 -0.8996  1.6966  1.7434
  976MOL0     H28769   9.837   9.359   5.926 -1.6281 -0.1883 -0.8868
  976MOL0     H28770   9.745   9.499   5.987  1.4547  0.1847 -2.0071
  976MOL0     H28771   9.632   9.216   5.973 -2.7310 -0.3568 -1.8735
  976MOL0     H28772   9.580   9.353   5.872 -0.1321  1.2304 -0.0351
  976MOL0     H28773   9.514   9.469   6.087  1.7363 -0.0073 -0.0145
  976MOL0     H28774   9.567   9.323   6.167  0.8855  1.3343  0.4270
  976MOL0     H28775   9.345   9.318   5.944 -2.5563 -1.0619  0.1487
  976MOL0     H28776   9.401   9.196   6.053 -0.8095  0.1403 -0.0138
  976MOL0     H28777   9.299   9.464   6.141 -3.7045  0.5790  2.1674
  976MOL0     H28778   9.341   9.338   6.258  0.1549  0.7318  0.4622
  976MOL0     H28779   9.146   9.213   6.217  1.8054 -0.5826 -0.5193
  976MOL0     H28780   9.113   9.295   6.065 -0.1162  1.0794 -0.1293
  976MOL0     H28781   9.118   9.419   6.340 -1.0732  2.1802  0.5657
  976MOL0     H28782   9.087   9.511   6.203 -0.3965 -0.0753  1.9048
  976MOL0     H28783   8.912   9.296   6.325 -1.4492 -1.0731 -1.3367
  976MOL0     H28784   8.869   9.365   6.167 -2.0353  0.9602  0.5669
  976MOL0     H28785   9.014   9.537   6.508 -0.3973 -1.6068 -0.3833
  976MOL0     H28786   8.747   9.833   6.598 -1.1956 -0.3839  0.0004
  976MOL0     H28787   8.920   9.820   6.614  1.2097 -0.3575 -0.5442
  976MOL0     H28788   8.875   9.627   6.782  1.6262  1.1308 -0.4567
  976MOL0     H28789   8.711   9.619   6.731 -0.9843  1.3890 -0.5702
  976MOL0     H28790   8.807   9.878   6.860  1.8217  0.1788  0.4108
  976MOL0     H28791   8.647   9.808   6.838  0.9692  0.0141  0.4895
  976MOL0     H28792   8.855   9.712   7.041 -1.5582 -0.8214  2.9654
  976MOL0     H28793   8.708   9.624   6.990 -2.8129  0.7486  0.2085
  976MOL0     H28794   8.501   9.961   7.115 -0.7416 -1.5178 -0.1745
  976MOL0     H28795   8.249   9.907   7.214 -0.9142 -1.6276  1.4246
  976MOL0     H28796   7.885   9.608   7.186  0.0046 -1.7387  1.2078
  976MOL0     H28797   7.654   9.586   7.245 -1.5337  0.8611  0.5086
  976MOL0     H28798   7.473   9.800   7.332 -0.6056  2.2904  0.4536
  976MOL0     H28799   7.442   9.831   7.502 -0.1195  2.3030 -1.9715
  976MOL0     H28800   7.301   9.620   7.507 -0.2576  3.8071  2.3485
  976MOL0     H28801   7.304   9.608   7.332 -0.9073 -0.2868  0.0549
  976MOL0     H28802   7.204   9.852   7.314 -1.4371  0.0276 -0.9844
  976MOL0     H28803   7.202   9.858   7.494  1.5669  2.3098 -1.4292
  976MOL0     H28804   7.069   9.615   7.389 -0.0788 -0.0227  0.7842
  976MOL0     H28805   7.013   9.726   7.507  1.4834 -1.4226  0.2741
  976MOL0     H28806   7.004   9.774   7.201  0.9607  0.6747 -0.1164
  976MOL0     H28807   6.952   9.897   7.312  5.6126  0.5662  1.6351
  976MOL0     H28808   6.791   9.756   7.414  1.8126 -0.7382  0.1870
  976MOL0     H28809   6.817   9.625   7.292 -0.4993 -0.5016 -2.5128
  976MOL0     H28810   6.753   9.915   7.214 -0.4526  0.5617 -4.3332
  976MOL0     H28811   6.787   9.784   7.102 -0.3741 -0.5611  0.1151
  976MOL0     H28812   6.570   9.674   7.173 -0.0702  0.2292  0.9340
  976MOL0     H28813   6.536   9.846   7.142 -3.8604 -0.6898  1.9532
  976MOL0     H28814   7.729   9.757   7.629  0.9712 -1.7978  0.4192
  976MOL0     H28815   7.964   9.809   7.557  0.6469  0.8221 -1.9006
  976MOL0     H28816   8.368   9.499   7.214  1.8454 -0.0498 -0.4424
  976MOL0     H28817   8.568   9.543   7.123  0.3278 -0.1527 -0.6354
  976MOL0     H28818   9.975   9.552   5.995 -1.1986 -0.5386  0.1303
  976MOL0     H28819  10.177   9.661   6.107 -1.4133 -0.9998 -1.1640
  976MOL0     H28820  10.450   9.794   6.290  0.6572  3.8732  0.3357
  976MOL0     H28821  10.680   9.884   6.310 -0.6190  0.2843  0.1957
  976MOL0     H28822  10.770  10.059   6.428 -0.1619  0.2671  2.1204
  976MOL0     H28823  10.870   9.945   6.342 -0.1258  0.6153  0.0715
  976MOL0     H28824  10.961  10.126   6.578  1.0209  0.9889 -0.4220
  976MOL0     H28825  11.061  10.013   6.493  0.8674  1.9913 -0.9692
  976MOL0     H28826  11.058  10.256   6.433 -1.3391  0.7821 -0.1054
  976MOL0     H28827  10.919  10.234   6.342  0.6310  0.9970  0.5096
  976MOL0     H28828  11.148  10.212   6.219 -2.8861 -0.4413 -1.7303
  976MOL0     H28829  11.181  10.065   6.316  1.4801  0.2120 -1.2875
  976MOL0     H28830  10.866   9.996   6.010 -0.7916  2.1741 -0.8369
  976MOL0     H28831  10.716   9.726   6.704  1.8024  0.4342 -0.7641
  976MOL0     H28832  10.511   9.597   6.675  0.9040  0.1059  0.5175
  977MOL0     O28833   5.618  10.212   2.724  0.2048 -0.6752  0.0925
  977MOL0     C28834   5.588  10.126   2.635  0.0103 -0.4367  0.9295
  977MOL0     O28835   5.459  10.074   2.604  0.3756  0.0788  0.1096
  977MOL0     C28836   5.360  10.099   2.695  0.3142  0.1489 -0.5852
  977MOL0     C28837   5.328  10.219   2.754  0.2062  0.6393 -0.3841
  977MOL0     C28838   5.215  10.236   2.830  0.3560 -0.0621  0.9012
  977MOL0     C28839   5.118  10.130   2.842 -0.5148  0.2848 -0.0570
  977MOL0     O28840   5.000  10.133   2.912 -0.1969  0.5382 -0.1942
  977MOL0     C28841   4.962  10.255   2.975  0.0226  0.2775  0.0348
  977MOL0     C28842   4.810  10.251   3.018 -0.2255  0.2648 -0.2349
  977MOL0     C28843   4.784  10.154   3.143  0.5387 -0.2671  1.3823
  977MOL0     C28844   4.639  10.130   3.158  0.6029  0.6431  0.5472
  977MOL0     C28845   4.592  10.081   3.300  0.0743  0.8834 -0.4102
  977MOL0     C28846   4.438  10.078   3.306  0.4673  0.1418 -0.7206
  977MOL0     C28847   4.384   9.967   3.400 -0.0248 -0.3232  0.9862
  977MOL0     C28848   4.231   9.969   3.401 -0.9304  0.6582 -0.2122
  977MOL0     N28849   4.182   9.835   3.441 -0.6202 -0.9879 -0.1192
  977MOL0     C28850   4.207   9.784   3.562  0.7802 -0.3206 -0.8033
  977MOL0     C28851   4.193   9.650   3.552  0.4882 -0.3338 -0.1809
  977MOL0     C28852   4.202   9.552   3.669  0.0574  0.3292 -0.0541
  977MOL0     C28853   4.067   9.510   3.721 -0.3044  0.1026  0.6338
  977MOL0     C28854   4.064   9.389   3.824  0.1552  0.1172  0.0379
  977MOL0     C28855   3.931   9.385   3.883  0.7460 -0.1878  0.0626
  977MOL0     O28856   3.913   9.249   3.939  0.6216 -0.0652 -0.8917
  977MOL0     C28857   3.789   9.205   3.976  0.5657  1.8408  0.3382
  977MOL0     C28858   3.678   9.289   3.978  0.2469  0.2149 -0.4936
  977MOL0     C28859   3.553   9.240   4.026 -0.5564  0.1399  0.6520
  977MOL0     C28860   3.536   9.107   4.071  0.2731  0.1360  0.1285
  977MOL0     C28861   3.400   9.053   4.099  0.0268  0.1417  0.2468
  977MOL0     O28862   3.294   9.136   4.076 -0.1644  0.2398  0.0701
  977MOL0     C28863   3.161   9.102   4.112 -0.4887  0.2743  1.1844
  977MOL0     C28864   3.108   8.965   4.147 -0.0965  0.2649  0.1049
  977MOL0     C28865   2.969   8.942   4.158  0.3856  0.0002 -0.0788
  977MOL0     C28866   2.882   9.050   4.130  0.5432  0.2562  0.8162
  977MOL0     O28867   2.752   9.037   4.148 -0.0829  0.6626 -0.0882
  977MOL0     C28868   2.689   8.925   4.086  0.1953  0.9416  0.1081
  977MOL0     C28869   2.532   8.948   4.074 -0.5537  0.6827 -0.2715
  977MOL0     C28870   2.489   9.002   3.939  0.2062 -0.2433  0.5895
  977MOL0     C28871   2.338   9.001   3.931  0.3168  0.2818 -0.1537
  977MOL0     C28872   2.314   9.087   3.798 -0.0501  0.4297 -0.8240
  977MOL0     C28873   2.164   9.109   3.772  0.3117  0.4815  0.0003
  977MOL0     C28874   2.135   9.216   3.664 -0.1208 -0.0898 -1.0018
  977MOL0     C28875   2.074   9.166   3.536  0.2826  0.2073  0.7561
  977MOL0    Cl28876   2.170   9.046   3.447 -0.1241 -0.0642  0.3346
  977MOL0     C28877   2.931   9.182   4.101  0.1204  0.1925  0.4510
  977MOL0     C28878   3.068   9.203   4.089  0.3531  0.4261 -0.4952
  977MOL0     O28879   3.393   8.954   4.164 -0.2607  0.0147 -0.0970
  977MOL0     C28880   3.653   9.027   4.078  0.4808  0.4851 -0.4482
  977MOL0     C28881   3.773   9.078   4.031 -0.7229 -0.9854  0.5505
  977MOL0     N28882   4.167   9.619   3.420 -0.4247 -0.1694 -0.4781
  977MOL0     N28883   4.159   9.732   3.351  0.4586 -0.6005  0.0193
  977MOL0     C28884   5.145  10.011   2.786 -0.1962 -0.3947 -0.1920
  977MOL0     C28885   5.264   9.994   2.719  0.7717  0.1244 -0.3757
  977MOL0     C28886   5.700  10.065   2.570 -0.2437  0.0892  0.4336
  977MOL0     C28887   5.673   9.974   2.465  0.5020 -0.8226  0.0842
  977MOL0     C28888   5.762   9.938   2.374 -0.0654 -0.6908  0.2661
  977MOL0     C28889   5.900   9.970   2.394  0.7863  0.7756 -0.7830
  977MOL0     O28890   5.988   9.929   2.297  0.2410 -0.6869  0.6173
  977MOL0     C28891   6.129   9.932   2.330  0.7755 -0.2119 -0.2657
  977MOL0     C28892   6.231   9.905   2.207 -0.7151 -0.4264 -0.1806
  977MOL0     C28893   6.232   9.772   2.149 -1.0795  0.9748 -0.2462
  977MOL0     C28894   6.246   9.657   2.254 -1.2094 -0.4899 -0.0630
  977MOL0     C28895   6.384   9.675   2.317  0.0669 -0.2781 -0.4186
  977MOL0     C28896   6.490   9.670   2.373  0.0657 -0.1590  0.3997
  977MOL0     C28897   5.933  10.040   2.516  1.0664 -0.2561  0.1649
  977MOL0     C28898   5.832  10.088   2.603  0.7457  0.5247 -0.0425
  977MOL0     H28899   5.393  10.305   2.741  1.4698  0.1113  1.8563
  977MOL0     H28900   5.203  10.338   2.863  3.1651  0.8236 -0.4950
  977MOL0     H28901   4.970  10.342   2.909 -0.2275 -1.4224 -2.3596
  977MOL0     H28902   5.030  10.271   3.059 -0.2448  3.8958 -0.2841
  977MOL0     H28903   4.745  10.214   2.938 -2.2478 -0.5775  1.7034
  977MOL0     H28904   4.779  10.352   3.046  0.7863  0.7305 -0.7243
  977MOL0     H28905   4.831  10.202   3.229 -0.2720 -0.9380  2.2186
  977MOL0     H28906   4.846  10.065   3.130  0.7758  0.2725 -2.1236
  977MOL0     H28907   4.577  10.219   3.142  0.4220  0.4645  0.2654
  977MOL0     H28908   4.611  10.053   3.086 -2.0798  2.8113 -0.8928
  977MOL0     H28909   4.643  10.155   3.362  4.1022  0.0696 -2.3763
  977MOL0     H28910   4.637   9.986   3.329 -2.8469 -0.8221 -1.0975
  977MOL0     H28911   4.398  10.076   3.205  0.9408  0.8114 -0.9293
  977MOL0     H28912   4.404  10.171   3.353  2.1644  0.0648  0.8077
  977MOL0     H28913   4.411   9.872   3.353  0.3809  0.0622  0.4203
  977MOL0     H28914   4.427   9.966   3.500  1.4218  1.5402  0.4449
  977MOL0     H28915   4.197  10.000   3.302 -0.4195  0.3914 -0.4774
  977MOL0     H28916   4.201  10.043   3.476  1.3263  0.5018  0.9578
  977MOL0     H28917   4.231   9.822   3.661  0.1233  0.1260 -0.8162
  977MOL0     H28918   4.277   9.591   3.738  1.4355 -1.2254 -0.6017
  977MOL0     H28919   4.241   9.457   3.631  2.3359  1.4819 -0.7616
  977MOL0     H28920   3.998   9.489   3.639 -0.3218  2.2543  0.0482
  977MOL0     H28921   4.025   9.603   3.761  4.0378  2.9910 -0.8919
  977MOL0     H28922   4.085   9.294   3.775 -2.2702 -1.3467  1.6016
  977MOL0     H28923   4.140   9.417   3.898 -0.7106 -1.1034  1.4381
  977MOL0     H28924   3.852   9.414   3.812  2.3006  0.8016 -1.3353
  977MOL0     H28925   3.925   9.458   3.963  0.4972  2.3730 -2.1359
  977MOL0     H28926   3.675   9.395   3.953 -1.7945  0.9910  2.4445
  977MOL0     H28927   3.469   9.309   4.027  0.0734  0.9615 -0.3459
  977MOL0     H28928   3.164   8.872   4.151 -2.8658 -1.4586  0.6592
  977MOL0     H28929   2.936   8.839   4.171  1.7505 -0.5565 -0.8245
  977MOL0     H28930   2.703   8.830   4.139 -0.1887 -0.9976 -3.0270
  977MOL0     H28931   2.735   8.910   3.988  0.5004 -0.0482  0.3900
  977MOL0     H28932   2.501   9.010   4.159  1.7323  2.5139 -0.6886
  977MOL0     H28933   2.484   8.850   4.085 -2.6151  1.4648 -1.7055
  977MOL0     H28934   2.525   8.945   3.854  1.1158  2.7713 -1.1860
  977MOL0     H28935   2.539   9.100   3.938  1.7467 -0.9824 -1.7876
  977MOL0     H28936   2.299   8.900   3.919  0.0893 -0.0939  3.0641
  977MOL0     H28937   2.284   9.046   4.014 -0.3625  2.1837 -1.5529
  977MOL0     H28938   2.357   9.039   3.710 -1.3946  0.9457 -1.8174
  977MOL0     H28939   2.338   9.193   3.814 -2.6433  1.0411 -0.3901
  977MOL0     H28940   2.131   9.135   3.874  1.8450  1.3969  0.2965
  977MOL0     H28941   2.128   9.009   3.746  1.1099 -0.2694  1.6090
  977MOL0     H28942   2.077   9.296   3.710  3.1209  1.0173  1.5717
  977MOL0     H28943   2.233   9.256   3.635  0.0580  0.6902  0.5902
  977MOL0     H28944   2.047   9.251   3.473 -0.7930  0.8253  2.0056
  977MOL0     H28945   1.977   9.119   3.556 -0.1913 -0.3017 -2.2938
  977MOL0     H28946   2.869   9.271   4.090  0.9694  0.7772  0.3279
  977MOL0     H28947   3.100   9.299   4.050  1.5377  0.7782  1.2303
  977MOL0     H28948   3.645   8.925   4.115  3.0949  0.2102 -0.4300
  977MOL0     H28949   3.865   9.021   4.036  0.4393  0.8472  1.3850
  977MOL0     H28950   5.064   9.939   2.792 -2.0878  1.6628  0.7347
  977MOL0     H28951   5.278   9.898   2.670 -0.2321 -0.4611  0.4498
  977MOL0     H28952   5.569   9.965   2.433 -0.4705  1.0830  2.3990
  977MOL0     H28953   5.728   9.895   2.281  1.6575 -1.5558 -0.0105
  977MOL0     H28954   6.150   9.861   2.410 -2.3544 -0.0722  0.8067
  977MOL0     H28955   6.159  10.033   2.359  0.7037 -0.4544  0.6813
  977MOL0     H28956   6.212   9.982   2.132 -1.7570  0.3849  0.8720
  977MOL0     H28957   6.330   9.934   2.243 -0.4221 -1.6685  0.0688
  977MOL0     H28958   6.314   9.760   2.078 -0.5441 -0.7523  0.6251
  977MOL0     H28959   6.138   9.753   2.096 -0.8875  1.0003 -0.5987
  977MOL0     H28960   6.172   9.663   2.334  2.4115 -0.3517  3.6378
  977MOL0     H28961   6.228   9.560   2.207 -0.2336 -0.6449 -0.1366
  977MOL0     H28962   6.591   9.665   2.407  0.3019 -1.0394 -0.3858
  977MOL0     H28963   6.035  10.065   2.545  0.3272  1.7947  1.1787
  977MOL0     H28964   5.856  10.159   2.682 -0.6536  0.8047  0.1650
  978MOL0     O28965   4.054   9.729  10.155 -0.1273  0.1440 -0.0395
  978MOL0     C28966   4.125   9.727  10.256 -0.8000 -0.4245 -1.0052
  978MOL0     O28967   4.097   9.800  10.373 -0.5068 -0.5352 -0.1223
  978MOL0     C28968   3.976   9.853  10.412 -0.3107 -0.0436  0.0351
  978MOL0     C28969   3.854   9.832  10.346  0.2909  1.1637 -0.3049
  978MOL0     C28970   3.736   9.875  10.409  0.5160  0.1658 -0.5154
  978MOL0     C28971   3.732   9.951  10.525  0.5117  0.3126  0.4460
  978MOL0     O28972   3.610  10.003  10.562  0.1855 -0.3203  0.0997
  978MOL0     C28973   3.596  10.028  10.700  0.4591  0.2529  0.1326
  978MOL0     C28974   3.507   9.925  10.767 -0.0339 -0.0956 -0.2477
  978MOL0     C28975   3.563   9.786  10.792 -0.1651 -0.1906  0.1035
  978MOL0     C28976   3.479   9.692  10.885 -0.5273 -0.5906  0.4102
  978MOL0     C28977   3.559   9.561  10.910  0.2037  0.0165  0.2324
  978MOL0     C28978   3.475   9.451  10.979 -1.1952  0.3354 -0.6675
  978MOL0     C28979   3.400   9.496  11.109 -0.7953 -0.0006  0.7753
  978MOL0     C28980   3.483   9.532  11.227 -0.5723  0.1426 -0.1450
  978MOL0     N28981   3.400   9.606  11.323  0.0563 -0.3646  0.1560
  978MOL0     C28982   3.347   9.736  11.314 -0.3280  0.4575 -0.3011
  978MOL0     C28983   3.272   9.748  11.429  0.3603  0.1173  0.0797
  978MOL0     C28984   3.204   9.871  11.466 -0.8238 -1.0360  0.4145
  978MOL0     C28985   3.060   9.856  11.515  0.8107  0.5944 -0.4078
  978MOL0     C28986   2.996   9.990  11.526  0.1269  0.4666 -0.5684
  978MOL0     C28987   2.844   9.972  11.529  0.5240 -0.3016  0.6427
  978MOL0     O28988   2.804  10.105  11.554 -0.0039  0.2697 -0.0642
  978MOL0     C28989   2.673  10.148  11.541  0.2770  0.1565 -0.7470
  978MOL0     C28990   2.573  10.048  11.554 -0.3800  0.3332 -0.3735
  978MOL0     C28991   2.440  10.082  11.545 -0.0057  0.3451 -0.1129
  978MOL0     C28992   2.398  10.221  11.547  0.4079  0.0168  0.3053
  978MOL0     C28993   2.256  10.265  11.555  0.1231  0.2309 -0.3143
  978MOL0     O28994   2.220  10.397  11.526  0.2017 -0.1231 -0.1399
  978MOL0     C28995   2.082  10.424  11.517 -1.2180 -0.2563 -0.0781
  978MOL0     C28996   2.057  10.557  11.562  0.4635  0.0007 -0.2714
  978MOL0     C28997   1.918  10.596  11.568 -0.9753  0.6835 -0.8850
  978MOL0     C28998   1.811  10.511  11.528  0.1002  0.6184  0.8005
  978MOL0     O28999   1.696  10.584  11.541 -0.1228  0.2942 -0.4246
  978MOL0     C29000   1.581  10.544  11.479 -0.1834 -0.1938 -0.9490
  978MOL0     C29001   1.476  10.651  11.493  0.2136  0.1697 -0.2051
  978MOL0     C29002   1.447  10.693  11.638  0.9880 -1.0747 -0.1861
  978MOL0     C29003   1.322  10.788  11.635 -0.2333  0.6101 -0.4453
  978MOL0     C29004   1.245  10.786  11.762  0.9687 -0.1688 -1.0628
  978MOL0     C29005   1.154  10.911  11.775  0.4887  0.1801 -0.5076
  978MOL0     C29006   1.012  10.899  11.718 -0.0830 -0.5470  0.3900
  978MOL0     C29007   0.943  11.045  11.712  0.7365  0.7897 -0.1054
  978MOL0    Cl29008   0.776  11.038  11.646 -0.4002 -0.0091  0.0697
  978MOL0     C29009   1.845  10.385  11.485 -0.5574  0.4572 -0.3406
  978MOL0     C29010   1.980  10.342  11.474 -0.3803  0.0183 -0.0749
  978MOL0     O29011   2.176  10.177  11.593 -0.2361 -1.3273  0.0296
  978MOL0     C29012   2.504  10.321  11.547  0.2990 -0.2014  0.7248
  978MOL0     C29013   2.639  10.286  11.548 -0.1314 -0.1527  0.4732
  978MOL0     N29014   3.285   9.639  11.511  0.3178  0.0392  0.2689
  978MOL0     N29015   3.361   9.556  11.447 -1.0133  0.1706  0.5560
  978MOL0     C29016   3.860   9.995  10.581  0.6970  0.1992 -0.1323
  978MOL0     C29017   3.983   9.943  10.524  0.0025 -0.5886 -0.6640
  978MOL0     C29018   4.250   9.656  10.261  0.4885  0.0996 -0.5581
  978MOL0     C29019   4.341   9.676  10.368  0.0603 -0.0804 -0.2859
  978MOL0     C29020   4.465   9.612  10.372  1.1257  0.7996  0.0474
  978MOL0     C29021   4.501   9.516  10.279  0.9959 -1.4178  0.0418
  978MOL0     O29022   4.614   9.451  10.284  0.2210 -0.0698  0.2157
  978MOL0     C29023   4.643   9.377  10.408 -0.0445 -0.1150  0.2391
  978MOL0     C29024   4.601   9.227  10.399  0.1045  0.5904 -1.1286
  978MOL0     C29025   4.443   9.204  10.400  0.4788  0.3340 -0.5444
  978MOL0     C29026   4.397   9.056  10.386 -0.4245 -0.1929 -0.4871
  978MOL0     C29027   4.446   8.974  10.266 -0.1308 -0.3373 -0.2875
  978MOL0     C29028   4.480   8.903  10.178  0.2115  0.2379 -0.4788
  978MOL0     C29029   4.412   9.489  10.174  0.0477  0.4735 -0.5138
  978MOL0     C29030   4.301   9.569  10.157 -0.7654  0.2287 -1.0266
  978MOL0     H29031   3.837   9.766  10.261 -2.0636 -0.5089  1.3365
  978MOL0     H29032   3.644   9.838  10.365 -0.2345  4.5173 -3.3566
  978MOL0     H29033   3.552  10.126  10.719  3.5374  1.3308  2.4654
  978MOL0     H29034   3.689  10.032  10.757  0.9267 -1.4589 -0.4180
  978MOL0     H29035   3.417   9.917  10.704 -0.0486 -0.7644 -0.1532
  978MOL0     H29036   3.470   9.965  10.861 -1.1953 -2.2136  0.2760
  978MOL0     H29037   3.665   9.807  10.824 -0.0950  2.5580 -1.6177
  978MOL0     H29038   3.575   9.738  10.695 -2.5158  0.4024 -0.5502
  978MOL0     H29039   3.449   9.734  10.982  2.9330  2.9590  0.1701
  978MOL0     H29040   3.387   9.684  10.827 -0.3614  2.9740 -0.5452
  978MOL0     H29041   3.650   9.576  10.969 -0.2810  0.2107  0.9398
  978MOL0     H29042   3.582   9.521  10.811 -0.8925  2.6466 -1.1990
  978MOL0     H29043   3.544   9.368  10.998 -1.3194  0.5558  0.8548
  978MOL0     H29044   3.396   9.423  10.908  0.4729 -1.9629 -1.7724
  978MOL0     H29045   3.345   9.588  11.089  3.3924  2.9103  1.1569
  978MOL0     H29046   3.332   9.416  11.136 -0.9582 -0.5813 -1.1582
  978MOL0     H29047   3.556   9.609  11.202  2.8732 -2.3860  1.4057
  978MOL0     H29048   3.542   9.449  11.266  1.1509  1.0249 -0.7788
  978MOL0     H29049   3.351   9.809  11.234 -0.8026 -0.1992 -0.9358
  978MOL0     H29050   3.199   9.934  11.377 -0.7894  1.8106  2.2952
  978MOL0     H29051   3.255   9.937  11.538 -0.1551 -1.2664  0.1619
  978MOL0     H29052   3.060   9.805  11.611  2.4309  0.0963 -0.6332
  978MOL0     H29053   2.993   9.809  11.442  1.1638  1.2933 -1.2060
  978MOL0     H29054   3.029  10.032  11.621  0.3483 -0.9019 -0.0295
  978MOL0     H29055   3.002  10.054  11.437 -0.4571  2.2013  0.5890
  978MOL0     H29056   2.809   9.904  11.607  1.5598 -1.3077  0.2720
  978MOL0     H29057   2.807   9.931  11.434 -0.2186  1.0163  0.3451
  978MOL0     H29058   2.594   9.941  11.559  1.5431  0.6111 -1.5161
  978MOL0     H29059   2.365  10.004  11.546 -0.6474  0.9518  0.6050
  978MOL0     H29060   2.127  10.630  11.601 -0.3860  0.1300  1.0844
  978MOL0     H29061   1.888  10.693  11.604 -1.5718 -0.2183  1.1971
  978MOL0     H29062   1.546  10.445  11.509 -3.0031  0.9977  0.0693
  978MOL0     H29063   1.597  10.531  11.372 -0.5810 -0.7487 -0.9451
  978MOL0     H29064   1.390  10.599  11.450 -0.7224 -0.0823  1.8361
  978MOL0     H29065   1.503  10.739  11.433  1.6119 -0.1012 -0.0201
  978MOL0     H29066   1.524  10.740  11.699 -0.5289  0.9256  0.3172
  978MOL0     H29067   1.419  10.605  11.697 -0.3219  0.9146  2.4170
  978MOL0     H29068   1.353  10.891  11.612  0.0902  0.3188 -1.3550
  978MOL0     H29069   1.265  10.753  11.548  0.5904  0.8888 -1.1028
  978MOL0     H29070   1.316  10.801  11.843  4.7153  1.8651 -4.3932
  978MOL0     H29071   1.200  10.691  11.793  0.4368  0.0660 -1.1011
  978MOL0     H29072   1.200  10.997  11.726  1.9172  0.1652  0.7446
  978MOL0     H29073   1.151  10.938  11.881 -1.0517  1.0626 -0.7433
  978MOL0     H29074   1.006  10.866  11.614 -2.2085  0.4134  0.1554
  978MOL0     H29075   0.950  10.831  11.776  1.3865 -0.1156  2.6060
  978MOL0     H29076   1.003  11.111  11.649  1.3999  1.1263  0.8462
  978MOL0     H29077   0.938  11.093  11.810 -2.8088 -1.5020  1.0240
  978MOL0     H29078   1.766  10.320  11.450 -0.9913  2.2549 -2.9414
  978MOL0     H29079   2.006  10.250  11.423  0.7365  0.6575 -0.7144
  978MOL0     H29080   2.480  10.427  11.554  1.1629 -0.0990  3.1570
  978MOL0     H29081   2.723  10.355  11.542  0.3835 -0.9020 -2.4724
  978MOL0     H29082   3.862  10.073  10.656  1.8159  1.4648 -1.4326
  978MOL0     H29083   4.081   9.981  10.552  0.5970 -0.4141 -2.8295
  978MOL0     H29084   4.322   9.735  10.457  0.1455 -0.5797  0.0673
  978MOL0     H29085   4.539   9.630  10.449 -0.6347 -1.6539  2.5443
  978MOL0     H29086   4.582   9.405  10.494 -0.7832 -0.3761 -0.1979
  978MOL0     H29087   4.749   9.400  10.422  0.7890 -0.9472 -3.5585
  978MOL0     H29088   4.638   9.185  10.305  1.7701 -2.2684  0.6356
  978MOL0     H29089   4.648   9.171  10.481 -0.6104  0.2982 -0.9093
  978MOL0     H29090   4.404   9.260  10.314  2.6254  3.5540  0.3684
  978MOL0     H29091   4.397   9.247  10.490  0.1891 -0.4601 -0.3106
  978MOL0     H29092   4.431   9.015  10.482  1.5746  0.0713 -1.0269
  978MOL0     H29093   4.289   9.041  10.386 -0.5526  0.6780 -0.2302
  978MOL0     H29094   4.512   8.850  10.090  0.3135  1.0850 -0.9641
  978MOL0     H29095   4.451   9.416  10.104  4.0542 -1.0707  2.8922
  978MOL0     H29096   4.234   9.558  10.072 -1.0937  3.5127 -1.3348
  979MOL0     O29097   0.007   7.136   4.468  0.3964 -0.0627 -0.1231
  979MOL0     C29098   0.030   7.239   4.403  0.4993  0.5128 -0.6527
  979MOL0     O29099   0.155   7.284   4.373 -0.3758 -0.0692  0.4373
  979MOL0     C29100   0.270   7.220   4.416 -1.1376 -0.1272  0.0471
  979MOL0     C29101   0.375   7.296   4.441 -0.1664 -0.1462  0.9129
  979MOL0     C29102   0.502   7.251   4.485  0.9651  0.0074  0.0046
  979MOL0     C29103   0.524   7.114   4.491  0.1643  0.1896  0.5769
  979MOL0     O29104   0.643   7.055   4.544 -0.4936  0.0804 -0.0092
  979MOL0     C29105   0.672   7.076   4.684  0.0090  0.4170  0.6735
  979MOL0     C29106   0.668   6.934   4.744  0.7891  0.2219 -0.8873
  979MOL0     C29107   0.529   6.888   4.783  0.5443 -0.5442  0.0037
  979MOL0     C29108   0.531   6.744   4.833  0.9968 -0.4584  0.1499
  979MOL0     C29109   0.499   6.651   4.725 -0.4257  0.0855  0.2116
  979MOL0     C29110   0.351   6.642   4.686  1.0147  0.5674  0.5059
  979MOL0     C29111   0.334   6.536   4.572  0.5705 -0.1065  0.0200
  979MOL0     C29112   0.382   6.397   4.602 -0.3325 -0.3010  0.1325
  979MOL0     N29113   0.343   6.311   4.492  0.0421  1.0762  1.0534
  979MOL0     C29114   0.217   6.270   4.445  0.2795  0.2241 -0.2316
  979MOL0     C29115   0.236   6.179   4.342 -0.8400 -0.0912  0.2603
  979MOL0     C29116   0.142   6.108   4.249 -0.3082 -0.4416  0.8461
  979MOL0     C29117   0.022   6.065   4.314  0.1027  1.0568  0.0851
  979MOL0     C29118  -0.081   5.999   4.219  0.3608  0.5265  0.4317
  979MOL0     C29119  -0.209   5.942   4.273 -0.2448 -0.6415 -0.3177
  979MOL0     O29120  -0.319   5.999   4.200  0.1458  0.0394 -0.1244
  979MOL0     C29121  -0.449   5.966   4.221 -0.1641  0.0792  0.7867
  979MOL0     C29122  -0.489   5.843   4.283 -0.0256 -0.3952 -0.1652
  979MOL0     C29123  -0.628   5.821   4.285 -0.2098  0.5610  1.0253
  979MOL0     C29124  -0.719   5.900   4.224 -0.1438  0.3691  0.2241
  979MOL0     C29125  -0.867   5.868   4.215 -0.0083  0.1771  0.0892
  979MOL0     O29126  -0.945   5.935   4.123 -0.3944 -0.1987  0.8955
  979MOL0     C29127  -1.077   5.929   4.110  0.1751 -0.7665  0.0733
  979MOL0     C29128  -1.162   5.893   4.218 -0.2517  1.2761  0.0951
  979MOL0     C29129  -1.300   5.868   4.199 -0.5921 -0.4109 -0.3923
  979MOL0     C29130  -1.352   5.892   4.069  0.7865 -0.0479 -0.5581
  979MOL0     O29131  -1.486   5.897   4.036  0.0785 -0.5552 -0.7954
  979MOL0     C29132  -1.589   5.931   4.135 -0.2953  0.2375  0.5936
  979MOL0     C29133  -1.725   5.979   4.060 -0.0599 -0.8826  0.2299
  979MOL0     C29134  -1.753   5.878   3.938  0.0375 -0.1172 -0.0570
  979MOL0     C29135  -1.859   5.945   3.846  0.7590 -0.2134 -0.0624
  979MOL0     C29136  -1.929   5.841   3.750  0.7290  0.5332  0.4029
  979MOL0     C29137  -1.835   5.787   3.644 -0.2379 -0.0718  0.4919
  979MOL0     C29138  -1.896   5.703   3.527 -0.0192 -0.2957 -0.5383
  979MOL0     C29139  -1.905   5.560   3.560  0.1045 -0.8871 -0.2852
  979MOL0    Cl29140  -1.755   5.481   3.621 -0.0737 -0.3037  0.4044
  979MOL0     C29141  -1.269   5.930   3.962  0.8283  0.3015  0.2376
  979MOL0     C29142  -1.135   5.958   3.985  0.4939  0.2276 -0.3813
  979MOL0     O29143  -0.907   5.784   4.300 -0.3617  0.1377 -0.2035
  979MOL0     C29144  -0.677   6.017   4.154 -0.2979 -0.4309  0.3073
  979MOL0     C29145  -0.544   6.048   4.163 -0.0525 -0.5956 -0.0612
  979MOL0     N29146   0.375   6.168   4.327 -0.5812  0.1972  0.0362
  979MOL0     N29147   0.438   6.244   4.412  0.4014  0.3409 -0.1430
  979MOL0     C29148   0.416   7.032   4.449 -1.0550  0.3067  1.0644
  979MOL0     C29149   0.289   7.085   4.422  0.0627 -0.7661 -0.4864
  979MOL0     C29150  -0.091   7.316   4.362  0.5345 -0.5994 -0.6894
  979MOL0     C29151  -0.221   7.270   4.345 -0.8981 -0.0699 -0.0006
  979MOL0     C29152  -0.322   7.348   4.295  1.0816 -0.4372  0.9850
  979MOL0     C29153  -0.300   7.478   4.273  0.5005  0.2463  0.2580
  979MOL0     O29154  -0.391   7.562   4.231  0.2465  0.0633 -0.1402
  979MOL0     C29155  -0.532   7.551   4.265 -0.7286  0.0665 -0.0059
  979MOL0     C29156  -0.585   7.691   4.238  0.0756 -0.1345 -0.4997
  979MOL0     C29157  -0.536   7.787   4.341 -0.6802 -0.4040 -0.1498
  979MOL0     C29158  -0.643   7.898   4.350 -0.5688  0.5584  0.2354
  979MOL0     C29159  -0.591   8.016   4.409  1.0663  0.3448 -0.2452
  979MOL0     C29160  -0.531   8.119   4.444 -0.8221 -0.2634 -0.3825
  979MOL0     C29161  -0.171   7.536   4.293  0.6980  1.1559 -0.2450
  979MOL0     C29162  -0.067   7.450   4.329  0.0461  0.4907  0.0908
  979MOL0     H29163   0.367   7.403   4.425 -1.5076  0.2244  3.4060
  979MOL0     H29164   0.580   7.317   4.520  0.4089  0.5190  0.3046
  979MOL0     H29165   0.611   7.150   4.737 -1.3726  1.7718 -2.5399
  979MOL0     H29166   0.777   7.107   4.691  0.6687 -0.2588 -3.4679
  979MOL0     H29167   0.727   6.939   4.836  0.1157  1.4782 -0.4915
  979MOL0     H29168   0.726   6.867   4.681  0.7097  1.7085 -2.6358
  979MOL0     H29169   0.461   6.895   4.698  1.8898 -0.6101 -1.1024
  979MOL0     H29170   0.498   6.963   4.856 -1.9649 -0.5984 -0.9149
  979MOL0     H29171   0.623   6.711   4.882  0.0175 -0.5496  2.0094
  979MOL0     H29172   0.453   6.735   4.908  0.3787  3.8216  0.2784
  979MOL0     H29173   0.530   6.551   4.759  0.1139 -0.3065 -1.3137
  979MOL0     H29174   0.555   6.673   4.634  1.4640 -3.3557  0.3300
  979MOL0     H29175   0.324   6.744   4.655  0.9685  0.1210 -1.0257
  979MOL0     H29176   0.290   6.616   4.773 -3.0300  2.3552 -1.4972
  979MOL0     H29177   0.227   6.530   4.552  0.1451  4.9511 -0.4717
  979MOL0     H29178   0.377   6.579   4.481 -2.3776  0.3456 -1.2707
  979MOL0     H29179   0.333   6.356   4.691  2.9830 -2.1432  1.3000
  979MOL0     H29180   0.490   6.386   4.616  0.6743  2.9247 -3.4609
  979MOL0     H29181   0.120   6.308   4.477 -0.4612 -2.1558  0.5449
  979MOL0     H29182   0.181   6.026   4.187 -0.3986 -0.0637  0.2780
  979MOL0     H29183   0.118   6.189   4.180  1.4872  1.3588  2.2344
  979MOL0     H29184  -0.014   6.160   4.355  2.3541  0.9114  2.7724
  979MOL0     H29185   0.037   6.013   4.410  1.2929  1.2346  0.0198
  979MOL0     H29186  -0.116   6.071   4.144  1.8566  1.9580  1.0360
  979MOL0     H29187  -0.019   5.920   4.176  0.2893 -0.1634  1.5619
  979MOL0     H29188  -0.221   5.975   4.377 -2.7199 -0.8940 -0.4435
  979MOL0     H29189  -0.211   5.833   4.266  0.8071 -0.5959 -1.9111
  979MOL0     H29190  -0.414   5.782   4.333  1.3053  1.9705  0.8498
  979MOL0     H29191  -0.654   5.731   4.341 -0.4481  0.2812  0.4680
  979MOL0     H29192  -1.121   5.862   4.313 -0.0224 -0.5596 -0.5622
  979MOL0     H29193  -1.361   5.842   4.285  0.6234  1.4410  1.1133
  979MOL0     H29194  -1.561   6.013   4.202 -3.2985  2.9228 -1.1483
  979MOL0     H29195  -1.614   5.844   4.197 -2.5698 -0.6313 -1.3938
  979MOL0     H29196  -1.699   6.070   4.005  1.8509 -1.2902  0.3883
  979MOL0     H29197  -1.813   5.983   4.124  0.7780 -0.7232  1.4103
  979MOL0     H29198  -1.802   5.787   3.973 -5.3013  2.9118  1.4807
  979MOL0     H29199  -1.661   5.873   3.878  0.0306 -0.2952 -0.0527
  979MOL0     H29200  -1.943   5.973   3.910 -3.1918 -2.9023 -3.4747
  979MOL0     H29201  -1.823   6.039   3.803 -0.8076  0.8560  0.8485
  979MOL0     H29202  -2.007   5.898   3.699  0.3899  1.1164  1.5541
  979MOL0     H29203  -1.986   5.769   3.809 -2.4149  3.3028  1.0547
  979MOL0     H29204  -1.760   5.738   3.707 -0.0440  1.5400  1.5780
  979MOL0     H29205  -1.790   5.879   3.606 -1.3700  0.8160  1.2227
  979MOL0     H29206  -1.997   5.743   3.516 -0.6801 -1.5520  0.6549
  979MOL0     H29207  -1.843   5.727   3.435  1.9910  0.3813  0.7216
  979MOL0     H29208  -1.959   5.517   3.475 -3.2788  1.1027  0.6812
  979MOL0     H29209  -1.979   5.550   3.639 -0.9703 -1.0110 -1.2863
  979MOL0     H29210  -1.306   5.953   3.863 -1.5620  0.5161  1.1149
  979MOL0     H29211  -1.065   5.983   3.906  0.5760  3.1444  0.4694
  979MOL0     H29212  -0.752   6.077   4.104 -0.5751 -0.9929  0.0362
  979MOL0     H29213  -0.509   6.139   4.115 -2.1389  0.0211 -0.4998
  979MOL0     H29214   0.444   6.927   4.452  3.3703  1.3032  2.2130
  979MOL0     H29215   0.208   7.014   4.408 -1.7360  0.9053  0.9846
  979MOL0     H29216  -0.248   7.165   4.343  1.4317 -0.7816  1.3886
  979MOL0     H29217  -0.422   7.310   4.280  0.0822  1.7954  1.5619
  979MOL0     H29218  -0.543   7.526   4.371 -0.4973 -2.5353 -0.5376
  979MOL0     H29219  -0.578   7.472   4.206  1.9733 -0.7976 -1.1122
  979MOL0     H29220  -0.568   7.725   4.136 -0.5939  0.6827 -0.3487
  979MOL0     H29221  -0.692   7.673   4.250  0.4749 -1.8742  0.9997
  979MOL0     H29222  -0.443   7.829   4.301  0.0414 -4.8557 -4.0075
  979MOL0     H29223  -0.515   7.735   4.435  2.3898 -3.9383 -2.5241
  979MOL0     H29224  -0.691   7.924   4.255 -0.0978  2.7285  0.5304
  979MOL0     H29225  -0.727   7.864   4.412 -1.0132  1.0450 -0.0877
  979MOL0     H29226  -0.459   8.192   4.476 -2.2959  0.7880  0.7077
  979MOL0     H29227  -0.135   7.634   4.263  1.6363 -0.1444 -3.7793
  979MOL0     H29228   0.035   7.487   4.342  0.1913  0.1870 -0.1687
  980MOL0     O29229   8.306   5.421   5.753  0.7784 -0.1986  0.2504
  980MOL0     C29230   8.350   5.443   5.869  0.3871 -0.0659 -0.0542
  980MOL0     O29231   8.284   5.421   5.986  0.3809  0.0876 -0.6687
  980MOL0     C29232   8.167   5.358   5.996 -0.0464  1.1747  0.5291
  980MOL0     C29233   8.071   5.349   5.895 -0.2350  0.2154  0.1546
  980MOL0     C29234   7.962   5.258   5.895 -0.6185 -0.3159 -0.8063
  980MOL0     C29235   7.958   5.165   6.000  0.1831 -0.6487 -0.7724
  980MOL0     O29236   7.869   5.061   5.993  0.2396  0.4466 -0.4824
  980MOL0     C29237   7.793   5.023   5.879 -0.4249  0.1403  0.1802
  980MOL0     C29238   7.649   5.081   5.892 -0.4068  0.1888  1.7403
  980MOL0     C29239   7.559   5.021   5.782  0.2497  0.1414  0.3122
  980MOL0     C29240   7.418   5.080   5.793  0.6659  0.4510  0.2417
  980MOL0     C29241   7.323   5.011   5.693 -0.2251  0.2726  0.5735
  980MOL0     C29242   7.188   5.088   5.698 -0.4590  0.3912  0.4362
  980MOL0     C29243   7.081   5.016   5.615 -0.3448 -0.4576  0.2653
  980MOL0     C29244   6.972   4.949   5.708 -0.2408  0.0182 -0.1242
  980MOL0     N29245   6.868   4.870   5.630  0.6534 -0.3513 -0.6690
  980MOL0     C29246   6.898   4.749   5.582  1.0050 -0.1828  0.7276
  980MOL0     C29247   6.782   4.690   5.558 -0.0024 -0.2964 -0.8450
  980MOL0     C29248   6.751   4.553   5.505  0.2761  0.2727  0.1769
  980MOL0     C29249   6.864   4.496   5.419 -0.2851  0.5344 -0.2910
  980MOL0     C29250   6.849   4.346   5.406 -0.3282 -1.4113 -0.4594
  980MOL0     C29251   6.952   4.289   5.303 -0.3401 -0.8799  0.5241
  980MOL0     O29252   6.919   4.151   5.268  0.7406  0.3326 -0.0292
  980MOL0     C29253   6.838   4.125   5.157 -1.2317 -0.7024  0.3756
  980MOL0     C29254   6.811   3.989   5.137 -0.3848  0.0825  0.6259
  980MOL0     C29255   6.723   3.949   5.041  0.2361 -0.5505  0.2046
  980MOL0     C29256   6.679   4.037   4.941 -0.8169 -0.3764  0.2736
  980MOL0     C29257   6.583   4.006   4.835  0.1163 -0.3258 -0.1169
  980MOL0     O29258   6.533   4.102   4.761  0.5880 -0.0113  0.0011
  980MOL0     C29259   6.452   4.077   4.656 -0.0007  0.6607  0.1357
  980MOL0     C29260   6.485   4.106   4.523  0.3035 -0.2768  0.3960
  980MOL0     C29261   6.387   4.095   4.427 -0.0791  0.4107  0.3199
  980MOL0     C29262   6.257   4.056   4.460 -0.6315 -0.4250  0.1314
  980MOL0     O29263   6.165   4.027   4.367 -0.4121 -0.7780 -0.5790
  980MOL0     C29264   6.157   4.112   4.253  0.6356  0.5042 -0.1338
  980MOL0     C29265   6.000   4.132   4.226  0.0928 -0.4884 -0.0391
  980MOL0     C29266   5.923   4.013   4.177 -0.2817  0.2004 -0.5974
  980MOL0     C29267   5.771   4.033   4.167 -0.1467  0.2945 -0.4989
  980MOL0     C29268   5.713   3.916   4.081  0.5956 -0.8542 -1.2169
  980MOL0     C29269   5.567   3.887   4.113  0.7933 -0.2523  0.3944
  980MOL0     C29270   5.499   3.810   4.003 -0.6802  0.1324  0.6447
  980MOL0     C29271   5.460   3.896   3.889 -0.6616 -0.1560 -0.3104
  980MOL0    Cl29272   5.296   3.975   3.928 -0.0209  0.3861 -0.1070
  980MOL0     C29273   6.219   4.034   4.601 -0.5148  0.3717 -0.0419
  980MOL0     C29274   6.320   4.040   4.695 -0.1180  0.1775 -0.7366
  980MOL0     O29275   6.577   3.886   4.806 -0.2448 -0.2368 -1.2959
  980MOL0     C29276   6.706   4.171   4.963  0.0846 -0.5952  0.0368
  980MOL0     C29277   6.774   4.216   5.072 -0.2715 -0.9520  0.1310
  980MOL0     N29278   6.680   4.785   5.591 -0.4205  0.1271 -0.2031
  980MOL0     N29279   6.730   4.899   5.625 -0.1927 -0.6478  0.0432
  980MOL0     C29280   8.040   5.179   6.109 -0.8207 -0.4930  0.4305
  980MOL0     C29281   8.147   5.266   6.101 -0.3941 -0.0082  1.1200
  980MOL0     C29282   8.493   5.482   5.873  0.0270 -0.3172 -0.6676
  980MOL0     C29283   8.575   5.484   5.762 -0.4660 -0.5007  0.5767
  980MOL0     C29284   8.711   5.519   5.762  0.4201 -0.8524  0.2342
  980MOL0     C29285   8.770   5.560   5.879  0.3569  0.1043 -0.2891
  980MOL0     O29286   8.897   5.601   5.905  0.1320  0.1379 -0.5391
  980MOL0     C29287   8.993   5.591   5.798  0.5777 -0.5180 -0.1009
  980MOL0     C29288   9.131   5.641   5.845  0.1022  1.1161 -0.4560
  980MOL0     C29289   9.198   5.575   5.968  0.1579 -0.4024  0.0999
  980MOL0     C29290   9.330   5.642   6.002 -0.4826 -0.4473 -0.1451
  980MOL0     C29291   9.433   5.629   5.905  0.0282  0.0902  0.5457
  980MOL0     C29292   9.517   5.612   5.818  0.3629  0.2959  0.1247
  980MOL0     C29293   8.691   5.547   5.996 -0.6699  0.1204  0.1507
  980MOL0     C29294   8.552   5.516   5.991  0.0007 -0.5551 -0.3397
  980MOL0     H29295   8.070   5.419   5.812  0.4826  0.2129  0.1300
  980MOL0     H29296   7.880   5.273   5.826  0.2654 -0.5011 -1.9291
  980MOL0     H29297   7.785   4.914   5.891  1.8480 -0.1879 -0.7974
  980MOL0     H29298   7.848   5.047   5.787  0.6694  0.4233  0.8877
  980MOL0     H29299   7.653   5.185   5.860  2.8577 -0.2872  0.2391
  980MOL0     H29300   7.604   5.086   5.992 -2.1687  1.9010  0.9169
  980MOL0     H29301   7.550   4.915   5.804 -0.5695  0.0944 -0.2164
  980MOL0     H29302   7.601   5.035   5.682  2.7304  0.6169  1.3483
  980MOL0     H29303   7.379   5.075   5.895 -2.8045  0.7079 -0.9221
  980MOL0     H29304   7.424   5.187   5.769 -0.1195  0.6890  1.0507
  980MOL0     H29305   7.309   4.905   5.714  1.0023 -0.0214 -0.0520
  980MOL0     H29306   7.368   5.013   5.594  0.1539  0.4964  0.7468
  980MOL0     H29307   7.212   5.181   5.646  1.3357  0.6723  1.6870
  980MOL0     H29308   7.168   5.120   5.801  2.2023  3.0429  0.2312
  980MOL0     H29309   7.018   5.081   5.554 -3.8090 -1.6540  2.2665
  980MOL0     H29310   7.123   4.937   5.552 -2.1517  0.2918 -2.0021
  980MOL0     H29311   6.929   5.028   5.769  3.3849  2.7680 -0.8260
  980MOL0     H29312   7.019   4.883   5.781  0.4808  1.2473  0.5496
  980MOL0     H29313   6.994   4.698   5.574 -0.5100 -3.1639  0.3269
  980MOL0     H29314   6.657   4.550   5.450  1.0547  0.8826 -1.2489
  980MOL0     H29315   6.740   4.496   5.597  0.2662 -1.5323 -0.8892
  980MOL0     H29316   6.959   4.524   5.466 -0.1977 -0.3934  0.0969
  980MOL0     H29317   6.858   4.540   5.318 -3.4367 -0.5243 -0.6742
  980MOL0     H29318   6.858   4.305   5.508 -2.2112  0.2407  0.4368
  980MOL0     H29319   6.753   4.314   5.365 -0.0061  0.2883 -2.6721
  980MOL0     H29320   7.055   4.289   5.339 -0.2578  2.1705  0.5108
  980MOL0     H29321   6.952   4.354   5.216  2.0592  0.4023  1.3929
  980MOL0     H29322   6.838   3.916   5.212 -0.6868  0.0031  0.6559
  980MOL0     H29323   6.699   3.843   5.048  0.3485 -0.4949  1.7484
  980MOL0     H29324   6.577   4.157   4.495 -0.0945  1.1121  1.4735
  980MOL0     H29325   6.417   4.132   4.329 -1.2553 -1.1417 -0.6703
  980MOL0     H29326   6.201   4.064   4.165  2.4463 -0.9900  1.4919
  980MOL0     H29327   6.204   4.211   4.261  0.9694  0.2506  1.1603
  980MOL0     H29328   5.983   4.211   4.153 -0.2292 -0.2286  0.3157
  980MOL0     H29329   5.947   4.168   4.314 -3.0555  1.0282 -2.3716
  980MOL0     H29330   5.947   3.922   4.233  2.2768  2.3924  2.1964
  980MOL0     H29331   5.965   4.006   4.076 -0.2771 -1.7012 -0.5080
  980MOL0     H29332   5.725   4.042   4.266  2.0509 -2.1009  0.8748
  980MOL0     H29333   5.753   4.128   4.116  0.1210 -0.5793 -2.3134
  980MOL0     H29334   5.779   3.829   4.090  1.2553 -0.4008 -1.5692
  980MOL0     H29335   5.728   3.953   3.979 -1.0794  0.3368 -1.0591
  980MOL0     H29336   5.506   3.976   4.132  0.8054  0.7490 -3.5163
  980MOL0     H29337   5.566   3.817   4.197  0.5162  2.0161  2.4074
  980MOL0     H29338   5.574   3.738   3.968 -0.3027  1.5935 -1.7758
  980MOL0     H29339   5.407   3.763   4.039 -0.9403 -0.3195 -0.5796
  980MOL0     H29340   5.448   3.842   3.795  0.4700  0.7848 -1.0286
  980MOL0     H29341   5.538   3.965   3.855 -0.4523 -0.4876 -0.5003
  980MOL0     H29342   6.116   4.010   4.624 -0.8686  1.7452 -0.1073
  980MOL0     H29343   6.293   4.005   4.794  2.0957 -0.0137 -0.1428
  980MOL0     H29344   6.646   4.237   4.902 -1.0486 -0.3529  1.3527
  980MOL0     H29345   6.778   4.324   5.085  2.1839 -1.1960  2.1766
  980MOL0     H29346   8.036   5.104   6.187  0.6766 -0.8922  0.1578
  980MOL0     H29347   8.223   5.250   6.176 -0.6907 -1.3290  1.1616
  980MOL0     H29348   8.528   5.469   5.665 -1.7889 -1.1403  1.2877
  980MOL0     H29349   8.754   5.527   5.662 -1.1718  2.1749 -0.3461
  980MOL0     H29350   8.977   5.658   5.712  2.3889  0.3130  0.1672
  980MOL0     H29351   8.983   5.490   5.759 -0.1953 -1.4100  2.2342
  980MOL0     H29352   9.201   5.619   5.764  0.3354 -1.3308  0.3289
  980MOL0     H29353   9.131   5.748   5.867 -2.6665  1.0166  0.3894
  980MOL0     H29354   9.201   5.465   5.971  0.5405 -0.4423  4.6453
  980MOL0     H29355   9.129   5.602   6.048  1.2813 -0.2667  1.0545
  980MOL0     H29356   9.294   5.745   6.018  0.7949  0.4077 -2.3509
  980MOL0     H29357   9.372   5.602   6.095 -1.0981  0.3916  0.5176
  980MOL0     H29358   9.604   5.600   5.756 -1.9819  1.6014 -3.7650
  980MOL0     H29359   8.741   5.559   6.092 -2.1075 -2.9055  1.4024
  980MOL0     H29360   8.498   5.500   6.084 -1.5800 -3.2143 -1.5827
  981MOL0     O29361  11.204   5.769   4.879  0.3732 -1.0330 -0.2022
  981MOL0     C29362  11.212   5.862   4.797 -0.0424  0.4493  0.0314
  981MOL0     O29363  11.120   5.876   4.701  0.5978 -0.2740 -0.0862
  981MOL0     C29364  11.023   5.781   4.680  0.4592  0.2688 -0.1897
  981MOL0     C29365  11.054   5.663   4.622 -0.3307  0.1448  0.8055
  981MOL0     C29366  10.960   5.567   4.588  0.3592  0.4494  0.1339
  981MOL0     C29367  10.823   5.591   4.615 -0.6262  0.2822 -0.3393
  981MOL0     O29368  10.717   5.508   4.577  0.2870  0.1715 -0.9073
  981MOL0     C29369  10.760   5.379   4.531 -0.7360 -0.0651  0.5179
  981MOL0     C29370  10.643   5.273   4.521  0.6492 -0.3725 -0.1577
  981MOL0     C29371  10.535   5.332   4.430  0.0599 -0.1901  0.2527
  981MOL0     C29372  10.423   5.229   4.426  0.0456 -0.0442 -0.4058
  981MOL0     C29373  10.312   5.276   4.327 -0.0268  0.5191  1.0369
  981MOL0     C29374  10.225   5.394   4.386 -0.2554 -0.2819  0.9440
  981MOL0     C29375  10.106   5.422   4.288  0.0583 -0.2240  0.5428
  981MOL0     C29376  10.021   5.534   4.327  0.2052 -1.3798 -1.5027
  981MOL0     N29377   9.895   5.541   4.253  0.4816  0.8983  0.5812
  981MOL0     C29378   9.878   5.523   4.113  0.4858  0.1226  0.1129
  981MOL0     C29379   9.747   5.529   4.097 -0.0316 -0.6523  0.4724
  981MOL0     C29380   9.677   5.498   3.967 -0.1100  0.2346 -0.2328
  981MOL0     C29381   9.654   5.341   3.956  0.0667 -0.5881 -0.1233
  981MOL0     C29382   9.545   5.284   4.049 -0.1486 -0.8119 -0.2102
  981MOL0     C29383   9.413   5.355   4.040  0.4162  0.0179  1.0947
  981MOL0     O29384   9.330   5.284   4.124  0.4225 -0.3743 -0.2359
  981MOL0     C29385   9.201   5.326   4.120 -0.2641  0.3800  0.0151
  981MOL0     C29386   9.152   5.448   4.072  0.0758  0.6056 -0.1170
  981MOL0     C29387   9.016   5.468   4.046  0.1343 -0.2003 -0.8471
  981MOL0     C29388   8.922   5.369   4.079 -0.3389 -1.7076 -0.5696
  981MOL0     C29389   8.774   5.394   4.063  0.3048  0.5742  0.3515
  981MOL0     O29390   8.694   5.289   4.078  0.5580 -0.2336  0.2510
  981MOL0     C29391   8.553   5.292   4.076 -0.2198 -0.3251  1.0239
  981MOL0     C29392   8.496   5.328   3.950 -0.8529 -0.1488 -0.5383
  981MOL0     C29393   8.358   5.335   3.944 -0.6099  1.2417  0.4686
  981MOL0     C29394   8.282   5.291   4.052  0.1383 -0.4047  0.0396
  981MOL0     O29395   8.142   5.294   4.046  0.1912 -0.1951 -0.4961
  981MOL0     C29396   8.072   5.204   3.964 -1.2939  0.0297  0.5932
  981MOL0     C29397   7.922   5.222   3.951  0.2582 -0.0145  0.0408
  981MOL0     C29398   7.858   5.110   3.862  0.6471 -0.0039 -0.2910
  981MOL0     C29399   7.883   4.955   3.891  0.3175 -0.6310  0.4902
  981MOL0     C29400   7.855   4.867   3.766  0.4791  0.3988 -0.7233
  981MOL0     C29401   7.859   4.723   3.819 -0.1029 -0.4423 -0.3194
  981MOL0     C29402   7.828   4.604   3.727  0.2326  0.6573  0.1721
  981MOL0     C29403   7.902   4.612   3.601 -0.7046  0.7222  1.2509
  981MOL0    Cl29404   7.875   4.455   3.510  0.0048 -0.4657  0.0588
  981MOL0     C29405   8.335   5.251   4.177 -0.7753  0.2921 -0.6286
  981MOL0     C29406   8.478   5.248   4.184  0.6862  0.7576  0.3791
  981MOL0     O29407   8.739   5.508   4.041 -0.3935  0.0411  0.2478
  981MOL0     C29408   8.966   5.258   4.143 -0.2172  0.1867 -0.3728
  981MOL0     C29409   9.102   5.230   4.155 -0.6903  0.0460  0.0018
  981MOL0     N29410   9.681   5.568   4.216 -0.4374 -0.3429  0.4006
  981MOL0     N29411   9.775   5.572   4.300 -1.0961 -0.2687  0.1963
  981MOL0     C29412  10.791   5.709   4.685 -0.9604 -0.3050  1.1580
  981MOL0     C29413  10.886   5.809   4.701 -1.0639 -0.6695  0.2168
  981MOL0     C29414  11.303   5.968   4.822 -0.6025  0.3398 -0.5436
  981MOL0     C29415  11.318   6.067   4.724  1.1254  0.7892 -0.4943
  981MOL0     C29416  11.390   6.184   4.750  0.7600 -0.7187  0.2588
  981MOL0     C29417  11.447   6.206   4.870  0.1227 -0.5476  0.1409
  981MOL0     O29418  11.482   6.335   4.912  0.4485 -0.0704  0.2956
  981MOL0     C29419  11.550   6.357   5.039  0.1928 -0.3921 -0.3110
  981MOL0     C29420  11.597   6.500   5.059  0.3540 -1.1437 -0.1899
  981MOL0     C29421  11.625   6.544   5.206 -0.5414 -0.1610  0.3409
  981MOL0     C29422  11.784   6.546   5.217 -0.0763 -0.2831 -0.1856
  981MOL0     C29423  11.840   6.408   5.237  0.1654  0.1666 -0.1290
  981MOL0     C29424  11.881   6.297   5.245  0.4738 -0.5156  0.7598
  981MOL0     C29425  11.454   6.096   4.956 -0.1389  0.4413  0.1987
  981MOL0     C29426  11.380   5.982   4.939  0.1824  0.0949 -0.1036
  981MOL0     H29427  11.162   5.653   4.616 -0.4423 -0.6326 -0.1641
  981MOL0     H29428  10.989   5.479   4.532 -1.1704 -0.7247  1.1088
  981MOL0     H29429  10.840   5.342   4.595  2.4843  0.8869 -2.6363
  981MOL0     H29430  10.805   5.387   4.431 -0.5453  1.0674  0.6879
  981MOL0     H29431  10.607   5.256   4.623  1.5910 -0.6201  0.1455
  981MOL0     H29432  10.689   5.179   4.488  1.9407 -1.3217  3.7809
  981MOL0     H29433  10.574   5.343   4.328  0.2770 -1.1985  0.2228
  981MOL0     H29434  10.491   5.428   4.458 -1.1765 -0.5245 -0.4808
  981MOL0     H29435  10.463   5.131   4.398  2.2875  0.5365  0.4991
  981MOL0     H29436  10.373   5.210   4.521  1.2927 -1.2863  0.0400
  981MOL0     H29437  10.248   5.189   4.310 -2.8782  2.3220  1.9341
  981MOL0     H29438  10.353   5.301   4.229  0.5947 -3.6170  0.0385
  981MOL0     H29439  10.283   5.483   4.411  1.9827 -1.2267 -0.6043
  981MOL0     H29440  10.177   5.369   4.481 -3.2306  0.9014 -0.1284
  981MOL0     H29441  10.150   5.439   4.190 -0.4794 -1.0084  0.1552
  981MOL0     H29442  10.050   5.329   4.280  3.9828 -2.9799  2.0755
  981MOL0     H29443  10.074   5.629   4.317 -1.2504 -0.1380  1.4388
  981MOL0     H29444   9.998   5.540   4.434  0.2743  0.1644 -1.5489
  981MOL0     H29445   9.953   5.511   4.035 -1.9660  0.8424 -2.4991
  981MOL0     H29446   9.727   5.548   3.883 -1.6004  0.3585 -1.0744
  981MOL0     H29447   9.577   5.542   3.977  0.4322  1.1842  1.5677
  981MOL0     H29448   9.745   5.282   3.969  0.3602 -1.0528 -3.3909
  981MOL0     H29449   9.629   5.316   3.853 -1.3089  0.8913 -0.1812
  981MOL0     H29450   9.529   5.176   4.044  0.5124 -0.8435 -2.2631
  981MOL0     H29451   9.575   5.294   4.154 -0.2323 -2.5987  0.0031
  981MOL0     H29452   9.387   5.355   3.934 -0.4521  1.0078  1.2844
  981MOL0     H29453   9.424   5.455   4.082  0.1780  1.0339 -1.1599
  981MOL0     H29454   9.233   5.512   4.040  0.0263  0.9994  0.5169
  981MOL0     H29455   8.976   5.563   4.015 -0.1833  1.4506  3.8902
  981MOL0     H29456   8.562   5.360   3.870  0.0476 -1.9024 -0.5332
  981MOL0     H29457   8.319   5.387   3.858  1.7501  0.4725 -1.1614
  981MOL0     H29458   8.108   5.103   3.988 -0.1795  0.2275 -0.1672
  981MOL0     H29459   8.106   5.231   3.864  0.2478  0.0357  1.0909
  981MOL0     H29460   7.892   5.319   3.909 -2.2704 -0.3447  0.9344
  981MOL0     H29461   7.875   5.225   4.049 -3.4757  0.5612 -1.6085
  981MOL0     H29462   7.901   5.120   3.762  0.1474 -1.7054 -0.7132
  981MOL0     H29463   7.750   5.126   3.862  0.8240  1.6546 -2.8335
  981MOL0     H29464   7.989   4.937   3.911  0.0524 -2.3514  0.5076
  981MOL0     H29465   7.824   4.926   3.979  1.6021 -1.5536  1.0859
  981MOL0     H29466   7.918   4.892   3.681 -0.7614 -0.4825 -1.9575
  981MOL0     H29467   7.749   4.879   3.739  0.2767  2.2369  0.7209
  981MOL0     H29468   7.798   4.729   3.909  1.0768  1.7349  0.4292
  981MOL0     H29469   7.960   4.705   3.858  0.0760 -0.6351 -0.8695
  981MOL0     H29470   7.849   4.504   3.766 -0.8006 -0.6591 -2.3595
  981MOL0     H29471   7.725   4.607   3.691  0.8074 -0.2210 -1.7359
  981MOL0     H29472   8.010   4.623   3.616 -0.6119  0.4042  0.8343
  981MOL0     H29473   7.875   4.692   3.531 -1.9848  0.7393  1.7463
  981MOL0     H29474   8.281   5.213   4.263  1.2121  0.5253  0.7762
  981MOL0     H29475   8.524   5.219   4.278  0.0594 -0.6446  0.2749
  981MOL0     H29476   8.885   5.203   4.190  1.1673 -0.2283  1.6455
  981MOL0     H29477   9.138   5.142   4.207  0.5520  0.7486  0.3723
  981MOL0     H29478  10.688   5.732   4.709 -1.1619  1.2485 -0.8782
  981MOL0     H29479  10.858   5.905   4.743  1.5704  0.9422 -1.3947
  981MOL0     H29480  11.264   6.058   4.630 -1.2304 -1.0961  0.9247
  981MOL0     H29481  11.379   6.268   4.682 -2.8873 -1.8863 -0.8368
  981MOL0     H29482  11.642   6.298   5.037 -0.1354 -0.9344  0.2793
  981MOL0     H29483  11.484   6.334   5.123 -0.8035  1.3396 -0.5636
  981MOL0     H29484  11.683   6.523   4.996  0.9222  2.3287  1.6203
  981MOL0     H29485  11.517   6.556   5.008  1.1817 -2.5259 -3.2369
  981MOL0     H29486  11.579   6.465   5.267  1.0160 -1.3266  0.0502
  981MOL0     H29487  11.570   6.636   5.230 -2.2713 -0.3593 -2.4575
  981MOL0     H29488  11.835   6.602   5.139 -1.0611  0.7130 -0.1335
  981MOL0     H29489  11.828   6.599   5.302  1.3079  1.6573 -2.0050
  981MOL0     H29490  11.907   6.193   5.237 -1.3382 -1.1339  2.1499
  981MOL0     H29491  11.507   6.108   5.049  0.4725  0.0567 -0.0992
  981MOL0     H29492  11.394   5.907   5.016 -0.4131  0.7427  0.6467
  982MOL0     O29493   2.984   6.183   2.122  1.0037 -0.1347  0.0345
  982MOL0     C29494   2.982   6.076   2.170  0.2570 -0.4202  0.0785
  982MOL0     O29495   2.876   6.002   2.217 -0.2684  0.0009 -0.5864
  982MOL0     C29496   2.750   6.048   2.233 -0.5758  0.6667 -0.5241
  982MOL0     C29497   2.693   6.172   2.203  0.2948  0.6502 -0.3223
  982MOL0     C29498   2.563   6.203   2.225 -0.0840  0.1274 -0.0902
  982MOL0     C29499   2.472   6.107   2.276  0.4997 -0.2032 -0.5160
  982MOL0     O29500   2.336   6.150   2.281 -0.2541 -0.0898  0.3381
  982MOL0     C29501   2.241   6.056   2.333  0.2698  0.0008 -0.3945
  982MOL0     C29502   2.105   6.117   2.302 -0.7040  0.8703  0.2581
  982MOL0     C29503   1.978   6.024   2.315 -0.0833  0.6632  0.2844
  982MOL0     C29504   1.968   5.948   2.448 -0.4240  0.5592 -0.9328
  982MOL0     C29505   1.862   5.833   2.440 -0.3050  0.3944  0.0575
  982MOL0     C29506   1.716   5.863   2.412 -0.7376  0.0166 -0.0459
  982MOL0     C29507   1.641   5.944   2.520  0.5890 -0.5247 -0.3542
  982MOL0     C29508   1.488   5.945   2.471 -0.0883  0.4819  0.1264
  982MOL0     N29509   1.393   5.991   2.565 -0.0030  0.5783 -0.1619
  982MOL0     C29510   1.414   6.013   2.703  0.4429  0.2477 -0.0238
  982MOL0     C29511   1.291   6.018   2.756  0.5122 -0.9880 -0.1219
  982MOL0     C29512   1.253   6.073   2.886  0.1146 -0.6619 -0.3727
  982MOL0     C29513   1.246   5.955   2.981  0.1707  0.3866 -0.9506
  982MOL0     C29514   1.185   5.981   3.117 -0.2262  0.6042 -0.1856
  982MOL0     C29515   1.034   5.987   3.117 -0.2601 -0.5109 -0.4859
  982MOL0     O29516   1.002   6.025   3.252  0.0503 -0.0813 -0.3055
  982MOL0     C29517   0.868   6.024   3.276 -0.0309  0.0193 -0.5895
  982MOL0     C29518   0.766   5.968   3.200 -0.2577  0.0016  0.6116
  982MOL0     C29519   0.630   5.992   3.222 -0.7327 -0.4510  0.4482
  982MOL0     C29520   0.592   6.079   3.325 -0.2532 -0.7091  0.0041
  982MOL0     C29521   0.453   6.102   3.350  0.3785 -0.7471  0.6688
  982MOL0     O29522   0.370   6.015   3.278  0.2277 -0.0381 -0.6571
  982MOL0     C29523   0.232   6.022   3.289  0.5453  0.9241  0.3076
  982MOL0     C29524   0.177   5.951   3.394  0.0030  0.0766 -0.1864
  982MOL0     C29525   0.038   5.935   3.405 -0.6491 -0.8916  0.1063
  982MOL0     C29526  -0.050   5.977   3.306  0.5664  0.3726 -0.4491
  982MOL0     O29527  -0.187   5.963   3.313  0.0105  1.0013 -0.1586
  982MOL0     C29528  -0.224   5.826   3.319 -0.2621  0.0758  0.0092
  982MOL0     C29529  -0.374   5.834   3.352 -0.4642 -0.4800 -0.2394
  982MOL0     C29530  -0.460   5.718   3.309 -0.0660  0.3073  0.6426
  982MOL0     C29531  -0.492   5.709   3.159  0.4251 -0.2963 -0.7004
  982MOL0     C29532  -0.602   5.616   3.122 -0.1926  0.3675  0.3460
  982MOL0     C29533  -0.735   5.689   3.082  0.3217  0.3192  0.3155
  982MOL0     C29534  -0.838   5.593   3.043  0.1875 -0.0257 -0.0802
  982MOL0     C29535  -0.976   5.624   3.109  0.2294  0.0551  0.3161
  982MOL0    Cl29536  -1.099   5.718   3.020 -0.0998 -0.0348 -0.1124
  982MOL0     C29537   0.010   6.034   3.189  0.5127 -0.4269 -0.9009
  982MOL0     C29538   0.145   6.067   3.181  0.5075 -1.4009  0.5583
  982MOL0     O29539   0.413   6.177   3.438  0.1079  0.3169  0.8026
  982MOL0     C29540   0.689   6.123   3.411  0.0391  0.0946 -0.3859
  982MOL0     C29541   0.820   6.098   3.386  0.5304  0.3428 -0.4235
  982MOL0     N29542   1.198   6.000   2.649  0.1559  0.3509 -1.0129
  982MOL0     N29543   1.264   5.988   2.541  0.2939  0.4024 -0.1195
  982MOL0     C29544   2.525   5.975   2.298  0.2060 -0.4409  0.0386
  982MOL0     C29545   2.660   5.953   2.283  0.0695 -0.6453 -0.6628
  982MOL0     C29546   3.109   6.017   2.204 -0.3550 -0.5844  0.9594
  982MOL0     C29547   3.233   6.048   2.147  0.0974 -1.2029 -0.4341
  982MOL0     C29548   3.357   5.988   2.184  0.9391 -0.2314  0.3348
  982MOL0     C29549   3.357   5.886   2.281 -0.6839 -0.0568  0.2256
  982MOL0     O29550   3.461   5.812   2.329 -0.7173 -0.0440  0.0157
  982MOL0     C29551   3.587   5.827   2.258 -1.0731 -0.8004  0.7513
  982MOL0     C29552   3.686   5.730   2.320 -0.8735 -0.4199 -0.0621
  982MOL0     C29553   3.825   5.746   2.263 -0.6203  0.7358  0.0359
  982MOL0     C29554   3.932   5.638   2.298  0.6229 -0.0925 -0.2173
  982MOL0     C29555   3.984   5.655   2.433 -0.3066 -0.4672 -0.1658
  982MOL0     C29556   4.019   5.671   2.550 -0.5712  0.3631  0.5618
  982MOL0     C29557   3.236   5.852   2.333 -0.1960 -0.6626 -0.0481
  982MOL0     C29558   3.113   5.915   2.294 -0.4547  0.3573 -0.1322
  982MOL0     H29559   2.755   6.255   2.170  1.7510  0.4218  1.6789
  982MOL0     H29560   2.528   6.303   2.202  0.7921  0.6364  0.6989
  982MOL0     H29561   2.240   6.055   2.443 -2.0461  1.4202 -0.3197
  982MOL0     H29562   2.242   5.957   2.287 -1.2316  0.3909 -1.3567
  982MOL0     H29563   2.107   6.153   2.199  1.9466 -1.5060 -0.6629
  982MOL0     H29564   2.100   6.210   2.358  0.5611  1.4604 -0.5640
  982MOL0     H29565   1.978   5.972   2.219 -3.1229 -0.2384  0.6634
  982MOL0     H29566   1.891   6.090   2.307  2.6941  4.4199 -2.5349
  982MOL0     H29567   2.067   5.908   2.471 -0.2827 -0.3412 -2.9049
  982MOL0     H29568   1.943   6.026   2.520 -0.3855  0.4084 -0.7544
  982MOL0     H29569   1.860   5.761   2.521 -1.1035 -1.2259 -1.3409
  982MOL0     H29570   1.891   5.759   2.366 -1.2343 -3.3762  3.1563
  982MOL0     H29571   1.680   5.760   2.406  2.2337 -1.2139  1.2225
  982MOL0     H29572   1.714   5.918   2.317  0.4651 -0.8000 -0.5643
  982MOL0     H29573   1.648   5.903   2.621 -2.0137 -0.4280 -0.0861
  982MOL0     H29574   1.681   6.046   2.526 -0.1597 -0.2213 -0.3775
  982MOL0     H29575   1.467   5.839   2.454 -0.5210  0.5075  0.4558
  982MOL0     H29576   1.470   6.001   2.379  0.1367 -2.1813 -1.6496
  982MOL0     H29577   1.509   6.018   2.754 -0.1399 -0.6420  1.2138
  982MOL0     H29578   1.162   6.134   2.889  2.1353  2.5667  0.0729
  982MOL0     H29579   1.335   6.137   2.920 -0.1210 -0.3010 -0.4781
  982MOL0     H29580   1.343   5.911   3.008 -1.5186 -1.9428  1.9032
  982MOL0     H29581   1.195   5.870   2.935  0.2980 -0.8914  1.1344
  982MOL0     H29582   1.203   5.893   3.179  0.4991  0.0868 -1.0958
  982MOL0     H29583   1.225   6.077   3.151  2.2204 -0.7315  0.9430
  982MOL0     H29584   0.993   5.892   3.083  2.5327 -1.5277 -1.2480
  982MOL0     H29585   1.005   6.065   3.047  1.2695 -1.3641 -2.1304
  982MOL0     H29586   0.786   5.921   3.104 -1.7444  1.2137 -0.3536
  982MOL0     H29587   0.561   5.947   3.152  0.5966  0.4495 -1.5340
  982MOL0     H29588   0.243   5.920   3.474 -0.6838  1.2848  0.8708
  982MOL0     H29589  -0.003   5.884   3.492 -0.2663  0.2337  0.9697
  982MOL0     H29590  -0.173   5.784   3.406  0.4534  2.2246  0.6950
  982MOL0     H29591  -0.203   5.768   3.229  1.3235 -0.3861  0.6486
  982MOL0     H29592  -0.415   5.930   3.320 -0.8700  0.3298  2.4055
  982MOL0     H29593  -0.378   5.841   3.461  0.8836 -0.6486 -0.1548
  982MOL0     H29594  -0.551   5.731   3.367  0.1680  2.9364  0.5285
  982MOL0     H29595  -0.407   5.627   3.341 -1.7560 -1.1214 -0.4352
  982MOL0     H29596  -0.529   5.810   3.139 -0.9765 -0.5844  0.3170
  982MOL0     H29597  -0.403   5.703   3.095 -0.9019 -0.5564 -2.5999
  982MOL0     H29598  -0.616   5.542   3.201  1.9148  1.4511  1.8494
  982MOL0     H29599  -0.572   5.564   3.030  2.7744 -0.3504  1.5836
  982MOL0     H29600  -0.703   5.754   3.000  0.0841 -0.0197 -0.0506
  982MOL0     H29601  -0.772   5.753   3.163 -0.1899  0.3265  0.0773
  982MOL0     H29602  -0.851   5.585   2.935 -2.1425  1.9076 -0.0394
  982MOL0     H29603  -0.803   5.498   3.084 -3.1011 -1.1705  0.4202
  982MOL0     H29604  -0.954   5.661   3.210 -1.3346  0.7543  0.4220
  982MOL0     H29605  -1.016   5.525   3.132  2.6572 -1.1617 -0.3946
  982MOL0     H29606  -0.059   6.076   3.116 -3.0841 -0.4063  2.1999
  982MOL0     H29607   0.187   6.113   3.091 -0.5504 -1.0454  0.2373
  982MOL0     H29608   0.656   6.175   3.500  1.1912 -1.6484  1.1308
  982MOL0     H29609   0.902   6.137   3.446  0.4515  0.4177 -0.3651
  982MOL0     H29610   2.450   5.900   2.318 -0.4724 -0.4659 -2.2811
  982MOL0     H29611   2.691   5.851   2.307  0.1213 -0.0222  2.3419
  982MOL0     H29612   3.231   6.125   2.071  5.3090  1.4275  1.5734
  982MOL0     H29613   3.452   6.012   2.136  0.7634 -2.5498 -1.3249
  982MOL0     H29614   3.625   5.929   2.260  0.5275 -1.3125 -0.9798
  982MOL0     H29615   3.588   5.792   2.155  0.2008  1.7446 -0.1746
  982MOL0     H29616   3.674   5.745   2.428 -4.0777  0.9512 -0.4960
  982MOL0     H29617   3.653   5.628   2.299 -1.6774  0.0705 -1.2824
  982MOL0     H29618   3.865   5.842   2.297 -0.7528  0.8357 -0.0881
  982MOL0     H29619   3.812   5.747   2.154 -1.4495  0.2178  0.1197
  982MOL0     H29620   3.881   5.542   2.287  0.4734  0.1129 -1.5763
  982MOL0     H29621   4.006   5.643   2.217  2.0584  0.7905  1.0944
  982MOL0     H29622   4.056   5.700   2.646  1.6225  0.3398 -0.2178
  982MOL0     H29623   3.238   5.779   2.413 -0.5035 -3.3907 -2.3800
  982MOL0     H29624   3.027   5.872   2.345  1.3527 -0.4604  2.5087
  983MOL0     O29625   9.517   7.287   7.836  0.0759  0.1912  0.2133
  983MOL0     C29626   9.570   7.188   7.893  0.6811  0.4507  0.0680
  983MOL0     O29627   9.499   7.093   7.960 -0.1807 -0.1191 -0.7654
  983MOL0     C29628   9.374   7.122   8.011  0.4716 -0.0729 -0.1427
  983MOL0     C29629   9.273   7.106   7.917 -0.3651  0.2736 -0.3522
  983MOL0     C29630   9.135   7.117   7.964  0.2157  0.5919 -0.0828
  983MOL0     C29631   9.096   7.157   8.091 -0.3404 -0.1515  0.1807
  983MOL0     O29632   8.959   7.143   8.128 -0.7272 -0.8569  0.3701
  983MOL0     C29633   8.864   7.219   8.049 -0.0291 -0.3540  0.8669
  983MOL0     C29634   8.756   7.120   8.004 -0.5276 -0.5616  0.1350
  983MOL0     C29635   8.653   7.081   8.117  0.2412  0.3048 -0.3806
  983MOL0     C29636   8.561   6.966   8.088 -0.3400  0.4509 -0.5718
  983MOL0     C29637   8.458   6.932   8.198  0.4011 -0.9557 -0.4983
  983MOL0     C29638   8.350   6.832   8.162  1.0167 -0.3442 -0.0938
  983MOL0     C29639   8.245   6.833   8.286 -0.4560 -0.8136 -0.0861
  983MOL0     C29640   8.130   6.738   8.278  0.6058 -0.1071 -0.2816
  983MOL0     N29641   8.184   6.602   8.269  0.7030 -1.4404  0.3632
  983MOL0     C29642   8.239   6.544   8.377  0.4898  0.5423 -0.2086
  983MOL0     C29643   8.297   6.425   8.333 -0.1501  0.3350 -0.0208
  983MOL0     C29644   8.380   6.316   8.407 -0.4763  0.0607 -0.7375
  983MOL0     C29645   8.496   6.282   8.305  0.1475  0.3072 -0.4181
  983MOL0     C29646   8.624   6.218   8.362  0.6120 -0.4037 -0.1903
  983MOL0     C29647   8.724   6.189   8.251  0.0388 -0.8622  0.0952
  983MOL0     O29648   8.797   6.312   8.241 -0.8433 -0.1930 -0.2575
  983MOL0     C29649   8.912   6.307   8.187 -0.0582  0.1350  0.3094
  983MOL0     C29650   8.945   6.234   8.071 -0.3819 -0.4300 -0.2494
  983MOL0     C29651   9.061   6.268   8.003  0.0197  0.1776  0.4581
  983MOL0     C29652   9.153   6.360   8.055  0.0576  0.4163 -0.1401
  983MOL0     C29653   9.268   6.405   7.978 -0.7825  0.4076 -0.7060
  983MOL0     O29654   9.280   6.348   7.853 -0.0307 -0.3153 -0.6409
  983MOL0     C29655   9.388   6.364   7.776 -0.1888  0.0944 -0.5269
  983MOL0     C29656   9.518   6.345   7.832  0.6671  0.3153  0.4994
  983MOL0     C29657   9.631   6.364   7.750 -0.4690  0.0890 -0.3247
  983MOL0     C29658   9.623   6.398   7.619 -0.2444 -0.5073 -0.0453
  983MOL0     O29659   9.739   6.410   7.553 -0.1666 -0.2005  0.3684
  983MOL0     C29660   9.733   6.400   7.408 -0.2565  0.6814 -0.5521
  983MOL0     C29661   9.878   6.375   7.365  0.8096  0.1253 -0.5823
  983MOL0     C29662   9.909   6.352   7.218 -0.4927  0.0156  0.6140
  983MOL0     C29663  10.061   6.314   7.178  0.6795  0.1505  0.8287
  983MOL0     C29664  10.134   6.450   7.170 -0.8551 -0.6760  0.0611
  983MOL0     C29665  10.280   6.430   7.124  0.0921 -0.3610  0.6580
  983MOL0     C29666  10.371   6.547   7.160  0.2818  0.1811 -0.2742
  983MOL0     C29667  10.517   6.516   7.122  0.5006 -0.9517  0.1941
  983MOL0    Cl29668  10.610   6.656   7.177  0.2007  0.0602  0.4446
  983MOL0     C29669   9.496   6.427   7.569 -0.1444  0.7295  0.9505
  983MOL0     C29670   9.378   6.408   7.648 -0.2275 -0.9179  0.6275
  983MOL0     O29671   9.352   6.476   8.035  0.2963 -0.4960 -0.6320
  983MOL0     C29672   9.125   6.414   8.181  0.3317 -0.1704  0.5360
  983MOL0     C29673   9.008   6.392   8.244 -0.2651 -0.1655 -0.8048
  983MOL0     N29674   8.268   6.421   8.192 -0.7524  0.5210  0.0322
  983MOL0     N29675   8.207   6.534   8.154 -0.2211  1.4224 -0.2730
  983MOL0     C29676   9.202   7.185   8.179  0.1043  0.2800  0.8877
  983MOL0     C29677   9.334   7.165   8.136 -0.6017  0.3617  0.3661
  983MOL0     C29678   9.711   7.168   7.880 -0.4487 -0.2191 -0.6991
  983MOL0     C29679   9.796   7.274   7.826  0.5816  0.6643  0.2116
  983MOL0     C29680   9.936   7.263   7.830 -0.7909  0.5648  0.3255
  983MOL0     C29681   9.991   7.149   7.895  1.2298  0.6896 -0.1959
  983MOL0     O29682  10.124   7.136   7.909  0.3408  0.5573 -0.0146
  983MOL0     C29683  10.215   7.244   7.885  0.0905 -1.5510  0.4605
  983MOL0     C29684  10.354   7.184   7.925 -0.2782 -0.2593  0.4850
  983MOL0     C29685  10.458   7.293   7.903 -0.2456  0.1703  0.0853
  983MOL0     C29686  10.610   7.254   7.903  0.9050 -0.0292 -1.0330
  983MOL0     C29687  10.704   7.369   7.920 -0.6804  0.8828 -1.0891
  983MOL0     C29688  10.778   7.455   7.947 -1.1432  0.9989 -0.2349
  983MOL0     C29689   9.912   7.052   7.948  0.9167  0.3806 -0.3637
  983MOL0     C29690   9.770   7.052   7.948  0.1802 -0.3638  0.6442
  983MOL0     H29691   9.298   7.069   7.818 -1.6971  1.8626 -1.3351
  983MOL0     H29692   9.063   7.079   7.892  0.2169  4.8154 -2.6859
  983MOL0     H29693   8.914   7.275   7.969 -0.5324  0.5723  1.1916
  983MOL0     H29694   8.820   7.291   8.118 -0.0094 -0.9035  1.4655
  983MOL0     H29695   8.806   7.031   7.964 -2.6971 -1.4199 -0.8261
  983MOL0     H29696   8.706   7.174   7.923  2.2082  2.3918  0.2362
  983MOL0     H29697   8.593   7.170   8.140  1.8889  1.8611 -1.8077
  983MOL0     H29698   8.711   7.041   8.200 -2.2590 -2.6366  0.1459
  983MOL0     H29699   8.499   6.990   8.001  0.3132  0.5448 -1.0203
  983MOL0     H29700   8.609   6.869   8.066 -0.6921 -0.3714  1.9833
  983MOL0     H29701   8.405   7.028   8.204 -0.0145 -0.9830 -2.6524
  983MOL0     H29702   8.513   6.904   8.288  1.8649  0.3219 -0.9510
  983MOL0     H29703   8.403   6.737   8.148  0.6874 -0.2866 -2.0346
  983MOL0     H29704   8.295   6.869   8.075  0.4902  1.1663  0.8378
  983MOL0     H29705   8.297   6.811   8.379  1.5665  0.2266 -0.9263
  983MOL0     H29706   8.207   6.935   8.290 -0.3522 -0.8136  1.1583
  983MOL0     H29707   8.061   6.747   8.194  0.8219 -1.7774 -0.6664
  983MOL0     H29708   8.076   6.741   8.374  1.3046 -0.2852  0.1206
  983MOL0     H29709   8.247   6.578   8.479  0.4256 -1.0647  0.3644
  983MOL0     H29710   8.326   6.228   8.443  1.7772 -2.2082 -2.4577
  983MOL0     H29711   8.422   6.353   8.500 -1.2498 -1.6180  0.3297
  983MOL0     H29712   8.536   6.377   8.270  0.7800  0.7515  1.4068
  983MOL0     H29713   8.458   6.218   8.225 -3.3521 -2.4214  2.9649
  983MOL0     H29714   8.680   6.273   8.437 -2.5668  2.5667  0.2246
  983MOL0     H29715   8.591   6.120   8.399  2.3225 -1.2583 -0.8095
  983MOL0     H29716   8.664   6.162   8.164  1.0170 -3.0404  0.0098
  983MOL0     H29717   8.788   6.107   8.286  1.7400  1.5802  3.2687
  983MOL0     H29718   8.875   6.156   8.042 -1.3095  0.3186 -0.0905
  983MOL0     H29719   9.061   6.223   7.904 -3.4877 -2.4789  1.4751
  983MOL0     H29720   9.538   6.330   7.937  2.5183  2.4671  0.5226
  983MOL0     H29721   9.725   6.341   7.799  0.0463 -0.8210 -1.6692
  983MOL0     H29722   9.701   6.491   7.358 -1.4464  0.9042  0.5665
  983MOL0     H29723   9.669   6.317   7.377  1.2567 -0.3823 -0.9609
  983MOL0     H29724   9.911   6.284   7.414 -1.3393 -0.4187 -0.0673
  983MOL0     H29725   9.934   6.463   7.399 -1.3094  2.1964 -2.0580
  983MOL0     H29726   9.872   6.443   7.170  3.5197  1.1139 -0.8219
  983MOL0     H29727   9.838   6.273   7.191  0.5873  0.1641 -3.2747
  983MOL0     H29728  10.106   6.248   7.253 -1.8968  0.0591  2.3870
  983MOL0     H29729  10.067   6.258   7.083 -1.1717 -0.6924  1.1694
  983MOL0     H29730  10.120   6.499   7.266  1.5263 -3.2754  1.8946
  983MOL0     H29731  10.085   6.509   7.092 -1.0005  1.1156  1.4550
  983MOL0     H29732  10.295   6.420   7.016 -0.5017  2.8667  0.1639
  983MOL0     H29733  10.334   6.343   7.163  1.9647  0.0360 -0.8549
  983MOL0     H29734  10.339   6.637   7.106  0.0387 -0.9615 -2.1435
  983MOL0     H29735  10.362   6.575   7.265 -1.5809 -1.9050  0.1905
  983MOL0     H29736  10.535   6.517   7.014 -0.8648  0.3003 -0.0556
  983MOL0     H29737  10.553   6.422   7.164  2.6179 -0.3158 -0.1079
  983MOL0     H29738   9.483   6.454   7.464 -3.7046 -3.9351 -0.1730
  983MOL0     H29739   9.280   6.423   7.603 -0.0275 -0.4736  0.3311
  983MOL0     H29740   9.209   6.468   8.223  1.8891 -2.0313 -0.0477
  983MOL0     H29741   8.980   6.442   8.337 -3.7961 -0.2817 -1.6537
  983MOL0     H29742   9.179   7.200   8.284  0.8898 -1.4984  1.3583
  983MOL0     H29743   9.407   7.169   8.217 -1.6195 -0.4455  1.3619
  983MOL0     H29744   9.758   7.368   7.786  1.8739  1.9500  1.8706
  983MOL0     H29745  10.004   7.332   7.782 -2.2941  2.8209  1.2467
  983MOL0     H29746  10.182   7.328   7.948  0.0197 -2.1716  1.2787
  983MOL0     H29747  10.217   7.286   7.785  1.7792 -0.7468  0.7967
  983MOL0     H29748  10.356   7.144   8.026  0.6671 -0.2217  0.4974
  983MOL0     H29749  10.377   7.096   7.865  1.5289  0.6604 -0.2750
  983MOL0     H29750  10.441   7.366   7.983  2.5106  2.3240 -1.1249
  983MOL0     H29751  10.445   7.337   7.804 -0.3881  1.5521  0.6945
  983MOL0     H29752  10.629   7.172   7.973  0.3686 -1.3238 -2.3488
  983MOL0     H29753  10.635   7.207   7.807 -2.0308  0.2411 -2.0287
  983MOL0     H29754  10.848   7.533   7.971  1.1405 -0.6785 -1.0717
  983MOL0     H29755   9.955   6.967   8.000  0.2789 -0.1954 -0.7542
  983MOL0     H29756   9.720   6.986   8.019  0.4519 -3.0029 -1.4803
  984MOL0     O29757   2.644   2.156   4.095 -0.1949 -0.3549  0.2826
  984MOL0     C29758   2.658   2.142   4.218  0.6906 -0.4540 -0.5575
  984MOL0     O29759   2.558   2.094   4.298  0.3201 -0.7743  0.0043
  984MOL0     C29760   2.443   2.049   4.246  0.2864 -0.2765 -0.1028
  984MOL0     C29761   2.350   2.134   4.178 -0.8825  0.5933 -0.6655
  984MOL0     C29762   2.227   2.086   4.137 -0.8659 -0.0098 -0.6353
  984MOL0     C29763   2.201   1.948   4.156 -0.1242 -0.3186 -0.5304
  984MOL0     O29764   2.082   1.883   4.125  0.5332 -0.3441  0.5043
  984MOL0     C29765   1.967   1.968   4.113 -0.2303  0.5943  0.4689
  984MOL0     C29766   1.837   1.884   4.115  0.4631  0.0976 -0.1437
  984MOL0     C29767   1.841   1.782   3.999 -0.1489  0.6246 -0.1114
  984MOL0     C29768   1.735   1.676   4.021  0.5292  0.7664  0.5499
  984MOL0     C29769   1.590   1.718   4.030 -0.0996  0.6140  0.9121
  984MOL0     C29770   1.533   1.758   3.894  0.3168 -0.4178 -0.6030
  984MOL0     C29771   1.388   1.709   3.871  0.6477 -0.5231 -0.0687
  984MOL0     C29772   1.272   1.774   3.937  0.7036 -0.0409  0.6446
  984MOL0     N29773   1.136   1.725   3.905 -0.1808  1.1211  0.0803
  984MOL0     C29774   1.097   1.595   3.929  0.1039 -0.6527  0.0020
  984MOL0     C29775   0.962   1.602   3.913 -0.2127  0.7292 -0.5378
  984MOL0     C29776   0.864   1.488   3.929  0.0595  0.6619 -0.2922
  984MOL0     C29777   0.789   1.460   3.794 -0.4975  0.3340  0.2384
  984MOL0     C29778   0.682   1.352   3.824  0.2531 -0.2655  0.0689
  984MOL0     C29779   0.584   1.326   3.701 -0.2613 -0.4322 -0.5321
  984MOL0     O29780   0.528   1.442   3.631 -0.5143  0.8137 -0.2735
  984MOL0     C29781   0.426   1.506   3.702  0.1668  0.3897 -0.0051
  984MOL0     C29782   0.405   1.643   3.661 -0.3703 -0.2310 -0.3175
  984MOL0     C29783   0.296   1.722   3.701  0.6675  0.4446 -0.4629
  984MOL0     C29784   0.197   1.647   3.780 -0.8646 -0.7369  0.7497
  984MOL0     C29785   0.066   1.709   3.807 -0.9180  0.4906  0.1133
  984MOL0     O29786   0.050   1.840   3.769  0.2322  0.0757  0.1197
  984MOL0     C29787  -0.074   1.890   3.799  0.6887 -0.1284 -0.0477
  984MOL0     C29788  -0.105   1.940   3.930 -0.6033  1.0154  0.3047
  984MOL0     C29789  -0.230   1.991   3.951  0.2529  0.2838 -0.6097
  984MOL0     C29790  -0.319   2.017   3.846 -1.7088 -0.3991  0.6461
  984MOL0     O29791  -0.443   2.060   3.867  0.1739  0.0267  0.5486
  984MOL0     C29792  -0.466   2.170   3.960 -1.2249  0.4731  1.2700
  984MOL0     C29793  -0.585   2.262   3.937  0.6061  0.1905 -0.8469
  984MOL0     C29794  -0.724   2.225   4.003  0.4508  0.5665 -0.1603
  984MOL0     C29795  -0.812   2.345   4.025  0.4353 -0.2234 -1.0895
  984MOL0     C29796  -0.799   2.393   4.178 -0.3133 -0.1229  0.0894
  984MOL0     C29797  -0.915   2.496   4.208 -0.6771  0.4742  0.0399
  984MOL0     C29798  -0.876   2.594   4.322 -0.4146  0.3395 -0.0949
  984MOL0     C29799  -0.994   2.680   4.368 -0.5314  0.5442  0.9861
  984MOL0    Cl29800  -1.105   2.566   4.452 -0.1323 -0.6157 -0.0830
  984MOL0     C29801  -0.289   1.967   3.720 -0.8543  0.5856 -0.6947
  984MOL0     C29802  -0.167   1.910   3.697 -1.4091  0.1911 -0.1958
  984MOL0     O29803  -0.018   1.641   3.875 -0.7325  0.0683  0.0943
  984MOL0     C29804   0.217   1.519   3.822 -0.3955 -0.3743  0.3311
  984MOL0     C29805   0.330   1.451   3.784  0.2344  0.1125  0.4082
  984MOL0     N29806   0.926   1.725   3.877  1.1012  0.6369  0.3511
  984MOL0     N29807   1.031   1.796   3.883  0.2585 -0.0315 -0.2419
  984MOL0     C29808   2.293   1.864   4.217 -0.5412  0.5648 -0.1212
  984MOL0     C29809   2.418   1.915   4.264  0.7134 -0.1793 -0.0619
  984MOL0     C29810   2.788   2.165   4.283  0.6100 -0.4183  0.3029
  984MOL0     C29811   2.897   2.230   4.217 -0.2872 -0.5248 -0.4929
  984MOL0     C29812   3.020   2.226   4.288  0.0322 -0.7978  0.5481
  984MOL0     C29813   3.033   2.176   4.413 -0.5104  0.1842  0.0286
  984MOL0     O29814   3.161   2.162   4.469  1.4207 -0.2353 -0.2198
  984MOL0     C29815   3.281   2.215   4.415  0.4901  0.5471 -0.3543
  984MOL0     C29816   3.353   2.116   4.320 -0.0698  0.3306 -0.1273
  984MOL0     C29817   3.429   2.007   4.401 -0.0222 -0.9631  0.1509
  984MOL0     C29818   3.509   1.915   4.314 -0.1742 -0.3495  0.0290
  984MOL0     C29819   3.629   1.990   4.259  0.9916 -0.7507  0.1942
  984MOL0     C29820   3.713   2.069   4.216  0.5299  1.7193 -0.2327
  984MOL0     C29821   2.931   2.114   4.477  0.5578 -0.1070  0.5811
  984MOL0     C29822   2.801   2.118   4.417  0.7390  0.2968  0.1761
  984MOL0     H29823   2.381   2.236   4.160  1.3427  0.0235 -0.4219
  984MOL0     H29824   2.168   2.154   4.077 -2.6586 -0.2749  0.7255
  984MOL0     H29825   1.975   2.027   4.021  1.4536  0.1387  0.2813
  984MOL0     H29826   1.970   2.035   4.199  1.7555 -4.2638  4.6878
  984MOL0     H29827   1.757   1.956   4.097  0.8297  1.2643  2.4808
  984MOL0     H29828   1.828   1.838   4.214 -0.5734 -1.8446 -1.0869
  984MOL0     H29829   1.932   1.721   3.999 -1.1192 -0.8676 -0.5507
  984MOL0     H29830   1.829   1.827   3.900  1.1986 -2.0154 -1.5808
  984MOL0     H29831   1.747   1.595   3.949 -0.8267  1.3107 -0.3159
  984MOL0     H29832   1.744   1.603   4.103 -0.6959 -0.0070  0.0111
  984MOL0     H29833   1.561   1.789   4.109  0.6446  2.7938 -0.6702
  984MOL0     H29834   1.533   1.631   4.063  0.5274  0.3520  1.3367
  984MOL0     H29835   1.607   1.729   3.819  0.2561  0.9670 -1.2278
  984MOL0     H29836   1.535   1.867   3.886 -0.3013 -0.1404  2.0234
  984MOL0     H29837   1.366   1.704   3.764 -1.4823 -0.3327  0.3317
  984MOL0     H29838   1.381   1.607   3.909  0.2720 -0.7349 -0.6931
  984MOL0     H29839   1.274   1.882   3.921 -1.2428 -0.3694 -2.7499
  984MOL0     H29840   1.278   1.759   4.046  1.1597  0.4889  0.6987
  984MOL0     H29841   1.161   1.511   3.954  0.4857 -0.2213  0.4946
  984MOL0     H29842   0.795   1.499   4.013 -2.1782 -2.3034 -1.5605
  984MOL0     H29843   0.928   1.405   3.960  0.6511  1.1857 -0.1082
  984MOL0     H29844   0.862   1.426   3.720 -1.7769 -2.3084  0.0450
  984MOL0     H29845   0.745   1.548   3.747  0.3745  0.8567  0.3913
  984MOL0     H29846   0.739   1.262   3.850  2.0654  0.9990  0.6860
  984MOL0     H29847   0.613   1.380   3.904 -0.6678  0.7348 -1.0331
  984MOL0     H29848   0.504   1.259   3.735 -2.1987  1.2216 -1.6014
  984MOL0     H29849   0.634   1.266   3.625  2.3739 -0.8846  1.4115
  984MOL0     H29850   0.478   1.697   3.600  0.7045  1.5579  2.3473
  984MOL0     H29851   0.272   1.819   3.660  0.1426  0.4357 -0.1930
  984MOL0     H29852  -0.032   1.926   4.009 -1.5237 -0.7607  0.8921
  984MOL0     H29853  -0.262   2.024   4.049 -0.7403 -0.1035 -0.7914
  984MOL0     H29854  -0.381   2.238   3.954 -0.4622 -0.5665 -2.8028
  984MOL0     H29855  -0.467   2.132   4.062 -1.3719  0.3897  1.2386
  984MOL0     H29856  -0.609   2.265   3.830 -1.8060 -0.4790 -0.3894
  984MOL0     H29857  -0.557   2.364   3.963 -0.4845  0.4491 -0.6600
  984MOL0     H29858  -0.701   2.177   4.099  0.1323 -2.5082 -1.5361
  984MOL0     H29859  -0.762   2.141   3.944 -1.0043 -1.5059  3.4286
  984MOL0     H29860  -0.773   2.424   3.962 -0.4583 -2.1588 -4.3147
  984MOL0     H29861  -0.916   2.312   4.012 -0.2019 -0.9433  3.8131
  984MOL0     H29862  -0.700   2.436   4.194 -0.3199  0.1340 -0.5189
  984MOL0     H29863  -0.812   2.299   4.233  0.4552 -1.7762 -2.3857
  984MOL0     H29864  -1.005   2.439   4.232 -1.2654  1.8715  1.3298
  984MOL0     H29865  -0.926   2.553   4.115  1.2418 -0.2063 -0.6507
  984MOL0     H29866  -0.834   2.528   4.398 -2.2728 -1.0846 -0.2307
  984MOL0     H29867  -0.798   2.661   4.285 -2.3915  2.0311 -1.4652
  984MOL0     H29868  -1.046   2.725   4.283  4.0329  0.9836 -1.9483
  984MOL0     H29869  -0.967   2.762   4.434  0.0871  2.2381 -1.2650
  984MOL0     H29870  -0.367   1.969   3.644 -1.1157  4.2659 -0.4939
  984MOL0     H29871  -0.153   1.869   3.597  0.8355  0.1688  0.0775
  984MOL0     H29872   0.140   1.466   3.877  0.8963 -1.3732  1.2469
  984MOL0     H29873   0.346   1.348   3.814  1.3640 -0.0922 -0.8077
  984MOL0     H29874   2.280   1.756   4.217 -0.0954  0.4975 -1.2388
  984MOL0     H29875   2.491   1.855   4.318 -0.4062  1.6113  3.7374
  984MOL0     H29876   2.885   2.253   4.112  2.1346 -1.1668 -0.9563
  984MOL0     H29877   3.108   2.264   4.238  1.2751 -1.7654  1.9020
  984MOL0     H29878   3.347   2.246   4.496  2.1364  2.6903 -2.3856
  984MOL0     H29879   3.265   2.313   4.370  0.7312  0.3195 -0.9542
  984MOL0     H29880   3.288   2.062   4.250  0.0523 -0.9373  0.7097
  984MOL0     H29881   3.418   2.185   4.265 -0.1026 -0.9764 -1.8771
  984MOL0     H29882   3.345   1.959   4.451 -1.0058  1.7869  1.3524
  984MOL0     H29883   3.503   2.055   4.466  2.1188 -2.8411 -0.7570
  984MOL0     H29884   3.543   1.826   4.367  0.4439 -0.6230 -0.8062
  984MOL0     H29885   3.443   1.877   4.236  0.4260 -0.6114 -0.3550
  984MOL0     H29886   3.786   2.132   4.170  0.1018  3.6573  1.6094
  984MOL0     H29887   2.951   2.065   4.571 -0.5941 -0.1846  0.8064
  984MOL0     H29888   2.716   2.083   4.474  1.5448 -0.3367  1.0390
  985MOL0     O29889   3.048   3.066  10.594 -0.4202 -0.3477  0.5144
  985MOL0     C29890   3.040   3.104  10.474  0.3044 -0.9129 -0.6481
  985MOL0     O29891   2.920   3.139  10.411 -0.0354 -0.2826  0.9882
  985MOL0     C29892   2.797   3.119  10.469 -0.7006 -0.8490  0.4291
  985MOL0     C29893   2.719   3.233  10.480 -0.3062  0.1462  0.1121
  985MOL0     C29894   2.588   3.235  10.516  0.5208 -0.5381  0.2186
  985MOL0     C29895   2.523   3.115  10.545  0.3745 -0.1984  0.0286
  985MOL0     O29896   2.389   3.115  10.577 -0.2472  0.5069 -0.2208
  985MOL0     C29897   2.333   2.994  10.633 -0.1110 -0.2612  0.0801
  985MOL0     C29898   2.196   3.035  10.686 -0.0812  0.8023 -0.3844
  985MOL0     C29899   2.107   3.070  10.573  0.4967 -0.3525 -0.5855
  985MOL0     C29900   1.962   3.067  10.627 -0.3578 -0.4124 -0.8975
  985MOL0     C29901   1.835   3.068  10.529 -0.4715  0.3536  0.0374
  985MOL0     C29902   1.708   3.048  10.601  0.6116  1.0302  0.1267
  985MOL0     C29903   1.591   3.118  10.529  0.1549  0.1458  0.1327
  985MOL0     C29904   1.568   3.258  10.584  0.8436 -0.0136  0.3253
  985MOL0     N29905   1.460   3.327  10.505 -0.1547  0.7979  0.1564
  985MOL0     C29906   1.332   3.352  10.561  0.1512  0.7231 -0.0298
  985MOL0     C29907   1.263   3.414  10.470 -0.5751  0.6161 -0.6712
  985MOL0     C29908   1.120   3.443  10.473  0.1810  0.4263 -0.8392
  985MOL0     C29909   1.079   3.581  10.537  0.7697 -0.9649 -0.8138
  985MOL0     C29910   1.153   3.709  10.491 -0.4738  0.7431  0.6487
  985MOL0     C29911   1.067   3.833  10.524  0.0323  0.3929  0.2111
  985MOL0     O29912   1.059   3.835  10.664 -0.3232 -0.5932 -0.0210
  985MOL0     C29913   0.944   3.857  10.740 -0.5230  0.3061  0.3260
  985MOL0     C29914   0.975   3.901  10.870  0.4483  0.5612 -0.3344
  985MOL0     C29915   0.863   3.932  10.956  0.0620  0.6866 -0.1906
  985MOL0     C29916   0.727   3.904  10.922  0.2983  0.5540 -0.4065
  985MOL0     C29917   0.626   3.914  11.029  0.1817  0.4198 -0.2045
  985MOL0     O29918   0.492   3.920  10.992 -0.1412 -1.0384 -0.3397
  985MOL0     C29919   0.392   3.900  11.080  0.2615 -0.3049  0.2193
  985MOL0     C29920   0.386   3.972  11.204 -0.6855 -1.6697 -0.5256
  985MOL0     C29921   0.295   3.949  11.308 -0.4001 -0.7788 -0.1686
  985MOL0     C29922   0.190   3.864  11.283  0.2226 -1.3296  0.0703
  985MOL0     O29923   0.097   3.841  11.383 -0.7865 -0.2754  1.1582
  985MOL0     C29924   0.080   3.701  11.420  0.6080 -0.1272  0.9287
  985MOL0     C29925  -0.020   3.693  11.529 -0.3051 -1.3252  0.6284
  985MOL0     C29926  -0.033   3.554  11.577 -0.1470  0.7070 -0.4616
  985MOL0     C29927  -0.116   3.551  11.707  0.1562  0.5039  0.0363
  985MOL0     C29928  -0.247   3.472  11.696 -0.6841 -0.3011  0.1778
  985MOL0     C29929  -0.233   3.334  11.623 -0.7101  0.6417 -0.3483
  985MOL0     C29930  -0.108   3.256  11.660 -0.0685 -0.1884 -0.2232
  985MOL0     C29931  -0.104   3.108  11.666  0.2403  0.5491 -0.0209
  985MOL0    Cl29932   0.048   3.063  11.727 -0.8285  0.5518 -0.2060
  985MOL0     C29933   0.180   3.808  11.156 -0.1581  1.0088  0.3573
  985MOL0     C29934   0.279   3.815  11.061 -1.3306 -0.7026  0.4446
  985MOL0     O29935   0.662   3.888  11.145  0.0200  0.4410  0.1532
  985MOL0     C29936   0.704   3.883  10.783  0.1984 -0.5842 -0.0358
  985MOL0     C29937   0.812   3.857  10.696 -0.0526 -0.6280 -0.3550
  985MOL0     N29938   1.346   3.433  10.361 -0.0360  0.4573  0.1819
  985MOL0     N29939   1.462   3.385  10.384 -0.5641 -0.1060 -0.4218
  985MOL0     C29940   2.612   2.998  10.537  0.0050  0.3022  0.7957
  985MOL0     C29941   2.746   3.000  10.511 -0.8180 -0.1963  0.9441
  985MOL0     C29942   3.165   3.126  10.404  0.0989 -0.5396 -0.7205
  985MOL0     C29943   3.172   3.229  10.303  0.1568  0.1239 -0.1306
  985MOL0     C29944   3.294   3.249  10.233 -0.1402  0.0224 -0.9666
  985MOL0     C29945   3.403   3.172  10.268 -0.0449  0.2831  0.3412
  985MOL0     O29946   3.516   3.169  10.185  1.0060 -0.2646 -0.1964
  985MOL0     C29947   3.553   3.296  10.127 -0.0737  0.5357  1.0983
  985MOL0     C29948   3.710   3.287  10.098  0.3308  0.3283  0.7017
  985MOL0     C29949   3.800   3.277  10.218 -0.3144  1.1363 -0.3359
  985MOL0     C29950   3.952   3.272  10.187 -0.3947 -0.1297 -0.9278
  985MOL0     C29951   4.014   3.218  10.303 -0.0834 -0.4200 -0.2554
  985MOL0     C29952   4.051   3.174  10.400 -0.2381  0.7949 -0.4499
  985MOL0     C29953   3.389   3.075  10.367  0.0649 -0.0811 -0.0418
  985MOL0     C29954   3.274   3.046  10.427  0.2577 -0.0923 -0.5564
  985MOL0     H29955   2.760   3.328  10.446  1.9294 -1.2138 -1.2292
  985MOL0     H29956   2.529   3.326  10.519 -0.6702 -1.2693  4.4412
  985MOL0     H29957   2.392   2.959  10.718  0.8566 -0.7863 -0.7920
  985MOL0     H29958   2.325   2.918  10.555  0.5417 -0.0969 -0.1528
  985MOL0     H29959   2.205   3.117  10.758  2.1263  0.6515 -0.4169
  985MOL0     H29960   2.152   2.949  10.737  2.9616 -1.1156 -0.7940
  985MOL0     H29961   2.131   3.004  10.489  0.8867 -1.1210  0.1162
  985MOL0     H29962   2.118   3.172  10.534 -1.7907  0.1719 -0.0166
  985MOL0     H29963   1.952   2.981  10.694  0.8450  0.1912  0.0780
  985MOL0     H29964   1.955   3.153  10.694 -1.2213 -0.7789 -0.4977
  985MOL0     H29965   1.851   2.994  10.450 -0.3464  0.7725 -0.3334
  985MOL0     H29966   1.822   3.164  10.479  0.2428  0.0108 -0.8314
  985MOL0     H29967   1.712   3.088  10.703 -1.8152 -0.0109  0.7158
  985MOL0     H29968   1.683   2.942  10.608 -0.6627  1.2495 -0.7570
  985MOL0     H29969   1.601   3.120  10.420 -2.3255  2.6589 -0.1705
  985MOL0     H29970   1.500   3.060  10.548  1.4899 -1.0440  3.6603
  985MOL0     H29971   1.666   3.307  10.578  0.3245  0.8750 -2.1078
  985MOL0     H29972   1.526   3.257  10.685 -3.1097 -0.4893 -1.1732
  985MOL0     H29973   1.284   3.332  10.656 -2.6090 -0.5526 -1.5746
  985MOL0     H29974   1.077   3.368  10.539 -0.8743 -0.2734 -2.2689
  985MOL0     H29975   1.074   3.443  10.374  0.8853  2.8091 -1.2445
  985MOL0     H29976   1.091   3.575  10.645 -0.1535  2.6661 -0.3952
  985MOL0     H29977   0.972   3.600  10.523  1.0496  1.4688 -0.1325
  985MOL0     H29978   1.249   3.713  10.544 -0.3641 -0.7556  0.6177
  985MOL0     H29979   1.184   3.710  10.387  0.1948  0.4289  0.8354
  985MOL0     H29980   0.970   3.848  10.476 -0.0560  1.8002  0.7661
  985MOL0     H29981   1.119   3.923  10.490  3.9722 -2.4729 -2.1973
  985MOL0     H29982   1.077   3.917  10.901  0.7860 -0.2961 -0.9836
  985MOL0     H29983   0.874   3.972  11.056 -1.3993 -2.1480  1.2275
  985MOL0     H29984   0.469   4.040  11.215 -1.8552 -0.6795  4.1275
  985MOL0     H29985   0.302   4.005  11.401  0.1903  1.4013 -1.4392
  985MOL0     H29986   0.175   3.652  11.442  0.5301 -1.1356 -0.8061
  985MOL0     H29987   0.044   3.651  11.329  1.1473  0.6809  0.2502
  985MOL0     H29988  -0.113   3.730  11.485  1.6080  2.0434 -0.9662
  985MOL0     H29989   0.011   3.759  11.610  2.6277 -0.5944 -0.9459
  985MOL0     H29990   0.063   3.507  11.600  0.0909  1.5133  0.2718
  985MOL0     H29991  -0.075   3.493  11.496 -0.3685  0.0037  0.1763
  985MOL0     H29992  -0.060   3.501  11.786 -1.7034 -0.5256  0.7667
  985MOL0     H29993  -0.133   3.655  11.737  0.6850  0.4632  0.5095
  985MOL0     H29994  -0.320   3.539  11.651 -0.6968 -0.2033  0.3423
  985MOL0     H29995  -0.280   3.445  11.797  2.3166  3.9568  2.6299
  985MOL0     H29996  -0.247   3.355  11.517 -2.5350  0.5029 -0.1778
  985MOL0     H29997  -0.316   3.265  11.645  1.9329 -2.7500 -0.1366
  985MOL0     H29998  -0.020   3.298  11.610 -0.8173  2.7360  0.7387
  985MOL0     H29999  -0.100   3.280  11.766 -2.9811 -2.2457  0.6070
  985MOL0     H30000  -0.108   3.065  11.566  0.4682 -3.1347  1.3835
  985MOL0     H30001  -0.190   3.058  11.713 -1.6938  2.5657 -1.2125
  985MOL0     H30002   0.103   3.734  11.137  3.2461 -2.8729  0.4115
  985MOL0     H30003   0.263   3.756  10.971  1.7354 -0.0022 -0.6857
  985MOL0     H30004   0.599   3.885  10.757 -0.2567  0.1249  1.6503
  985MOL0     H30005   0.803   3.842  10.588  4.5581  1.4594 -1.3102
  985MOL0     H30006   2.574   2.898  10.555 -0.8868  0.5837  0.4988
  985MOL0     H30007   2.812   2.913  10.511  1.2248  1.2222  2.9696
  985MOL0     H30008   3.087   3.295  10.286  1.5046  1.9876  0.0800
  985MOL0     H30009   3.289   3.337  10.171 -0.2126  4.0804  4.0751
  985MOL0     H30010   3.542   3.377  10.200  0.9800 -0.1636  2.0595
  985MOL0     H30011   3.504   3.328  10.035  0.9499  1.2465  0.7786
  985MOL0     H30012   3.730   3.202  10.032 -2.6723  0.8358 -1.0504
  985MOL0     H30013   3.754   3.376  10.051 -2.3122  0.8518 -1.0344
  985MOL0     H30014   3.778   3.189  10.278  3.1212 -0.1317 -0.6731
  985MOL0     H30015   3.786   3.371  10.272 -2.0712  0.6569  0.1001
  985MOL0     H30016   3.970   3.212  10.097  4.1372 -1.0564  0.3581
  985MOL0     H30017   3.997   3.371  10.174 -2.4798  1.6292  3.2741
  985MOL0     H30018   4.077   3.122  10.489  0.0978  0.4415 -0.7497
  985MOL0     H30019   3.478   3.019  10.392  1.2787  0.4115 -2.8276
  985MOL0     H30020   3.263   2.959  10.491 -3.3411 -0.7061 -1.7866
  986MOL0     O30021   0.594   1.902   1.963  0.0713 -0.4912  0.8928
  986MOL0     C30022   0.655   2.012   1.945  0.8537 -0.2501 -0.0549
  986MOL0     O30023   0.592   2.122   1.896  0.3634  0.0002 -0.5216
  986MOL0     C30024   0.458   2.108   1.870  0.9242  0.6309 -0.9185
  986MOL0     C30025   0.409   2.070   1.748 -0.4812  0.0313  0.6543
  986MOL0     C30026   0.272   2.076   1.718 -0.4799 -0.0586 -0.2393
  986MOL0     C30027   0.181   2.125   1.815 -0.1665 -0.0848  0.9190
  986MOL0     O30028   0.050   2.126   1.777 -0.1730 -0.0912 -0.0293
  986MOL0     C30029  -0.044   2.200   1.855  0.5483 -0.8247 -0.5813
  986MOL0     C30030  -0.179   2.164   1.789  0.4613  0.3635  0.3977
  986MOL0     C30031  -0.300   2.214   1.869 -0.6046 -0.2816  0.2835
  986MOL0     C30032  -0.433   2.152   1.833  1.0094  0.3847  0.2881
  986MOL0     C30033  -0.564   2.223   1.866 -0.2344  0.3057  0.3795
  986MOL0     C30034  -0.560   2.282   1.999  0.3380  0.1678  0.2411
  986MOL0     C30035  -0.694   2.351   2.028  0.4714 -0.1018 -0.1806
  986MOL0     C30036  -0.705   2.421   2.165 -0.1451  1.4924 -0.0993
  986MOL0     N30037  -0.708   2.327   2.278  0.1796 -1.0080  0.2338
  986MOL0     C30038  -0.614   2.303   2.373 -0.1729  0.9167  1.0707
  986MOL0     C30039  -0.687   2.239   2.471  0.2524 -0.0990  0.1924
  986MOL0     C30040  -0.658   2.184   2.609  0.4850  0.4258 -0.6657
  986MOL0     C30041  -0.509   2.180   2.628 -0.2320 -0.1235 -0.2981
  986MOL0     C30042  -0.486   2.123   2.767  0.0908  0.5720  0.4834
  986MOL0     C30043  -0.331   2.112   2.799  0.5967  0.5032  0.3369
  986MOL0     O30044  -0.275   1.990   2.747 -0.3464 -0.0686 -0.3788
  986MOL0     C30045  -0.142   1.965   2.773  0.6437 -0.0561 -0.3030
  986MOL0     C30046  -0.058   2.050   2.842  0.0275 -0.0480 -0.6783
  986MOL0     C30047   0.082   2.015   2.849 -0.5601 -0.1406 -0.4879
  986MOL0     C30048   0.136   1.889   2.803  0.3248  0.5662 -0.1303
  986MOL0     C30049   0.278   1.857   2.811  0.0782 -0.0988 -0.9004
  986MOL0     O30050   0.322   1.733   2.769 -0.4594 -0.2330  0.6199
  986MOL0     C30051   0.458   1.695   2.768  0.2382  0.7380  0.5976
  986MOL0     C30052   0.504   1.608   2.673 -0.2894  0.6382  0.7605
  986MOL0     C30053   0.632   1.573   2.664 -0.4867  0.5747 -0.3826
  986MOL0     C30054   0.723   1.628   2.756 -0.2191  0.3846  0.6219
  986MOL0     O30055   0.859   1.610   2.735 -0.0815  0.1220  0.2911
  986MOL0     C30056   0.942   1.718   2.772  0.1585 -0.0931  0.2982
  986MOL0     C30057   1.093   1.696   2.769 -1.0811  0.2264  0.5573
  986MOL0     C30058   1.139   1.650   2.632 -0.3017 -0.1786 -0.5096
  986MOL0     C30059   1.292   1.658   2.616  0.0748 -0.0041  0.4043
  986MOL0     C30060   1.356   1.536   2.673  0.8726 -0.1249  0.1544
  986MOL0     C30061   1.504   1.516   2.626  0.3282 -0.6718  0.0475
  986MOL0     C30062   1.599   1.633   2.662 -0.2383 -0.6498  0.4201
  986MOL0     C30063   1.734   1.620   2.584 -0.0370  0.3125 -0.5670
  986MOL0    Cl30064   1.847   1.749   2.630 -0.4336 -0.4324  0.6065
  986MOL0     C30065   0.683   1.701   2.868  0.1466  0.6262 -0.0579
  986MOL0     C30066   0.545   1.729   2.880  0.5091  0.0493  0.6226
  986MOL0     O30067   0.348   1.946   2.857  1.1071  0.1330  0.8179
  986MOL0     C30068   0.042   1.802   2.751  0.2980 -1.1280 -0.5312
  986MOL0     C30069  -0.093   1.840   2.734  0.2107 -0.0452 -0.2931
  986MOL0     N30070  -0.822   2.222   2.433  1.0146 -0.4759 -0.2183
  986MOL0     N30071  -0.829   2.273   2.318 -0.0217 -0.7899 -0.1936
  986MOL0     C30072   0.227   2.174   1.932 -0.3235 -0.1594 -0.3872
  986MOL0     C30073   0.365   2.161   1.961  0.4557 -0.2969  0.1300
  986MOL0     C30074   0.798   2.025   1.963  0.5079  0.1519 -0.3162
  986MOL0     C30075   0.856   1.947   2.060 -0.0006 -0.1477 -0.1131
  986MOL0     C30076   0.986   1.963   2.096 -0.4129 -0.9435  0.2627
  986MOL0     C30077   1.069   2.058   2.026 -0.7058 -1.2081 -0.3461
  986MOL0     O30078   1.199   2.063   2.067  0.6339  0.2680 -0.3580
  986MOL0     C30079   1.286   2.161   2.023 -0.0653 -0.2029 -0.0747
  986MOL0     C30080   1.429   2.124   2.085  0.2210 -0.1978 -0.0917
  986MOL0     C30081   1.538   2.179   1.995 -0.0701 -0.1245 -0.6235
  986MOL0     C30082   1.660   2.085   1.991 -0.1823  0.0977 -0.2878
  986MOL0     C30083   1.771   2.145   1.922  0.0426 -0.5069  0.6428
  986MOL0     C30084   1.858   2.200   1.856 -0.3590  0.7970 -0.1816
  986MOL0     C30085   1.008   2.144   1.934 -0.3808  0.1015 -0.3114
  986MOL0     C30086   0.877   2.115   1.903  0.2451  0.6865  0.5546
  986MOL0     H30087   0.473   2.046   1.664 -1.8058  1.8656 -0.9729
  986MOL0     H30088   0.228   2.034   1.629 -0.7483 -0.4366  0.0679
  986MOL0     H30089  -0.016   2.306   1.855 -0.8957 -0.4269  0.0977
  986MOL0     H30090  -0.054   2.168   1.959 -1.8984 -2.2067 -1.1624
  986MOL0     H30091  -0.181   2.055   1.793  0.0503  0.4027  2.4706
  986MOL0     H30092  -0.187   2.191   1.684  0.8443 -1.8078 -0.2404
  986MOL0     H30093  -0.302   2.323   1.861 -3.5708 -0.2236  0.6830
  986MOL0     H30094  -0.274   2.187   1.972  2.4931  0.5028 -0.1925
  986MOL0     H30095  -0.443   2.143   1.725  1.2089 -0.1178  0.3116
  986MOL0     H30096  -0.442   2.051   1.874 -2.1400  1.0058  1.4374
  986MOL0     H30097  -0.652   2.159   1.860 -1.7751  2.3740 -0.5393
  986MOL0     H30098  -0.585   2.303   1.794  0.9239  1.8329  1.6394
  986MOL0     H30099  -0.479   2.355   2.003  0.2339  0.3808 -1.1838
  986MOL0     H30100  -0.527   2.216   2.080 -1.6118  1.3292  2.0853
  986MOL0     H30101  -0.710   2.434   1.960 -2.4171 -0.8560 -0.5705
  986MOL0     H30102  -0.779   2.282   2.017  1.0458 -0.5585 -2.2438
  986MOL0     H30103  -0.804   2.467   2.165 -1.2854 -0.8055  0.4215
  986MOL0     H30104  -0.632   2.503   2.164 -2.4430  3.6187 -0.4111
  986MOL0     H30105  -0.512   2.334   2.387  0.5416 -1.2606  1.0632
  986MOL0     H30106  -0.705   2.086   2.622 -1.1571  0.6780 -3.7639
  986MOL0     H30107  -0.707   2.248   2.683 -2.5184 -1.5068 -0.8100
  986MOL0     H30108  -0.466   2.280   2.630  1.3420 -0.7637 -0.2488
  986MOL0     H30109  -0.454   2.117   2.556  1.7026  0.6954  0.3849
  986MOL0     H30110  -0.533   2.182   2.847 -1.4734 -1.5320  1.2133
  986MOL0     H30111  -0.535   2.026   2.781 -0.1391  0.9200  2.4734
  986MOL0     H30112  -0.316   2.128   2.907  0.0695 -1.8455  0.8045
  986MOL0     H30113  -0.285   2.198   2.750 -2.5736  1.2139 -1.6511
  986MOL0     H30114  -0.078   2.152   2.873  1.2118 -0.4086  1.5065
  986MOL0     H30115   0.156   2.082   2.891  0.9982 -0.9882 -1.8036
  986MOL0     H30116   0.438   1.571   2.594  0.0058 -0.1939  0.8895
  986MOL0     H30117   0.668   1.513   2.581 -2.1730  0.1831 -0.8753
  986MOL0     H30118   0.929   1.746   2.877 -0.6711 -0.9357  0.4389
  986MOL0     H30119   0.922   1.806   2.711 -1.1568 -0.1032  0.6803
  986MOL0     H30120   1.126   1.608   2.825 -1.7842  0.7709  1.8679
  986MOL0     H30121   1.145   1.788   2.796 -0.8456 -0.0966  1.2205
  986MOL0     H30122   1.111   1.729   2.561  2.6927  1.2487 -0.3160
  986MOL0     H30123   1.096   1.557   2.597  1.7544 -0.5460 -2.3442
  986MOL0     H30124   1.316   1.663   2.510  0.8473  1.2752  0.6229
  986MOL0     H30125   1.331   1.751   2.659 -0.3437  0.7851 -0.8694
  986MOL0     H30126   1.294   1.453   2.640 -0.6716  0.1573  2.1087
  986MOL0     H30127   1.346   1.549   2.782  0.2519 -1.8941  0.3403
  986MOL0     H30128   1.499   1.501   2.517  3.2806 -0.7574 -0.1617
  986MOL0     H30129   1.544   1.425   2.671 -0.5635 -0.1659  1.9418
  986MOL0     H30130   1.562   1.734   2.644  1.6935  0.3060  1.4728
  986MOL0     H30131   1.617   1.629   2.769  2.0958 -0.8397  0.0665
  986MOL0     H30132   1.727   1.609   2.476  0.0018 -0.6929 -0.4777
  986MOL0     H30133   1.786   1.529   2.615  0.8952  1.2957  0.8929
  986MOL0     H30134   0.757   1.729   2.942 -0.1917  1.9652 -0.1948
  986MOL0     H30135   0.512   1.775   2.972  1.3423  0.6430  0.6316
  986MOL0     H30136   0.072   1.705   2.713  0.7654 -0.5386 -1.7340
  986MOL0     H30137  -0.162   1.769   2.690 -0.0064 -2.4006  3.4471
  986MOL0     H30138   0.168   2.212   2.014  1.6234  4.3876 -0.7980
  986MOL0     H30139   0.398   2.201   2.056 -0.4133  2.4080 -0.6285
  986MOL0     H30140   0.801   1.870   2.112 -3.6054  0.5619 -2.5405
  986MOL0     H30141   1.025   1.891   2.166 -2.1172 -2.3635 -0.1730
  986MOL0     H30142   1.259   2.255   2.071  1.6260  0.3655 -0.1581
  986MOL0     H30143   1.304   2.155   1.916  4.8449 -1.1212  0.5200
  986MOL0     H30144   1.456   2.152   2.187  0.7177 -0.6345 -0.1010
  986MOL0     H30145   1.432   2.015   2.094  0.4227 -0.2206 -0.4109
  986MOL0     H30146   1.556   2.279   2.036  0.6866 -1.2772  2.0539
  986MOL0     H30147   1.513   2.188   1.889  1.0744 -0.1434 -0.9136
  986MOL0     H30148   1.704   2.059   2.088 -2.7988 -1.6450  0.5579
  986MOL0     H30149   1.629   1.988   1.949  2.0979 -0.0661 -1.7828
  986MOL0     H30150   1.942   2.226   1.795  0.5533 -0.7219  0.3656
  986MOL0     H30151   1.051   2.220   1.870 -2.8368  2.0353  0.2090
  986MOL0     H30152   0.833   2.178   1.826  0.3321  0.5904  0.4264
  987MOL0     O30153   5.731   5.869   7.977 -0.0190  0.2361  0.2956
  987MOL0     C30154   5.820   5.873   8.056 -0.0149  0.9733 -0.0385
  987MOL0     O30155   5.815   5.857   8.186  0.4094 -0.4875 -0.2330
  987MOL0     C30156   5.701   5.821   8.252  0.7750  0.5390  0.0939
  987MOL0     C30157   5.698   5.707   8.332  0.8006 -0.7229  0.2908
  987MOL0     C30158   5.585   5.692   8.416 -0.2677 -0.3164 -0.0034
  987MOL0     C30159   5.473   5.780   8.410 -0.8035 -0.3755  0.4534
  987MOL0     O30160   5.359   5.738   8.474  0.1231 -0.1886  0.3380
  987MOL0     C30161   5.372   5.733   8.612  0.4047 -0.1890  0.8032
  987MOL0     C30162   5.296   5.849   8.686  0.0510 -0.2838 -0.0378
  987MOL0     C30163   5.299   5.981   8.604  0.8191 -0.4399  0.6129
  987MOL0     C30164   5.228   6.108   8.668  0.0577  0.1768  0.4950
  987MOL0     C30165   5.254   6.231   8.581  0.1153  0.6316  0.1245
  987MOL0     C30166   5.168   6.228   8.449  0.3462 -0.4298 -0.6788
  987MOL0     C30167   5.187   6.358   8.370 -0.3147  0.5965 -0.7142
  987MOL0     C30168   5.118   6.484   8.428  0.1608  1.3370 -0.3739
  987MOL0     N30169   4.975   6.476   8.432  0.7511 -0.2685 -0.3838
  987MOL0     C30170   4.904   6.551   8.525 -0.6034  0.4987  0.0104
  987MOL0     C30171   4.776   6.527   8.498 -1.3850  0.1611 -0.4208
  987MOL0     C30172   4.660   6.566   8.581  0.5345 -0.1754 -0.1859
  987MOL0     C30173   4.527   6.579   8.511 -0.6942 -0.7547 -0.0364
  987MOL0     C30174   4.404   6.616   8.601 -0.2473  0.6234 -0.0072
  987MOL0     C30175   4.274   6.615   8.530 -0.0459 -0.2275 -0.1063
  987MOL0     O30176   4.171   6.669   8.614 -0.0598 -0.2738  0.5726
  987MOL0     C30177   4.041   6.670   8.574 -0.0894 -0.1304 -0.3227
  987MOL0     C30178   3.987   6.665   8.449 -0.8274  0.1116  0.1241
  987MOL0     C30179   3.852   6.663   8.424  1.1086 -0.2253 -0.2530
  987MOL0     C30180   3.764   6.679   8.535 -0.4654  0.0473 -1.0375
  987MOL0     C30181   3.612   6.699   8.518 -0.6685  0.0678  0.1806
  987MOL0     O30182   3.530   6.723   8.629 -0.2439 -0.6233  0.4478
  987MOL0     C30183   3.406   6.762   8.598 -0.2545 -0.0610 -0.7584
  987MOL0     C30184   3.296   6.699   8.649 -0.7729 -0.1912 -0.1654
  987MOL0     C30185   3.174   6.752   8.619  0.3938  0.0362 -0.5797
  987MOL0     C30186   3.159   6.878   8.561  0.7338  0.4859  0.3935
  987MOL0     O30187   3.026   6.906   8.522  0.2672  0.1971  0.5555
  987MOL0     C30188   2.923   6.947   8.614 -0.0559  0.9044  0.1911
  987MOL0     C30189   2.804   6.848   8.628  0.5580 -0.6057  0.3489
  987MOL0     C30190   2.757   6.788   8.501  0.3612  0.4052 -0.2614
  987MOL0     C30191   2.779   6.633   8.495  0.2208  0.6754 -0.1854
  987MOL0     C30192   2.719   6.593   8.365  0.1049  0.4353  0.1017
  987MOL0     C30193   2.758   6.455   8.312 -0.1193  0.7032  0.2956
  987MOL0     C30194   2.727   6.427   8.165  0.1929  0.4069  0.1986
  987MOL0     C30195   2.777   6.525   8.060 -0.2117 -1.1145  0.5315
  987MOL0    Cl30196   2.687   6.508   7.901  0.4731 -0.1673 -0.4025
  987MOL0     C30197   3.270   6.942   8.510  0.4075  1.1894  1.2152
  987MOL0     C30198   3.394   6.880   8.532  0.0242  0.0458 -0.3450
  987MOL0     O30199   3.575   6.683   8.406 -0.0432  0.1354 -0.6114
  987MOL0     C30200   3.821   6.684   8.665  1.9520  0.2034  0.8379
  987MOL0     C30201   3.956   6.677   8.674 -0.3828  0.6985  0.6916
  987MOL0     N30202   4.774   6.451   8.384 -0.5867 -0.2568 -0.0218
  987MOL0     N30203   4.887   6.422   8.345 -0.3787 -0.3698 -0.2354
  987MOL0     C30204   5.475   5.887   8.326  0.3766  0.5217  0.7528
  987MOL0     C30205   5.590   5.914   8.250  0.0308  0.2363  0.5418
  987MOL0     C30206   5.951   5.919   8.005  0.0601 -0.4592 -0.9226
  987MOL0     C30207   5.965   5.963   7.875 -0.2253  0.1012  0.5084
  987MOL0     C30208   6.090   6.008   7.824 -0.4559  0.9806 -0.2567
  987MOL0     C30209   6.202   6.007   7.916 -0.5938 -0.4354  0.1090
  987MOL0     O30210   6.334   6.031   7.876  0.5131  0.3001 -0.0742
  987MOL0     C30211   6.366   5.999   7.733  0.8083 -0.4655  0.6190
  987MOL0     C30212   6.513   5.956   7.725  0.2635  0.3768 -0.3527
  987MOL0     C30213   6.611   6.071   7.768 -0.6638 -0.7377  0.9799
  987MOL0     C30214   6.597   6.200   7.672 -0.1692  0.8108  0.2323
  987MOL0     C30215   6.701   6.293   7.680  0.8632  0.4316  0.3249
  987MOL0     C30216   6.784   6.382   7.687 -0.1521  1.0885  0.7621
  987MOL0     C30217   6.188   5.969   8.041 -0.6430 -0.2202  0.3185
  987MOL0     C30218   6.060   5.935   8.099 -0.4076  0.5470  0.7542
  987MOL0     H30219   5.779   5.635   8.339  1.8643  0.3098 -0.8419
  987MOL0     H30220   5.584   5.615   8.492 -2.0556 -2.1749 -1.7990
  987MOL0     H30221   5.478   5.724   8.639  0.7172 -2.1164 -0.8793
  987MOL0     H30222   5.326   5.641   8.648  1.8382 -2.2571 -2.2219
  987MOL0     H30223   5.356   5.862   8.776 -0.3949  0.7378  0.1228
  987MOL0     H30224   5.190   5.824   8.695  0.5569 -1.7241  2.9986
  987MOL0     H30225   5.253   5.956   8.508  1.2648 -4.0605  1.1876
  987MOL0     H30226   5.404   6.010   8.593  0.2552  1.4081 -0.3808
  987MOL0     H30227   5.121   6.096   8.687  0.1488  1.2340  1.9204
  987MOL0     H30228   5.286   6.129   8.759 -0.3825  2.7550  0.2688
  987MOL0     H30229   5.361   6.230   8.560 -0.1982  2.0237 -1.8478
  987MOL0     H30230   5.220   6.321   8.635 -2.9836 -0.9440  1.0623
  987MOL0     H30231   5.064   6.220   8.480  0.8417 -5.3353  0.5645
  987MOL0     H30232   5.195   6.152   8.375  3.3043  0.2022 -0.3543
  987MOL0     H30233   5.293   6.380   8.358 -0.8463  3.3613 -0.9860
  987MOL0     H30234   5.148   6.352   8.268 -0.6531  0.1259 -0.5660
  987MOL0     H30235   5.145   6.577   8.377  1.1100  1.3570  0.1321
  987MOL0     H30236   5.158   6.485   8.530 -4.4323  0.9687  1.6613
  987MOL0     H30237   4.933   6.616   8.607  1.8373  0.8965 -1.0676
  987MOL0     H30238   4.673   6.660   8.635  0.5080 -1.7747  2.8550
  987MOL0     H30239   4.640   6.501   8.667 -0.6602  1.5632  0.9123
  987MOL0     H30240   4.509   6.477   8.474 -3.4637 -0.7830  1.1364
  987MOL0     H30241   4.530   6.655   8.432 -3.0262  2.0142  2.3199
  987MOL0     H30242   4.392   6.541   8.679  0.2026  0.7034  0.1372
  987MOL0     H30243   4.420   6.709   8.656 -0.3541  0.9664 -0.5471
  987MOL0     H30244   4.238   6.516   8.498 -2.0176 -0.5779  2.7847
  987MOL0     H30245   4.282   6.665   8.433 -2.6432  0.9041  0.1881
  987MOL0     H30246   4.048   6.682   8.361 -1.3193  1.1210 -0.0435
  987MOL0     H30247   3.798   6.652   8.331 -0.4302 -0.2769  0.6273
  987MOL0     H30248   3.308   6.598   8.687 -1.7841  0.0122  0.7393
  987MOL0     H30249   3.083   6.696   8.641 -1.9945  4.0913  1.0845
  987MOL0     H30250   2.876   7.040   8.580 -0.6477  0.0341 -1.4880
  987MOL0     H30251   2.962   6.968   8.714 -0.1548 -0.7031  0.5990
  987MOL0     H30252   2.725   6.893   8.689 -0.8798 -2.7513  0.1872
  987MOL0     H30253   2.847   6.765   8.686 -0.7612 -1.2814  0.3979
  987MOL0     H30254   2.805   6.832   8.414 -0.0861 -2.3516 -2.0206
  987MOL0     H30255   2.649   6.806   8.491  0.4913  1.8286  0.5946
  987MOL0     H30256   2.883   6.605   8.514 -0.5145 -3.4751 -1.3102
  987MOL0     H30257   2.723   6.580   8.572 -0.9029  1.2438 -0.5958
  987MOL0     H30258   2.761   6.667   8.296  2.8170  0.4760  1.6504
  987MOL0     H30259   2.610   6.601   8.370 -0.2327 -2.8205 -0.0659
  987MOL0     H30260   2.710   6.383   8.379  0.7124  0.9547  1.1870
  987MOL0     H30261   2.866   6.441   8.319  0.0456  1.2746 -0.8601
  987MOL0     H30262   2.768   6.328   8.147 -3.4142 -1.4637  1.3590
  987MOL0     H30263   2.619   6.424   8.146  0.3375  1.3881 -0.9560
  987MOL0     H30264   2.884   6.510   8.048  0.1464 -0.5595  2.5659
  987MOL0     H30265   2.759   6.629   8.090  0.2123 -1.3502  1.6743
  987MOL0     H30266   3.270   7.027   8.442  1.1883 -0.0926 -0.4577
  987MOL0     H30267   3.484   6.932   8.500  0.4762 -0.5699 -0.0837
  987MOL0     H30268   3.762   6.689   8.756  1.5052  4.4845  0.4839
  987MOL0     H30269   3.995   6.682   8.775 -0.8673 -2.2511  1.1142
  987MOL0     H30270   5.384   5.946   8.318  0.0550  0.0037  0.5831
  987MOL0     H30271   5.589   6.005   8.190 -0.1308  0.2877  0.6224
  987MOL0     H30272   5.881   5.981   7.809  0.5691 -0.3567 -0.6436
  987MOL0     H30273   6.103   6.063   7.731 -0.6499 -2.1341 -2.2822
  987MOL0     H30274   6.348   6.085   7.668 -0.2952 -1.5920 -0.6306
  987MOL0     H30275   6.300   5.921   7.694  1.7824 -0.3318 -1.4759
  987MOL0     H30276   6.525   5.871   7.793  0.1077 -1.1426 -2.1536
  987MOL0     H30277   6.532   5.921   7.623 -0.1757 -4.1523  0.8863
  987MOL0     H30278   6.712   6.038   7.745  0.4526  2.3531  0.9023
  987MOL0     H30279   6.596   6.094   7.874  0.7604 -0.0792  1.0668
  987MOL0     H30280   6.611   6.156   7.573  1.3180  3.3926 -0.7877
  987MOL0     H30281   6.504   6.256   7.685 -0.2480  1.0271 -1.1387
  987MOL0     H30282   6.860   6.458   7.686 -0.2592  1.1996  1.0737
  987MOL0     H30283   6.271   5.976   8.111  0.8073 -1.9817 -1.1446
  987MOL0     H30284   6.050   5.905   8.202  1.3807 -1.1455  0.4878
  988MOL0     O30285   4.879   1.759   1.935 -0.0363 -0.2634  0.6650
  988MOL0     C30286   4.860   1.698   1.829  0.5028  0.1900 -0.2802
  988MOL0     O30287   4.749   1.621   1.797 -0.1558  0.0706 -0.1930
  988MOL0     C30288   4.662   1.598   1.896 -0.5903  0.6031 -0.7449
  988MOL0     C30289   4.626   1.461   1.903 -0.7100 -0.2747  0.6364
  988MOL0     C30290   4.531   1.418   1.991 -0.5561  0.2366  0.7856
  988MOL0     C30291   4.474   1.499   2.088 -0.1888 -0.2062  0.1304
  988MOL0     O30292   4.398   1.435   2.178 -0.9001 -0.2875 -0.1590
  988MOL0     C30293   4.281   1.499   2.231 -0.3874  0.7864 -0.3095
  988MOL0     C30294   4.263   1.445   2.370 -0.0614  0.5020  1.0111
  988MOL0     C30295   4.153   1.510   2.447  1.1498  0.0501 -0.0077
  988MOL0     C30296   4.192   1.645   2.500  0.1583  0.2699 -0.2744
  988MOL0     C30297   4.082   1.713   2.585 -0.0334 -0.1139 -0.9929
  988MOL0     C30298   4.026   1.629   2.710 -0.7801  0.1949  0.1743
  988MOL0     C30299   3.921   1.704   2.792  0.0171 -0.0008  0.1646
  988MOL0     C30300   3.946   1.662   2.937 -0.6693 -0.4616 -0.3072
  988MOL0     N30301   3.906   1.527   2.976  0.6620  0.1389  0.0624
  988MOL0     C30302   3.990   1.449   3.045 -0.3835 -0.3867  0.0312
  988MOL0     C30303   3.917   1.332   3.059 -0.5786  0.1716  0.6711
  988MOL0     C30304   3.976   1.207   3.118  0.1781 -0.0420 -0.2307
  988MOL0     C30305   3.918   1.079   3.067 -0.1639  0.8717 -0.6412
  988MOL0     C30306   3.815   1.010   3.161  0.2280 -0.5460 -0.2279
  988MOL0     C30307   3.680   1.084   3.160 -0.2292 -0.4525 -0.6053
  988MOL0     O30308   3.586   0.993   3.209 -0.3323  0.4287 -0.6005
  988MOL0     C30309   3.468   1.029   3.246  0.5498  1.6500 -0.1150
  988MOL0     C30310   3.384   0.919   3.282 -0.7003 -0.4336  0.2237
  988MOL0     C30311   3.252   0.941   3.326  0.1690 -0.4194 -0.6592
  988MOL0     C30312   3.191   1.063   3.321 -0.0499  0.0781  0.4034
  988MOL0     C30313   3.052   1.070   3.354  0.5918 -1.0958 -0.0048
  988MOL0     O30314   2.988   0.967   3.409  0.2621  0.4723 -0.2178
  988MOL0     C30315   2.865   0.986   3.447 -0.3877 -0.1948 -0.1543
  988MOL0     C30316   2.769   0.921   3.377  0.3617  1.0444  0.1530
  988MOL0     C30317   2.635   0.914   3.416  0.2542  0.4622 -0.0190
  988MOL0     C30318   2.592   0.989   3.526  0.0300  0.3688 -0.2805
  988MOL0     O30319   2.461   0.992   3.570 -0.6408 -0.0902  0.0378
  988MOL0     C30320   2.443   0.972   3.707 -0.4853 -0.5434 -0.0038
  988MOL0     C30321   2.330   0.869   3.744  0.6763  0.1827  0.3621
  988MOL0     C30322   2.210   0.876   3.655 -0.6542 -0.4522  0.4746
  988MOL0     C30323   2.114   0.780   3.699  0.1856 -0.8429  0.3698
  988MOL0     C30324   1.976   0.809   3.645 -0.0567  1.4241  0.5997
  988MOL0     C30325   1.906   0.923   3.709  0.7126  0.7187 -0.4323
  988MOL0     C30326   1.770   0.948   3.631  0.1718  0.3639  0.2282
  988MOL0     C30327   1.649   0.857   3.661 -0.7019  0.1561  0.9466
  988MOL0    Cl30328   1.620   0.830   3.832  0.1102  0.3873 -0.1276
  988MOL0     C30329   2.687   1.071   3.591 -0.3491 -0.3951 -1.0913
  988MOL0     C30330   2.821   1.065   3.555 -0.0410 -0.7515 -0.1487
  988MOL0     O30331   2.993   1.172   3.318  0.9883 -0.0462 -0.7216
  988MOL0     C30332   3.271   1.170   3.274 -0.1942  0.3656  0.7151
  988MOL0     C30333   3.409   1.151   3.240  0.8989 -0.3995 -0.2463
  988MOL0     N30334   3.786   1.348   3.012 -0.7377 -0.0905 -0.0819
  988MOL0     N30335   3.778   1.472   2.964  1.2291 -0.4248 -0.5195
  988MOL0     C30336   4.510   1.638   2.085  0.7832  0.0958 -0.4816
  988MOL0     C30337   4.605   1.680   1.992 -0.0429 -0.5731  0.1193
  988MOL0     C30338   4.964   1.703   1.731  0.0948  0.7790 -0.3553
  988MOL0     C30339   4.943   1.681   1.600  0.4971  0.0051 -0.7583
  988MOL0     C30340   5.042   1.710   1.509 -1.0026 -0.4369 -0.1030
  988MOL0     C30341   5.169   1.752   1.550 -0.0714 -0.4347  0.1550
  988MOL0     O30342   5.265   1.758   1.461  0.2657  0.2700  0.3014
  988MOL0     C30343   5.271   1.870   1.378  0.8674  0.1539 -0.5123
  988MOL0     C30344   5.413   1.938   1.370 -0.1832  0.2892 -0.1453
  988MOL0     C30345   5.518   1.826   1.324  0.5881 -0.5411  0.3706
  988MOL0     C30346   5.651   1.892   1.287  0.0389  0.5909  0.8336
  988MOL0     C30347   5.760   1.800   1.249  0.7772 -0.3042  0.1197
  988MOL0     C30348   5.841   1.711   1.245  0.3576 -0.4871 -0.3659
  988MOL0     C30349   5.195   1.780   1.687 -0.4895  0.5613  0.6886
  988MOL0     C30350   5.091   1.747   1.779 -0.1444  0.5843  0.0328
  988MOL0     H30351   4.675   1.397   1.830  0.2563  1.5458 -0.3645
  988MOL0     H30352   4.517   1.310   1.991  0.1708  0.1081 -0.7517
  988MOL0     H30353   4.198   1.468   2.167  1.3199 -3.9166 -0.6374
  988MOL0     H30354   4.297   1.606   2.248  3.0288  0.0811  1.8685
  988MOL0     H30355   4.358   1.449   2.425  1.3417  3.3724 -1.2902
  988MOL0     H30356   4.233   1.342   2.351 -0.4069  0.9729 -1.3142
  988MOL0     H30357   4.112   1.443   2.523 -1.9101 -1.9959 -3.1014
  988MOL0     H30358   4.068   1.518   2.378  0.9857 -0.0927  0.1736
  988MOL0     H30359   4.280   1.636   2.565 -0.0132  3.7349  0.6282
  988MOL0     H30360   4.223   1.719   2.425 -1.0848  1.1238  0.0280
  988MOL0     H30361   3.995   1.756   2.535  1.1899  3.3112 -0.4494
  988MOL0     H30362   4.132   1.798   2.634 -0.1597 -0.7202  0.2366
  988MOL0     H30363   4.112   1.594   2.769 -1.2909 -0.6184  0.4529
  988MOL0     H30364   3.987   1.532   2.679  2.7757 -0.9278 -1.3974
  988MOL0     H30365   3.937   1.811   2.775 -0.8022  0.2986  1.1917
  988MOL0     H30366   3.822   1.691   2.748 -0.2424  1.9293  0.1029
  988MOL0     H30367   3.877   1.722   2.998 -0.7616 -0.3790 -0.4926
  988MOL0     H30368   4.049   1.688   2.962 -0.8755  0.6908 -0.5895
  988MOL0     H30369   4.094   1.457   3.075 -0.8243  1.5056  1.1783
  988MOL0     H30370   3.967   1.195   3.226 -0.7239  3.1975  0.1734
  988MOL0     H30371   4.080   1.206   3.085 -0.5278 -0.1903 -2.6195
  988MOL0     H30372   4.003   1.011   3.053 -1.6206 -1.0119 -0.7806
  988MOL0     H30373   3.861   1.091   2.975 -2.0644 -0.0452  0.3700
  988MOL0     H30374   3.815   0.905   3.131  1.0021 -0.7096  0.2997
  988MOL0     H30375   3.857   1.003   3.262 -3.2963  1.4004  1.5677
  988MOL0     H30376   3.645   1.094   3.057 -1.8953 -5.2131 -0.7383
  988MOL0     H30377   3.692   1.186   3.199 -0.5548 -0.5646 -0.1987
  988MOL0     H30378   3.413   0.814   3.277 -1.2264 -0.9274  4.1470
  988MOL0     H30379   3.198   0.849   3.350  0.6132 -0.4353  0.3425
  988MOL0     H30380   2.793   0.869   3.284  1.0370 -1.6851  1.7555
  988MOL0     H30381   2.551   0.870   3.364  0.3281  3.2672 -2.8198
  988MOL0     H30382   2.418   1.065   3.760  2.0441  0.6665 -0.7700
  988MOL0     H30383   2.536   0.939   3.753  0.4144  0.6610 -0.8818
  988MOL0     H30384   2.313   0.887   3.850  0.9602 -0.7657  0.5730
  988MOL0     H30385   2.382   0.774   3.729  1.3749  0.1455  2.6671
  988MOL0     H30386   2.238   0.843   3.555  2.9223  0.7630  0.9356
  988MOL0     H30387   2.171   0.978   3.652 -0.0208 -0.1629  1.6084
  988MOL0     H30388   2.135   0.678   3.665 -0.3377 -0.5125 -1.0054
  988MOL0     H30389   2.099   0.777   3.808 -0.6236 -0.6832  0.2733
  988MOL0     H30390   1.910   0.723   3.655  0.7125  0.8344  0.6712
  988MOL0     H30391   1.979   0.827   3.537  0.0260  2.7518  0.8102
  988MOL0     H30392   1.972   1.010   3.719  1.9561 -0.3165  0.6399
  988MOL0     H30393   1.878   0.887   3.808 -1.3075  1.5549 -0.6465
  988MOL0     H30394   1.742   1.050   3.657  1.5255  1.4932 -2.3522
  988MOL0     H30395   1.786   0.944   3.523 -0.1760 -1.5286  0.2175
  988MOL0     H30396   1.662   0.761   3.610 -1.8880  1.5449 -2.2593
  988MOL0     H30397   1.560   0.910   3.624 -0.0221  1.8173  1.5961
  988MOL0     H30398   2.667   1.134   3.677 -0.2698  0.4040 -1.6470
  988MOL0     H30399   2.886   1.122   3.621  0.0683 -3.6408  2.4986
  988MOL0     H30400   3.236   1.272   3.271  2.6479  1.4142 -0.8920
  988MOL0     H30401   3.466   1.242   3.224  0.1709  0.7222  2.7788
  988MOL0     H30402   4.470   1.711   2.154 -1.6547 -0.4454 -1.2254
  988MOL0     H30403   4.638   1.783   1.993 -1.5406 -0.0193 -1.5956
  988MOL0     H30404   4.844   1.652   1.565  0.9383 -1.0734 -1.1238
  988MOL0     H30405   5.035   1.689   1.403 -3.2025  2.2277 -0.5759
  988MOL0     H30406   5.197   1.942   1.415  0.8696 -0.7153  1.2317
  988MOL0     H30407   5.231   1.839   1.281  2.1525 -1.4085 -0.5772
  988MOL0     H30408   5.409   2.026   1.304 -0.7378  0.3268 -0.0673
  988MOL0     H30409   5.441   1.970   1.471 -0.3202  1.0003 -0.3244
  988MOL0     H30410   5.491   1.781   1.229  0.4049  1.0517 -0.3612
  988MOL0     H30411   5.530   1.749   1.401  0.7163  2.2147  3.3496
  988MOL0     H30412   5.629   1.958   1.203 -2.8926  0.0842  1.0848
  988MOL0     H30413   5.688   1.961   1.364  2.7139  0.8895 -0.6099
  988MOL0     H30414   5.914   1.632   1.240  2.1923  1.1993 -2.5433
  988MOL0     H30415   5.292   1.821   1.712 -1.0267  0.7784  2.5800
  988MOL0     H30416   5.107   1.765   1.885 -0.5744  0.0816  0.1876
  989MOL0     O30417   0.762   5.128   1.190  0.3959 -0.1168 -0.1361
  989MOL0     C30418   0.824   5.236   1.189  0.1455  0.0306 -0.2341
  989MOL0     O30419   0.781   5.358   1.233  0.2981 -0.0199 -0.5581
  989MOL0     C30420   0.652   5.365   1.283  0.2915  0.2834 -0.4055
  989MOL0     C30421   0.592   5.281   1.375 -0.5034  0.5089 -0.2560
  989MOL0     C30422   0.449   5.296   1.408 -0.5247  0.3410  0.4884
  989MOL0     C30423   0.385   5.407   1.365 -0.3213 -0.0222 -0.2997
  989MOL0     O30424   0.257   5.432   1.411 -0.9081  0.0068  0.2443
  989MOL0     C30425   0.160   5.406   1.303 -0.6862  0.8671 -1.1029
  989MOL0     C30426   0.021   5.390   1.365 -0.1763 -0.2086 -0.2436
  989MOL0     C30427  -0.096   5.409   1.257 -0.2136 -0.4348 -0.0563
  989MOL0     C30428  -0.242   5.373   1.309 -0.1064  0.6740  0.2905
  989MOL0     C30429  -0.259   5.412   1.460  0.0710  0.0586 -0.2254
  989MOL0     C30430  -0.270   5.563   1.476  1.8879 -0.7080  0.2875
  989MOL0     C30431  -0.317   5.617   1.611 -0.5636  0.0167 -0.2863
  989MOL0     C30432  -0.315   5.775   1.615  0.3983  0.4717  0.3806
  989MOL0     N30433  -0.201   5.834   1.544 -0.3148  0.1898 -0.6142
  989MOL0     C30434  -0.073   5.853   1.598 -0.4521 -0.2797 -0.5318
  989MOL0     C30435   0.003   5.900   1.491  0.4524  0.0705  0.1863
  989MOL0     C30436   0.154   5.914   1.500  0.0528 -0.6271  0.5037
  989MOL0     C30437   0.231   5.788   1.516 -0.3143  0.6605 -0.1754
  989MOL0     C30438   0.382   5.801   1.559 -0.3786  0.0940  0.3984
  989MOL0     C30439   0.470   5.852   1.446 -0.3541 -1.0198 -0.1493
  989MOL0     O30440   0.582   5.759   1.432  0.3153  0.4845  0.3688
  989MOL0     C30441   0.691   5.801   1.362 -0.2933 -0.2661  0.3068
  989MOL0     C30442   0.796   5.706   1.360  0.7020  0.0500  0.1393
  989MOL0     C30443   0.914   5.741   1.289  0.3917 -0.1800 -0.7374
  989MOL0     C30444   0.930   5.862   1.226 -0.5613  0.0514  0.5316
  989MOL0     C30445   1.073   5.908   1.182 -0.4483  0.0896  0.5644
  989MOL0     O30446   1.075   6.018   1.107 -0.7458  0.2169 -0.7190
  989MOL0     C30447   1.192   6.069   1.051  0.3072  0.0531 -0.6571
  989MOL0     C30448   1.204   6.206   1.047 -0.4885 -0.1754  0.7780
  989MOL0     C30449   1.314   6.269   0.981  0.3592  0.9391  0.1177
  989MOL0     C30450   1.416   6.196   0.935 -0.8535 -0.8290  0.2226
  989MOL0     O30451   1.540   6.250   0.917  0.8215 -0.1728 -0.5274
  989MOL0     C30452   1.554   6.380   0.845  0.7378  0.4321 -0.0408
  989MOL0     C30453   1.703   6.403   0.841 -0.7173  0.3222  0.5118
  989MOL0     C30454   1.771   6.374   0.707  0.2447 -0.0431 -0.5303
  989MOL0     C30455   1.729   6.227   0.660 -0.1128  0.4479  0.7192
  989MOL0     C30456   1.830   6.170   0.554  0.1745  0.7555  0.1371
  989MOL0     C30457   1.975   6.152   0.617 -0.7084 -0.0186 -0.8471
  989MOL0     C30458   2.056   6.035   0.582  0.0714  0.4734  0.4600
  989MOL0     C30459   2.096   6.018   0.429 -0.0825 -0.2913 -0.5312
  989MOL0    Cl30460   2.259   5.933   0.415 -0.4714  0.2496  0.0375
  989MOL0     C30461   1.410   6.051   0.929 -0.1556  0.4923 -0.3082
  989MOL0     C30462   1.291   5.998   0.982 -0.2304 -0.0900  0.6136
  989MOL0     O30463   1.174   5.836   1.214  0.0628  0.3506  0.0599
  989MOL0     C30464   0.815   5.950   1.214 -0.7305 -0.3215  0.2852
  989MOL0     C30465   0.698   5.915   1.271  0.1188  0.0638 -1.0094
  989MOL0     N30466  -0.080   5.913   1.384 -0.7249  0.1170 -0.0329
  989MOL0     N30467  -0.201   5.879   1.417  0.3264  0.6134  0.1943
  989MOL0     C30468   0.452   5.491   1.285  0.3744  0.3443  0.0451
  989MOL0     C30469   0.581   5.467   1.237  0.2603 -0.8675  0.2300
  989MOL0     C30470   0.966   5.229   1.146 -0.3598  0.1867 -0.5215
  989MOL0     C30471   1.047   5.345   1.123  1.3257 -0.7720 -0.6151
  989MOL0     C30472   1.180   5.336   1.073  0.5921  0.3595  0.3739
  989MOL0     C30473   1.226   5.214   1.039 -0.0527 -0.4270 -0.0832
  989MOL0     O30474   1.349   5.220   0.990 -0.7081  0.1495  0.4910
  989MOL0     C30475   1.389   5.119   0.892  0.4018 -0.1994  0.0129
  989MOL0     C30476   1.491   5.179   0.796  0.3160 -0.5727  0.8951
  989MOL0     C30477   1.607   5.250   0.855  0.2834  0.7318  0.0186
  989MOL0     C30478   1.691   5.304   0.733 -0.0256  0.4608  0.2021
  989MOL0     C30479   1.826   5.347   0.766 -0.2415 -0.6201  0.8475
  989MOL0     C30480   1.946   5.371   0.792  0.5145 -0.9134  0.0158
  989MOL0     C30481   1.151   5.095   1.051  0.3720 -0.1965  0.6612
  989MOL0     C30482   1.022   5.103   1.102 -0.8588 -0.0205 -0.8102
  989MOL0     H30483   0.648   5.197   1.414  0.2693  1.2432  0.2608
  989MOL0     H30484   0.382   5.237   1.470 -2.4135  0.6065 -1.1825
  989MOL0     H30485   0.181   5.323   1.235 -0.5684  0.2256 -0.2916
  989MOL0     H30486   0.156   5.498   1.243  0.7093  1.1306 -0.8146
  989MOL0     H30487   0.012   5.458   1.450 -1.4244 -0.7184  0.0579
  989MOL0     H30488   0.015   5.291   1.412  0.2382 -0.8145 -1.4191
  989MOL0     H30489  -0.075   5.355   1.164  2.1320 -0.1489  0.2444
  989MOL0     H30490  -0.102   5.514   1.227  2.6172 -0.0437  0.4955
  989MOL0     H30491  -0.324   5.412   1.247  0.2745  2.6064  0.9407
  989MOL0     H30492  -0.244   5.264   1.302  2.0042  0.6170 -0.0717
  989MOL0     H30493  -0.178   5.369   1.520  0.8713 -2.0446 -2.6119
  989MOL0     H30494  -0.352   5.366   1.495 -0.8747  1.8470 -0.2900
  989MOL0     H30495  -0.334   5.600   1.396 -0.4596  0.2472  2.4789
  989MOL0     H30496  -0.174   5.604   1.443  1.5695  1.8593  2.2494
  989MOL0     H30497  -0.415   5.577   1.638 -1.0258  2.2907  1.6984
  989MOL0     H30498  -0.244   5.589   1.687  0.0817  4.2625  0.9365
  989MOL0     H30499  -0.307   5.791   1.723  1.0160 -0.2655  0.4561
  989MOL0     H30500  -0.407   5.796   1.559 -1.9787 -1.5431  3.1320
  989MOL0     H30501  -0.047   5.835   1.702  1.1072 -0.7875 -0.9923
  989MOL0     H30502   0.170   5.972   1.592  0.8134 -1.0138  0.6207
  989MOL0     H30503   0.190   5.970   1.413  1.8422  0.2162  1.7030
  989MOL0     H30504   0.221   5.729   1.425 -0.8147 -0.0661  0.3329
  989MOL0     H30505   0.174   5.727   1.587  1.9013 -3.2579 -1.4347
  989MOL0     H30506   0.382   5.858   1.652 -0.6261 -2.4437  2.0199
  989MOL0     H30507   0.420   5.700   1.576 -0.4041  0.1229  0.6214
  989MOL0     H30508   0.516   5.948   1.472  1.5187 -1.4462 -1.6740
  989MOL0     H30509   0.409   5.857   1.355 -0.4214 -0.2894 -0.0703
  989MOL0     H30510   0.790   5.613   1.416 -0.0170  0.8162  1.3619
  989MOL0     H30511   0.997   5.671   1.279  1.1953  0.7615 -0.7715
  989MOL0     H30512   1.127   6.277   1.074 -0.4529 -0.6721  2.2389
  989MOL0     H30513   1.319   6.377   0.976  2.2721  0.9158  0.7304
  989MOL0     H30514   1.513   6.462   0.906  1.0944 -0.7959  1.9694
  989MOL0     H30515   1.494   6.384   0.754 -0.1512  2.1038  0.5688
  989MOL0     H30516   1.741   6.353   0.931 -0.0543  0.1067  0.1210
  989MOL0     H30517   1.722   6.510   0.856 -0.1635  0.4210 -0.7284
  989MOL0     H30518   1.880   6.375   0.721  0.1557  0.8714  0.1358
  989MOL0     H30519   1.746   6.452   0.635 -0.3855  2.6582  2.4138
  989MOL0     H30520   1.724   6.152   0.739 -0.0315 -2.3084 -1.7224
  989MOL0     H30521   1.626   6.228   0.624  0.0101 -1.3795  0.2077
  989MOL0     H30522   1.827   6.225   0.459 -3.4613  0.2750 -0.1807
  989MOL0     H30523   1.790   6.072   0.525  1.4184  0.4798 -0.7206
  989MOL0     H30524   1.963   6.159   0.725  1.7272  2.8599 -0.6310
  989MOL0     H30525   2.043   6.235   0.595  0.9319 -1.7319 -2.7957
  989MOL0     H30526   2.150   6.030   0.638  0.6987 -0.4896 -0.6196
  989MOL0     H30527   1.998   5.945   0.602 -0.4083  0.1183 -2.1896
  989MOL0     H30528   2.106   6.115   0.380  0.0496  0.4700  0.9277
  989MOL0     H30529   2.015   5.961   0.384 -1.3976 -1.0043  2.4612
  989MOL0     H30530   1.490   5.988   0.892 -1.8381 -1.5439 -0.6479
  989MOL0     H30531   1.290   5.890   0.973  0.5410 -0.1650  1.2503
  989MOL0     H30532   0.827   6.046   1.166  1.2719 -1.4722 -1.7489
  989MOL0     H30533   0.618   5.987   1.260  0.0042 -0.2267 -2.2432
  989MOL0     H30534   0.401   5.579   1.248  1.3024  0.7646 -0.2656
  989MOL0     H30535   0.617   5.535   1.160 -3.0413  0.0925 -0.6276
  989MOL0     H30536   1.012   5.446   1.142  1.3341 -0.8707 -0.0374
  989MOL0     H30537   1.241   5.424   1.053 -0.1245  0.8226  0.1965
  989MOL0     H30538   1.305   5.082   0.832  0.2650 -1.2220  0.7889
  989MOL0     H30539   1.427   5.036   0.953 -1.8441 -0.8387  0.6691
  989MOL0     H30540   1.519   5.108   0.718 -3.2713 -0.0532 -1.0534
  989MOL0     H30541   1.437   5.262   0.750  1.9724 -1.1099 -2.2993
  989MOL0     H30542   1.672   5.180   0.907  1.1524  1.8690  0.5227
  989MOL0     H30543   1.577   5.325   0.929  0.2714  1.0062 -0.2566
  989MOL0     H30544   1.706   5.212   0.675  1.9799  1.6629 -1.3222
  989MOL0     H30545   1.627   5.380   0.687 -1.1029 -1.1229 -1.0141
  989MOL0     H30546   2.046   5.390   0.823  0.4587  2.7493 -1.5603
  989MOL0     H30547   1.198   5.011   1.000  0.0127  0.5143 -0.9111
  989MOL0     H30548   0.970   5.009   1.118  0.1083 -0.7763 -1.9111
  990MOL0     O30549   9.916  10.955   4.081 -0.3822 -0.4454  0.7527
  990MOL0     C30550   9.981  10.971   4.181 -0.5339 -0.3459 -0.0627
  990MOL0     O30551   9.934  10.981   4.305 -0.2269 -1.1402  0.5388
  990MOL0     C30552   9.810  10.938   4.322 -0.4003  0.0299  0.4015
  990MOL0     C30553   9.708  10.993   4.247 -0.2076 -0.3191 -0.4665
  990MOL0     C30554   9.587  10.923   4.236  0.0138  0.4280  0.5270
  990MOL0     C30555   9.561  10.810   4.314 -0.9520  0.0230  0.1197
  990MOL0     O30556   9.457  10.725   4.291  0.2474  0.2134 -0.0093
  990MOL0     C30557   9.349  10.768   4.210 -0.6505  0.7299 -0.8066
  990MOL0     C30558   9.245  10.871   4.274  0.9674 -0.9556 -0.4253
  990MOL0     C30559   9.154  10.941   4.173  0.1269  0.1596  0.5992
  990MOL0     C30560   9.009  10.951   4.233  0.0594 -0.0965  0.3610
  990MOL0     C30561   8.914  11.033   4.137  1.5571 -1.1759 -0.2750
  990MOL0     C30562   8.763  10.987   4.165 -0.0025  0.3622 -0.5402
  990MOL0     C30563   8.664  11.069   4.091  1.0345 -0.8725 -0.0568
  990MOL0     C30564   8.676  11.058   3.940 -0.1925 -0.2120  0.2799
  990MOL0     N30565   8.579  11.144   3.866  0.4899  0.5071 -0.2362
  990MOL0     C30566   8.439  11.150   3.890  1.1748  0.4601 -0.2746
  990MOL0     C30567   8.403  11.277   3.849  0.2017 -0.8562 -0.7332
  990MOL0     C30568   8.258  11.332   3.829 -1.0422  1.9073  0.0305
  990MOL0     C30569   8.232  11.357   3.680  0.7637 -0.5356 -0.0109
  990MOL0     C30570   8.097  11.419   3.640  0.9820 -0.3155 -0.3648
  990MOL0     C30571   7.981  11.384   3.733 -0.5684 -0.5084 -0.1932
  990MOL0     O30572   7.881  11.479   3.712  0.2150 -0.1837  0.6485
  990MOL0     C30573   7.774  11.484   3.792  0.3000  0.6927  0.2621
  990MOL0     C30574   7.753  11.403   3.899 -0.1774 -0.3273  0.3589
  990MOL0     C30575   7.635  11.409   3.979  0.1102 -0.5844  0.3356
  990MOL0     C30576   7.537  11.506   3.957 -0.0966 -1.3130  0.2862
  990MOL0     C30577   7.418  11.515   4.043 -0.2432 -0.4881  0.0832
  990MOL0     O30578   7.362  11.633   4.058 -0.2493 -0.2587  0.2338
  990MOL0     C30579   7.238  11.641   4.120 -0.0437 -0.8808 -0.0863
  990MOL0     C30580   7.227  11.715   4.234  0.7665  0.2409 -0.8362
  990MOL0     C30581   7.099  11.725   4.301  0.5498 -0.5116  0.0246
  990MOL0     C30582   6.987  11.662   4.240 -0.2530  0.4164 -0.4630
  990MOL0     O30583   6.875  11.666   4.323  0.1990 -0.2565  0.5409
  990MOL0     C30584   6.748  11.610   4.276  0.5532 -0.6410 -0.1771
  990MOL0     C30585   6.635  11.696   4.337  0.1558  0.3686 -0.1220
  990MOL0     C30586   6.503  11.627   4.311  0.0020  0.1198 -0.0304
  990MOL0     C30587   6.379  11.720   4.322 -0.3286 -0.2673 -0.7291
  990MOL0     C30588   6.245  11.651   4.299 -0.0781 -0.4015 -0.0186
  990MOL0     C30589   6.236  11.589   4.159 -0.1955  0.2585  0.3776
  990MOL0     C30590   6.084  11.525   4.125 -0.1047 -0.4559 -0.5873
  990MOL0     C30591   5.988  11.478   4.233 -0.3269 -0.0899  0.0860
  990MOL0    Cl30592   5.838  11.412   4.160  0.0049  0.3851 -0.3095
  990MOL0     C30593   7.002  11.584   4.126 -0.0379 -0.4219  0.6498
  990MOL0     C30594   7.129  11.585   4.066  0.3291  0.7936 -0.5423
  990MOL0     O30595   7.377  11.412   4.092  0.2577 -0.5234  0.7660
  990MOL0     C30596   7.562  11.599   3.856 -0.4476  0.4998  0.3037
  990MOL0     C30597   7.672  11.590   3.781 -0.3778  0.6239 -0.5890
  990MOL0     N30598   8.513  11.338   3.796 -0.0849 -0.4693  0.5457
  990MOL0     N30599   8.617  11.267   3.805 -0.0929  0.0340 -0.3669
  990MOL0     C30600   9.655  10.781   4.407 -0.3860  0.5806 -0.1432
  990MOL0     C30601   9.781  10.832   4.415 -0.0546  0.4219 -0.0400
  990MOL0     C30602  10.134  11.001   4.167  0.3996  0.7424 -0.2369
  990MOL0     C30603  10.180  11.053   4.047  0.0757  0.2680  0.0365
  990MOL0     C30604  10.313  11.077   4.023  0.8660 -0.7075  0.2665
  990MOL0     C30605  10.395  11.067   4.130 -0.3814 -0.2101 -0.8950
  990MOL0     O30606  10.514  11.130   4.125 -0.1984 -0.2493 -0.5422
  990MOL0     C30607  10.599  11.090   4.013  0.1150 -0.1596 -0.1104
  990MOL0     C30608  10.743  11.129   4.038 -0.8602  0.5367  0.1312
  990MOL0     C30609  10.788  11.039   4.153  0.0389 -0.1080  0.2014
  990MOL0     C30610  10.942  11.057   4.165  0.9752  0.0828 -0.6264
  990MOL0     C30611  11.024  11.002   4.055  0.0511  1.0551  0.1855
  990MOL0     C30612  11.098  10.960   3.966  0.4308  0.6613  0.2447
  990MOL0     C30613  10.349  11.033   4.259  0.1343  1.0643 -0.4685
  990MOL0     C30614  10.219  10.987   4.270 -0.1709  0.0820 -0.6959
  990MOL0     H30615   9.736  11.086   4.199 -3.8949  1.2664  0.1348
  990MOL0     H30616   9.524  10.965   4.159  1.2520 -1.0169 -1.3606
  990MOL0     H30617   9.294  10.678   4.182  0.1666 -0.9340  2.3861
  990MOL0     H30618   9.401  10.801   4.120  0.4158 -1.4525 -1.0575
  990MOL0     H30619   9.299  10.947   4.331  1.8144 -1.5504 -0.4269
  990MOL0     H30620   9.192  10.825   4.358 -0.5417 -3.1872 -2.4732
  990MOL0     H30621   9.156  10.897   4.073 -0.8996 -2.6010  1.7020
  990MOL0     H30622   9.187  11.046   4.170 -2.3331  0.9575 -1.8081
  990MOL0     H30623   8.970  10.849   4.238 -0.9618  0.2081 -0.7582
  990MOL0     H30624   9.010  10.999   4.331 -1.8213 -3.8305  2.4323
  990MOL0     H30625   8.944  11.004   4.036  0.3091 -1.5339 -0.5527
  990MOL0     H30626   8.937  11.137   4.159  0.5767 -0.9027 -0.5396
  990MOL0     H30627   8.729  10.974   4.268 -0.0570 -1.1520 -0.7224
  990MOL0     H30628   8.755  10.883   4.131  0.6242 -0.5563  1.9247
  990MOL0     H30629   8.565  11.026   4.110  1.2553 -1.7285 -0.7706
  990MOL0     H30630   8.662  11.170   4.132 -1.4910 -1.3577  1.2563
  990MOL0     H30631   8.661  10.952   3.914 -3.3372 -0.1753  1.4648
  990MOL0     H30632   8.777  11.080   3.906 -0.3165 -1.0567 -0.6996
  990MOL0     H30633   8.372  11.073   3.928  1.1751 -1.0470 -3.0458
  990MOL0     H30634   8.248  11.422   3.891  1.4472  0.7199  2.3936
  990MOL0     H30635   8.189  11.252   3.857  2.2726 -1.4186 -0.5230
  990MOL0     H30636   8.237  11.260   3.630 -2.2446 -1.9036  2.0764
  990MOL0     H30637   8.305  11.426   3.636  2.0776 -2.1053 -0.3662
  990MOL0     H30638   8.102  11.528   3.631 -1.5111 -0.0781  0.5376
  990MOL0     H30639   8.058  11.376   3.547  0.1960 -1.5229  0.5023
  990MOL0     H30640   8.022  11.385   3.834  1.5255  0.3956 -0.9915
  990MOL0     H30641   7.950  11.281   3.711  1.7149 -2.1263  3.3018
  990MOL0     H30642   7.821  11.322   3.921 -0.2259 -0.9691 -1.6024
  990MOL0     H30643   7.607  11.339   4.057  0.5778 -0.1150  0.9364
  990MOL0     H30644   7.315  11.769   4.269 -0.6100  2.5888 -0.7404
  990MOL0     H30645   7.099  11.773   4.399 -0.4297 -1.0566  0.3072
  990MOL0     H30646   6.736  11.510   4.319  2.2271  0.2132  2.5624
  990MOL0     H30647   6.748  11.596   4.168  0.3687 -0.8685 -0.1472
  990MOL0     H30648   6.635  11.799   4.301  0.8925  0.1275 -0.8405
  990MOL0     H30649   6.653  11.719   4.442 -4.3838  2.5039  0.4095
  990MOL0     H30650   6.488  11.545   4.382 -0.2937  0.8755  0.7838
  990MOL0     H30651   6.511  11.588   4.209 -1.4327 -2.9857  0.9066
  990MOL0     H30652   6.376  11.766   4.421  2.6874 -0.7911 -0.3033
  990MOL0     H30653   6.394  11.799   4.247  3.9662  0.8170  1.0115
  990MOL0     H30654   6.172  11.732   4.309 -1.6920 -1.9055  0.8249
  990MOL0     H30655   6.230  11.585   4.384 -1.2439 -0.0231  0.0879
  990MOL0     H30656   6.299  11.500   4.154 -2.2787 -1.1955 -1.8105
  990MOL0     H30657   6.270  11.652   4.076  2.5504 -0.7057  0.6820
  990MOL0     H30658   6.022  11.595   4.069 -2.3719 -1.0940  0.9766
  990MOL0     H30659   6.099  11.450   4.047 -3.2387  1.3305 -3.1565
  990MOL0     H30660   5.972  11.559   4.305 -2.4098 -1.6632  1.5451
  990MOL0     H30661   6.039  11.401   4.292  3.8136 -0.4854 -3.5303
  990MOL0     H30662   6.924  11.534   4.070  0.6991  2.5691 -3.5359
  990MOL0     H30663   7.135  11.520   3.979 -0.4758 -3.0924  2.0245
  990MOL0     H30664   7.490  11.679   3.846 -0.0378  0.6300 -2.8881
  990MOL0     H30665   7.689  11.671   3.711  2.6268  0.2876 -0.3893
  990MOL0     H30666   9.629  10.696   4.470 -1.1940  1.2610  0.4710
  990MOL0     H30667   9.865  10.794   4.472  0.9460  1.0379 -1.0708
  990MOL0     H30668  10.095  11.069   3.982 -0.9084 -1.3553  0.8661
  990MOL0     H30669  10.345  11.120   3.929 -0.2904  2.0727  1.0329
  990MOL0     H30670  10.564  11.151   3.930 -1.2866 -1.4233 -0.4863
  990MOL0     H30671  10.579  10.988   3.978 -2.4133  0.2961 -0.1732
  990MOL0     H30672  10.799  11.115   3.945 -2.9238  0.7665 -1.2020
  990MOL0     H30673  10.740  11.235   4.067 -3.0792  1.4849 -2.9672
  990MOL0     H30674  10.749  10.937   4.142 -0.2996  0.0864 -0.4229
  990MOL0     H30675  10.737  11.081   4.240 -1.3900 -1.0458 -0.1489
  990MOL0     H30676  10.962  11.165   4.173  2.1813 -0.2451  2.9223
  990MOL0     H30677  10.989  11.021   4.257  0.2892 -1.7103 -0.9317
  990MOL0     H30678  11.173  10.945   3.891  1.3369 -0.6082  1.3417
  990MOL0     H30679  10.417  11.045   4.342 -1.2735 -0.6269  1.0099
  990MOL0     H30680  10.174  10.938   4.356  1.1629  2.1678  1.3449
  991MOL0     O30681  11.256   0.878   9.468 -0.7557 -0.4417 -0.3821
  991MOL0     C30682  11.248   0.996   9.475 -0.0920 -0.5318  0.1776
  991MOL0     O30683  11.135   1.069   9.439 -1.3304 -0.1375 -1.1176
  991MOL0     C30684  11.031   1.004   9.382 -0.1395 -0.3586  0.3010
  991MOL0     C30685  10.909   1.029   9.443  0.1817  0.1611  0.1511
  991MOL0     C30686  10.794   0.973   9.398  0.1836 -0.2846 -0.9388
  991MOL0     C30687  10.799   0.888   9.289 -0.1893  0.3715 -0.4835
  991MOL0     O30688  10.690   0.817   9.248  0.7891 -0.4750 -0.2386
  991MOL0     C30689  10.633   0.876   9.127 -1.7956 -0.7624  0.3549
  991MOL0     C30690  10.544   0.998   9.175 -0.0657 -0.2579  0.5678
  991MOL0     C30691  10.409   0.950   9.236 -0.5059 -0.2966  0.2348
  991MOL0     C30692  10.313   0.868   9.154 -0.2164  0.3674 -0.4602
  991MOL0     C30693  10.279   0.917   9.008 -0.3963 -0.0835  0.3607
  991MOL0     C30694  10.172   0.833   8.938  0.6158 -0.9562 -1.8571
  991MOL0     C30695  10.136   0.863   8.798 -0.5476  0.2905 -0.5225
  991MOL0     C30696  10.030   0.765   8.751  0.3515  0.0619  0.4784
  991MOL0     N30697   9.948   0.821   8.644 -0.7108  0.6278 -0.0330
  991MOL0     C30698   9.996   0.879   8.526  0.0987  0.1286  0.6520
  991MOL0     C30699   9.879   0.922   8.463  0.4996 -0.4557  0.0645
  991MOL0     C30700   9.863   0.970   8.317  0.3787  0.3199 -0.2967
  991MOL0     C30701   9.835   0.868   8.213 -0.8178  0.0535 -0.0178
  991MOL0     C30702   9.937   0.757   8.205  0.2990  0.0668  0.0716
  991MOL0     C30703  10.077   0.784   8.143  0.1714 -0.7700  0.7295
  991MOL0     O30704  10.155   0.864   8.234  0.0985  0.0805 -0.6488
  991MOL0     C30705  10.272   0.920   8.200 -0.0002 -0.0838 -0.0020
  991MOL0     C30706  10.328   0.975   8.306  0.4939 -0.4154 -0.4380
  991MOL0     C30707  10.441   1.053   8.296 -0.6641 -0.4374  0.3518
  991MOL0     C30708  10.502   1.072   8.169  0.2100  0.3631  0.4001
  991MOL0     C30709  10.623   1.147   8.153  0.5851  0.3736  0.4636
  991MOL0     O30710  10.655   1.243   8.243  0.1968  0.1798  0.0033
  991MOL0     C30711  10.765   1.318   8.226  0.1374  0.2013  0.1302
  991MOL0     C30712  10.898   1.274   8.250  0.3003 -0.2133  0.4961
  991MOL0     C30713  11.005   1.357   8.217 -0.4351 -0.2591 -0.3778
  991MOL0     C30714  10.986   1.490   8.170  0.2525 -1.0887  0.1465
  991MOL0     O30715  11.095   1.574   8.139 -0.0423 -0.3114  0.0481
  991MOL0     C30716  11.228   1.523   8.166 -0.5244 -0.4930 -0.0252
  991MOL0     C30717  11.343   1.634   8.171 -0.2233 -0.5482 -0.4113
  991MOL0     C30718  11.380   1.702   8.040 -0.2046  0.6805 -0.0830
  991MOL0     C30719  11.476   1.820   8.049 -0.3141 -0.0682 -0.1717
  991MOL0     C30720  11.534   1.862   7.915 -1.5045 -0.0844  0.1641
  991MOL0     C30721  11.666   1.787   7.883  0.2030  0.8829 -0.1807
  991MOL0     C30722  11.754   1.854   7.779  0.2858  0.3305  0.2509
  991MOL0     C30723  11.828   1.983   7.816  0.4254 -0.2326  0.2812
  991MOL0    Cl30724  11.949   1.943   7.948  0.2102 -0.0951 -0.5019
  991MOL0     C30725  10.856   1.528   8.155 -0.4983 -0.0075  0.5895
  991MOL0     C30726  10.752   1.443   8.174 -0.5250 -0.5242  0.5918
  991MOL0     O30727  10.704   1.101   8.074  0.5626  0.1565  0.1229
  991MOL0     C30728  10.437   1.012   8.058 -0.6645 -0.0889 -0.0392
  991MOL0     C30729  10.328   0.927   8.072  0.4673  0.0473  0.3324
  991MOL0     N30730   9.765   0.878   8.537 -0.4416 -0.3121 -0.3190
  991MOL0     N30731   9.817   0.839   8.648  0.4655  0.3274  0.1011
  991MOL0     C30732  10.917   0.872   9.214  1.1915 -0.4297  0.4219
  991MOL0     C30733  11.037   0.938   9.256  0.5383  0.2637  0.6863
  991MOL0     C30734  11.367   1.084   9.508  0.0717 -0.7780 -0.2199
  991MOL0     C30735  11.493   1.038   9.551 -0.0137 -0.4262  0.2566
  991MOL0     C30736  11.604   1.123   9.578  0.3745 -0.2459 -0.2580
  991MOL0     C30737  11.590   1.261   9.567 -0.6923 -1.0211  0.7126
  991MOL0     O30738  11.683   1.353   9.589 -0.3821 -0.0867  0.7736
  991MOL0     C30739  11.808   1.313   9.629 -0.8276 -0.0316  0.3356
  991MOL0     C30740  11.809   1.273   9.776 -0.1428  0.4109  0.8387
  991MOL0     C30741  11.948   1.218   9.820 -0.2642 -0.3495 -0.8247
  991MOL0     C30742  11.963   1.166   9.967  0.1367 -0.4215  0.0430
  991MOL0     C30743  11.942   1.256  10.077  0.0891  0.5155  0.0081
  991MOL0     C30744  11.915   1.334  10.165 -0.4519  0.0684 -0.3276
  991MOL0     C30745  11.466   1.311   9.514 -0.5967  0.4008 -0.6537
  991MOL0     C30746  11.362   1.223   9.484  0.6023 -0.1891 -0.3748
  991MOL0     H30747  10.903   1.095   9.529  3.5653  0.1639  0.5034
  991MOL0     H30748  10.703   0.984   9.456  0.7628  3.0386 -0.4315
  991MOL0     H30749  10.576   0.818   9.054  2.1086 -1.8561 -2.1387
  991MOL0     H30750  10.713   0.927   9.072 -2.1534 -0.9539 -0.3634
  991MOL0     H30751  10.522   1.058   9.087  1.9654  1.9077  1.4465
  991MOL0     H30752  10.605   1.064   9.237  1.2415  0.8857 -1.8016
  991MOL0     H30753  10.363   1.044   9.266 -1.7945  0.0866 -2.6585
  991MOL0     H30754  10.411   0.889   9.327  0.0833  0.8460  1.0029
  991MOL0     H30755  10.357   0.768   9.150 -0.6663  0.1188  0.4564
  991MOL0     H30756  10.218   0.859   9.209  0.4014 -0.0290  0.5581
  991MOL0     H30757  10.367   0.904   8.944 -0.8389 -3.3993  0.2352
  991MOL0     H30758  10.266   1.025   9.005  0.4558  0.0273 -1.9430
  991MOL0     H30759  10.082   0.838   8.999  2.1814  2.7770  0.5351
  991MOL0     H30760  10.191   0.726   8.945 -1.3090 -1.2252  0.8459
  991MOL0     H30761  10.099   0.964   8.776  1.3374  1.3781  1.0099
  991MOL0     H30762  10.229   0.862   8.740  0.2401  0.9127  0.6835
  991MOL0     H30763   9.967   0.731   8.834 -1.4472  1.5171 -0.2077
  991MOL0     H30764  10.064   0.667   8.716  1.8478 -0.0215  2.0596
  991MOL0     H30765  10.095   0.877   8.482 -0.1298  0.1037  0.1317
  991MOL0     H30766   9.945   1.038   8.293 -0.9560  2.0800 -0.0239
  991MOL0     H30767   9.780   1.039   8.330  0.9876  1.0954 -0.4636
  991MOL0     H30768   9.822   0.923   8.120  5.0021 -1.2501 -2.0177
  991MOL0     H30769   9.735   0.827   8.233  0.2109 -1.5258  2.4090
  991MOL0     H30770   9.953   0.699   8.297  2.1889 -1.1344 -0.9508
  991MOL0     H30771   9.889   0.694   8.130 -0.6613 -0.7822  1.3600
  991MOL0     H30772  10.066   0.852   8.058  3.3647 -0.4137  0.4951
  991MOL0     H30773  10.130   0.691   8.124  0.6023 -0.7457  1.7441
  991MOL0     H30774  10.289   0.956   8.406 -0.8831 -1.7503 -1.1956
  991MOL0     H30775  10.488   1.081   8.390  1.5241 -2.9615  0.1154
  991MOL0     H30776  10.919   1.170   8.273  2.7044  0.6210  2.4698
  991MOL0     H30777  11.109   1.324   8.214 -0.4682 -0.5454  1.1207
  991MOL0     H30778  11.256   1.449   8.090  0.4941 -0.2968  0.1465
  991MOL0     H30779  11.226   1.485   8.269  0.9161  1.6530  0.8616
  991MOL0     H30780  11.438   1.591   8.202  1.7494  2.0662 -2.3256
  991MOL0     H30781  11.318   1.717   8.238  3.9610  0.8194 -0.2840
  991MOL0     H30782  11.285   1.733   7.995 -1.2668 -3.6798 -1.3217
  991MOL0     H30783  11.428   1.627   7.976 -1.5592 -0.2308 -0.0752
  991MOL0     H30784  11.419   1.910   8.074  0.3101  0.3096 -0.0764
  991MOL0     H30785  11.551   1.794   8.125 -0.5471  0.8497  0.3894
  991MOL0     H30786  11.550   1.970   7.924  3.0779 -0.6638  1.8459
  991MOL0     H30787  11.468   1.847   7.829 -2.4183  0.6973  0.7020
  991MOL0     H30788  11.642   1.686   7.848  3.0493  0.4320 -1.0870
  991MOL0     H30789  11.732   1.783   7.971 -0.0860 -0.3540  0.0010
  991MOL0     H30790  11.833   1.782   7.756  1.5672  1.7855 -0.0933
  991MOL0     H30791  11.692   1.879   7.693 -0.7453 -2.3021  0.1604
  991MOL0     H30792  11.762   2.062   7.850  1.2244  0.6625 -0.1944
  991MOL0     H30793  11.875   2.021   7.725  2.8190  1.5875  2.1562
  991MOL0     H30794  10.839   1.621   8.100  0.1766  0.7350  1.6019
  991MOL0     H30795  10.650   1.480   8.166 -0.7146 -0.6177  2.3390
  991MOL0     H30796  10.489   1.036   7.966  2.0689 -0.1394  1.3944
  991MOL0     H30797  10.286   0.868   7.991 -0.5035  1.0901  0.0523
  991MOL0     H30798  10.914   0.816   9.122 -1.4687  0.4980 -0.1590
  991MOL0     H30799  11.137   0.934   9.216  0.8735  0.2709  1.4947
  991MOL0     H30800  11.513   0.932   9.563  1.3316  0.0612  3.0728
  991MOL0     H30801  11.699   1.078   9.603  1.2431  1.3333 -0.5752
  991MOL0     H30802  11.872   1.402   9.624  0.3498 -0.9059 -0.7279
  991MOL0     H30803  11.852   1.231   9.571  0.4741 -0.8887  2.4202
  991MOL0     H30804  11.773   1.355   9.839 -0.0905  0.2693  1.0508
  991MOL0     H30805  11.741   1.192   9.803 -1.9143  1.3621 -0.5103
  991MOL0     H30806  12.025   1.289   9.788  0.6531 -0.2743  1.3607
  991MOL0     H30807  11.966   1.140   9.747  1.6946  1.4339 -2.3632
  991MOL0     H30808  11.897   1.079   9.977  1.4040 -1.2104  2.3092
  991MOL0     H30809  12.066   1.133   9.984 -0.2048 -0.4217  2.5713
  991MOL0     H30810  11.896   1.408  10.240 -2.8402  0.3959 -1.1651
  991MOL0     H30811  11.452   1.417   9.495 -1.6903  0.5351  0.7115
  991MOL0     H30812  11.269   1.256   9.438 -0.5771 -1.5622  0.8991
  992MOL0     O30813   3.127   9.419   3.351 -0.2029  0.3950 -0.4401
  992MOL0     C30814   3.119   9.358   3.243 -0.8306  1.5942 -0.1301
  992MOL0     O30815   3.015   9.372   3.157 -0.7190  0.2404  0.3077
  992MOL0     C30816   2.898   9.443   3.190 -0.5717  0.1141 -0.8055
  992MOL0     C30817   2.838   9.542   3.117 -1.0010 -0.1601 -0.3361
  992MOL0     C30818   2.721   9.611   3.157  0.0017 -0.1626  0.3971
  992MOL0     C30819   2.655   9.578   3.272 -0.8885  0.5500 -0.0299
  992MOL0     O30820   2.527   9.626   3.289 -0.2516  0.0744  0.1703
  992MOL0     C30821   2.458   9.610   3.412  0.0350 -0.1770 -0.0721
  992MOL0     C30822   2.352   9.708   3.423  1.2016  0.2913  0.8551
  992MOL0     C30823   2.221   9.639   3.403 -0.1426 -0.6592  1.1382
  992MOL0     C30824   2.094   9.723   3.392 -0.5779  0.5035 -0.3601
  992MOL0     C30825   2.087   9.816   3.519 -0.0083 -0.1262  0.3535
  992MOL0     C30826   2.039   9.730   3.640  0.2202 -0.4551 -0.7763
  992MOL0     C30827   2.049   9.810   3.763  1.2435 -0.3245  0.3272
  992MOL0     C30828   1.938   9.923   3.771 -0.4046 -0.0335  0.1805
  992MOL0     N30829   1.799   9.875   3.755  0.5945  0.4270  0.1904
  992MOL0     C30830   1.727   9.873   3.638 -0.2785  0.0564  0.1715
  992MOL0     C30831   1.612   9.812   3.668  1.6982 -0.0122  0.4352
  992MOL0     C30832   1.487   9.800   3.579 -0.7497 -0.1102  1.0875
  992MOL0     C30833   1.483   9.895   3.455 -0.4232 -0.5094  0.0729
  992MOL0     C30834   1.343   9.889   3.378 -0.4296 -0.5419  0.3180
  992MOL0     C30835   1.222   9.940   3.452 -0.6978 -0.4745 -0.2644
  992MOL0     O30836   1.109   9.925   3.370  0.5269  0.7994  0.7276
  992MOL0     C30837   0.991   9.958   3.424 -0.7202 -0.6044  0.3182
  992MOL0     C30838   0.878   9.913   3.364  0.8974 -0.1037  0.3719
  992MOL0     C30839   0.749   9.946   3.404  0.3023 -1.0493 -0.3572
  992MOL0     C30840   0.737  10.031   3.519  0.3163 -0.1456 -0.3633
  992MOL0     C30841   0.605  10.086   3.561  0.4279  0.1831  0.5516
  992MOL0     O30842   0.605  10.160   3.670  0.6704  0.0054  0.7517
  992MOL0     C30843   0.493  10.178   3.757 -0.7104 -0.1900  0.4311
  992MOL0     C30844   0.362  10.203   3.704  0.1075  1.1045  0.2646
  992MOL0     C30845   0.251  10.209   3.785 -0.4266 -0.3291 -0.3219
  992MOL0     C30846   0.268  10.217   3.919 -0.3775  1.6682  0.6661
  992MOL0     O30847   0.163  10.262   3.993  0.1397 -0.4865 -0.1765
  992MOL0     C30848   0.203  10.364   4.079  0.5665 -0.3055  0.3993
  992MOL0     C30849   0.075  10.443   4.090 -0.2232 -0.6451  0.6546
  992MOL0     C30850   0.100  10.553   4.196 -0.2503  0.5517  0.1977
  992MOL0     C30851  -0.030  10.631   4.203  0.0678 -1.4261 -0.0525
  992MOL0     C30852  -0.017  10.772   4.268 -0.0107 -0.0624 -0.0349
  992MOL0     C30853   0.053  10.879   4.182  0.0339  0.0289 -0.6505
  992MOL0     C30854   0.082  11.013   4.229  0.3044 -0.1616  0.0016
  992MOL0     C30855   0.129  11.018   4.376 -0.1692 -0.0406 -0.6583
  992MOL0    Cl30856   0.137  11.190   4.413 -0.3636 -0.2783  0.5925
  992MOL0     C30857   0.395  10.191   3.981  0.4620  0.7052  0.1613
  992MOL0     C30858   0.506  10.157   3.898 -0.1045  0.6425 -0.5108
  992MOL0     O30859   0.509  10.066   3.490  0.4331 -0.2096 -0.4879
  992MOL0     C30860   0.849  10.071   3.590  0.0219  0.5059  0.5870
  992MOL0     C30861   0.975  10.030   3.545 -0.0409  0.1197 -0.0808
  992MOL0     N30862   1.607   9.780   3.799 -0.1015  0.3058  0.0535
  992MOL0     N30863   1.723   9.813   3.849  0.7327 -0.6318 -0.3422
  992MOL0     C30864   2.714   9.474   3.346  0.2165 -0.3646 -0.3051
  992MOL0     C30865   2.832   9.411   3.311  0.2530  0.4771  0.8484
  992MOL0     C30866   3.235   9.273   3.196 -0.5593  0.2145 -0.4126
  992MOL0     C30867   3.332   9.223   3.289  0.7570  0.5036 -0.2268
  992MOL0     C30868   3.446   9.161   3.246  0.2620  0.1442  0.3072
  992MOL0     C30869   3.470   9.141   3.110  0.1677  0.0683 -0.1824
  992MOL0     O30870   3.586   9.075   3.068  0.5878  0.2568  0.7780
  992MOL0     C30871   3.618   9.040   2.934 -0.0423 -0.3216 -0.8056
  992MOL0     C30872   3.772   9.052   2.924  0.0432  0.7280 -0.3867
  992MOL0     C30873   3.852   8.954   3.017  0.6870  0.4836 -0.5960
  992MOL0     C30874   3.861   9.026   3.154 -0.1759  0.4438 -0.4060
  992MOL0     C30875   3.971   8.949   3.225  1.1024 -0.3093  0.4692
  992MOL0     C30876   4.065   8.900   3.274 -0.2694 -0.6535  0.4181
  992MOL0     C30877   3.378   9.194   3.018  0.3422 -0.3370  0.0389
  992MOL0     C30878   3.266   9.264   3.064  0.3071  0.0446  0.1354
  992MOL0     H30879   2.890   9.568   3.025 -3.1350 -1.1299 -1.9274
  992MOL0     H30880   2.685   9.697   3.101  1.5513  0.6482  0.6002
  992MOL0     H30881   2.533   9.599   3.491  2.6876 -4.3451 -2.7539
  992MOL0     H30882   2.412   9.511   3.409  1.0949 -0.7018 -3.2041
  992MOL0     H30883   2.359   9.791   3.353  3.3361  1.1421  1.9965
  992MOL0     H30884   2.353   9.757   3.521 -1.3201 -1.8524  2.1109
  992MOL0     H30885   2.206   9.572   3.488  0.5311 -2.6910 -0.2439
  992MOL0     H30886   2.225   9.585   3.308  1.0822 -0.7959  1.2436
  992MOL0     H30887   2.102   9.788   3.305 -2.8714  2.2516  0.6518
  992MOL0     H30888   2.000   9.667   3.388 -0.0448 -0.5347  0.9201
  992MOL0     H30889   2.018   9.899   3.501 -2.2809 -1.8662  0.7203
  992MOL0     H30890   2.186   9.860   3.536 -0.1233  0.3754 -0.2220
  992MOL0     H30891   2.085   9.633   3.662  1.5502  0.1767 -0.7007
  992MOL0     H30892   1.933   9.706   3.627  0.0615 -0.1751 -0.0397
  992MOL0     H30893   2.028   9.742   3.847  1.3540 -0.5981  0.1353
  992MOL0     H30894   2.148   9.854   3.777  1.6768 -1.5677  1.3740
  992MOL0     H30895   1.954   9.999   3.693 -1.3699  0.9482  0.9181
  992MOL0     H30896   1.936   9.961   3.873 -1.7298 -2.0354  0.9697
  992MOL0     H30897   1.762   9.903   3.540 -2.5711  1.9611 -0.1433
  992MOL0     H30898   1.394   9.812   3.636  0.0590  2.0527  2.0835
  992MOL0     H30899   1.498   9.700   3.537  4.8084  0.7378 -0.2856
  992MOL0     H30900   1.567   9.865   3.391  0.2850  0.0273  0.7298
  992MOL0     H30901   1.499   9.997   3.492  1.1193 -0.7080  0.0200
  992MOL0     H30902   1.348   9.959   3.294 -1.8604  2.1774  2.3346
  992MOL0     H30903   1.334   9.785   3.344 -0.1495 -0.9670  1.4990
  992MOL0     H30904   1.236  10.047   3.465  0.9241 -0.6270 -0.5759
  992MOL0     H30905   1.220   9.885   3.547 -0.5416  1.3848  0.8606
  992MOL0     H30906   0.877   9.851   3.275  1.3870  0.7673 -0.2527
  992MOL0     H30907   0.664   9.903   3.352 -0.8312 -1.8176  2.0105
  992MOL0     H30908   0.349  10.217   3.597 -0.8191  3.2839  0.6016
  992MOL0     H30909   0.154  10.231   3.744  0.3995 -0.6986 -2.6052
  992MOL0     H30910   0.271  10.438   4.037  0.3388  0.0782  0.6966
  992MOL0     H30911   0.239  10.347   4.181 -0.3659  0.8839  0.9527
  992MOL0     H30912  -0.013  10.389   4.127 -1.8822  2.8432  2.2541
  992MOL0     H30913   0.042  10.479   3.992 -2.5992 -0.0700  1.5860
  992MOL0     H30914   0.172  10.621   4.148  1.1327 -2.0023 -1.5781
  992MOL0     H30915   0.135  10.513   4.291 -1.2577 -2.2505 -0.5265
  992MOL0     H30916  -0.071  10.644   4.102  1.7044 -1.7849 -0.7922
  992MOL0     H30917  -0.108  10.574   4.255  1.7689 -0.5393  3.8172
  992MOL0     H30918   0.046  10.749   4.355  0.1167 -2.9750 -0.8116
  992MOL0     H30919  -0.121  10.799   4.288  0.5043  1.5118  0.7469
  992MOL0     H30920   0.006  10.881   4.083  0.5357 -2.0696 -0.9801
  992MOL0     H30921   0.154  10.838   4.182  0.7578  1.6186  1.5209
  992MOL0     H30922   0.168  11.053   4.175 -2.0406  3.1880 -1.6069
  992MOL0     H30923  -0.011  11.069   4.211 -0.4757 -1.7114 -1.0676
  992MOL0     H30924   0.219  10.957   4.389 -0.4658 -0.0294  1.7930
  992MOL0     H30925   0.055  10.974   4.443 -0.0588  2.6895  1.4562
  992MOL0     H30926   0.394  10.202   4.089  1.0842  0.1836  0.2255
  992MOL0     H30927   0.601  10.127   3.940 -0.5010  0.1639  0.0461
  992MOL0     H30928   0.832  10.141   3.672  1.2332  0.4541  0.9051
  992MOL0     H30929   1.063  10.065   3.599  0.3991 -1.1964  0.1040
  992MOL0     H30930   2.674   9.442   3.441  2.3232  4.2784  2.5179
  992MOL0     H30931   2.870   9.342   3.386 -0.3066 -1.9129 -0.9635
  992MOL0     H30932   3.304   9.216   3.393  0.2460  2.6287 -0.1799
  992MOL0     H30933   3.506   9.118   3.326  2.5612  2.6446  0.1065
  992MOL0     H30934   3.579   9.118   2.868  2.0287  0.9760 -0.5688
  992MOL0     H30935   3.578   8.945   2.897 -0.8136 -0.6599  0.7934
  992MOL0     H30936   3.806   9.026   2.823 -1.0946  3.4343 -1.5569
  992MOL0     H30937   3.813   9.151   2.945  3.5764  0.3015 -4.0089
  992MOL0     H30938   3.951   8.936   2.974  1.7398 -0.6578  2.1115
  992MOL0     H30939   3.816   8.852   3.028  1.0070  0.2771 -1.4107
  992MOL0     H30940   3.875   9.134   3.149 -3.5315  1.0472  0.6554
  992MOL0     H30941   3.773   9.017   3.219  0.5826  0.2633  0.6151
  992MOL0     H30942   4.145   8.853   3.327 -0.7869 -1.4202  0.5378
  992MOL0     H30943   3.390   9.191   2.910  0.7694  1.8427 -0.0099
  992MOL0     H30944   3.196   9.305   2.992 -1.0335 -0.4731  1.1106
  993MOL0     O30945   9.261   0.790   8.984 -0.2410 -0.0035 -0.3460
  993MOL0     C30946   9.263   0.895   9.056 -0.0600  0.3455 -0.1667
  993MOL0     O30947   9.191   1.007   9.043 -0.0633  0.9403  0.2123
  993MOL0     C30948   9.103   1.011   8.938 -0.4848  0.5608 -0.1824
  993MOL0     C30949   8.964   0.988   8.961  0.2774 -0.1081 -0.9353
  993MOL0     C30950   8.861   0.994   8.866  0.2535 -0.1800  0.7105
  993MOL0     C30951   8.907   1.018   8.736 -0.3870  0.2393 -0.6086
  993MOL0     O30952   8.804   1.018   8.639 -0.4765  0.3922  0.5465
  993MOL0     C30953   8.826   1.087   8.521 -0.4652 -0.2095  0.8916
  993MOL0     C30954   8.713   1.063   8.429  0.2251 -0.3774  0.2560
  993MOL0     C30955   8.575   1.089   8.488  0.1908  0.3104  0.7443
  993MOL0     C30956   8.565   1.233   8.529  0.0295  0.0429 -0.6488
  993MOL0     C30957   8.431   1.263   8.603 -0.5315  0.0575  0.1536
  993MOL0     C30958   8.403   1.415   8.587 -0.0080 -0.7270 -0.7515
  993MOL0     C30959   8.266   1.434   8.521  0.2895  0.5398 -0.8142
  993MOL0     C30960   8.260   1.416   8.366  0.4472  0.3937  0.1330
  993MOL0     N30961   8.124   1.390   8.317  0.8493 -0.3247  0.4091
  993MOL0     C30962   8.032   1.488   8.322  0.5539 -0.6996 -0.2606
  993MOL0     C30963   7.917   1.426   8.278  0.0532 -0.4088  0.0280
  993MOL0     C30964   7.782   1.486   8.272 -0.0970  0.6712 -0.1118
  993MOL0     C30965   7.667   1.384   8.302 -0.4305 -0.4491  0.6148
  993MOL0     C30966   7.641   1.276   8.197  0.1307 -1.0749 -0.9298
  993MOL0     C30967   7.571   1.142   8.247  0.1304 -0.4452  0.2010
  993MOL0     O30968   7.499   1.100   8.127  0.1481  0.4315 -0.2704
  993MOL0     C30969   7.363   1.114   8.122 -0.4012  0.4525 -0.0239
  993MOL0     C30970   7.289   1.220   8.177  0.6685 -0.4344  0.5007
  993MOL0     C30971   7.149   1.228   8.163  0.4246  0.0053 -0.1728
  993MOL0     C30972   7.082   1.130   8.086 -0.4348  1.2278 -0.5668
  993MOL0     C30973   6.941   1.136   8.064  0.3632  0.4266  0.1990
  993MOL0     O30974   6.888   1.055   7.968  0.3310  0.2982  0.3678
  993MOL0     C30975   6.751   1.033   7.970 -0.3027 -0.2326 -0.0130
  993MOL0     C30976   6.708   0.901   7.985  0.9536 -0.2198  0.2511
  993MOL0     C30977   6.573   0.862   7.997 -1.2605 -0.5858  0.2193
  993MOL0     C30978   6.479   0.962   7.964 -0.4787 -0.2976 -0.4647
  993MOL0     O30979   6.349   0.917   7.961 -0.3353 -0.0506 -0.5161
  993MOL0     C30980   6.248   1.019   7.931  0.4860  0.1190 -0.1819
  993MOL0     C30981   6.111   0.957   7.897  0.6469 -0.3032  0.3930
  993MOL0     C30982   6.015   1.062   7.840 -0.8278  0.0713 -0.1780
  993MOL0     C30983   5.865   1.047   7.887 -0.2527  0.7267  0.1562
  993MOL0     C30984   5.785   1.149   7.830  0.3177  0.5067 -0.0625
  993MOL0     C30985   5.646   1.143   7.882 -0.3223 -0.6519 -0.1908
  993MOL0     C30986   5.627   1.196   8.030  0.0997 -0.6451 -0.0096
  993MOL0     C30987   5.485   1.164   8.079  0.8036  0.0568  1.2225
  993MOL0    Cl30988   5.368   1.265   7.989 -0.1437 -0.4106 -0.0964
  993MOL0     C30989   6.515   1.098   7.940 -0.4721 -0.4177 -0.0676
  993MOL0     C30990   6.644   1.131   7.959 -1.2778  0.6346 -0.2224
  993MOL0     O30991   6.875   1.213   8.137  0.5712  0.0196  0.5066
  993MOL0     C30992   7.157   1.023   8.030  0.0507  0.3756  0.4139
  993MOL0     C30993   7.297   1.028   8.041  0.6439  0.2869  0.6490
  993MOL0     N30994   7.952   1.292   8.252  0.9195 -0.1757 -0.1664
  993MOL0     N30995   8.075   1.276   8.265 -0.5598  0.4350 -0.5002
  993MOL0     C30996   9.046   1.037   8.708  0.1635 -0.8587  0.4711
  993MOL0     C30997   9.144   1.033   8.807  0.2291  0.2186  0.2595
  993MOL0     C30998   9.332   0.871   9.183  0.2790 -0.0388 -1.6278
  993MOL0     C30999   9.362   0.990   9.256  0.2938  0.2267 -0.2345
  993MOL0     C31000   9.439   0.984   9.366 -0.6080  0.2951 -1.2816
  993MOL0     C31001   9.475   0.863   9.416  0.6094  0.6981  0.4147
  993MOL0     O31002   9.547   0.845   9.535  0.6990 -0.2183 -0.7794
  993MOL0     C31003   9.602   0.972   9.594  0.2996  0.3822  0.4646
  993MOL0     C31004   9.689   0.936   9.715 -0.4907  0.2068  0.7885
  993MOL0     C31005   9.606   0.898   9.836  0.2607 -0.6753  0.9475
  993MOL0     C31006   9.697   0.831   9.944  0.3152  0.4848 -0.8533
  993MOL0     C31007   9.813   0.911   9.977 -0.0157  0.2900  1.0897
  993MOL0     C31008   9.908   0.968  10.015 -0.8971  1.1276 -0.8414
  993MOL0     C31009   9.441   0.740   9.352 -0.5909 -0.3307  0.1665
  993MOL0     C31010   9.373   0.743   9.234  0.5132  0.0384  0.3124
  993MOL0     H31011   8.923   0.976   9.061 -1.2389 -0.0667 -1.5297
  993MOL0     H31012   8.753   0.983   8.875 -0.7762  3.2047 -3.7244
  993MOL0     H31013   8.908   1.050   8.459 -0.5485  0.5096  0.3375
  993MOL0     H31014   8.833   1.195   8.531  1.2976 -0.2781  0.6027
  993MOL0     H31015   8.726   0.956   8.409  1.1609 -1.6330  5.9754
  993MOL0     H31016   8.727   1.112   8.332  0.3944 -3.8544 -1.6219
  993MOL0     H31017   8.572   1.009   8.563  2.3035  1.3707  2.0588
  993MOL0     H31018   8.511   1.068   8.402  0.6082  2.7689 -0.2572
  993MOL0     H31019   8.637   1.270   8.602 -1.5426 -0.0306  1.0300
  993MOL0     H31020   8.587   1.296   8.443 -0.3820 -0.6104 -1.2463
  993MOL0     H31021   8.443   1.242   8.710  1.4011 -0.6516 -0.1431
  993MOL0     H31022   8.368   1.190   8.551  2.5287 -0.7056 -2.8976
  993MOL0     H31023   8.478   1.465   8.525  0.4857  0.2567  0.5962
  993MOL0     H31024   8.396   1.466   8.684  0.6132 -2.5547  0.3099
  993MOL0     H31025   8.192   1.369   8.569  1.2197 -1.0991 -1.5270
  993MOL0     H31026   8.241   1.537   8.548 -1.1597 -0.1728  0.7608
  993MOL0     H31027   8.333   1.342   8.332 -2.4596 -0.9543 -3.9606
  993MOL0     H31028   8.291   1.508   8.315  0.6537 -0.5348 -1.4895
  993MOL0     H31029   8.033   1.595   8.335 -1.5326  0.0297 -4.4040
  993MOL0     H31030   7.762   1.527   8.172 -0.7029 -1.5072 -0.9365
  993MOL0     H31031   7.772   1.571   8.339  1.4119  0.4355  0.4475
  993MOL0     H31032   7.577   1.447   8.305 -0.7094 -0.6847 -1.5795
  993MOL0     H31033   7.679   1.339   8.401  2.3347 -3.6894 -1.0156
  993MOL0     H31034   7.574   1.320   8.123 -0.8265 -2.1198 -0.6958
  993MOL0     H31035   7.726   1.259   8.130  2.4619  1.1950  1.1991
  993MOL0     H31036   7.508   1.166   8.333 -0.9603  0.5521 -0.8392
  993MOL0     H31037   7.647   1.065   8.265 -0.1607 -2.0572 -4.1441
  993MOL0     H31038   7.352   1.290   8.230 -0.2788  1.8805 -1.2643
  993MOL0     H31039   7.092   1.314   8.195 -2.3176 -1.3471 -1.1082
  993MOL0     H31040   6.789   0.831   7.999 -0.2906 -1.7086  0.3423
  993MOL0     H31041   6.544   0.758   8.009  1.6596 -2.0023 -3.0681
  993MOL0     H31042   6.287   1.055   7.835  0.3851 -2.9466 -1.4553
  993MOL0     H31043   6.239   1.093   8.012  1.8168  0.5063 -0.3602
  993MOL0     H31044   6.066   0.920   7.989 -1.5343 -1.8161 -1.1962
  993MOL0     H31045   6.114   0.876   7.824 -1.6468  1.3977 -1.7817
  993MOL0     H31046   6.015   1.053   7.731  1.2319  3.3131 -0.6128
  993MOL0     H31047   6.052   1.160   7.873  1.9549 -0.7205 -0.6704
  993MOL0     H31048   5.821   0.953   7.854 -0.1161  1.4283 -2.2333
  993MOL0     H31049   5.851   1.048   7.995  1.1267 -0.7942  0.3844
  993MOL0     H31050   5.798   1.137   7.722  1.9912 -1.9484  0.3429
  993MOL0     H31051   5.821   1.249   7.858  1.0662  1.0666 -2.7089
  993MOL0     H31052   5.607   1.041   7.882  0.2670 -0.8801  0.0653
  993MOL0     H31053   5.585   1.215   7.827  2.3012  1.6510 -0.3016
  993MOL0     H31054   5.707   1.159   8.096  0.4195  2.1626  1.3110
  993MOL0     H31055   5.632   1.304   8.040 -0.7713 -0.6056  0.0169
  993MOL0     H31056   5.481   1.196   8.184 -0.0209 -0.6702  1.4234
  993MOL0     H31057   5.459   1.058   8.072  3.3646 -0.5243 -1.4065
  993MOL0     H31058   6.444   1.177   7.913 -2.3160 -1.9373  0.0974
  993MOL0     H31059   6.691   1.228   7.967  0.1816 -0.0930  0.5935
  993MOL0     H31060   7.115   0.956   7.956 -3.3441 -1.1762  3.4505
  993MOL0     H31061   7.364   0.958   7.992 -3.2938 -2.2353 -1.7103
  993MOL0     H31062   9.075   1.061   8.607  1.4544 -1.3662  0.7053
  993MOL0     H31063   9.247   1.027   8.772 -0.8704 -2.4620 -3.0155
  993MOL0     H31064   9.346   1.091   9.219  0.0576  1.3488  2.6939
  993MOL0     H31065   9.465   1.077   9.415  0.4322 -0.7953  0.3244
  993MOL0     H31066   9.516   1.031   9.627 -0.9930 -2.0747  1.8318
  993MOL0     H31067   9.658   1.029   9.520  0.6811  0.7693  1.0473
  993MOL0     H31068   9.769   0.866   9.691 -1.0211  0.4342 -1.9969
  993MOL0     H31069   9.747   1.028   9.730  0.9379 -0.3957 -0.7007
  993MOL0     H31070   9.529   0.826   9.807 -1.8586  1.8333 -0.0547
  993MOL0     H31071   9.552   0.983   9.878  2.3458  0.8844  0.6510
  993MOL0     H31072   9.628   0.806  10.025 -0.4673 -0.2894 -1.7308
  993MOL0     H31073   9.735   0.735   9.907 -3.5352 -1.4480 -0.3171
  993MOL0     H31074  10.004   1.011  10.033 -0.4133 -0.4315  0.5536
  993MOL0     H31075   9.478   0.646   9.392  0.3142 -0.4207 -0.8599
  993MOL0     H31076   9.363   0.654   9.172  0.3386 -1.5403  2.5012
  994MOL0     O31077   9.763  10.464   4.586 -0.0061 -0.6434 -0.3723
  994MOL0     C31078   9.748  10.479   4.707 -0.2036 -0.7684 -0.6652
  994MOL0     O31079   9.628  10.455   4.781 -0.2806 -0.0517  0.6343
  994MOL0     C31080   9.517  10.415   4.713 -0.3043  0.0245  0.1185
  994MOL0     C31081   9.394  10.480   4.742 -0.2623 -0.1880  0.3372
  994MOL0     C31082   9.267  10.417   4.698 -0.4032 -0.0958  0.1667
  994MOL0     C31083   9.270  10.304   4.623 -0.4034 -0.4284 -0.8893
  994MOL0     O31084   9.160  10.239   4.577  0.4139 -0.0223 -0.9037
  994MOL0     C31085   9.028  10.272   4.626 -0.5147  0.4899 -0.4162
  994MOL0     C31086   8.930  10.181   4.549 -0.3931 -0.0498 -0.1444
  994MOL0     C31087   8.950  10.190   4.399 -0.1887 -0.4915 -0.9527
  994MOL0     C31088   8.881  10.318   4.341 -1.0098 -0.2083  0.2730
  994MOL0     C31089   8.937  10.349   4.206 -0.0069  0.2475 -0.1663
  994MOL0     C31090   8.911  10.498   4.159 -0.7061 -0.3004  0.1408
  994MOL0     C31091   8.766  10.554   4.173 -1.2460  0.0656 -0.0329
  994MOL0     C31092   8.677  10.502   4.069 -1.4315 -0.1371  0.0130
  994MOL0     N31093   8.555  10.584   4.070 -0.4878 -0.4380  0.2176
  994MOL0     C31094   8.436  10.567   4.135 -0.8427  0.2295  0.4746
  994MOL0     C31095   8.363  10.680   4.108 -0.8199 -0.0908  0.1268
  994MOL0     C31096   8.224  10.698   4.132  0.5468  1.4009 -0.2610
  994MOL0     C31097   8.132  10.583   4.090 -0.6164 -0.6901  0.1210
  994MOL0     C31098   8.119  10.552   3.946  0.1895  0.8199  0.3939
  994MOL0     C31099   7.982  10.505   3.903  0.3423 -0.8092 -0.1702
  994MOL0     O31100   7.877  10.600   3.955  0.1788 -0.0809 -0.3028
  994MOL0     C31101   7.766  10.544   4.006 -0.3111 -0.2813 -0.0160
  994MOL0     C31102   7.649  10.624   4.010  0.2582 -0.1579  0.0924
  994MOL0     C31103   7.529  10.568   4.061  0.0610 -0.3322  0.2149
  994MOL0     C31104   7.518  10.426   4.093  1.1227  0.4821 -0.1380
  994MOL0     C31105   7.379  10.372   4.142  0.1054  0.1241  0.4050
  994MOL0     O31106   7.367  10.231   4.145 -1.1060 -0.1873 -0.8772
  994MOL0     C31107   7.243  10.172   4.186 -0.1605 -0.0522 -0.9285
  994MOL0     C31108   7.240  10.070   4.291  0.3234  0.3938  0.6428
  994MOL0     C31109   7.126  10.005   4.328 -0.0830 -0.3512  0.2095
  994MOL0     C31110   7.001  10.041   4.273 -0.3338  0.2949 -0.0701
  994MOL0     O31111   6.897   9.973   4.330  0.8003  0.7261  0.0618
  994MOL0     C31112   6.785  10.057   4.369  0.1606  0.7505  0.5616
  994MOL0     C31113   6.679   9.973   4.424  0.5776 -0.1641 -0.0261
  994MOL0     C31114   6.567   9.954   4.314  0.7826  0.1574 -1.0010
  994MOL0     C31115   6.456   9.851   4.356 -0.8992 -0.2333 -0.3715
  994MOL0     C31116   6.349   9.866   4.260 -0.0707  0.2110 -0.3967
  994MOL0     C31117   6.214   9.829   4.333 -0.4810 -0.1371 -0.4909
  994MOL0     C31118   6.172   9.686   4.336 -0.0509  1.0327 -0.4750
  994MOL0     C31119   6.038   9.665   4.396 -0.0690 -0.0786 -0.1071
  994MOL0    Cl31120   5.999   9.494   4.414  0.0553  0.7804 -0.1932
  994MOL0     C31121   6.996  10.159   4.186 -0.3096 -0.2605 -0.7242
  994MOL0     C31122   7.121  10.212   4.137  0.9182 -0.4528 -0.3826
  994MOL0     O31123   7.300  10.450   4.180  0.4203 -0.2574 -0.0812
  994MOL0     C31124   7.639  10.349   4.095  0.9282 -0.3160  0.4124
  994MOL0     C31125   7.751  10.410   4.042 -0.3760  0.3245 -1.0605
  994MOL0     N31126   8.431  10.758   4.019  0.1414 -0.2316  0.5774
  994MOL0     N31127   8.543  10.702   3.998 -0.3711  0.5264 -0.8123
  994MOL0     C31128   9.395  10.246   4.594 -1.0071  0.4582 -0.3494
  994MOL0     C31129   9.517  10.304   4.637  0.6998  0.2257 -0.0353
  994MOL0     C31130   9.863  10.514   4.790  0.3941  0.5443 -0.6051
  994MOL0     C31131   9.852  10.534   4.929  0.2818  0.6048  0.2502
  994MOL0     C31132   9.966  10.553   5.010 -0.0330  0.7778  0.6112
  994MOL0     C31133  10.084  10.572   4.944 -0.1134  0.1441 -0.6515
  994MOL0     O31134  10.200  10.606   5.015  0.4872  0.5794 -0.4028
  994MOL0     C31135  10.195  10.717   5.115  0.1383 -0.5347  0.3559
  994MOL0     C31136  10.138  10.858   5.058 -0.1691  1.1830  0.3674
  994MOL0     C31137  10.116  10.941   5.183 -0.3730  0.9732  0.0111
  994MOL0     C31138  10.053  11.067   5.144  0.4499 -0.6884  0.0552
  994MOL0     C31139  10.134  11.163   5.070  0.0867  0.3012 -0.4507
  994MOL0     C31140  10.201  11.252   5.033 -0.1169 -0.0600 -0.6450
  994MOL0     C31141  10.103  10.550   4.808 -0.1092  1.2291  0.4037
  994MOL0     C31142   9.991  10.505   4.736 -0.5595 -0.3012 -0.0687
  994MOL0     H31143   9.374  10.563   4.809 -1.0043 -0.6513  0.7097
  994MOL0     H31144   9.176  10.457   4.741  0.0911 -0.3554  1.4947
  994MOL0     H31145   8.995  10.376   4.617 -1.0174  0.5636  1.6961
  994MOL0     H31146   9.021  10.246   4.732 -1.8038 -0.9274 -0.8193
  994MOL0     H31147   8.828  10.214   4.570 -0.3877 -0.7904  1.1294
  994MOL0     H31148   8.946  10.078   4.582 -1.2608 -0.7484 -1.7527
  994MOL0     H31149   8.896  10.108   4.350 -1.2598  0.0305 -0.6946
  994MOL0     H31150   9.054  10.185   4.367  0.8206  1.9648  1.5634
  994MOL0     H31151   8.776  10.290   4.341 -1.1748  0.3232  1.5982
  994MOL0     H31152   8.893  10.408   4.403 -0.8015  0.1788 -0.3128
  994MOL0     H31153   8.893  10.277   4.137  0.1233 -1.3559  1.3844
  994MOL0     H31154   9.044  10.328   4.202  0.4211  2.1207  0.5338
  994MOL0     H31155   8.943  10.509   4.055 -1.8274 -2.8885 -0.5581
  994MOL0     H31156   8.978  10.554   4.225  0.6517  1.3709 -2.4812
  994MOL0     H31157   8.722  10.530   4.270 -1.3263  0.1873 -0.0386
  994MOL0     H31158   8.768  10.663   4.170  1.5872  0.0440 -1.9874
  994MOL0     H31159   8.650  10.398   4.085 -0.9759 -0.3068 -0.2866
  994MOL0     H31160   8.717  10.504   3.967 -1.9521  0.8904 -0.1885
  994MOL0     H31161   8.414  10.482   4.200  1.7199 -2.0474 -1.3722
  994MOL0     H31162   8.199  10.784   4.070  1.7670 -0.0466 -2.9374
  994MOL0     H31163   8.207  10.718   4.238  1.5808 -0.0936  0.2223
  994MOL0     H31164   8.032  10.607   4.128 -1.1131 -3.8452  1.0468
  994MOL0     H31165   8.168  10.497   4.146 -1.4130 -2.6989 -2.2468
  994MOL0     H31166   8.146  10.642   3.890 -1.2199  0.8216 -0.3157
  994MOL0     H31167   8.196  10.477   3.925 -0.4176  0.8228 -2.1381
  994MOL0     H31168   7.981  10.400   3.935 -1.2510 -0.3426  1.4655
  994MOL0     H31169   7.985  10.510   3.794  0.9089  1.8665 -0.0861
  994MOL0     H31170   7.665  10.726   3.975 -2.3071 -0.2887 -1.6985
  994MOL0     H31171   7.445  10.631   4.087 -0.4404 -1.3182  1.0505
  994MOL0     H31172   7.332  10.033   4.336  1.0668  2.2933  0.7477
  994MOL0     H31173   7.128   9.938   4.414  0.5685 -0.4626  0.1111
  994MOL0     H31174   6.756  10.120   4.284  2.0246 -1.5936 -1.9995
  994MOL0     H31175   6.827  10.117   4.449  3.6120  0.0424 -0.5547
  994MOL0     H31176   6.641  10.018   4.516  1.7939 -0.0065  0.4195
  994MOL0     H31177   6.714   9.872   4.451 -0.7487 -0.7096 -0.2572
  994MOL0     H31178   6.611   9.916   4.222  1.8374 -1.7500  0.2066
  994MOL0     H31179   6.536  10.057   4.295  2.4287  1.4424  2.3658
  994MOL0     H31180   6.500   9.751   4.362 -0.9736 -0.3644 -1.7003
  994MOL0     H31181   6.429   9.878   4.458  2.4658  3.7571 -0.2646
  994MOL0     H31182   6.360   9.794   4.178 -1.4501  0.0780 -0.4898
  994MOL0     H31183   6.342   9.968   4.222 -4.9917  0.4741  0.4838
  994MOL0     H31184   6.138   9.900   4.298 -0.1147  1.6383  2.0738
  994MOL0     H31185   6.226   9.861   4.437 -0.5081 -2.0281  0.1364
  994MOL0     H31186   6.188   9.636   4.240 -2.2403  0.7342 -0.7432
  994MOL0     H31187   6.237   9.633   4.407  0.7160 -1.1323 -2.6459
  994MOL0     H31188   5.958   9.706   4.333 -1.6315 -0.0770  1.7993
  994MOL0     H31189   6.028   9.717   4.491 -3.1383  0.3933 -0.5827
  994MOL0     H31190   6.895  10.192   4.164 -0.6425 -1.2522 -0.7306
  994MOL0     H31191   7.123  10.301   4.075 -0.6835  0.0519  0.2225
  994MOL0     H31192   7.629  10.244   4.118 -0.4552  0.3599  3.3502
  994MOL0     H31193   7.840  10.353   4.066 -0.8736 -0.0093  0.0764
  994MOL0     H31194   9.383  10.149   4.547 -2.3304  0.5440 -0.2354
  994MOL0     H31195   9.610  10.255   4.607  1.7066 -0.3343  3.4965
  994MOL0     H31196   9.757  10.540   4.981  0.5382  0.9787  0.6824
  994MOL0     H31197   9.948  10.572   5.115 -3.3195 -0.0500  0.3042
  994MOL0     H31198  10.297  10.732   5.151 -0.0892  2.8377 -0.0700
  994MOL0     H31199  10.138  10.691   5.205  2.3884 -0.1438  1.9779
  994MOL0     H31200  10.208  10.908   4.991 -1.6175  1.6008 -0.8722
  994MOL0     H31201  10.039  10.850   5.013 -0.2055  0.4352  0.5735
  994MOL0     H31202  10.205  10.962   5.242 -1.6697 -0.5649  2.6962
  994MOL0     H31203  10.046  10.891   5.250 -2.1950  0.5660 -2.0743
  994MOL0     H31204   9.955  11.066   5.095  0.6469  3.6182 -0.7607
  994MOL0     H31205  10.032  11.125   5.235  2.1987 -1.3723  0.9382
  994MOL0     H31206  10.254  11.343   5.010 -0.0861  0.2130  0.4317
  994MOL0     H31207  10.200  10.569   4.765  1.1694  2.1135  3.4199
  994MOL0     H31208  10.019  10.488   4.633  3.0328 -0.5990  0.7950
  995MOL0     O31209   5.502   6.056   9.330 -0.6617 -0.4029 -0.3131
  995MOL0     C31210   5.452   6.032   9.225  0.1455 -0.8496  0.7838
  995MOL0     O31211   5.315   6.004   9.198  0.1068  0.2279  0.5137
  995MOL0     C31212   5.218   5.994   9.296  0.3086 -0.1893 -0.3122
  995MOL0     C31213   5.239   5.919   9.416 -0.1245 -0.1655 -0.3622
  995MOL0     C31214   5.134   5.899   9.506 -0.3177 -0.3007 -0.7266
  995MOL0     C31215   5.011   5.950   9.482 -0.2989 -0.2500  0.4531
  995MOL0     O31216   4.904   5.941   9.560  0.3969  0.1291  0.0308
  995MOL0     C31217   4.870   5.806   9.602  0.1086 -1.0530 -0.1987
  995MOL0     C31218   4.775   5.740   9.505 -1.0392  0.1128  0.0237
  995MOL0     C31219   4.640   5.800   9.497 -0.3893  0.4231 -0.4263
  995MOL0     C31220   4.564   5.766   9.370  0.3271  0.3152  0.1127
  995MOL0     C31221   4.421   5.726   9.379  0.6684 -0.2506 -0.4455
  995MOL0     C31222   4.334   5.827   9.469 -0.0228  0.3983 -0.2205
  995MOL0     C31223   4.173   5.803   9.464 -0.7174  0.0786  0.6137
  995MOL0     C31224   4.112   5.905   9.566 -0.2312 -0.4702  0.6381
  995MOL0     N31225   4.145   5.873   9.707  0.4103 -0.0440  0.9163
  995MOL0     C31226   4.084   5.788   9.794  0.0880  0.1408 -0.3759
  995MOL0     C31227   4.112   5.834   9.921 -0.1987 -0.9653 -0.2195
  995MOL0     C31228   4.055   5.765  10.037 -0.0895  0.3466 -0.0942
  995MOL0     C31229   3.925   5.839  10.078 -0.5307  0.2688  1.1541
  995MOL0     C31230   3.956   5.983  10.117  0.4572 -0.0920 -0.3409
  995MOL0     C31231   3.820   6.050  10.165  0.1663 -0.4560  0.5006
  995MOL0     O31232   3.725   6.070  10.053 -0.3405 -0.6639  0.4781
  995MOL0     C31233   3.591   6.079  10.082 -0.5440  0.2495 -0.9867
  995MOL0     C31234   3.535   6.093  10.211 -0.2941  0.4472 -1.0982
  995MOL0     C31235   3.402   6.071  10.230 -0.7731 -0.6004 -0.5061
  995MOL0     C31236   3.316   6.045  10.118 -0.3062  0.1172 -0.3887
  995MOL0     C31237   3.174   6.022  10.151  0.5430 -0.5065 -0.1906
  995MOL0     O31238   3.134   6.013  10.279 -0.0496 -0.1495  0.5720
  995MOL0     C31239   3.005   6.026  10.326 -0.1897  0.0819 -0.2675
  995MOL0     C31240   2.888   6.026  10.258  0.2598  1.1167  0.6048
  995MOL0     C31241   2.767   6.037  10.324 -0.5299  0.3303 -0.7553
  995MOL0     C31242   2.766   6.048  10.463  0.4863 -0.3295 -0.9387
  995MOL0     O31243   2.651   6.048  10.542  0.3786  0.1658 -0.4976
  995MOL0     C31244   2.528   6.102  10.472 -0.5267  0.2217  0.0763
  995MOL0     C31245   2.428   6.129  10.583  0.0745  0.1169 -0.6812
  995MOL0     C31246   2.299   6.046  10.578  0.5926 -0.5968 -0.8359
  995MOL0     C31247   2.213   6.081  10.707  0.7449  0.6877  0.1254
  995MOL0     C31248   2.071   6.027  10.694 -0.3744 -0.4407  0.6508
  995MOL0     C31249   1.971   6.077  10.802 -0.2932  0.6598 -0.3397
  995MOL0     C31250   1.831   5.996  10.791 -0.6991 -0.8928  0.3055
  995MOL0     C31251   1.731   6.046  10.890 -0.0110 -0.3063  0.1259
  995MOL0    Cl31252   1.790   6.045  11.055  0.1079 -0.5771 -0.5743
  995MOL0     C31253   2.878   6.053  10.531 -0.8241  0.1344  0.0628
  995MOL0     C31254   3.006   6.050  10.464  0.3474  0.9141  0.0380
  995MOL0     O31255   3.096   6.020  10.057 -0.0346 -0.2402 -0.0437
  995MOL0     C31256   3.369   6.048   9.994 -0.3014 -0.1376 -0.1924
  995MOL0     C31257   3.507   6.049   9.982 -0.4317  0.5009 -0.5894
  995MOL0     N31258   4.196   5.941   9.912  0.6965  0.5754 -0.1473
  995MOL0     N31259   4.222   5.960   9.785  0.3967  1.0199 -0.8908
  995MOL0     C31260   4.990   6.008   9.364  0.1002  0.3500  0.1039
  995MOL0     C31261   5.090   6.044   9.270 -0.0570 -0.7505 -0.2188
  995MOL0     C31262   5.542   6.035   9.105  1.3131 -0.4317  0.6961
  995MOL0     C31263   5.492   6.009   8.981 -0.4775  0.4275  0.1435
  995MOL0     C31264   5.579   6.038   8.868 -0.3911  0.1563 -0.3639
  995MOL0     C31265   5.716   6.066   8.878 -0.8580 -0.0588 -1.3628
  995MOL0     O31266   5.789   6.083   8.762 -0.6558 -0.3062  0.5801
  995MOL0     C31267   5.922   6.023   8.772  0.3103  0.1744 -0.7553
  995MOL0     C31268   5.992   6.023   8.637  0.1203 -0.9948  0.4916
  995MOL0     C31269   6.024   6.164   8.584  0.4582 -0.8427  0.1407
  995MOL0     C31270   6.094   6.171   8.445 -0.2685  0.6007  0.9248
  995MOL0     C31271   6.214   6.080   8.450 -0.7970 -0.2977 -0.5549
  995MOL0     C31272   6.306   5.998   8.465 -0.3570 -0.1164 -0.0778
  995MOL0     C31273   5.764   6.077   9.015 -0.4732 -0.2610  0.1768
  995MOL0     C31274   5.679   6.063   9.124 -0.3824  0.8595  0.0885
  995MOL0     H31275   5.343   5.890   9.432 -0.0174 -0.7809 -2.0095
  995MOL0     H31276   5.163   5.847   9.597  0.4951  1.9734  0.3865
  995MOL0     H31277   4.821   5.811   9.700  2.3899  3.5086  0.9701
  995MOL0     H31278   4.965   5.757   9.623  1.3374  0.5391 -1.7983
  995MOL0     H31279   4.775   5.633   9.528 -2.3629  0.1299  0.1297
  995MOL0     H31280   4.818   5.763   9.407 -1.3484 -0.7708 -0.3271
  995MOL0     H31281   4.646   5.908   9.512  2.5799  0.4124 -0.9999
  995MOL0     H31282   4.590   5.765   9.588 -1.3435  2.3504 -0.1618
  995MOL0     H31283   4.578   5.857   9.310  1.4062  0.7657  1.0196
  995MOL0     H31284   4.618   5.691   9.313  5.1513  0.4036  3.8875
  995MOL0     H31285   4.416   5.627   9.427 -1.0149 -0.4583 -0.9720
  995MOL0     H31286   4.380   5.726   9.278  0.1227 -0.3695 -0.2298
  995MOL0     H31287   4.355   5.932   9.450  3.0434 -0.1746 -0.5232
  995MOL0     H31288   4.362   5.812   9.574 -3.1008  0.7528  0.7686
  995MOL0     H31289   4.136   5.825   9.363  1.5189 -0.8195 -0.4879
  995MOL0     H31290   4.142   5.704   9.501 -1.0801 -0.9592 -2.1758
  995MOL0     H31291   4.003   5.898   9.559 -0.2175  0.1860 -0.4375
  995MOL0     H31292   4.126   6.010   9.537  0.4900  0.4718  3.9589
  995MOL0     H31293   4.005   5.719   9.765 -1.3937  2.1139 -1.2169
  995MOL0     H31294   4.123   5.768  10.123  2.1545  2.1022 -1.7921
  995MOL0     H31295   4.043   5.659  10.013 -0.6648  0.4643 -0.3544
  995MOL0     H31296   3.889   5.789  10.169 -2.4883 -0.3657  0.0866
  995MOL0     H31297   3.843   5.824  10.008  0.2251 -0.7538  0.4594
  995MOL0     H31298   4.024   5.970  10.202 -0.9399 -3.3483  0.4420
  995MOL0     H31299   4.004   6.046  10.041  1.4424  0.8110  0.9962
  995MOL0     H31300   3.844   6.147  10.210 -3.0777  0.3128  0.8311
  995MOL0     H31301   3.780   6.003  10.255 -2.0034  1.3934  0.5819
  995MOL0     H31302   3.596   6.114  10.298 -0.1143 -1.6595 -0.6634
  995MOL0     H31303   3.366   6.057  10.331  0.1666 -2.0906 -0.3432
  995MOL0     H31304   2.889   6.001  10.152 -0.8368  0.0163  0.8236
  995MOL0     H31305   2.671   6.039  10.274  0.1610  2.7217 -2.1427
  995MOL0     H31306   2.502   6.036  10.389  1.2584  0.6371 -0.8697
  995MOL0     H31307   2.559   6.198  10.431 -0.5782  0.7983  1.3497
  995MOL0     H31308   2.394   6.233  10.582 -0.0785  0.0996 -2.8033
  995MOL0     H31309   2.474   6.111  10.680 -1.0934  1.7166  0.2052
  995MOL0     H31310   2.332   5.942  10.590 -2.4347 -1.7336 -1.3319
  995MOL0     H31311   2.240   6.062  10.488 -0.4406  2.9665  0.3122
  995MOL0     H31312   2.260   6.043  10.798  1.1099  1.8135  0.4242
  995MOL0     H31313   2.199   6.189  10.719  1.7966  0.7830  0.6025
  995MOL0     H31314   2.076   5.918  10.701  0.8905 -0.2718  4.4302
  995MOL0     H31315   2.028   6.058  10.598  0.4719  0.5238  0.5658
  995MOL0     H31316   1.958   6.186  10.801  1.2375  0.9329  1.7414
  995MOL0     H31317   1.995   6.061  10.908 -2.5278  1.2954  0.3189
  995MOL0     H31318   1.786   6.000  10.692 -4.6880  0.5414  1.9839
  995MOL0     H31319   1.865   5.894  10.810  1.0405 -0.0771  1.8901
  995MOL0     H31320   1.655   5.969  10.874 -0.1158 -0.4429  1.2150
  995MOL0     H31321   1.695   6.145  10.858 -1.6029 -0.9260 -0.1247
  995MOL0     H31322   2.884   6.058  10.640 -0.4290  2.0255 -0.0085
  995MOL0     H31323   3.103   6.041  10.512 -0.9713  0.4588  2.8333
  995MOL0     H31324   3.310   6.022   9.906  0.1220 -0.0917 -0.4927
  995MOL0     H31325   3.543   6.027   9.881  0.7269  3.0400 -0.8135
  995MOL0     H31326   4.891   6.043   9.338  0.7418  0.7330 -2.0199
  995MOL0     H31327   5.054   6.104   9.187 -0.6908 -0.3594  0.3316
  995MOL0     H31328   5.389   5.980   8.962  0.2494 -1.8139 -0.6570
  995MOL0     H31329   5.554   6.027   8.763 -0.4904 -2.1542 -0.1505
  995MOL0     H31330   5.905   5.923   8.812  0.0068 -0.4694 -2.4143
  995MOL0     H31331   5.995   6.066   8.841  2.7617 -1.7161 -1.9978
  995MOL0     H31332   6.086   5.969   8.652  0.4756 -1.5856 -2.9988
  995MOL0     H31333   5.928   5.981   8.559  1.2926  0.2472 -1.2090
  995MOL0     H31334   6.089   6.222   8.650 -0.3137 -1.3913  1.4144
  995MOL0     H31335   5.930   6.218   8.573  0.7084 -0.3722  0.2915
  995MOL0     H31336   6.021   6.130   8.375  2.1429  0.4809 -1.6898
  995MOL0     H31337   6.123   6.270   8.410 -1.9534  0.3622 -1.4059
  995MOL0     H31338   6.394   5.938   8.470 -0.5389 -0.6357 -2.1213
  995MOL0     H31339   5.871   6.082   9.036 -0.2916  0.1642 -0.7609
  995MOL0     H31340   5.714   6.084   9.224 -4.0134  2.5807  1.1480
  996MOL0     O31341  10.561   2.943   7.906 -0.0306 -0.3005 -0.5249
  996MOL0     C31342  10.543   2.981   8.023  0.3011  0.5697 -0.2361
  996MOL0     O31343  10.426   3.032   8.074  0.3978  0.2830 -0.7863
  996MOL0     C31344  10.308   3.042   8.009 -0.3079 -0.3132  0.5133
  996MOL0     C31345  10.298   3.107   7.889 -0.0396  0.2244  0.0669
  996MOL0     C31346  10.181   3.136   7.832 -0.0373  0.3538 -0.0186
  996MOL0     C31347  10.057   3.104   7.897 -0.4843 -0.0227 -0.3847
  996MOL0     O31348   9.936   3.138   7.843 -0.0371  0.1209  0.4486
  996MOL0     C31349   9.865   3.025   7.791 -0.3528 -0.4543 -0.3158
  996MOL0     C31350   9.720   3.035   7.837  1.3702  0.0197  0.7380
  996MOL0     C31351   9.624   2.917   7.798 -0.7983 -0.3401 -0.2496
  996MOL0     C31352   9.585   2.912   7.649 -1.0820 -0.6229  0.3132
  996MOL0     C31353   9.468   2.821   7.631  0.6199  0.0791 -0.4091
  996MOL0     C31354   9.341   2.876   7.693  0.5601 -0.3441 -0.2977
  996MOL0     C31355   9.211   2.806   7.648  0.1955 -0.9188  0.2957
  996MOL0     C31356   9.184   2.675   7.706 -0.8460  0.5204 -0.4278
  996MOL0     N31357   9.058   2.618   7.672 -0.2945  0.5852 -0.1076
  996MOL0     C31358   8.930   2.679   7.679  0.5074  0.4461 -0.6746
  996MOL0     C31359   8.837   2.592   7.631  1.0347  0.3087 -0.5825
  996MOL0     C31360   8.684   2.603   7.614  0.3803 -0.1542 -0.1609
  996MOL0     C31361   8.592   2.558   7.732 -0.1837  0.0856 -0.0785
  996MOL0     C31362   8.612   2.655   7.847  0.2211  0.2615  0.7928
  996MOL0     C31363   8.492   2.654   7.947 -0.8066 -0.0941  0.6933
  996MOL0     O31364   8.481   2.516   7.991  0.0230 -0.3314  0.2705
  996MOL0     C31365   8.370   2.443   7.955 -0.3294 -0.4572  0.2816
  996MOL0     C31366   8.387   2.300   7.959 -0.2654 -1.2446 -0.7227
  996MOL0     C31367   8.289   2.218   7.900 -0.1492 -0.1433  0.0582
  996MOL0     C31368   8.164   2.271   7.859 -0.0761  0.9586 -0.0846
  996MOL0     C31369   8.075   2.168   7.793 -0.4895 -0.6232 -0.7183
  996MOL0     O31370   8.119   2.039   7.761  0.1602  0.0582  0.0281
  996MOL0     C31371   8.038   1.952   7.692  0.8629 -0.3751 -0.6018
  996MOL0     C31372   7.898   1.955   7.682  0.1792  0.5372 -0.5209
  996MOL0     C31373   7.824   1.854   7.632  0.6314 -0.3482  0.4685
  996MOL0     C31374   7.889   1.742   7.582  1.5406  0.6854  0.2809
  996MOL0     O31375   7.814   1.633   7.544  0.0958 -0.0790 -0.5077
  996MOL0     C31376   7.856   1.557   7.431  0.6473 -0.2124  0.2039
  996MOL0     C31377   7.739   1.473   7.386 -0.5764  0.1437  0.3332
  996MOL0     C31378   7.758   1.432   7.243 -0.4677  0.0598  1.5677
  996MOL0     C31379   7.716   1.537   7.140 -0.4350 -0.2428 -0.2719
  996MOL0     C31380   7.766   1.514   6.991 -0.5465  0.5317 -0.2217
  996MOL0     C31381   7.717   1.620   6.892  0.0953 -1.0481 -0.8488
  996MOL0     C31382   7.566   1.611   6.871 -0.2712  0.3104  0.5005
  996MOL0     C31383   7.514   1.745   6.823 -0.2331 -0.2547 -0.1926
  996MOL0    Cl31384   7.340   1.767   6.855  0.4520  0.7272  0.4721
  996MOL0     C31385   8.026   1.740   7.570 -0.3438  0.1501 -0.2515
  996MOL0     C31386   8.103   1.840   7.632 -0.6580 -0.3552  0.7200
  996MOL0     O31387   7.963   2.210   7.777 -0.2224  0.3219 -0.2544
  996MOL0     C31388   8.140   2.404   7.866  0.8268 -1.0764  0.3314
  996MOL0     C31389   8.238   2.494   7.913 -0.4067 -0.0439  0.9827
  996MOL0     N31390   8.911   2.485   7.589  1.2066  0.0019  0.0747
  996MOL0     N31391   9.038   2.499   7.608 -0.6640 -0.3691  0.3678
  996MOL0     C31392  10.065   3.036   8.018 -0.0168 -0.5656 -1.3308
  996MOL0     C31393  10.190   2.999   8.082 -0.3719 -1.1384 -0.2965
  996MOL0     C31394  10.666   2.983   8.115 -0.2047 -1.2192  0.1246
  996MOL0     C31395  10.801   2.958   8.068 -0.6467  0.4266 -0.0534
  996MOL0     C31396  10.909   2.950   8.155  0.9139  0.2993  0.3468
  996MOL0     C31397  10.894   2.999   8.284 -0.6798 -0.2740  0.0548
  996MOL0     O31398  10.985   3.005   8.384 -0.1793  0.4036  0.3099
  996MOL0     C31399  11.117   2.998   8.336  0.4715  0.9256 -0.2561
  996MOL0     C31400  11.173   3.140   8.322  0.6882 -0.1920  0.0862
  996MOL0     C31401  11.320   3.133   8.310  0.2628 -0.0809 -0.2622
  996MOL0     C31402  11.388   3.270   8.314 -0.9293 -0.3120  0.7508
  996MOL0     C31403  11.338   3.344   8.195 -0.0383 -0.5820 -0.4848
  996MOL0     C31404  11.303   3.419   8.104 -0.1451  1.1393 -0.9838
  996MOL0     C31405  10.765   3.020   8.339  0.6629 -0.5334  0.5606
  996MOL0     C31406  10.653   3.013   8.251 -0.2454  0.2323 -0.9315
  996MOL0     H31407  10.393   3.143   7.852 -0.4575  2.3975  0.9902
  996MOL0     H31408  10.193   3.189   7.737  0.2857 -1.8377 -1.2616
  996MOL0     H31409   9.892   2.938   7.851 -1.5046  0.7626  2.1281
  996MOL0     H31410   9.875   3.016   7.683  3.4346 -0.3645 -0.1072
  996MOL0     H31411   9.670   3.130   7.815  1.5017 -0.0269  0.2215
  996MOL0     H31412   9.717   3.035   7.947 -4.3531  1.9990  0.9072
  996MOL0     H31413   9.530   2.932   7.851 -1.0692  0.9251 -1.0281
  996MOL0     H31414   9.673   2.822   7.821 -0.7465 -0.5537 -1.2077
  996MOL0     H31415   9.560   3.011   7.609  1.9688 -0.3509 -1.2564
  996MOL0     H31416   9.669   2.876   7.587 -1.1064 -2.5871  1.3442
  996MOL0     H31417   9.510   2.727   7.667  1.9909  0.9904  0.4503
  996MOL0     H31418   9.454   2.799   7.525 -5.1474 -1.2301  0.2927
  996MOL0     H31419   9.327   2.980   7.661  1.9130 -0.5901 -1.8498
  996MOL0     H31420   9.340   2.872   7.802 -0.9028 -1.8322 -0.3396
  996MOL0     H31421   9.132   2.876   7.677  1.0200 -0.3115  1.1232
  996MOL0     H31422   9.213   2.800   7.539 -0.7235 -1.9684  0.3196
  996MOL0     H31423   9.193   2.677   7.815 -0.4183  2.5599 -0.4771
  996MOL0     H31424   9.263   2.607   7.672 -0.5529  0.8674 -0.4452
  996MOL0     H31425   8.908   2.774   7.726 -2.8670 -0.1279 -0.7903
  996MOL0     H31426   8.664   2.541   7.526  2.2853 -1.0628  0.0023
  996MOL0     H31427   8.655   2.703   7.580 -1.8407 -1.5479 -2.7819
  996MOL0     H31428   8.608   2.456   7.769 -0.5677  0.2703  0.6032
  996MOL0     H31429   8.489   2.549   7.698 -0.8121 -0.1503  1.7731
  996MOL0     H31430   8.699   2.616   7.902 -1.0902  0.1420  2.8971
  996MOL0     H31431   8.649   2.753   7.815  0.3846 -0.4367 -1.2918
  996MOL0     H31432   8.404   2.684   7.890  0.4797  0.8794 -0.8608
  996MOL0     H31433   8.508   2.726   8.028  1.6776  1.0889 -0.7353
  996MOL0     H31434   8.488   2.270   7.986  0.0710 -0.3577 -0.9571
  996MOL0     H31435   8.314   2.113   7.892 -2.1139 -0.6936  0.7125
  996MOL0     H31436   7.837   2.032   7.729  0.9765  0.0459  1.4565
  996MOL0     H31437   7.716   1.858   7.639  0.5957 -2.1069  1.5849
  996MOL0     H31438   7.948   1.499   7.440  1.2777  0.7959  0.4205
  996MOL0     H31439   7.868   1.620   7.342 -0.0979 -1.6378 -0.9482
  996MOL0     H31440   7.650   1.537   7.386 -1.0109 -0.4264 -1.2363
  996MOL0     H31441   7.731   1.389   7.456 -0.4591  1.1880  1.6326
  996MOL0     H31442   7.690   1.348   7.229 -0.0526 -0.3016  1.7055
  996MOL0     H31443   7.859   1.391   7.235 -1.6703 -2.7897 -0.5820
  996MOL0     H31444   7.609   1.554   7.153  0.1543  4.3128  0.4347
  996MOL0     H31445   7.756   1.636   7.164  0.7776 -0.9272  0.6831
  996MOL0     H31446   7.755   1.412   6.954  3.4172 -0.6443  1.2781
  996MOL0     H31447   7.876   1.515   6.993 -0.5086 -1.1057 -0.5740
  996MOL0     H31448   7.765   1.628   6.794 -2.9289  1.4633 -2.3378
  996MOL0     H31449   7.752   1.713   6.937 -0.7624 -0.9858 -0.2790
  996MOL0     H31450   7.556   1.538   6.790  0.0308  2.0466 -1.1949
  996MOL0     H31451   7.515   1.564   6.955 -0.9173 -2.4480 -1.3155
  996MOL0     H31452   7.530   1.764   6.717 -1.7896  0.2510 -0.3509
  996MOL0     H31453   7.565   1.826   6.876 -1.9909  2.2565 -2.1263
  996MOL0     H31454   8.085   1.661   7.527  3.0577  1.9462  0.7508
  996MOL0     H31455   8.211   1.834   7.631 -0.5331 -0.1777  3.7979
  996MOL0     H31456   8.049   2.449   7.827  0.9956 -3.1992 -2.8777
  996MOL0     H31457   8.213   2.599   7.908 -2.2478 -0.4782  0.3848
  996MOL0     H31458   9.977   3.021   8.080  0.1728 -1.2458 -1.2200
  996MOL0     H31459  10.183   2.954   8.180  2.0755 -2.0644 -0.4883
  996MOL0     H31460  10.812   2.930   7.964 -2.3539 -0.2525 -0.0777
  996MOL0     H31461  11.001   2.908   8.116 -0.3887 -0.7313 -1.8104
  996MOL0     H31462  11.136   2.939   8.246 -0.4550 -1.7584  1.1889
  996MOL0     H31463  11.174   2.939   8.409  1.6359 -1.3978 -2.8979
  996MOL0     H31464  11.131   3.176   8.227 -0.0651 -0.9385  0.1280
  996MOL0     H31465  11.137   3.207   8.401 -2.1443  0.8972 -1.9398
  996MOL0     H31466  11.330   3.087   8.211 -3.2157  0.0449 -0.7716
  996MOL0     H31467  11.370   3.066   8.380 -0.0434  0.3714  0.3987
  996MOL0     H31468  11.368   3.311   8.413  1.4211 -0.1149  1.1993
  996MOL0     H31469  11.493   3.244   8.304 -1.4715 -2.2826 -0.4695
  996MOL0     H31470  11.276   3.474   8.016 -0.4841  0.9600 -0.9914
  996MOL0     H31471  10.746   3.043   8.443 -2.3214 -4.0214  0.9994
  996MOL0     H31472  10.556   3.017   8.299  0.1096 -0.1851 -0.1619
  997MOL0     O31473   3.240   3.550   4.828 -0.1979 -1.0526  0.7714
  997MOL0     C31474   3.279   3.664   4.842 -0.0464 -0.2076 -0.4129
  997MOL0     O31475   3.195   3.773   4.873 -0.3684 -0.0764  0.4504
  997MOL0     C31476   3.065   3.742   4.913  0.2947  0.0774 -0.4521
  997MOL0     C31477   3.047   3.671   5.035  0.3197  0.2190  0.4318
  997MOL0     C31478   2.915   3.653   5.088 -0.8947  0.3084 -0.1197
  997MOL0     C31479   2.797   3.709   5.032 -0.7658 -0.6182 -0.1530
  997MOL0     O31480   2.672   3.724   5.088  0.2842 -0.8113 -0.2387
  997MOL0     C31481   2.671   3.671   5.218  0.1079  0.1027 -0.9609
  997MOL0     C31482   2.532   3.663   5.271  0.1287  0.2888  0.2584
  997MOL0     C31483   2.467   3.804   5.302  0.5446  0.0596 -1.1954
  997MOL0     C31484   2.325   3.782   5.348 -0.5465 -0.4423  0.2654
  997MOL0     C31485   2.254   3.911   5.372 -0.3439 -0.2335  0.1248
  997MOL0     C31486   2.119   3.881   5.433 -0.2457 -0.1831 -0.0597
  997MOL0     C31487   2.029   4.012   5.443  0.2236  0.4091 -0.3576
  997MOL0     C31488   1.883   3.963   5.444 -0.2985 -1.1979 -0.2685
  997MOL0     N31489   1.818   3.930   5.320  0.5766  0.6141 -0.2220
  997MOL0     C31490   1.763   4.018   5.235 -0.0594 -1.0655  0.7688
  997MOL0     C31491   1.682   3.948   5.157 -0.8757  0.4782  0.2996
  997MOL0     C31492   1.598   4.007   5.055 -0.4418  0.0605  0.0625
  997MOL0     C31493   1.463   3.938   5.037 -0.1291 -0.3350  0.1916
  997MOL0     C31494   1.355   4.015   4.952 -0.0471 -0.8606 -0.0643
  997MOL0     C31495   1.237   3.928   4.915  0.3003 -0.1166  0.1107
  997MOL0     O31496   1.132   4.000   4.847  0.9152 -0.0979  0.5290
  997MOL0     C31497   0.996   3.960   4.866  0.7809 -0.2619  0.3771
  997MOL0     C31498   0.902   4.037   4.795 -0.0476  0.7410  0.8608
  997MOL0     C31499   0.769   4.022   4.801  0.8200 -0.0574  0.0004
  997MOL0     C31500   0.710   3.925   4.884  0.3566  0.5129 -1.2883
  997MOL0     C31501   0.575   3.894   4.895  0.1366  0.0681 -0.5054
  997MOL0     O31502   0.489   3.994   4.860 -0.1457  0.0911 -0.1277
  997MOL0     C31503   0.356   3.980   4.890 -0.3901  0.8552 -0.2853
  997MOL0     C31504   0.303   3.895   4.990 -0.5858  0.2423 -0.4228
  997MOL0     C31505   0.160   3.870   5.009 -1.0049 -0.3060 -0.1168
  997MOL0     C31506   0.069   3.937   4.921 -0.4300  0.7781  0.4108
  997MOL0     O31507  -0.067   3.935   4.936 -0.1171  0.2480  0.2187
  997MOL0     C31508  -0.124   3.829   5.001  0.2620  0.5296 -0.2292
  997MOL0     C31509  -0.166   3.846   5.145  0.5454 -0.7007  0.1479
  997MOL0     C31510  -0.251   3.978   5.149  0.2930  0.8744  0.0733
  997MOL0     C31511  -0.327   3.985   5.285  0.0438 -0.2059 -0.2097
  997MOL0     C31512  -0.428   4.100   5.295  0.5252  0.3391  0.6007
  997MOL0     C31513  -0.526   4.092   5.178 -0.3680  0.2843 -0.2632
  997MOL0     C31514  -0.643   4.182   5.197  0.1434 -0.2460 -0.5491
  997MOL0     C31515  -0.749   4.131   5.098  0.2345 -0.1541 -0.6545
  997MOL0    Cl31516  -0.878   4.240   5.082 -0.2960 -0.6401 -0.2576
  997MOL0     C31517   0.120   4.027   4.827  0.8334 -0.1366 -0.0487
  997MOL0     C31518   0.260   4.060   4.823  0.2984 -0.6191 -0.7695
  997MOL0     O31519   0.545   3.775   4.927 -0.4591  0.3608 -0.8440
  997MOL0     C31520   0.800   3.856   4.970 -0.1682 -0.6435  1.0035
  997MOL0     C31521   0.942   3.869   4.955 -0.3076 -0.5390 -0.0523
  997MOL0     N31522   1.676   3.816   5.202  0.5999 -0.8019 -0.5536
  997MOL0     N31523   1.763   3.816   5.297 -0.4398 -0.3744  0.2169
  997MOL0     C31524   2.820   3.773   4.906  0.0150 -1.0130  0.0122
  997MOL0     C31525   2.945   3.794   4.855 -0.2697  0.2320 -0.0355
  997MOL0     C31526   3.415   3.689   4.805 -0.0294 -0.1325  0.2602
  997MOL0     C31527   3.458   3.822   4.788 -0.0693  0.3803  0.8371
  997MOL0     C31528   3.589   3.845   4.744  0.0739  0.2373 -0.3807
  997MOL0     C31529   3.676   3.744   4.718  1.0014 -0.8133  0.3727
  997MOL0     O31530   3.810   3.753   4.671  0.5886 -0.3255 -0.0997
  997MOL0     C31531   3.857   3.885   4.641 -0.1723 -0.1450  1.2167
  997MOL0     C31532   3.908   3.956   4.769  0.0560 -0.6454  0.2783
  997MOL0     C31533   4.043   3.899   4.816  0.8808 -0.0738  0.1790
  997MOL0     C31534   4.143   3.854   4.703 -0.7079  0.3283  0.4155
  997MOL0     C31535   4.280   3.827   4.746  0.3354  0.4838 -0.6866
  997MOL0     C31536   4.387   3.795   4.788 -0.1310  0.3339  0.2327
  997MOL0     C31537   3.632   3.611   4.735 -0.2951  0.1499 -0.3083
  997MOL0     C31538   3.499   3.582   4.765  0.9401  1.3050 -0.0711
  997MOL0     H31539   3.131   3.617   5.079  0.5703 -0.3747 -0.7283
  997MOL0     H31540   2.918   3.594   5.179  0.2517 -1.5405 -1.2965
  997MOL0     H31541   2.739   3.721   5.288  0.2879 -1.1873 -0.1687
  997MOL0     H31542   2.682   3.563   5.211 -3.4902 -0.4722 -0.1546
  997MOL0     H31543   2.529   3.610   5.367 -2.2164 -1.5020 -0.6730
  997MOL0     H31544   2.465   3.611   5.201 -2.1224  0.6887  2.0143
  997MOL0     H31545   2.463   3.859   5.208  0.0989  1.0362 -0.6174
  997MOL0     H31546   2.535   3.853   5.372  0.6307 -0.0897 -1.1735
  997MOL0     H31547   2.263   3.723   5.280  0.8682 -2.0931  0.3135
  997MOL0     H31548   2.324   3.727   5.443 -3.9519  2.1340  1.9431
  997MOL0     H31549   2.238   3.964   5.278 -0.7620  4.1869  2.4139
  997MOL0     H31550   2.313   3.987   5.423  0.1858 -0.7005  0.2078
  997MOL0     H31551   2.142   3.840   5.532  1.3764  0.0347 -0.3214
  997MOL0     H31552   2.075   3.804   5.369  1.8045 -1.1773 -0.3645
  997MOL0     H31553   2.049   4.087   5.520  0.5292  0.6409 -0.6607
  997MOL0     H31554   2.046   4.055   5.344  2.0199 -0.3902 -0.4359
  997MOL0     H31555   1.817   4.045   5.475  1.5249  0.1340  0.2861
  997MOL0     H31556   1.878   3.881   5.516 -0.8707  0.0795  1.2028
  997MOL0     H31557   1.792   4.122   5.224  0.2358 -1.3025 -0.9968
  997MOL0     H31558   1.656   4.004   4.963 -3.3947  2.8839 -2.1134
  997MOL0     H31559   1.575   4.111   5.079 -3.3206 -0.3103 -0.7534
  997MOL0     H31560   1.418   3.930   5.136 -0.9466 -2.7641 -0.3143
  997MOL0     H31561   1.470   3.832   5.011  0.2489 -0.1727 -0.3891
  997MOL0     H31562   1.325   4.093   5.022  0.8913 -1.3348  0.8989
  997MOL0     H31563   1.396   4.060   4.861 -1.9875 -2.3778 -1.7827
  997MOL0     H31564   1.202   3.895   5.014 -0.7975 -1.5949 -0.7299
  997MOL0     H31565   1.281   3.843   4.863  4.2548  0.9961  1.2918
  997MOL0     H31566   0.954   4.107   4.731 -0.5885  1.6369  1.3822
  997MOL0     H31567   0.708   4.073   4.728  2.3630 -1.9129 -2.7617
  997MOL0     H31568   0.364   3.847   5.066 -0.7916 -0.6063 -0.7864
  997MOL0     H31569   0.127   3.802   5.086 -0.1022 -1.8595 -1.0600
  997MOL0     H31570  -0.058   3.744   4.980  1.7640  1.5590  0.2174
  997MOL0     H31571  -0.213   3.800   4.944  2.5352 -2.8807 -2.5051
  997MOL0     H31572  -0.076   3.859   5.206  1.0596  1.7631 -1.0117
  997MOL0     H31573  -0.226   3.761   5.177 -3.8778  1.8159 -0.6455
  997MOL0     H31574  -0.330   3.960   5.077  0.8437  1.5676 -0.7158
  997MOL0     H31575  -0.198   4.073   5.136  3.2619  0.0655  4.0804
  997MOL0     H31576  -0.371   3.886   5.300 -1.7990  0.8695  2.3178
  997MOL0     H31577  -0.248   3.994   5.360  0.5885  0.8115 -0.8846
  997MOL0     H31578  -0.362   4.187   5.302  0.5390  0.3242  0.6613
  997MOL0     H31579  -0.485   4.086   5.388 -1.5805 -0.7418 -0.7697
  997MOL0     H31580  -0.556   3.988   5.160  1.1861 -0.5867  1.8342
  997MOL0     H31581  -0.472   4.116   5.086 -1.3418  0.1470 -0.8836
  997MOL0     H31582  -0.679   4.188   5.300 -3.2126  3.6945 -1.6768
  997MOL0     H31583  -0.615   4.285   5.174 -2.1272  0.2368 -1.5129
  997MOL0     H31584  -0.791   4.037   5.136 -0.0740  0.4287  0.4940
  997MOL0     H31585  -0.697   4.104   5.005  1.8839  0.8357 -0.0736
  997MOL0     H31586   0.055   4.082   4.760 -0.7328  1.0768  2.3418
  997MOL0     H31587   0.295   4.128   4.747 -0.9380  0.4033 -0.4673
  997MOL0     H31588   0.760   3.780   5.037 -3.1009 -1.7911 -1.7700
  997MOL0     H31589   1.015   3.801   4.998 -0.1233 -1.2350 -1.4078
  997MOL0     H31590   2.732   3.811   4.854  0.3308 -1.1183 -0.6064
  997MOL0     H31591   2.964   3.832   4.755 -0.4758 -2.6933 -1.2925
  997MOL0     H31592   3.389   3.902   4.813 -0.9438  0.3369 -1.2470
  997MOL0     H31593   3.623   3.948   4.743  1.5348 -0.1972  1.0730
  997MOL0     H31594   3.776   3.945   4.597 -0.9158 -2.1720 -0.3461
  997MOL0     H31595   3.932   3.873   4.563 -1.7939  1.0162 -0.6400
  997MOL0     H31596   3.911   4.062   4.743 -3.1645 -1.1542 -2.8479
  997MOL0     H31597   3.837   3.947   4.852  0.0696 -2.0169  0.1670
  997MOL0     H31598   4.026   3.812   4.880  1.8931 -0.2093  0.2794
  997MOL0     H31599   4.080   3.984   4.873  0.9666 -0.5433  0.8323
  997MOL0     H31600   4.099   3.764   4.658 -0.9999  2.2607 -3.5772
  997MOL0     H31601   4.150   3.930   4.625 -3.4582  0.1118 -0.1394
  997MOL0     H31602   4.488   3.775   4.818 -0.2967  0.9617  1.2616
  997MOL0     H31603   3.695   3.527   4.706 -2.7636 -1.3482 -1.7318
  997MOL0     H31604   3.468   3.479   4.777  1.2960  1.5038  3.8469
  998MOL0     O31605   2.430  10.108   7.193  0.3854  0.2603  0.3121
  998MOL0     C31606   2.525  10.040   7.159  0.1662 -0.1511  0.0018
  998MOL0     O31607   2.513   9.925   7.098  0.1113  0.6244 -0.0755
  998MOL0     C31608   2.389   9.870   7.073  1.3226  0.2796 -0.5681
  998MOL0     C31609   2.341   9.815   6.954 -1.3418 -0.2876  0.4820
  998MOL0     C31610   2.226   9.745   6.944  0.9492  0.2963 -1.0615
  998MOL0     C31611   2.132   9.736   7.051 -0.0103 -0.2098 -0.6770
  998MOL0     O31612   2.003   9.684   7.038  0.4452  0.2377  1.0164
  998MOL0     C31613   1.979   9.574   6.950 -0.0286  0.8757 -0.1342
  998MOL0     C31614   1.845   9.507   6.991 -0.2007 -0.0447  0.2081
  998MOL0     C31615   1.826   9.368   6.912  0.3658 -0.4137 -0.4778
  998MOL0     C31616   1.691   9.317   6.957  0.1434  0.1643  0.6534
  998MOL0     C31617   1.638   9.201   6.878  0.6614 -0.4178 -0.0231
  998MOL0     C31618   1.487   9.193   6.903  0.4702 -0.2603  0.1355
  998MOL0     C31619   1.408   9.074   6.842  0.2639  0.0714 -0.4778
  998MOL0     C31620   1.268   9.076   6.904 -1.0874  0.2283 -0.0749
  998MOL0     N31621   1.171   8.978   6.843  0.4941  0.2072 -1.4418
  998MOL0     C31622   1.183   8.836   6.855 -0.6309 -1.6683 -0.9279
  998MOL0     C31623   1.068   8.795   6.803  0.4391 -0.3850  0.0385
  998MOL0     C31624   1.024   8.652   6.789 -0.0027  0.6477  0.1166
  998MOL0     C31625   0.869   8.643   6.777 -0.3881 -0.1532 -0.2882
  998MOL0     C31626   0.806   8.698   6.653 -0.2158  0.3901  0.6357
  998MOL0     C31627   0.675   8.636   6.610  0.3435  0.1336  0.1224
  998MOL0     O31628   0.666   8.501   6.644 -0.1312  0.0455  0.5963
  998MOL0     C31629   0.547   8.435   6.626 -0.0166 -0.2457 -0.6928
  998MOL0     C31630   0.420   8.486   6.614 -0.3667  0.1424  0.4586
  998MOL0     C31631   0.305   8.411   6.600  0.5766  0.5935  1.6389
  998MOL0     C31632   0.311   8.274   6.597  0.6197  0.4587 -0.0531
  998MOL0     C31633   0.189   8.187   6.592 -0.1768  0.0683  0.0160
  998MOL0     O31634   0.063   8.243   6.605 -0.7962  0.0540  0.9435
  998MOL0     C31635  -0.041   8.161   6.636  0.4661  0.1504  0.6149
  998MOL0     C31636  -0.110   8.181   6.762 -0.3549 -1.0899  0.4982
  998MOL0     C31637  -0.222   8.109   6.801  0.4810 -0.8490 -0.4565
  998MOL0     C31638  -0.270   8.004   6.718 -0.2147  0.3721 -0.0269
  998MOL0     O31639  -0.376   7.931   6.737  0.2956  0.8598 -1.0027
  998MOL0     C31640  -0.469   7.957   6.840  0.5341  0.4507  0.2202
  998MOL0     C31641  -0.565   7.834   6.874 -0.0191  0.1656  0.0845
  998MOL0     C31642  -0.702   7.866   6.817 -0.5635 -0.2616 -0.1362
  998MOL0     C31643  -0.803   7.749   6.847  0.1703  0.3382  0.3494
  998MOL0     C31644  -0.937   7.761   6.782  0.8128  0.2343  0.3900
  998MOL0     C31645  -1.029   7.836   6.874 -0.1326  0.1322  0.0144
  998MOL0     C31646  -1.160   7.862   6.803 -0.1081 -0.5449 -0.4486
  998MOL0     C31647  -1.239   7.978   6.859  0.8132  0.9993  0.4244
  998MOL0    Cl31648  -1.363   8.027   6.737  0.2162  0.1540 -0.0563
  998MOL0     C31649  -0.207   7.984   6.596 -0.2044  0.1855  0.0994
  998MOL0     C31650  -0.093   8.056   6.554  0.2169 -0.2045  0.2497
  998MOL0     O31651   0.213   8.065   6.607  0.1366 -0.5307  0.5384
  998MOL0     C31652   0.439   8.224   6.613 -0.4010 -0.4807 -0.2635
  998MOL0     C31653   0.559   8.297   6.636 -0.4300  0.0284 -0.2006
  998MOL0     N31654   0.988   8.907   6.772  0.2607 -0.6863  0.4747
  998MOL0     N31655   1.060   9.015   6.790  0.3755 -0.8276  1.0356
  998MOL0     C31656   2.170   9.787   7.170 -0.6133  0.8625 -0.5102
  998MOL0     C31657   2.303   9.848   7.183 -0.5593  0.3408 -0.5829
  998MOL0     C31658   2.658  10.105   7.164  0.0377  0.0117  0.1182
  998MOL0     C31659   2.772  10.031   7.133 -0.9387  0.3213 -0.1110
  998MOL0     C31660   2.900  10.088   7.143  0.5640 -0.5070  0.1340
  998MOL0     C31661   2.908  10.226   7.170  0.6904 -0.3207  0.2345
  998MOL0     O31662   3.035  10.295   7.163 -0.1527  0.9484 -0.0807
  998MOL0     C31663   3.072  10.345   7.032 -0.1367 -0.0482 -0.4697
  998MOL0     C31664   3.190  10.441   7.046 -0.4583  0.6536  0.3984
  998MOL0     C31665   3.321  10.382   7.023 -1.0198  0.1860 -0.7432
  998MOL0     C31666   3.442  10.477   7.022  0.5941 -0.0196 -0.9403
  998MOL0     C31667   3.478  10.521   7.155 -0.4495 -0.1877 -0.0959
  998MOL0     C31668   3.507  10.583   7.256  0.4670 -0.6877 -0.1339
  998MOL0     C31669   2.800  10.306   7.202  0.7852  0.4876 -0.2276
  998MOL0     C31670   2.671  10.241   7.204 -0.8520  0.2736 -0.4949
  998MOL0     H31671   2.399   9.832   6.864 -2.7316  0.4411 -0.3107
  998MOL0     H31672   2.198   9.712   6.845  1.5690 -0.6712 -0.9348
  998MOL0     H31673   2.058   9.498   6.954  1.7449  2.5701 -1.2258
  998MOL0     H31674   1.974   9.599   6.844  3.1463  1.8330 -0.1639
  998MOL0     H31675   1.759   9.573   6.979 -0.0192  0.4377  1.4619
  998MOL0     H31676   1.847   9.483   7.098 -3.8372 -0.8309  0.2301
  998MOL0     H31677   1.907   9.300   6.939 -0.7006 -0.7154  2.2760
  998MOL0     H31678   1.816   9.382   6.804 -3.3242  0.8748 -0.0908
  998MOL0     H31679   1.693   9.300   7.065  0.3124  0.2745  0.6687
  998MOL0     H31680   1.620   9.398   6.943  0.5160  0.4985  0.6877
  998MOL0     H31681   1.691   9.112   6.913  1.4149 -0.2361 -0.6567
  998MOL0     H31682   1.662   9.207   6.772  3.1763  0.1800  0.5106
  998MOL0     H31683   1.442   9.281   6.858  0.9416  0.9519  1.9033
  998MOL0     H31684   1.476   9.208   7.011 -2.0849  2.6860 -0.4037
  998MOL0     H31685   1.396   9.110   6.740 -0.1149 -0.9596 -0.8059
  998MOL0     H31686   1.456   8.976   6.841  0.8498  0.2717  1.8891
  998MOL0     H31687   1.225   9.176   6.892  1.3818  1.4127  0.4346
  998MOL0     H31688   1.281   9.052   7.010  0.1088  1.6652  0.1238
  998MOL0     H31689   1.251   8.767   6.903 -1.1083  0.1426  2.7177
  998MOL0     H31690   1.045   8.611   6.888 -0.5244  0.0234 -0.0257
  998MOL0     H31691   1.084   8.595   6.717  1.8389  1.1903  1.1533
  998MOL0     H31692   0.830   8.702   6.860 -0.0757 -1.7746  1.0711
  998MOL0     H31693   0.852   8.536   6.792  1.9896 -1.0873 -3.2279
  998MOL0     H31694   0.790   8.804   6.676 -0.6756  0.4612  0.0052
  998MOL0     H31695   0.874   8.694   6.568 -0.7019 -2.9068  0.2888
  998MOL0     H31696   0.663   8.652   6.503 -1.0282 -2.1454 -0.1196
  998MOL0     H31697   0.606   8.698   6.667  3.3772 -0.1679  4.6618
  998MOL0     H31698   0.421   8.595   6.612  0.8267  0.1338 -0.4405
  998MOL0     H31699   0.206   8.453   6.594  0.9309  1.2760 -0.0707
  998MOL0     H31700  -0.069   8.265   6.818  2.4960 -1.7910 -0.3611
  998MOL0     H31701  -0.277   8.122   6.894  1.0188 -1.5449 -0.0375
  998MOL0     H31702  -0.522   8.048   6.811  1.0803  0.1990 -1.7232
  998MOL0     H31703  -0.407   7.974   6.928  2.1826  0.1990 -0.8404
  998MOL0     H31704  -0.593   7.835   6.980 -5.5895 -0.7175 -1.0837
  998MOL0     H31705  -0.527   7.733   6.855 -1.5181 -0.8595  2.1879
  998MOL0     H31706  -0.695   7.872   6.708  0.0148 -1.1127 -0.1540
  998MOL0     H31707  -0.750   7.959   6.851 -1.2849  0.0132 -1.8203
  998MOL0     H31708  -0.750   7.661   6.806  0.7595  1.2812 -0.9977
  998MOL0     H31709  -0.814   7.744   6.955  0.5493 -2.8025  0.3448
  998MOL0     H31710  -0.981   7.663   6.759  2.4006  0.2426 -3.4071
  998MOL0     H31711  -0.925   7.809   6.684  1.1196 -0.9935 -0.2016
  998MOL0     H31712  -0.982   7.934   6.882  0.1203  0.1507 -1.3766
  998MOL0     H31713  -1.039   7.787   6.971 -1.2683 -0.8924 -0.5794
  998MOL0     H31714  -1.140   7.908   6.706  0.6979  2.3909  0.9926
  998MOL0     H31715  -1.222   7.773   6.787 -3.7043  1.6214  0.3042
  998MOL0     H31716  -1.179   8.069   6.875  3.3570 -0.5508  0.2888
  998MOL0     H31717  -1.269   7.952   6.961  0.4211 -1.5165 -0.2728
  998MOL0     H31718  -0.245   7.907   6.529 -0.5559  1.6232 -1.4139
  998MOL0     H31719  -0.041   8.039   6.460 -1.3081 -0.0322 -0.6653
  998MOL0     H31720   0.444   8.117   6.630 -1.5694 -0.3276  1.3262
  998MOL0     H31721   0.651   8.247   6.664  0.1108  0.9642 -0.2658
  998MOL0     H31722   2.106   9.767   7.256  2.6420  2.8443  2.6947
  998MOL0     H31723   2.344   9.874   7.280  1.5645  2.4287 -1.9054
  998MOL0     H31724   2.766   9.929   7.096  1.1807  0.1266 -0.0310
  998MOL0     H31725   2.991  10.035   7.116  1.5685  0.2671  1.8601
  998MOL0     H31726   2.978  10.394   7.005 -0.4966 -1.0444 -1.0831
  998MOL0     H31727   3.091  10.269   6.955 -0.0652 -1.3595  0.8090
  998MOL0     H31728   3.187  10.518   6.969  0.6923  0.1906 -0.1299
  998MOL0     H31729   3.192  10.476   7.150  1.6570 -1.7492  1.2554
  998MOL0     H31730   3.318  10.320   6.934  0.0886 -0.0724 -0.6099
  998MOL0     H31731   3.347  10.314   7.105  1.1117  1.5904 -0.1726
  998MOL0     H31732   3.528  10.422   6.983  1.5993  2.2717 -2.1562
  998MOL0     H31733   3.420  10.561   6.956  0.0763  0.3511 -0.3133
  998MOL0     H31734   3.525  10.653   7.335  3.4790 -0.5003 -0.8656
  998MOL0     H31735   2.817  10.410   7.230 -0.9143  1.1807 -1.6087
  998MOL0     H31736   2.595  10.315   7.229  1.1922  2.5801 -0.6344
  999MOL0     O31737   5.282   2.677  10.132  0.0276 -0.0095 -0.7071
  999MOL0     C31738   5.283   2.675  10.007 -0.3838  0.4072 -0.0373
  999MOL0     O31739   5.182   2.708   9.923  0.0003 -0.1459 -0.0730
  999MOL0     C31740   5.060   2.744   9.953  0.1054 -0.2975  0.0576
  999MOL0     C31741   5.003   2.708  10.072  0.6063 -0.6421 -0.0129
  999MOL0     C31742   4.866   2.745  10.103 -0.3722  0.5408 -0.4003
  999MOL0     C31743   4.800   2.813  10.005  0.4525 -0.6382  0.1212
  999MOL0     O31744   4.669   2.855   9.996  0.1177  0.5634 -0.8724
  999MOL0     C31745   4.578   2.844  10.106 -0.1465  0.3607 -0.4320
  999MOL0     C31746   4.476   2.957  10.083 -0.1783 -0.7910 -0.7533
  999MOL0     C31747   4.363   2.961  10.191 -0.5082 -0.1786 -0.1559
  999MOL0     C31748   4.247   2.851  10.161  0.4665  0.6354 -0.4770
  999MOL0     C31749   4.104   2.903  10.200 -0.3258 -0.7874 -0.5272
  999MOL0     C31750   3.993   2.798  10.181  0.4685 -0.6512  0.2164
  999MOL0     C31751   3.858   2.875  10.177  0.5823 -0.3362  0.1442
  999MOL0     C31752   3.744   2.790  10.127  0.1076  0.1203  0.2704
  999MOL0     N31753   3.742   2.664  10.210  0.0080  0.2749  0.0899
  999MOL0     C31754   3.757   2.528  10.177 -0.0921  0.2469  0.0904
  999MOL0     C31755   3.764   2.464  10.293  0.1261 -0.0413 -0.6445
  999MOL0     C31756   3.765   2.312  10.325 -0.7167 -0.8598 -0.2719
  999MOL0     C31757   3.916   2.259  10.323  1.0893 -0.1080 -0.1798
  999MOL0     C31758   3.988   2.301  10.456 -0.0439  1.0614 -1.2701
  999MOL0     C31759   4.079   2.420  10.453 -0.2747  0.2082  0.0283
  999MOL0     O31760   4.162   2.403  10.347 -0.3427  0.1502  1.1622
  999MOL0     C31761   4.294   2.374  10.363  0.2267  0.3993 -0.1385
  999MOL0     C31762   4.384   2.418  10.265 -0.0420 -0.1888  0.1875
  999MOL0     C31763   4.520   2.409  10.276  0.2711 -0.1400 -0.2363
  999MOL0     C31764   4.574   2.333  10.382 -0.1894  0.0019 -0.0690
  999MOL0     C31765   4.714   2.293  10.391  0.3396 -0.0044  0.0731
  999MOL0     O31766   4.791   2.356  10.302  0.0800  0.1838  0.6201
  999MOL0     C31767   4.927   2.346  10.315 -0.1521  0.8605 -0.3994
  999MOL0     C31768   5.000   2.455  10.355  0.3496 -0.4746 -1.0900
  999MOL0     C31769   5.136   2.453  10.372 -1.3930  0.1810  0.2786
  999MOL0     C31770   5.207   2.333  10.357 -0.6281  0.4785 -0.9118
  999MOL0     O31771   5.345   2.305  10.368 -0.3580  0.0409 -0.4667
  999MOL0     C31772   5.432   2.400  10.305  0.4884  0.3887  0.3862
  999MOL0     C31773   5.578   2.346  10.315  0.5157 -0.6058  0.1204
  999MOL0     C31774   5.646   2.390  10.444  0.4331  0.7428  0.3811
  999MOL0     C31775   5.791   2.352  10.451 -0.6568 -0.8096 -0.0121
  999MOL0     C31776   5.864   2.418  10.561  0.2351 -0.2165 -0.4748
  999MOL0     C31777   6.007   2.368  10.566  0.3025 -0.2736  0.1284
  999MOL0     C31778   6.024   2.225  10.632  0.5031  0.3849  0.0562
  999MOL0     C31779   6.109   2.219  10.752  0.8303  0.6260 -0.9102
  999MOL0    Cl31780   6.089   2.061  10.822  0.1643 -0.1148 -0.2173
  999MOL0     C31781   5.134   2.220  10.331 -0.5093  1.0066  0.4003
  999MOL0     C31782   4.994   2.225  10.303 -0.0142 -0.9147 -0.3636
  999MOL0     O31783   4.758   2.230  10.487  0.1747  0.0591  0.6920
  999MOL0     C31784   4.483   2.272  10.473 -1.2441 -0.2298  0.1024
  999MOL0     C31785   4.345   2.301  10.472  0.4626 -0.1147 -0.5369
  999MOL0     N31786   3.746   2.554  10.396  0.3753 -0.1696  0.2366
  999MOL0     N31787   3.724   2.672  10.349  0.4642 -0.7596  0.2159
  999MOL0     C31788   4.862   2.839   9.884 -0.2763 -0.3847  0.5464
  999MOL0     C31789   4.985   2.798   9.852  0.1382  0.3412 -1.0010
  999MOL0     C31790   5.404   2.618   9.935  0.0542 -0.0802  0.2596
  999MOL0     C31791   5.412   2.615   9.796  0.4351 -0.1133  0.0031
  999MOL0     C31792   5.519   2.571   9.731  0.2246  0.1138 -0.4211
  999MOL0     C31793   5.622   2.518   9.798 -0.1535  0.3716  0.5495
  999MOL0     O31794   5.720   2.469   9.716 -0.5841 -0.1987  1.2105
  999MOL0     C31795   5.812   2.377   9.770 -0.4239 -0.6232  0.4895
  999MOL0     C31796   5.885   2.299   9.665 -0.0495 -0.2252 -0.5226
  999MOL0     C31797   6.018   2.230   9.705 -0.2522 -0.0136  0.3520
  999MOL0     C31798   6.093   2.179   9.585  0.3762  0.0092  0.7241
  999MOL0     C31799   6.219   2.112   9.618  0.0792 -0.2923  0.5703
  999MOL0     C31800   6.316   2.040   9.639 -0.4071 -0.7041 -0.4612
  999MOL0     C31801   5.619   2.510   9.938 -0.1314  0.9131  1.0576
  999MOL0     C31802   5.515   2.569  10.001  0.3768  0.6928  0.6312
  999MOL0     H31803   5.054   2.631  10.128  2.4638 -0.3890 -1.2687
  999MOL0     H31804   4.816   2.715  10.195  0.2295 -0.7271 -0.4665
  999MOL0     H31805   4.639   2.854  10.197 -0.5210 -0.1376 -0.1227
  999MOL0     H31806   4.528   2.747  10.110 -2.1647  1.3398 -0.9672
  999MOL0     H31807   4.426   2.943   9.987  0.4929 -0.0273 -1.2279
  999MOL0     H31808   4.524   3.055  10.086 -2.2078  0.2556 -1.0671
  999MOL0     H31809   4.326   3.062  10.173 -1.0278 -0.3586 -0.1313
  999MOL0     H31810   4.395   2.953  10.295 -3.2736  1.2338  0.9185
  999MOL0     H31811   4.248   2.822  10.055 -0.6825 -0.1704 -0.2813
  999MOL0     H31812   4.283   2.758  10.205  2.6725  0.8058 -1.7248
  999MOL0     H31813   4.088   2.984  10.129 -3.2014 -2.0491 -1.4797
  999MOL0     H31814   4.112   2.938  10.303  1.7557  1.5274 -1.3784
  999MOL0     H31815   3.997   2.728  10.265 -0.7713 -1.5623 -0.4465
  999MOL0     H31816   4.001   2.749  10.084 -1.2068  1.2280 -0.9396
  999MOL0     H31817   3.831   2.948  10.254  0.4200  2.3981 -2.3171
  999MOL0     H31818   3.850   2.948  10.095 -2.6882  0.7329  1.2441
  999MOL0     H31819   3.770   2.761  10.024  0.9654  2.7317 -0.3162
  999MOL0     H31820   3.645   2.834  10.121 -0.8065 -1.9646 -3.5227
  999MOL0     H31821   3.771   2.480  10.080 -0.5003  0.9336 -0.3174
  999MOL0     H31822   3.701   2.261  10.252 -0.0994 -0.5883 -1.0161
  999MOL0     H31823   3.723   2.288  10.423  0.7453 -4.9646 -0.4671
  999MOL0     H31824   3.961   2.294  10.230 -0.9316 -0.8182 -1.5108
  999MOL0     H31825   3.905   2.150  10.319 -1.2287 -0.0040  1.1112
  999MOL0     H31826   3.928   2.321  10.545 -0.2893 -0.2587 -1.1215
  999MOL0     H31827   4.045   2.211  10.481 -2.0792  0.0242 -0.1482
  999MOL0     H31828   4.141   2.438  10.541  0.1900 -0.1518 -0.2201
  999MOL0     H31829   4.018   2.507  10.430  1.5462  1.5416  0.0755
  999MOL0     H31830   4.337   2.468  10.182 -1.2780  0.4279  1.2177
  999MOL0     H31831   4.588   2.477  10.226  1.6336  0.4110  2.1851
  999MOL0     H31832   4.953   2.553  10.359 -0.5156 -0.7753 -2.7928
  999MOL0     H31833   5.191   2.544  10.392 -3.2579  1.6987 -1.0562
  999MOL0     H31834   5.431   2.496  10.357  1.9125  0.6701 -0.0677
  999MOL0     H31835   5.398   2.407  10.201 -0.3841 -1.5207  0.4959
  999MOL0     H31836   5.629   2.380  10.225 -2.6737  0.9284 -1.2663
  999MOL0     H31837   5.571   2.238  10.303 -3.5787 -0.2729 -2.1014
  999MOL0     H31838   5.591   2.342  10.525 -2.8367  0.6779 -1.6650
  999MOL0     H31839   5.632   2.498  10.457 -1.0836  0.4527  1.4244
  999MOL0     H31840   5.797   2.243  10.460  1.3751 -0.6473  1.2217
  999MOL0     H31841   5.837   2.385  10.358 -2.1691  0.2440 -0.4261
  999MOL0     H31842   5.817   2.407  10.660  0.6960  0.4299 -0.1846
  999MOL0     H31843   5.864   2.525  10.538 -0.0484  0.6229  2.9048
  999MOL0     H31844   6.064   2.424  10.641  3.6403 -0.9358 -1.7422
  999MOL0     H31845   6.047   2.381  10.465  0.3772 -2.2053 -0.1275
  999MOL0     H31846   5.934   2.177  10.669  0.8828  0.4501  1.1053
  999MOL0     H31847   6.064   2.163  10.552  1.0925  1.8458 -0.8211
  999MOL0     H31848   6.086   2.291  10.831  0.5366 -0.1248 -0.3015
  999MOL0     H31849   6.213   2.242  10.727 -0.1226  0.4442 -6.2131
  999MOL0     H31850   5.185   2.123  10.333  2.3046  1.8975 -5.5273
  999MOL0     H31851   4.941   2.132  10.282 -3.5012  1.2656 -2.0511
  999MOL0     H31852   4.532   2.215  10.551  1.7908  1.4041 -0.4198
  999MOL0     H31853   4.284   2.247  10.544 -0.3580  1.9573  0.4031
  999MOL0     H31854   4.807   2.875   9.798  1.3084  0.9942  0.0636
  999MOL0     H31855   5.017   2.816   9.750 -2.8549  4.3258 -1.4536
  999MOL0     H31856   5.334   2.660   9.735 -1.2915 -0.7282  1.6519
  999MOL0     H31857   5.536   2.568   9.624  1.0080 -0.5015 -0.2933
  999MOL0     H31858   5.765   2.308   9.841 -1.2250 -2.8583 -2.0382
  999MOL0     H31859   5.891   2.430   9.824 -0.6491  1.5169 -1.1575
  999MOL0     H31860   5.825   2.217   9.623  0.7600 -0.8357 -0.5162
  999MOL0     H31861   5.914   2.371   9.587  0.8027  0.3203  0.2897
  999MOL0     H31862   5.995   2.142   9.767  2.3208 -0.7202  0.4440
  999MOL0     H31863   6.080   2.297   9.766  1.7540  1.3362 -2.9169
  999MOL0     H31864   6.021   2.111   9.536 -2.0398  2.0100  1.2852
  999MOL0     H31865   6.117   2.263   9.520  0.3233  0.5444  1.3945
  999MOL0     H31866   6.392   1.967   9.658 -2.0670 -1.8850  2.2752
  999MOL0     H31867   5.699   2.478  10.004 -2.5406 -0.7413  3.3922
  999MOL0     H31868   5.505   2.572  10.109  1.6367  0.7874  0.7651
 1000MOL0     O31869   4.200   4.685   2.886 -0.2516  0.2124  0.3223
 1000MOL0     C31870   4.251   4.728   2.993 -0.7667  0.8474  0.2087
 1000MOL0     O31871   4.189   4.811   3.075 -0.2245 -0.3162 -0.0755
 1000MOL0     C31872   4.052   4.826   3.079 -0.5974  0.0911  0.3390
 1000MOL0     C31873   3.959   4.728   3.047 -0.9625  0.2785  0.2906
 1000MOL0     C31874   3.821   4.742   3.048  0.7036 -0.4254  0.0494
 1000MOL0     C31875   3.768   4.852   3.116 -0.3188  0.0438  0.7189
 1000MOL0     O31876   3.632   4.860   3.127  0.0222 -0.7652 -0.1603
 1000MOL0     C31877   3.558   4.980   3.173 -0.1757  0.3690  0.1651
 1000MOL0     C31878   3.557   5.091   3.076  0.5219 -0.5358  0.9221
 1000MOL0     C31879   3.461   5.058   2.960  0.1538  0.4279 -0.4064
 1000MOL0     C31880   3.460   5.177   2.853 -0.2500 -1.0535 -0.4920
 1000MOL0     C31881   3.357   5.172   2.739  1.0443  0.1149 -0.5684
 1000MOL0     C31882   3.327   5.034   2.676 -0.2556 -0.9552 -0.2165
 1000MOL0     C31883   3.224   5.062   2.564 -0.2442  0.3368  0.1491
 1000MOL0     C31884   3.180   4.920   2.509  0.0882  0.3234  0.2073
 1000MOL0     N31885   3.268   4.869   2.397 -0.4868 -0.1062 -0.0229
 1000MOL0     C31886   3.405   4.843   2.405 -0.3326  1.1036  0.4139
 1000MOL0     C31887   3.431   4.783   2.282 -0.4661  0.0615  0.8523
 1000MOL0     C31888   3.559   4.706   2.267  0.4424 -0.4928  0.1451
 1000MOL0     C31889   3.676   4.796   2.223 -0.0737  0.3865 -0.0812
 1000MOL0     C31890   3.797   4.720   2.152  0.6789  0.2829  0.5551
 1000MOL0     C31891   3.891   4.664   2.256  0.4917  0.6813 -0.1102
 1000MOL0     O31892   3.978   4.573   2.190  0.1461  0.4771 -0.2298
 1000MOL0     C31893   4.103   4.545   2.247  0.8047  0.0027  0.4218
 1000MOL0     C31894   4.200   4.484   2.157 -0.7661  1.1247  0.6282
 1000MOL0     C31895   4.337   4.464   2.181 -0.5154 -0.1362  0.6488
 1000MOL0     C31896   4.386   4.501   2.313 -0.6036 -0.5519  0.5402
 1000MOL0     C31897   4.525   4.474   2.357  0.5176  0.0034 -0.7065
 1000MOL0     O31898   4.601   4.426   2.255  0.0815 -0.0787  0.0728
 1000MOL0     C31899   4.738   4.425   2.255 -0.1561  0.7145  0.6883
 1000MOL0     C31900   4.801   4.336   2.335  0.4973  0.5256 -0.2577
 1000MOL0     C31901   4.935   4.338   2.350 -0.1069  0.8016 -0.3757
 1000MOL0     C31902   5.018   4.424   2.275  0.1980  0.6610 -0.2157
 1000MOL0     O31903   5.154   4.444   2.295 -0.6803  0.0335 -0.5477
 1000MOL0     C31904   5.236   4.334   2.268 -0.1490 -0.0446  0.4482
 1000MOL0     C31905   5.374   4.387   2.248 -1.1372 -0.4089 -0.5269
 1000MOL0     C31906   5.386   4.476   2.129  0.0279 -0.2507  0.2262
 1000MOL0     C31907   5.367   4.418   1.986 -0.4866 -0.4086 -0.7392
 1000MOL0     C31908   5.393   4.528   1.870  0.9529 -0.0469  1.4537
 1000MOL0     C31909   5.303   4.654   1.877  0.3403 -0.5049 -0.0233
 1000MOL0     C31910   5.150   4.631   1.854 -0.3496 -0.3695  0.3809
 1000MOL0     C31911   5.074   4.762   1.823 -0.2016 -0.6671  0.0523
 1000MOL0    Cl31912   5.084   4.804   1.651  0.0804 -0.7535  0.1952
 1000MOL0     C31913   4.952   4.499   2.177 -0.6076  0.0340  0.4434
 1000MOL0     C31914   4.814   4.499   2.158  0.1170  0.7591 -0.6849
 1000MOL0     O31915   4.566   4.501   2.470  0.3763  0.2167 -0.8442
 1000MOL0     C31916   4.289   4.564   2.401  0.0353  0.5676 -0.1345
 1000MOL0     C31917   4.153   4.585   2.367 -0.0395 -0.6885  0.1900
 1000MOL0     N31918   3.319   4.770   2.206  0.1219 -0.1351 -0.1610
 1000MOL0     N31919   3.226   4.819   2.272  0.2088  0.0475  0.3182
 1000MOL0     C31920   3.860   4.954   3.169 -0.4205 -0.8997 -0.6080
 1000MOL0     C31921   4.001   4.930   3.151 -0.9588 -1.1508  0.2714
 1000MOL0     C31922   4.394   4.709   3.012 -0.2896  0.2372 -0.0935
 1000MOL0     C31923   4.468   4.664   2.901 -0.5200 -0.7854  0.9180
 1000MOL0     C31924   4.604   4.665   2.905 -0.1041  0.6638  0.5078
 1000MOL0     C31925   4.679   4.703   3.014 -0.3652 -0.4745 -0.2827
 1000MOL0     O31926   4.814   4.729   3.012  0.4383 -0.2037  0.3188
 1000MOL0     C31927   4.886   4.705   2.893 -1.2837  0.3436 -0.2985
 1000MOL0     C31928   5.022   4.767   2.921  0.0044 -0.8670  0.1963
 1000MOL0     C31929   5.087   4.726   3.048  0.0975 -0.1807  0.0445
 1000MOL0     C31930   5.236   4.785   3.043 -0.0887  0.7070 -0.4848
 1000MOL0     C31931   5.318   4.713   3.137  0.1107 -0.1332  0.5024
 1000MOL0     C31932   5.394   4.677   3.223 -0.5657 -0.8603 -0.0334
 1000MOL0     C31933   4.607   4.743   3.124  0.9032  0.2050  0.1232
 1000MOL0     C31934   4.467   4.748   3.129  0.4797  0.8944 -0.4059
 1000MOL0     H31935   3.999   4.631   3.018 -2.4353  0.1615 -1.5365
 1000MOL0     H31936   3.755   4.671   2.999  0.0800  0.8491 -1.0089
 1000MOL0     H31937   3.606   5.025   3.260  1.1769 -0.7674  0.0371
 1000MOL0     H31938   3.456   4.951   3.199  0.0404  0.9146  1.7111
 1000MOL0     H31939   3.660   5.100   3.040 -0.9033 -0.0731 -3.7695
 1000MOL0     H31940   3.524   5.179   3.130  0.2054 -1.6465  2.6122
 1000MOL0     H31941   3.367   5.038   3.013 -1.0110  0.0358 -2.5140
 1000MOL0     H31942   3.479   4.962   2.910 -1.8705 -0.8005  1.0514
 1000MOL0     H31943   3.439   5.274   2.900 -0.1386 -1.0239 -0.5022
 1000MOL0     H31944   3.559   5.180   2.806 -0.7717 -1.8073 -1.6808
 1000MOL0     H31945   3.387   5.244   2.662  1.7998 -0.8462 -1.2036
 1000MOL0     H31946   3.259   5.199   2.779  1.7120 -0.5633  1.6359
 1000MOL0     H31947   3.298   4.953   2.743  3.4718 -2.5944 -0.3282
 1000MOL0     H31948   3.421   5.002   2.630  0.0977 -0.3100  0.0347
 1000MOL0     H31949   3.139   5.108   2.615 -0.0536 -0.4161  1.1633
 1000MOL0     H31950   3.260   5.127   2.483 -2.3576  2.4836  0.8244
 1000MOL0     H31951   3.079   4.937   2.471  0.2256  0.9427  0.1181
 1000MOL0     H31952   3.170   4.850   2.593  1.0336 -0.1794 -0.0946
 1000MOL0     H31953   3.472   4.849   2.490  1.6240 -0.6149 -0.9244
 1000MOL0     H31954   3.556   4.632   2.186  3.4275  0.5363 -1.0224
 1000MOL0     H31955   3.591   4.656   2.359  0.7260 -0.7836 -0.1109
 1000MOL0     H31956   3.697   4.855   2.312 -2.1746  0.9578  0.0861
 1000MOL0     H31957   3.639   4.867   2.148 -0.4246  1.6974  1.2742
 1000MOL0     H31958   3.761   4.651   2.075  1.0648 -1.9530  2.2787
 1000MOL0     H31959   3.855   4.801   2.107  0.0488 -0.3976 -1.6125
 1000MOL0     H31960   3.838   4.605   2.332  1.5607  0.3374  0.3904
 1000MOL0     H31961   3.950   4.745   2.299 -3.0547  2.2558  2.1756
 1000MOL0     H31962   4.174   4.456   2.055 -0.2203 -0.0588  0.7938
 1000MOL0     H31963   4.410   4.427   2.109 -0.3117  1.0807  0.1993
 1000MOL0     H31964   4.747   4.274   2.406 -2.2649  1.4745 -1.3857
 1000MOL0     H31965   4.979   4.268   2.420 -2.0515  1.5745  1.7428
 1000MOL0     H31966   5.201   4.296   2.171 -0.3020  1.0025  0.0734
 1000MOL0     H31967   5.237   4.258   2.346  0.0246 -0.7175 -0.1979
 1000MOL0     H31968   5.434   4.296   2.236 -4.6495 -2.8468 -1.1832
 1000MOL0     H31969   5.410   4.444   2.335 -1.0703  0.9918 -1.4477
 1000MOL0     H31970   5.493   4.498   2.132  0.5816 -2.3403 -1.3986
 1000MOL0     H31971   5.336   4.573   2.133  0.9412  0.7354 -5.2160
 1000MOL0     H31972   5.446   4.346   1.965 -1.5503 -1.5477 -0.9917
 1000MOL0     H31973   5.277   4.358   1.970 -0.6540 -0.1396 -0.8348
 1000MOL0     H31974   5.371   4.474   1.777  0.3694  2.5574 -0.0457
 1000MOL0     H31975   5.497   4.558   1.882  0.6642  1.9721 -0.4193
 1000MOL0     H31976   5.332   4.724   1.799 -3.2221  1.5676  0.3179
 1000MOL0     H31977   5.301   4.712   1.970 -0.1855  1.4931 -1.2338
 1000MOL0     H31978   5.138   4.575   1.760 -1.2293  1.8282 -0.8878
 1000MOL0     H31979   5.105   4.575   1.937  0.0856  0.2312  1.0298
 1000MOL0     H31980   5.112   4.847   1.880 -1.6962 -0.6246  1.0378
 1000MOL0     H31981   4.967   4.753   1.842 -0.1320  0.2323  0.9679
 1000MOL0     H31982   5.021   4.549   2.109  2.8924 -2.6536  1.6865
 1000MOL0     H31983   4.768   4.569   2.089 -0.3495 -0.3292 -1.5228
 1000MOL0     H31984   4.325   4.608   2.494 -0.6855  0.8780  0.0012
 1000MOL0     H31985   4.103   4.651   2.438 -1.1852 -1.2316 -0.0989
 1000MOL0     H31986   3.811   5.047   3.194 -0.9319 -1.5872  1.1047
 1000MOL0     H31987   4.071   5.009   3.178 -1.5330 -1.2175  2.0991
 1000MOL0     H31988   4.422   4.648   2.804 -0.0073 -0.6189  0.6394
 1000MOL0     H31989   4.647   4.633   2.810 -5.8236  2.4998 -3.1924
 1000MOL0     H31990   4.836   4.755   2.809  0.4101  1.2650 -0.8064
 1000MOL0     H31991   4.892   4.597   2.875 -0.8719  0.4093 -0.5576
 1000MOL0     H31992   5.080   4.743   2.831  0.1030 -1.8334  0.5029
 1000MOL0     H31993   5.001   4.874   2.920  2.1007 -0.3358  2.9419
 1000MOL0     H31994   5.079   4.618   3.054  1.2231 -0.3448 -0.9095
 1000MOL0     H31995   5.033   4.772   3.131 -2.8028 -4.1784  0.6543
 1000MOL0     H31996   5.280   4.772   2.943 -0.1078 -1.5355 -0.2610
 1000MOL0     H31997   5.228   4.892   3.065 -1.8830  1.0528 -2.4489
 1000MOL0     H31998   5.463   4.637   3.294  0.1965  0.7532  0.1854
 1000MOL0     H31999   4.670   4.765   3.210 -0.1896  0.8021  0.7874
 1000MOL0     H32000   4.426   4.788   3.222  1.8519 -0.2564  0.7504
 1001MOL0     O32001   9.210   7.755  10.645  0.3065  1.1294 -0.2720
 1001MOL0     C32002   9.316   7.779  10.591 -0.5038 -0.1461 -1.4598
 1001MOL0     O32003   9.342   7.768  10.454 -0.2897  0.3271  1.3917
 1001MOL0     C32004   9.239   7.793  10.365 -0.0253 -0.4129  0.6509
 1001MOL0     C32005   9.130   7.872  10.389 -0.4418 -0.6022 -0.8076
 1001MOL0     C32006   9.050   7.900  10.278  0.0171 -0.0922  0.6827
 1001MOL0     C32007   9.075   7.852  10.143  0.5950  0.1547 -0.5472
 1001MOL0     O32008   8.990   7.857  10.030 -0.4644 -0.0894  0.4511
 1001MOL0     C32009   8.887   7.955  10.016  0.0319 -0.0214 -0.0859
 1001MOL0     C32010   8.783   7.874   9.930 -0.1218 -0.7319 -0.0643
 1001MOL0     C32011   8.671   7.941   9.861  0.1067  0.6069  0.8148
 1001MOL0     C32012   8.568   7.988   9.965  0.3453  0.4254  0.8044
 1001MOL0     C32013   8.445   8.028   9.877  0.1012  0.3948  0.1088
 1001MOL0     C32014   8.337   7.923   9.862  0.1052 -0.5192 -0.0416
 1001MOL0     C32015   8.212   7.987   9.794 -0.6302 -0.0671 -0.3086
 1001MOL0     C32016   8.145   8.119   9.855  0.2442  0.0537  0.0087
 1001MOL0     N32017   8.030   8.153   9.762  0.0063 -0.1787 -0.2615
 1001MOL0     C32018   7.929   8.074   9.718  0.1852 -0.2670  0.7131
 1001MOL0     C32019   7.852   8.152   9.635  0.5675  0.2281 -0.3719
 1001MOL0     C32020   7.740   8.114   9.548  0.2095 -0.4042 -0.2726
 1001MOL0     C32021   7.671   8.233   9.493 -0.2134  0.0519 -0.0515
 1001MOL0     C32022   7.565   8.197   9.387  0.6264  0.4375 -0.2680
 1001MOL0     C32023   7.434   8.177   9.454 -0.1486  0.7163  0.0765
 1001MOL0     O32024   7.324   8.159   9.365 -0.3007  0.5121  0.6056
 1001MOL0     C32025   7.217   8.083   9.399 -0.5767  0.6899 -0.1529
 1001MOL0     C32026   7.149   8.025   9.299 -0.2614  0.3116  0.3036
 1001MOL0     C32027   7.032   7.945   9.328  0.3377 -0.1570 -0.5722
 1001MOL0     C32028   6.968   7.945   9.453 -0.4241  0.3582  0.4382
 1001MOL0     C32029   6.848   7.863   9.484 -0.3004  0.4499  0.5788
 1001MOL0     O32030   6.795   7.890   9.604 -0.4122 -0.5006  0.0434
 1001MOL0     C32031   6.673   7.846   9.650  0.6867  0.0527 -0.4951
 1001MOL0     C32032   6.657   7.841   9.787 -0.1775  0.0778 -0.8726
 1001MOL0     C32033   6.527   7.838   9.841  0.0883 -0.4273 -0.0414
 1001MOL0     C32034   6.414   7.836   9.755 -0.7275  0.4087 -0.0049
 1001MOL0     O32035   6.290   7.820   9.809  0.1061  0.4624 -1.0764
 1001MOL0     C32036   6.178   7.834   9.722  0.1603  0.0655  0.5633
 1001MOL0     C32037   6.055   7.858   9.809  0.5195 -0.8476  0.1319
 1001MOL0     C32038   5.987   7.747   9.885  0.5316  0.4459  0.6576
 1001MOL0     C32039   5.857   7.799   9.949  0.3589  0.1214  0.2335
 1001MOL0     C32040   5.876   7.883  10.073  0.1775 -0.8597 -0.6753
 1001MOL0     C32041   5.749   7.898  10.157 -0.8328 -0.2752 -0.4862
 1001MOL0     C32042   5.702   7.773  10.239 -0.6274 -0.1528 -0.4235
 1001MOL0     C32043   5.566   7.797  10.301  0.5375 -0.7353  0.6073
 1001MOL0    Cl32044   5.446   7.875  10.182  0.1479 -0.5479 -0.3625
 1001MOL0     C32045   6.435   7.824   9.619 -0.2957 -0.2313 -0.2941
 1001MOL0     C32046   6.561   7.832   9.566 -0.7550 -0.3546  0.0100
 1001MOL0     O32047   6.812   7.775   9.403 -0.0643 -0.3578 -0.7669
 1001MOL0     C32048   7.043   8.003   9.554 -0.5611  0.0936 -0.0233
 1001MOL0     C32049   7.166   8.063   9.527 -0.2382 -0.0868  0.3610
 1001MOL0     N32050   7.915   8.277   9.642 -0.4688 -0.1925 -0.2717
 1001MOL0     N32051   8.017   8.284   9.723  0.3676  0.5478  0.0664
 1001MOL0     C32052   9.191   7.783  10.127  0.1225  0.3443  0.3398
 1001MOL0     C32053   9.273   7.754  10.232 -0.8312  0.7382 -0.5716
 1001MOL0     C32054   9.442   7.794  10.683  0.3582  0.4908 -0.6047
 1001MOL0     C32055   9.411   7.832  10.814 -0.2072 -0.2083  0.0624
 1001MOL0     C32056   9.510   7.831  10.910  0.0528  0.7556  0.1800
 1001MOL0     C32057   9.646   7.817  10.865  0.1306 -0.8891  0.2122
 1001MOL0     O32058   9.764   7.840  10.937  0.2798 -0.0253 -0.0875
 1001MOL0     C32059   9.764   7.832  11.079  0.3989  0.1174  0.0677
 1001MOL0     C32060   9.817   7.698  11.132 -0.6380  0.3592 -0.0894
 1001MOL0     C32061   9.876   7.713  11.282  0.6494 -0.2717 -0.4815
 1001MOL0     C32062   9.990   7.614  11.323 -0.6534  0.0482 -0.1774
 1001MOL0     C32063  10.108   7.615  11.239  0.8659 -0.0729 -0.0920
 1001MOL0     C32064  10.216   7.613  11.181  0.2042 -0.5176 -0.2383
 1001MOL0     C32065   9.676   7.790  10.730  0.5357 -0.7716  0.3874
 1001MOL0     C32066   9.568   7.777  10.638 -0.8038 -0.5102  0.5163
 1001MOL0     H32067   9.106   7.921  10.482  0.8671  1.4811 -1.4824
 1001MOL0     H32068   8.962   7.959  10.301 -0.0286 -0.9432  2.9905
 1001MOL0     H32069   8.939   8.032   9.958 -1.9689  0.0443 -1.9094
 1001MOL0     H32070   8.840   7.998  10.105  2.9433  2.2690  0.5015
 1001MOL0     H32071   8.731   7.794   9.984 -2.1230 -0.9643 -2.1766
 1001MOL0     H32072   8.852   7.829   9.859  0.6577  0.9020 -0.3895
 1001MOL0     H32073   8.625   7.864   9.798  0.0511 -1.1669  2.8881
 1001MOL0     H32074   8.717   8.024   9.808  1.9632  0.0838  1.5532
 1001MOL0     H32075   8.534   7.904  10.026 -0.2985 -1.7107 -2.2811
 1001MOL0     H32076   8.601   8.077  10.020 -3.4231  1.4792  1.6350
 1001MOL0     H32077   8.470   8.053   9.773 -1.3205 -1.1511 -0.6715
 1001MOL0     H32078   8.390   8.108   9.927 -2.2893 -0.8861 -0.3136
 1001MOL0     H32079   8.315   7.877   9.959 -3.0590  0.9974  0.0876
 1001MOL0     H32080   8.379   7.844   9.799  0.9551 -2.4002  2.7383
 1001MOL0     H32081   8.233   8.014   9.690 -2.0952  2.6927  0.0139
 1001MOL0     H32082   8.135   7.910   9.784 -3.2121  2.4480 -1.1826
 1001MOL0     H32083   8.213   8.205   9.858  2.6820 -1.7764  0.3976
 1001MOL0     H32084   8.110   8.104   9.957  0.6940 -0.4176  0.0956
 1001MOL0     H32085   7.912   7.968   9.735  2.1848 -1.0122 -1.4125
 1001MOL0     H32086   7.665   8.059   9.605 -0.9923  1.1349 -0.3044
 1001MOL0     H32087   7.778   8.044   9.473  0.5760 -1.4839  0.8922
 1001MOL0     H32088   7.747   8.285   9.434 -2.5546 -0.5418 -3.8941
 1001MOL0     H32089   7.631   8.297   9.573 -1.8899 -0.6952 -0.2572
 1001MOL0     H32090   7.549   8.279   9.317 -0.9115  1.1470  0.8665
 1001MOL0     H32091   7.591   8.105   9.333 -3.6348 -1.1186 -0.0649
 1001MOL0     H32092   7.416   8.274   9.502  0.3228  1.3923 -1.0615
 1001MOL0     H32093   7.436   8.085   9.513 -3.2755  0.0544 -0.6903
 1001MOL0     H32094   7.172   8.036   9.193  0.8111  0.0097  0.4881
 1001MOL0     H32095   6.988   7.903   9.239  1.7734  2.1246 -2.4673
 1001MOL0     H32096   6.748   7.845   9.846 -0.4233 -0.6495 -0.4205
 1001MOL0     H32097   6.513   7.846   9.949 -0.3463  3.9975 -0.2512
 1001MOL0     H32098   6.168   7.744   9.661  0.6048 -0.8107  1.7447
 1001MOL0     H32099   6.193   7.921   9.657  0.1615 -0.5762 -0.3038
 1001MOL0     H32100   5.981   7.903   9.742  3.4276  0.0920 -2.6459
 1001MOL0     H32101   6.084   7.930   9.886 -1.6971 -0.1494  0.4109
 1001MOL0     H32102   6.059   7.707   9.956  1.1268 -0.6263 -0.5170
 1001MOL0     H32103   5.960   7.677   9.805  1.6274 -0.4112  1.0183
 1001MOL0     H32104   5.808   7.870   9.883  1.0507 -0.6755 -1.1754
 1001MOL0     H32105   5.792   7.714   9.972 -0.0935  0.5537  0.5744
 1001MOL0     H32106   5.915   7.981  10.047  2.7424 -1.8626 -0.9589
 1001MOL0     H32107   5.959   7.846  10.135  0.5837  2.2208  0.8068
 1001MOL0     H32108   5.673   7.939  10.091 -0.0181  1.1191 -0.5831
 1001MOL0     H32109   5.775   7.975  10.230  0.9391  1.7292 -3.0627
 1001MOL0     H32110   5.709   7.682  10.178 -4.7201 -0.7400 -0.2953
 1001MOL0     H32111   5.777   7.757  10.317 -1.3913 -0.0094  0.3549
 1001MOL0     H32112   5.566   7.865  10.386 -2.2611  0.9611 -0.5902
 1001MOL0     H32113   5.533   7.700  10.337  1.9568 -1.6135 -0.3496
 1001MOL0     H32114   6.350   7.815   9.553 -2.0524  0.4377  1.7813
 1001MOL0     H32115   6.567   7.835   9.458  4.0339 -2.8373 -0.0681
 1001MOL0     H32116   7.013   7.984   9.656  1.0114  0.5531  0.5413
 1001MOL0     H32117   7.218   8.101   9.615 -0.1534 -1.6332  1.0133
 1001MOL0     H32118   9.227   7.736  10.036  0.5259 -0.0443  0.6952
 1001MOL0     H32119   9.364   7.703  10.203 -1.2808  0.4840 -1.5546
 1001MOL0     H32120   9.311   7.852  10.852 -0.0050  0.6651  0.1516
 1001MOL0     H32121   9.487   7.864  11.010  0.4394  0.5114  0.3541
 1001MOL0     H32122   9.662   7.839  11.116  0.1007 -2.2701 -0.1234
 1001MOL0     H32123   9.828   7.912  11.118  0.6258  0.5055 -1.0526
 1001MOL0     H32124   9.750   7.612  11.126 -1.9197  1.3850 -0.9787
 1001MOL0     H32125   9.905   7.664  11.076 -1.5925 -1.6743 -0.4424
 1001MOL0     H32126   9.796   7.706  11.355  1.2002 -1.0730  0.0606
 1001MOL0     H32127   9.920   7.813  11.291 -0.2914  0.0641  0.5460
 1001MOL0     H32128  10.013   7.635  11.428 -2.3698  2.2879 -0.1658
 1001MOL0     H32129   9.944   7.516  11.305  0.0960 -0.7110  1.7883
 1001MOL0     H32130  10.319   7.615  11.151  0.4703 -1.2659  0.5854
 1001MOL0     H32131   9.779   7.794  10.695  0.2736 -1.9339 -0.5808
 1001MOL0     H32132   9.588   7.762  10.533  0.7856  2.4705  0.2790
 1002MOL0     O32133   1.341   7.643   3.895  0.1813 -0.1497 -0.4003
 1002MOL0     C32134   1.399   7.537   3.885  0.3814  0.5104 -0.1805
 1002MOL0     O32135   1.533   7.509   3.880 -0.5366  0.1472  0.3956
 1002MOL0     C32136   1.632   7.609   3.876  0.0729  0.2818 -0.3663
 1002MOL0     C32137   1.628   7.740   3.941  0.2602  0.3527 -1.0779
 1002MOL0     C32138   1.740   7.823   3.947  0.0192 -0.7060  0.1574
 1002MOL0     C32139   1.862   7.783   3.890 -0.7603 -0.6066  0.0896
 1002MOL0     O32140   1.979   7.865   3.891  0.3645 -0.2093 -1.0873
 1002MOL0     C32141   2.006   7.939   4.015  0.4394  0.1078  0.2091
 1002MOL0     C32142   2.100   7.870   4.115 -0.2352 -0.1039  0.0903
 1002MOL0     C32143   2.241   7.848   4.052 -0.5562  0.6004 -0.4841
 1002MOL0     C32144   2.335   7.782   4.151  0.7548 -0.5114 -0.1962
 1002MOL0     C32145   2.472   7.750   4.100  0.4888  0.0275  0.3392
 1002MOL0     C32146   2.562   7.873   4.104 -0.3433 -0.5064  0.2192
 1002MOL0     C32147   2.717   7.849   4.064 -0.1278  0.2437  0.4929
 1002MOL0     C32148   2.788   7.752   4.161  0.7631 -0.6949  0.1479
 1002MOL0     N32149   2.918   7.719   4.116 -0.3035 -0.2027  1.2007
 1002MOL0     C32150   2.955   7.692   3.987 -0.2163  0.1641 -0.4709
 1002MOL0     C32151   3.093   7.707   3.984 -0.0716 -0.0199 -0.5039
 1002MOL0     C32152   3.176   7.695   3.856  0.2113 -0.3606  0.1559
 1002MOL0     C32153   3.177   7.828   3.778  0.0706  0.4309  0.9932
 1002MOL0     C32154   3.162   7.823   3.626  0.5934  0.6846  0.5803
 1002MOL0     C32155   3.023   7.762   3.576  0.0335  0.4076 -0.2544
 1002MOL0     O32156   2.914   7.830   3.654  0.5620  1.1075  1.0433
 1002MOL0     C32157   2.786   7.772   3.646 -0.4949  0.5159 -0.4380
 1002MOL0     C32158   2.691   7.837   3.711 -1.0830 -0.1004 -0.0973
 1002MOL0     C32159   2.559   7.801   3.718 -0.0065 -0.9332 -0.1788
 1002MOL0     C32160   2.513   7.674   3.667 -0.0451 -0.0899  1.1662
 1002MOL0     C32161   2.375   7.628   3.661  0.3430  0.4568 -0.4357
 1002MOL0     O32162   2.341   7.524   3.575 -0.1215  0.3248 -0.1059
 1002MOL0     C32163   2.206   7.494   3.563 -0.3841 -0.9040  0.4546
 1002MOL0     C32164   2.117   7.601   3.520  0.0919  0.2387 -0.1807
 1002MOL0     C32165   1.986   7.568   3.477 -0.2386  0.4549 -0.4319
 1002MOL0     C32166   1.944   7.427   3.485 -0.4724 -0.6147 -0.8911
 1002MOL0     O32167   1.822   7.388   3.431 -0.2069  0.4196  0.3068
 1002MOL0     C32168   1.707   7.476   3.435 -0.2820 -0.2576 -1.0026
 1002MOL0     C32169   1.586   7.392   3.497  0.2468  0.0043 -0.7486
 1002MOL0     C32170   1.448   7.445   3.448 -0.5068 -0.4960 -0.3483
 1002MOL0     C32171   1.322   7.369   3.506  0.1084  0.9718  0.3381
 1002MOL0     C32172   1.197   7.379   3.409 -0.2996 -0.1933  0.2062
 1002MOL0     C32173   1.076   7.321   3.485 -0.8273  0.3153  0.3721
 1002MOL0     C32174   0.954   7.335   3.395 -0.2688  0.5725 -0.7670
 1002MOL0     C32175   0.840   7.251   3.459  0.2617  0.2334 -0.0163
 1002MOL0    Cl32176   0.677   7.333   3.410  0.3001 -0.2467  0.4454
 1002MOL0     C32177   2.033   7.329   3.524  0.0929  0.4771 -0.3090
 1002MOL0     C32178   2.164   7.359   3.562  0.0871  0.0206  0.5764
 1002MOL0     O32179   2.294   7.698   3.724 -0.2741  0.2323  0.8201
 1002MOL0     C32180   2.614   7.595   3.610 -0.8608 -0.5246  0.8301
 1002MOL0     C32181   2.753   7.649   3.604  0.6433  0.4679  0.9713
 1002MOL0     N32182   3.133   7.744   4.114  0.0074  0.1297 -0.5356
 1002MOL0     N32183   3.028   7.741   4.186  0.6843 -0.6766 -0.1403
 1002MOL0     C32184   1.866   7.653   3.837  0.0579 -0.5887  0.3296
 1002MOL0     C32185   1.755   7.574   3.824  0.0046  0.5483 -1.2225
 1002MOL0     C32186   1.305   7.421   3.889 -0.3776 -0.2648  0.2620
 1002MOL0     C32187   1.352   7.286   3.887 -0.4152 -0.0063 -0.2858
 1002MOL0     C32188   1.286   7.165   3.866 -0.4065 -0.4946  0.4244
 1002MOL0     C32189   1.145   7.180   3.861  0.7668  0.2197 -0.0592
 1002MOL0     O32190   1.052   7.077   3.852  0.0425 -0.2013 -0.5129
 1002MOL0     C32191   1.098   6.947   3.838 -0.9612  0.7551 -0.1936
 1002MOL0     C32192   1.141   6.915   3.691 -0.0601  0.6902 -0.4331
 1002MOL0     C32193   1.018   6.898   3.590  0.4302  0.0390  0.0873
 1002MOL0     C32194   1.072   6.890   3.447 -0.0308 -0.8862  0.4826
 1002MOL0     C32195   0.956   6.859   3.359  1.1770  0.7546 -0.1203
 1002MOL0     C32196   0.853   6.842   3.295 -0.5688 -0.0860  0.1267
 1002MOL0     C32197   1.082   7.313   3.882 -1.1248 -0.1176 -0.0960
 1002MOL0     C32198   1.163   7.431   3.887  0.3950  0.6711 -0.2021
 1002MOL0     H32199   1.538   7.780   3.988  0.8193 -0.4783  0.8112
 1002MOL0     H32200   1.710   7.914   3.998 -1.7809 -2.2429  2.0236
 1002MOL0     H32201   1.914   7.953   4.073  2.0210  0.1634  2.8336
 1002MOL0     H32202   2.048   8.036   3.987  1.0298  0.1653  1.2612
 1002MOL0     H32203   2.055   7.776   4.149  0.2268 -0.5431 -0.5090
 1002MOL0     H32204   2.119   7.936   4.200  1.2783 -2.0445  1.3463
 1002MOL0     H32205   2.293   7.943   4.037  2.7463 -1.0389 -0.4857
 1002MOL0     H32206   2.241   7.788   3.961 -0.0503 -1.8016  1.0074
 1002MOL0     H32207   2.340   7.849   4.238 -0.2877 -2.3059  1.3280
 1002MOL0     H32208   2.271   7.698   4.179  0.5930 -1.0388 -2.0727
 1002MOL0     H32209   2.463   7.716   3.997 -1.5388  1.3537  0.0190
 1002MOL0     H32210   2.521   7.675   4.163  1.6862  0.1334 -0.4392
 1002MOL0     H32211   2.568   7.910   4.206  0.7660  2.2486 -0.7284
 1002MOL0     H32212   2.526   7.957   4.042 -1.3938 -2.0094 -1.3012
 1002MOL0     H32213   2.724   7.798   3.967 -1.2678  0.9574  0.0108
 1002MOL0     H32214   2.773   7.940   4.038 -1.1442  0.5508 -0.7302
 1002MOL0     H32215   2.733   7.657   4.166 -1.5003  0.4633 -0.9676
 1002MOL0     H32216   2.802   7.796   4.260  3.7601  0.9139 -0.8807
 1002MOL0     H32217   2.888   7.665   3.906 -1.0171  2.1366 -0.5394
 1002MOL0     H32218   3.147   7.612   3.792  2.6780 -0.9998 -0.2300
 1002MOL0     H32219   3.280   7.670   3.879  0.7602  2.2141  0.8063
 1002MOL0     H32220   3.276   7.867   3.804  1.5440 -2.8708  0.8368
 1002MOL0     H32221   3.095   7.890   3.815 -0.2178  0.2513  0.6508
 1002MOL0     H32222   3.169   7.920   3.575  2.7270  0.0204 -0.5210
 1002MOL0     H32223   3.249   7.770   3.587  0.1954  0.4842 -0.0591
 1002MOL0     H32224   3.027   7.655   3.596 -0.5246  0.4337  0.0109
 1002MOL0     H32225   3.012   7.781   3.469 -4.0983 -1.3858 -0.3218
 1002MOL0     H32226   2.707   7.938   3.747 -0.5874  0.0844 -0.8106
 1002MOL0     H32227   2.488   7.864   3.770 -0.6713 -1.1078 -0.8592
 1002MOL0     H32228   2.145   7.706   3.523 -1.9925  0.8819 -0.9294
 1002MOL0     H32229   1.913   7.644   3.452 -1.6506 -0.1711  1.5110
 1002MOL0     H32230   1.691   7.493   3.328  1.8695 -0.1009 -1.3574
 1002MOL0     H32231   1.727   7.563   3.498  0.6285 -0.3827 -1.1049
 1002MOL0     H32232   1.588   7.397   3.606 -0.4414  0.6043 -0.7600
 1002MOL0     H32233   1.605   7.288   3.469 -1.7538 -1.3875  2.5061
 1002MOL0     H32234   1.451   7.442   3.338  1.2275 -1.0399 -0.3143
 1002MOL0     H32235   1.437   7.551   3.471  1.6079 -0.5252  1.0344
 1002MOL0     H32236   1.330   7.263   3.534 -0.8952  1.2257  1.7259
 1002MOL0     H32237   1.308   7.414   3.605  1.0632 -1.0011  1.4299
 1002MOL0     H32238   1.221   7.314   3.324 -0.1565 -0.6691  0.6106
 1002MOL0     H32239   1.184   7.480   3.369 -1.9927 -0.6978 -0.6002
 1002MOL0     H32240   1.059   7.374   3.578  0.9689  1.1744  0.2564
 1002MOL0     H32241   1.097   7.215   3.503 -0.0791 -0.4075 -3.6515
 1002MOL0     H32242   0.913   7.436   3.390 -1.7865  0.0448  0.3062
 1002MOL0     H32243   0.984   7.306   3.294 -0.8747  0.5213 -0.9351
 1002MOL0     H32244   0.843   7.245   3.568 -1.6834  1.3626  0.1714
 1002MOL0     H32245   0.843   7.149   3.420 -1.5753 -0.9052  2.5277
 1002MOL0     H32246   1.998   7.226   3.522  2.5049 -0.3974 -1.6356
 1002MOL0     H32247   2.234   7.280   3.585  0.3449  0.1090  0.1274
 1002MOL0     H32248   2.589   7.495   3.574 -1.6207  0.1101 -0.4389
 1002MOL0     H32249   2.826   7.583   3.559 -0.8385 -2.2326  2.2903
 1002MOL0     H32250   1.961   7.616   3.801 -0.4952 -1.5305 -0.1849
 1002MOL0     H32251   1.767   7.471   3.791  3.3813 -0.2667  1.8438
 1002MOL0     H32252   1.459   7.268   3.887 -0.4013 -0.1591 -2.1649
 1002MOL0     H32253   1.354   7.082   3.850  1.1828  0.7992  0.2841
 1002MOL0     H32254   1.010   6.885   3.853  0.8211 -2.6050 -2.1208
 1002MOL0     H32255   1.177   6.915   3.907 -1.0599 -0.0249 -0.4296
 1002MOL0     H32256   1.200   7.004   3.666  2.3926 -0.2819  1.4991
 1002MOL0     H32257   1.204   6.827   3.704 -0.4068  0.2055 -1.7968
 1002MOL0     H32258   0.955   6.986   3.600 -0.6972 -0.8591  1.3197
 1002MOL0     H32259   0.950   6.816   3.616 -1.5100  0.6238 -2.6918
 1002MOL0     H32260   1.118   6.984   3.413 -0.1102 -2.2753 -4.0929
 1002MOL0     H32261   1.153   6.817   3.434  0.6620  0.1958 -1.8783
 1002MOL0     H32262   0.762   6.808   3.251 -1.6497 -0.0346  2.1887
 1002MOL0     H32263   0.976   7.325   3.897 -0.8429  1.9953  0.6001
 1002MOL0     H32264   1.102   7.519   3.906 -1.8043 -1.0158  0.9967
 1003MOL0     O32265   0.722   6.514   1.455  0.2729  0.0440 -0.5938
 1003MOL0     C32266   0.778   6.405   1.433  0.1192 -0.3019  0.0246
 1003MOL0     O32267   0.710   6.282   1.413 -0.2524 -0.7584 -0.1210
 1003MOL0     C32268   0.575   6.278   1.446  0.6645 -0.9153 -0.4756
 1003MOL0     C32269   0.482   6.363   1.383  0.1954 -0.0773  0.4015
 1003MOL0     C32270   0.346   6.359   1.406 -0.2945 -1.1324 -0.8040
 1003MOL0     C32271   0.294   6.270   1.500 -0.9025 -0.0104  0.4963
 1003MOL0     O32272   0.167   6.277   1.554  0.4142  0.2889 -0.0404
 1003MOL0     C32273   0.083   6.392   1.536 -0.8094  0.1702  0.1125
 1003MOL0     C32274  -0.042   6.380   1.631 -0.8259 -1.4007  1.2103
 1003MOL0     C32275  -0.135   6.262   1.584 -0.5339 -0.2606 -0.0790
 1003MOL0     C32276  -0.270   6.273   1.661  0.1491 -0.3489 -0.1494
 1003MOL0     C32277  -0.356   6.143   1.641  0.3393 -0.4277 -0.1636
 1003MOL0     C32278  -0.496   6.148   1.708  0.1334  0.2437 -0.6202
 1003MOL0     C32279  -0.565   6.280   1.656  0.0466 -0.6744 -0.8422
 1003MOL0     C32280  -0.716   6.284   1.699  0.3025  0.6144 -0.8263
 1003MOL0     N32281  -0.786   6.389   1.630  0.4804 -1.1277  0.2810
 1003MOL0     C32282  -0.897   6.366   1.543 -0.1052 -0.3737  0.0677
 1003MOL0     C32283  -0.930   6.493   1.510 -0.1625 -0.8446 -0.2277
 1003MOL0     C32284  -1.045   6.516   1.423 -0.6131 -0.2962  1.0912
 1003MOL0     C32285  -1.177   6.494   1.506 -0.0309 -0.0591  0.3913
 1003MOL0     C32286  -1.194   6.605   1.608 -1.2237  0.9470  0.4251
 1003MOL0     C32287  -1.335   6.636   1.660 -0.0339  0.1989 -0.6164
 1003MOL0     O32288  -1.405   6.691   1.550  0.2950  0.2255  0.8485
 1003MOL0     C32289  -1.534   6.734   1.568 -0.1273 -0.7829 -1.1218
 1003MOL0     C32290  -1.612   6.775   1.461  0.3348 -0.0659 -0.0020
 1003MOL0     C32291  -1.741   6.819   1.480  0.1371  1.0451  0.4611
 1003MOL0     C32292  -1.802   6.814   1.605 -0.2037  0.6349 -1.2834
 1003MOL0     C32293  -1.935   6.877   1.625  0.7459 -0.5825  0.1003
 1003MOL0     O32294  -1.998   6.851   1.744 -0.8819  0.0491 -0.1379
 1003MOL0     C32295  -2.130   6.886   1.774  0.1955 -1.2334 -0.4432
 1003MOL0     C32296  -2.219   6.961   1.695 -0.1229 -0.2471  0.5211
 1003MOL0     C32297  -2.353   6.973   1.731 -0.2152  0.6526 -0.8539
 1003MOL0     C32298  -2.398   6.916   1.853 -0.3203  0.5887 -0.7247
 1003MOL0     O32299  -2.521   6.939   1.892  0.5209 -0.5654 -0.2024
 1003MOL0     C32300  -2.615   6.835   1.854 -0.8763 -0.7499  0.0027
 1003MOL0     C32301  -2.639   6.840   1.698  0.3308  0.8723 -0.3201
 1003MOL0     C32302  -2.756   6.748   1.652  0.9719  0.3820 -0.5966
 1003MOL0     C32303  -2.719   6.589   1.664  0.0028  0.1215  0.2989
 1003MOL0     C32304  -2.815   6.506   1.579  0.0496  1.0048  0.0250
 1003MOL0     C32305  -2.937   6.461   1.665 -0.3689 -0.1643  0.0963
 1003MOL0     C32306  -3.050   6.419   1.579  0.8699  0.5559 -0.0186
 1003MOL0     C32307  -3.130   6.303   1.637  0.2899  0.7150 -0.3294
 1003MOL0    Cl32308  -3.216   6.233   1.502  0.0831 -0.0984 -0.1905
 1003MOL0     C32309  -2.305   6.850   1.935 -0.2873 -0.5405  0.0468
 1003MOL0     C32310  -2.171   6.835   1.892  0.3636  0.6226  0.4877
 1003MOL0     O32311  -1.972   6.965   1.539 -0.1513 -0.2884 -0.0419
 1003MOL0     C32312  -1.725   6.769   1.716  0.1002  0.3389 -0.1689
 1003MOL0     C32313  -1.595   6.729   1.692  0.0268  1.3446  0.4779
 1003MOL0     N32314  -0.846   6.586   1.559 -0.3459  0.2085 -0.9652
 1003MOL0     N32315  -0.755   6.521   1.627 -0.0909 -0.4473 -0.3996
 1003MOL0     C32316   0.389   6.198   1.574 -0.0003  0.4742 -0.0827
 1003MOL0     C32317   0.528   6.201   1.544  0.3967 -0.6503 -0.2001
 1003MOL0     C32318   0.920   6.403   1.406  0.8688 -0.6180 -0.4402
 1003MOL0     C32319   0.998   6.520   1.396  0.7323  0.3752 -0.6177
 1003MOL0     C32320   1.135   6.501   1.367  0.4455 -0.3280 -0.0617
 1003MOL0     C32321   1.196   6.370   1.345  0.4690 -0.9268  0.2062
 1003MOL0     O32322   1.333   6.361   1.307  0.7241 -0.4716  0.0126
 1003MOL0     C32323   1.422   6.469   1.325 -0.5296  0.7912 -0.0501
 1003MOL0     C32324   1.564   6.415   1.332 -0.4174  0.5050 -0.1048
 1003MOL0     C32325   1.666   6.529   1.312 -0.4009  0.5773  0.1335
 1003MOL0     C32326   1.662   6.584   1.168  0.0725  0.3570  0.5919
 1003MOL0     C32327   1.760   6.690   1.156  0.6011 -0.9351  0.9528
 1003MOL0     C32328   1.837   6.784   1.159 -0.1686 -0.6158  0.0001
 1003MOL0     C32329   1.113   6.265   1.362  0.4611 -0.0017  0.0134
 1003MOL0     C32330   0.976   6.274   1.381  1.1562  0.3761 -0.3138
 1003MOL0     H32331   0.526   6.435   1.316  1.5301 -0.0655  1.2600
 1003MOL0     H32332   0.291   6.434   1.350  2.1061  0.1539 -1.6152
 1003MOL0     H32333   0.046   6.397   1.433 -1.6830 -0.4209  0.3913
 1003MOL0     H32334   0.136   6.485   1.557 -0.9844  0.6123 -1.3384
 1003MOL0     H32335  -0.094   6.475   1.647  0.3514 -0.6484  0.6294
 1003MOL0     H32336   0.001   6.357   1.729 -2.5487  0.4455  2.4758
 1003MOL0     H32337  -0.088   6.168   1.614  0.2017  0.0251 -0.3146
 1003MOL0     H32338  -0.141   6.277   1.476  2.4560 -1.7930 -0.5562
 1003MOL0     H32339  -0.251   6.274   1.769  2.0125 -0.9713 -0.4320
 1003MOL0     H32340  -0.319   6.370   1.654  0.9795  0.1270  0.4503
 1003MOL0     H32341  -0.306   6.057   1.686  1.5335  1.4043  2.1930
 1003MOL0     H32342  -0.375   6.116   1.536 -3.1815 -3.0123  0.9174
 1003MOL0     H32343  -0.493   6.164   1.816 -1.6436  0.2258 -0.5402
 1003MOL0     H32344  -0.544   6.056   1.673  1.3478 -0.8309  0.4058
 1003MOL0     H32345  -0.518   6.363   1.710 -3.4666 -0.5605  2.4789
 1003MOL0     H32346  -0.542   6.301   1.552  0.2554 -0.3174 -0.7253
 1003MOL0     H32347  -0.729   6.293   1.807 -1.0869 -1.3019 -0.7780
 1003MOL0     H32348  -0.773   6.196   1.668 -0.2201  0.1254  1.3860
 1003MOL0     H32349  -0.941   6.273   1.508 -1.5204 -0.3031  1.5146
 1003MOL0     H32350  -1.037   6.446   1.340 -0.2815  1.3327 -0.2845
 1003MOL0     H32351  -1.045   6.612   1.371  1.3625 -1.0575 -0.4241
 1003MOL0     H32352  -1.159   6.400   1.560  4.5641  1.0829  1.3180
 1003MOL0     H32353  -1.262   6.489   1.438  0.3863  0.8381 -0.2162
 1003MOL0     H32354  -1.137   6.574   1.696  0.0933 -0.2488 -0.7878
 1003MOL0     H32355  -1.146   6.700   1.583  1.5222  0.3815  2.9590
 1003MOL0     H32356  -1.338   6.693   1.753 -0.6259 -1.4945  0.4661
 1003MOL0     H32357  -1.383   6.539   1.682  1.6107 -0.5420 -0.1456
 1003MOL0     H32358  -1.565   6.781   1.364 -0.8009  1.9755 -0.4839
 1003MOL0     H32359  -1.795   6.866   1.399 -3.4609 -1.9072  0.9121
 1003MOL0     H32360  -2.185   7.012   1.606  4.1271 -1.5687  1.1689
 1003MOL0     H32361  -2.418   7.039   1.676 -1.5186 -2.7749 -3.8638
 1003MOL0     H32362  -2.710   6.855   1.903 -1.1723  0.0716 -0.8782
 1003MOL0     H32363  -2.584   6.741   1.901  2.7374 -0.0918 -0.7168
 1003MOL0     H32364  -2.545   6.796   1.665  1.2810  0.1668  2.9740
 1003MOL0     H32365  -2.657   6.945   1.670  2.6798  1.4179 -0.0217
 1003MOL0     H32366  -2.796   6.764   1.551  0.7167  1.2560 -0.3652
 1003MOL0     H32367  -2.841   6.761   1.720  1.3230  0.3228 -0.1419
 1003MOL0     H32368  -2.618   6.561   1.633  0.7711  0.6396  2.2211
 1003MOL0     H32369  -2.720   6.539   1.761 -0.4137 -2.9453 -1.1555
 1003MOL0     H32370  -2.777   6.411   1.540 -1.0949  1.8075 -3.4219
 1003MOL0     H32371  -2.849   6.556   1.488 -3.2642  0.9713  1.1071
 1003MOL0     H32372  -2.975   6.542   1.728  0.3235  0.5964 -0.4378
 1003MOL0     H32373  -2.903   6.387   1.738 -0.6216  0.3673  0.7537
 1003MOL0     H32374  -3.127   6.496   1.570  0.3254  0.1142  0.7956
 1003MOL0     H32375  -3.014   6.400   1.478 -0.4943 -0.6263 -0.3134
 1003MOL0     H32376  -3.197   6.344   1.713  3.3074  1.0336  2.4075
 1003MOL0     H32377  -3.067   6.228   1.685 -0.0384 -0.4978 -1.7158
 1003MOL0     H32378  -2.340   6.824   2.035 -0.8827  2.0300  0.5997
 1003MOL0     H32379  -2.093   6.777   1.940 -0.3798 -2.3514 -1.6071
 1003MOL0     H32380  -1.763   6.785   1.817 -1.2562  0.3435 -0.6642
 1003MOL0     H32381  -1.550   6.716   1.791  1.4874  0.8312 -0.2165
 1003MOL0     H32382   0.363   6.136   1.659 -0.0911 -0.5484 -0.8369
 1003MOL0     H32383   0.595   6.132   1.595 -1.5786 -1.4374  1.4807
 1003MOL0     H32384   0.955   6.618   1.413  1.9420  0.9920 -0.9346
 1003MOL0     H32385   1.198   6.589   1.357  2.6693 -1.7196  0.9121
 1003MOL0     H32386   1.394   6.522   1.417  0.4056  0.9458  0.1601
 1003MOL0     H32387   1.409   6.533   1.238  2.1117 -0.1950 -1.2905
 1003MOL0     H32388   1.579   6.372   1.432  0.5398  2.1995  0.5208
 1003MOL0     H32389   1.585   6.340   1.255 -1.2401  1.7891 -1.6442
 1003MOL0     H32390   1.767   6.499   1.341  0.3069  0.2900 -2.4395
 1003MOL0     H32391   1.640   6.612   1.379  1.0671  1.5711 -0.4758
 1003MOL0     H32392   1.691   6.499   1.104 -1.5618  2.8422 -3.8395
 1003MOL0     H32393   1.571   6.633   1.133  0.3767  0.5879  0.1144
 1003MOL0     H32394   1.922   6.849   1.156 -0.4851 -0.1285  1.1923
 1003MOL0     H32395   1.153   6.164   1.354 -2.5316 -1.5792  2.6595
 1003MOL0     H32396   0.922   6.181   1.391  2.6638 -0.6677 -1.5484
 1004MOL0     O32397   1.872   0.916   0.596 -0.0088  0.0507  0.6537
 1004MOL0     C32398   1.902   0.962   0.491 -0.2602  1.0555  0.4018
 1004MOL0     O32399   1.873   1.086   0.442  0.1278 -1.0076  0.4743
 1004MOL0     C32400   1.806   1.181   0.511  0.6628 -0.3197 -0.7108
 1004MOL0     C32401   1.861   1.222   0.633  0.1851  0.2386  0.6688
 1004MOL0     C32402   1.791   1.312   0.712  0.8773 -0.7134  0.7172
 1004MOL0     C32403   1.675   1.380   0.661 -0.5343  0.5619  0.1538
 1004MOL0     O32404   1.615   1.473   0.739  0.2566  0.5139 -0.3017
 1004MOL0     C32405   1.477   1.452   0.770  0.4996  0.1845  0.0293
 1004MOL0     C32406   1.416   1.588   0.782 -0.0131 -0.0506 -0.1550
 1004MOL0     C32407   1.276   1.600   0.838  0.0597 -0.3368  0.5358
 1004MOL0     C32408   1.218   1.736   0.789 -0.1135  0.5288 -0.0972
 1004MOL0     C32409   1.089   1.768   0.869  0.3199  0.2683  0.5853
 1004MOL0     C32410   1.021   1.876   0.780  0.0681  0.5937  0.4332
 1004MOL0     C32411   0.877   1.899   0.821  0.4622  0.0558  0.1090
 1004MOL0     C32412   0.839   2.044   0.800  0.4729 -0.5305  0.7724
 1004MOL0     N32413   0.698   2.059   0.842  0.8018  0.4569  0.4589
 1004MOL0     C32414   0.601   1.997   0.768  0.3148 -0.2453 -0.8381
 1004MOL0     C32415   0.499   1.983   0.853  0.2327 -0.1926  0.0983
 1004MOL0     C32416   0.361   1.936   0.816  0.5428  0.3672 -0.4929
 1004MOL0     C32417   0.265   2.060   0.833  0.0643 -0.3628  0.6933
 1004MOL0     C32418   0.115   2.030   0.803 -0.5598 -0.5460  0.5140
 1004MOL0     C32419   0.045   1.949   0.910  0.2309  0.3075 -0.1531
 1004MOL0     O32420  -0.053   2.037   0.967  0.2600 -0.3121  0.3821
 1004MOL0     C32421  -0.186   2.028   0.942 -0.2648 -0.3061 -0.5612
 1004MOL0     C32422  -0.275   2.099   1.023  1.0104  0.8595  0.5118
 1004MOL0     C32423  -0.415   2.090   1.003 -0.7856  0.2749 -0.7515
 1004MOL0     C32424  -0.469   2.000   0.909  0.0050 -0.3786 -0.6780
 1004MOL0     C32425  -0.610   1.977   0.904 -0.2838  1.0882 -0.0253
 1004MOL0     O32426  -0.654   1.859   0.838 -0.7947 -0.6502  0.8415
 1004MOL0     C32427  -0.781   1.817   0.843 -0.3718 -0.2274 -0.5163
 1004MOL0     C32428  -0.812   1.725   0.750 -0.2388  0.3773 -0.2819
 1004MOL0     C32429  -0.947   1.680   0.735 -0.3150 -0.1283 -0.2710
 1004MOL0     C32430  -1.050   1.714   0.829  0.1614  0.6412 -0.2069
 1004MOL0     O32431  -1.179   1.671   0.814 -0.6867 -0.3830 -0.1263
 1004MOL0     C32432  -1.229   1.672   0.674  0.2309 -0.6517 -0.1890
 1004MOL0     C32433  -1.378   1.717   0.674  0.8810  0.8835 -0.0214
 1004MOL0     C32434  -1.464   1.625   0.765 -0.7023  1.0792 -0.2089
 1004MOL0     C32435  -1.617   1.639   0.746 -0.4650  0.7326 -0.1132
 1004MOL0     C32436  -1.697   1.562   0.851 -0.1903 -0.3652  0.2643
 1004MOL0     C32437  -1.848   1.577   0.819  0.0493 -0.3319  0.0444
 1004MOL0     C32438  -1.901   1.529   0.678 -0.5390  0.1819  0.4334
 1004MOL0     C32439  -2.047   1.482   0.682 -0.8812 -0.6534 -0.2047
 1004MOL0    Cl32440  -2.155   1.612   0.759 -0.1703 -0.3989 -0.0897
 1004MOL0     C32441  -1.019   1.801   0.933 -0.3337  0.1330  0.2404
 1004MOL0     C32442  -0.881   1.847   0.945 -0.6248 -0.5213 -0.4856
 1004MOL0     O32443  -0.694   2.056   0.959 -0.1985  0.8618 -0.1718
 1004MOL0     C32444  -0.379   1.948   0.810 -0.0982  0.2572 -0.4895
 1004MOL0     C32445  -0.240   1.955   0.833  0.4317 -0.9405  0.4539
 1004MOL0     N32446   0.535   2.041   0.976  0.1397 -0.2175  0.2492
 1004MOL0     N32447   0.658   2.086   0.972  0.8267  0.2330  0.5148
 1004MOL0     C32448   1.619   1.343   0.541 -0.7406  0.1312 -0.0259
 1004MOL0     C32449   1.690   1.242   0.468 -0.1694  0.4973  0.1195
 1004MOL0     C32450   1.982   0.867   0.408 -0.0602 -0.8615  0.4622
 1004MOL0     C32451   2.007   0.734   0.452  0.1636 -0.4393  0.1093
 1004MOL0     C32452   2.085   0.656   0.368 -0.9938  0.1944 -0.9572
 1004MOL0     C32453   2.135   0.703   0.248 -0.3617 -0.4829  0.2980
 1004MOL0     O32454   2.226   0.635   0.170 -0.1964 -0.2338  0.4284
 1004MOL0     C32455   2.246   0.493   0.170 -0.4384  0.3600  0.5471
 1004MOL0     C32456   2.402   0.468   0.173  0.0020 -0.4862  0.2277
 1004MOL0     C32457   2.479   0.527   0.057  0.1840  0.1804  0.8815
 1004MOL0     C32458   2.614   0.465   0.044 -1.4420 -0.7507  1.3139
 1004MOL0     C32459   2.695   0.522   0.154 -0.5733 -0.0737 -0.6500
 1004MOL0     C32460   2.761   0.571   0.245  0.0592 -0.9257 -0.5748
 1004MOL0     C32461   2.107   0.831   0.210  0.0160 -0.2030 -0.4000
 1004MOL0     C32462   2.024   0.914   0.290 -0.6567  0.0417  0.5340
 1004MOL0     H32463   1.952   1.172   0.668  0.6793  0.8076  0.2136
 1004MOL0     H32464   1.831   1.339   0.809  3.3489  6.3644 -1.7030
 1004MOL0     H32465   1.464   1.409   0.870 -0.6894  0.6561  0.0939
 1004MOL0     H32466   1.420   1.389   0.701  0.9055 -1.6192  1.2459
 1004MOL0     H32467   1.421   1.643   0.687  1.6914  1.0361  0.5235
 1004MOL0     H32468   1.476   1.643   0.854  0.3398  2.2258 -2.0507
 1004MOL0     H32469   1.273   1.623   0.944 -0.4996  0.2902  0.3841
 1004MOL0     H32470   1.219   1.514   0.801 -1.3201  1.0677 -0.7483
 1004MOL0     H32471   1.296   1.799   0.833 -0.7816  0.5243  1.1269
 1004MOL0     H32472   1.221   1.744   0.680  2.1610  0.6773 -0.0721
 1004MOL0     H32473   1.106   1.808   0.970  1.0487 -0.9789  0.9669
 1004MOL0     H32474   1.020   1.683   0.871  1.2290 -0.8568 -4.0259
 1004MOL0     H32475   1.024   1.852   0.673 -1.6280  0.9596  0.2701
 1004MOL0     H32476   1.082   1.965   0.796  0.7435 -0.1320  2.1675
 1004MOL0     H32477   0.812   1.831   0.764  0.7073 -1.6311  1.7612
 1004MOL0     H32478   0.869   1.867   0.925 -1.7259 -3.9388 -1.0455
 1004MOL0     H32479   0.855   2.082   0.699 -1.9534  3.0015  1.5372
 1004MOL0     H32480   0.889   2.111   0.871 -0.7554  0.3617  0.8265
 1004MOL0     H32481   0.607   1.962   0.665 -3.4522 -0.2274 -1.1766
 1004MOL0     H32482   0.336   1.856   0.886 -2.3921  2.7504  1.3879
 1004MOL0     H32483   0.356   1.896   0.714  1.1512  1.6357 -1.0409
 1004MOL0     H32484   0.296   2.131   0.757  3.2794  1.1735  3.1906
 1004MOL0     H32485   0.272   2.106   0.932 -0.3481  1.8690 -0.2595
 1004MOL0     H32486   0.068   2.127   0.782 -0.4665 -0.2647  1.5784
 1004MOL0     H32487   0.100   1.982   0.706 -0.0483  1.5685 -0.6745
 1004MOL0     H32488   0.115   1.915   0.987 -2.2945 -3.0580  0.8610
 1004MOL0     H32489   0.002   1.858   0.867 -2.2084  0.0207  2.6373
 1004MOL0     H32490  -0.230   2.168   1.093 -0.5729  2.0252  0.4418
 1004MOL0     H32491  -0.464   2.158   1.072  1.4859  0.8990  0.3336
 1004MOL0     H32492  -0.740   1.702   0.672 -0.6889  1.2576 -0.9738
 1004MOL0     H32493  -0.974   1.625   0.645  0.0427 -0.2281 -0.3152
 1004MOL0     H32494  -1.228   1.575   0.622 -1.1422 -0.0861 -1.3245
 1004MOL0     H32495  -1.178   1.739   0.605 -2.1696  1.0252 -0.4599
 1004MOL0     H32496  -1.417   1.710   0.572  1.0921  1.0442 -0.1119
 1004MOL0     H32497  -1.390   1.818   0.714 -1.1245  0.8096 -0.3405
 1004MOL0     H32498  -1.447   1.643   0.871  0.8095 -1.2042  0.0160
 1004MOL0     H32499  -1.427   1.523   0.749  0.2653  1.6915 -2.3215
 1004MOL0     H32500  -1.638   1.746   0.759 -2.3736  0.5436 -1.3918
 1004MOL0     H32501  -1.630   1.588   0.651 -1.2036  0.4659  0.1278
 1004MOL0     H32502  -1.670   1.613   0.944 -3.0565 -1.4529  1.7979
 1004MOL0     H32503  -1.662   1.459   0.859 -0.1402 -0.4688 -0.9872
 1004MOL0     H32504  -1.878   1.682   0.828  3.8103  0.9221  0.0686
 1004MOL0     H32505  -1.909   1.520   0.888 -2.4219  2.2359  0.1602
 1004MOL0     H32506  -1.894   1.599   0.594 -2.7334  1.6653  1.4201
 1004MOL0     H32507  -1.848   1.436   0.652 -2.6937 -1.3254  1.1960
 1004MOL0     H32508  -2.061   1.392   0.743  1.9877 -1.0068  0.0709
 1004MOL0     H32509  -2.084   1.460   0.582  0.2628  0.9238 -1.0166
 1004MOL0     H32510  -1.090   1.826   1.011  0.7587 -0.6557  1.5122
 1004MOL0     H32511  -0.849   1.908   1.029  0.0205 -0.6465 -0.6333
 1004MOL0     H32512  -0.406   1.885   0.726  0.0355  0.3931 -0.6361
 1004MOL0     H32513  -0.170   1.917   0.759 -0.7320  0.0399 -1.2213
 1004MOL0     H32514   1.530   1.389   0.498 -1.1397 -0.8435 -0.2664
 1004MOL0     H32515   1.664   1.204   0.370  2.9738  0.1435 -0.6747
 1004MOL0     H32516   1.967   0.695   0.545  3.5019  1.2242  2.4579
 1004MOL0     H32517   2.112   0.558   0.404 -0.4442  0.6868 -0.0161
 1004MOL0     H32518   2.185   0.451   0.089 -2.9608  1.4762  1.7719
 1004MOL0     H32519   2.212   0.445   0.262 -0.2738 -0.2703  0.2920
 1004MOL0     H32520   2.428   0.515   0.268 -2.1550  2.9908 -0.7289
 1004MOL0     H32521   2.426   0.362   0.190  0.9879 -0.4930 -1.0236
 1004MOL0     H32522   2.478   0.636   0.051 -2.8627  0.3127  2.0861
 1004MOL0     H32523   2.416   0.485  -0.021  1.1245  0.4851 -0.0602
 1004MOL0     H32524   2.614   0.356   0.051  2.2803 -1.0313 -0.5370
 1004MOL0     H32525   2.657   0.495  -0.053  0.3481  0.7133  2.4924
 1004MOL0     H32526   2.816   0.624   0.320 -1.8684 -1.5526  1.4046
 1004MOL0     H32527   2.160   0.871   0.124  0.9317  0.1627  0.3292
 1004MOL0     H32528   2.015   1.017   0.255 -0.9823 -0.5241 -1.1295
 1005MOL0     O32529   5.085   2.834  10.733 -0.0977  0.6243 -0.1421
 1005MOL0     C32530   5.099   2.718  10.686  0.4379  0.2514 -0.7439
 1005MOL0     O32531   5.001   2.636  10.662  0.3382  0.0438  0.6386
 1005MOL0     C32532   4.871   2.643  10.704  0.1633 -0.1335  0.6507
 1005MOL0     C32533   4.789   2.543  10.663  0.1349 -0.5958 -0.0772
 1005MOL0     C32534   4.658   2.533  10.700  0.0151  0.6979 -0.3038
 1005MOL0     C32535   4.598   2.623  10.780  0.3206  0.8650  0.1753
 1005MOL0     O32536   4.464   2.616  10.807  0.1958 -0.2751 -0.1136
 1005MOL0     C32537   4.409   2.697  10.915  1.0143 -0.0994  0.1949
 1005MOL0     C32538   4.264   2.648  10.960  1.4027 -0.1434 -0.2307
 1005MOL0     C32539   4.174   2.598  10.843 -0.0363  0.4163 -0.1724
 1005MOL0     C32540   4.033   2.566  10.891  0.6061 -0.6713 -0.5243
 1005MOL0     C32541   3.944   2.501  10.785  0.0592 -0.1724  0.1551
 1005MOL0     C32542   3.801   2.496  10.845 -0.4906 -0.3694 -0.0438
 1005MOL0     C32543   3.695   2.439  10.742 -0.2981  0.6919 -0.1002
 1005MOL0     C32544   3.567   2.389  10.815  0.2759 -0.5040  0.0788
 1005MOL0     N32545   3.461   2.352  10.723  0.2846 -0.0198  0.1835
 1005MOL0     C32546   3.339   2.311  10.766 -0.5660 -0.6546  0.0916
 1005MOL0     C32547   3.275   2.266  10.657  0.9224 -0.0522  0.4600
 1005MOL0     C32548   3.127   2.214  10.649 -0.0023 -0.6913  0.3155
 1005MOL0     C32549   3.047   2.298  10.555 -0.0354  0.2268 -0.0864
 1005MOL0     C32550   3.016   2.434  10.617  1.2420 -0.3414 -0.1024
 1005MOL0     C32551   2.961   2.524  10.510 -0.9205 -0.5340 -0.2588
 1005MOL0     O32552   2.892   2.623  10.592  0.6803 -0.1068 -0.5701
 1005MOL0     C32553   2.758   2.609  10.610  0.6263 -0.3497 -0.1027
 1005MOL0     C32554   2.669   2.590  10.504 -0.1428  0.7779  0.1504
 1005MOL0     C32555   2.532   2.590  10.527 -0.4611  0.0693 -0.9866
 1005MOL0     C32556   2.485   2.618  10.661 -0.0868 -1.0327  0.5817
 1005MOL0     C32557   2.342   2.625  10.687  0.9499 -0.4353 -0.6501
 1005MOL0     O32558   2.262   2.584  10.584 -0.0398 -0.1850 -0.5688
 1005MOL0     C32559   2.126   2.610  10.563 -0.2212  0.0246 -0.5210
 1005MOL0     C32560   2.043   2.682  10.645 -0.3043 -0.3561 -0.8885
 1005MOL0     C32561   1.906   2.701  10.621  0.1217 -0.1163 -0.3891
 1005MOL0     C32562   1.852   2.664  10.501 -0.0103  0.5336 -0.0078
 1005MOL0     O32563   1.719   2.699  10.477 -0.6828 -0.6293  0.2197
 1005MOL0     C32564   1.670   2.690  10.341 -0.3666 -0.6628 -0.5499
 1005MOL0     C32565   1.521   2.751  10.335 -0.4840 -0.6970  0.3522
 1005MOL0     C32566   1.503   2.837  10.218  0.1666  0.6549 -1.6116
 1005MOL0     C32567   1.356   2.867  10.192  0.1172 -0.1925 -0.5217
 1005MOL0     C32568   1.345   2.890  10.037 -0.6153  0.1866  0.0387
 1005MOL0     C32569   1.214   2.951  10.005  0.3653  0.1629  0.5863
 1005MOL0     C32570   1.176   2.913   9.856  0.5626  0.0385 -0.1275
 1005MOL0     C32571   1.112   3.017   9.784  0.4768 -1.3143  0.0820
 1005MOL0    Cl32572   0.965   3.073   9.874 -0.2273 -0.5869  0.1306
 1005MOL0     C32573   1.922   2.581  10.409 -0.6436 -0.3338 -0.3649
 1005MOL0     C32574   2.064   2.560  10.443  0.1375  0.5548  0.9251
 1005MOL0     O32575   2.300   2.662  10.792  0.8715  0.6830 -0.5193
 1005MOL0     C32576   2.578   2.644  10.758  0.2653 -0.4796  0.0618
 1005MOL0     C32577   2.715   2.647  10.732  0.0633  1.0157 -1.2632
 1005MOL0     N32578   3.362   2.282  10.552  0.4318  0.1153  0.7521
 1005MOL0     N32579   3.474   2.327  10.589  0.4202 -1.1440 -0.0124
 1005MOL0     C32580   4.675   2.731  10.823 -0.3881 -0.0926 -1.5484
 1005MOL0     C32581   4.806   2.743  10.776 -0.5069 -0.3764 -0.6194
 1005MOL0     C32582   5.237   2.665  10.695 -1.1299  0.3901  0.7579
 1005MOL0     C32583   5.353   2.744  10.727  0.1688 -0.8703  0.5334
 1005MOL0     C32584   5.468   2.688  10.761 -0.9287 -0.3520  0.2314
 1005MOL0     C32585   5.479   2.546  10.770 -1.0541 -0.2976 -0.7040
 1005MOL0     O32586   5.587   2.478  10.822 -0.0067  0.0198  0.1454
 1005MOL0     C32587   5.664   2.539  10.928  0.4122  0.2872 -0.3697
 1005MOL0     C32588   5.706   2.423  11.015  0.1699 -0.5000 -1.2444
 1005MOL0     C32589   5.691   2.444  11.167  0.4940  1.4176 -0.7230
 1005MOL0     C32590   5.810   2.502  11.245  0.4375 -0.4155 -0.6054
 1005MOL0     C32591   5.863   2.627  11.194  0.5288 -0.5364 -0.1584
 1005MOL0     C32592   5.900   2.731  11.143 -0.2963 -0.2104  0.6611
 1005MOL0     C32593   5.372   2.461  10.728 -0.8687 -0.4967  0.4444
 1005MOL0     C32594   5.252   2.524  10.691  0.1543 -0.2689 -0.8721
 1005MOL0     H32595   4.815   2.460  10.598 -0.1507 -1.5366  0.9770
 1005MOL0     H32596   4.598   2.447  10.673  2.4258 -1.2016  0.0591
 1005MOL0     H32597   4.394   2.796  10.872  1.0287 -0.5742 -0.9394
 1005MOL0     H32598   4.476   2.692  11.001 -0.4666 -1.9162  1.3117
 1005MOL0     H32599   4.200   2.730  10.994 -1.4242 -2.3654  0.1594
 1005MOL0     H32600   4.269   2.573  11.040  0.2343  0.5143  0.4926
 1005MOL0     H32601   4.220   2.504  10.812  0.6751 -1.1519  4.6873
 1005MOL0     H32602   4.173   2.658  10.752  1.1124 -1.2469 -1.3324
 1005MOL0     H32603   4.041   2.501  10.978  2.2713 -0.1420 -0.2595
 1005MOL0     H32604   3.981   2.660  10.914  1.3906 -0.3846  0.0796
 1005MOL0     H32605   3.981   2.405  10.749  1.1204  0.3502 -0.1694
 1005MOL0     H32606   3.933   2.563  10.696  1.1840  0.2262  0.2784
 1005MOL0     H32607   3.772   2.597  10.874  1.2736 -0.3975  2.0157
 1005MOL0     H32608   3.802   2.427  10.930 -1.0765 -1.1578 -0.6486
 1005MOL0     H32609   3.674   2.518  10.669  1.3694  0.5967 -0.7152
 1005MOL0     H32610   3.744   2.349  10.705  0.1852 -0.0897  2.2702
 1005MOL0     H32611   3.527   2.475  10.870 -1.5617  0.0551 -1.9806
 1005MOL0     H32612   3.586   2.317  10.896 -0.4821 -0.7696  0.0321
 1005MOL0     H32613   3.305   2.309  10.869 -0.1965 -0.6141  0.2150
 1005MOL0     H32614   3.099   2.216  10.755  2.7064 -0.0414  1.0928
 1005MOL0     H32615   3.128   2.110  10.614  0.4672 -0.7314  0.4347
 1005MOL0     H32616   2.950   2.248  10.544  0.2114 -0.8977  2.1589
 1005MOL0     H32617   3.094   2.315  10.457 -1.7633  0.1951 -0.9570
 1005MOL0     H32618   2.939   2.419  10.694  1.3556  6.6739  2.0817
 1005MOL0     H32619   3.103   2.479  10.666  1.7186 -0.4228 -0.8603
 1005MOL0     H32620   2.903   2.464  10.440 -0.2515 -2.7458  0.9812
 1005MOL0     H32621   3.045   2.566  10.453  0.7725 -5.5296 -1.9980
 1005MOL0     H32622   2.710   2.568  10.405  0.5772 -3.0003  1.0999
 1005MOL0     H32623   2.460   2.578  10.447 -2.5317 -0.3357  0.8602
 1005MOL0     H32624   2.083   2.727  10.736 -0.2812 -0.7597 -0.6941
 1005MOL0     H32625   1.846   2.756  10.692  0.1681 -1.4090  0.6766
 1005MOL0     H32626   1.672   2.586  10.309 -0.6804 -0.6356 -0.6638
 1005MOL0     H32627   1.735   2.755  10.282 -2.1279  0.9330 -0.8216
 1005MOL0     H32628   1.488   2.811  10.421  0.8661  1.1738 -0.3717
 1005MOL0     H32629   1.451   2.668  10.334  0.1542 -1.3229  2.1585
 1005MOL0     H32630   1.537   2.776  10.134 -2.0264 -2.3039 -0.5160
 1005MOL0     H32631   1.561   2.929  10.232  2.8742 -1.2743  0.9601
 1005MOL0     H32632   1.301   2.777  10.221  0.8819 -0.6789 -0.5387
 1005MOL0     H32633   1.324   2.949  10.257 -1.7023  0.5435 -2.2374
 1005MOL0     H32634   1.371   2.799   9.983  1.1773  1.6876 -1.7923
 1005MOL0     H32635   1.424   2.957  10.001 -2.7188  1.2574 -2.9025
 1005MOL0     H32636   1.212   3.059  10.025 -3.8908  0.2247  0.8105
 1005MOL0     H32637   1.138   2.907  10.071 -0.7383 -0.6778 -1.1773
 1005MOL0     H32638   1.263   2.893   9.793 -0.6289  0.9956 -2.1386
 1005MOL0     H32639   1.115   2.822   9.859 -1.6137  1.4496  1.0013
 1005MOL0     H32640   1.075   2.975   9.690 -4.2331 -1.0563  1.5255
 1005MOL0     H32641   1.187   3.092   9.758 -0.8436 -0.5622 -1.7145
 1005MOL0     H32642   1.876   2.531  10.325 -2.0913  1.5652 -0.7775
 1005MOL0     H32643   2.129   2.503  10.378  0.0405  1.3100  0.1556
 1005MOL0     H32644   2.543   2.674  10.856  3.0921 -2.4564  1.8480
 1005MOL0     H32645   2.781   2.673  10.814 -1.9955  1.1837  0.4202
 1005MOL0     H32646   4.634   2.815  10.878 -0.0714 -0.3118 -0.9829
 1005MOL0     H32647   4.862   2.829  10.809  0.5722 -1.4155  0.3713
 1005MOL0     H32648   5.345   2.851  10.713  2.5326 -0.5905  0.9770
 1005MOL0     H32649   5.552   2.753  10.784 -0.1169 -1.8015  1.5356
 1005MOL0     H32650   5.598   2.602  10.989  1.9242 -0.1044  1.7660
 1005MOL0     H32651   5.749   2.592  10.885  0.2510  0.0515 -0.9861
 1005MOL0     H32652   5.668   2.322  10.995  3.3126 -2.6848  2.4852
 1005MOL0     H32653   5.809   2.403  10.986  0.3044 -1.1489 -0.3481
 1005MOL0     H32654   5.663   2.347  11.209 -0.7119  1.0936 -2.1945
 1005MOL0     H32655   5.608   2.509  11.196 -1.3396 -1.3373  0.6458
 1005MOL0     H32656   5.766   2.526  11.342  0.1870 -0.2800 -0.7498
 1005MOL0     H32657   5.882   2.421  11.259 -0.6017 -1.1978  0.3850
 1005MOL0     H32658   5.928   2.822  11.095 -2.5859  1.4505  2.2996
 1005MOL0     H32659   5.390   2.354  10.735  0.7565 -0.3013 -0.1941
 1005MOL0     H32660   5.165   2.464  10.668 -0.4790  0.7486 -1.2133
 1006MOL0     O32661   9.848   4.609   2.702  0.2384  0.3598  0.1963
 1006MOL0     C32662   9.917   4.707   2.718  0.3509 -0.7416 -0.1668
 1006MOL0     O32663   9.885   4.824   2.777  0.1489 -0.6611 -0.4068
 1006MOL0     C32664   9.757   4.863   2.810  0.2501  1.1116 -0.1164
 1006MOL0     C32665   9.646   4.797   2.768  0.2494  0.1709  0.9917
 1006MOL0     C32666   9.518   4.853   2.807 -0.2134  0.8454 -0.2439
 1006MOL0     C32667   9.513   4.960   2.896  0.1040 -1.0132  0.3082
 1006MOL0     O32668   9.391   5.001   2.926 -0.1260  0.8484  0.6273
 1006MOL0     C32669   9.353   5.137   2.974  0.4571 -0.0414 -0.0807
 1006MOL0     C32670   9.208   5.186   2.921 -0.1742 -0.2468  0.0974
 1006MOL0     C32671   9.159   5.325   2.971  0.2718 -0.5971  1.0225
 1006MOL0     C32672   9.261   5.439   2.967  0.7155  1.0865  0.3290
 1006MOL0     C32673   9.201   5.572   3.020  0.1799  0.5668  0.4379
 1006MOL0     C32674   9.165   5.592   3.172  0.3833  0.1760  0.3728
 1006MOL0     C32675   9.114   5.732   3.205  0.4875  0.6738  0.1103
 1006MOL0     C32676   8.969   5.736   3.258 -0.3245 -0.0028 -0.5715
 1006MOL0     N32677   8.913   5.867   3.299  0.0160 -0.0203 -0.0091
 1006MOL0     C32678   8.989   5.986   3.319 -0.2703  0.3512  0.4778
 1006MOL0     C32679   8.896   6.085   3.324 -0.5188 -0.7749  0.2184
 1006MOL0     C32680   8.923   6.234   3.316  0.1558 -0.8492 -0.8991
 1006MOL0     C32681   8.984   6.274   3.448  0.4158 -0.9615 -0.3527
 1006MOL0     C32682   9.034   6.413   3.442  0.0552 -0.9768 -0.3534
 1006MOL0     C32683   9.125   6.434   3.570 -0.3040  0.4766  0.2270
 1006MOL0     O32684   9.255   6.361   3.569 -0.6254 -0.4818  0.4231
 1006MOL0     C32685   9.369   6.411   3.493 -0.1920  0.0048  0.4634
 1006MOL0     C32686   9.369   6.522   3.416  0.1963 -0.1027  0.4804
 1006MOL0     C32687   9.488   6.558   3.353  0.3979 -0.3525 -0.2777
 1006MOL0     C32688   9.601   6.495   3.391 -0.1145  0.1676  0.1688
 1006MOL0     C32689   9.734   6.538   3.338  1.1274 -0.3301 -0.4737
 1006MOL0     O32690   9.844   6.495   3.413  0.3326  0.2317  1.0556
 1006MOL0     C32691   9.965   6.521   3.363 -0.0046 -1.1681 -0.3178
 1006MOL0     C32692  10.034   6.632   3.392 -0.6399 -0.3092 -0.5904
 1006MOL0     C32693  10.161   6.653   3.336  0.1738 -0.1897 -0.5944
 1006MOL0     C32694  10.208   6.563   3.238 -0.4468 -0.7804 -0.8575
 1006MOL0     O32695  10.325   6.601   3.168  0.6718 -0.1039  0.5519
 1006MOL0     C32696  10.400   6.710   3.216 -0.2081  0.0201 -0.6624
 1006MOL0     C32697  10.535   6.730   3.140  1.1407  0.5707  0.2176
 1006MOL0     C32698  10.628   6.847   3.145 -0.9955  0.3591  0.2822
 1006MOL0     C32699  10.730   6.843   3.026  0.6421 -0.7380  0.2894
 1006MOL0     C32700  10.829   6.950   3.054 -0.3847 -0.1531 -0.4292
 1006MOL0     C32701  10.966   6.933   2.974 -0.7991 -0.1873  0.4201
 1006MOL0     C32702  11.028   7.061   2.905 -0.1364 -0.0464  0.1734
 1006MOL0     C32703  11.134   7.036   2.800 -0.8574  0.2461  0.5302
 1006MOL0    Cl32704  11.268   6.930   2.873 -0.0708  0.1343  0.1848
 1006MOL0     C32705  10.145   6.446   3.219 -0.2978  0.5176 -0.1849
 1006MOL0     C32706  10.019   6.427   3.277  0.6470 -0.6715  1.0066
 1006MOL0     O32707   9.733   6.614   3.246  0.5584 -0.2870  0.8024
 1006MOL0     C32708   9.607   6.375   3.469  0.5614 -0.2213 -1.1129
 1006MOL0     C32709   9.486   6.344   3.527 -0.2516  0.8134  0.0974
 1006MOL0     N32710   8.771   6.035   3.327 -0.4365  0.4865 -1.2157
 1006MOL0     N32711   8.781   5.901   3.319  0.5808 -0.7160 -0.2692
 1006MOL0     C32712   9.623   5.023   2.941 -0.5469 -0.5750 -0.1494
 1006MOL0     C32713   9.745   4.979   2.891 -0.8322 -0.5498  0.1415
 1006MOL0     C32714  10.069   4.702   2.695  0.5904 -0.4337 -0.0662
 1006MOL0     C32715  10.166   4.803   2.730 -0.3525 -0.0755  0.0063
 1006MOL0     C32716  10.294   4.795   2.679 -0.0194 -0.2060  0.1307
 1006MOL0     C32717  10.337   4.702   2.596 -0.3483 -0.2544 -1.4335
 1006MOL0     O32718  10.464   4.701   2.533 -0.6056  0.8579 -0.0642
 1006MOL0     C32719  10.580   4.782   2.579  0.8661  0.4129  0.1507
 1006MOL0     C32720  10.686   4.746   2.472 -0.5915 -0.7331  0.5594
 1006MOL0     C32721  10.824   4.807   2.502  0.1498  0.0739 -0.0101
 1006MOL0     C32722  10.916   4.810   2.389 -0.1797  0.5701 -0.8126
 1006MOL0     C32723  10.949   4.670   2.348 -0.3441 -0.5421 -1.0583
 1006MOL0     C32724  10.960   4.556   2.310  0.5755  0.1723  0.5871
 1006MOL0     C32725  10.248   4.604   2.562 -0.3570  0.1983 -0.0490
 1006MOL0     C32726  10.122   4.601   2.612  0.0775  0.2557 -0.2216
 1006MOL0     H32727   9.648   4.715   2.697  0.7086  1.0299 -0.0113
 1006MOL0     H32728   9.423   4.813   2.773  0.8243 -2.1341  0.0573
 1006MOL0     H32729   9.431   5.211   2.953  1.8401 -1.7575 -1.2817
 1006MOL0     H32730   9.343   5.127   3.083 -2.1660  2.4218  0.0083
 1006MOL0     H32731   9.135   5.117   2.964 -0.0819 -0.7236 -0.4937
 1006MOL0     H32732   9.213   5.185   2.811 -0.5911  0.6128  0.0620
 1006MOL0     H32733   9.134   5.316   3.077 -0.7752  0.8320  0.9189
 1006MOL0     H32734   9.076   5.358   2.909  2.2728 -0.5682 -1.8310
 1006MOL0     H32735   9.348   5.417   3.030  0.6426  1.6716  0.6446
 1006MOL0     H32736   9.292   5.444   2.862 -1.2009 -0.6576 -0.3759
 1006MOL0     H32737   9.109   5.593   2.966 -0.6787  0.8714  1.9493
 1006MOL0     H32738   9.283   5.640   2.992  0.7804  0.3720  1.6396
 1006MOL0     H32739   9.254   5.575   3.234 -0.6252  0.9680  2.1101
 1006MOL0     H32740   9.082   5.527   3.200 -0.7952  1.4958  0.0733
 1006MOL0     H32741   9.187   5.768   3.279  1.8718 -1.7007  0.0157
 1006MOL0     H32742   9.110   5.804   3.123  1.3584  1.7922  1.0018
 1006MOL0     H32743   8.964   5.665   3.340 -0.9028 -0.0510 -0.6434
 1006MOL0     H32744   8.908   5.691   3.179 -0.2437  2.8238 -2.3924
 1006MOL0     H32745   9.097   5.998   3.316 -0.1455 -0.7075  0.2480
 1006MOL0     H32746   8.833   6.294   3.302 -0.8479 -1.5850  1.7761
 1006MOL0     H32747   8.995   6.254   3.236  0.2220  0.0670 -0.6160
 1006MOL0     H32748   9.062   6.206   3.484  0.0374 -0.8847  0.6601
 1006MOL0     H32749   8.889   6.277   3.503 -0.7803 -0.4011 -2.3686
 1006MOL0     H32750   9.093   6.428   3.352 -0.1387 -0.5794 -0.4187
 1006MOL0     H32751   8.952   6.484   3.456  0.1997 -1.1537  1.6958
 1006MOL0     H32752   9.076   6.388   3.656  0.7279 -2.1699 -0.5059
 1006MOL0     H32753   9.131   6.543   3.582 -3.7548  0.8532 -0.4133
 1006MOL0     H32754   9.276   6.573   3.394  0.0198 -1.0019 -1.0015
 1006MOL0     H32755   9.494   6.649   3.293  0.7735  0.2859  0.7135
 1006MOL0     H32756   9.991   6.696   3.469 -3.1603  2.9770 -4.3297
 1006MOL0     H32757  10.210   6.746   3.365 -0.0288 -0.0473 -0.7018
 1006MOL0     H32758  10.420   6.689   3.322 -0.5862 -0.7163 -0.7358
 1006MOL0     H32759  10.349   6.807   3.211 -0.5606  0.0758  2.2082
 1006MOL0     H32760  10.509   6.719   3.035  0.0381  1.3685  0.3941
 1006MOL0     H32761  10.587   6.644   3.183  0.2074  1.0105  2.3872
 1006MOL0     H32762  10.685   6.851   3.239  0.9623  2.5037 -0.9094
 1006MOL0     H32763  10.571   6.940   3.144 -2.2350 -0.3771 -1.3505
 1006MOL0     H32764  10.776   6.746   3.005  1.7106  0.2595 -2.4567
 1006MOL0     H32765  10.679   6.872   2.934  1.1793 -1.6012 -0.2869
 1006MOL0     H32766  10.850   6.936   3.160 -0.8822 -1.7861 -0.5164
 1006MOL0     H32767  10.794   7.053   3.041  1.5689  0.5080 -0.8781
 1006MOL0     H32768  10.950   6.861   2.893 -2.7490  0.3845  0.2512
 1006MOL0     H32769  11.043   6.890   3.039  1.6576 -0.9915 -2.7892
 1006MOL0     H32770  10.948   7.120   2.859  0.3060  1.9186  1.7992
 1006MOL0     H32771  11.066   7.128   2.982 -1.0910  1.7159 -0.8033
 1006MOL0     H32772  11.185   7.113   2.741 -1.4345 -1.2209 -2.0655
 1006MOL0     H32773  11.085   6.976   2.723 -2.6614  1.8503  0.3362
 1006MOL0     H32774  10.187   6.378   3.146  1.4998  0.7211  0.6228
 1006MOL0     H32775   9.964   6.335   3.259  0.7149 -0.1158 -2.7885
 1006MOL0     H32776   9.697   6.321   3.497  1.1992  2.3858  2.5963
 1006MOL0     H32777   9.496   6.259   3.593 -1.2244  1.9955  1.8646
 1006MOL0     H32778   9.626   5.109   3.007 -3.3679 -0.7242  0.2934
 1006MOL0     H32779   9.835   5.033   2.918  0.3634 -2.2589 -0.2343
 1006MOL0     H32780  10.128   4.889   2.785 -1.3356  0.3142 -1.2488
 1006MOL0     H32781  10.350   4.886   2.699  1.9507 -1.1926 -0.6730
 1006MOL0     H32782  10.610   4.747   2.678 -1.1646 -3.5969 -0.4586
 1006MOL0     H32783  10.559   4.890   2.580  0.3099  0.3108 -0.1164
 1006MOL0     H32784  10.695   4.638   2.461  0.0373 -0.9352  2.5747
 1006MOL0     H32785  10.660   4.793   2.377 -0.5188 -3.6108 -0.9785
 1006MOL0     H32786  10.868   4.748   2.583  0.5450  1.4730  0.8419
 1006MOL0     H32787  10.811   4.910   2.537 -3.5268 -0.1299 -0.3620
 1006MOL0     H32788  10.864   4.862   2.309  0.7355  3.6913  0.4897
 1006MOL0     H32789  11.003   4.868   2.421 -2.2543  3.1756  0.4502
 1006MOL0     H32790  10.975   4.463   2.261 -0.2532 -0.4556  1.4737
 1006MOL0     H32791  10.272   4.527   2.488 -0.8110 -0.6655  0.6862
 1006MOL0     H32792  10.050   4.522   2.590  0.2375 -0.6456  2.1339
 1007MOL0     O32793  10.235  10.149   0.658  0.7122  0.3643 -0.8506
 1007MOL0     C32794  10.325  10.076   0.611  0.2039 -0.2339 -0.2452
 1007MOL0     O32795  10.325  10.030   0.488 -0.1492  0.2916  0.3784
 1007MOL0     C32796  10.232  10.073   0.396  0.0316 -0.1453  0.4068
 1007MOL0     C32797  10.095  10.099   0.425 -0.8566  0.9097 -0.7041
 1007MOL0     C32798  10.009  10.136   0.317 -0.8483 -0.8168 -0.3574
 1007MOL0     C32799  10.054  10.161   0.182 -0.6922 -0.1649 -0.5688
 1007MOL0     O32800   9.986  10.196   0.067 -0.8663 -0.9630 -0.4084
 1007MOL0     C32801   9.853  10.256   0.066  0.0065  0.0800 -0.0720
 1007MOL0     C32802   9.733  10.166   0.046 -0.3362  0.4709  0.5150
 1007MOL0     C32803   9.749  10.045  -0.055  0.1712  0.3849 -0.1103
 1007MOL0     C32804   9.619   9.971  -0.086 -0.8222  0.0597  0.3341
 1007MOL0     C32805   9.629   9.859  -0.191  0.3166  0.3078  0.2212
 1007MOL0     C32806   9.503   9.767  -0.174 -0.3150  0.4033  0.0973
 1007MOL0     C32807   9.502   9.652  -0.273 -0.2771 -0.0182  0.6225
 1007MOL0     C32808   9.383   9.559  -0.262  0.2267 -0.3586  0.5430
 1007MOL0     N32809   9.251   9.613  -0.254  1.0395 -0.1465 -0.3496
 1007MOL0     C32810   9.177   9.627  -0.137  0.0505  0.5502  0.8398
 1007MOL0     C32811   9.077   9.709  -0.159 -0.5703 -0.9198  0.2599
 1007MOL0     C32812   8.962   9.738  -0.065 -0.7697  0.3018 -0.2820
 1007MOL0     C32813   8.830   9.714  -0.129 -0.1228  0.2161  0.3396
 1007MOL0     C32814   8.712   9.712  -0.022 -0.0159 -0.4159  0.6571
 1007MOL0     C32815   8.580   9.649  -0.070 -0.2910  1.0904  0.1922
 1007MOL0     O32816   8.492   9.632   0.045 -0.1043 -0.2398  0.0021
 1007MOL0     C32817   8.368   9.587   0.018  0.5684  0.5945 -0.0687
 1007MOL0     C32818   8.292   9.579   0.134  0.6575 -0.1895  0.0144
 1007MOL0     C32819   8.155   9.557   0.128 -1.1586 -0.3894  0.5068
 1007MOL0     C32820   8.099   9.530  -0.001  0.1446  0.1384 -0.2308
 1007MOL0     C32821   7.959   9.499  -0.010 -0.5088 -0.4911  0.3659
 1007MOL0     O32822   7.904   9.484  -0.139  0.1544  1.0445  0.1801
 1007MOL0     C32823   7.768   9.460  -0.163  0.0150 -0.2431 -0.8385
 1007MOL0     C32824   7.728   9.446  -0.297  0.6458  0.2474 -0.4992
 1007MOL0     C32825   7.600   9.437  -0.333  0.9003  0.3393 -0.1653
 1007MOL0     C32826   7.492   9.434  -0.233 -0.1023  0.1696  0.3780
 1007MOL0     O32827   7.365   9.424  -0.268  0.5798  0.2040  0.0405
 1007MOL0     C32828   7.326   9.394  -0.407 -0.2745 -0.1098 -0.6254
 1007MOL0     C32829   7.183   9.330  -0.397 -0.9243 -0.1227 -0.1049
 1007MOL0     C32830   7.064   9.413  -0.343 -0.7949 -0.6235  0.0621
 1007MOL0     C32831   6.947   9.316  -0.332 -0.5798 -0.7937 -0.6966
 1007MOL0     C32832   6.821   9.387  -0.293 -0.3223  0.5528 -0.1319
 1007MOL0     C32833   6.709   9.294  -0.352  0.0672  0.5665 -0.3443
 1007MOL0     C32834   6.571   9.349  -0.336  0.1603  0.3220 -0.2489
 1007MOL0     C32835   6.462   9.279  -0.415 -0.0396 -0.2922  0.1384
 1007MOL0    Cl32836   6.292   9.327  -0.351 -0.6667 -0.0125 -0.4766
 1007MOL0     C32837   7.533   9.453  -0.100 -0.4318 -0.0520  0.1062
 1007MOL0     C32838   7.667   9.471  -0.067  0.7812 -0.4764  0.2001
 1007MOL0     O32839   7.903   9.485   0.093 -0.6574 -0.0036  0.2078
 1007MOL0     C32840   8.177   9.528  -0.118  0.0392  0.1537  0.4210
 1007MOL0     C32841   8.316   9.560  -0.110  0.9216  0.0322  0.2267
 1007MOL0     N32842   9.091   9.749  -0.294  0.8982  0.2866 -1.3104
 1007MOL0     N32843   9.196   9.696  -0.339 -0.4989  0.5634  0.3970
 1007MOL0     C32844  10.189  10.130   0.164 -0.1640 -0.3934  0.0636
 1007MOL0     C32845  10.276  10.091   0.263  0.1630  0.4663  0.4759
 1007MOL0     C32846  10.447  10.078   0.692  0.2093  0.2556 -0.4262
 1007MOL0     C32847  10.568  10.028   0.645 -0.4688 -0.8212 -0.1035
 1007MOL0     C32848  10.672  10.008   0.740 -0.3597 -0.5756  0.4003
 1007MOL0     C32849  10.661  10.056   0.869  0.7734  0.3879  0.0473
 1007MOL0     O32850  10.765  10.036   0.951  0.4803  0.4242 -0.5539
 1007MOL0     C32851  10.802  10.132   1.054  1.0104 -0.3526  0.2792
 1007MOL0     C32852  10.943  10.142   1.059 -0.6554  0.5938 -0.3528
 1007MOL0     C32853  11.001  10.260   1.150  0.2495  0.2202  0.3731
 1007MOL0     C32854  11.149  10.272   1.145  0.4148  1.0301  0.7130
 1007MOL0     C32855  11.199  10.331   1.269 -1.7938 -0.1378  0.3853
 1007MOL0     C32856  11.255  10.376   1.369  0.1161  0.1941  0.7387
 1007MOL0     C32857  10.537  10.105   0.915  0.9101 -0.4489 -0.3470
 1007MOL0     C32858  10.431  10.112   0.828 -0.0036 -0.6718 -0.1474
 1007MOL0     H32859  10.053  10.070   0.521  0.2055 -0.2482 -0.5687
 1007MOL0     H32860   9.904  10.154   0.337 -0.6993  2.1051 -1.7125
 1007MOL0     H32861   9.847  10.334  -0.011  0.8546  1.0793  0.8367
 1007MOL0     H32862   9.840  10.311   0.159 -0.6648  0.1120 -0.1834
 1007MOL0     H32863   9.640  10.217   0.021 -3.7888 -5.0054  0.4872
 1007MOL0     H32864   9.723  10.128   0.149  2.8153  0.2240  0.8128
 1007MOL0     H32865   9.822   9.973  -0.018 -1.0672 -0.9506 -0.1727
 1007MOL0     H32866   9.786  10.070  -0.155  0.7076 -2.7773 -0.7943
 1007MOL0     H32867   9.579   9.925   0.004 -0.2916 -0.2690  0.4066
 1007MOL0     H32868   9.542  10.035  -0.131  0.5228  0.5247 -1.4563
 1007MOL0     H32869   9.722   9.805  -0.173  0.5300  1.0947  1.7501
 1007MOL0     H32870   9.633   9.894  -0.294 -0.4213  2.2328  0.7824
 1007MOL0     H32871   9.422   9.838  -0.194  0.6397  1.0421 -1.6763
 1007MOL0     H32872   9.493   9.720  -0.075 -2.1170 -2.4025 -1.3009
 1007MOL0     H32873   9.501   9.691  -0.375  1.0767  0.7017  0.8597
 1007MOL0     H32874   9.596   9.600  -0.255  0.3730  1.7943  3.1331
 1007MOL0     H32875   9.397   9.492  -0.176 -1.9905 -2.6521 -0.7690
 1007MOL0     H32876   9.377   9.490  -0.347  2.2555  0.2665 -0.1639
 1007MOL0     H32877   9.217   9.585  -0.045  3.6878  0.5977 -0.5629
 1007MOL0     H32878   8.979   9.840  -0.029  3.4113  0.2878 -1.6383
 1007MOL0     H32879   8.968   9.671   0.021 -2.9392  2.0736  1.3585
 1007MOL0     H32880   8.837   9.613  -0.171 -0.9252  0.8077 -1.3088
 1007MOL0     H32881   8.814   9.785  -0.211 -3.3360 -2.7603 -1.9122
 1007MOL0     H32882   8.750   9.651   0.060  2.5510 -0.5893 -0.5408
 1007MOL0     H32883   8.702   9.816   0.011 -0.8556 -0.3143  0.1075
 1007MOL0     H32884   8.599   9.547  -0.104 -1.5052  0.3779  1.5258
 1007MOL0     H32885   8.538   9.697  -0.158  1.6667 -1.7968 -2.5435
 1007MOL0     H32886   8.343   9.593   0.228 -0.6692 -1.2395  0.9330
 1007MOL0     H32887   8.089   9.553   0.214  1.6245 -2.4740  2.7501
 1007MOL0     H32888   7.813   9.438  -0.364  1.0120  0.0590 -0.0254
 1007MOL0     H32889   7.573   9.433  -0.438 -2.0462  1.5235  0.4414
 1007MOL0     H32890   7.382   9.319  -0.464 -0.2279 -1.5923  1.2687
 1007MOL0     H32891   7.323   9.491  -0.457  0.5105  1.4242  2.1328
 1007MOL0     H32892   7.200   9.238  -0.340 -1.2604 -1.3230 -1.8334
 1007MOL0     H32893   7.150   9.282  -0.491 -0.9803 -2.2450  0.9270
 1007MOL0     H32894   7.050   9.501  -0.407 -1.1127  1.0639  2.3265
 1007MOL0     H32895   7.088   9.452  -0.244 -3.1588  0.7837  0.1633
 1007MOL0     H32896   6.924   9.287  -0.435  0.7975  0.8584 -1.5210
 1007MOL0     H32897   6.965   9.232  -0.264 -2.9406 -0.8287 -0.0173
 1007MOL0     H32898   6.809   9.488  -0.334 -0.9289 -0.5454 -2.8811
 1007MOL0     H32899   6.815   9.399  -0.184  1.7246  0.0174  0.1000
 1007MOL0     H32900   6.707   9.197  -0.303 -2.4012  0.4059 -0.6183
 1007MOL0     H32901   6.721   9.284  -0.460 -5.1980  0.0094 -1.1468
 1007MOL0     H32902   6.540   9.332  -0.232 -4.6160  1.4449 -1.2574
 1007MOL0     H32903   6.563   9.454  -0.366  2.3299 -0.0973 -2.6540
 1007MOL0     H32904   6.466   9.170  -0.417  0.0792 -0.2939 -2.1229
 1007MOL0     H32905   6.471   9.301  -0.522 -0.8825 -2.2422 -0.3801
 1007MOL0     H32906   7.461   9.449  -0.018  0.5815 -0.6679  0.9946
 1007MOL0     H32907   7.689   9.483   0.039  1.8449 -1.9484  0.1775
 1007MOL0     H32908   8.148   9.484  -0.213  1.3164  2.4223 -1.1041
 1007MOL0     H32909   8.359   9.555  -0.210  1.6542 -0.3043  0.5550
 1007MOL0     H32910  10.229  10.138   0.063  0.4331  0.1396  0.3388
 1007MOL0     H32911  10.371  10.044   0.238 -0.6242 -0.5871 -0.6702
 1007MOL0     H32912  10.584   9.996   0.543  3.1973 -0.0744  0.0787
 1007MOL0     H32913  10.761   9.954   0.713  0.1571  0.8853 -0.9876
 1007MOL0     H32914  10.764  10.104   1.152 -2.1718  1.8770 -0.1883
 1007MOL0     H32915  10.758  10.230   1.033 -3.0846 -1.3719  3.0799
 1007MOL0     H32916  10.994  10.048   1.080 -1.6545  0.3135  1.0325
 1007MOL0     H32917  10.974  10.164   0.956  0.9985  2.6819  0.5132
 1007MOL0     H32918  10.971  10.248   1.254  3.0853 -0.0921  1.2380
 1007MOL0     H32919  10.957  10.355   1.120  3.5560  0.9635 -2.8245
 1007MOL0     H32920  11.200  10.176   1.148  4.8687  3.1610  1.8621
 1007MOL0     H32921  11.177  10.326   1.054  1.8248  0.0089  0.5058
 1007MOL0     H32922  11.308  10.410   1.456 -3.8150 -1.5200  4.1994
 1007MOL0     H32923  10.530  10.136   1.018  1.4375  0.8678 -0.6821
 1007MOL0     H32924  10.335  10.132   0.875  0.6931 -0.0072  1.0259
 1008MOL0     O32925   1.550  10.978   8.860  0.1032 -0.3315  0.4286
 1008MOL0     C32926   1.448  11.011   8.796 -0.4519  0.2845  0.7392
 1008MOL0     O32927   1.437  11.126   8.722 -0.2431  0.1037  0.0460
 1008MOL0     C32928   1.518  11.243   8.743 -0.1847  0.3156 -0.2508
 1008MOL0     C32929   1.450  11.364   8.718 -0.1588  0.7981 -0.4451
 1008MOL0     C32930   1.525  11.484   8.718  0.8397 -0.4730 -0.7041
 1008MOL0     C32931   1.663  11.485   8.754  0.7327 -0.1891  0.8412
 1008MOL0     O32932   1.727  11.606   8.748 -0.3145  0.7863  0.4466
 1008MOL0     C32933   1.862  11.606   8.700 -0.2101  0.2830  0.3423
 1008MOL0     C32934   1.893  11.749   8.659  0.0529 -0.3662  0.6219
 1008MOL0     C32935   2.045  11.778   8.625 -0.0313 -0.0938  0.5799
 1008MOL0     C32936   2.066  11.919   8.575 -0.7408  0.1293  0.5005
 1008MOL0     C32937   2.210  11.941   8.542  0.3968  0.1678  0.1208
 1008MOL0     C32938   2.240  12.052   8.445 -0.0369  0.2038 -0.0687
 1008MOL0     C32939   2.398  12.084   8.450 -0.2207  0.1938 -0.0746
 1008MOL0     C32940   2.443  12.178   8.335  0.0563 -0.2199  0.8406
 1008MOL0     N32941   2.397  12.144   8.197  0.1431  0.4479  0.3010
 1008MOL0     C32942   2.366  12.237   8.103  1.2413  0.4554 -0.1664
 1008MOL0     C32943   2.377  12.180   7.986 -0.5089 -0.7343  0.6646
 1008MOL0     C32944   2.366  12.250   7.852  0.6186  0.1390  0.2041
 1008MOL0     C32945   2.231  12.226   7.791  0.4133 -0.7717 -0.9401
 1008MOL0     C32946   2.219  12.272   7.648  0.9438  0.3468 -0.0257
 1008MOL0     C32947   2.078  12.250   7.589 -0.3404  0.2661  0.0821
 1008MOL0     O32948   2.031  12.127   7.641  0.4251 -0.3390 -0.1749
 1008MOL0     C32949   1.903  12.095   7.611 -0.3415 -0.1506 -0.5068
 1008MOL0     C32950   1.839  11.998   7.684  0.5246  0.7593 -0.2665
 1008MOL0     C32951   1.701  11.990   7.673 -0.6323 -0.3257 -0.0232
 1008MOL0     C32952   1.625  12.059   7.575 -1.1480  0.0406  0.3202
 1008MOL0     C32953   1.483  12.039   7.564 -1.2780 -0.4187  0.2786
 1008MOL0     O32954   1.428  12.072   7.444 -0.6512  0.0928 -0.1040
 1008MOL0     C32955   1.292  12.047   7.436  0.5031  0.0462 -0.2300
 1008MOL0     C32956   1.255  11.922   7.401  0.6075  0.3210  0.4084
 1008MOL0     C32957   1.118  11.893   7.389  0.5753 -1.0666  0.4636
 1008MOL0     C32958   1.024  11.996   7.402 -0.4952  0.0493 -0.0688
 1008MOL0     O32959   0.892  11.978   7.380 -0.8078  0.9689  0.3230
 1008MOL0     C32960   0.855  11.863   7.297  0.3567 -0.6152 -0.1816
 1008MOL0     C32961   0.708  11.862   7.268 -0.4336  0.1527  1.0136
 1008MOL0     C32962   0.632  11.892   7.400  1.1216 -0.6046  0.8905
 1008MOL0     C32963   0.490  11.927   7.369 -0.3536 -0.6604  1.1390
 1008MOL0     C32964   0.478  12.085   7.359  0.0055 -0.3913  0.1862
 1008MOL0     C32965   0.317  12.122   7.343 -0.5324 -0.2248 -0.9091
 1008MOL0     C32966   0.290  12.264   7.320  0.5950 -1.0069  0.5005
 1008MOL0     C32967   0.151  12.300   7.265 -0.2753 -0.0775 -0.6840
 1008MOL0    Cl32968   0.128  12.257   7.083 -0.2087 -0.2500  0.3604
 1008MOL0     C32969   1.070  12.122   7.437 -0.6752 -0.2111 -0.0172
 1008MOL0     C32970   1.201  12.151   7.456 -0.6236  0.3117  0.3418
 1008MOL0     O32971   1.426  12.001   7.663  1.2384  0.6318 -0.1107
 1008MOL0     C32972   1.696  12.155   7.493  0.6281  0.0768 -0.7647
 1008MOL0     C32973   1.836  12.162   7.507 -0.5513  0.1185 -0.9096
 1008MOL0     N32974   2.427  12.050   8.010 -0.1079 -0.5165  0.4784
 1008MOL0     N32975   2.429  12.032   8.141  0.2634  0.5020  0.6054
 1008MOL0     C32976   1.719  11.359   8.771 -0.0541  0.3065  0.3985
 1008MOL0     C32977   1.651  11.236   8.777  0.3983 -0.3438  0.4370
 1008MOL0     C32978   1.344  10.903   8.782  0.1951  0.1870  0.3289
 1008MOL0     C32979   1.223  10.938   8.715 -0.1757  0.6665 -0.6896
 1008MOL0     C32980   1.113  10.848   8.702 -0.5753 -0.4089  0.3702
 1008MOL0     C32981   1.127  10.714   8.741 -0.4688  0.2888 -0.2312
 1008MOL0     O32982   1.014  10.642   8.726  0.0135  0.0567  0.3647
 1008MOL0     C32983   1.017  10.500   8.750 -0.2160  0.1070 -0.7690
 1008MOL0     C32984   1.113  10.418   8.657  0.3885 -0.0594  0.3402
 1008MOL0     C32985   1.103  10.442   8.504 -0.8471  0.6835 -1.4447
 1008MOL0     C32986   0.958  10.423   8.458  0.0939  0.3085 -0.6797
 1008MOL0     C32987   0.932  10.410   8.318 -0.3620 -0.7282  0.0690
 1008MOL0     C32988   0.912  10.394   8.207  0.0540 -0.1090  0.6019
 1008MOL0     C32989   1.253  10.683   8.804  0.4793  0.8039  0.2861
 1008MOL0     C32990   1.361  10.772   8.823 -0.2245  0.9202  0.1894
 1008MOL0     H32991   1.343  11.362   8.707 -0.1948 -0.8603 -0.0940
 1008MOL0     H32992   1.485  11.581   8.693 -2.4694 -1.6404 -0.3976
 1008MOL0     H32993   1.875  11.533   8.620 -1.4193 -1.6164  1.7898
 1008MOL0     H32994   1.936  11.578   8.776 -1.4152 -3.5537  0.3018
 1008MOL0     H32995   1.862  11.816   8.740 -2.2771 -0.4952 -0.1129
 1008MOL0     H32996   1.836  11.758   8.567  0.6301  0.6791  0.3469
 1008MOL0     H32997   2.080  11.699   8.558 -0.6626 -1.3671  1.6940
 1008MOL0     H32998   2.101  11.767   8.718  4.7243 -2.2900 -2.1885
 1008MOL0     H32999   2.007  11.931   8.483  0.9652 -2.2505 -1.0261
 1008MOL0     H33000   2.029  11.989   8.650 -1.3920 -1.6444  1.9141
 1008MOL0     H33001   2.257  11.852   8.500  1.6251  0.9758 -0.2606
 1008MOL0     H33002   2.257  11.965   8.637  2.8764 -2.3201 -0.3809
 1008MOL0     H33003   2.181  12.144   8.454 -3.0389 -1.5797 -0.2324
 1008MOL0     H33004   2.214  12.007   8.349 -1.1962 -0.3996  0.5086
 1008MOL0     H33005   2.416  12.127   8.549 -1.4241 -1.2661  0.8183
 1008MOL0     H33006   2.449  11.987   8.444 -0.8414 -0.0639 -1.6549
 1008MOL0     H33007   2.550  12.192   8.355 -0.6885  2.8663  3.6071
 1008MOL0     H33008   2.385  12.267   8.359 -1.3073 -0.9636  0.3796
 1008MOL0     H33009   2.345  12.340   8.133 -1.0422 -0.4887  1.8369
 1008MOL0     H33010   2.434  12.197   7.785  1.5795 -0.3541  1.5276
 1008MOL0     H33011   2.394  12.355   7.853 -0.4505  0.4590 -0.9682
 1008MOL0     H33012   2.151  12.256   7.858  1.9226 -0.6756  0.9137
 1008MOL0     H33013   2.233  12.116   7.791  2.3220 -0.8041 -2.9146
 1008MOL0     H33014   2.225  12.382   7.644 -2.2156  0.5927 -1.3162
 1008MOL0     H33015   2.293  12.225   7.582 -0.1749 -0.9638 -0.3808
 1008MOL0     H33016   2.084  12.255   7.480  2.4611  0.3490  0.1517
 1008MOL0     H33017   2.008  12.331   7.612 -2.2411 -1.3498  0.2641
 1008MOL0     H33018   1.885  11.928   7.753  2.1227 -0.1778 -2.1676
 1008MOL0     H33019   1.642  11.923   7.736  0.0291  0.8180  1.9188
 1008MOL0     H33020   1.336  11.849   7.395  1.3001  0.9367  1.7319
 1008MOL0     H33021   1.077  11.796   7.364 -2.3142 -0.0550  0.9467
 1008MOL0     H33022   0.869  11.769   7.351  0.9167  0.1046  0.9584
 1008MOL0     H33023   0.916  11.864   7.207  0.5649  1.6537 -0.0615
 1008MOL0     H33024   0.689  11.761   7.231 -0.8364  0.3042  0.8044
 1008MOL0     H33025   0.687  11.933   7.189  1.2153  2.2245  2.3321
 1008MOL0     H33026   0.671  11.964   7.473  0.1984 -1.1362  1.9418
 1008MOL0     H33027   0.620  11.797   7.453  1.6000 -0.2149  1.7278
 1008MOL0     H33028   0.448  11.901   7.271 -1.0717  1.6502  0.7814
 1008MOL0     H33029   0.425  11.883   7.445 -0.8573  1.1080  1.7675
 1008MOL0     H33030   0.538  12.118   7.273 -0.5185 -2.8606 -1.2221
 1008MOL0     H33031   0.507  12.124   7.457 -0.2848 -0.3530  0.2578
 1008MOL0     H33032   0.274  12.092   7.439 -0.3127  1.5203 -0.2356
 1008MOL0     H33033   0.266  12.059   7.269  2.0331 -1.6032 -1.6014
 1008MOL0     H33034   0.311  12.317   7.413 -1.0283  2.3702 -0.8954
 1008MOL0     H33035   0.363  12.288   7.242  0.4454  0.8010  0.8723
 1008MOL0     H33036   0.129  12.406   7.282  0.2041 -0.3282  1.8389
 1008MOL0     H33037   0.082  12.237   7.321  0.0718 -1.2709 -1.5638
 1008MOL0     H33038   0.998  12.199   7.464 -0.0997 -0.2688  1.7853
 1008MOL0     H33039   1.240  12.248   7.486  2.2445 -0.1350 -1.5928
 1008MOL0     H33040   1.640  12.227   7.435  1.6963  1.3001 -0.3373
 1008MOL0     H33041   1.877  12.241   7.444 -0.7327  0.2705 -0.8376
 1008MOL0     H33042   1.827  11.369   8.778  0.0223  1.2347 -1.6510
 1008MOL0     H33043   1.705  11.146   8.804  1.5738  0.9212  2.6054
 1008MOL0     H33044   1.188  11.041   8.714 -1.5174  0.2907  1.3354
 1008MOL0     H33045   1.016  10.891   8.678 -2.4778 -1.6378  4.8246
 1008MOL0     H33046   0.921  10.447   8.748  1.3235 -2.8891 -0.9949
 1008MOL0     H33047   1.049  10.494   8.854 -3.1240 -2.2344  0.1463
 1008MOL0     H33048   1.214  10.447   8.687 -0.2581 -0.1506  2.8147
 1008MOL0     H33049   1.090  10.314   8.685 -0.4972  0.9161  3.7530
 1008MOL0     H33050   1.161  10.362   8.458  1.3551  0.6408  1.1376
 1008MOL0     H33051   1.131  10.546   8.486 -2.1266  1.4930  0.7475
 1008MOL0     H33052   0.910  10.339   8.510  0.6041  1.4262  1.7412
 1008MOL0     H33053   0.901  10.510   8.493 -0.4390 -0.1658 -0.3436
 1008MOL0     H33054   0.901  10.376   8.102  0.6250  0.4936  0.4364
 1008MOL0     H33055   1.254  10.585   8.850 -2.2510 -1.3548 -3.7030
 1008MOL0     H33056   1.457  10.748   8.868 -0.6459  0.1071  0.6955
 1009MOL0     O33057   4.634   1.615   6.055 -0.0560 -0.6495 -0.6172
 1009MOL0     C33058   4.736   1.683   6.020 -0.4451  0.2231  0.0771
 1009MOL0     O33059   4.734   1.784   5.928 -0.3364  0.3936 -0.5186
 1009MOL0     C33060   4.608   1.826   5.887 -0.1595  0.1276 -0.0965
 1009MOL0     C33061   4.499   1.742   5.825  0.4370 -0.1158  0.5731
 1009MOL0     C33062   4.372   1.796   5.800 -0.5346 -0.4884  0.1896
 1009MOL0     C33063   4.340   1.924   5.837  0.7110 -0.3431  0.2863
 1009MOL0     O33064   4.226   1.990   5.820 -0.2641 -0.1892  0.3157
 1009MOL0     C33065   4.114   1.914   5.776 -0.7206 -0.2747 -0.2908
 1009MOL0     C33066   3.995   1.944   5.869  0.3491 -0.5676 -0.9159
 1009MOL0     C33067   3.863   1.916   5.799  1.1804  0.6210 -0.1826
 1009MOL0     C33068   3.755   1.867   5.910 -0.8526 -0.5554 -0.2807
 1009MOL0     C33069   3.610   1.891   5.867 -0.2840 -0.1731 -0.3849
 1009MOL0     C33070   3.504   1.827   5.966 -0.7254  0.5291 -0.5970
 1009MOL0     C33071   3.371   1.800   5.899  0.1552 -0.2018  0.6359
 1009MOL0     C33072   3.306   1.929   5.847  0.7880 -0.2691 -0.7949
 1009MOL0     N33073   3.175   1.882   5.818  0.0314  0.0647  0.3743
 1009MOL0     C33074   3.135   1.802   5.703  0.6421 -0.2669 -0.1535
 1009MOL0     C33075   3.003   1.772   5.740 -0.6693  0.3292  0.2902
 1009MOL0     C33076   2.911   1.715   5.638 -1.0146 -0.3650 -0.3642
 1009MOL0     C33077   2.849   1.808   5.533  0.0723  0.1962 -1.1034
 1009MOL0     C33078   2.749   1.914   5.577  0.6108 -0.0998 -0.0998
 1009MOL0     C33079   2.632   1.866   5.671 -0.5130 -0.0933 -1.1529
 1009MOL0     O33080   2.567   1.761   5.602  0.4038  0.4546  0.2565
 1009MOL0     C33081   2.434   1.760   5.554  0.2623 -1.1300 -0.8841
 1009MOL0     C33082   2.366   1.645   5.509 -0.5557  0.3399 -0.6303
 1009MOL0     C33083   2.238   1.649   5.467  0.2410  0.9196 -0.0638
 1009MOL0     C33084   2.161   1.765   5.483  0.3771  0.4385  1.2147
 1009MOL0     C33085   2.016   1.758   5.435 -0.0451 -1.2791  0.0004
 1009MOL0     O33086   1.935   1.863   5.472 -0.0508  0.3662  0.8883
 1009MOL0     C33087   1.806   1.850   5.427 -0.3279 -1.3586 -0.8103
 1009MOL0     C33088   1.766   1.864   5.292 -0.3955  0.7231 -0.2183
 1009MOL0     C33089   1.628   1.852   5.267 -0.0142 -0.0955  0.2255
 1009MOL0     C33090   1.538   1.830   5.364  0.3567  0.6630 -0.8306
 1009MOL0     O33091   1.405   1.840   5.322  0.0243  0.1608 -0.1701
 1009MOL0     C33092   1.298   1.814   5.414 -0.5280 -0.6759 -0.3365
 1009MOL0     C33093   1.174   1.860   5.348 -0.3889 -0.5667 -0.1513
 1009MOL0     C33094   1.055   1.853   5.434  0.0205 -0.6032 -0.4032
 1009MOL0     C33095   0.978   1.717   5.452 -0.0788 -0.8866  0.5971
 1009MOL0     C33096   1.028   1.649   5.581  0.1795 -0.4191  0.1314
 1009MOL0     C33097   0.941   1.521   5.603  0.0624 -0.0224  0.2840
 1009MOL0     C33098   1.008   1.426   5.698 -0.2470 -0.7646  0.1002
 1009MOL0     C33099   0.915   1.314   5.734  0.3846 -0.2832  0.5112
 1009MOL0    Cl33100   0.889   1.199   5.603  0.4732 -0.3424  0.3503
 1009MOL0     C33101   1.578   1.818   5.489  0.3278  0.1672 -1.0989
 1009MOL0     C33102   1.713   1.818   5.524  0.3553  0.3790 -0.8715
 1009MOL0     O33103   1.983   1.667   5.366 -0.7392 -0.0550  0.3548
 1009MOL0     C33104   2.215   1.884   5.524 -0.2227 -0.0114  0.5843
 1009MOL0     C33105   2.354   1.881   5.563 -0.3694  0.0091  0.3900
 1009MOL0     N33106   2.974   1.829   5.864 -0.3450 -0.3704  0.5993
 1009MOL0     N33107   3.075   1.907   5.909  0.1101  0.2063  0.1476
 1009MOL0     C33108   4.444   2.003   5.886 -0.3665 -0.0003 -0.0864
 1009MOL0     C33109   4.571   1.956   5.904  0.0973  0.2490 -0.4067
 1009MOL0     C33110   4.873   1.653   6.077  0.4927  0.3786 -0.0001
 1009MOL0     C33111   4.879   1.553   6.171 -1.0076 -0.4253  0.5084
 1009MOL0     C33112   4.998   1.520   6.229 -0.2228  0.3325 -0.7724
 1009MOL0     C33113   5.111   1.579   6.188 -0.3514  0.4900 -0.0802
 1009MOL0     O33114   5.222   1.554   6.258  0.3511  0.4821  0.6655
 1009MOL0     C33115   5.266   1.419   6.246 -0.2371  0.8470  0.4301
 1009MOL0     C33116   5.415   1.403   6.300 -0.1979 -0.1319  0.5486
 1009MOL0     C33117   5.511   1.475   6.198  0.8853  0.1648 -0.2944
 1009MOL0     C33118   5.569   1.380   6.091 -0.1891 -0.6291 -0.5709
 1009MOL0     C33119   5.658   1.472   6.016  0.5500  0.4505 -0.6959
 1009MOL0     C33120   5.723   1.544   5.942 -0.7215  0.2679 -0.8138
 1009MOL0     C33121   5.108   1.685   6.093  0.4483 -0.1198 -0.6181
 1009MOL0     C33122   4.985   1.729   6.039  0.3869  0.2413 -0.8822
 1009MOL0     H33123   4.530   1.640   5.804  1.5121 -0.1242  2.0514
 1009MOL0     H33124   4.315   1.727   5.739 -1.1308  1.1330 -1.1350
 1009MOL0     H33125   4.130   1.805   5.776  0.0884 -0.1921  1.2435
 1009MOL0     H33126   4.098   1.946   5.673  0.7089  0.3078 -0.3483
 1009MOL0     H33127   3.992   2.049   5.897  2.1523 -0.6301 -0.3464
 1009MOL0     H33128   4.005   1.882   5.958  1.8213 -0.6014 -1.0777
 1009MOL0     H33129   3.865   1.849   5.713 -1.0720  0.2747 -0.0264
 1009MOL0     H33130   3.834   2.012   5.755  0.3214  0.4432 -0.0276
 1009MOL0     H33131   3.774   1.761   5.927  0.4740 -0.1715  0.8803
 1009MOL0     H33132   3.786   1.909   6.007  1.6858  0.9900 -1.6725
 1009MOL0     H33133   3.604   1.847   5.767  0.5590 -2.5822  0.5652
 1009MOL0     H33134   3.595   1.999   5.853 -1.3314 -0.5474 -2.5712
 1009MOL0     H33135   3.488   1.894   6.051 -0.1771  0.4167 -0.4004
 1009MOL0     H33136   3.544   1.735   6.010  0.8700  1.5637  0.2118
 1009MOL0     H33137   3.378   1.729   5.816 -0.2177 -0.1291  0.5421
 1009MOL0     H33138   3.310   1.743   5.969 -3.0323  0.5512 -1.2980
 1009MOL0     H33139   3.357   1.957   5.754  2.9097 -2.9139 -0.5442
 1009MOL0     H33140   3.307   2.010   5.921  2.8671  0.6028 -1.6826
 1009MOL0     H33141   3.179   1.771   5.609  0.5042 -2.0383  0.3248
 1009MOL0     H33142   2.830   1.663   5.689 -0.7546 -0.1509  0.2773
 1009MOL0     H33143   2.967   1.640   5.582  0.4809 -2.3177  3.4400
 1009MOL0     H33144   2.805   1.746   5.454 -0.8577 -0.6257  0.0289
 1009MOL0     H33145   2.938   1.860   5.496 -0.1699  3.4202  2.2541
 1009MOL0     H33146   2.790   2.001   5.630 -0.8595  1.7109 -1.7848
 1009MOL0     H33147   2.694   1.951   5.490  2.3123  0.4610 -0.9749
 1009MOL0     H33148   2.576   1.956   5.696  0.5408 -0.5517  3.8342
 1009MOL0     H33149   2.665   1.825   5.767 -2.9610  1.2858  0.3609
 1009MOL0     H33150   2.429   1.557   5.503 -0.9178  0.0040  0.3399
 1009MOL0     H33151   2.202   1.555   5.425  1.0363 -0.0636  1.3636
 1009MOL0     H33152   1.837   1.863   5.210 -0.2860 -0.9276 -0.1390
 1009MOL0     H33153   1.589   1.861   5.167 -1.5982 -1.3474  0.6902
 1009MOL0     H33154   1.309   1.878   5.502  1.3432  1.9632 -2.3112
 1009MOL0     H33155   1.303   1.711   5.448  5.2259 -0.8442 -0.7951
 1009MOL0     H33156   1.160   1.795   5.261  1.8804  0.4127 -1.3562
 1009MOL0     H33157   1.178   1.961   5.304 -1.5740 -0.0325  0.9284
 1009MOL0     H33158   0.985   1.926   5.392  0.0279 -0.3147  0.0746
 1009MOL0     H33159   1.082   1.890   5.533 -0.6474  0.3306 -0.5628
 1009MOL0     H33160   0.874   1.752   5.464 -0.1048  0.0341 -1.7575
 1009MOL0     H33161   0.986   1.655   5.362 -0.4115  1.5990 -1.2575
 1009MOL0     H33162   1.012   1.721   5.661 -0.0530  0.2765 -0.5240
 1009MOL0     H33163   1.135   1.626   5.581  0.5737  1.1635 -1.1751
 1009MOL0     H33164   0.951   1.469   5.507  0.3267 -0.3905  0.5083
 1009MOL0     H33165   0.837   1.545   5.626 -0.2232 -0.4479 -0.5277
 1009MOL0     H33166   1.104   1.393   5.659 -0.2797 -2.2917  1.1831
 1009MOL0     H33167   1.034   1.475   5.792  0.8552  0.0973 -0.6344
 1009MOL0     H33168   0.811   1.347   5.745  0.5348  0.8854 -1.2869
 1009MOL0     H33169   0.937   1.282   5.837 -0.3178  2.1065  1.4843
 1009MOL0     H33170   1.518   1.814   5.579  3.0962  5.2965  1.3835
 1009MOL0     H33171   1.730   1.808   5.630 -1.2851  0.3463 -0.5774
 1009MOL0     H33172   2.160   1.978   5.524  0.7611  0.6493 -1.7869
 1009MOL0     H33173   2.405   1.972   5.593  1.3929 -0.0290 -2.1398
 1009MOL0     H33174   4.421   2.108   5.899 -0.1956  0.0535 -0.2240
 1009MOL0     H33175   4.650   2.022   5.937 -2.0392  2.2726  0.9595
 1009MOL0     H33176   4.783   1.518   6.207 -0.7997 -1.3510  0.1946
 1009MOL0     H33177   4.988   1.462   6.320 -0.2904  1.8866  0.2374
 1009MOL0     H33178   5.265   1.369   6.148  0.3752 -2.3866  1.9152
 1009MOL0     H33179   5.200   1.347   6.294 -0.2745 -1.1341 -2.3441
 1009MOL0     H33180   5.425   1.442   6.402  1.2992  1.3388 -0.1179
 1009MOL0     H33181   5.437   1.297   6.290  1.6274  0.3580 -1.3912
 1009MOL0     H33182   5.585   1.532   6.256  1.0872  0.5953 -0.9708
 1009MOL0     H33183   5.456   1.548   6.138  1.2841 -0.0648 -0.9482
 1009MOL0     H33184   5.622   1.302   6.146  1.9231  0.1297 -1.3859
 1009MOL0     H33185   5.495   1.335   6.024 -3.5647  0.4693  2.1447
 1009MOL0     H33186   5.771   1.613   5.875 -2.4294  1.6322 -0.7048
 1009MOL0     H33187   5.195   1.750   6.091  0.1061  0.3203 -2.6707
 1009MOL0     H33188   4.982   1.822   5.984  2.8015  1.2928  0.5736
 1010MOL0     O33189  10.836   9.272   3.538  0.0177 -0.7092 -0.4826
 1010MOL0     C33190  10.859   9.392   3.538 -0.5353 -0.1769  0.9459
 1010MOL0     O33191  10.772   9.490   3.526 -0.0660  0.3212  0.3105
 1010MOL0     C33192  10.631   9.478   3.542  0.0502  0.5190 -0.2229
 1010MOL0     C33193  10.568   9.594   3.573  0.8579 -0.1714  0.3403
 1010MOL0     C33194  10.426   9.602   3.577  0.2431 -0.2345  0.1144
 1010MOL0     C33195  10.353   9.487   3.554  0.3323  1.1981  0.0928
 1010MOL0     O33196  10.216   9.502   3.557 -0.5163 -0.2934 -0.9540
 1010MOL0     C33197  10.150   9.412   3.650 -0.0424  0.4584  0.3435
 1010MOL0     C33198   9.994   9.402   3.659  0.3530 -0.3847  0.1110
 1010MOL0     C33199   9.943   9.547   3.682  0.3250 -0.4720  0.0442
 1010MOL0     C33200   9.793   9.536   3.715  0.0369  0.5064  0.2361
 1010MOL0     C33201   9.718   9.432   3.631  0.5925  0.6505  0.5055
 1010MOL0     C33202   9.574   9.437   3.682 -0.4386  0.4275  0.2099
 1010MOL0     C33203   9.478   9.375   3.578  0.1704 -0.5309 -0.4618
 1010MOL0     C33204   9.424   9.466   3.461  0.2101  0.4360  0.0414
 1010MOL0     N33205   9.396   9.611   3.490  0.0497  0.0099  0.6326
 1010MOL0     C33206   9.274   9.664   3.522  0.6600 -0.2628  0.2008
 1010MOL0     C33207   9.291   9.801   3.534 -0.4399  0.6566 -0.0289
 1010MOL0     C33208   9.179   9.892   3.567  0.6326  0.0837  0.1595
 1010MOL0     C33209   9.210  10.003   3.674  0.1515  0.2780  0.5350
 1010MOL0     C33210   9.188   9.963   3.816 -1.2326  0.1518 -0.3993
 1010MOL0     C33211   9.042   9.974   3.857  0.9038  0.4991  0.0172
 1010MOL0     O33212   9.016   9.889   3.974  0.0986 -0.0663  0.0991
 1010MOL0     C33213   8.914   9.916   4.063  0.0363  0.3062  0.1928
 1010MOL0     C33214   8.900   9.841   4.178  0.6124  0.5778 -0.2589
 1010MOL0     C33215   8.790   9.862   4.263 -0.0054  0.0144  0.2385
 1010MOL0     C33216   8.690   9.961   4.232  0.3826  0.9914  0.9292
 1010MOL0     C33217   8.561   9.988   4.318 -0.3702  0.3791 -0.2672
 1010MOL0     O33218   8.540   9.903   4.425 -0.7942 -0.5075 -0.0498
 1010MOL0     C33219   8.429   9.916   4.504  0.3582  0.1029 -0.0647
 1010MOL0     C33220   8.308   9.906   4.433 -0.1262  0.4396 -0.4043
 1010MOL0     C33221   8.191   9.882   4.503  1.6571 -0.6548  0.2175
 1010MOL0     C33222   8.188   9.877   4.642  0.9419  0.2135  0.8142
 1010MOL0     O33223   8.066   9.857   4.699  0.4906  0.5399 -0.1632
 1010MOL0     C33224   7.945   9.913   4.642 -0.1653  0.4558 -0.2211
 1010MOL0     C33225   7.850   9.919   4.756 -0.1908 -0.1277  0.1359
 1010MOL0     C33226   7.789   9.782   4.789  0.2656  0.1639  0.0090
 1010MOL0     C33227   7.656   9.796   4.867  0.0886  0.3767  0.1143
 1010MOL0     C33228   7.591   9.655   4.890 -1.2353  0.8459 -0.3001
 1010MOL0     C33229   7.460   9.669   4.968  0.1756  0.1341  0.0718
 1010MOL0     C33230   7.404   9.528   5.001  0.0363 -0.3795 -0.2617
 1010MOL0     C33231   7.303   9.525   5.111 -0.6706  0.5766  0.4210
 1010MOL0    Cl33232   7.379   9.525   5.272 -0.4668  0.2936  0.0301
 1010MOL0     C33233   8.311   9.876   4.711  0.3962 -0.6682  0.4661
 1010MOL0     C33234   8.432   9.898   4.643 -0.4316 -0.1526 -0.3057
 1010MOL0     O33235   8.492  10.089   4.293  0.7290 -0.2180 -0.1036
 1010MOL0     C33236   8.708  10.030   4.106  0.5754 -0.8580 -0.8267
 1010MOL0     C33237   8.821  10.012   4.033  0.2927  0.3229 -0.6122
 1010MOL0     N33238   9.420   9.827   3.496  0.3556 -0.1954  0.1174
 1010MOL0     N33239   9.482   9.718   3.475  0.3686  0.1790 -0.3593
 1010MOL0     C33240  10.420   9.374   3.514 -0.1958  0.4748  0.0730
 1010MOL0     C33241  10.559   9.366   3.502 -0.1585 -0.9730 -0.2439
 1010MOL0     C33242  11.001   9.422   3.533 -0.0131 -0.4303 -0.3770
 1010MOL0     C33243  11.045   9.554   3.502 -0.5411 -0.0622 -0.2117
 1010MOL0     C33244  11.180   9.590   3.505  0.0411  0.6261  0.1761
 1010MOL0     C33245  11.276   9.492   3.533 -0.0587  0.0556  0.4714
 1010MOL0     O33246  11.406   9.529   3.552  0.3420  0.0664 -0.5627
 1010MOL0     C33247  11.497   9.462   3.465 -0.3369 -1.0400 -0.9176
 1010MOL0     C33248  11.641   9.528   3.470  0.4725 -0.1433  0.7301
 1010MOL0     C33249  11.718   9.499   3.596  0.5586 -0.3772 -0.1380
 1010MOL0     C33250  11.841   9.583   3.609  0.8420  0.3286 -0.6417
 1010MOL0     C33251  11.948   9.532   3.530  0.2957 -0.5933  0.2387
 1010MOL0     C33252  12.040   9.475   3.474  0.2477  0.0623 -0.0679
 1010MOL0     C33253  11.230   9.367   3.571  0.6075 -0.0592 -0.0399
 1010MOL0     C33254  11.094   9.331   3.571  0.4550  0.6489  0.9564
 1010MOL0     H33255  10.627   9.680   3.601 -1.8576  1.6181  0.9007
 1010MOL0     H33256  10.370   9.692   3.601  0.5952 -0.2959  1.2244
 1010MOL0     H33257  10.171   9.448   3.751  0.3072 -1.9058  1.1696
 1010MOL0     H33258  10.200   9.316   3.636  4.7947  2.3154  2.6846
 1010MOL0     H33259   9.959   9.331   3.734 -1.2612  0.1508 -0.1094
 1010MOL0     H33260   9.961   9.364   3.562  1.3173 -0.5137 -0.1806
 1010MOL0     H33261   9.956   9.608   3.592 -1.5649 -1.7288 -1.1526
 1010MOL0     H33262   9.993   9.590   3.769  0.2947 -0.7924  0.2232
 1010MOL0     H33263   9.780   9.521   3.823  1.6044 -0.1836  0.3587
 1010MOL0     H33264   9.739   9.627   3.688  0.6144  0.1812 -2.2146
 1010MOL0     H33265   9.766   9.336   3.656  1.9283  1.3764  0.8509
 1010MOL0     H33266   9.736   9.457   3.526  1.0189 -1.0850  0.1250
 1010MOL0     H33267   9.530   9.534   3.708 -0.1866  0.9021 -1.0738
 1010MOL0     H33268   9.572   9.390   3.781  2.9280  2.4271  1.4153
 1010MOL0     H33269   9.516   9.279   3.541 -1.1821 -0.7773 -1.2819
 1010MOL0     H33270   9.392   9.345   3.638  0.1952 -2.6006 -1.3835
 1010MOL0     H33271   9.332   9.419   3.426 -0.4345  0.8387  1.1431
 1010MOL0     H33272   9.509   9.468   3.393  0.4176  1.1553  0.3078
 1010MOL0     H33273   9.180   9.617   3.550  0.3785  1.3748  2.2428
 1010MOL0     H33274   9.101   9.830   3.611  0.3454 -0.8755 -1.6158
 1010MOL0     H33275   9.142   9.957   3.487 -0.1226  1.6445  1.6992
 1010MOL0     H33276   9.142  10.088   3.667 -0.0599  0.0045 -1.3251
 1010MOL0     H33277   9.309  10.042   3.646  0.0067 -0.2076 -0.7057
 1010MOL0     H33278   9.228   9.862   3.832 -2.2357 -0.4853 -1.7383
 1010MOL0     H33279   9.242  10.034   3.880 -0.5593  1.0914 -1.9519
 1010MOL0     H33280   8.974   9.950   3.775 -0.9227  1.9754  1.0207
 1010MOL0     H33281   9.022  10.081   3.871  1.3666  0.5241  0.4952
 1010MOL0     H33282   8.970   9.763   4.207  0.8778  0.1167 -2.0216
 1010MOL0     H33283   8.767   9.799   4.348 -0.4198 -0.6885 -0.3837
 1010MOL0     H33284   8.295   9.911   4.326 -5.9326  2.8434  0.0412
 1010MOL0     H33285   8.102   9.867   4.442  0.5085  2.0450  1.0487
 1010MOL0     H33286   7.900   9.852   4.564  0.5312  1.3318 -1.3307
 1010MOL0     H33287   7.975  10.015   4.616  0.2620  0.9442  1.9885
 1010MOL0     H33288   7.774   9.987   4.716  1.3879  1.1124 -0.8410
 1010MOL0     H33289   7.893   9.965   4.845 -3.3172 -1.0364  2.3068
 1010MOL0     H33290   7.854   9.712   4.842 -1.6998 -1.6990  0.0565
 1010MOL0     H33291   7.765   9.728   4.697 -0.5565 -0.1581  0.4002
 1010MOL0     H33292   7.676   9.843   4.964 -1.0014 -2.2673  1.7280
 1010MOL0     H33293   7.594   9.859   4.802  1.1012  0.2692 -0.9934
 1010MOL0     H33294   7.660   9.600   4.956  2.1998  3.8639 -1.0443
 1010MOL0     H33295   7.583   9.603   4.795  2.0423 -1.9350  0.7424
 1010MOL0     H33296   7.392   9.740   4.920  1.8192  2.0752  0.5090
 1010MOL0     H33297   7.496   9.715   5.060  1.1202 -0.5861  0.0755
 1010MOL0     H33298   7.357   9.487   4.911  1.2555 -2.7407  0.1125
 1010MOL0     H33299   7.478   9.451   5.023 -1.5524 -1.9390 -0.1190
 1010MOL0     H33300   7.252   9.429   5.107  2.1105 -0.9565 -2.0561
 1010MOL0     H33301   7.233   9.609   5.102 -1.9276 -0.6189 -1.5994
 1010MOL0     H33302   8.305   9.872   4.820  1.1071  1.5943  0.6415
 1010MOL0     H33303   8.530   9.914   4.686 -0.5755  0.9787 -0.3651
 1010MOL0     H33304   8.638  10.102   4.066  0.5259  0.2652  1.1475
 1010MOL0     H33305   8.830  10.061   3.937  2.6193 -1.2073 -1.2778
 1010MOL0     H33306  10.361   9.286   3.489 -1.0601  1.2892 -0.8411
 1010MOL0     H33307  10.611   9.278   3.467  1.1345  0.1688 -1.3423
 1010MOL0     H33308  10.976   9.631   3.470  0.5806  0.0261 -2.7044
 1010MOL0     H33309  11.213   9.688   3.474  0.1624  0.1625 -1.2124
 1010MOL0     H33310  11.465   9.475   3.362 -2.2635  1.4355 -0.1151
 1010MOL0     H33311  11.502   9.355   3.490  0.4851 -0.1015  3.9529
 1010MOL0     H33312  11.712   9.480   3.401  0.2644  0.0332  0.3875
 1010MOL0     H33313  11.624   9.636   3.459 -0.2253 -0.2233  0.9954
 1010MOL0     H33314  11.725   9.390   3.606 -0.0211 -0.7183 -2.6466
 1010MOL0     H33315  11.653   9.519   3.682  2.0263 -2.3565  1.5469
 1010MOL0     H33316  11.827   9.688   3.582  2.3843  1.7567  3.3249
 1010MOL0     H33317  11.885   9.588   3.709  1.3051  0.0480 -0.8272
 1010MOL0     H33318  12.125   9.426   3.429 -1.4245 -2.3297 -0.8081
 1010MOL0     H33319  11.302   9.289   3.593  3.9640  3.1528  1.5143
 1010MOL0     H33320  11.058   9.237   3.610 -0.9170  2.1518  3.5830
 1011MOL0     O33321   3.389   9.514   2.423 -0.6518  0.1232 -0.0655
 1011MOL0     C33322   3.460   9.566   2.335  0.0132  1.2255 -0.0853
 1011MOL0     O33323   3.448   9.693   2.292 -0.1382 -0.4840 -0.4903
 1011MOL0     C33324   3.344   9.774   2.343 -0.3298  0.2187  0.0027
 1011MOL0     C33325   3.209   9.745   2.298  0.4125  0.2936  0.3187
 1011MOL0     C33326   3.103   9.829   2.342 -0.3998  1.1008 -0.2379
 1011MOL0     C33327   3.128   9.934   2.433  0.9303 -0.4708 -0.3035
 1011MOL0     O33328   3.015  10.005   2.460  0.0778 -0.1848 -0.9724
 1011MOL0     C33329   3.017  10.106   2.561 -0.5438  0.1197  0.2738
 1011MOL0     C33330   2.882  10.159   2.589 -1.0144  0.4352 -0.3201
 1011MOL0     C33331   2.760  10.065   2.605 -0.4333  0.8474  1.2751
 1011MOL0     C33332   2.633  10.139   2.642 -0.5001 -0.9323  0.1215
 1011MOL0     C33333   2.504  10.049   2.650  0.4203  0.5564  0.9548
 1011MOL0     C33334   2.388  10.138   2.705  0.8286 -0.4899 -0.7093
 1011MOL0     C33335   2.242  10.066   2.717  0.9671  0.2174 -0.2286
 1011MOL0     C33336   2.118  10.151   2.711 -0.0960 -0.5087 -0.1007
 1011MOL0     N33337   2.078  10.204   2.576 -0.6261  0.1600 -0.4298
 1011MOL0     C33338   2.078  10.127   2.462  0.8045  0.0713  0.0045
 1011MOL0     C33339   2.059  10.225   2.364  0.1081  0.4200  0.5024
 1011MOL0     C33340   2.050  10.196   2.207  0.4003  0.0229 -0.3891
 1011MOL0     C33341   2.169  10.098   2.172  1.0823 -0.1763  0.4633
 1011MOL0     C33342   2.304  10.143   2.202 -0.4697  0.0277 -0.8272
 1011MOL0     C33343   2.418  10.073   2.128  1.3010  0.0406 -0.5448
 1011MOL0     O33344   2.542  10.121   2.191  0.0444 -0.8401  0.5432
 1011MOL0     C33345   2.646  10.052   2.139 -0.0699 -0.4166 -0.5264
 1011MOL0     C33346   2.775  10.068   2.195  0.2983 -0.1565 -0.3978
 1011MOL0     C33347   2.894  10.023   2.143 -0.0279 -0.6193  0.3553
 1011MOL0     C33348   2.890   9.951   2.019  0.6301  0.3918  0.4512
 1011MOL0     C33349   3.015   9.929   1.937  0.1782 -0.4433 -0.3844
 1011MOL0     O33350   3.129   9.912   2.012  0.7315 -0.7204  0.1268
 1011MOL0     C33351   3.257   9.917   1.948  0.6686 -0.0680  0.4671
 1011MOL0     C33352   3.354   9.972   2.030  0.4702  0.4218  0.3241
 1011MOL0     C33353   3.488   9.970   1.983  0.1996  0.0805  0.0476
 1011MOL0     C33354   3.524   9.907   1.868 -0.4423 -1.2849 -0.2860
 1011MOL0     O33355   3.661   9.904   1.847  0.1163 -0.5601  0.5194
 1011MOL0     C33356   3.709   9.909   1.709  0.0040 -0.4485  0.6443
 1011MOL0     C33357   3.842   9.828   1.710  0.8143 -0.5289  0.4298
 1011MOL0     C33358   3.829   9.680   1.742  0.5366  0.1710  0.0568
 1011MOL0     C33359   3.789   9.610   1.616  0.2785  0.2532  0.6242
 1011MOL0     C33360   3.752   9.463   1.636  0.7248 -0.5449 -0.6574
 1011MOL0     C33361   3.618   9.432   1.706 -0.2193 -0.4484 -0.3092
 1011MOL0     C33362   3.499   9.482   1.628 -0.4018 -0.3332 -0.6665
 1011MOL0     C33363   3.368   9.425   1.692  0.1730  0.0688  0.4145
 1011MOL0    Cl33364   3.223   9.472   1.612  0.0704 -0.1511 -0.0134
 1011MOL0     C33365   3.421   9.856   1.785  0.3164  0.4355  0.8391
 1011MOL0     C33366   3.287   9.853   1.830  0.2190 -0.0499  0.5195
 1011MOL0     O33367   3.014   9.947   1.817  0.6055 -0.1008 -0.2549
 1011MOL0     C33368   2.763   9.924   1.962  0.1911  0.0198  0.1495
 1011MOL0     C33369   2.645   9.978   2.025 -0.3248 -0.4121  1.2422
 1011MOL0     N33370   2.060  10.347   2.422 -0.4876  0.2456 -0.1501
 1011MOL0     N33371   2.066  10.338   2.555 -0.4838  0.0245  0.1168
 1011MOL0     C33372   3.263   9.964   2.467 -0.4381  0.6185 -0.0962
 1011MOL0     C33373   3.373   9.889   2.424  0.2337  0.9143  1.0640
 1011MOL0     C33374   3.558   9.492   2.262 -0.3985 -0.4409 -0.4018
 1011MOL0     C33375   3.599   9.360   2.302  0.2331 -0.9204 -0.0415
 1011MOL0     C33376   3.683   9.281   2.219  0.6081  0.0401  0.1101
 1011MOL0     C33377   3.754   9.346   2.117  0.6521 -0.5456 -0.7094
 1011MOL0     O33378   3.845   9.277   2.045 -0.6736  0.1278 -0.8458
 1011MOL0     C33379   3.977   9.329   1.990 -0.6639  0.3809 -0.5179
 1011MOL0     C33380   4.058   9.195   1.943 -0.4412  0.3477 -0.3376
 1011MOL0     C33381   4.191   9.228   1.887 -0.8848 -0.0665  0.6833
 1011MOL0     C33382   4.267   9.111   1.820  0.1805  0.6634 -0.6373
 1011MOL0     C33383   4.208   9.083   1.688  0.9144 -0.1793  0.2088
 1011MOL0     C33384   4.183   9.066   1.571  0.6627  0.6241  0.3433
 1011MOL0     C33385   3.716   9.473   2.083  0.1578  0.3011  0.2631
 1011MOL0     C33386   3.618   9.543   2.146 -0.0423  0.2697 -0.7091
 1011MOL0     H33387   3.194   9.672   2.219 -0.8001 -1.4342  2.0511
 1011MOL0     H33388   3.006   9.811   2.297  0.5178 -4.1756 -0.7287
 1011MOL0     H33389   3.089  10.185   2.539 -0.7965 -0.0017 -1.0824
 1011MOL0     H33390   3.048  10.054   2.652 -0.0745  2.2622  1.4069
 1011MOL0     H33391   2.864  10.228   2.506  1.5556  2.7545  0.8573
 1011MOL0     H33392   2.880  10.216   2.683 -0.7407 -1.2428  0.7316
 1011MOL0     H33393   2.784   9.985   2.676 -0.3791  0.6487  1.0341
 1011MOL0     H33394   2.743  10.025   2.504 -0.1890 -2.0133  2.2618
 1011MOL0     H33395   2.646  10.185   2.740 -0.7520  1.6018 -0.9698
 1011MOL0     H33396   2.614  10.222   2.574 -1.7282  0.0079  1.5433
 1011MOL0     H33397   2.524   9.949   2.690 -0.3889 -0.8604 -1.8983
 1011MOL0     H33398   2.475  10.032   2.546  0.1483  1.4225  0.8869
 1011MOL0     H33399   2.389  10.225   2.638  0.5660  1.1100  1.2465
 1011MOL0     H33400   2.422  10.180   2.800  0.9369 -0.2236 -0.8647
 1011MOL0     H33401   2.232   9.986   2.643  4.9657  0.8636 -1.6809
 1011MOL0     H33402   2.252  10.015   2.814  0.6906  2.3134  0.9743
 1011MOL0     H33403   2.134  10.239   2.774  1.8373  2.3782 -4.2038
 1011MOL0     H33404   2.033  10.093   2.749 -3.2766  2.5034 -2.0402
 1011MOL0     H33405   2.080  10.019   2.451 -0.8892  0.2067 -2.4459
 1011MOL0     H33406   2.078  10.284   2.150  1.8354 -0.6864 -0.8317
 1011MOL0     H33407   1.951  10.176   2.164 -0.6022  5.5902 -1.3560
 1011MOL0     H33408   2.152  10.063   2.070 -1.4631  1.4174  0.2724
 1011MOL0     H33409   2.137  10.014   2.234  0.3420 -0.9262 -0.9007
 1011MOL0     H33410   2.313  10.252   2.200 -0.8168  0.1505  1.7526
 1011MOL0     H33411   2.328  10.120   2.306 -0.2610  0.1629 -0.8441
 1011MOL0     H33412   2.426  10.105   2.024  0.1362 -0.3835 -0.7789
 1011MOL0     H33413   2.402   9.965   2.130  1.8608 -0.0854 -1.7783
 1011MOL0     H33414   2.772  10.121   2.290 -2.5305 -0.1015 -0.4157
 1011MOL0     H33415   2.983  10.046   2.201  0.5367 -3.4071  0.7480
 1011MOL0     H33416   3.340  10.008   2.131  2.6297 -2.6862  1.8935
 1011MOL0     H33417   3.574  10.001   2.043  1.0912  0.6198 -1.4488
 1011MOL0     H33418   3.730  10.011   1.674  1.4837 -1.2990 -1.1141
 1011MOL0     H33419   3.638   9.870   1.636  0.7751 -0.8474  0.0818
 1011MOL0     H33420   3.900   9.879   1.787  0.1218 -0.5177  0.9530
 1011MOL0     H33421   3.898   9.840   1.617  1.2116 -1.5685  0.5185
 1011MOL0     H33422   3.745   9.657   1.808 -0.3803 -4.1287 -2.2516
 1011MOL0     H33423   3.925   9.644   1.780  0.5419 -0.7312 -0.7932
 1011MOL0     H33424   3.704   9.661   1.570  0.9926  2.6998  1.8640
 1011MOL0     H33425   3.866   9.613   1.538 -2.3174  1.0567 -2.1024
 1011MOL0     H33426   3.839   9.417   1.684  0.7320 -2.3075 -2.2339
 1011MOL0     H33427   3.739   9.435   1.531 -5.5903  3.1964 -1.3826
 1011MOL0     H33428   3.626   9.478   1.805 -1.1711 -6.3031  2.9695
 1011MOL0     H33429   3.620   9.324   1.722 -1.5519 -0.2833  1.2067
 1011MOL0     H33430   3.499   9.590   1.641  1.2243 -0.3209 -0.5555
 1011MOL0     H33431   3.499   9.461   1.520 -1.9764 -0.3484 -0.6822
 1011MOL0     H33432   3.355   9.465   1.793  3.2996  0.4743  0.7600
 1011MOL0     H33433   3.379   9.317   1.702  2.1949  0.0652 -1.1662
 1011MOL0     H33434   3.445   9.799   1.696 -1.3187  0.4599  0.3356
 1011MOL0     H33435   3.210   9.804   1.770  1.0618 -0.4590 -0.2666
 1011MOL0     H33436   2.762   9.879   1.863  0.3823 -0.7125  0.4742
 1011MOL0     H33437   2.555   9.977   1.964  0.3551  3.0258 -0.0646
 1011MOL0     H33438   3.271  10.051   2.530 -3.8559  0.0974  1.3122
 1011MOL0     H33439   3.477   9.917   2.433  0.2544  1.1940  0.0490
 1011MOL0     H33440   3.551   9.310   2.386  1.3279 -2.6830 -0.4303
 1011MOL0     H33441   3.719   9.181   2.240  1.9979  1.0822  3.2396
 1011MOL0     H33442   4.030   9.373   2.075 -1.3530 -0.4290  0.3577
 1011MOL0     H33443   3.951   9.406   1.916 -0.5129  2.7613  1.7602
 1011MOL0     H33444   4.071   9.126   2.026  2.3049 -0.0173 -0.9559
 1011MOL0     H33445   4.000   9.148   1.863  0.5483 -0.8261 -0.3960
 1011MOL0     H33446   4.267   9.277   1.949  1.1958 -2.7987  0.4940
 1011MOL0     H33447   4.172   9.301   1.808  0.2492 -1.3495 -0.8370
 1011MOL0     H33448   4.367   9.146   1.792  0.5063  0.3586  0.1282
 1011MOL0     H33449   4.259   9.018   1.877 -4.6700 -0.7230 -3.0240
 1011MOL0     H33450   4.166   9.039   1.468 -2.5035  1.5599  0.5296
 1011MOL0     H33451   3.752   9.521   1.992 -2.4916 -1.6257 -1.9861
 1011MOL0     H33452   3.591   9.643   2.114  1.9403  1.3796  0.8464
 1012MOL0     O33453  10.885   4.228  11.072 -0.1352 -0.1686 -0.0429
 1012MOL0     C33454  10.786   4.291  11.045  0.3026 -0.9723 -0.1545
 1012MOL0     O33455  10.784   4.424  11.004 -0.5348  0.3912  0.7511
 1012MOL0     C33456  10.898   4.488  11.036  0.4393  0.3097 -0.0016
 1012MOL0     C33457  10.943   4.501  11.169  0.2019  1.0707  0.9039
 1012MOL0     C33458  11.076   4.547  11.188  0.3539  0.2060  0.3580
 1012MOL0     C33459  11.152   4.593  11.082  0.1492 -0.2561 -0.2575
 1012MOL0     O33460  11.282   4.637  11.100  0.6148 -0.4791 -0.2342
 1012MOL0     C33461  11.322   4.705  11.226 -0.2146  0.4016  0.7836
 1012MOL0     C33462  11.436   4.803  11.208  0.4188  0.3405 -0.3887
 1012MOL0     C33463  11.554   4.724  11.155 -0.8336  0.3505 -0.0420
 1012MOL0     C33464  11.697   4.786  11.172 -0.1044  0.0515 -0.1773
 1012MOL0     C33465  11.806   4.738  11.078  0.6532 -0.2421  0.1608
 1012MOL0     C33466  11.926   4.837  11.064 -0.2953 -0.0551  0.1626
 1012MOL0     C33467  12.035   4.788  10.967  0.5987 -1.1623  0.0249
 1012MOL0     C33468  12.105   4.658  11.023  0.2868  0.0078 -0.1675
 1012MOL0     N33469  12.253   4.660  11.004 -0.1821 -1.0962  0.4379
 1012MOL0     C33470  12.324   4.637  10.886 -0.0181 -0.2557 -0.3787
 1012MOL0     C33471  12.450   4.671  10.922 -1.1347  0.0597  0.0179
 1012MOL0     C33472  12.573   4.665  10.836 -0.4394 -0.6256 -0.0304
 1012MOL0     C33473  12.591   4.803  10.770 -0.8063 -0.3803 -0.1501
 1012MOL0     C33474  12.739   4.837  10.748  0.3661  0.8788 -0.7132
 1012MOL0     C33475  12.755   4.971  10.694 -1.1966 -0.8887  0.0205
 1012MOL0     O33476  12.652   5.001  10.590 -0.2260  0.2709  0.5315
 1012MOL0     C33477  12.603   5.132  10.581 -0.4120  0.3682  0.7765
 1012MOL0     C33478  12.470   5.147  10.540  0.2219  0.3133 -0.8009
 1012MOL0     C33479  12.417   5.282  10.540 -0.1277  0.1279 -0.5713
 1012MOL0     C33480  12.489   5.399  10.581 -0.6416  0.8317  0.0896
 1012MOL0     C33481  12.425   5.537  10.579 -0.8888  0.3368 -0.0787
 1012MOL0     O33482  12.486   5.631  10.652  0.1733  0.0512  0.1806
 1012MOL0     C33483  12.417   5.739  10.674  0.2228 -0.6369  0.0075
 1012MOL0     C33484  12.337   5.744  10.790 -0.2155  0.1728 -0.2473
 1012MOL0     C33485  12.242   5.848  10.794 -1.0937  0.0323 -0.7173
 1012MOL0     C33486  12.248   5.960  10.716  0.3846 -0.1591 -0.3261
 1012MOL0     O33487  12.173   6.073  10.748 -0.1875 -0.0990  0.2900
 1012MOL0     C33488  12.076   6.089  10.850 -0.6183  0.3793  0.1957
 1012MOL0     C33489  12.080   6.245  10.873  0.3020 -0.0637  0.0554
 1012MOL0     C33490  11.939   6.288  10.940 -1.3643 -0.6116 -0.7691
 1012MOL0     C33491  11.901   6.201  11.062  0.6834  0.2674  0.8049
 1012MOL0     C33492  11.767   6.240  11.128  0.5411  0.0332 -0.0381
 1012MOL0     C33493  11.653   6.235  11.033 -0.3365 -0.1030  1.1663
 1012MOL0     C33494  11.516   6.258  11.102  0.9012  0.9139 -0.1023
 1012MOL0     C33495  11.416   6.302  10.998  0.2117  0.8091  0.2169
 1012MOL0    Cl33496  11.411   6.189  10.863 -0.2568  0.0844  0.1572
 1012MOL0     C33497  12.334   5.964  10.603 -0.8050 -0.4889  0.2388
 1012MOL0     C33498  12.414   5.846  10.586 -0.1947  0.1855 -1.3765
 1012MOL0     O33499  12.315   5.543  10.520  0.0758 -0.3421 -0.0827
 1012MOL0     C33500  12.626   5.378  10.605  0.4188 -0.8315 -0.5280
 1012MOL0     C33501  12.683   5.251  10.609 -0.7775 -0.4952  0.2589
 1012MOL0     N33502  12.457   4.705  11.057 -0.1812 -0.3491 -1.1618
 1012MOL0     N33503  12.336   4.700  11.098 -0.9995  0.0601 -0.1242
 1012MOL0     C33504  11.094   4.601  10.953  0.2940  0.3985  0.6045
 1012MOL0     C33505  10.962   4.547  10.927 -0.2200  1.3427 -1.6169
 1012MOL0     C33506  10.661   4.218  11.065 -0.5474 -0.0637  0.5579
 1012MOL0     C33507  10.560   4.253  10.972  0.7980  0.4879  0.5047
 1012MOL0     C33508  10.439   4.172  10.974 -0.8575 -0.3206 -0.0523
 1012MOL0     C33509  10.426   4.065  11.069 -0.6242 -0.3053  0.0822
 1012MOL0     O33510  10.314   3.996  11.063 -0.4172  0.6660 -0.0313
 1012MOL0     C33511  10.217   4.022  11.166  0.1476 -0.2218 -0.8214
 1012MOL0     C33512  10.101   4.088  11.102 -0.0478  0.1401  0.4541
 1012MOL0     C33513   9.998   4.129  11.207  0.0236 -0.2397 -0.3495
 1012MOL0     C33514   9.898   4.015  11.252 -0.4003  0.1685  0.2534
 1012MOL0     C33515   9.791   4.009  11.153 -0.6608  0.8206  0.6233
 1012MOL0     C33516   9.692   4.010  11.090 -0.8186  0.9900 -0.0433
 1012MOL0     C33517  10.535   4.036  11.151  0.6576  0.4273  0.9876
 1012MOL0     C33518  10.648   4.115  11.153  0.3021  0.1703  0.2943
 1012MOL0     H33519  10.877   4.462  11.246  0.4794  0.7962  1.0065
 1012MOL0     H33520  11.116   4.541  11.289 -2.4800  1.8628  1.6993
 1012MOL0     H33521  11.356   4.629  11.297 -0.4301  1.0615  1.6035
 1012MOL0     H33522  11.236   4.753  11.273 -1.8759 -1.9855  0.3699
 1012MOL0     H33523  11.439   4.841  11.311 -4.5289  0.6350 -0.1302
 1012MOL0     H33524  11.407   4.885  11.142 -0.3893  2.8862  2.8816
 1012MOL0     H33525  11.551   4.706  11.047  1.8296  0.6630 -0.2223
 1012MOL0     H33526  11.552   4.630  11.210 -1.0193  0.8699  0.8625
 1012MOL0     H33527  11.682   4.894  11.160 -1.5273  0.0778  1.4181
 1012MOL0     H33528  11.731   4.771  11.275 -0.6723  1.4416  0.2386
 1012MOL0     H33529  11.767   4.736  10.976  2.6099 -0.6643 -0.6311
 1012MOL0     H33530  11.839   4.639  11.109 -0.0563 -0.4210  0.3567
 1012MOL0     H33531  11.962   4.862  11.164  0.6933 -3.5995  0.8289
 1012MOL0     H33532  11.871   4.924  11.027 -1.7525 -0.6242  0.8822
 1012MOL0     H33533  11.996   4.776  10.866  2.7944 -0.3418 -0.9946
 1012MOL0     H33534  12.106   4.871  10.966 -2.5021  1.7328  0.8441
 1012MOL0     H33535  12.046   4.575  10.984  0.3254 -1.1419  2.0871
 1012MOL0     H33536  12.088   4.660  11.131 -0.7941  3.1569 -0.2717
 1012MOL0     H33537  12.295   4.589  10.793 -0.0476  0.3764 -0.7051
 1012MOL0     H33538  12.581   4.581  10.767 -3.9907 -0.8558 -0.3604
 1012MOL0     H33539  12.652   4.647  10.910  1.7809 -2.0491 -2.5810
 1012MOL0     H33540  12.545   4.881  10.832 -1.8003 -3.0369  2.7559
 1012MOL0     H33541  12.536   4.805  10.675  0.6224  4.8504 -1.2117
 1012MOL0     H33542  12.796   4.807  10.836  0.7805 -3.3325 -2.1780
 1012MOL0     H33543  12.776   4.773  10.667  0.6027  2.6673 -2.0897
 1012MOL0     H33544  12.856   4.992  10.656 -1.6722 -0.8595 -1.2539
 1012MOL0     H33545  12.727   5.038  10.776 -2.5385  0.6527 -1.6128
 1012MOL0     H33546  12.406   5.060  10.526  1.2466 -0.2644 -2.2231
 1012MOL0     H33547  12.314   5.299  10.511  0.4297  2.5090 -1.3980
 1012MOL0     H33548  12.341   5.670  10.870  0.2335  1.0897  0.5953
 1012MOL0     H33549  12.179   5.842  10.882 -0.5622 -0.7752 -0.3785
 1012MOL0     H33550  12.111   6.038  10.941 -1.5779 -3.0187 -1.1654
 1012MOL0     H33551  11.980   6.049  10.815  0.0125 -2.6228  1.5211
 1012MOL0     H33552  12.081   6.288  10.772  0.0022  4.4010  1.7240
 1012MOL0     H33553  12.162   6.289  10.930 -0.7518  3.0888 -0.6617
 1012MOL0     H33554  11.860   6.275  10.865 -2.6777  0.7013  0.3416
 1012MOL0     H33555  11.945   6.393  10.971 -0.4784 -0.3655 -1.7148
 1012MOL0     H33556  11.875   6.106  11.014 -2.7185  1.2558  0.4012
 1012MOL0     H33557  11.980   6.210  11.137  1.3513  1.2179  0.0095
 1012MOL0     H33558  11.769   6.338  11.176  1.2718  0.9350 -1.8266
 1012MOL0     H33559  11.755   6.171  11.212  2.5610 -0.2970  0.0438
 1012MOL0     H33560  11.650   6.144  10.971 -0.9856 -1.7056  3.4403
 1012MOL0     H33561  11.668   6.312  10.956  0.9742 -0.9783  0.5212
 1012MOL0     H33562  11.477   6.169  11.153 -1.0700  0.5826 -2.0315
 1012MOL0     H33563  11.522   6.323  11.190 -2.0181 -0.2296  1.0869
 1012MOL0     H33564  11.433   6.404  10.962  1.1321  0.6457  0.1783
 1012MOL0     H33565  11.317   6.305  11.045 -0.4471  0.7820 -1.1236
 1012MOL0     H33566  12.340   6.047  10.533  0.9846 -1.1097 -0.3889
 1012MOL0     H33567  12.486   5.855  10.505 -0.4443  3.0663 -1.3950
 1012MOL0     H33568  12.694   5.458  10.632  1.0013 -1.8123  1.0547
 1012MOL0     H33569  12.782   5.238  10.653 -1.4081 -3.6246  1.0336
 1012MOL0     H33570  11.134   4.671  10.880 -0.6795  0.4908  0.1387
 1012MOL0     H33571  10.914   4.551  10.830 -2.7923  0.8459 -0.4421
 1012MOL0     H33572  10.581   4.335  10.904 -0.6779  0.6668  0.2264
 1012MOL0     H33573  10.356   4.207  10.914 -0.8449  3.3878  1.8083
 1012MOL0     H33574  10.252   4.097  11.238  3.7112 -3.0798  0.7783
 1012MOL0     H33575  10.198   3.936  11.231  1.4463 -0.6124 -0.9238
 1012MOL0     H33576  10.150   4.177  11.062  0.2084  0.0225  0.5042
 1012MOL0     H33577  10.059   4.021  11.027  1.6986  2.0863 -2.4567
 1012MOL0     H33578   9.934   4.212  11.173  0.0551 -0.8652 -2.0723
 1012MOL0     H33579  10.055   4.170  11.290  0.0748  3.6630 -2.0648
 1012MOL0     H33580   9.947   3.917  11.262  3.2036  1.8862  1.2723
 1012MOL0     H33581   9.856   4.042  11.349 -1.6762 -1.6086  0.2383
 1012MOL0     H33582   9.610   4.021  11.022 -0.1568 -3.8498 -2.0778
 1012MOL0     H33583  10.535   3.943  11.206 -0.3555  0.1775  0.5909
 1012MOL0     H33584  10.734   4.085  11.212 -0.2990  2.3034  2.3872
 1013MOL0     O33585   2.660   9.687   4.816 -0.1456 -0.2550  0.1578
 1013MOL0     C33586   2.686   9.584   4.867  0.3959  0.7282 -0.0641
 1013MOL0     O33587   2.814   9.536   4.892 -0.2878  0.2180 -0.1766
 1013MOL0     C33588   2.915   9.617   4.853 -0.5887  0.2633 -0.5823
 1013MOL0     C33589   2.980   9.597   4.729 -0.2783 -0.1146 -0.2229
 1013MOL0     C33590   3.087   9.686   4.700 -0.1378  0.1440  0.1855
 1013MOL0     C33591   3.124   9.800   4.770  0.7070 -0.5882 -1.1825
 1013MOL0     O33592   3.233   9.888   4.752 -0.1620  0.0199 -0.6346
 1013MOL0     C33593   3.342   9.828   4.681 -0.4036 -0.2681 -0.4702
 1013MOL0     C33594   3.435   9.954   4.684  0.0825 -0.3641 -0.0510
 1013MOL0     C33595   3.560   9.928   4.597  0.6238  1.2767  0.4905
 1013MOL0     C33596   3.593  10.032   4.497  0.7620  0.2992 -0.2967
 1013MOL0     C33597   3.659   9.975   4.372 -0.7330  0.0982  1.3543
 1013MOL0     C33598   3.797   9.908   4.384  0.1831 -0.0781 -0.0066
 1013MOL0     C33599   3.892   9.999   4.462  0.1562 -0.0038  0.9334
 1013MOL0     C33600   4.041   9.958   4.479  0.7831  0.7513  0.4159
 1013MOL0     N33601   4.052   9.833   4.559 -0.4878 -0.6040  0.0188
 1013MOL0     C33602   4.035   9.823   4.697  0.0544  0.7338  0.0235
 1013MOL0     C33603   4.077   9.703   4.733  0.0274  0.3881 -0.0569
 1013MOL0     C33604   4.082   9.645   4.875  0.3460 -0.4660  0.3896
 1013MOL0     C33605   3.941   9.593   4.911  0.6793  0.4476 -0.2920
 1013MOL0     C33606   3.929   9.446   4.874  0.2644  0.0351  0.4711
 1013MOL0     C33607   3.795   9.383   4.878 -0.4798 -0.0142  0.1797
 1013MOL0     O33608   3.712   9.427   4.775  0.3259  0.3849  0.3163
 1013MOL0     C33609   3.583   9.369   4.752 -0.2636 -0.3262  0.5242
 1013MOL0     C33610   3.534   9.258   4.811 -0.6230 -0.2060  0.3909
 1013MOL0     C33611   3.405   9.204   4.790 -0.2413 -0.5767 -0.1863
 1013MOL0     C33612   3.319   9.269   4.702 -0.7914  0.5233 -0.8175
 1013MOL0     C33613   3.177   9.215   4.694 -0.1500 -1.1096 -1.4964
 1013MOL0     O33614   3.091   9.306   4.634 -0.1347 -0.4582 -0.5126
 1013MOL0     C33615   2.966   9.253   4.605  0.1830 -0.0500  0.1871
 1013MOL0     C33616   2.874   9.246   4.714  0.2262  0.7002  0.3993
 1013MOL0     C33617   2.740   9.215   4.691  0.8331  0.2710  0.9451
 1013MOL0     C33618   2.702   9.176   4.565  0.2468  0.3162  0.0232
 1013MOL0     O33619   2.579   9.116   4.528  0.1437  0.1092 -0.1554
 1013MOL0     C33620   2.476   9.087   4.627  0.1356 -0.5173  0.4887
 1013MOL0     C33621   2.362   9.181   4.606  0.4110 -0.5224 -0.6827
 1013MOL0     C33622   2.297   9.167   4.471  0.2741 -0.7537  0.6030
 1013MOL0     C33623   2.239   9.033   4.452  0.5004  0.1975  0.4299
 1013MOL0     C33624   2.149   9.017   4.328 -1.0531 -0.6461  0.4639
 1013MOL0     C33625   2.148   8.875   4.279 -0.5922  0.2419 -0.4974
 1013MOL0     C33626   2.037   8.850   4.172 -0.3643 -0.0926  0.2839
 1013MOL0     C33627   2.050   8.698   4.141 -0.5658 -0.5929  0.7361
 1013MOL0    Cl33628   1.928   8.638   4.023 -0.0710 -0.0458  0.1815
 1013MOL0     C33629   2.799   9.189   4.459 -0.1055 -0.4587  0.0534
 1013MOL0     C33630   2.932   9.215   4.476  0.6365 -0.0103 -0.2701
 1013MOL0     O33631   3.154   9.104   4.744  0.0678 -0.2683  0.0831
 1013MOL0     C33632   3.368   9.382   4.637  0.1450 -0.0059 -0.2309
 1013MOL0     C33633   3.497   9.418   4.649  0.1435 -0.0762 -0.2843
 1013MOL0     N33634   4.117   9.636   4.614 -0.9398  0.5284 -0.9670
 1013MOL0     N33635   4.114   9.719   4.518  0.4214 -0.0271  0.9534
 1013MOL0     C33636   3.042   9.828   4.881 -0.0922  0.4192 -0.4974
 1013MOL0     C33637   2.939   9.735   4.923 -0.1747  0.7924 -0.1188
 1013MOL0     C33638   2.580   9.501   4.921  0.3567  0.1398  0.5421
 1013MOL0     C33639   2.451   9.515   4.876  0.5179  0.6074 -0.1657
 1013MOL0     C33640   2.347   9.426   4.929  0.0454  0.0095 -0.7767
 1013MOL0     C33641   2.380   9.324   5.024  0.3996 -0.6958 -0.4272
 1013MOL0     O33642   2.286   9.231   5.069 -0.3928  0.1142 -0.3194
 1013MOL0     C33643   2.335   9.109   5.129 -0.2821 -0.0805  0.7633
 1013MOL0     C33644   2.229   9.006   5.084 -0.0773 -0.4317  0.1289
 1013MOL0     C33645   2.097   9.021   5.171  0.8733 -0.0031  0.1967
 1013MOL0     C33646   1.980   8.949   5.099  0.4477  0.2269 -0.3723
 1013MOL0     C33647   1.908   9.033   5.002 -0.3460  0.1483  0.1834
 1013MOL0     C33648   1.834   9.092   4.927  0.9050 -1.1835 -0.5571
 1013MOL0     C33649   2.504   9.336   5.082  0.1283 -0.2055 -0.3072
 1013MOL0     C33650   2.602   9.418   5.021  0.0114  0.9660 -0.3151
 1013MOL0     H33651   2.952   9.517   4.661 -1.3547 -0.2210  0.3165
 1013MOL0     H33652   3.135   9.672   4.604 -1.5855 -1.7072 -0.3253
 1013MOL0     H33653   3.294   9.796   4.588  1.9160  1.2375 -2.2994
 1013MOL0     H33654   3.373   9.743   4.743  1.3217  1.7471  1.5915
 1013MOL0     H33655   3.454   9.965   4.791 -2.5317  1.7933  0.2815
 1013MOL0     H33656   3.381  10.037   4.638  1.2869 -0.4274 -1.7146
 1013MOL0     H33657   3.549   9.832   4.545  2.4975  1.2546  0.0622
 1013MOL0     H33658   3.633   9.904   4.675  0.0830 -1.2521  0.3157
 1013MOL0     H33659   3.500  10.076   4.459  0.9740  1.5957  0.6281
 1013MOL0     H33660   3.653  10.113   4.540  2.0215  0.2366 -1.8340
 1013MOL0     H33661   3.681  10.050   4.296  1.7636 -0.6614  1.2039
 1013MOL0     H33662   3.597   9.901   4.321  4.1130 -3.4218 -0.2597
 1013MOL0     H33663   3.837   9.893   4.283 -2.0581  0.1251 -0.9818
 1013MOL0     H33664   3.788   9.815   4.440 -1.2710  1.5685  2.6722
 1013MOL0     H33665   3.892  10.101   4.423  1.2601  0.7447  2.7735
 1013MOL0     H33666   3.856  10.012   4.564  1.3203 -0.3629  1.4027
 1013MOL0     H33667   4.100  10.043   4.513  2.8825  0.4660 -2.2398
 1013MOL0     H33668   4.079   9.938   4.379  0.7180 -0.0217  0.5387
 1013MOL0     H33669   4.004   9.901   4.765  0.6984 -0.0451  1.2526
 1013MOL0     H33670   4.101   9.729   4.942 -1.5521 -0.4964  1.0279
 1013MOL0     H33671   4.164   9.575   4.893 -1.2175 -2.0398  1.9893
 1013MOL0     H33672   3.874   9.659   4.855  0.6985  2.2878  1.6972
 1013MOL0     H33673   3.915   9.604   5.017  3.3698  0.0552  0.5086
 1013MOL0     H33674   3.966   9.424   4.773  4.3449 -3.3744  2.4219
 1013MOL0     H33675   3.994   9.394   4.945  1.9471 -0.7836 -1.5545
 1013MOL0     H33676   3.745   9.412   4.971  1.6297  3.8940  0.2871
 1013MOL0     H33677   3.798   9.273   4.881 -0.4656 -0.0041  0.7075
 1013MOL0     H33678   3.599   9.203   4.878  0.3310  0.0205 -0.3308
 1013MOL0     H33679   3.377   9.114   4.844 -0.9375 -1.9135 -2.6379
 1013MOL0     H33680   2.910   9.262   4.816 -0.8490  2.3992  0.5535
 1013MOL0     H33681   2.672   9.212   4.775  1.1255 -1.1641  1.1432
 1013MOL0     H33682   2.524   9.097   4.724  3.0120 -0.6598 -0.8063
 1013MOL0     H33683   2.441   8.985   4.607 -2.5769  0.4304 -0.0197
 1013MOL0     H33684   2.389   9.286   4.618  0.2050 -0.6671  1.3026
 1013MOL0     H33685   2.283   9.163   4.679  1.3524 -0.8319  0.2988
 1013MOL0     H33686   2.367   9.185   4.388 -0.7382 -0.8327 -0.2871
 1013MOL0     H33687   2.212   9.233   4.456  0.4090 -1.1093 -2.2882
 1013MOL0     H33688   2.310   8.950   4.441 -0.0055  0.0055 -2.1438
 1013MOL0     H33689   2.178   9.012   4.540 -1.9335  1.9426 -0.7190
 1013MOL0     H33690   2.194   9.068   4.242 -1.9102 -1.3860 -0.4449
 1013MOL0     H33691   2.048   9.050   4.352  0.3995  2.6983  2.7534
 1013MOL0     H33692   2.133   8.809   4.365 -1.8074  0.6550 -0.3800
 1013MOL0     H33693   2.247   8.842   4.246 -1.4633 -0.8430 -2.1765
 1013MOL0     H33694   1.937   8.879   4.205 -0.6324 -0.5240 -0.1318
 1013MOL0     H33695   2.057   8.904   4.079  2.0900  0.0427  0.8325
 1013MOL0     H33696   2.028   8.635   4.228 -0.0527 -1.3502  0.3296
 1013MOL0     H33697   2.149   8.668   4.108 -0.9734 -1.7165  0.4792
 1013MOL0     H33698   2.764   9.163   4.359  1.5131 -1.2413 -0.3539
 1013MOL0     H33699   3.006   9.209   4.397  1.4345  0.6777  0.4046
 1013MOL0     H33700   3.301   9.441   4.575 -1.0245 -2.0003 -0.9614
 1013MOL0     H33701   3.535   9.505   4.596  0.8868  1.8443  3.0898
 1013MOL0     H33702   3.069   9.916   4.938  0.8335  1.4970 -2.4637
 1013MOL0     H33703   2.895   9.751   5.021 -1.1043 -2.2658  0.0655
 1013MOL0     H33704   2.421   9.588   4.802 -3.4227  0.4317  1.0346
 1013MOL0     H33705   2.246   9.436   4.891 -0.8011 -0.5602  1.2030
 1013MOL0     H33706   2.363   9.104   5.235 -1.0842 -1.9753  0.9311
 1013MOL0     H33707   2.421   9.077   5.070 -0.9790 -0.8206  0.1183
 1013MOL0     H33708   2.205   9.027   4.979 -1.4187  2.4423  0.9111
 1013MOL0     H33709   2.275   8.908   5.095  3.7551  0.8850 -2.0349
 1013MOL0     H33710   2.069   9.125   5.190 -1.3413 -0.3559 -0.8094
 1013MOL0     H33711   2.104   8.965   5.265 -1.0275  1.1302  1.0760
 1013MOL0     H33712   2.026   8.866   5.046  4.5388  1.2833  1.1598
 1013MOL0     H33713   1.905   8.911   5.168  0.8517 -1.1543 -0.6664
 1013MOL0     H33714   1.788   9.161   4.859 -1.3549 -0.3207  1.6793
 1013MOL0     H33715   2.533   9.291   5.176  0.9224 -0.7784 -0.8070
 1013MOL0     H33716   2.707   9.413   5.048 -0.6954 -0.5964  2.4589
 1014MOL0     O33717   7.958   0.042   1.827  0.5377 -0.2602 -0.7996
 1014MOL0     C33718   8.052   0.002   1.897  1.1069 -0.6277 -0.5016
 1014MOL0     O33719   8.040  -0.083   2.008  0.9636 -0.6525  0.0725
 1014MOL0     C33720   7.913  -0.121   2.034  0.1779 -0.1050 -0.9104
 1014MOL0     C33721   7.809  -0.049   2.087  0.2181 -0.1387 -0.8192
 1014MOL0     C33722   7.685  -0.111   2.118 -0.2913 -0.0289  0.7225
 1014MOL0     C33723   7.663  -0.245   2.091  0.1370  0.0494 -0.5275
 1014MOL0     O33724   7.543  -0.321   2.114 -0.3833  0.1960 -0.5437
 1014MOL0     C33725   7.424  -0.249   2.146  0.9411 -1.2547  0.1191
 1014MOL0     C33726   7.313  -0.345   2.197 -0.5788 -0.4467 -0.3877
 1014MOL0     C33727   7.318  -0.353   2.345  0.2927 -0.2025 -0.1690
 1014MOL0     C33728   7.254  -0.490   2.396  0.0660 -0.1915  0.2693
 1014MOL0     C33729   7.215  -0.486   2.547  0.2031  0.3687 -0.4229
 1014MOL0     C33730   7.110  -0.602   2.576 -0.1491 -0.8197 -0.2105
 1014MOL0     C33731   7.052  -0.579   2.713 -0.2588 -0.7044  0.2157
 1014MOL0     C33732   6.971  -0.698   2.763 -0.6638  0.3032  0.3681
 1014MOL0     N33733   6.828  -0.673   2.744 -0.0414  0.5690 -0.0193
 1014MOL0     C33734   6.741  -0.583   2.800  0.7761 -0.1208  0.2488
 1014MOL0     C33735   6.623  -0.608   2.736  0.3046  0.0135  0.3282
 1014MOL0     C33736   6.491  -0.537   2.766  0.3026 -0.7623  0.4743
 1014MOL0     C33737   6.412  -0.608   2.868 -0.0822 -0.4548 -0.0411
 1014MOL0     C33738   6.280  -0.539   2.883  1.3068  0.5597  0.4338
 1014MOL0     C33739   6.159  -0.623   2.947 -0.6248  0.0378  0.4496
 1014MOL0     O33740   6.040  -0.546   2.907 -0.2323  0.0715  0.1005
 1014MOL0     C33741   5.926  -0.566   2.972  1.2270 -0.0953 -0.1253
 1014MOL0     C33742   5.833  -0.466   2.949 -1.0861  0.1479  0.0661
 1014MOL0     C33743   5.702  -0.470   3.009 -1.0186 -0.7836  0.2898
 1014MOL0     C33744   5.663  -0.576   3.088 -0.4647 -0.1350 -0.1689
 1014MOL0     C33745   5.528  -0.580   3.157  0.4862 -0.1700 -0.1576
 1014MOL0     O33746   5.464  -0.461   3.174 -0.5836 -0.4739  0.5350
 1014MOL0     C33747   5.349  -0.462   3.237  0.2199 -1.4280  0.1203
 1014MOL0     C33748   5.337  -0.501   3.368 -0.2712 -0.2187 -0.5429
 1014MOL0     C33749   5.211  -0.480   3.431  0.1845 -0.4177 -0.0817
 1014MOL0     C33750   5.099  -0.434   3.371 -0.4822  1.0522 -0.1154
 1014MOL0     O33751   4.978  -0.440   3.433  0.5996  1.3085 -0.6095
 1014MOL0     C33752   4.967  -0.381   3.563  0.6201  0.2566 -0.0235
 1014MOL0     C33753   4.917  -0.238   3.559 -0.8374  0.5629 -1.7126
 1014MOL0     C33754   4.918  -0.186   3.703  0.7419 -0.2438 -0.0103
 1014MOL0     C33755   4.868  -0.039   3.718  0.0793 -0.3507  0.6402
 1014MOL0     C33756   4.817  -0.015   3.867 -0.5328 -0.2522  0.3687
 1014MOL0     C33757   4.781   0.135   3.894 -0.6113 -0.2436  0.8046
 1014MOL0     C33758   4.734   0.160   4.037  0.3525 -0.6807 -0.1892
 1014MOL0     C33759   4.838   0.191   4.135  0.6704  0.6584 -0.7771
 1014MOL0    Cl33760   4.790   0.164   4.303 -0.1959 -0.1710 -0.2303
 1014MOL0     C33761   5.115  -0.399   3.239  0.4050 -0.5240  0.3365
 1014MOL0     C33762   5.236  -0.399   3.175  0.1829  0.1931  0.8722
 1014MOL0     O33763   5.485  -0.693   3.186  0.2003 -0.8984 -0.5686
 1014MOL0     C33764   5.751  -0.694   3.095 -0.7175 -1.0324  0.2343
 1014MOL0     C33765   5.887  -0.685   3.041  0.1529 -0.5579  0.7284
 1014MOL0     N33766   6.648  -0.703   2.637  0.6891  0.6021  0.8054
 1014MOL0     N33767   6.763  -0.754   2.652  0.6239 -0.2073 -0.3017
 1014MOL0     C33768   7.768  -0.320   2.043  0.2249  0.3837  0.3422
 1014MOL0     C33769   7.891  -0.257   2.011  0.0995  0.2617 -0.9835
 1014MOL0     C33770   8.190   0.034   1.856  0.5912 -1.3254  0.3399
 1014MOL0     C33771   8.220   0.092   1.734 -0.6214 -0.1770 -0.5043
 1014MOL0     C33772   8.346   0.131   1.688  0.8141 -0.5935  0.3929
 1014MOL0     C33773   8.450   0.112   1.779  0.1840 -0.2015 -0.8464
 1014MOL0     O33774   8.580   0.144   1.741 -0.6019  0.3537 -0.6543
 1014MOL0     C33775   8.642   0.031   1.680 -0.1830  0.6268  0.5259
 1014MOL0     C33776   8.738   0.073   1.579  0.3904  0.3294 -0.5029
 1014MOL0     C33777   8.832   0.178   1.627 -0.3255  0.0257 -0.5529
 1014MOL0     C33778   8.946   0.214   1.532 -0.3053 -0.0875  0.0137
 1014MOL0     C33779   9.049   0.113   1.555  0.0017  0.3579  0.2999
 1014MOL0     C33780   9.126   0.019   1.566 -0.7777  0.4967  0.3367
 1014MOL0     C33781   8.434   0.044   1.905  0.1276 -0.6496 -0.6525
 1014MOL0     C33782   8.300   0.013   1.947 -0.7593  0.7860 -0.2844
 1014MOL0     H33783   7.841   0.053   2.108  0.9102 -0.5082 -0.0363
 1014MOL0     H33784   7.608  -0.055   2.171 -0.3877 -0.7451  1.3563
 1014MOL0     H33785   7.378  -0.204   2.058 -0.0601 -0.3858  1.0554
 1014MOL0     H33786   7.443  -0.181   2.230 -0.1056 -0.5491 -0.1971
 1014MOL0     H33787   7.321  -0.445   2.152  1.8477 -0.9216  0.9255
 1014MOL0     H33788   7.226  -0.288   2.165  0.4239  2.4827  1.7181
 1014MOL0     H33789   7.254  -0.272   2.380  1.8100  1.2248 -0.5942
 1014MOL0     H33790   7.415  -0.338   2.393  0.2379 -1.7297  0.4664
 1014MOL0     H33791   7.166  -0.521   2.339  2.3950 -0.4662 -3.4746
 1014MOL0     H33792   7.319  -0.575   2.377 -0.4010 -0.0897 -2.0869
 1014MOL0     H33793   7.178  -0.390   2.583  1.4071 -0.1410  2.4554
 1014MOL0     H33794   7.306  -0.495   2.607 -0.0286 -1.3831 -0.2848
 1014MOL0     H33795   7.175  -0.689   2.588  1.3673  0.5945  3.1447
 1014MOL0     H33796   7.025  -0.597   2.507 -0.5231  0.7768  0.3202
 1014MOL0     H33797   7.144  -0.566   2.771  2.4002 -1.7493 -3.3686
 1014MOL0     H33798   6.992  -0.488   2.719 -3.0424 -2.4907  1.8469
 1014MOL0     H33799   6.988  -0.713   2.870 -0.1688 -0.9792  0.1231
 1014MOL0     H33800   7.002  -0.792   2.716 -1.7124  0.6216 -1.0202
 1014MOL0     H33801   6.768  -0.499   2.863  2.1205  0.0457 -0.5226
 1014MOL0     H33802   6.438  -0.543   2.670 -0.2077  0.7318  0.6440
 1014MOL0     H33803   6.510  -0.433   2.795 -0.1293 -0.7667  0.7817
 1014MOL0     H33804   6.462  -0.601   2.965  1.6473 -1.4141 -0.8198
 1014MOL0     H33805   6.403  -0.712   2.836  0.1436 -0.2570 -0.7689
 1014MOL0     H33806   6.288  -0.457   2.955 -1.8846  0.0998  1.4641
 1014MOL0     H33807   6.248  -0.499   2.787  1.3386  0.3017  0.3138
 1014MOL0     H33808   6.178  -0.637   3.053  1.1876 -1.4463 -0.0263
 1014MOL0     H33809   6.155  -0.719   2.894 -1.5761  0.4430 -0.2547
 1014MOL0     H33810   5.865  -0.377   2.897  0.7285 -0.2975  0.3414
 1014MOL0     H33811   5.636  -0.385   2.999  0.2642  0.0374 -1.9772
 1014MOL0     H33812   5.420  -0.548   3.419 -0.5788  0.7424  0.8895
 1014MOL0     H33813   5.207  -0.527   3.529  1.7060 -0.6160 -0.0825
 1014MOL0     H33814   5.058  -0.392   3.624  0.0450 -0.0970  0.7844
 1014MOL0     H33815   4.889  -0.428   3.623 -0.6063  0.9774 -1.0098
 1014MOL0     H33816   4.815  -0.242   3.519 -1.6557  1.5153  0.1373
 1014MOL0     H33817   4.978  -0.186   3.485  2.6449 -1.6279 -0.6202
 1014MOL0     H33818   5.016  -0.194   3.751  1.3766 -1.8399 -1.4735
 1014MOL0     H33819   4.853  -0.254   3.760 -0.0201  1.0235  0.6899
 1014MOL0     H33820   4.953   0.029   3.703  0.5059 -0.8714  0.6703
 1014MOL0     H33821   4.784  -0.023   3.651  1.0671  0.9036 -0.3707
 1014MOL0     H33822   4.894  -0.020   3.945 -0.9109  2.0762  0.9752
 1014MOL0     H33823   4.739  -0.084   3.898 -0.0117 -1.0800 -0.0996
 1014MOL0     H33824   4.702   0.162   3.824  0.0288 -1.2786 -0.3617
 1014MOL0     H33825   4.861   0.207   3.873 -0.3755  0.4291  3.6059
 1014MOL0     H33826   4.674   0.251   4.047 -0.8293 -1.6859  4.4510
 1014MOL0     H33827   4.676   0.077   4.079  0.4411  0.2149  1.8148
 1014MOL0     H33828   4.869   0.294   4.115  2.0122  0.2949 -0.6530
 1014MOL0     H33829   4.924   0.126   4.120  2.1855  2.4542 -0.2000
 1014MOL0     H33830   5.043  -0.338   3.185 -0.0317 -0.7811  0.6261
 1014MOL0     H33831   5.245  -0.344   3.082 -1.2382  0.4986  0.8949
 1014MOL0     H33832   5.719  -0.777   3.157  0.7975 -0.9494  1.1953
 1014MOL0     H33833   5.960  -0.765   3.044  1.9778  0.8908 -1.5158
 1014MOL0     H33834   7.741  -0.422   2.020 -2.4572  0.9593  0.6357
 1014MOL0     H33835   7.964  -0.321   1.963  1.2080  0.9498 -0.2554
 1014MOL0     H33836   8.138   0.101   1.663 -0.9691  0.0279 -0.0812
 1014MOL0     H33837   8.355   0.168   1.587 -0.5673 -1.9339 -0.2644
 1014MOL0     H33838   8.566  -0.032   1.633 -1.1691  1.9630  0.2741
 1014MOL0     H33839   8.696  -0.032   1.751 -0.5196 -3.9126 -2.8004
 1014MOL0     H33840   8.788  -0.020   1.553 -3.8864 -3.2790  2.6274
 1014MOL0     H33841   8.686   0.122   1.496  1.5839  0.1030 -1.4064
 1014MOL0     H33842   8.872   0.156   1.726 -1.7393  1.9446  0.5185
 1014MOL0     H33843   8.790   0.279   1.638  0.3341  0.4862 -1.9405
 1014MOL0     H33844   8.906   0.206   1.430  2.0511  0.0474 -1.0012
 1014MOL0     H33845   8.987   0.312   1.557  0.7993 -0.8267  1.2111
 1014MOL0     H33846   9.190  -0.067   1.565 -0.3140  0.8352 -0.9237
 1014MOL0     H33847   8.513   0.036   1.979  1.2713  0.2161 -1.7496
 1014MOL0     H33848   8.282  -0.034   2.044  0.5734  1.3669  0.2728
 1015MOL0     O33849   9.120   6.246   8.698 -0.3150 -0.3388  0.7614
 1015MOL0     C33850   9.123   6.359   8.641 -0.1503  0.8117  0.1659
 1015MOL0     O33851   9.022   6.450   8.643 -0.0215 -0.2053  0.4442
 1015MOL0     C33852   8.925   6.430   8.745 -0.7131  0.5770  1.0119
 1015MOL0     C33853   8.795   6.397   8.692  0.2475  0.4023  0.4514
 1015MOL0     C33854   8.702   6.363   8.789  0.0523 -0.5361 -0.2078
 1015MOL0     C33855   8.727   6.366   8.929  0.9400  0.0776 -0.6643
 1015MOL0     O33856   8.620   6.340   9.011 -0.0193 -0.5846  0.1504
 1015MOL0     C33857   8.612   6.370   9.151  0.1648  0.5140  0.1744
 1015MOL0     C33858   8.497   6.285   9.206 -0.0527  0.2211  0.0609
 1015MOL0     C33859   8.378   6.265   9.106 -0.0567 -0.4367 -0.7086
 1015MOL0     C33860   8.267   6.171   9.160 -0.1830 -0.0330  0.3827
 1015MOL0     C33861   8.156   6.177   9.057  0.3763 -0.4445 -0.4614
 1015MOL0     C33862   8.033   6.097   9.110  0.0853 -0.7700  0.2964
 1015MOL0     C33863   8.055   5.956   9.135  0.4081 -0.0072 -0.3352
 1015MOL0     C33864   7.920   5.893   9.156  0.1301 -0.2527  0.7195
 1015MOL0     N33865   7.840   5.934   9.275  0.0576  0.5702 -0.0079
 1015MOL0     C33866   7.752   6.041   9.285  0.2379 -1.0343 -0.0097
 1015MOL0     C33867   7.700   6.032   9.407  0.3784 -0.1520  0.3212
 1015MOL0     C33868   7.583   6.110   9.455 -0.1070 -0.1698  0.5851
 1015MOL0     C33869   7.455   6.047   9.408 -0.8438  0.1182  0.0881
 1015MOL0     C33870   7.341   6.117   9.480 -0.0114  0.8208 -0.7487
 1015MOL0     C33871   7.206   6.078   9.423  0.7981 -0.7947  0.4518
 1015MOL0     O33872   7.115   6.153   9.501  0.0528 -0.1551 -0.1211
 1015MOL0     C33873   6.978   6.143   9.468  0.4412  0.6049 -0.4096
 1015MOL0     C33874   6.928   6.080   9.346 -0.1808 -0.2714  0.0106
 1015MOL0     C33875   6.787   6.074   9.320 -0.3237  0.4788 -0.2978
 1015MOL0     C33876   6.697   6.129   9.411  0.5186 -0.4295  0.0761
 1015MOL0     C33877   6.547   6.137   9.379 -0.3901  0.7294 -0.7884
 1015MOL0     O33878   6.467   6.145   9.487  0.4219  0.3549 -0.0250
 1015MOL0     C33879   6.336   6.173   9.462 -0.5239 -0.4209  0.2949
 1015MOL0     C33880   6.252   6.096   9.387  0.3126  0.2075 -0.6139
 1015MOL0     C33881   6.115   6.130   9.366  0.4268  0.6815 -0.1915
 1015MOL0     C33882   6.058   6.244   9.426  0.0415 -0.8947 -0.0197
 1015MOL0     O33883   5.927   6.267   9.398  0.3621  0.2296 -0.6976
 1015MOL0     C33884   5.843   6.308   9.508  0.0854  0.2125  0.0109
 1015MOL0     C33885   5.695   6.337   9.456 -0.2513  0.6305 -0.2547
 1015MOL0     C33886   5.615   6.411   9.562 -0.2203  0.0727 -0.4380
 1015MOL0     C33887   5.474   6.442   9.508  0.6381 -0.0631 -0.9316
 1015MOL0     C33888   5.378   6.499   9.620  0.2979 -0.0574 -0.3060
 1015MOL0     C33889   5.425   6.619   9.689 -0.6641 -0.8013  0.0534
 1015MOL0     C33890   5.462   6.732   9.586 -0.3611 -0.0202  0.0515
 1015MOL0     C33891   5.458   6.878   9.633  0.1601 -0.4569  0.0226
 1015MOL0    Cl33892   5.472   6.990   9.496  0.2461 -0.0586 -0.2162
 1015MOL0     C33893   6.142   6.314   9.514 -0.2954 -0.7475 -0.2421
 1015MOL0     C33894   6.278   6.287   9.532  0.3154  0.5736 -0.0925
 1015MOL0     O33895   6.516   6.144   9.268 -0.2666 -0.1088  0.4740
 1015MOL0     C33896   6.744   6.185   9.532 -0.2721 -0.4656  0.1050
 1015MOL0     C33897   6.887   6.186   9.566  0.6575  0.5643 -0.1413
 1015MOL0     N33898   7.757   5.920   9.477 -0.2695  0.6698  0.2639
 1015MOL0     N33899   7.841   5.867   9.392  0.1975 -0.8978 -0.1024
 1015MOL0     C33900   8.846   6.412   8.972  0.5135 -0.3379  0.0035
 1015MOL0     C33901   8.954   6.435   8.880 -0.2541 -0.0668 -0.2531
 1015MOL0     C33902   9.238   6.398   8.562 -0.2594 -0.5696 -0.0454
 1015MOL0     C33903   9.349   6.318   8.542 -0.6464  0.0355  0.7449
 1015MOL0     C33904   9.465   6.365   8.463  0.5169  0.7357  0.4615
 1015MOL0     C33905   9.463   6.496   8.417 -0.2853 -0.2505  0.5581
 1015MOL0     O33906   9.576   6.546   8.362 -0.0815  0.3830  0.0984
 1015MOL0     C33907   9.572   6.550   8.220 -0.8209  0.4686  0.5679
 1015MOL0     C33908   9.716   6.582   8.155 -0.2841 -0.1924  0.0318
 1015MOL0     C33909   9.719   6.654   8.023 -0.4110  0.8610 -0.4891
 1015MOL0     C33910   9.848   6.645   7.946  0.1855 -0.2601  0.4123
 1015MOL0     C33911   9.967   6.680   8.022 -0.1400  0.3459  0.5241
 1015MOL0     C33912  10.057   6.713   8.095  0.2713 -0.4781 -0.1094
 1015MOL0     C33913   9.350   6.576   8.437 -0.2877 -0.4013 -0.1636
 1015MOL0     C33914   9.241   6.530   8.509 -0.2975  0.2937 -0.1594
 1015MOL0     H33915   8.779   6.394   8.585 -1.2169  1.4122  0.6209
 1015MOL0     H33916   8.604   6.332   8.754 -0.0064  0.6941 -1.2144
 1015MOL0     H33917   8.587   6.476   9.164 -4.8505  0.0210 -2.7913
 1015MOL0     H33918   8.711   6.347   9.191  0.2239 -2.5564 -1.4466
 1015MOL0     H33919   8.463   6.331   9.299 -1.7928  0.5028 -0.6800
 1015MOL0     H33920   8.546   6.189   9.221 -0.4186 -0.1406 -0.9630
 1015MOL0     H33921   8.420   6.220   9.015  0.5093 -0.8701 -0.2478
 1015MOL0     H33922   8.346   6.363   9.071 -0.9030 -0.6910 -0.6624
 1015MOL0     H33923   8.304   6.069   9.172 -0.9587 -0.4271 -0.4568
 1015MOL0     H33924   8.228   6.201   9.258  1.6489 -0.9383  1.4314
 1015MOL0     H33925   8.180   6.124   8.964 -3.6224  0.2854 -2.1327
 1015MOL0     H33926   8.127   6.281   9.040 -0.0354 -0.6525 -1.0683
 1015MOL0     H33927   7.957   6.110   9.031  0.0714 -0.2690  0.3898
 1015MOL0     H33928   8.006   6.146   9.204  2.0255 -3.2980  2.3293
 1015MOL0     H33929   8.102   5.913   9.046 -1.0284 -1.8980 -0.2544
 1015MOL0     H33930   8.117   5.942   9.224  1.4163  2.5837 -0.5508
 1015MOL0     H33931   7.945   5.787   9.161  1.3899 -0.2609 -2.6978
 1015MOL0     H33932   7.865   5.897   9.061  4.4045  3.4639 -2.0369
 1015MOL0     H33933   7.726   6.115   9.210 -0.1998 -0.8037  0.3711
 1015MOL0     H33934   7.587   6.215   9.424  0.6923  0.1726  1.7526
 1015MOL0     H33935   7.586   6.112   9.565  0.9290  0.1514  0.5639
 1015MOL0     H33936   7.458   5.942   9.438 -2.8178  0.4201  1.5691
 1015MOL0     H33937   7.440   6.048   9.300  3.3091  2.4354 -0.6597
 1015MOL0     H33938   7.338   6.089   9.585 -1.1775  4.0590  0.1996
 1015MOL0     H33939   7.344   6.225   9.461 -2.0931  1.5562  2.3763
 1015MOL0     H33940   7.180   5.972   9.428 -1.5265 -0.2190  2.7773
 1015MOL0     H33941   7.203   6.098   9.315 -3.8873 -0.8346  0.3693
 1015MOL0     H33942   6.997   6.042   9.271  3.4496  0.8729  2.4650
 1015MOL0     H33943   6.753   6.025   9.230 -0.2484  0.6542 -0.4227
 1015MOL0     H33944   6.280   6.004   9.338  0.3469  1.1577 -2.4652
 1015MOL0     H33945   6.049   6.071   9.303  0.7590 -0.0899  0.1695
 1015MOL0     H33946   5.890   6.395   9.554  0.6816 -1.3607  2.5498
 1015MOL0     H33947   5.850   6.219   9.570 -0.1724 -1.6873 -2.5268
 1015MOL0     H33948   5.642   6.244   9.433  1.9910 -1.3708  1.9926
 1015MOL0     H33949   5.696   6.397   9.364 -1.1230  0.4019 -0.4197
 1015MOL0     H33950   5.662   6.502   9.602 -0.8364  1.4180 -2.6070
 1015MOL0     H33951   5.598   6.335   9.638  2.9485 -3.6087 -3.0156
 1015MOL0     H33952   5.464   6.497   9.414 -0.4105 -3.2164 -2.8054
 1015MOL0     H33953   5.427   6.346   9.486  1.3444 -1.2740  2.2487
 1015MOL0     H33954   5.346   6.427   9.696 -2.2774  1.2067 -0.0596
 1015MOL0     H33955   5.285   6.535   9.575  0.6025 -1.3951 -2.1137
 1015MOL0     H33956   5.511   6.597   9.752 -1.2450  1.2004  1.6272
 1015MOL0     H33957   5.356   6.659   9.764  0.1288 -0.5037  0.6350
 1015MOL0     H33958   5.566   6.727   9.554 -0.5021 -1.4798 -0.2648
 1015MOL0     H33959   5.402   6.732   9.495  2.9485 -2.8276 -2.3859
 1015MOL0     H33960   5.527   6.899   9.714 -0.6529 -1.2311  0.9473
 1015MOL0     H33961   5.355   6.891   9.668 -0.8537  2.0557 -3.3461
 1015MOL0     H33962   6.103   6.399   9.569  3.2900  0.5190  0.5641
 1015MOL0     H33963   6.338   6.331   9.611  1.3389 -2.2639  0.8314
 1015MOL0     H33964   6.671   6.238   9.591 -1.2488  1.9671 -3.0287
 1015MOL0     H33965   6.914   6.228   9.663 -1.5314  3.9027 -0.8130
 1015MOL0     H33966   8.860   6.436   9.077  0.0408 -0.9069  0.2045
 1015MOL0     H33967   9.056   6.457   8.911 -1.2119  4.6779  0.2341
 1015MOL0     H33968   9.346   6.213   8.569 -3.7769 -0.2766 -0.3526
 1015MOL0     H33969   9.557   6.308   8.458  1.3735  2.1568 -1.5606
 1015MOL0     H33970   9.500   6.624   8.183  0.9695  1.8556 -0.2915
 1015MOL0     H33971   9.529   6.456   8.186 -0.8138  0.4023  0.7419
 1015MOL0     H33972   9.766   6.655   8.221 -1.9664  0.1365  1.0017
 1015MOL0     H33973   9.778   6.494   8.141  2.0571  1.3490  0.0816
 1015MOL0     H33974   9.695   6.757   8.050  0.8950  0.8710  0.7990
 1015MOL0     H33975   9.638   6.616   7.961 -0.5653 -0.0742  0.2649
 1015MOL0     H33976   9.857   6.543   7.906  2.2611  0.0874 -0.1406
 1015MOL0     H33977   9.835   6.707   7.857  2.2154 -2.1721 -1.3417
 1015MOL0     H33978  10.129   6.757   8.160  0.4670 -2.1888  0.9059
 1015MOL0     H33979   9.338   6.678   8.401 -0.2426 -1.1925 -2.5802
 1015MOL0     H33980   9.160   6.601   8.517 -0.8102  0.0567 -2.5557
 1016MOL0     O33981   1.728   0.158   1.353 -0.0259 -0.0840  0.6402
 1016MOL0     C33982   1.762   0.202   1.456  0.1539 -0.4470 -1.5320
 1016MOL0     O33983   1.680   0.224   1.567  0.0056  0.0968  0.1203
 1016MOL0     C33984   1.550   0.185   1.544 -0.2362  0.3762 -1.0992
 1016MOL0     C33985   1.460   0.270   1.482  0.0068  0.1829  0.5043
 1016MOL0     C33986   1.319   0.232   1.468 -0.5252 -0.0702 -0.3796
 1016MOL0     C33987   1.278   0.114   1.529  0.0741  0.2198  0.2598
 1016MOL0     O33988   1.151   0.083   1.517 -0.2221  0.3946 -0.8114
 1016MOL0     C33989   1.106  -0.029   1.591 -0.1040  0.4007 -0.1695
 1016MOL0     C33990   0.955  -0.033   1.556 -0.2593  0.7335 -1.3272
 1016MOL0     C33991   0.919  -0.187   1.567  0.1762 -0.0653  0.2985
 1016MOL0     C33992   0.765  -0.198   1.571  0.3519 -0.6521 -0.0756
 1016MOL0     C33993   0.721  -0.339   1.552  0.2486 -0.2659 -0.3799
 1016MOL0     C33994   0.594  -0.354   1.467 -0.3493  0.2620 -0.2787
 1016MOL0     C33995   0.557  -0.501   1.462 -0.0932  0.2971  0.3948
 1016MOL0     C33996   0.646  -0.584   1.359  0.7119 -0.6151  1.1857
 1016MOL0     N33997   0.595  -0.720   1.352 -1.1709  0.4708 -0.3713
 1016MOL0     C33998   0.462  -0.764   1.324  0.1900 -0.9766 -0.4801
 1016MOL0     C33999   0.465  -0.904   1.315  1.6224 -0.3159 -0.2886
 1016MOL0     C34000   0.346  -0.984   1.285 -0.2578 -0.3695  0.1014
 1016MOL0     C34001   0.364  -1.030   1.137 -0.7095  0.1395 -0.8724
 1016MOL0     C34002   0.336  -0.920   1.024 -0.3621  0.2955 -0.4077
 1016MOL0     C34003   0.203  -0.838   1.043  1.1716 -0.3763 -0.0025
 1016MOL0     O34004   0.213  -0.727   0.950 -0.4511  0.1746 -0.1139
 1016MOL0     C34005   0.097  -0.658   0.928  0.8524 -0.0679 -1.0717
 1016MOL0     C34006   0.088  -0.574   0.817 -1.3215 -0.2575 -0.1606
 1016MOL0     C34007  -0.029  -0.497   0.799 -0.0923 -0.0720  0.1822
 1016MOL0     C34008  -0.140  -0.509   0.873 -0.3185 -0.0839 -0.4639
 1016MOL0     C34009  -0.271  -0.443   0.842  0.3516 -0.3291  0.0377
 1016MOL0     O34010  -0.272  -0.336   0.767 -0.3021  0.9687 -0.2070
 1016MOL0     C34011  -0.390  -0.283   0.727 -0.3827  0.3599  0.3741
 1016MOL0     C34012  -0.424  -0.282   0.592  0.6000 -0.8979  0.1457
 1016MOL0     C34013  -0.545  -0.232   0.553  0.0018  0.0017  0.3231
 1016MOL0     C34014  -0.633  -0.174   0.635  0.4832  0.3915 -0.4040
 1016MOL0     O34015  -0.752  -0.127   0.582  0.0949  0.6631  0.2836
 1016MOL0     C34016  -0.827  -0.041   0.660  0.1131  0.9161  0.9590
 1016MOL0     C34017  -0.959  -0.007   0.590 -0.3191 -0.7275  0.6024
 1016MOL0     C34018  -0.959   0.049   0.450  0.8124 -0.3771  0.1606
 1016MOL0     C34019  -1.107   0.071   0.420  0.0110  0.1012 -0.1551
 1016MOL0     C34020  -1.137   0.181   0.317  0.5096  0.7786  1.0501
 1016MOL0     C34021  -1.099   0.133   0.176 -0.2145 -0.0613 -0.3008
 1016MOL0     C34022  -1.092   0.243   0.078 -0.4825 -0.9467  0.0267
 1016MOL0     C34023  -1.219   0.313   0.025  0.6730 -0.4543 -0.4878
 1016MOL0    Cl34024  -1.173   0.440  -0.081  0.1157 -0.3772  0.2346
 1016MOL0     C34025  -0.595  -0.156   0.767 -0.1299  0.0676  0.8906
 1016MOL0     C34026  -0.476  -0.221   0.811  0.8837  0.6775  0.5891
 1016MOL0     O34027  -0.367  -0.486   0.905 -0.1896 -0.7773  0.2328
 1016MOL0     C34028  -0.130  -0.595   0.987  0.3325  0.3545 -0.4278
 1016MOL0     C34029  -0.013  -0.664   1.020  0.0023  0.6479  0.0629
 1016MOL0     N34030   0.599  -0.937   1.329 -0.3905 -0.6117 -0.9711
 1016MOL0     N34031   0.675  -0.833   1.355  0.5288  0.5258 -0.0259
 1016MOL0     C34032   1.371   0.036   1.604  0.0535 -0.2170 -1.2859
 1016MOL0     C34033   1.505   0.071   1.605  0.1080 -0.6521 -0.6775
 1016MOL0     C34034   1.912   0.229   1.478 -0.3003 -0.6725  0.6775
 1016MOL0     C34035   2.011   0.204   1.373  0.2094  0.0815 -0.3615
 1016MOL0     C34036   2.144   0.234   1.391  0.1474 -0.4013 -0.5140
 1016MOL0     C34037   2.189   0.281   1.515 -0.3470  0.4072 -0.1580
 1016MOL0     O34038   2.324   0.310   1.543 -0.0724 -0.1395 -0.6127
 1016MOL0     C34039   2.415   0.253   1.448  1.0408  0.2521 -0.8543
 1016MOL0     C34040   2.549   0.292   1.491 -0.3066 -0.3113 -0.7235
 1016MOL0     C34041   2.659   0.241   1.391  0.3838  0.5667  1.0394
 1016MOL0     C34042   2.789   0.292   1.442 -0.6159 -0.4758 -0.6144
 1016MOL0     C34043   2.831   0.401   1.354  0.1804  0.1158 -0.3124
 1016MOL0     C34044   2.879   0.495   1.286  0.4022 -0.5168  0.0140
 1016MOL0     C34045   2.102   0.304   1.617  0.3814  0.5899  0.1035
 1016MOL0     C34046   1.965   0.268   1.605  0.3848 -0.0602  0.6155
 1016MOL0     H34047   1.503   0.365   1.451  1.9503 -0.3809  1.3020
 1016MOL0     H34048   1.250   0.288   1.407 -0.6333  1.2266  0.8968
 1016MOL0     H34049   1.119  -0.026   1.700  3.5699 -0.1169 -0.4670
 1016MOL0     H34050   1.164  -0.113   1.553  0.8214  0.4319  1.1077
 1016MOL0     H34051   0.915   0.005   1.461 -3.0609 -0.4125 -0.7030
 1016MOL0     H34052   0.912   0.027   1.637  1.7298  1.8554 -1.0306
 1016MOL0     H34053   0.958  -0.222   1.663 -0.9166  3.0590  2.0297
 1016MOL0     H34054   0.968  -0.240   1.484  1.7471  0.6021  0.7694
 1016MOL0     H34055   0.717  -0.146   1.654 -0.0944 -0.2873 -0.5570
 1016MOL0     H34056   0.733  -0.137   1.485  0.3556  2.8489  2.2188
 1016MOL0     H34057   0.709  -0.383   1.651  1.4301  2.3231  1.0171
 1016MOL0     H34058   0.802  -0.380   1.491  0.1034 -0.1281 -0.6683
 1016MOL0     H34059   0.608  -0.330   1.361  1.5284  0.1032 -0.1095
 1016MOL0     H34060   0.506  -0.302   1.506 -0.6124 -1.3647  1.4075
 1016MOL0     H34061   0.552  -0.554   1.557 -0.2454 -1.4906 -0.5743
 1016MOL0     H34062   0.458  -0.497   1.416  1.0912 -1.5064 -2.5811
 1016MOL0     H34063   0.749  -0.588   1.398  0.8676 -0.7596  0.7603
 1016MOL0     H34064   0.652  -0.537   1.261  1.9534  0.0686  1.5627
 1016MOL0     H34065   0.379  -0.698   1.300 -3.1498 -3.8806  1.9694
 1016MOL0     H34066   0.254  -0.927   1.302 -0.7058 -1.1216  0.2200
 1016MOL0     H34067   0.335  -1.067   1.356 -0.4023  2.2230  3.3695
 1016MOL0     H34068   0.289  -1.104   1.107 -1.1036  0.2138 -0.0948
 1016MOL0     H34069   0.456  -1.085   1.114 -1.8426 -1.4431 -1.8727
 1016MOL0     H34070   0.413  -0.843   1.016 -1.4370  1.9282  2.8436
 1016MOL0     H34071   0.350  -0.972   0.929  2.0309 -1.8707  1.0211
 1016MOL0     H34072   0.186  -0.804   1.146  0.0187 -0.9209  0.0056
 1016MOL0     H34073   0.110  -0.895   1.030  2.4571 -3.2463  2.2752
 1016MOL0     H34074   0.166  -0.567   0.743 -0.4580  0.1441  0.7573
 1016MOL0     H34075  -0.040  -0.438   0.708 -1.6721  2.7949  2.0890
 1016MOL0     H34076  -0.350  -0.319   0.521  0.5695  0.5996 -0.7084
 1016MOL0     H34077  -0.554  -0.234   0.445  2.5704 -0.6509  0.0607
 1016MOL0     H34078  -0.771   0.053   0.675 -2.5456  2.5190  1.4613
 1016MOL0     H34079  -0.860  -0.086   0.754  3.3942  0.4972  2.0445
 1016MOL0     H34080  -1.009   0.062   0.659  0.8284  0.4260  0.3211
 1016MOL0     H34081  -1.015  -0.101   0.581 -2.2642  0.5190 -1.3717
 1016MOL0     H34082  -0.912  -0.004   0.366 -3.0458  1.1115 -3.3094
 1016MOL0     H34083  -0.907   0.144   0.461 -3.2332  1.8023  3.4644
 1016MOL0     H34084  -1.160  -0.015   0.380  0.1723 -0.3455  0.5708
 1016MOL0     H34085  -1.155   0.097   0.515  2.8327 -0.4569  1.5517
 1016MOL0     H34086  -1.078   0.271   0.337  0.5725  0.5994  1.7019
 1016MOL0     H34087  -1.244   0.196   0.333  0.0318 -2.2601  1.3726
 1016MOL0     H34088  -1.175   0.059   0.148 -1.7759  1.4513 -0.1999
 1016MOL0     H34089  -1.006   0.076   0.178 -1.8505 -2.8852  0.5837
 1016MOL0     H34090  -1.019   0.317   0.113  0.2728 -1.3181 -0.7305
 1016MOL0     H34091  -1.039   0.208  -0.011 -0.7231 -0.9054 -0.1350
 1016MOL0     H34092  -1.260   0.359   0.115  1.1285  2.3653 -1.6387
 1016MOL0     H34093  -1.286   0.241  -0.025  0.9819 -1.1941  0.1443
 1016MOL0     H34094  -0.669  -0.110   0.832 -0.4676  1.5119 -0.4450
 1016MOL0     H34095  -0.452  -0.220   0.917  1.5411 -1.4978  0.4970
 1016MOL0     H34096  -0.223  -0.603   1.041  0.8504  1.1153  0.6027
 1016MOL0     H34097  -0.013  -0.718   1.114  0.3409 -1.4750 -1.0728
 1016MOL0     H34098   1.350  -0.055   1.659  1.8521  0.8545  1.4219
 1016MOL0     H34099   1.573   0.010   1.664 -0.7898 -0.1071  0.9614
 1016MOL0     H34100   1.965   0.169   1.281 -0.8952 -2.3092  0.9910
 1016MOL0     H34101   2.209   0.215   1.306  1.5467 -0.4416  0.5390
 1016MOL0     H34102   2.399   0.298   1.349 -0.1425  2.4816  0.2939
 1016MOL0     H34103   2.403   0.144   1.449 -0.0486  0.2879  2.6514
 1016MOL0     H34104   2.550   0.402   1.495 -2.1324 -0.2707 -0.5018
 1016MOL0     H34105   2.580   0.261   1.591  3.1774 -0.6610 -1.7833
 1016MOL0     H34106   2.635   0.281   1.292  0.8256 -0.0102  0.6930
 1016MOL0     H34107   2.660   0.133   1.373 -1.0218  0.6163  0.5071
 1016MOL0     H34108   2.792   0.336   1.542 -0.0910 -0.6692 -0.5398
 1016MOL0     H34109   2.871   0.219   1.447  1.2565  1.6636  2.0342
 1016MOL0     H34110   2.900   0.588   1.237  0.7393 -1.2380 -1.2476
 1016MOL0     H34111   2.135   0.342   1.714  2.7234  1.6590 -1.0280
 1016MOL0     H34112   1.900   0.293   1.689 -0.3393 -0.4927  0.1920
 1017MOL0     O34113   9.376   6.053   5.197  0.4041  0.0972  0.6935
 1017MOL0     C34114   9.375   6.177   5.183 -0.7049  0.2628  0.8001
 1017MOL0     O34115   9.270   6.247   5.155  0.3711 -0.4272  0.4200
 1017MOL0     C34116   9.145   6.203   5.203  0.6406 -0.4275  0.6664
 1017MOL0     C34117   9.079   6.268   5.305  0.4091 -0.4462  0.0926
 1017MOL0     C34118   8.956   6.235   5.358 -0.2055 -0.6488 -0.6727
 1017MOL0     C34119   8.897   6.119   5.315  0.3095  0.6115  0.5110
 1017MOL0     O34120   8.784   6.055   5.370 -0.9132 -0.1959  0.1889
 1017MOL0     C34121   8.742   6.109   5.488  0.1623  0.1304  0.1723
 1017MOL0     C34122   8.635   6.014   5.549  0.0076 -0.5939 -0.2729
 1017MOL0     C34123   8.508   5.992   5.463 -0.0323  0.5856  0.1983
 1017MOL0     C34124   8.416   5.885   5.525  0.0684 -0.0853  0.5635
 1017MOL0     C34125   8.296   5.830   5.436 -0.0956  0.8535 -0.2975
 1017MOL0     C34126   8.243   5.723   5.523  0.4078  0.9696  0.0635
 1017MOL0     C34127   8.123   5.648   5.460 -0.0344  0.2914 -0.6567
 1017MOL0     C34128   8.064   5.562   5.574 -0.6995  0.0220  0.8238
 1017MOL0     N34129   7.935   5.507   5.537  0.1863  0.1808  0.2472
 1017MOL0     C34130   7.913   5.389   5.461  0.3423  0.3837  0.0065
 1017MOL0     C34131   7.777   5.373   5.453 -0.6522  0.0366 -0.3555
 1017MOL0     C34132   7.692   5.265   5.394 -1.1107 -0.3435 -0.1590
 1017MOL0     C34133   7.600   5.316   5.277  0.4675 -0.3749  0.8239
 1017MOL0     C34134   7.671   5.321   5.136  0.2842 -0.0189 -0.6085
 1017MOL0     C34135   7.790   5.421   5.129 -0.4086  0.0888  0.2246
 1017MOL0     O34136   7.741   5.546   5.186  0.1106 -0.1159 -0.3200
 1017MOL0     C34137   7.826   5.656   5.181  0.8851  0.4105 -0.4213
 1017MOL0     C34138   7.952   5.655   5.120 -1.0724 -0.4465 -0.0170
 1017MOL0     C34139   8.024   5.773   5.130  0.7728 -0.0967  0.8420
 1017MOL0     C34140   7.969   5.889   5.189  0.3517  0.0213 -0.4504
 1017MOL0     C34141   8.055   6.007   5.201  0.1421  0.4654  0.3483
 1017MOL0     O34142   8.178   6.001   5.137 -0.0702 -0.1614  0.0186
 1017MOL0     C34143   8.258   6.108   5.153  0.0288 -0.6534 -0.3276
 1017MOL0     C34144   8.397   6.088   5.152  0.7497  0.2419  0.0636
 1017MOL0     C34145   8.487   6.194   5.154  0.4986  0.9042 -0.3490
 1017MOL0     C34146   8.445   6.324   5.169  1.1363 -0.6548 -0.0415
 1017MOL0     O34147   8.527   6.436   5.169 -0.4277  0.5614 -0.0360
 1017MOL0     C34148   8.661   6.427   5.110 -0.4616  0.5182 -0.3938
 1017MOL0     C34149   8.714   6.556   5.080 -0.7045 -0.2007  0.4216
 1017MOL0     C34150   8.852   6.546   5.017  0.6757  0.6214  0.3239
 1017MOL0     C34151   8.946   6.666   5.038  0.6785  0.0193  0.0489
 1017MOL0     C34152   9.083   6.681   4.957  1.2536 -0.5217 -0.4693
 1017MOL0     C34153   9.171   6.561   4.947  0.5395  0.2759 -0.9258
 1017MOL0     C34154   9.311   6.579   4.887  0.9506  0.0364 -0.2899
 1017MOL0     C34155   9.308   6.618   4.732 -0.8054  0.0105  0.7345
 1017MOL0    Cl34156   9.227   6.483   4.639  0.1177 -0.6315  0.0524
 1017MOL0     C34157   8.308   6.355   5.171 -0.7009 -1.0828  0.4819
 1017MOL0     C34158   8.216   6.247   5.169  0.5011  0.0223  0.4455
 1017MOL0     O34159   8.012   6.088   5.285 -0.0563  0.1612 -0.2100
 1017MOL0     C34160   7.839   5.884   5.239  0.5270  0.0979 -0.4068
 1017MOL0     C34161   7.764   5.770   5.229 -0.2674  0.1707  0.0809
 1017MOL0     N34162   7.721   5.470   5.539  0.3212 -0.1072 -0.5243
 1017MOL0     N34163   7.819   5.546   5.590 -0.2624  0.1168  0.7079
 1017MOL0     C34164   8.960   6.046   5.216  0.6535  0.3819 -0.5053
 1017MOL0     C34165   9.083   6.087   5.156 -0.0937 -0.0473 -0.9940
 1017MOL0     C34166   9.507   6.246   5.194  0.2701  0.0905  0.2757
 1017MOL0     C34167   9.621   6.169   5.201  0.4581 -0.3203 -0.6083
 1017MOL0     C34168   9.745   6.239   5.191  0.3167 -0.0569 -0.7240
 1017MOL0     C34169   9.754   6.385   5.175  1.2723 -0.7586 -0.1574
 1017MOL0     O34170   9.867   6.461   5.153 -0.2065 -0.0261  0.0938
 1017MOL0     C34171   9.999   6.396   5.144  1.4091 -0.0831 -0.6815
 1017MOL0     C34172  10.078   6.461   5.038 -0.4823 -0.9862  0.5459
 1017MOL0     C34173  10.207   6.391   5.023  0.3329  1.1110 -0.0940
 1017MOL0     C34174  10.274   6.452   4.902 -0.6807 -0.1172 -0.1904
 1017MOL0     C34175  10.408   6.394   4.894  1.0525 -0.7279  0.7396
 1017MOL0     C34176  10.520   6.342   4.893  0.1126 -0.5771 -0.4887
 1017MOL0     C34177   9.631   6.460   5.176 -0.0209 -0.2654 -0.3679
 1017MOL0     C34178   9.509   6.387   5.197 -0.9514  0.4726  0.7147
 1017MOL0     H34179   9.127   6.352   5.355  0.7801 -0.1130 -0.8095
 1017MOL0     H34180   8.919   6.289   5.445 -0.3021 -2.6770  0.6053
 1017MOL0     H34181   8.683   6.196   5.458 -1.2214 -0.6986  0.4009
 1017MOL0     H34182   8.821   6.131   5.560  0.0715  1.2184 -0.0463
 1017MOL0     H34183   8.608   6.051   5.648 -0.7844 -3.3754  0.6257
 1017MOL0     H34184   8.685   5.917   5.550  1.3229  0.0656  0.0162
 1017MOL0     H34185   8.530   5.967   5.359  2.3511 -0.6127  0.9138
 1017MOL0     H34186   8.448   6.083   5.459 -0.9744  0.0453  1.3443
 1017MOL0     H34187   8.483   5.804   5.557 -0.1873  0.3555  2.3731
 1017MOL0     H34188   8.380   5.926   5.620 -0.8947  1.5213 -0.4448
 1017MOL0     H34189   8.326   5.788   5.340  1.3590 -1.8226  1.1979
 1017MOL0     H34190   8.219   5.904   5.411 -2.3956 -1.4882 -0.7158
 1017MOL0     H34191   8.202   5.777   5.609 -2.5263  0.6637 -1.0237
 1017MOL0     H34192   8.323   5.659   5.561 -0.8945  0.3477  1.9019
 1017MOL0     H34193   8.053   5.726   5.429  1.3494  0.4125 -3.8030
 1017MOL0     H34194   8.156   5.586   5.377 -0.0136 -2.7430  1.4426
 1017MOL0     H34195   8.045   5.619   5.665  0.9172 -1.3169  2.0453
 1017MOL0     H34196   8.136   5.481   5.590  0.4528  1.3176  2.5795
 1017MOL0     H34197   7.997   5.329   5.426  0.5195  0.0918  0.8922
 1017MOL0     H34198   7.634   5.222   5.476  0.3327 -1.4516  0.3221
 1017MOL0     H34199   7.756   5.186   5.355 -1.4217 -1.2846  1.1584
 1017MOL0     H34200   7.558   5.415   5.298  0.0455 -0.2423 -0.5295
 1017MOL0     H34201   7.511   5.252   5.275 -2.6078  3.4778  1.7330
 1017MOL0     H34202   7.719   5.227   5.108 -0.1024  0.2098 -2.1019
 1017MOL0     H34203   7.592   5.344   5.065 -1.7589 -0.2507  1.4811
 1017MOL0     H34204   7.820   5.432   5.024  0.8636 -3.0401  0.1484
 1017MOL0     H34205   7.876   5.383   5.185  0.1270  1.4993  0.4205
 1017MOL0     H34206   8.003   5.570   5.075  2.2246  2.4314 -2.1977
 1017MOL0     H34207   8.121   5.770   5.083 -0.7267  1.2763 -2.6741
 1017MOL0     H34208   8.425   5.987   5.126 -0.8047 -0.0702 -0.5302
 1017MOL0     H34209   8.592   6.167   5.140  0.4241  0.1667  0.4431
 1017MOL0     H34210   8.661   6.360   5.023 -1.9775  0.1910 -0.1538
 1017MOL0     H34211   8.733   6.394   5.185  3.1886  5.4749 -1.2211
 1017MOL0     H34212   8.721   6.614   5.172  0.3675 -0.8825  0.7815
 1017MOL0     H34213   8.641   6.613   5.021  0.0134  3.2583  2.6193
 1017MOL0     H34214   8.831   6.542   4.910  1.9044  3.5172 -0.1065
 1017MOL0     H34215   8.893   6.449   5.047 -1.5942 -1.3665 -2.4549
 1017MOL0     H34216   8.883   6.754   5.021  0.9467  0.6335  1.9612
 1017MOL0     H34217   8.973   6.665   5.144 -2.2823 -1.9134  0.9006
 1017MOL0     H34218   9.140   6.767   4.995  1.3216  0.9497 -3.6217
 1017MOL0     H34219   9.047   6.720   4.862 -3.7831  0.3893  1.4648
 1017MOL0     H34220   9.117   6.480   4.897  1.0389 -1.1175  0.6964
 1017MOL0     H34221   9.188   6.531   5.051  4.1054  0.7459 -1.2337
 1017MOL0     H34222   9.364   6.653   4.948 -3.3729  3.1909  0.0408
 1017MOL0     H34223   9.348   6.477   4.900  0.6086 -0.4011 -2.2776
 1017MOL0     H34224   9.408   6.641   4.695 -1.1418  0.0567 -0.1833
 1017MOL0     H34225   9.250   6.707   4.705 -0.5590  0.0565  0.3484
 1017MOL0     H34226   8.285   6.461   5.163  1.8207 -0.4735  0.5040
 1017MOL0     H34227   8.109   6.264   5.161  0.6855  0.2883 -4.9817
 1017MOL0     H34228   7.803   5.971   5.292 -0.6266 -0.4234 -0.2962
 1017MOL0     H34229   7.660   5.761   5.258 -1.3193 -3.2996 -3.7813
 1017MOL0     H34230   8.928   5.944   5.194  3.5044 -1.2224  2.0579
 1017MOL0     H34231   9.133   6.022   5.084 -1.8621 -0.4029 -1.9871
 1017MOL0     H34232   9.614   6.060   5.202 -0.2845 -0.3807 -3.3036
 1017MOL0     H34233   9.829   6.171   5.200 -0.3790 -0.6561  1.8861
 1017MOL0     H34234   9.990   6.294   5.106 -2.2162  0.5343 -1.9283
 1017MOL0     H34235  10.047   6.395   5.242  0.4338 -0.6014 -0.1981
 1017MOL0     H34236  10.020   6.480   4.947  0.9001  0.2708 -0.1009
 1017MOL0     H34237  10.096   6.564   5.071 -3.9396  0.4357 -1.4412
 1017MOL0     H34238  10.180   6.289   4.993 -2.3432  1.8062 -0.3018
 1017MOL0     H34239  10.273   6.383   5.110 -0.1653 -2.8494  0.1014
 1017MOL0     H34240  10.206   6.442   4.818 -2.5866 -0.1687  1.2947
 1017MOL0     H34241  10.274   6.561   4.913 -2.9417 -0.0564 -0.4345
 1017MOL0     H34242  10.610   6.286   4.910  0.5972  0.2616 -0.2611
 1017MOL0     H34243   9.638   6.568   5.163 -0.5060  0.0139  1.4507
 1017MOL0     H34244   9.410   6.429   5.179 -0.4244  0.6425 -2.3343
 1018MOL0     O34245   8.375   3.335   2.056  0.1035 -0.1216 -0.5299
 1018MOL0     C34246   8.363   3.423   1.963  0.2822  1.0697 -0.6926
 1018MOL0     O34247   8.247   3.489   1.943 -0.6680  0.3744  0.0248
 1018MOL0     C34248   8.142   3.502   2.024 -0.2398  0.3522  0.1666
 1018MOL0     C34249   8.010   3.515   1.968  1.3215  0.2615 -0.3279
 1018MOL0     C34250   7.893   3.530   2.046 -0.9061  0.7150 -0.1033
 1018MOL0     C34251   7.909   3.534   2.188  0.3599  0.6696 -0.0337
 1018MOL0     O34252   7.812   3.555   2.279  0.5304 -0.6067 -0.4477
 1018MOL0     C34253   7.676   3.559   2.232  0.3307  0.5682 -0.3336
 1018MOL0     C34254   7.583   3.502   2.339  0.0356 -0.1308  0.6347
 1018MOL0     C34255   7.642   3.433   2.452 -0.5305 -0.5816 -0.2036
 1018MOL0     C34256   7.532   3.352   2.532 -0.2444 -0.7993  0.0348
 1018MOL0     C34257   7.466   3.245   2.452 -0.5393  0.0999  0.7457
 1018MOL0     C34258   7.400   3.140   2.536  0.5471  1.1080  0.0233
 1018MOL0     C34259   7.289   3.199   2.633  0.0845  0.1387  0.0907
 1018MOL0     C34260   7.208   3.082   2.698 -0.1353 -0.4392  0.5270
 1018MOL0     N34261   7.106   3.153   2.773 -0.0067  0.7531 -0.2840
 1018MOL0     C34262   6.999   3.214   2.725 -0.7454 -0.1791  1.0918
 1018MOL0     C34263   6.936   3.259   2.828  0.4046  0.0721  0.0134
 1018MOL0     C34264   6.809   3.345   2.817  0.0119  0.3494 -0.4103
 1018MOL0     C34265   6.848   3.474   2.761 -0.7292 -0.2824 -0.4492
 1018MOL0     C34266   6.737   3.588   2.766 -0.0387  0.0286 -0.2958
 1018MOL0     C34267   6.610   3.552   2.687 -0.4601 -0.1111 -0.1008
 1018MOL0     O34268   6.515   3.655   2.727 -0.6604  0.1989  0.4323
 1018MOL0     C34269   6.386   3.630   2.691 -0.1049  0.7024 -0.5095
 1018MOL0     C34270   6.344   3.542   2.591 -0.8426  0.3829 -0.0366
 1018MOL0     C34271   6.211   3.536   2.542 -0.3611 -0.1636  0.0706
 1018MOL0     C34272   6.110   3.607   2.611 -0.2424  0.0322 -0.2344
 1018MOL0     C34273   5.973   3.614   2.554  0.0919 -0.4348 -0.7902
 1018MOL0     O34274   5.966   3.584   2.422  0.1563  0.0795  0.1065
 1018MOL0     C34275   5.841   3.574   2.363  0.1112 -0.5595  0.5359
 1018MOL0     C34276   5.758   3.685   2.354  0.1296 -0.0186  0.2984
 1018MOL0     C34277   5.634   3.672   2.308  0.5428 -0.4375  0.3255
 1018MOL0     C34278   5.588   3.553   2.257  0.6683 -0.2411 -0.8613
 1018MOL0     O34279   5.455   3.554   2.205 -0.4638 -0.4614 -0.6703
 1018MOL0     C34280   5.382   3.441   2.184 -0.1075  0.6589  1.0376
 1018MOL0     C34281   5.242   3.473   2.139  0.4317 -0.6440  0.4953
 1018MOL0     C34282   5.156   3.352   2.120 -0.6998  0.4146 -1.2326
 1018MOL0     C34283   5.008   3.390   2.119  0.3016 -0.2718 -0.5827
 1018MOL0     C34284   4.967   3.437   1.982 -0.2073 -0.3961  0.8248
 1018MOL0     C34285   4.824   3.491   1.976  0.1297  0.5434  0.0080
 1018MOL0     C34286   4.754   3.498   1.837 -0.0247 -0.0328 -0.2611
 1018MOL0     C34287   4.619   3.572   1.843 -0.0301 -0.2030  0.1451
 1018MOL0    Cl34288   4.513   3.485   1.951  0.1521  0.0705  0.0538
 1018MOL0     C34289   5.667   3.432   2.262 -0.0559 -0.2764 -0.3871
 1018MOL0     C34290   5.798   3.452   2.309 -0.1736 -0.6826 -0.5113
 1018MOL0     O34291   5.886   3.660   2.626 -0.7954 -0.3874  0.5595
 1018MOL0     C34292   6.150   3.685   2.721  0.2668 -0.7132  0.2029
 1018MOL0     C34293   6.280   3.691   2.768 -0.1666 -0.1973  1.1254
 1018MOL0     N34294   6.999   3.233   2.948 -0.5187 -0.6983 -0.0339
 1018MOL0     N34295   7.093   3.153   2.909 -0.9092  0.9260 -0.9693
 1018MOL0     C34296   8.031   3.507   2.247  0.5269  0.1042  0.3394
 1018MOL0     C34297   8.147   3.486   2.165  0.3631  0.6190  1.0369
 1018MOL0     C34298   8.473   3.443   1.871  0.2726 -0.5708 -0.0397
 1018MOL0     C34299   8.480   3.562   1.789 -0.0904  0.6058 -0.7014
 1018MOL0     C34300   8.588   3.580   1.714 -0.3955  0.0315  0.3252
 1018MOL0     C34301   8.688   3.480   1.701  0.0662 -0.2585  0.1845
 1018MOL0     O34302   8.794   3.517   1.622  0.5999 -0.8175  0.4849
 1018MOL0     C34303   8.902   3.425   1.611 -0.4411 -0.1978 -0.0020
 1018MOL0     C34304   8.977   3.469   1.488  0.1581  0.8972  0.2401
 1018MOL0     C34305   9.050   3.609   1.487 -0.1575 -0.6276  0.3931
 1018MOL0     C34306   9.184   3.596   1.535 -0.6138  0.1002  0.4475
 1018MOL0     C34307   9.252   3.728   1.515  0.7678 -0.0314  0.8955
 1018MOL0     C34308   9.294   3.844   1.525  1.0241 -0.2276 -0.7368
 1018MOL0     C34309   8.687   3.370   1.785  0.2562 -0.5951  0.0063
 1018MOL0     C34310   8.578   3.348   1.867 -0.4554 -0.2819  0.5651
 1018MOL0     H34311   8.000   3.508   1.860  0.2866  3.7195 -0.5968
 1018MOL0     H34312   7.791   3.536   2.010 -1.6390  1.4754  1.9704
 1018MOL0     H34313   7.653   3.498   2.144  3.2847  2.7028 -2.7970
 1018MOL0     H34314   7.644   3.661   2.207  0.0320 -0.3860 -4.7101
 1018MOL0     H34315   7.522   3.437   2.275  1.4534  1.0210 -2.0205
 1018MOL0     H34316   7.524   3.592   2.359 -2.6966 -1.4724 -0.7479
 1018MOL0     H34317   7.698   3.505   2.512 -2.5853  3.0431 -2.2708
 1018MOL0     H34318   7.720   3.362   2.426  1.9140  1.5859  0.7692
 1018MOL0     H34319   7.598   3.313   2.611  0.9442 -0.4771 -0.7650
 1018MOL0     H34320   7.463   3.418   2.584 -0.5555 -0.2108 -1.1163
 1018MOL0     H34321   7.536   3.198   2.382  0.1701 -0.6595  1.9467
 1018MOL0     H34322   7.383   3.286   2.393  1.4319  1.8473 -1.0009
 1018MOL0     H34323   7.486   3.101   2.593  0.8629  0.8281 -0.6265
 1018MOL0     H34324   7.361   3.059   2.474 -2.2421  2.5207 -0.1748
 1018MOL0     H34325   7.327   3.269   2.708 -2.1956  1.9609 -0.3527
 1018MOL0     H34326   7.218   3.256   2.572 -0.9187  0.8109  1.8309
 1018MOL0     H34327   7.266   3.016   2.764 -1.7618 -0.5533  1.9077
 1018MOL0     H34328   7.159   3.028   2.617 -0.9766 -0.7744  1.2438
 1018MOL0     H34329   6.969   3.220   2.621 -3.6060 -0.4947  1.8034
 1018MOL0     H34330   6.766   3.363   2.916 -1.0758  1.7029 -1.0862
 1018MOL0     H34331   6.738   3.296   2.750 -3.0873  2.2937  1.2425
 1018MOL0     H34332   6.894   3.465   2.662  2.3490 -0.8015  0.9147
 1018MOL0     H34333   6.925   3.510   2.830  1.7351 -0.4912 -2.8889
 1018MOL0     H34334   6.710   3.599   2.872  1.3594 -2.5442  0.4091
 1018MOL0     H34335   6.774   3.679   2.720 -0.1109 -1.2760 -3.1234
 1018MOL0     H34336   6.574   3.454   2.719 -0.8213  0.1824  0.4065
 1018MOL0     H34337   6.626   3.572   2.581 -0.9937 -0.5216 -0.2609
 1018MOL0     H34338   6.411   3.472   2.542  1.1363 -0.4487  3.4853
 1018MOL0     H34339   6.196   3.486   2.447  2.2734  1.7789 -1.5091
 1018MOL0     H34340   5.796   3.782   2.381 -1.1683  0.2781  1.1535
 1018MOL0     H34341   5.580   3.766   2.300 -0.2711 -0.9383 -0.2348
 1018MOL0     H34342   5.381   3.388   2.279  1.8297 -1.7093 -0.1447
 1018MOL0     H34343   5.424   3.369   2.114 -0.9823  1.7778 -0.7187
 1018MOL0     H34344   5.254   3.538   2.052 -1.4384  0.5993  1.1086
 1018MOL0     H34345   5.200   3.539   2.216  0.8349  2.5400 -1.8292
 1018MOL0     H34346   5.183   3.290   2.205 -0.1402  0.4289 -1.3979
 1018MOL0     H34347   5.176   3.308   2.022 -0.7199 -2.3653 -0.0786
 1018MOL0     H34348   4.944   3.307   2.152 -0.0052  1.3806  3.5236
 1018MOL0     H34349   4.990   3.480   2.178  4.3703  0.1133  0.3909
 1018MOL0     H34350   4.973   3.362   1.902  2.2214  2.5666 -2.0531
 1018MOL0     H34351   5.040   3.508   1.943  4.0445 -3.2078  2.8968
 1018MOL0     H34352   4.827   3.590   2.021 -1.3978  1.1669 -1.1920
 1018MOL0     H34353   4.765   3.431   2.046  1.5289  1.4301  2.0402
 1018MOL0     H34354   4.818   3.555   1.769  2.7366  2.4119  3.9592
 1018MOL0     H34355   4.755   3.396   1.798 -0.0061  0.5241 -1.7939
 1018MOL0     H34356   4.566   3.576   1.747 -1.2861 -1.0468  0.7744
 1018MOL0     H34357   4.644   3.674   1.873  1.6289  0.1640 -2.2239
 1018MOL0     H34358   5.624   3.335   2.238  0.1274 -0.8736  1.5217
 1018MOL0     H34359   5.864   3.366   2.302 -0.2193 -0.7844  0.2305
 1018MOL0     H34360   6.070   3.743   2.766  0.4004 -1.7605  1.8833
 1018MOL0     H34361   6.315   3.750   2.852 -3.3826  2.8451  0.5431
 1018MOL0     H34362   8.040   3.507   2.355 -2.1881  2.1814  0.6554
 1018MOL0     H34363   8.240   3.457   2.211 -0.8178 -2.6582  1.6368
 1018MOL0     H34364   8.408   3.643   1.802  0.6557  2.0279 -4.4094
 1018MOL0     H34365   8.612   3.678   1.674  2.2098 -0.7754 -0.2731
 1018MOL0     H34366   8.868   3.322   1.597 -0.9606  0.2427 -2.4846
 1018MOL0     H34367   8.959   3.425   1.705 -1.7225  2.2404  0.8732
 1018MOL0     H34368   9.054   3.397   1.461  1.1403  2.4212 -1.2199
 1018MOL0     H34369   8.914   3.481   1.400  3.0517  2.6345 -1.7384
 1018MOL0     H34370   8.988   3.679   1.545  2.3918  2.1036  0.0830
 1018MOL0     H34371   9.060   3.646   1.385  1.2003 -0.2682  0.6282
 1018MOL0     H34372   9.193   3.566   1.640  1.5787  0.2413  0.3560
 1018MOL0     H34373   9.238   3.527   1.470 -0.2034 -0.3082  1.2072
 1018MOL0     H34374   9.335   3.943   1.538  1.9223 -0.6962  0.0887
 1018MOL0     H34375   8.762   3.291   1.780  2.5854  1.5140 -0.7613
 1018MOL0     H34376   8.573   3.258   1.928  0.0028 -0.4601  0.3481
 1019MOL0     O34377  11.194   9.869   1.129  0.1960  0.2266  0.6203
 1019MOL0     C34378  11.246   9.761   1.135  0.3405  0.3357  0.1759
 1019MOL0     O34379  11.172   9.647   1.138 -0.2259  0.7390  0.0732
 1019MOL0     C34380  11.039   9.654   1.171  0.8687 -0.4177  0.8494
 1019MOL0     C34381  10.937   9.687   1.072 -0.2683 -0.9643 -1.0923
 1019MOL0     C34382  10.804   9.711   1.109 -0.3678  0.0433  0.7444
 1019MOL0     C34383  10.753   9.690   1.238 -0.1669 -0.3273 -0.6328
 1019MOL0     O34384  10.627   9.736   1.282 -0.3330  0.2309 -0.4787
 1019MOL0     C34385  10.594   9.868   1.256 -0.8418 -0.5493  0.2642
 1019MOL0     C34386  10.492   9.940   1.357 -0.4336 -0.3079 -0.3772
 1019MOL0     C34387  10.352   9.881   1.343  0.1082 -0.2135 -0.7994
 1019MOL0     C34388  10.254   9.913   1.453 -0.5128 -1.1014  1.2611
 1019MOL0     C34389  10.155   9.808   1.478 -0.8109 -0.6091  0.6510
 1019MOL0     C34390  10.066   9.785   1.358  0.2396 -0.9166  1.2165
 1019MOL0     C34391   9.949   9.692   1.383  0.0767  0.6186  0.4196
 1019MOL0     C34392   9.883   9.638   1.250 -0.0929  0.5080 -0.0739
 1019MOL0     N34393   9.777   9.733   1.199  0.3228  0.1606  0.0906
 1019MOL0     C34394   9.652   9.687   1.158 -0.4772 -0.0718 -0.3505
 1019MOL0     C34395   9.583   9.788   1.103  0.0028  0.0480 -0.1047
 1019MOL0     C34396   9.450   9.789   1.032 -0.7738  0.3659  0.1854
 1019MOL0     C34397   9.327   9.784   1.115  0.0745 -0.1033 -0.9736
 1019MOL0     C34398   9.206   9.868   1.053  0.0000  0.0791 -0.8272
 1019MOL0     C34399   9.076   9.831   1.114 -0.3362 -0.5891 -0.7528
 1019MOL0     O34400   9.081   9.685   1.119  0.0419 -0.3470 -0.1562
 1019MOL0     C34401   8.965   9.614   1.091  0.2376 -0.0829 -0.0040
 1019MOL0     C34402   8.843   9.653   1.141  0.8977  0.0256 -0.5994
 1019MOL0     C34403   8.730   9.586   1.103  0.4559 -0.5603  0.2015
 1019MOL0     C34404   8.731   9.473   1.024 -0.1474  1.0180  0.4154
 1019MOL0     C34405   8.607   9.403   0.979  0.6348 -0.0174 -0.8689
 1019MOL0     O34406   8.493   9.476   0.989 -0.1354  0.1161  0.0613
 1019MOL0     C34407   8.372   9.415   0.949  0.0567  0.1265  0.0394
 1019MOL0     C34408   8.279   9.501   0.897 -0.3998 -0.4192  0.5656
 1019MOL0     C34409   8.145   9.462   0.873  0.4572  0.4883  0.1331
 1019MOL0     C34410   8.091   9.332   0.891  0.1487  0.3494 -0.0730
 1019MOL0     O34411   7.958   9.305   0.876 -1.0115  0.4409 -0.4738
 1019MOL0     C34412   7.920   9.180   0.817  0.2633 -0.3919  0.1093
 1019MOL0     C34413   7.773   9.182   0.777 -0.1114 -0.1363 -0.9982
 1019MOL0     C34414   7.678   9.232   0.892 -0.4166 -0.0431 -0.2282
 1019MOL0     C34415   7.532   9.211   0.847 -0.1323 -0.6523  0.7464
 1019MOL0     C34416   7.491   9.076   0.788 -0.1978 -0.4646  0.6635
 1019MOL0     C34417   7.345   9.045   0.803  0.1681 -0.2949 -0.2950
 1019MOL0     C34418   7.254   9.122   0.708  0.3317 -0.5819  0.3926
 1019MOL0     C34419   7.110   9.079   0.715 -0.3915 -0.5309 -0.8102
 1019MOL0    Cl34420   7.018   9.183   0.607  0.1786 -0.0480 -0.5278
 1019MOL0     C34421   8.194   9.241   0.947 -0.0063  0.7061  0.1357
 1019MOL0     C34422   8.327   9.282   0.979 -0.6336 -0.1385 -0.2267
 1019MOL0     O34423   8.625   9.298   0.926  0.0375 -0.3952 -0.1473
 1019MOL0     C34424   8.853   9.428   0.970 -0.1613 -0.1188 -0.2483
 1019MOL0     C34425   8.968   9.501   0.999  0.9722 -1.2211 -0.0487
 1019MOL0     N34426   9.670   9.896   1.114  0.7995 -0.4729  0.1871
 1019MOL0     N34427   9.779   9.868   1.175  0.0446 -0.5904 -0.0953
 1019MOL0     C34428  10.852   9.659   1.340 -0.2748 -0.3893  0.4990
 1019MOL0     C34429  10.987   9.636   1.305 -0.1720  0.2687  0.7048
 1019MOL0     C34430  11.398   9.748   1.137 -0.1270 -0.4219  0.6959
 1019MOL0     C34431  11.481   9.860   1.153  0.0093 -0.7771  0.0478
 1019MOL0     C34432  11.619   9.844   1.164  0.3637  0.4758 -0.2983
 1019MOL0     C34433  11.680   9.717   1.169 -0.0396  0.2602  0.2472
 1019MOL0     O34434  11.818   9.693   1.184 -0.2318  0.2343  0.3384
 1019MOL0     C34435  11.880   9.763   1.289  0.2787  0.5197  0.2749
 1019MOL0     C34436  11.974   9.871   1.238 -0.1142 -0.9456 -0.5132
 1019MOL0     C34437  12.114   9.835   1.201 -0.1403 -0.5233 -0.4969
 1019MOL0     C34438  12.180   9.944   1.134 -0.1078  0.8085  0.1869
 1019MOL0     C34439  12.314   9.892   1.085  0.0439 -0.7457 -0.0884
 1019MOL0     C34440  12.426   9.857   1.054  0.5961 -0.4139 -0.1452
 1019MOL0     C34441  11.595   9.604   1.147  0.0547  0.5411  0.0790
 1019MOL0     C34442  11.458   9.618   1.129  0.8318 -1.2332 -0.1279
 1019MOL0     H34443  10.965   9.717   0.971 -1.2367 -0.6393 -1.2811
 1019MOL0     H34444  10.747   9.752   1.026  2.8392 -0.0124 -1.6778
 1019MOL0     H34445  10.554   9.883   1.155  1.9814  3.2577 -0.5368
 1019MOL0     H34446  10.692   9.917   1.260 -1.0986  0.0060 -0.2118
 1019MOL0     H34447  10.500  10.048   1.338  2.4259 -0.3191  0.3081
 1019MOL0     H34448  10.533   9.913   1.454  2.0334 -1.9645 -1.7600
 1019MOL0     H34449  10.373   9.774   1.344  0.6368 -0.1131 -0.5089
 1019MOL0     H34450  10.306   9.912   1.249  3.3770  0.3714 -2.3629
 1019MOL0     H34451  10.305   9.939   1.546  1.3137  0.3152 -0.0634
 1019MOL0     H34452  10.201  10.000   1.414  0.5318 -1.0516 -0.1498
 1019MOL0     H34453  10.100   9.840   1.567  0.7048 -1.2953  1.8729
 1019MOL0     H34454  10.220   9.727   1.511 -0.0114  0.3649  1.5320
 1019MOL0     H34455  10.132   9.740   1.283 -1.0630 -2.3394  0.8825
 1019MOL0     H34456  10.010   9.876   1.334  1.3329 -0.1550  1.4886
 1019MOL0     H34457   9.978   9.599   1.434  0.6467 -0.4173 -1.6411
 1019MOL0     H34458   9.870   9.749   1.431  0.2089  2.0519 -0.9861
 1019MOL0     H34459   9.846   9.536   1.263  0.7909  0.1702 -0.1592
 1019MOL0     H34460   9.964   9.632   1.177 -0.9746  0.5999 -1.0892
 1019MOL0     H34461   9.610   9.587   1.165 -2.0988  0.5540 -0.6804
 1019MOL0     H34462   9.457   9.699   0.970 -0.2462  0.7513 -0.3322
 1019MOL0     H34463   9.446   9.876   0.966 -0.8115 -1.8597 -3.0028
 1019MOL0     H34464   9.347   9.823   1.215  1.5961 -1.9899 -0.4855
 1019MOL0     H34465   9.306   9.677   1.125 -1.0969  0.3605  3.9038
 1019MOL0     H34466   9.225   9.975   1.059 -2.0082  0.4819 -1.1901
 1019MOL0     H34467   9.208   9.850   0.945 -2.6583 -1.4817 -0.7050
 1019MOL0     H34468   8.988   9.859   1.056 -1.7306 -2.1925  0.5153
 1019MOL0     H34469   9.077   9.868   1.217 -0.6383 -1.1163 -0.5545
 1019MOL0     H34470   8.836   9.744   1.200  0.5039 -0.1068 -0.4389
 1019MOL0     H34471   8.638   9.628   1.142  0.4105  0.5239 -0.9758
 1019MOL0     H34472   8.312   9.600   0.869 -2.8397  0.8840  1.9650
 1019MOL0     H34473   8.078   9.539   0.836  0.5891  0.8062  0.5421
 1019MOL0     H34474   7.942   9.113   0.901  1.1241 -0.6349 -0.2995
 1019MOL0     H34475   7.982   9.144   0.735  1.5946 -0.2043  1.0032
 1019MOL0     H34476   7.737   9.085   0.743  0.0357 -0.1947 -0.9884
 1019MOL0     H34477   7.763   9.246   0.689  2.0605 -0.6609 -1.7024
 1019MOL0     H34478   7.708   9.335   0.914 -0.2922 -0.0880 -0.1833
 1019MOL0     H34479   7.689   9.170   0.981  0.4297  1.1678  0.5470
 1019MOL0     H34480   7.462   9.228   0.930 -1.2774 -0.9539 -0.1226
 1019MOL0     H34481   7.512   9.288   0.772  0.8560 -1.4691 -0.3806
 1019MOL0     H34482   7.545   8.996   0.840  0.1309 -1.4286 -1.0613
 1019MOL0     H34483   7.511   9.077   0.680 -1.3906 -1.2016  0.4085
 1019MOL0     H34484   7.318   9.062   0.908 -1.1233 -0.4866 -0.5820
 1019MOL0     H34485   7.333   8.936   0.797  2.6193 -0.5452 -1.8926
 1019MOL0     H34486   7.250   9.225   0.744  0.3181 -0.4935  0.1412
 1019MOL0     H34487   7.284   9.129   0.603  1.7804 -1.3171  0.7464
 1019MOL0     H34488   7.077   9.070   0.819 -0.1299 -0.4159 -0.7138
 1019MOL0     H34489   7.108   8.974   0.685  1.7217 -0.1964 -2.3383
 1019MOL0     H34490   8.179   9.135   0.965 -2.2345  0.7869 -1.0161
 1019MOL0     H34491   8.396   9.213   1.026 -0.8795  0.3489  0.8764
 1019MOL0     H34492   8.850   9.340   0.907  2.2439 -0.7128  0.3610
 1019MOL0     H34493   9.059   9.471   0.948  0.3466  0.2445 -2.1645
 1019MOL0     H34494  10.826   9.643   1.444 -1.7745  2.4038  0.6445
 1019MOL0     H34495  11.031   9.587   1.391 -0.7016  0.1302  0.8974
 1019MOL0     H34496  11.444   9.961   1.140 -0.4919 -0.7336  1.5778
 1019MOL0     H34497  11.691   9.926   1.163 -0.4149  1.2432  1.9294
 1019MOL0     H34498  11.936   9.687   1.344 -0.6685 -2.1216 -2.1437
 1019MOL0     H34499  11.800   9.804   1.352  0.1276 -1.7415  1.6747
 1019MOL0     H34500  11.926   9.918   1.152  0.6911  0.5242 -0.1978
 1019MOL0     H34501  12.001   9.945   1.314  0.8002 -0.4930 -1.2544
 1019MOL0     H34502  12.125   9.746   1.139  0.2871 -1.3249  0.6819
 1019MOL0     H34503  12.169   9.817   1.294 -2.0837  1.7237  1.2227
 1019MOL0     H34504  12.125   9.971   1.044  1.2241 -1.9115 -1.5506
 1019MOL0     H34505  12.200  10.019   1.212  3.3605 -2.1343  2.4851
 1019MOL0     H34506  12.528   9.823   1.052 -0.1929 -2.9793 -0.4134
 1019MOL0     H34507  11.634   9.503   1.152 -0.5435  0.3472  1.5233
 1019MOL0     H34508  11.399   9.528   1.126  0.5998 -1.2362  2.3642
 1020MOL0     O34509   5.009   0.342   8.549 -0.6507 -0.2293  0.0163
 1020MOL0     C34510   5.098   0.348   8.462 -0.9428  0.7059  0.9332
 1020MOL0     O34511   5.092   0.324   8.325  0.0293 -0.0617  0.1328
 1020MOL0     C34512   4.983   0.253   8.268 -0.1353 -1.3212  0.4308
 1020MOL0     C34513   5.006   0.187   8.144 -0.4187 -0.3713 -0.2350
 1020MOL0     C34514   4.897   0.160   8.067 -0.1143 -0.4653  0.9862
 1020MOL0     C34515   4.768   0.173   8.115 -0.8318 -0.3129  0.2877
 1020MOL0     O34516   4.677   0.115   8.031 -0.3003  0.1560 -0.1714
 1020MOL0     C34517   4.539   0.157   8.042  0.5028  0.0843 -1.5131
 1020MOL0     C34518   4.507   0.309   8.029  0.0456 -0.1998 -0.3571
 1020MOL0     C34519   4.371   0.331   7.959  1.0639 -0.5668 -1.0881
 1020MOL0     C34520   4.332   0.472   7.918 -0.2862  1.0636 -0.2202
 1020MOL0     C34521   4.185   0.478   7.893  0.4913 -0.6442  0.0821
 1020MOL0     C34522   4.149   0.623   7.857 -0.3354  0.3099  0.4741
 1020MOL0     C34523   4.002   0.654   7.879  0.8391  0.1487  0.2172
 1020MOL0     C34524   3.993   0.800   7.888  0.4414  0.3659  0.5259
 1020MOL0     N34525   3.867   0.851   7.832  0.6683  0.4700  0.3750
 1020MOL0     C34526   3.815   0.872   7.706  0.0859  0.8462 -0.1737
 1020MOL0     C34527   3.691   0.916   7.720  0.1397  0.0689  0.1084
 1020MOL0     C34528   3.588   0.949   7.614 -0.2753 -1.0892  0.2397
 1020MOL0     C34529   3.620   1.071   7.535 -0.7258  0.2450  0.0846
 1020MOL0     C34530   3.581   1.206   7.605 -0.7914  0.1811 -0.0054
 1020MOL0     C34531   3.442   1.257   7.566  0.3938  0.4150 -0.3806
 1020MOL0     O34532   3.347   1.160   7.626 -0.5535  0.1448  0.7388
 1020MOL0     C34533   3.207   1.191   7.624  0.1988 -0.0142  0.6197
 1020MOL0     C34534   3.150   1.295   7.541 -0.5200  0.4809 -0.5599
 1020MOL0     C34535   3.009   1.311   7.537 -0.2991 -0.6014  0.4725
 1020MOL0     C34536   2.925   1.224   7.613 -0.7626 -0.0774  0.7995
 1020MOL0     C34537   2.778   1.239   7.621  0.3212 -0.2075 -0.8145
 1020MOL0     O34538   2.723   1.340   7.546  0.5856  0.8622  1.0370
 1020MOL0     C34539   2.581   1.331   7.526 -0.1010  0.4094  0.3183
 1020MOL0     C34540   2.531   1.218   7.467 -0.7353  0.3161  0.1106
 1020MOL0     C34541   2.396   1.204   7.449  0.0630  0.4498 -0.0198
 1020MOL0     C34542   2.311   1.301   7.480 -0.8488 -0.2981  0.3279
 1020MOL0     O34543   2.176   1.279   7.447 -0.4659 -0.5012  0.9222
 1020MOL0     C34544   2.073   1.372   7.495 -0.4914 -0.1305 -0.6669
 1020MOL0     C34545   1.936   1.318   7.451  0.5044  0.3415 -0.6195
 1020MOL0     C34546   1.938   1.250   7.316 -0.4213 -0.0494  0.6218
 1020MOL0     C34547   1.784   1.225   7.282  0.3097 -0.6609 -0.0255
 1020MOL0     C34548   1.763   1.147   7.154  0.0166 -0.0579  0.1652
 1020MOL0     C34549   1.692   1.013   7.165 -0.0682  0.4315 -0.8352
 1020MOL0     C34550   1.706   0.926   7.049 -0.4151 -1.0235  0.3244
 1020MOL0     C34551   1.678   0.776   7.086 -0.2050  0.1173 -0.7743
 1020MOL0    Cl34552   1.516   0.737   7.126  0.1643  0.2938 -0.4098
 1020MOL0     C34553   2.360   1.422   7.541 -0.5822  0.1998 -1.0009
 1020MOL0     C34554   2.501   1.436   7.574  0.6362  0.8734  0.6640
 1020MOL0     O34555   2.717   1.179   7.711 -0.0547  0.5351 -0.5400
 1020MOL0     C34556   2.991   1.120   7.679 -0.1684  0.1394 -0.2532
 1020MOL0     C34557   3.130   1.112   7.689  0.6294  0.0541 -0.3793
 1020MOL0     N34558   3.663   0.908   7.854 -0.0317 -0.2013  1.2989
 1020MOL0     N34559   3.766   0.873   7.916  0.5686 -0.9471  0.5971
 1020MOL0     C34560   4.745   0.238   8.238  0.5753 -0.3768  0.3833
 1020MOL0     C34561   4.853   0.264   8.318 -0.3646  0.0094 -0.0136
 1020MOL0     C34562   5.237   0.397   8.501 -0.5079 -0.2882  0.2155
 1020MOL0     C34563   5.335   0.437   8.394 -1.0990 -0.8161 -0.5029
 1020MOL0     C34564   5.460   0.499   8.433 -0.5763  0.2293 -0.1921
 1020MOL0     C34565   5.501   0.497   8.572 -0.8547  0.3010  0.0279
 1020MOL0     O34566   5.627   0.537   8.608 -0.5196  0.0696  0.0047
 1020MOL0     C34567   5.737   0.528   8.520  0.8275 -0.2382  0.2631
 1020MOL0     C34568   5.811   0.405   8.546  0.1675 -0.0003 -0.2749
 1020MOL0     C34569   5.941   0.387   8.464 -0.5816  0.2397  0.0548
 1020MOL0     C34570   6.026   0.264   8.512 -0.0085 -0.0863  0.5626
 1020MOL0     C34571   5.958   0.139   8.473  0.5189 -0.5087 -1.1287
 1020MOL0     C34572   5.901   0.035   8.438 -0.5525 -0.5920 -0.0818
 1020MOL0     C34573   5.409   0.454   8.671  0.1649  0.4389 -0.0003
 1020MOL0     C34574   5.282   0.401   8.634 -0.3831 -0.1867  0.6155
 1020MOL0     H34575   5.109   0.190   8.108 -0.2467  3.0036  0.2812
 1020MOL0     H34576   4.914   0.120   7.967 -1.8903  1.4924 -0.1837
 1020MOL0     H34577   4.507   0.131   8.144  0.5649  0.7574 -1.3204
 1020MOL0     H34578   4.478   0.096   7.975  2.9782 -4.3670 -0.1394
 1020MOL0     H34579   4.588   0.351   7.969  1.5524 -3.1856 -0.6319
 1020MOL0     H34580   4.504   0.352   8.129 -0.6433  1.1347 -0.9313
 1020MOL0     H34581   4.300   0.300   8.036 -0.3749  1.4163 -1.5216
 1020MOL0     H34582   4.365   0.260   7.876  1.5892 -1.1010 -0.6812
 1020MOL0     H34583   4.368   0.540   7.995 -0.1244 -0.6593  1.2990
 1020MOL0     H34584   4.395   0.492   7.831  2.0184  2.4172  1.6502
 1020MOL0     H34585   4.133   0.433   7.977 -2.0324 -2.3319 -2.2364
 1020MOL0     H34586   4.161   0.414   7.808 -1.8448  1.1802 -0.7391
 1020MOL0     H34587   4.178   0.642   7.753 -1.9299 -0.3855 -0.1258
 1020MOL0     H34588   4.206   0.681   7.930  1.9301  0.9868 -1.6706
 1020MOL0     H34589   3.945   0.617   7.793 -0.2897  2.1305  0.0633
 1020MOL0     H34590   3.986   0.613   7.979 -1.5412 -0.5736 -0.3937
 1020MOL0     H34591   4.074   0.846   7.829 -0.6036  1.6578  0.0413
 1020MOL0     H34592   3.996   0.823   7.995  3.2896 -2.8144  1.3057
 1020MOL0     H34593   3.866   0.862   7.610 -1.9973 -0.5051 -1.2376
 1020MOL0     H34594   3.486   0.960   7.653 -0.2292  1.0060 -0.1231
 1020MOL0     H34595   3.589   0.869   7.540  0.1657 -0.0432 -0.9210
 1020MOL0     H34596   3.573   1.076   7.437 -0.2257  3.6934 -0.1123
 1020MOL0     H34597   3.729   1.074   7.523 -0.6777 -0.3145  0.3378
 1020MOL0     H34598   3.603   1.200   7.712 -0.6571 -2.9708 -0.1295
 1020MOL0     H34599   3.651   1.284   7.574 -1.8155  0.7563 -0.9347
 1020MOL0     H34600   3.430   1.257   7.458 -1.9938  1.0234 -0.1671
 1020MOL0     H34601   3.425   1.357   7.607 -0.3412  1.3859 -2.8968
 1020MOL0     H34602   3.212   1.357   7.478  1.3535 -0.2052  0.5514
 1020MOL0     H34603   2.972   1.391   7.474 -1.0511 -1.0240  0.3625
 1020MOL0     H34604   2.601   1.140   7.440 -1.6325 -1.2168  1.9548
 1020MOL0     H34605   2.357   1.114   7.403  1.9776 -2.5510  3.6191
 1020MOL0     H34606   2.090   1.467   7.444  3.8500 -1.0663 -1.4242
 1020MOL0     H34607   2.081   1.399   7.600 -0.3731  2.5300 -1.2851
 1020MOL0     H34608   1.861   1.398   7.455 -1.3548 -1.3001 -0.8782
 1020MOL0     H34609   1.907   1.255   7.536 -1.1764  2.2332  0.2959
 1020MOL0     H34610   1.974   1.147   7.308 -0.6222 -0.0222 -0.8131
 1020MOL0     H34611   1.986   1.311   7.239  1.1045 -0.0128  1.5605
 1020MOL0     H34612   1.739   1.170   7.365  2.9409  0.7876  2.5856
 1020MOL0     H34613   1.725   1.316   7.268  0.9290 -0.0317  1.2556
 1020MOL0     H34614   1.859   1.132   7.103 -0.0445  0.7268 -0.2003
 1020MOL0     H34615   1.706   1.199   7.075 -1.7015 -1.4659  0.4284
 1020MOL0     H34616   1.586   1.027   7.189  0.1568 -1.2886  1.5512
 1020MOL0     H34617   1.743   0.955   7.242  0.2378 -0.2529 -1.5376
 1020MOL0     H34618   1.648   0.967   6.966  2.1003 -2.9434 -2.6176
 1020MOL0     H34619   1.811   0.938   7.019 -1.1105 -0.6211 -2.2337
 1020MOL0     H34620   1.745   0.749   7.168 -0.3558  1.7959 -0.0422
 1020MOL0     H34621   1.715   0.720   7.000  1.3884 -1.7529  1.0150
 1020MOL0     H34622   2.292   1.499   7.574  1.9472  1.8691  0.7357
 1020MOL0     H34623   2.536   1.526   7.624  0.4762  3.2860 -3.1446
 1020MOL0     H34624   2.933   1.055   7.743  0.5425 -2.1733 -1.8238
 1020MOL0     H34625   3.170   1.029   7.745 -0.1193  1.4742  2.4808
 1020MOL0     H34626   4.640   0.241   8.265  0.1489 -1.7586 -0.9036
 1020MOL0     H34627   4.830   0.299   8.419 -1.3279 -4.2875  1.4730
 1020MOL0     H34628   5.309   0.446   8.289  0.4471 -0.9959 -0.9309
 1020MOL0     H34629   5.531   0.532   8.358  1.9231 -1.4757  1.2703
 1020MOL0     H34630   5.809   0.610   8.537  1.1860 -0.1586 -1.4626
 1020MOL0     H34631   5.723   0.540   8.412  2.6880  1.7890  0.1784
 1020MOL0     H34632   5.840   0.393   8.651  0.6797 -3.0718 -0.6533
 1020MOL0     H34633   5.738   0.327   8.523 -0.3583 -0.1107  1.6428
 1020MOL0     H34634   6.001   0.478   8.466  1.2869 -0.9007 -1.2299
 1020MOL0     H34635   5.924   0.361   8.359 -0.2708 -3.3576  0.7594
 1020MOL0     H34636   6.126   0.268   8.467 -0.5112 -3.3526 -1.1548
 1020MOL0     H34637   6.047   0.268   8.619 -2.2917 -0.6762  1.0713
 1020MOL0     H34638   5.866  -0.053   8.389  3.6271 -1.7252 -1.3829
 1020MOL0     H34639   5.444   0.460   8.773  0.9990  0.1015 -0.2607
 1020MOL0     H34640   5.219   0.366   8.715  1.2189  1.1711  2.5148
 1021MOL0     O34641   6.203   2.367   1.307  0.0731 -0.9165 -0.0822
 1021MOL0     C34642   6.192   2.311   1.418  0.6409  0.0290 -0.3590
 1021MOL0     O34643   6.077   2.256   1.467  0.0060  0.2798  0.2629
 1021MOL0     C34644   5.972   2.242   1.373  0.2330  0.2885 -0.6107
 1021MOL0     C34645   5.838   2.249   1.422 -0.4698 -0.3059 -0.7558
 1021MOL0     C34646   5.724   2.244   1.343  0.8228 -0.5288  0.1796
 1021MOL0     C34647   5.749   2.235   1.206  0.9161  0.0568 -1.3871
 1021MOL0     O34648   5.637   2.230   1.126 -0.0879  0.8785  0.0287
 1021MOL0     C34649   5.665   2.303   1.004 -0.2918  1.1347 -0.0818
 1021MOL0     C34650   5.532   2.344   0.938  1.2679 -0.2549  0.4129
 1021MOL0     C34651   5.436   2.440   1.017  0.0579  0.5930  0.0126
 1021MOL0     C34652   5.293   2.439   0.956 -0.4346  0.0152  0.5222
 1021MOL0     C34653   5.202   2.527   1.044  0.7965 -0.0468 -0.2032
 1021MOL0     C34654   5.054   2.486   1.008  0.3109 -0.2589  0.1847
 1021MOL0     C34655   4.961   2.580   1.077 -0.1118 -0.3552 -0.3002
 1021MOL0     C34656   4.812   2.553   1.051  0.4260  0.1048 -0.0162
 1021MOL0     N34657   4.703   2.647   1.105  0.6257 -0.2365 -0.3273
 1021MOL0     C34658   4.719   2.715   1.230  0.1615  0.5383 -0.5358
 1021MOL0     C34659   4.604   2.785   1.257  0.0807 -0.9227  0.1794
 1021MOL0     C34660   4.565   2.865   1.373  0.1097 -0.1546  0.6220
 1021MOL0     C34661   4.584   2.791   1.504  0.6858  0.3143 -0.7033
 1021MOL0     C34662   4.525   2.873   1.620 -0.6769  0.5819  0.3962
 1021MOL0     C34663   4.373   2.897   1.614  0.6220  0.0075 -0.7109
 1021MOL0     O34664   4.324   2.916   1.747 -0.1249 -0.2579 -0.3663
 1021MOL0     C34665   4.222   2.845   1.803 -0.6236  0.4290  0.0128
 1021MOL0     C34666   4.133   2.770   1.731 -0.1967  0.5830  0.1471
 1021MOL0     C34667   4.021   2.714   1.797  1.1836  0.4159  0.0051
 1021MOL0     C34668   4.004   2.713   1.931  0.7720  1.1284  0.8903
 1021MOL0     C34669   3.892   2.642   1.997 -1.1015  0.0158  0.4456
 1021MOL0     O34670   3.794   2.584   1.918 -0.5001 -0.0051  0.4214
 1021MOL0     C34671   3.680   2.550   1.978 -0.3114 -0.4000  0.0444
 1021MOL0     C34672   3.636   2.419   1.966 -0.2168  0.0965  0.4115
 1021MOL0     C34673   3.516   2.387   2.024 -0.4414  0.3599  0.6242
 1021MOL0     C34674   3.444   2.476   2.097  0.1663 -0.1544 -0.3989
 1021MOL0     O34675   3.334   2.443   2.172 -0.1014 -0.9846  0.0939
 1021MOL0     C34676   3.233   2.377   2.096  0.1154  0.0267 -0.3243
 1021MOL0     C34677   3.093   2.403   2.147 -0.6867  0.4341  0.2540
 1021MOL0     C34678   2.990   2.364   2.040 -0.4156 -0.0183  0.1729
 1021MOL0     C34679   2.845   2.372   2.092  0.5790 -0.0334  0.1127
 1021MOL0     C34680   2.807   2.255   2.174  0.2190  0.5743  0.6002
 1021MOL0     C34681   2.665   2.255   2.200 -1.0604  0.7537 -0.0116
 1021MOL0     C34682   2.626   2.119   2.258 -0.0589 -0.6710 -0.3874
 1021MOL0     C34683   2.482   2.110   2.260  0.4421 -0.2765 -1.0773
 1021MOL0    Cl34684   2.405   2.108   2.091  0.4745  0.3188  0.3116
 1021MOL0     C34685   3.495   2.600   2.118 -0.0346  0.9384 -0.4623
 1021MOL0     C34686   3.608   2.648   2.055  0.2441 -0.7356 -0.5579
 1021MOL0     O34687   3.896   2.628   2.118  0.3898  0.4914  0.5001
 1021MOL0     C34688   4.097   2.792   2.006  0.2486  0.0985 -0.5029
 1021MOL0     C34689   4.202   2.848   1.938  0.3779  0.1408 -0.5918
 1021MOL0     N34690   4.534   2.781   1.136  0.5006 -0.1597  0.9175
 1021MOL0     N34691   4.588   2.699   1.048 -0.3932 -0.0753 -0.3615
 1021MOL0     C34692   5.872   2.210   1.147  0.1591  0.3012  0.2634
 1021MOL0     C34693   5.985   2.209   1.236  0.2904  0.4254 -0.3738
 1021MOL0     C34694   6.299   2.329   1.517 -0.0888  0.3301 -0.6119
 1021MOL0     C34695   6.312   2.254   1.632  0.4799 -0.2422 -0.1206
 1021MOL0     C34696   6.406   2.283   1.725 -1.2442  0.2667 -0.0187
 1021MOL0     C34697   6.504   2.382   1.708  0.6609 -0.0861 -0.5870
 1021MOL0     O34698   6.610   2.408   1.792  0.6201 -0.7487 -0.2342
 1021MOL0     C34699   6.594   2.390   1.938  0.0544 -0.6562 -0.8574
 1021MOL0     C34700   6.508   2.507   2.001 -0.2597 -0.0394 -0.2389
 1021MOL0     C34701   6.538   2.535   2.142  0.5684  0.6313 -0.3179
 1021MOL0     C34702   6.462   2.657   2.181  0.3229  0.0925 -0.6689
 1021MOL0     C34703   6.477   2.687   2.321  0.2107 -0.8141 -0.3488
 1021MOL0     C34704   6.500   2.707   2.437  0.4476 -0.3881 -0.2815
 1021MOL0     C34705   6.488   2.463   1.592  0.3269 -0.2497  0.0552
 1021MOL0     C34706   6.388   2.434   1.499 -0.2350 -0.2427  0.2278
 1021MOL0     H34707   5.832   2.264   1.530 -1.8147  1.7615 -1.0594
 1021MOL0     H34708   5.623   2.254   1.382 -0.5418  2.3758 -3.4990
 1021MOL0     H34709   5.711   2.231   0.935 -2.4083  0.7763 -1.2236
 1021MOL0     H34710   5.731   2.388   1.021  0.0106  0.4978  2.2191
 1021MOL0     H34711   5.485   2.247   0.917 -3.4018  2.0002 -0.7959
 1021MOL0     H34712   5.551   2.394   0.843 -1.3866 -1.2200 -0.7336
 1021MOL0     H34713   5.482   2.538   1.028 -1.6732  1.2217  2.3826
 1021MOL0     H34714   5.419   2.393   1.114 -0.4424  0.8206  0.0380
 1021MOL0     H34715   5.302   2.482   0.855  3.9943 -1.7121 -0.0499
 1021MOL0     H34716   5.262   2.334   0.955 -1.6049  0.3328 -0.7708
 1021MOL0     H34717   5.230   2.628   1.012  0.3315 -0.4717 -2.0499
 1021MOL0     H34718   5.235   2.509   1.147  1.1095 -2.2456 -0.6392
 1021MOL0     H34719   5.023   2.391   1.053 -1.9963 -0.4660 -1.6168
 1021MOL0     H34720   5.043   2.485   0.899  2.9396 -0.5551 -0.1544
 1021MOL0     H34721   4.986   2.577   1.183  1.3029  0.0845 -0.6030
 1021MOL0     H34722   4.996   2.677   1.040  0.5134  0.3441  1.9608
 1021MOL0     H34723   4.789   2.453   1.087  1.3182 -0.4739 -0.9899
 1021MOL0     H34724   4.797   2.556   0.942  0.8351  1.0408 -0.0569
 1021MOL0     H34725   4.802   2.699   1.299  0.6971  2.3919 -0.6840
 1021MOL0     H34726   4.462   2.901   1.363  1.0379  3.7927  2.8323
 1021MOL0     H34727   4.619   2.960   1.372 -2.3024  1.3100  1.1041
 1021MOL0     H34728   4.684   2.762   1.537 -1.1504 -0.5917  5.2357
 1021MOL0     H34729   4.523   2.701   1.512  1.5928 -0.1175  2.8869
 1021MOL0     H34730   4.547   2.821   1.714 -0.9464  0.4158  0.3703
 1021MOL0     H34731   4.576   2.970   1.622 -1.4730  1.1125 -1.9455
 1021MOL0     H34732   4.328   2.809   1.567  1.6946 -1.2329  0.5083
 1021MOL0     H34733   4.345   2.970   1.538 -2.3446 -1.1409 -0.8369
 1021MOL0     H34734   4.132   2.746   1.626 -0.4569 -2.6577  0.8023
 1021MOL0     H34735   3.942   2.670   1.736  0.2496  0.8738  0.8614
 1021MOL0     H34736   3.699   2.338   1.932  2.4618  2.2807 -0.2486
 1021MOL0     H34737   3.486   2.283   2.012  1.6501 -0.5717  2.8498
 1021MOL0     H34738   3.257   2.271   2.082  0.4349  0.2759 -1.8028
 1021MOL0     H34739   3.234   2.427   1.999  1.8942  2.0667  0.6615
 1021MOL0     H34740   3.075   2.508   2.171  0.6330  0.9161 -0.7645
 1021MOL0     H34741   3.076   2.343   2.237 -0.5589  0.5875  0.3806
 1021MOL0     H34742   3.015   2.266   2.000  1.8101  0.4914  0.1864
 1021MOL0     H34743   2.995   2.430   1.953  2.6132  0.9583  0.9465
 1021MOL0     H34744   2.826   2.467   2.144  1.6261  0.5676 -0.5790
 1021MOL0     H34745   2.778   2.358   2.007 -1.0279 -1.2481  1.4814
 1021MOL0     H34746   2.860   2.250   2.270  1.0714  0.1696  0.1127
 1021MOL0     H34747   2.831   2.166   2.115 -3.7059 -1.6491  1.9503
 1021MOL0     H34748   2.616   2.266   2.103 -0.3404 -0.6931 -0.5670
 1021MOL0     H34749   2.631   2.342   2.257  2.9580  2.3534  0.2783
 1021MOL0     H34750   2.673   2.042   2.195  3.8486  2.1137 -1.2900
 1021MOL0     H34751   2.679   2.117   2.354  1.3733  0.6137 -1.1094
 1021MOL0     H34752   2.440   2.186   2.326 -0.8862 -3.1724  1.6541
 1021MOL0     H34753   2.449   2.012   2.297 -1.7771  0.7755 -0.1155
 1021MOL0     H34754   3.430   2.673   2.164 -2.2529 -1.0835 -0.1783
 1021MOL0     H34755   3.652   2.740   2.092 -1.3158 -0.1056 -0.1938
 1021MOL0     H34756   4.103   2.803   2.114 -0.1782  2.5523 -0.6811
 1021MOL0     H34757   4.275   2.916   1.980 -0.3212  1.5410 -1.5816
 1021MOL0     H34758   5.885   2.197   1.040 -1.1819 -1.4544  0.2761
 1021MOL0     H34759   6.089   2.201   1.204  0.7867  0.3450  1.1671
 1021MOL0     H34760   6.237   2.176   1.646  3.0163 -2.6759  0.8806
 1021MOL0     H34761   6.412   2.218   1.812 -1.1826  1.2429  0.7117
 1021MOL0     H34762   6.683   2.373   1.999 -1.3441 -2.1804  0.8800
 1021MOL0     H34763   6.527   2.305   1.955 -2.7752  1.1381 -2.2459
 1021MOL0     H34764   6.517   2.589   1.929 -0.5823  1.5743  1.4748
 1021MOL0     H34765   6.404   2.485   1.977 -0.4050  1.2635 -0.9036
 1021MOL0     H34766   6.644   2.559   2.153  0.7789  0.4457 -1.7206
 1021MOL0     H34767   6.510   2.438   2.185  1.5811  0.0443 -0.9626
 1021MOL0     H34768   6.478   2.747   2.121 -0.1534  0.3095 -0.4770
 1021MOL0     H34769   6.360   2.629   2.156  1.0941 -2.8073 -0.9059
 1021MOL0     H34770   6.515   2.749   2.534  1.3000  0.7452 -0.8631
 1021MOL0     H34771   6.554   2.548   1.574 -0.8472  0.5296 -0.6972
 1021MOL0     H34772   6.385   2.497   1.411 -2.7839  0.2938  0.6371
 1022MOL0     O34773   9.164   1.050   0.690 -0.5137 -1.0159  0.3140
 1022MOL0     C34774   9.250   1.094   0.610 -0.2320 -0.1456 -0.2575
 1022MOL0     O34775   9.222   1.147   0.486 -0.4069  0.0444  0.0855
 1022MOL0     C34776   9.089   1.184   0.454 -0.6890 -1.0162 -1.0380
 1022MOL0     C34777   9.034   1.137   0.334  0.0196  0.8914  0.0899
 1022MOL0     C34778   8.902   1.164   0.283  0.2546  0.5045  0.6027
 1022MOL0     C34779   8.829   1.259   0.352 -0.2900 -1.7225 -0.4825
 1022MOL0     O34780   8.713   1.306   0.300 -0.1733  0.3011  0.0212
 1022MOL0     C34781   8.615   1.204   0.308  0.3090  0.0834 -0.1815
 1022MOL0     C34782   8.512   1.254   0.414  0.2806 -0.2702  0.0832
 1022MOL0     C34783   8.411   1.142   0.437  0.3489 -0.7361  0.8753
 1022MOL0     C34784   8.316   1.153   0.314  0.1972  0.4902 -0.7438
 1022MOL0     C34785   8.174   1.181   0.357 -0.6252 -0.0921  0.9158
 1022MOL0     C34786   8.099   1.063   0.411  0.0694  0.7484 -0.0652
 1022MOL0     C34787   7.967   1.098   0.472  0.9285 -0.5701 -0.0365
 1022MOL0     C34788   7.894   0.985   0.536 -0.7048  0.1703  0.6940
 1022MOL0     N34789   7.837   0.898   0.434  0.1870  1.1649 -0.3127
 1022MOL0     C34790   7.718   0.931   0.366 -0.0842 -0.0234  0.4653
 1022MOL0     C34791   7.708   0.846   0.261  0.4457 -0.0944 -0.0961
 1022MOL0     C34792   7.596   0.851   0.155 -0.7607  0.4093  0.1125
 1022MOL0     C34793   7.472   0.789   0.231  0.3122  0.5130  0.2643
 1022MOL0     C34794   7.488   0.628   0.239  0.3277 -0.5249  0.3196
 1022MOL0     C34795   7.368   0.568   0.314  0.1875 -0.3139  0.4422
 1022MOL0     O34796   7.374   0.608   0.458  0.5047  0.2810 -0.1411
 1022MOL0     C34797   7.485   0.555   0.530 -0.4046 -0.4452  0.7779
 1022MOL0     C34798   7.600   0.643   0.546 -0.8478  0.3547 -0.1501
 1022MOL0     C34799   7.715   0.588   0.594 -0.4614  0.1816 -1.0283
 1022MOL0     C34800   7.721   0.459   0.641  0.2340  0.6052  0.5629
 1022MOL0     C34801   7.847   0.394   0.696  0.1597 -0.1639  0.2209
 1022MOL0     O34802   7.957   0.445   0.641 -0.6845  0.0768  0.3489
 1022MOL0     C34803   8.077   0.383   0.665  1.2146  0.7161 -0.5995
 1022MOL0     C34804   8.151   0.349   0.553 -0.3304  0.1613 -0.1768
 1022MOL0     C34805   8.276   0.291   0.569 -0.2247  0.3553 -0.1598
 1022MOL0     C34806   8.333   0.278   0.695 -0.3964 -0.8030  0.3526
 1022MOL0     O34807   8.465   0.242   0.719 -0.0858  1.3445  0.1109
 1022MOL0     C34808   8.558   0.241   0.610  0.3873 -0.2352 -0.2188
 1022MOL0     C34809   8.709   0.233   0.653  0.5404 -0.0517 -0.4003
 1022MOL0     C34810   8.747   0.354   0.753 -0.4298  0.4227 -0.5394
 1022MOL0     C34811   8.897   0.338   0.792 -1.0892 -0.5569 -0.1663
 1022MOL0     C34812   8.935   0.451   0.893 -0.6785  0.1851 -1.1726
 1022MOL0     C34813   9.076   0.469   0.942 -0.0846 -0.7333 -0.2157
 1022MOL0     C34814   9.167   0.532   0.832  0.4179  0.5682 -0.3445
 1022MOL0     C34815   9.304   0.577   0.894 -1.1595 -0.9015  0.5129
 1022MOL0    Cl34816   9.361   0.459   1.010 -0.0201 -0.1562  0.2996
 1022MOL0     C34817   8.268   0.327   0.805  0.0937  0.0232 -0.0420
 1022MOL0     C34818   8.135   0.373   0.795 -0.4383  0.5623  0.2535
 1022MOL0     O34819   7.839   0.302   0.771  0.0348  0.5923  0.1727
 1022MOL0     C34820   7.609   0.374   0.633  0.4433 -1.0378 -0.0869
 1022MOL0     C34821   7.491   0.424   0.569  0.0300 -0.2481 -0.5317
 1022MOL0     N34822   7.809   0.755   0.275 -0.0041 -0.3189  0.8489
 1022MOL0     N34823   7.880   0.785   0.372  0.6956 -0.8723 -0.4397
 1022MOL0     C34824   8.880   1.312   0.475 -0.5743  0.0049  0.4752
 1022MOL0     C34825   9.003   1.270   0.531 -0.5100 -0.3461  0.4362
 1022MOL0     C34826   9.386   1.077   0.648  0.5176 -0.4830 -0.3067
 1022MOL0     C34827   9.485   1.093   0.558  0.9067 -1.0474  0.2689
 1022MOL0     C34828   9.620   1.057   0.582 -1.1918  0.4518  0.0323
 1022MOL0     C34829   9.662   1.028   0.712 -0.0225  0.6508 -0.2468
 1022MOL0     O34830   9.791   1.009   0.723 -0.2821 -0.7714 -0.0468
 1022MOL0     C34831   9.859   0.933   0.823  0.2480  0.3429 -0.0698
 1022MOL0     C34832   9.828   0.779   0.809 -0.4743  0.0289 -0.9475
 1022MOL0     C34833   9.929   0.689   0.892  0.0512  0.0751 -0.6996
 1022MOL0     C34834   9.897   0.704   1.044 -0.2919  0.0440  0.9717
 1022MOL0     C34835   9.767   0.657   1.082 -0.1599  0.0912 -0.0935
 1022MOL0     C34836   9.656   0.608   1.107  0.8597  0.0004  0.1867
 1022MOL0     C34837   9.564   1.005   0.809 -0.0363  0.3812 -0.5042
 1022MOL0     C34838   9.426   1.034   0.775  1.2738 -0.5526  0.4889
 1022MOL0     H34839   9.100   1.067   0.285  3.3050  1.1849  3.6639
 1022MOL0     H34840   8.870   1.123   0.189 -0.1425 -1.1529  1.4333
 1022MOL0     H34841   8.652   1.107   0.342 -0.3191 -2.2710 -5.2893
 1022MOL0     H34842   8.571   1.175   0.212  1.4096 -0.1626 -0.6244
 1022MOL0     H34843   8.463   1.349   0.388 -0.1208 -1.1704 -2.9149
 1022MOL0     H34844   8.559   1.270   0.511  0.2991  0.3124 -0.0142
 1022MOL0     H34845   8.351   1.153   0.528 -0.0331  0.1433  0.5298
 1022MOL0     H34846   8.455   1.043   0.444 -0.8372 -1.2047  1.9959
 1022MOL0     H34847   8.347   1.231   0.245  0.0977  1.3114  0.1189
 1022MOL0     H34848   8.320   1.049   0.281  0.2148  0.0759  0.5098
 1022MOL0     H34849   8.133   1.219   0.263  2.4299 -0.7719 -0.8261
 1022MOL0     H34850   8.178   1.260   0.434  1.5223  0.7449  0.0205
 1022MOL0     H34851   8.164   1.026   0.492 -0.2321  1.6685  0.6111
 1022MOL0     H34852   8.087   0.984   0.336 -0.3088 -0.2686  1.0353
 1022MOL0     H34853   7.984   1.170   0.552 -0.8598 -0.7954  0.5973
 1022MOL0     H34854   7.903   1.136   0.392 -1.4975  3.4003  3.4013
 1022MOL0     H34855   7.818   1.039   0.593  1.7009  1.1822  3.1707
 1022MOL0     H34856   7.964   0.941   0.608  0.6230  0.9631 -0.0735
 1022MOL0     H34857   7.652   1.012   0.396 -1.8361 -0.6960 -1.3258
 1022MOL0     H34858   7.613   0.789   0.066 -1.1680  0.8821 -0.3057
 1022MOL0     H34859   7.568   0.953   0.127 -1.0089  0.2259 -0.3130
 1022MOL0     H34860   7.382   0.813   0.174 -0.0623 -1.0227  0.1780
 1022MOL0     H34861   7.457   0.818   0.336 -1.7875 -0.8559  0.4052
 1022MOL0     H34862   7.487   0.593   0.136 -2.2808 -1.3769  0.5644
 1022MOL0     H34863   7.584   0.597   0.283  1.9104  2.7115 -0.4933
 1022MOL0     H34864   7.371   0.459   0.303 -0.2382 -0.1194 -2.3583
 1022MOL0     H34865   7.274   0.602   0.269 -0.9014 -1.1661  1.9644
 1022MOL0     H34866   7.614   0.744   0.509 -1.7120  0.1127 -1.1975
 1022MOL0     H34867   7.806   0.643   0.616 -0.6194  0.2546 -0.5342
 1022MOL0     H34868   8.113   0.358   0.452 -0.7572 -2.3336 -0.3142
 1022MOL0     H34869   8.336   0.283   0.479  0.1633  0.4036  0.0955
 1022MOL0     H34870   8.542   0.335   0.556 -3.9232  0.6045  2.1073
 1022MOL0     H34871   8.524   0.162   0.542 -2.4794 -1.2041  2.1444
 1022MOL0     H34872   8.775   0.243   0.566  0.5100  0.5833 -0.3558
 1022MOL0     H34873   8.733   0.144   0.712 -2.1975  0.8823  2.3821
 1022MOL0     H34874   8.677   0.358   0.837 -2.7390  1.1289 -2.3670
 1022MOL0     H34875   8.739   0.449   0.700  0.5507  0.4866 -0.5788
 1022MOL0     H34876   8.914   0.242   0.842  2.4047  0.9753  1.9954
 1022MOL0     H34877   8.964   0.347   0.706 -1.7245 -1.8805 -0.8337
 1022MOL0     H34878   8.878   0.417   0.979 -1.1255  3.2414 -0.1426
 1022MOL0     H34879   8.902   0.550   0.859  4.4840  2.6847  0.1551
 1022MOL0     H34880   9.114   0.369   0.967  1.6164 -0.1396 -0.2732
 1022MOL0     H34881   9.085   0.534   1.029  2.9879 -1.5223  0.1908
 1022MOL0     H34882   9.193   0.452   0.762  0.0105  0.8949 -0.8822
 1022MOL0     H34883   9.126   0.614   0.772  3.8577  1.1354 -2.1709
 1022MOL0     H34884   9.290   0.675   0.939 -0.2021 -0.1060 -0.8335
 1022MOL0     H34885   9.379   0.602   0.818 -3.0870  2.6383 -0.4555
 1022MOL0     H34886   8.315   0.321   0.903  0.6311 -3.1162 -0.3859
 1022MOL0     H34887   8.077   0.421   0.873  0.8610  0.1108  1.5456
 1022MOL0     H34888   7.603   0.272   0.670 -0.0095 -1.6104 -1.6379
 1022MOL0     H34889   7.404   0.360   0.561  0.9344 -1.4683 -0.9496
 1022MOL0     H34890   8.827   1.390   0.529 -1.2217 -0.2624  0.2328
 1022MOL0     H34891   9.034   1.295   0.632  0.6446  0.1357 -0.0216
 1022MOL0     H34892   9.464   1.119   0.455  2.0289  0.0473  0.2936
 1022MOL0     H34893   9.690   1.050   0.499 -0.8335  0.1946  0.3523
 1022MOL0     H34894   9.835   0.961   0.926  3.0050  2.0002  0.2134
 1022MOL0     H34895   9.967   0.948   0.819  0.8518 -2.7673  1.3908
 1022MOL0     H34896   9.723   0.758   0.834 -0.6680  0.7524 -1.1032
 1022MOL0     H34897   9.844   0.757   0.703  0.0546  0.0440 -0.8721
 1022MOL0     H34898  10.028   0.731   0.874  0.8739 -2.1875 -1.9469
 1022MOL0     H34899   9.936   0.585   0.860  0.4085 -0.0105 -0.3454
 1022MOL0     H34900   9.971   0.641   1.095  0.2022 -0.2013 -0.0277
 1022MOL0     H34901   9.913   0.809   1.070  1.4536  0.2748 -0.7726
 1022MOL0     H34902   9.554   0.575   1.112  0.7889  0.2186  0.2246
 1022MOL0     H34903   9.589   0.980   0.912  2.9469  0.8124 -1.0464
 1022MOL0     H34904   9.357   0.999   0.851  0.9949  0.2258  0.6084
 1023MOL0     O34905   7.430   8.013   3.585 -0.2323  0.3005  0.0259
 1023MOL0     C34906   7.461   7.901   3.544  0.1558 -0.3190  0.1406
 1023MOL0     O34907   7.379   7.799   3.537 -0.4691 -0.0439  0.3854
 1023MOL0     C34908   7.248   7.816   3.568  1.4369 -0.2242  0.3299
 1023MOL0     C34909   7.145   7.785   3.475 -0.2508 -0.6180  0.2731
 1023MOL0     C34910   7.014   7.822   3.502 -0.0154 -0.1510  0.9675
 1023MOL0     C34911   6.973   7.867   3.625  0.2176  0.3474 -0.3585
 1023MOL0     O34912   6.840   7.900   3.641  0.2660 -0.1173 -0.4540
 1023MOL0     C34913   6.776   7.927   3.761 -0.9103 -0.0868  0.3551
 1023MOL0     C34914   6.624   7.920   3.750  0.3007  0.8964 -0.2680
 1023MOL0     C34915   6.583   7.768   3.756  0.4399 -0.2029  1.0139
 1023MOL0     C34916   6.429   7.747   3.757  0.2446 -0.0835 -0.5506
 1023MOL0     C34917   6.364   7.603   3.774 -0.1802 -0.6223  0.6970
 1023MOL0     C34918   6.227   7.604   3.714 -0.2661 -0.3341 -0.3542
 1023MOL0     C34919   6.172   7.460   3.731  0.5728  0.3439 -0.1599
 1023MOL0     C34920   6.033   7.435   3.675 -0.1498 -0.2735 -0.4357
 1023MOL0     N34921   5.923   7.512   3.730  0.0692 -0.4153 -0.2328
 1023MOL0     C34922   5.905   7.526   3.867  0.1838  0.1074 -0.1186
 1023MOL0     C34923   5.804   7.612   3.871 -0.4361 -0.1756  0.3137
 1023MOL0     C34924   5.734   7.671   3.992 -0.0354 -0.5174  0.0213
 1023MOL0     C34925   5.654   7.575   4.077  0.0651  0.3201 -0.7972
 1023MOL0     C34926   5.588   7.632   4.206  0.6607  0.1465  0.8360
 1023MOL0     C34927   5.488   7.537   4.273  0.8863  0.3774  0.4647
 1023MOL0     O34928   5.424   7.603   4.382  0.3797  0.0680  0.7706
 1023MOL0     C34929   5.339   7.529   4.453  0.6278  0.3114 -0.1120
 1023MOL0     C34930   5.337   7.389   4.452 -0.5190  0.6378  0.3688
 1023MOL0     C34931   5.234   7.316   4.518 -0.2608 -1.3516 -0.4285
 1023MOL0     C34932   5.139   7.382   4.602 -0.0187 -0.2836  0.9839
 1023MOL0     C34933   5.045   7.308   4.674 -0.1279  0.6652 -0.0745
 1023MOL0     O34934   5.028   7.341   4.813  0.0429 -0.7685  0.5938
 1023MOL0     C34935   4.912   7.305   4.869  1.2801  0.0571 -0.6900
 1023MOL0     C34936   4.900   7.314   5.010 -0.4473  1.2637 -0.4934
 1023MOL0     C34937   4.786   7.272   5.078 -0.0849 -0.5715 -0.3858
 1023MOL0     C34938   4.675   7.228   5.011 -0.2954  1.2881 -0.3795
 1023MOL0     O34939   4.574   7.190   5.095 -0.0823  0.2603  0.4010
 1023MOL0     C34940   4.452   7.136   5.036  0.5384  1.4495  0.5316
 1023MOL0     C34941   4.355   7.104   5.143  0.4011  0.3879 -0.5136
 1023MOL0     C34942   4.222   7.046   5.090 -0.3978  0.4165 -0.2910
 1023MOL0     C34943   4.116   7.015   5.213  0.4369  0.5121  0.6247
 1023MOL0     C34944   4.069   7.137   5.284 -0.2022 -0.8458 -0.3202
 1023MOL0     C34945   3.916   7.140   5.316 -0.0385 -0.1195  0.2413
 1023MOL0     C34946   3.883   7.249   5.428 -0.7898  0.8203 -0.8112
 1023MOL0     C34947   3.742   7.225   5.493 -0.3260 -0.3051  0.4179
 1023MOL0    Cl34948   3.641   7.366   5.454  0.3841  0.4800 -0.0095
 1023MOL0     C34949   4.675   7.213   4.876  0.3915 -0.0662 -0.2281
 1023MOL0     C34950   4.796   7.252   4.811  0.4829  0.3381  0.2171
 1023MOL0     O34951   4.996   7.212   4.611 -0.5984  0.2403 -0.5121
 1023MOL0     C34952   5.147   7.523   4.606 -0.7105 -0.2338 -0.1382
 1023MOL0     C34953   5.244   7.593   4.536 -0.4399  0.0868 -0.0097
 1023MOL0     N34954   5.761   7.640   3.740  0.1648 -0.3375  0.6578
 1023MOL0     N34955   5.834   7.578   3.658 -0.0364 -0.1252  0.4320
 1023MOL0     C34956   7.073   7.882   3.726  0.4717 -1.2330  0.7857
 1023MOL0     C34957   7.207   7.858   3.697 -0.1360  0.5191  0.4098
 1023MOL0     C34958   7.599   7.886   3.490  0.1779  0.5613 -0.1183
 1023MOL0     C34959   7.713   7.974   3.513  0.3333  0.4009 -0.3454
 1023MOL0     C34960   7.844   7.939   3.473  1.1297 -0.2925  0.4343
 1023MOL0     C34961   7.869   7.819   3.405  1.0343 -0.1204 -0.0892
 1023MOL0     O34962   7.991   7.777   3.364 -0.6339  0.6694  0.7474
 1023MOL0     C34963   8.092   7.879   3.340  0.7050 -0.8028 -0.7347
 1023MOL0     C34964   8.206   7.816   3.258  1.2470  0.2346  0.1242
 1023MOL0     C34965   8.157   7.744   3.126 -0.0081  0.6318  1.1324
 1023MOL0     C34966   8.272   7.696   3.045 -0.4902  0.1135  1.0535
 1023MOL0     C34967   8.211   7.612   2.941  0.7888 -0.1226 -0.0316
 1023MOL0     C34968   8.165   7.520   2.875  0.0024  0.4555 -0.6298
 1023MOL0     C34969   7.757   7.735   3.374  0.2467  0.8197  0.4452
 1023MOL0     C34970   7.633   7.778   3.423 -0.0945  0.5472 -0.2469
 1023MOL0     H34971   7.181   7.750   3.378 -1.6002 -3.6190  0.7430
 1023MOL0     H34972   6.945   7.815   3.419 -1.8337 -2.3759  2.5344
 1023MOL0     H34973   6.797   8.033   3.773  3.5569 -0.7283  0.0758
 1023MOL0     H34974   6.813   7.863   3.842 -0.1797 -1.6163 -1.1226
 1023MOL0     H34975   6.582   7.972   3.663  0.2888 -1.4700 -1.7688
 1023MOL0     H34976   6.587   7.969   3.840  0.8248  0.5453  0.1427
 1023MOL0     H34977   6.625   7.728   3.848 -0.6749  0.8709  2.0191
 1023MOL0     H34978   6.632   7.711   3.676  0.0791  1.0413 -0.1517
 1023MOL0     H34979   6.380   7.804   3.837  1.4392  0.1207  0.0494
 1023MOL0     H34980   6.398   7.776   3.657 -1.0558 -4.0088 -1.4893
 1023MOL0     H34981   6.366   7.566   3.877 -2.1909 -0.8569  0.6822
 1023MOL0     H34982   6.429   7.535   3.718  2.0288  1.2107  0.9049
 1023MOL0     H34983   6.246   7.627   3.609 -1.2875  1.9510 -0.0835
 1023MOL0     H34984   6.155   7.678   3.750 -1.3891 -1.1004 -0.9388
 1023MOL0     H34985   6.245   7.390   3.690  0.2438 -0.1876  0.1577
 1023MOL0     H34986   6.173   7.438   3.838 -0.6622  1.1596  0.0520
 1023MOL0     H34987   6.013   7.331   3.699  0.3136  0.1879  2.3091
 1023MOL0     H34988   6.034   7.457   3.568 -0.4056 -0.5602 -0.4969
 1023MOL0     H34989   5.964   7.485   3.948  0.0082  0.0320 -0.0284
 1023MOL0     H34990   5.665   7.748   3.959  2.2652  0.7332 -2.2046
 1023MOL0     H34991   5.812   7.715   4.055  0.5949  1.0411 -1.7587
 1023MOL0     H34992   5.718   7.497   4.119 -1.4440 -1.3358 -1.4226
 1023MOL0     H34993   5.583   7.518   4.016 -0.5868  0.9993 -0.6964
 1023MOL0     H34994   5.672   7.645   4.275  0.5046 -0.2976  1.1154
 1023MOL0     H34995   5.526   7.720   4.188 -2.3131 -2.3494 -2.9037
 1023MOL0     H34996   5.552   7.453   4.302 -0.1568 -0.9352 -0.8559
 1023MOL0     H34997   5.420   7.494   4.199  0.2559  0.6796  0.8694
 1023MOL0     H34998   5.398   7.321   4.393  1.0182 -0.3072  2.8576
 1023MOL0     H34999   5.241   7.211   4.489 -0.3158 -1.6113  0.4780
 1023MOL0     H35000   4.976   7.365   5.069 -0.6706  0.3354  0.6196
 1023MOL0     H35001   4.789   7.278   5.186  2.5819 -0.3931 -0.4069
 1023MOL0     H35002   4.489   7.046   4.986  3.3401  2.2734  0.9790
 1023MOL0     H35003   4.411   7.206   4.963  2.1517  0.8483 -1.0160
 1023MOL0     H35004   4.327   7.196   5.195  0.3850  0.0285  0.1339
 1023MOL0     H35005   4.407   7.036   5.212  0.2286 -1.9722 -2.5937
 1023MOL0     H35006   4.245   6.959   5.027  2.5688  1.9931 -1.5925
 1023MOL0     H35007   4.175   7.122   5.027 -0.2885 -1.4389 -2.7796
 1023MOL0     H35008   4.040   6.955   5.163 -0.2845  0.9816  1.1341
 1023MOL0     H35009   4.154   6.942   5.285 -0.2726 -0.9236 -0.4100
 1023MOL0     H35010   4.088   7.232   5.232 -1.5281 -0.7569 -0.6689
 1023MOL0     H35011   4.124   7.138   5.379 -3.5382 -1.0840  1.7511
 1023MOL0     H35012   3.877   7.040   5.339 -4.8662  0.3806 -3.9092
 1023MOL0     H35013   3.868   7.178   5.225 -4.2996 -1.1917  1.8184
 1023MOL0     H35014   3.964   7.240   5.502 -0.7990 -3.2564 -1.0503
 1023MOL0     H35015   3.892   7.340   5.368  1.4735 -0.9399 -3.4076
 1023MOL0     H35016   3.757   7.234   5.601  1.2010  2.8770  0.0549
 1023MOL0     H35017   3.704   7.123   5.480 -0.0735 -0.1672 -1.7375
 1023MOL0     H35018   4.595   7.180   4.811  2.4182 -1.5762 -2.1140
 1023MOL0     H35019   4.797   7.256   4.703 -1.2078  1.2088  0.2042
 1023MOL0     H35020   5.090   7.594   4.665 -0.6917  3.4240 -4.0659
 1023MOL0     H35021   5.263   7.700   4.545  7.7133 -0.4911 -2.4094
 1023MOL0     H35022   7.061   7.929   3.823  3.2784  0.9538  0.2089
 1023MOL0     H35023   7.279   7.876   3.776  0.1988 -0.2806  0.2870
 1023MOL0     H35024   7.688   8.062   3.571 -2.2559 -0.2959 -0.2889
 1023MOL0     H35025   7.923   8.004   3.509  0.6834 -0.1343  1.1559
 1023MOL0     H35026   8.132   7.919   3.433 -0.3055 -2.1701  0.3302
 1023MOL0     H35027   8.050   7.967   3.291  0.4732 -0.1775  0.5676
 1023MOL0     H35028   8.269   7.903   3.237 -1.8418  2.8098  0.7494
 1023MOL0     H35029   8.251   7.737   3.319  2.7273  0.7713 -0.2147
 1023MOL0     H35030   8.112   7.817   3.058  0.8291 -0.5361 -0.7351
 1023MOL0     H35031   8.086   7.663   3.146 -0.3887  1.1597  1.9779
 1023MOL0     H35032   8.322   7.781   2.999 -0.5473 -1.6075 -2.4758
 1023MOL0     H35033   8.350   7.643   3.101  0.9805  0.7631 -0.3270
 1023MOL0     H35034   8.147   7.436   2.812 -0.6260 -1.1638  1.5903
 1023MOL0     H35035   7.760   7.638   3.326  1.0051  0.2373  1.6092
 1023MOL0     H35036   7.555   7.704   3.409 -0.8232  1.4738 -1.2234
 1024MOL0     O35037   8.460   1.076  10.488 -0.6741 -0.4760 -0.0794
 1024MOL0     C35038   8.477   1.131  10.595 -0.1069  0.7599 -0.2682
 1024MOL0     O35039   8.389   1.126  10.705  0.0738 -0.0835  0.6818
 1024MOL0     C35040   8.283   1.034  10.680 -0.7325  0.9166 -0.7202
 1024MOL0     C35041   8.149   1.068  10.654 -0.7231  0.9306  0.0605
 1024MOL0     C35042   8.063   0.972  10.605 -0.2593 -0.1398  0.1481
 1024MOL0     C35043   8.100   0.836  10.616 -0.0349  0.2119  0.4376
 1024MOL0     O35044   8.023   0.732  10.591 -0.7033  0.6229 -0.7906
 1024MOL0     C35045   7.883   0.753  10.603  0.6197  0.2394 -0.4082
 1024MOL0     C35046   7.813   0.613  10.642  0.1474  0.2797  0.1782
 1024MOL0     C35047   7.671   0.624  10.674 -0.1819 -0.5515  0.2198
 1024MOL0     C35048   7.601   0.497  10.719 -0.2447 -0.2729  0.1073
 1024MOL0     C35049   7.454   0.505  10.712 -0.5443  0.4211 -0.3163
 1024MOL0     C35050   7.394   0.371  10.772  0.5188 -0.2639  0.4179
 1024MOL0     C35051   7.240   0.388  10.753  0.4530  0.2808  0.1237
 1024MOL0     C35052   7.187   0.329  10.615 -0.2074  0.3394 -1.3114
 1024MOL0     N35053   7.156   0.190  10.622 -0.2226  0.2973 -0.4287
 1024MOL0     C35054   7.034   0.130  10.649 -0.2819 -0.8260  0.0389
 1024MOL0     C35055   7.069  -0.007  10.636  0.0474 -1.1486 -0.1576
 1024MOL0     C35056   6.972  -0.116  10.667  0.3837 -0.8544 -0.2645
 1024MOL0     C35057   6.906  -0.175  10.543  0.7731  0.2549 -0.7196
 1024MOL0     C35058   6.826  -0.302  10.563 -0.5117 -0.5642 -0.0881
 1024MOL0     C35059   6.709  -0.293  10.665  0.3522  0.3740  0.6987
 1024MOL0     O35060   6.622  -0.179  10.624  0.5017 -0.2509  0.1480
 1024MOL0     C35061   6.506  -0.215  10.562  0.3316 -0.1302  0.7044
 1024MOL0     C35062   6.491  -0.203  10.421 -0.7755 -0.1967 -0.5738
 1024MOL0     C35063   6.369  -0.230  10.370 -0.7599 -0.0615 -0.1237
 1024MOL0     C35064   6.257  -0.276  10.443 -0.0092 -0.7442  0.5519
 1024MOL0     C35065   6.117  -0.293  10.396 -0.1642 -0.5593  0.2842
 1024MOL0     O35066   6.023  -0.346  10.481  0.4170 -0.6737 -1.0172
 1024MOL0     C35067   5.915  -0.410  10.431  0.6605 -0.1250  0.9595
 1024MOL0     C35068   5.789  -0.379  10.488 -0.6615  0.5176  0.4684
 1024MOL0     C35069   5.680  -0.431  10.434 -0.2738  0.1695  0.3274
 1024MOL0     C35070   5.681  -0.517  10.319  0.1605 -1.0632 -0.0068
 1024MOL0     O35071   5.559  -0.546  10.260  0.7558  0.4123 -0.2601
 1024MOL0     C35072   5.568  -0.629  10.138  0.7292 -0.0690 -0.0275
 1024MOL0     C35073   5.429  -0.662  10.087 -0.0228 -0.6279  0.3571
 1024MOL0     C35074   5.342  -0.695  10.207  0.8667 -0.3616 -0.5722
 1024MOL0     C35075   5.219  -0.764  10.162 -0.2030  0.3601 -0.6722
 1024MOL0     C35076   5.132  -0.806  10.278 -0.2806 -0.7028  0.6230
 1024MOL0     C35077   4.999  -0.867  10.210  0.3768  1.0901  0.0636
 1024MOL0     C35078   4.906  -0.928  10.308  0.1072  0.5165  0.5160
 1024MOL0     C35079   4.773  -0.991  10.252  0.0447  0.2177  0.6426
 1024MOL0    Cl35080   4.666  -1.054  10.371  0.3772 -0.0957  0.0647
 1024MOL0     C35081   5.809  -0.545  10.262  0.3319  0.4175 -0.6361
 1024MOL0     C35082   5.926  -0.498  10.328  0.1988 -0.2744 -0.0164
 1024MOL0     O35083   6.092  -0.261  10.276  0.8138  0.8544  0.2637
 1024MOL0     C35084   6.277  -0.294  10.583  0.8827 -0.6153  0.3175
 1024MOL0     C35085   6.399  -0.257  10.640 -0.1890 -1.0020 -0.5502
 1024MOL0     N35086   7.203  -0.024  10.600  0.5984 -0.4284 -0.8773
 1024MOL0     N35087   7.246   0.095  10.588 -0.5559 -0.3691  0.2604
 1024MOL0     C35088   8.222   0.802  10.660 -0.0740 -0.5047 -0.1642
 1024MOL0     C35089   8.312   0.901  10.690  0.9612  0.9904 -0.5358
 1024MOL0     C35090   8.605   1.207  10.621  0.4069  0.8893  0.7206
 1024MOL0     C35091   8.714   1.190  10.534 -0.9241  0.0680 -0.0457
 1024MOL0     C35092   8.842   1.233  10.573  0.0509 -0.4140 -0.1331
 1024MOL0     C35093   8.865   1.301  10.687  0.3293 -0.4789 -0.2336
 1024MOL0     O35094   8.999   1.341  10.698 -0.6055  0.2611  0.2660
 1024MOL0     C35095   9.021   1.418  10.814  0.8302 -0.8224  0.3374
 1024MOL0     C35096   9.166   1.470  10.838  0.2943 -0.1183  0.5645
 1024MOL0     C35097   9.265   1.356  10.825 -1.0936 -0.2365 -0.4494
 1024MOL0     C35098   9.408   1.391  10.861 -1.2792  0.4805  1.3020
 1024MOL0     C35099   9.485   1.467  10.751  0.0991 -0.3573 -0.0822
 1024MOL0     C35100   9.535   1.524  10.658 -0.2623 -0.6042 -0.0212
 1024MOL0     C35101   8.755   1.338  10.766 -0.4547  0.2469  0.0059
 1024MOL0     C35102   8.629   1.283  10.741  0.1230 -0.5111 -1.1438
 1024MOL0     H35103   8.127   1.175  10.659 -3.4895  0.4156  0.4851
 1024MOL0     H35104   7.968   1.006  10.565 -1.4467 -2.3174  0.9610
 1024MOL0     H35105   7.837   0.806  10.520 -1.3188 -1.0169 -0.1917
 1024MOL0     H35106   7.866   0.817  10.690 -1.8236 -4.0214  2.6373
 1024MOL0     H35107   7.865   0.569  10.728 -0.6510 -1.5726 -0.2626
 1024MOL0     H35108   7.830   0.548  10.556 -0.9191  1.0576 -0.6465
 1024MOL0     H35109   7.631   0.661  10.579  1.5815 -0.1066 -0.4003
 1024MOL0     H35110   7.661   0.705  10.746 -4.8135 -0.4860 -0.1859
 1024MOL0     H35111   7.630   0.402  10.672  0.0274 -0.5466  0.8245
 1024MOL0     H35112   7.646   0.486  10.818 -0.1553 -4.1512 -0.2042
 1024MOL0     H35113   7.416   0.513  10.610 -3.3891  0.5267  0.6865
 1024MOL0     H35114   7.419   0.590  10.771 -0.5718 -0.2523  0.6500
 1024MOL0     H35115   7.415   0.365  10.879  0.7096  1.0214  0.4646
 1024MOL0     H35116   7.430   0.280  10.722  1.7566 -0.4815  1.6227
 1024MOL0     H35117   7.185   0.328  10.826 -2.6064 -1.3926 -3.2432
 1024MOL0     H35118   7.214   0.494  10.760 -2.1972 -0.2362 -0.7292
 1024MOL0     H35119   7.265   0.344  10.540  2.2070 -0.8918  0.7633
 1024MOL0     H35120   7.097   0.389  10.600 -1.1790 -0.5025  0.8049
 1024MOL0     H35121   6.942   0.184  10.663  0.7950  0.4727  2.7938
 1024MOL0     H35122   6.891  -0.065  10.720  0.0863 -0.1723 -1.3473
 1024MOL0     H35123   6.997  -0.193  10.741 -2.6241 -2.8157 -1.0925
 1024MOL0     H35124   6.989  -0.212  10.483 -0.2633 -0.0752 -2.0094
 1024MOL0     H35125   6.858  -0.095  10.486 -0.1483 -0.7926 -1.4484
 1024MOL0     H35126   6.778  -0.328  10.468 -2.8162  0.9665  0.5687
 1024MOL0     H35127   6.896  -0.379  10.596 -1.8646 -0.5024  3.3691
 1024MOL0     H35128   6.754  -0.280  10.764  0.7698  1.2163  0.4069
 1024MOL0     H35129   6.648  -0.384  10.663  0.9763 -0.0586 -1.6029
 1024MOL0     H35130   6.575  -0.168  10.362 -1.1789 -0.4207 -1.2991
 1024MOL0     H35131   6.362  -0.206  10.264  1.3174  3.2800  0.3454
 1024MOL0     H35132   5.792  -0.301  10.563 -0.5593  0.4271  0.5589
 1024MOL0     H35133   5.594  -0.380  10.477  0.3921  0.4139  1.3831
 1024MOL0     H35134   5.605  -0.732  10.147  1.5734  0.0181 -2.0216
 1024MOL0     H35135   5.629  -0.581  10.062  0.8829  0.9622  0.7325
 1024MOL0     H35136   5.432  -0.750  10.022 -0.4739  0.5359 -1.3310
 1024MOL0     H35137   5.381  -0.572  10.046  0.8657 -0.6460 -0.7962
 1024MOL0     H35138   5.309  -0.598  10.247  1.9186 -0.4692  0.6144
 1024MOL0     H35139   5.396  -0.746  10.287  0.7690 -1.1395 -0.9878
 1024MOL0     H35140   5.158  -0.699  10.099 -1.3595  2.2663  2.2018
 1024MOL0     H35141   5.247  -0.852  10.104 -1.7561 -1.3184  0.9816
 1024MOL0     H35142   5.105  -0.718  10.337 -1.1000 -0.6246  0.1599
 1024MOL0     H35143   5.186  -0.882  10.335  0.8258 -0.5193 -0.1505
 1024MOL0     H35144   5.031  -0.944  10.139 -3.7000 -0.1311 -0.6861
 1024MOL0     H35145   4.943  -0.796  10.150 -1.2567  0.8269  1.2028
 1024MOL0     H35146   4.959  -1.000  10.370 -0.8698 -1.0992 -0.4597
 1024MOL0     H35147   4.870  -0.851  10.378 -1.1339  0.8274 -0.4351
 1024MOL0     H35148   4.783  -1.068  10.174  1.0041 -0.5489  1.4896
 1024MOL0     H35149   4.720  -0.922  10.186  1.2052  0.2000 -0.3458
 1024MOL0     H35150   5.807  -0.612  10.177 -3.6044  0.6215 -0.9050
 1024MOL0     H35151   6.021  -0.528  10.286  0.1474  0.9658 -1.1005
 1024MOL0     H35152   6.194  -0.305  10.653 -2.8635 -0.6869 -3.7048
 1024MOL0     H35153   6.403  -0.261  10.748  2.6784  0.2308 -0.5154
 1024MOL0     H35154   8.255   0.699  10.665 -1.0737 -0.9168 -1.5415
 1024MOL0     H35155   8.417   0.881  10.709  0.5607 -2.4451 -1.2210
 1024MOL0     H35156   8.699   1.118  10.455 -1.0783 -1.7142  1.5465
 1024MOL0     H35157   8.923   1.201  10.509 -2.0708  0.5963 -3.5784
 1024MOL0     H35158   9.001   1.346  10.894  3.1121  0.1116  1.8356
 1024MOL0     H35159   8.957   1.507  10.818  1.2679 -0.4961  0.0955
 1024MOL0     H35160   9.192   1.540  10.757 -1.3537 -0.7599 -0.5797
 1024MOL0     H35161   9.175   1.510  10.939  1.2109  0.0118  0.4432
 1024MOL0     H35162   9.255   1.313  10.725 -1.5356 -0.9832 -0.0924
 1024MOL0     H35163   9.237   1.276  10.895 -0.1693  2.4708  3.3831
 1024MOL0     H35164   9.420   1.447  10.954  2.9288 -0.1080  1.3196
 1024MOL0     H35165   9.468   1.300  10.873  0.7232  1.3927 -0.9945
 1024MOL0     H35166   9.590   1.567  10.576  1.2338 -0.7864  0.8407
 1024MOL0     H35167   8.761   1.404  10.852 -1.9184  2.8040 -1.7227
 1024MOL0     H35168   8.552   1.320  10.808  0.0134  0.4814 -1.7919
  11.29496  11.29496  11.29496
